LAMMPS data file via write_data, version 15 Apr 2020, timestep = 500000

3072 atoms
2 atom types

1.5514789628724834e-01 2.9985046103709486e+01 xlo xhi
1.2513884483998794e-01 2.8215327155154792e+01 ylo yhi
1.1530106958641362e-01 2.7296143930409013e+01 zlo zhi
1.0145289855343607e+01 1.0156414868894682e+01 7.0610533469921908e+00 xy xz yz

Masses

1 16
2 2

Atoms # atomic

1 1 7.3138302565080595e+00 5.4334116574413303e+00 4.0450811315701038e+00 0 0 0
2 2 6.5737284770228666e+00 4.8302748074187543e+00 3.9217714641462522e+00 0 0 0
3 2 7.0351716283924883e+00 6.2343516411442659e+00 4.5538717511798632e+00 0 0 0
4 1 1.0209757995529840e+01 6.9151948529371756e+00 1.0851527459996856e+01 0 0 0
5 2 1.0550736139672322e+01 6.4868097352267799e+00 1.1659287544275109e+01 0 0 0
6 2 9.9884714099453067e+00 7.8170782800171672e+00 1.1170553359152450e+01 0 0 0
7 1 9.9269261519814815e+00 1.2363161585770747e+01 4.0022583340737041e+00 0 0 0
8 2 1.0517255101996197e+01 1.1947559409652531e+01 4.6560395299143478e+00 0 0 0
9 2 9.5094205248800829e+00 1.3150688959853269e+01 4.3520050061585192e+00 0 0 0
10 1 1.2297938565179523e+01 1.4068301602155959e+01 1.0809819039012785e+01 0 0 0
11 2 1.3004038123302646e+01 1.4039277125758609e+01 1.0142361972215575e+01 0 0 0
12 2 1.1690487193362996e+01 1.3405859465588062e+01 1.0367355160862365e+01 0 0 0
13 1 1.4863748916848371e+01 5.2355310854795718e+00 3.7807411632921744e+00 0 0 0
14 2 1.5192782405404447e+01 4.8678209531930392e+00 4.6045115138314623e+00 0 0 0
15 2 1.4616011138608391e+01 6.1410559834753311e+00 4.0671524671868635e+00 0 0 0
16 1 1.7219318077253014e+01 6.8928943184388398e+00 1.0936555655269338e+01 0 0 0
17 2 1.7559382646419941e+01 6.3899893930199001e+00 1.1758542117123328e+01 0 0 0
18 2 1.8063257966196836e+01 7.0833019549776850e+00 1.0449879476434257e+01 0 0 0
19 1 1.7508529575732709e+01 1.2501010248549406e+01 3.9519491887343552e+00 0 0 0
20 2 1.8200544948329863e+01 1.2634887742788774e+01 3.2966800177610778e+00 0 0 0
21 2 1.8031291102233737e+01 1.2074717303496064e+01 4.6497511319681522e+00 0 0 0
22 1 2.0137914638905869e+01 1.3638387582390489e+01 1.0733228003686287e+01 0 0 0
23 2 2.0827635640843162e+01 1.4033828705483751e+01 1.0139720384459757e+01 0 0 0
24 2 1.9767216362383756e+01 1.4446294985760270e+01 1.1068927652000758e+01 0 0 0
25 1 1.2010192131295137e+01 8.0578040745753157e+00 6.4266840922883288e+00 0 0 0
26 2 1.1225120614366963e+01 8.5850389750217104e+00 6.0996384034429765e+00 0 0 0
27 2 1.1406168779686919e+01 7.4554242968413789e+00 6.9766791190361124e+00 0 0 0
28 1 1.4129591066654614e+01 9.9247759858500793e+00 1.3159568126839277e+01 0 0 0
29 2 1.4438107849476735e+01 9.4634708827657761e+00 1.2327151048160150e+01 0 0 0
30 2 1.3364815721843305e+01 1.0507263865663028e+01 1.2821628099881913e+01 0 0 0
31 1 1.3920759436406021e+01 1.5008014988978465e+01 6.4014338414351997e+00 0 0 0
32 2 1.4194553769449195e+01 1.4562316510432844e+01 5.5709909214452580e+00 0 0 0
33 2 1.3253340248798303e+01 1.5660706202447416e+01 5.9760440669443247e+00 0 0 0
34 1 1.6732482458589629e+01 1.6910828022898574e+01 1.3074079178452976e+01 0 0 0
287 2 2.3001784669138289e+01 1.5027775100220627e+01 1.0054070515426138e+01 0 0 0
35 2 1.6068961759046239e+01 1.7468721313756248e+01 1.2636525665976320e+01 0 0 0
37 1 1.9108240441492818e+01 8.1559579278664316e+00 6.4421260772214701e+00 0 0 0
38 2 1.8233011274379024e+01 8.3949422773520563e+00 5.9583774308518240e+00 0 0 0
39 2 1.8755242242437610e+01 7.5868722366423107e+00 7.1267495455378898e+00 0 0 0
40 1 2.1483874435501100e+01 9.7894043068681746e+00 1.2975609489908042e+01 0 0 0
1152 2 2.4078560528418578e+01 3.1069643249794002e+01 1.2300025121119418e+01 0 0 0
42 2 2.0667575937144754e+01 1.0284103592454180e+01 1.2803656377342911e+01 0 0 0
869 2 1.3205000852859204e+01 2.0849821012436742e+01 1.3358733986511599e+01 0 0 0
44 2 2.1061200064383939e+01 1.5454094277604099e+01 6.2631261721092812e+00 0 0 0
1151 2 2.4423318872498058e+01 2.9923413724860730e+01 1.3242169709514251e+01 0 0 0
46 1 2.4075061807975999e+01 1.7084297689565247e+01 1.3044766312616400e+01 0 0 0
47 2 2.3286172598898737e+01 1.7566895343856089e+01 1.2646321672439058e+01 0 0 0
1056 2 2.8084970620358050e+01 2.8964832233199793e+01 1.0050899060072119e+01 0 0 0
49 1 5.3291466449646396e+00 3.7676719262090757e+00 3.0946257381997913e+00 0 0 0
50 2 5.5033072351570418e+00 2.8428617655672981e+00 2.8365953306240064e+00 0 0 0
51 2 4.4984562542411259e+00 3.7292322528601418e+00 3.5724874111473857e+00 0 0 0
52 1 7.7696507700616246e+00 5.7197060559706996e+00 9.8713726363242529e+00 0 0 0
53 2 7.1966210200560408e+00 6.1476546243747698e+00 9.2059485178983191e+00 0 0 0
54 2 8.4593903268312687e+00 6.3307246899274841e+00 1.0214213469308788e+01 0 0 0
55 1 7.9191788072060998e+00 1.0691739947026354e+01 3.1404484900829073e+00 0 0 0
56 2 8.0614066046575115e+00 9.9356157552914350e+00 2.5609267049990474e+00 0 0 0
57 2 8.7886953288256837e+00 1.1149345504971901e+01 3.3689638320519864e+00 0 0 0
58 1 1.0309802121172844e+01 1.2482955388648058e+01 9.8047630869110876e+00 0 0 0
59 2 9.8980206607975099e+00 1.2790881075983689e+01 8.9772202098209384e+00 0 0 0
60 2 1.0710723762385522e+01 1.1655916969961007e+01 9.5890780199226562e+00 0 0 0
61 1 1.2856401625977904e+01 3.6703633891398546e+00 2.9417713081731516e+00 0 0 0
62 2 1.3607317857628498e+01 4.3388301153781157e+00 3.0721882762749995e+00 0 0 0
63 2 1.2309687285222982e+01 4.0083451678477449e+00 2.1610644731454558e+00 0 0 0
64 1 1.5233784802684623e+01 5.3164204567304214e+00 9.8410636745996936e+00 0 0 0
65 2 1.5890944245522705e+01 5.8670765646146013e+00 1.0350837605375283e+01 0 0 0
66 2 1.5640077838812120e+01 4.4785301259879589e+00 9.4826937279328209e+00 0 0 0
67 1 1.5319510917061562e+01 1.0920168067868628e+01 2.6676453913344078e+00 0 0 0
68 2 1.6016794383297295e+01 1.1391375058076283e+01 3.1677732310358024e+00 0 0 0
69 2 1.5676496082326043e+01 1.0047230321605587e+01 2.3868046314610001e+00 0 0 0
70 1 1.7768059160370875e+01 1.2335017833686654e+01 9.5669021325019745e+00 0 0 0
71 2 1.7427578830945762e+01 1.2633248637034679e+01 8.7027750366152947e+00 0 0 0
72 2 1.8533949225185928e+01 1.2846642182843560e+01 9.8957362334932277e+00 0 0 0
73 1 1.1584302127468562e+00 9.1599175616764128e-01 4.5785169842387108e-01 0 0 0
277 1 1.7221536782427698e+01 6.1244143975503542e+00 2.7054726903360260e+00 0 0 0
1150 1 2.4767528097354749e+01 3.0329384192785625e+01 1.2410272864873377e+01 0 0 0
282 2 2.0327991721101924e+01 7.8084974094799229e+00 1.0367529294609835e+01 0 0 0
77 2 4.3723902093061202e+00 2.3004155068888705e+00 7.6296667660693371e+00 0 0 0
1611 2 6.8295133548743090e+00 4.9716451661961987e+00 1.3702240180252401e+01 0 0 0
327 2 1.0739642079615514e+01 3.7460448097005878e+00 6.2996545514968527e-01 0 0 0
1140 2 1.8289794373621312e+01 3.0998408053067770e+01 1.2119502900608046e+01 0 0 0
81 2 4.5158085237910459e+00 7.6209631962550812e+00 1.1710961154209443e+00 0 0 0
114 2 1.4599264285752126e+01 5.7606471999203208e+00 1.3280363819915927e+01 0 0 0
1149 2 2.2171663161163011e+01 2.7931511344819167e+01 4.8884799889269601e+00 0 0 0
84 2 7.0636260298863052e+00 9.3654934629258229e+00 7.7523309290731195e+00 0 0 0
85 1 8.3180364601181545e+00 7.9029945411057323e-01 9.0657575945444480e-01 0 0 0
974 2 2.1918089840795581e+01 1.6943642214810502e+01 3.2359741376312399e+00 0 0 0
87 2 8.3964061590301835e+00 1.3944756596729815e+00 1.6617231492180142e+00 0 0 0
88 1 1.1021007241837770e+01 2.7636191326375315e+00 7.4038164981766297e+00 0 0 0
89 2 1.1733610412545618e+01 2.2601173975474040e+00 7.9174256166596608e+00 0 0 0
90 2 1.1531758744846005e+01 3.4217813265418204e+00 6.8681949431433544e+00 0 0 0
91 1 1.1120393683949073e+01 8.1850082997852009e+00 7.4234713273367059e-01 0 0 0
1095 2 1.5967768734190777e+01 1.7957547302572145e+01 3.2492097971452893e-01 0 0 0
93 2 1.1864306761383698e+01 7.5783669844805637e+00 1.0165384929763110e+00 0 0 0
94 1 1.4145041668315796e+01 9.8763014217991767e+00 7.4739638889801796e+00 0 0 0
95 2 1.4698201057728836e+01 9.1968529952634910e+00 8.0209338577360576e+00 0 0 0
96 2 1.3470117331256098e+01 9.2745827698626648e+00 7.0676437528366396e+00 0 0 0
97 1 5.3497501049432881e+00 4.4500327601172938e+00 6.1388947460112098e+00 0 0 0
98 2 5.5502706227829499e+00 5.0606943555827879e+00 6.8735009001527336e+00 0 0 0
99 2 4.5033840659177340e+00 3.9947298414206878e+00 6.3837668653050192e+00 0 0 0
100 1 7.7702602014895339e+00 6.0364150691035583e+00 1.2844611474057620e+01 0 0 0
101 2 7.2614934919950898e+00 6.5918769467807454e+00 1.2262920252420654e+01 0 0 0
102 2 8.4139482284116252e+00 5.5338180940583328e+00 1.2370839921710294e+01 0 0 0
103 1 7.8683955279081310e+00 1.1436870909052631e+01 6.1550119929800031e+00 0 0 0
104 2 7.7719520618115014e+00 1.1952891357825898e+01 5.3073680900341618e+00 0 0 0
105 2 7.0207755061473680e+00 1.0983151097928037e+01 6.2625047331852874e+00 0 0 0
106 1 1.0074667269907282e+01 1.3261596379409454e+01 1.2716671402144916e+01 0 0 0
206 2 1.6716954259281174e+01 2.6490066914816182e+00 3.3210015451201813e+00 0 0 0
108 2 1.0794945333701031e+01 1.2630005674323179e+01 1.2435221564387241e+01 0 0 0
109 1 1.2755000372539426e+01 4.4001685875753127e+00 6.1939316103738129e+00 0 0 0
110 2 1.3420600899119984e+01 3.8177002645249285e+00 5.7419651888543752e+00 0 0 0
111 2 1.2404524847312603e+01 4.9396956530934322e+00 5.4862479525753720e+00 0 0 0
112 1 1.5206518775565138e+01 6.3012789871101793e+00 1.2706835465220870e+01 0 0 0
1106 2 8.6044239867121401e+00 2.0536751418315450e+01 3.8320146947867673e+00 0 0 0
345 2 6.1606980310409956e+00 1.3305169630526313e+01 3.6873431246239661e+00 0 0 0
115 1 1.5700055076500764e+01 1.1321608218496008e+01 5.8430505489153939e+00 0 0 0
116 2 1.4961573405956239e+01 1.0846649324135326e+01 6.3059234404711439e+00 0 0 0
117 2 1.6046005076463182e+01 1.1979293865087158e+01 6.5451676500796792e+00 0 0 0
118 1 1.7815447044947454e+01 1.3386961872547845e+01 1.2913661367499415e+01 0 0 0
76 1 3.5221033079161277e+00 2.7473040695721700e+00 7.5003774580813181e+00 0 0 0
120 2 1.7401772401174384e+01 1.3776467525915095e+01 1.2136528601260128e+01 0 0 0
121 1 2.9531330045544593e+00 3.0799907071115049e+00 4.5210027091183642e+00 0 0 0
978 2 2.3603728333662040e+01 1.7760738669569818e+01 9.1789869471207162e+00 0 0 0
123 2 3.3702866375814988e+00 2.2218261099090721e+00 4.8643699979833928e+00 0 0 0
124 1 5.6703594326305122e+00 4.6118410110261774e+00 1.1344183517028807e+01 0 0 0
125 2 6.4251905736205401e+00 5.0811894072962218e+00 1.0821885305463736e+01 0 0 0
126 2 6.0003432897308615e+00 3.8144230584484911e+00 1.1735352154634333e+01 0 0 0
127 1 5.7103132297523107e+00 1.0231752707764244e+01 4.6332086070847707e+00 0 0 0
1232 2 2.3393689828355996e+01 2.2652861813216994e+01 1.2927565470249338e+00 0 0 0
129 2 6.5296501153985318e+00 1.0489984643220653e+01 4.1554594381588545e+00 0 0 0
130 1 8.1471825936782949e+00 1.1499260989365844e+01 1.0980143288001846e+01 0 0 0
320 2 6.2928888679384203e+00 1.0853850102242175e+01 3.2724441393645265e-01 0 0 0
132 2 8.8619709826664828e+00 1.2081384897034974e+01 1.0661014473150340e+01 0 0 0
133 1 1.0758995304426064e+01 2.7943281725845539e+00 4.3511514819566948e+00 0 0 0
134 2 1.1091372931680453e+01 1.9161214199524363e+00 4.5691870704414974e+00 0 0 0
135 2 1.1506581783702236e+01 3.1333790182054559e+00 3.8262818690615599e+00 0 0 0
136 1 1.3213849399311238e+01 4.3410018894417925e+00 1.0986461915129148e+01 0 0 0
137 2 1.4058262320044603e+01 4.7324437546228459e+00 1.0476836253863597e+01 0 0 0
138 2 1.2951588880235599e+01 5.0461656294367501e+00 1.1687267162108625e+01 0 0 0
139 1 1.3456614582019883e+01 9.8472275661323003e+00 4.4636834034430581e+00 0 0 0
140 2 1.4162688080569845e+01 1.0322775146237863e+01 3.9026695164814842e+00 0 0 0
141 2 1.3755764506837590e+01 8.9303748906523275e+00 4.6743845662349139e+00 0 0 0
142 1 1.5559636127335745e+01 1.1682773248619753e+01 1.0984384334885887e+01 0 0 0
143 2 1.6348919429837615e+01 1.2060887183300576e+01 1.0500319742286283e+01 0 0 0
144 2 1.5920471970196155e+01 1.0928128974437369e+01 1.1448500113862014e+01 0 0 0
145 1 6.4804205543401716e+00 1.9881649718154590e+00 5.2291359220255966e+00 0 0 0
146 2 7.2530506327442472e+00 1.7381056785579145e+00 5.7688580280672639e+00 0 0 0
147 2 6.1857672049453214e+00 2.8477826946182176e+00 5.5446172746961091e+00 0 0 0
148 1 9.4680264839565442e+00 4.1555223797226821e+00 1.1823068958071657e+01 0 0 0
149 2 9.7789467172938966e+00 4.1671500626401210e+00 1.0890260047989205e+01 0 0 0
150 2 1.0120145738541996e+01 3.8288889798440282e+00 1.2464233184701166e+01 0 0 0
151 1 9.7116171654729975e+00 9.0766327504231832e+00 5.2702919157126402e+00 0 0 0
152 2 9.5713508984119091e+00 9.8928702684642751e+00 5.8369965032264792e+00 0 0 0
153 2 1.0177382195470727e+01 9.3397847702801080e+00 4.4478667602446960e+00 0 0 0
154 1 1.2084991459734907e+01 1.0914755897752691e+01 1.1871185247678410e+01 0 0 0
155 2 1.1317308558261450e+01 1.0307271363549038e+01 1.1959836023067718e+01 0 0 0
156 2 1.2354434981823863e+01 1.1004326620032714e+01 1.0955627278617163e+01 0 0 0
157 1 1.4312943516644497e+01 2.3154538504408566e+00 4.8830520112867335e+00 0 0 0
158 2 1.5000213798849879e+01 2.0020318234070702e+00 5.4776514661707898e+00 0 0 0
159 2 1.4724839281629215e+01 2.4449110365339548e+00 4.0345847784507072e+00 0 0 0
160 1 1.6696029919421299e+01 3.9442271150451051e+00 1.2033571976131997e+01 0 0 0
161 2 1.6153537925258668e+01 4.7014649563723356e+00 1.2327491363669026e+01 0 0 0
162 2 2.6180088136933975e+01 3.1340595006602161e+01 1.2221239806235811e+01 0 -1 0
163 1 1.6892593612407161e+01 8.8828439594783468e+00 5.0015126316458494e+00 0 0 0
164 2 1.6705364050934108e+01 9.7760631766625732e+00 5.4053784271314447e+00 0 0 0
165 2 1.7201055350180752e+01 9.1489645243849580e+00 4.1481806156982186e+00 0 0 0
166 1 1.9239006998415874e+01 1.1170744851478952e+01 1.2070111932089844e+01 0 0 0
167 2 1.8756217043401975e+01 1.1953092222313565e+01 1.2396780647718188e+01 0 0 0
168 2 1.9683629917345797e+01 1.1450195979452833e+01 1.1240955014585493e+01 0 0 0
169 1 9.2574001374434438e+00 4.6905629117065759e+00 5.7843837838733334e+00 0 0 0
170 2 9.8683358510516133e+00 4.0410179853047890e+00 5.3728974116019588e+00 0 0 0
171 2 8.4933574502736224e+00 4.7512470621291314e+00 5.2081383864243120e+00 0 0 0
172 1 1.1723220960056825e+01 6.0820300488169572e+00 1.2930939330809123e+01 0 0 0
113 2 1.5495921207729840e+01 6.9631742714684535e+00 1.3384575898144359e+01 0 0 0
119 2 1.7166533406788538e+01 1.2765999338210619e+01 1.3205835265314592e+01 0 0 0
175 1 1.1420768762920501e+01 1.1478668472999694e+01 6.1082382584816637e+00 0 0 0
176 2 1.2252616701046232e+01 1.1160458308114796e+01 5.6083521773247940e+00 0 0 0
177 2 1.1545812690472253e+01 1.2275397233231924e+01 6.6496125269642086e+00 0 0 0
178 1 1.3909985500247211e+01 1.2983147514075252e+01 1.2995028185728389e+01 0 0 0
179 2 1.3359054791157659e+01 1.3426313924514975e+01 1.2326472458894546e+01 0 0 0
180 2 1.4506347398534688e+01 1.2474550466675499e+01 1.2408335156493925e+01 0 0 0
181 1 1.6082200696890411e+01 4.5050884903328523e+00 6.2279266656312711e+00 0 0 0
182 2 1.6771060712729451e+01 3.9252236011056598e+00 5.7960481654491405e+00 0 0 0
183 2 1.6670807612082918e+01 5.0969648438202064e+00 6.7955376504479874e+00 0 0 0
184 1 1.8958517820435183e+01 6.1781113755656936e+00 1.2833365988131758e+01 0 0 0
882 2 2.0011629191574691e+01 1.9443642876335826e+01 1.3319634868904979e+01 0 0 0
1138 1 1.7524986300907543e+01 3.0348506431064720e+01 1.2065477843940581e+01 0 0 0
187 1 1.8953669347313500e+01 1.1145181169572883e+01 6.1261290223244025e+00 0 0 0
188 2 1.8409519185165891e+01 1.0727119157861756e+01 6.8058325137194640e+00 0 0 0
189 2 1.9355558516484159e+01 1.2020410889351822e+01 6.4484109191591479e+00 0 0 0
190 1 2.1611185085361178e+01 1.3035040024927364e+01 1.2908305395273405e+01 0 0 0
1050 2 2.5085096355452386e+01 2.1676107625827729e+01 8.9049453193323203e+00 0 0 0
192 2 2.1038132867838002e+01 1.3225642550134362e+01 1.2099314695049735e+01 0 0 0
193 1 8.3846949109515645e+00 2.5846322028539315e+00 3.0710878284023635e+00 0 0 0
194 2 7.7583693453383376e+00 2.2753662448274752e+00 3.7018241949847472e+00 0 0 0
195 2 9.3042080845920676e+00 2.5370587370191280e+00 3.4270091464079258e+00 0 0 0
196 1 1.0620125194334221e+01 4.3544590925769509e+00 9.4642711885009732e+00 0 0 0
197 2 1.0548640259546513e+01 3.6895939168649634e+00 8.7414918505228911e+00 0 0 0
198 2 1.1545744688481973e+01 4.4403996139911968e+00 9.7299891427239231e+00 0 0 0
199 1 1.1074232482644559e+01 9.6841587517520331e+00 3.0873540906291512e+00 0 0 0
200 2 1.1174195763234907e+01 8.8932358535821052e+00 2.5826129242149225e+00 0 0 0
201 2 1.2026280896551627e+01 9.7883136213165685e+00 3.3854385946529848e+00 0 0 0
202 1 1.3392681788814018e+01 1.1435995647698929e+01 9.7186348729674847e+00 0 0 0
203 2 1.4326714232928916e+01 1.1555417807013503e+01 1.0109008721953447e+01 0 0 0
204 2 1.3458210256335155e+01 1.0737183589893752e+01 8.9959212500486192e+00 0 0 0
205 1 1.5978274604020243e+01 2.6793194099946720e+00 2.6275497401358203e+00 0 0 0
1022 2 1.9666457900132407e+01 1.7784968508639810e+01 1.3047794693995782e-01 0 0 0
1132 1 1.4917827929505700e+01 2.3496380964144929e+01 1.1909531552777191e+01 0 0 0
208 1 1.8298163683439128e+01 4.1345354675668196e+00 9.7088603747381192e+00 0 0 0
209 2 1.7704564227628893e+01 4.3068087237647514e+00 1.0441189552137756e+01 0 0 0
1139 2 1.7268429251765113e+01 3.0259250861179424e+01 1.3033567120998914e+01 0 0 0
211 1 1.8590085676506206e+01 9.8213396850573709e+00 2.6538602437817032e+00 0 0 0
1113 2 1.1832878476835170e+01 2.7889252105963706e+01 5.1834510827592633e+00 0 0 0
186 2 1.8638801500284416e+01 5.7001409276791719e+00 1.3654913897719183e+01 0 0 0
214 1 2.0733765653269707e+01 1.1516104824606529e+01 9.4844264214484095e+00 0 0 0
812 2 2.7466907187560743e+01 2.9618647875869126e+01 6.6379944423252377e+00 0 0 0
849 2 9.3144516071109269e+00 2.2327844295225297e+01 1.5407377852028220e-01 0 0 0
217 1 5.7258766008920761e+00 1.3740450751694506e+00 1.9706696078268442e+00 0 0 0
218 2 4.8444676576170771e+00 9.2913976040392987e-01 1.9255089628487263e+00 0 0 0
219 2 5.9793919888299234e+00 1.6354533887518716e+00 1.0508196459146604e+00 0 0 0
220 1 7.9350519497985612e+00 3.3684172966717565e+00 8.1313068442325189e+00 0 0 0
221 2 7.8746445914809282e+00 4.1676776395938688e+00 8.7448302945831067e+00 0 0 0
222 2 8.4252584244913962e+00 3.6054451323168260e+00 7.3430647084741612e+00 0 0 0
223 1 8.1061991012442611e+00 8.5897123332084018e+00 1.5259562848820352e+00 0 0 0
224 2 8.8156415658553211e+00 7.9629780139065618e+00 1.8753117841959674e+00 0 0 0
225 2 8.4631341600591750e+00 8.8614888326160379e+00 6.0872701981569566e-01 0 0 0
226 1 1.1088926145321635e+01 1.0155801857987969e+01 8.5963789975502500e+00 0 0 0
227 2 1.1462635627999125e+01 9.3114205389255211e+00 8.9070122267125065e+00 0 0 0
228 2 1.1401609619405464e+01 1.0316945795313808e+01 7.6641804018937423e+00 0 0 0
229 1 1.3498570818615196e+01 1.2445835754339560e+00 1.6059383669668137e+00 0 0 0
230 2 1.2565294689291003e+01 8.4740335538852707e-01 1.7058063269925157e+00 0 0 0
231 2 1.3418300279780647e+01 2.1132416041893709e+00 2.1450854687458585e+00 0 0 0
232 1 1.5629639762565086e+01 2.9611590164005204e+00 8.5781789766628140e+00 0 0 0
233 2 2.6472373966967957e+01 3.0435811796300648e+01 8.8010697601445926e+00 0 -1 0
234 2 1.5798043779408490e+01 3.3102727923359243e+00 7.6737219106470107e+00 0 0 0
235 1 1.5708833055204961e+01 8.3937371512791827e+00 1.8031754061404952e+00 0 0 0
236 2 1.5983084279226627e+01 8.7382561361088698e+00 9.4763041933189007e-01 0 0 0
237 2 1.6348026081436764e+01 7.6855334574109238e+00 1.9695588773689119e+00 0 0 0
238 1 1.8163472611543789e+01 1.0033132594746526e+01 8.7546379909601839e+00 0 0 0
239 2 1.8900575154528596e+01 9.5569258952827951e+00 9.1387594882676773e+00 0 0 0
240 2 1.8140383500487779e+01 1.0928967835798364e+01 9.1795581709333849e+00 0 0 0
241 1 7.6700493159009593e+00 4.3429934373154531e+00 1.2576974367891371e+00 0 0 0
242 2 7.9920639309216002e+00 3.7610330795496365e+00 2.0170372938135559e+00 0 0 0
243 2 7.0318704195981452e+00 5.0088172452079620e+00 1.5662563535455336e+00 0 0 0
244 1 9.8990483978535124e+00 6.4685178395618159e+00 7.6634422355304643e+00 0 0 0
245 2 1.0001772224443821e+01 5.8323601450368230e+00 8.3822426486227641e+00 0 0 0
246 2 9.5768042143054632e+00 5.8814205101558485e+00 6.9032814485465090e+00 0 0 0
247 1 1.0153162471273646e+01 1.1609957864339195e+01 8.2480061759476897e-01 0 0 0
248 2 9.4083533694180321e+00 1.2182872833190601e+01 1.0223299248830531e+00 0 0 0
249 2 1.0323425172359654e+01 1.1228070979497820e+01 1.7435436778858397e+00 0 0 0
250 1 1.2141721750496359e+01 1.3410870735322591e+01 7.7179248355182741e+00 0 0 0
251 2 1.2495426254495843e+01 1.2844567564149189e+01 8.4159251743961807e+00 0 0 0
252 2 1.2817550273301320e+01 1.4009931171623219e+01 7.4508271958086469e+00 0 0 0
253 1 1.5205627929972518e+01 4.7260458469029691e+00 8.4237637633235962e-01 0 0 0
254 2 1.5473351188251605e+01 4.1407174415278947e+00 1.5873431970696283e+00 0 0 0
255 2 1.4659870956084692e+01 5.4293044628460283e+00 1.2906186682837733e+00 0 0 0
256 1 1.7631115865308310e+01 5.9974019858137790e+00 8.0255893610149656e+00 0 0 0
257 2 1.7739582168886386e+01 5.3703822665860494e+00 8.8010467908307586e+00 0 0 0
258 2 1.6938889896211222e+01 6.6369500662639833e+00 8.4043679261927817e+00 0 0 0
259 1 1.7472882356575781e+01 1.1554066786780043e+01 7.7536830163992554e-01 0 0 0
260 2 1.6867372851211968e+01 1.2312053051527000e+01 1.0722353098812885e+00 0 0 0
983 2 2.5875513355658811e+01 2.4824523649386009e+01 9.0978696097634888e+00 0 0 0
262 1 2.0068024012250504e+01 1.3287983113541884e+01 7.4880907377344634e+00 0 0 0
263 2 2.0306913262957003e+01 1.2719429564316279e+01 8.2381200926435039e+00 0 0 0
264 2 2.0881825126047360e+01 1.3749044139948630e+01 7.0954728262468434e+00 0 0 0
265 1 9.4828893142609534e+00 6.4084112035089307e+00 2.8141882645694904e+00 0 0 0
266 2 8.6751385041515139e+00 5.9907419177888492e+00 3.1743901412965383e+00 0 0 0
267 2 9.8693338966829831e+00 5.7389580703626688e+00 2.1859941809332568e+00 0 0 0
268 1 1.2394816372835734e+01 7.7963021041543392e+00 9.5322691485488029e+00 0 0 0
269 2 1.2721337604442974e+01 7.4773818701221035e+00 8.6895600979720591e+00 0 0 0
270 2 1.1536637646839582e+01 7.3895536748736745e+00 9.8313820560851823e+00 0 0 0
271 1 1.2035310067267112e+01 1.3454945548676779e+01 2.7885355204787476e+00 0 0 0
272 2 1.2755559273981016e+01 1.3371457633480428e+01 3.4353868937159526e+00 0 0 0
273 2 1.1220248715759528e+01 1.3082565731640953e+01 3.1553265835275215e+00 0 0 0
274 1 1.4699248144802004e+01 1.4576153803708994e+01 9.2501353077590025e+00 0 0 0
275 2 1.4343021295982686e+01 1.5424824421726152e+01 9.0079010148357579e+00 0 0 0
276 2 1.5378561121553423e+01 1.4791794479669115e+01 9.9234436030150199e+00 0 0 0
216 2 2.0698043661683407e+01 1.0673563705446851e+01 8.9689539069635824e+00 0 0 0
278 2 1.6505144949271312e+01 5.5546498472657699e+00 3.0648326968163673e+00 0 0 0
281 2 1.9892539023651636e+01 7.1675837078207696e+00 9.0292115599140050e+00 0 0 0
280 1 1.9571606827910607e+01 7.7355437437604664e+00 9.7916458638333381e+00 0 0 0
1722 2 1.3952915200085133e+01 1.9707259950840790e+00 2.4484698972374475e-01 0 0 1
806 2 2.4618068820280804e+01 2.2984656643732706e+01 6.7799143627227147e+00 0 0 0
283 1 1.9866017805471174e+01 1.3295912555239170e+01 2.6992428108593325e+00 0 0 0
847 1 8.7776420016745416e+00 2.1653375089215640e+01 7.0006144387476854e-01 0 0 0
959 2 2.7416888776139153e+01 2.6871492724271537e+01 1.2040140840989654e+01 0 0 0
286 1 2.2219719066598238e+01 1.5031100714628465e+01 9.5261650032811893e+00 0 0 0
215 2 2.1654610216083832e+01 1.1513275143446959e+01 9.6920746581755655e+00 0 0 0
288 2 2.1954493363911567e+01 1.5911353449477161e+01 9.2583294861052288e+00 0 0 0
289 1 6.0697722279601445e+00 6.7906739617094765e+00 1.6780848335548415e+00 0 0 0
290 2 5.7629517288811059e+00 6.6988898362647440e+00 2.5911723193453451e+00 0 0 0
291 2 6.7905437307500023e+00 7.4963918427004170e+00 1.6546092522252960e+00 0 0 0
292 1 8.6221433136775421e+00 8.6379661987876126e+00 8.8834377138276075e+00 0 0 0
293 2 9.0028028591362848e+00 7.9156769981616772e+00 8.3312507640512230e+00 0 0 0
294 2 9.3274718574793312e+00 9.2796281625548396e+00 8.7687021454123748e+00 0 0 0
295 1 8.4496995513285302e+00 1.3642881237597964e+01 1.7184318270273413e+00 0 0 0
296 2 7.9406223036802093e+00 1.3564266342395973e+01 2.5889937077837679e+00 0 0 0
297 2 7.7385261816151889e+00 1.3988029789659651e+01 1.1373448609110006e+00 0 0 0
298 1 1.0573879780070369e+01 1.5563431790069382e+01 8.8321328668947405e+00 0 0 0
299 2 1.0719375970322050e+01 1.4792891724950014e+01 8.2904816383780755e+00 0 0 0
300 2 9.9488719960979370e+00 1.6165723468021550e+01 8.3394055916269281e+00 0 0 0
301 1 1.3392088448296390e+01 6.7801171584821427e+00 1.7617176671141928e+00 0 0 0
302 2 1.3005002688427338e+01 6.6645778438740946e+00 2.6360159657467106e+00 0 0 0
303 2 1.4147250785489934e+01 7.3874716940504523e+00 1.8580216566168697e+00 0 0 0
304 1 1.6051641089346987e+01 8.2191864108300461e+00 8.7695956457330269e+00 0 0 0
305 2 1.5528235095975575e+01 8.3092572066401313e+00 9.5960212568000838e+00 0 0 0
306 2 1.6788368362715310e+01 8.8590504989816736e+00 8.7609159017624023e+00 0 0 0
307 1 1.6092338452658687e+01 1.3777436644313399e+01 1.8339098651410490e+00 0 0 0
308 2 1.5471355554789010e+01 1.4347257944378423e+01 1.3292366924405083e+00 0 0 0
309 2 1.6892734598397681e+01 1.4348253799077638e+01 1.9854326022287168e+00 0 0 0
310 1 1.8679131714161528e+01 1.5571863288683344e+01 8.4706308934268204e+00 0 0 0
311 2 1.9114904378835178e+01 1.4863946786346162e+01 7.9599291279230275e+00 0 0 0
312 2 1.7817064297633927e+01 1.5761180069530266e+01 8.0128520203031730e+00 0 0 0
313 1 3.9608586654784865e+00 4.7938421819049992e+00 8.9909060416745634e-01 0 0 0
213 2 1.8286696778658872e+01 1.0539065285249272e+01 2.0724491443718525e+00 0 0 0
315 2 4.5032273065885979e+00 4.4932599431098161e+00 1.6453627474151544e+00 0 0 0
316 1 6.1590801268034694e+00 6.5581841118661748e+00 7.6529802968193144e+00 0 0 0
317 2 6.4916081377800356e+00 6.9336562171269343e+00 6.8214770983838804e+00 0 0 0
318 2 5.3914234351932286e+00 7.0524136314141135e+00 8.0220455574613574e+00 0 0 0
319 1 6.5806785190258763e+00 1.1617674366446680e+01 8.8182634419126471e-01 0 0 0
107 2 1.0490514632683189e+01 1.3776114595892983e+01 1.3470828446331767e+01 0 0 0
321 2 7.1265314937902753e+00 1.1315409424896915e+01 1.5780378852347372e+00 0 0 0
322 1 8.9287021893750325e+00 1.3497677407134400e+01 7.7000544352139197e+00 0 0 0
323 2 8.2259658395751050e+00 1.3912532144158700e+01 8.2205307530732714e+00 0 0 0
324 2 8.5507144808010587e+00 1.2784452386263013e+01 7.2102487710380228e+00 0 0 0
325 1 1.1001174502018152e+01 4.5182920384341623e+00 1.1747634341330022e+00 0 0 0
43 1 2.1863516406598229e+01 1.4907659140866061e+01 6.3840861132483733e+00 0 0 0
36 2 1.6234645834216316e+01 1.6298541358000431e+01 1.3647154450673614e+01 0 0 0
328 1 1.3835099315562886e+01 6.4549903711592487e+00 7.7215516177821728e+00 0 0 0
329 2 1.3517508230965564e+01 5.6459300372358872e+00 7.3797389495681989e+00 0 0 0
330 2 1.4278382814823368e+01 6.3218943242976398e+00 8.5482425824461590e+00 0 0 0
331 1 1.3644357755231857e+01 1.1870550739946124e+01 1.0122922010903816e+00 0 0 0
332 2 1.2871094380273577e+01 1.2360871476601318e+01 1.4249104993548540e+00 0 0 0
333 2 1.4267387707818679e+01 1.1550366497426817e+01 1.7366735352921627e+00 0 0 0
334 1 1.6696757148736474e+01 1.3369908654109823e+01 7.4692896586283659e+00 0 0 0
335 2 1.6988627155356738e+01 1.4066768675404436e+01 6.7710601390126905e+00 0 0 0
336 2 1.5967489459714121e+01 1.3901576119854793e+01 7.8383997277343198e+00 0 0 0
337 1 4.4923340794169064e+00 6.6257731704909659e+00 4.4118076449412271e+00 0 0 0
338 2 4.7269402042510880e+00 5.8224721651230498e+00 4.8760193277224264e+00 0 0 0
1029 2 2.3217022553482444e+01 2.6456955183203469e+01 3.1959562805240338e-01 0 0 0
340 1 6.5873865992050611e+00 8.1600862255998621e+00 1.0864934841087722e+01 0 0 0
1143 2 2.0439149532483256e+01 2.2232925149703824e+01 5.3588220829054540e+00 0 0 0
342 2 7.3879589012937270e+00 8.2917157771622207e+00 1.0325152408428348e+01 0 0 0
343 1 6.9870000215754917e+00 1.3393572580930336e+01 4.2393275529485397e+00 0 0 0
86 2 8.7415493293306827e+00 1.2240560904291786e+00 1.7466263449845185e-01 0 0 0
876 2 1.5782281754144210e+01 2.7884789458869204e+01 1.3684615581379337e+01 0 0 0
346 1 9.3073767853003790e+00 1.5126525783796247e+01 1.1139125092553639e+01 0 0 0
347 2 9.8252472765854701e+00 1.5282030436303193e+01 1.0326495001926830e+01 0 0 0
348 2 9.5898618558646493e+00 1.4286192446277134e+01 1.1530348192389658e+01 0 0 0
349 1 1.1916357348087592e+01 6.2254259743672034e+00 4.3176867472339957e+00 0 0 0
350 2 1.1862733853566683e+01 7.0143133258642507e+00 4.9530070398138699e+00 0 0 0
351 2 1.1101554449772728e+01 6.0570927769506309e+00 3.8326590135883145e+00 0 0 0
352 1 1.4440142029110833e+01 8.3715737624912627e+00 1.1103904028935576e+01 0 0 0
353 2 1.4652809388561954e+01 7.5300448245772156e+00 1.1603991571014358e+01 0 0 0
354 2 1.3589979202130758e+01 8.2203392499696726e+00 1.0638188828941994e+01 0 0 0
355 1 1.4553820016663090e+01 1.3178862369315540e+01 4.1227362113519925e+00 0 0 0
356 2 1.4921091123857849e+01 1.2492056240994902e+01 4.7157276345043364e+00 0 0 0
357 2 1.5214734401123792e+01 1.3477810914973418e+01 3.4438609923785863e+00 0 0 0
358 1 1.7221311928565228e+01 1.4820825708726051e+01 1.0709517672493396e+01 0 0 0
359 2 1.7154298526860920e+01 1.5631180277682615e+01 1.1223506670232107e+01 0 0 0
360 2 1.7685108318983580e+01 1.5036309119529660e+01 9.8813219818216993e+00 0 0 0
361 1 7.1615414917686691e+00 7.8550875170207028e+00 5.3660939278953217e+00 0 0 0
362 2 6.4531684595135292e+00 8.5167789536317589e+00 5.1880033005894219e+00 0 0 0
363 2 8.0682842981202398e+00 8.1634348112399771e+00 5.3009038360708125e+00 0 0 0
364 1 9.6161469183511361e+00 9.4563264559924356e+00 1.1973545643101792e+01 0 0 0
365 2 9.0775778124395199e+00 1.0207420673274362e+01 1.1726787552522541e+01 0 0 0
366 2 9.3557690073367770e+00 9.1329086706843814e+00 1.2869120858885060e+01 0 0 0