LAMMPS data file via write_data, version 15 Apr 2020, timestep = 0

6144 atoms
2 atom types

-1.6590418633062392e+00 6.1627330994488830e+01 xlo xhi
1.5200568323870201e-01 2.8188460316759532e+01 ylo yhi
1.6430577842339211e-01 2.7247139221575964e+01 zlo zhi
1.0122158982762334e+01 1.0188543700293909e+01 7.1154925215373144e+00 xy xz yz

Masses

1 16
2 2

Atoms # atomic

1595 2 1.8571180231560366e+01 2.2914122467228196e+01 1.9162603513863658e+01 0 0 0
1604 2 1.5931178152050716e+01 1.9977331408876847e+01 2.4868630786866156e+01 0 0 0
1664 2 9.1403618301497431e+00 1.8175554343843217e+01 1.5006196596872803e+01 0 0 0
987 2 1.5321115867529041e+01 1.2984210411030869e+01 2.0992352618991255e+01 0 0 0
225 2 6.8169246278633668e+00 5.4368426316510927e+00 5.1648740392600674e+00 0 0 0
52 1 1.5925654475949099e+01 2.7752447042315854e+01 9.9508534313937105e+00 0 -1 0
25 1 9.6675571439505514e+00 1.2856942511718383e+01 9.3026764147048713e+00 0 0 -1
1625 2 1.4763025200408244e+01 1.9799042062690347e+01 1.7863409800901564e+01 0 0 0
2464 1 1.0826392241870396e+01 1.7695874953342457e+01 8.0925851721031918e+00 0 1 0
886 1 1.6173455499571407e+01 2.2666693210735293e+01 2.0956766580899000e+01 0 1 -1
1633 1 1.7023190889245512e+01 1.5737765101147954e+01 2.0421644085531739e+01 0 0 0
849 2 1.5321724771654960e+01 2.0049725306314325e+01 1.1650251558444372e+01 0 0 -1
2443 1 1.1975904773352621e+01 1.4212576514550864e+01 8.9803690005127041e+00 0 1 0
358 1 1.6059412688427475e+01 2.5344621447904249e+01 2.4311277416197868e+01 0 0 0
2466 2 1.1196947481952968e+01 1.8572585339649113e+01 8.2511609617648460e+00 0 1 0
1895 2 9.7895064765930755e+00 1.3947610488229063e+01 6.7015790379170914e+00 0 0 1
1670 2 5.9323527171033668e+00 5.0156254435925200e+00 2.6134506553236312e+00 0 0 0
1634 2 1.6841066365389231e+01 1.5951004524015136e+01 2.1384737712912603e+01 0 0 0
1064 2 2.2539857114125802e+01 3.2000374982148223e+01 2.1018404093693093e+01 0 0 -1
1894 1 8.8213307557239311e+00 1.3846802653676450e+01 6.8779380818739018e+00 0 0 1
1740 2 6.5840172828178840e+00 1.5250590166038933e+01 4.1816801863885095e-01 0 0 1
1916 2 1.6217781983437238e+01 2.4142381580332081e+01 1.6291538375575421e+01 0 0 0
611 2 6.6992317080190027e+00 5.3926058893931081e+00 1.4173576007716489e+01 0 1 0
1709 2 1.2847687690397763e+01 6.5859819830303108e+00 1.7908006785610311e+01 0 0 0
487 1 1.6957158574225009e+01 2.6265272377024381e+01 2.6542462913615552e+01 0 0 -1
53 2 1.6321802155370666e+01 2.7172171305913245e+01 9.2916301427194128e+00 0 -1 0
1587 2 1.2298884238533331e+01 1.4414288503054287e+01 1.3183540804178149e+01 0 0 0
1586 2 1.2487997530353105e+01 1.4876205508514847e+01 1.1790896385460986e+01 0 0 0
1675 1 1.0477890706753275e+01 1.7213646392557802e+01 1.6428109477142890e+01 0 0 0
2564 2 1.9484203109151469e+01 1.9424766520881111e+01 2.7218522941284597e+01 0 1 -1
416 2 1.2211844946772832e+01 1.8110397193249995e+01 1.8895839684711547e+01 0 0 0
1871 2 1.5773751718437165e+01 2.4336608645513042e+01 2.0233386147033578e+01 0 0 0
610 1 7.3705775498022277e+00 5.4032881388821981e+00 1.4889985832850396e+01 0 1 0
1275 2 5.6747074725621145e+00 6.8237137446356080e+00 1.9631024550745486e+00 0 0 0
2673 2 4.5686143346776067e+00 5.2183409786761423e+00 1.3257254374862100e+01 0 1 0
2450 2 1.5150249052385565e+01 2.3489238881441747e+01 2.4288905597425483e+01 0 0 0
1708 1 1.2246057752992927e+01 6.2603175282351318e+00 1.7204474181924120e+01 0 0 0
27 2 9.3799500336553994e+00 1.3413914094329202e+01 1.0069044752447445e+01 0 0 -1
907 1 1.9211639572093283e+01 2.6665442143111040e+01 2.2365907630963136e+01 0 0 -1
99 2 1.2376265082908859e+01 7.1856181193366364e+00 6.3044679489174094e+00 0 0 0
1561 1 1.1803274328445157e+01 1.5258811700425222e+01 1.4726339616535325e+01 0 0 0
1901 2 1.2042311889350852e+01 9.4407498588632848e+00 2.6130361635436323e+01 0 0 0
174 2 1.9428756427384435e+01 6.1739294041702353e+00 1.8434396230620514e+01 0 0 -1
1521 2 1.7091023962245924e+01 1.0269447561783885e+01 5.2187767780598655e+00 0 0 0
924 2 1.7934156580936190e+01 1.9582989074273776e+01 1.2168317262074439e+01 0 0 0
149 2 9.0600483358300128e+00 7.7193613962607044e+00 2.5199057019542707e+01 0 0 -1
224 2 8.1740479795948122e+00 6.3813745024504671e+00 5.1205815705492537e+00 0 0 0
1781 2 9.4262487189738060e+00 1.2764051707735369e+01 1.3639794773520707e+01 0 0 0
1710 2 1.2696650694800887e+01 6.1343096706859885e+00 1.6348160398575899e+01 0 0 0
1689 2 1.0851483622327780e+01 7.9125210261309409e+00 1.1747270849158179e+01 0 0 0
1705 1 1.5207338652094407e+01 1.6420517429351769e+01 1.7463115944533769e+01 0 0 -1
1773 2 2.1082474420928577e+01 3.2067731937910452e+01 2.5723973748519647e+01 0 0 -1
101 2 4.9921441397474986e+00 7.3192603049261642e+00 8.1942148053146244e+00 0 0 0
1570 1 1.2064867028072452e+01 1.2273838529926602e+01 1.6233156401220164e+01 0 0 1
2314 1 1.6253092143834994e+01 2.4645353005047195e+01 9.1935459576204526e+00 0 0 1
1129 1 1.2832942995067548e+01 1.5405728315204851e+01 2.2073416288369096e+01 0 0 -1
2360 2 1.0490405170129222e+01 1.4065493202631638e+01 1.1991814311046882e+01 0 0 0
1635 2 1.6529175533215422e+01 1.4884500309196365e+01 2.0182236494729239e+01 0 0 0
1017 2 8.9569105278221492e+00 3.8792988674069253e+00 1.1140683460032470e+01 0 1 -1
134 2 2.6473022189392427e+01 2.2500100244627507e+01 1.7357155890943140e+01 0 -1 0
821 2 9.6449804197496007e+00 1.8392709354092752e+01 1.3742589287350830e+00 0 0 0
1059 2 1.1574097767303368e+01 2.8096813924246455e+01 2.8813757407370100e-01 0 0 0
896 2 2.0814515756825951e+01 2.9339013150601478e+01 2.3117672919873009e+01 0 0 -1
868 1 7.1910285709718629e+00 1.5394609383139597e+01 8.5278042929222035e+00 0 0 0
944 2 5.6774489176137344e+00 1.4340829306892680e+01 2.5743018426614976e+00 0 1 0
1571 2 1.2121307467173180e+01 1.3205120585735287e+01 1.5916462570086367e+01 0 0 1
1659 2 1.7266841370407946e+01 2.9113214176593342e+01 1.8284433733511371e+01 0 -1 0
894 2 1.3178387721445059e+01 2.0900964450695074e+01 1.0908584100103164e+01 0 0 0
2589 2 1.8292339619610555e+01 8.5641485727845961e+00 7.8883175634106903e+00 0 1 0
1274 2 5.6796900906941685e+00 7.7608516345969223e+00 3.2356096565708556e+00 0 0 0
1113 2 1.1519475498005255e+01 2.2223045870388692e+01 1.1585418786477312e+01 0 0 0
1669 1 6.0579217538736101e+00 5.3711090796338947e+00 1.7098962804885893e+00 0 0 0
1063 1 2.2481143523343100e+01 3.0968985524248474e+01 2.1010621196388477e+01 0 0 -1
1671 2 7.0119012768639681e+00 5.4528944591179620e+00 1.5164693423191031e+00 0 0 0
1791 2 3.8854751016319629e+00 7.4080836445078555e+00 5.6085973004788654e+00 0 0 1
1001 2 6.8495439984630124e+00 1.5213051924577943e+01 5.2985775628675986e+00 0 0 0
846 2 1.4252349971560527e+01 1.7837935146447219e+01 2.3460717861561101e+01 0 0 -1
359 2 1.5110318353212431e+01 2.5537177128836433e+01 2.4407635952386379e+01 0 0 0
1739 2 1.6400632757444466e+01 2.1609551573954874e+01 2.6233430730908012e+01 0 0 0
822 2 8.5364542658444993e+00 1.8826436888451852e+01 3.7283267520756758e-01 0 0 0
2471 2 1.9370014560759376e+01 9.6239919926514101e+00 1.9936376336487818e+01 0 1 0
1112 2 1.0988664261949051e+01 2.3283307194980271e+01 1.2585964495898637e+01 0 0 0
887 2 1.6704717025063140e+01 2.2332517493262760e+01 2.0216645176319787e+01 0 1 -1
2465 2 1.1619418875246563e+01 1.7183088025055785e+01 8.0338859654533223e+00 0 1 0
54 2 1.4939179190169693e+01 2.7673346330819911e+01 9.6884097471828454e+00 0 -1 0
102 2 5.8563681242922261e+00 8.6887485429707247e+00 8.2547617570965812e+00 0 0 0
223 1 7.3929055894210336e+00 6.0871148380975546e+00 5.7309143901566912e+00 0 0 0
1917 2 1.5121484542440083e+01 2.5169863580009853e+01 1.6791078407282185e+01 0 0 0
353 2 7.0964531510701150e+00 1.0320146040931682e+01 8.3370758837563077e+00 0 0 0
2407 1 8.6032013366945019e+00 1.7528874080953987e+01 9.5142838489826715e+00 0 0 0
1687 1 1.0025887009497538e+01 7.3932300383404916e+00 1.1508751991220858e+01 0 0 0
986 2 1.4999178887084998e+01 1.3601226841794464e+01 1.9534404179915917e+01 0 0 0
1706 2 1.5462778479132961e+01 1.6433217766352122e+01 1.6537962972775027e+01 0 0 -1
1703 2 9.3072276316685638e+00 1.3492281970508316e+01 1.5877002515947385e+01 0 0 0
1374 2 1.7790626266188934e+01 1.8518703681408493e+01 1.6068347697334022e+00 0 0 0
1688 2 9.8234894301544209e+00 6.8718272258776718e+00 1.2336627561947919e+01 0 0 0
1002 2 5.8428948731522592e+00 1.4196760752795086e+01 5.9266175889292985e+00 0 0 0
1610 2 7.8046457089086694e+00 1.8100618187916634e+01 2.5399944719893783e+00 0 -1 0
922 1 1.8742689772456373e+01 1.9182399648067708e+01 1.2626867539766804e+01 0 0 0
2409 2 8.6232204201003153e+00 1.7690711176364907e+01 1.0462744804060080e+01 0 0 0
845 2 1.4172694451664405e+01 1.6579607850589685e+01 2.4161038653925729e+01 0 0 -1
1563 2 1.2710565899637395e+01 1.5628050435859688e+01 1.4556963483784152e+01 0 0 0
908 2 1.9305028753067941e+01 2.6316609174739234e+01 2.3261958555489961e+01 0 0 -1
893 2 1.2024645562312905e+01 2.0993949132597223e+01 9.8503087829722435e+00 0 0 0
28 1 1.9132959509356386e+01 2.2792468465146523e+01 1.4291586422557296e+01 0 0 0
2652 2 2.7318429143806572e+01 2.4476198042919645e+01 2.4081515053497370e+01 0 0 0
870 2 7.7364225524601942e+00 1.6119357339830835e+01 8.9272031889638566e+00 0 0 0
300 2 1.2786551174060033e+01 2.0249915743087207e+01 7.8008814012886907e+00 0 0 0
1585 1 1.2345469942983925e+01 1.4023843591249578e+01 1.2275447340554095e+01 0 0 0
2414 2 1.3304377197657409e+01 1.8930227407971259e+01 1.4460677687725353e+01 0 0 1
2436 2 2.2880616282682386e+01 2.4018211915927427e+01 1.0904588705063002e+01 0 0 0
2441 2 1.7080638858034849e+01 2.1624571060744373e+01 1.1753789472672892e+01 0 0 1
847 1 1.4380446771541845e+01 1.9754517339382918e+01 1.1520425024680614e+01 0 0 -1
1562 2 1.1367380562448405e+01 1.5965610010227829e+01 1.5219055985537763e+01 0 0 0
1015 1 8.3274074765497836e+00 4.1872331646542964e+00 1.1935896730561495e+01 0 1 -1
1738 1 1.6333569127924932e+01 2.2526059138238139e+01 2.6619191291542329e+01 0 0 0
949 1 2.3068468776839659e+01 2.3821531841054000e+01 1.5372208856395847e+01 0 -1 0
30 2 1.9686573673907745e+01 2.3566908920409269e+01 1.4552360618371779e+01 0 0 0
1302 2 2.0474710686680258e+01 1.0955033447092122e+01 1.1427971689505460e+01 0 0 0
81 2 -1.8496415557818358e-01 1.0376782995329112e+00 1.1195599054894692e+00 0 0 0
150 2 1.0573820992770287e+01 7.8152372356333357e+00 2.5577111931774930e+01 0 0 -1
2440 1 1.6731591909573577e+01 2.0724910829771357e+01 1.1625674477045910e+01 0 0 1
98 2 1.3295400944844324e+01 8.1087553831142074e+00 5.3117246032628396e+00 0 0 0
2408 2 9.5324883882031539e+00 1.7627762797251815e+01 9.1813976787522051e+00 0 0 0
369 2 1.3965296609459468e+01 1.3424218584723787e+01 1.2563713857712807e+01 0 0 -1
1065 2 2.2397861048938033e+01 3.0746993374346108e+01 2.1982263548390463e+01 0 0 -1
1130 2 1.2542828708566745e+01 1.4630253913893988e+01 2.1529118461288107e+01 0 0 -1
2355 2 2.0446073397380857e+01 2.6788672526730341e+01 2.0862952256468589e+01 0 0 0
962 2 2.4762872637902554e+01 2.9864492198538219e+01 2.5011168446948936e+01 0 0 -1
888 2 1.5285207675494025e+01 2.2264418456994690e+01 2.0811517286747581e+01 0 1 -1
1135 1 1.0854741561123459e+01 1.1692944499876830e+01 2.3216398056638319e+01 0 1 -1
299 2 1.1222412327085921e+01 2.0802112648873756e+01 7.8721104768842824e+00 0 0 0
626 2 2.1160459150442779e+01 1.5475109376773364e+01 2.7087799749639323e+01 0 0 -1
873 2 1.2277277540976664e+01 1.4501184709492140e+01 1.8114970726718802e+01 0 0 0
105 2 7.3241597386219226e+00 1.1963685910292529e+01 9.8493584539350270e+00 0 0 0
2311 1 1.9481080018282711e+01 1.5883223413635960e+01 2.6195399901108267e+01 0 1 -1
1515 2 1.0351623589967959e+01 1.8376827184168061e+01 5.0253506725668800e+00 0 0 0
1896 2 8.4471423791147462e+00 1.3442852686568255e+01 6.0477201923641939e+00 0 0 1
1546 1 1.3107870135850987e+01 1.5546922627689653e+01 2.4966190787428879e+01 0 1 0
984 2 1.7223682600992088e+01 9.0602464789682955e+00 1.3576689730675982e+01 0 1 -1
588 2 6.9394150380001154e+00 1.1290865569150315e+01 4.4770680159100404e+00 0 0 0
909 2 1.8250206842745364e+01 2.6604665543860801e+01 2.2119786422592263e+01 0 0 -1
2668 1 2.1049426431445564e+01 2.5913385469696255e+01 1.2316618420356589e+01 0 0 0
2354 2 2.1749854484361329e+01 2.6632732685402136e+01 1.9947620914402364e+01 0 0 0
218 2 1.0790705806777972e+01 2.5224841265051715e+01 9.2963403867453209e+00 0 -1 0
435 2 1.9625488868516012e+01 1.2699820577159652e+01 1.4017130015028124e+01 0 0 -1
1273 1 5.4601790764561846e+00 7.7335144273654288e+00 2.2428642332448021e+00 0 0 0
1132 1 1.1016847787464727e+01 5.7869948291696334e+00 9.5093266444349389e+00 0 1 0
1780 1 9.4756273348064504e+00 1.2495749831799063e+01 1.4562668658689665e+01 0 0 0
898 1 1.3909015295603215e+01 2.5529618263882465e+01 1.7888820542255054e+01 0 0 0
1514 2 1.0510224649776585e+01 1.7746474961403717e+01 6.4504582971685300e+00 0 0 0
1608 2 1.6674940267489411e+01 3.5258888093740715e+00 6.0409778612437552e+00 0 0 0
352 1 7.2240448203522494e+00 9.4320005005380807e+00 7.9878170418122920e+00 0 0 0
961 1 2.4858421756561302e+01 3.0015376931685825e+01 2.4038879543214030e+01 0 0 -1
885 2 1.5408352517630622e+01 6.8165735487705632e+00 1.5859361388308578e+01 0 1 -1
489 2 6.1352622386215829e+00 1.9004119878908607e+01 2.2859067483320952e-01 0 0 0
2316 2 1.5300714658162807e+01 2.4263841319430799e+01 9.1497210387894583e+00 0 0 1
975 2 1.3676452207749568e+01 2.8277315652344921e+01 8.4737686569997006e+00 0 0 0
818 2 1.0621106278734745e+01 5.2249470971906105e+00 1.7096843922105137e+01 0 1 -1
775 1 1.1836670291664873e+01 2.5176278109241949e+01 5.1843743541331877e+00 0 0 0
1603 1 1.6620296185824365e+01 2.0081438816442979e+01 2.5558873511542174e+01 0 0 0
1779 2 1.8907454104714599e+01 1.3325997440168956e+01 4.2271488069651064e-01 0 0 0
1605 2 1.6428066608149408e+01 1.9476060864250787e+01 2.6247355478461451e+01 0 0 0
2532 2 1.2245751604773186e+01 2.2329699238342055e+01 1.5648401772601662e+01 0 0 0
77 2 1.0105730901428805e+01 2.5948787813614324e+01 3.4451419791712672e+00 0 -1 0
100 1 4.9020583820183683e+00 8.2878822611739249e+00 8.4640558857032087e+00 0 0 0
1877 2 1.1388580384609867e+01 6.1606581958482103e+00 2.1439719468315573e+01 0 0 0
2669 2 2.0755370069125807e+01 2.5629403135704788e+01 1.3190788433427342e+01 0 0 0
2323 1 7.6058335911518746e+00 2.1203410370071499e+01 2.1634419449713955e+00 0 1 1
1754 2 2.4769671806982451e+01 2.1146684968217627e+01 1.1294155022023263e+01 0 -1 0
1016 2 8.9116086948580033e+00 4.7484602292402620e+00 1.2438207901114582e+01 0 1 -1
2283 2 1.1850876719867049e+01 2.3646752256714258e+01 7.7671071230160669e+00 0 -1 0
995 2 4.5048333241425400e+00 9.4352382982132141e+00 2.1232069992746210e+00 0 1 0
97 1 1.3228794547343405e+01 7.2817436791134362e+00 5.8465303954491450e+00 0 0 0
2361 2 9.2452692274618826e+00 1.4946251633338585e+01 1.2099947742106965e+01 0 0 0
2403 2 1.6161317234842915e+01 2.9789830839617572e+01 2.2770336822656922e+01 0 0 0
1513 1 1.0471712614114736e+01 1.7528976647244008e+01 5.5000747229493614e+00 0 0 0
1078 1 1.6958054194791938e+01 2.7204972520030363e+01 1.4880155284262656e+01 0 0 0
963 2 2.5329853321652930e+01 2.9223578498142050e+01 2.3757155838970306e+01 0 0 -1
1547 2 1.2580480415488337e+01 1.5362799359200812e+01 2.4178575554331289e+01 0 1 0
2353 1 2.1167657229069821e+01 2.7335064159353021e+01 2.0420783946665225e+01 0 0 0
917 2 3.1407881636437098e+00 6.7965239978488974e+00 4.3985511287521339e-01 0 1 0
417 2 1.3457832048569154e+01 1.7326161356470781e+01 1.9280306887388022e+01 0 0 0
985 1 1.5763022242797806e+01 1.3307560100488040e+01 2.0174634697257403e+01 0 0 0
1884 2 1.0533377701053400e+01 1.9148485066757498e+01 1.1472130062893598e+01 0 0 0
76 1 1.0302046957883055e+01 2.5456680661704347e+01 2.6274853335432971e+00 0 -1 0
298 1 1.1871391019971947e+01 2.0083905814734649e+01 8.1406561102127313e+00 0 0 0
1707 2 1.4483610938291658e+01 1.7035986338757116e+01 1.7552004171924622e+01 0 0 -1
1020 2 2.3314993625539955e+01 2.4732336578390548e+01 2.5660668343743951e+00 0 0 0
612 2 7.7348878419170433e+00 4.4502023290922255e+00 1.4976010426247454e+01 0 1 0
2396 2 1.3878404716031593e+01 3.0396154418168859e+01 1.1712241597592525e+01 0 0 0
1079 2 1.7914161204316489e+01 2.7069745784406184e+01 1.4926122416577545e+01 0 0 0
883 1 1.5276883353267895e+01 5.8755949855849030e+00 1.6067269764722653e+01 0 1 -1
2442 2 1.6802074633572325e+01 2.0616286473848383e+01 1.0681311424907292e+01 0 0 1
1915 1 1.5907720099374004e+01 2.5078460189614496e+01 1.6127845177221413e+01 0 0 0
2451 2 1.4470573892078558e+01 2.3582851999946289e+01 2.2896347466143446e+01 0 0 0
2315 2 1.6764438801766094e+01 2.3977680518443940e+01 8.6889070232255996e+00 0 0 1
1006 1 2.6766266841437425e+01 2.9272968192793265e+01 1.2672232796002760e+01 0 0 0
983 2 1.8266949242712599e+01 8.5488104227718686e+00 1.4604468379572133e+01 0 1 -1
923 2 1.9512020482115435e+01 1.9738439537275841e+01 1.2373845141853227e+01 0 0 0
2572 1 1.4431343229792919e+01 2.2500530442214103e+01 1.8072111501668616e+01 0 0 0
354 2 7.6477515067509216e+00 8.9645121956330343e+00 8.7575245908201751e+00 0 0 0
156 2 1.0324458983991512e+01 4.4549485455260847e+00 9.5880923030214902e+00 0 0 0
1589 2 9.9586356371964406e+00 2.3851205164250754e+01 2.0098469978751350e+00 0 -1 1
1616 2 1.3302241793979114e+01 2.2492271745286423e+01 1.2808836138604242e+01 0 -1 0
1050 2 1.1582907345920734e+01 2.1071224850192600e+01 4.8677806784524424e+00 0 0 0
1081 1 1.9695294069642227e+01 1.4780460399001591e+01 2.0829092685773155e+01 0 0 -1
1594 1 1.7867561865728099e+01 2.2218804743538744e+01 1.8967704314232343e+01 0 0 0
2445 2 1.1114691622266550e+01 1.3792216740695650e+01 9.1580235727487977e+00 0 1 0
1588 1 9.6218245676230101e+00 2.2987830528623078e+01 1.7661600060100497e+00 0 -1 1
1150 1 1.7964852915205334e+01 1.9848810638523812e+01 1.7383240789760258e+01 0 0 0
1841 2 2.1931039165643941e+01 1.4725553082405238e+01 2.5347288579099121e+01 0 0 0
313 1 1.3950223505826607e+01 1.9389102495609684e+01 1.6108849727679782e+01 0 0 -1
1118 2 2.3577787773881628e+01 2.6953840386615465e+01 2.2572468270159476e+01 0 0 -1
1872 2 1.6557019352778646e+01 2.5241542174741159e+01 1.9342476372471872e+01 0 0 0
2613 2 1.8076260115363226e+01 2.6085476243597554e+01 1.0985151455563736e+01 0 0 1
1133 2 1.1959024787245724e+01 5.6831738069824311e+00 9.9144104790985637e+00 0 1 0
1762 1 1.0767138909173848e+01 1.0913789220756012e+01 1.2046302957410472e+01 0 0 0
2556 2 1.8769054244066023e+01 1.9368804594519588e+01 2.3516450757448197e+01 0 0 0
2548 1 2.0481636037010439e+01 1.2043850162854424e+01 2.6193556715883119e+01 0 1 0
1870 1 1.5684074115108675e+01 2.5261231392392023e+01 1.9848830803763356e+01 0 0 0
1662 2 7.3706933688033640e+00 1.6008792348296993e+01 2.5782686220332316e+00 0 -1 1
1136 2 1.0044183403599936e+01 1.1250178170028036e+01 2.2920524239101475e+01 0 1 -1
1736 2 1.3228644758970157e+01 1.2912907779305483e+01 9.7860055649235171e+00 0 0 0
376 1 2.1495244787505790e+01 3.0786856683575902e+01 1.8458764652966899e+01 0 -1 0
1109 2 1.1103050933335265e+01 1.0091109949220492e+01 1.3753864133728287e+01 0 0 0
372 2 1.3742260162697617e+01 1.1915096024048372e+01 2.2355732840108011e+01 0 0 0
333 2 1.6620549783318616e+01 3.2830020820889871e+01 1.8033150959345676e+01 0 0 0
2555 2 1.8071019480838928e+01 2.0135927678966613e+01 2.4585772033799145e+01 0 0 0
374 2 6.1853539203131156e+00 8.9305057575074400e+00 4.8819686260028936e+00 0 0 0
1801 1 1.5851377467133599e+01 2.0909149067000552e+01 1.4900400826700158e+01 0 -1 0
442 1 9.1828115776533430e+00 7.3047215832993633e+00 3.8791889559984014e+00 0 0 0
2601 2 1.8225980409264089e+01 2.2496684946101603e+01 8.8153844216204238e+00 0 0 0
2600 2 1.8529862570039001e+01 2.2902974016476556e+01 7.3518233245500006e+00 0 0 0
188 2 1.3039464745353245e+01 2.4258496361689296e+01 9.6974359492069890e+00 0 0 0
2444 2 1.2034486418453419e+01 1.5065224987122972e+01 9.4888523356116803e+00 0 1 0
1859 2 1.0190739266486915e+01 1.3695033043368678e+01 2.3862101601877811e+01 0 0 0
2642 2 7.9057759829767029e+00 2.8988263282406539e+00 7.6434465652870767e+00 0 0 1
2307 2 1.9960404521049174e+01 2.9151649075430882e+01 4.0786250940356350e+00 0 -1 0
1119 2 2.2255126799856836e+01 2.7460552159530039e+01 2.2090472515667905e+01 0 0 -1
1088 2 1.9561776519172671e+01 2.8915859872430303e+01 2.5769559462918075e+01 0 0 -1
2217 2 2.7910523152403496e+01 2.6161259190493109e+01 1.9212610194055330e+01 0 0 0
269 2 1.6035068084878180e+01 1.9840367168329625e+01 2.0275672888776050e+01 0 -1 -1
2306 2 1.9188830395857416e+01 2.7866011876598815e+01 4.1528797697009248e+00 0 -1 0
198 2 1.8320240502193695e+01 2.9264881091756081e+01 1.0092545746566493e+01 0 -1 0
1089 2 2.1023995167108129e+01 2.8643787699228149e+01 2.6064076627470790e+01 0 0 -1
2468 2 1.0376014919073048e+01 1.4113770380311548e+01 3.4066479100752289e+00 0 0 1
2570 2 1.9989154795969640e+01 2.6707191699625259e+01 7.4954814036340469e+00 0 0 0
776 2 1.2195411024707244e+01 2.4519238216768336e+01 5.8105222135601062e+00 0 0 0
830 2 1.4126492064189300e+01 2.8361181076955372e+01 1.2269313849112102e+01 0 0 0
1658 2 1.8100483964192648e+01 2.8648968545621781e+01 1.9494640349241990e+01 0 -1 0
1103 2 1.0804034953619055e+01 1.1634894987785652e+01 2.6578683650894781e+01 0 1 -1
2604 2 1.7425861739511021e+01 1.5479749269729615e+01 2.3575800398160915e+01 0 1 0
2397 2 1.5276578926949661e+01 3.1102641596449534e+01 1.1489916434282158e+01 0 0 0
1134 2 1.0586985174814155e+01 6.4458583448266502e+00 1.0142937456918226e+01 0 1 0
2644 1 1.3840562545686254e+01 9.5167263356401115e+00 1.9793858366779588e+01 0 0 0
3026 2 2.7766928667405612e+01 3.0137440574831992e+01 1.8234913418340945e+01 0 0 0
332 2 6.3106964045693310e+00 4.8743270950712683e+00 1.6468951840183145e+01 0 1 0
1735 1 1.3729109890252783e+01 1.2132147818165906e+01 9.9983504632911355e+00 0 0 0
2646 2 1.4574792725143805e+01 9.7674494069300035e+00 1.9203763275185075e+01 0 0 0
2413 1 1.2989386025891605e+01 1.8652404137723487e+01 1.3599689678403728e+01 0 0 1
895 1 1.9845922599824899e+01 2.9239250132568845e+01 2.2853904954435684e+01 0 0 -1
2603 2 1.6263921920760495e+01 1.6494055706913944e+01 2.3310669250066184e+01 0 1 0
2554 1 1.8877189758726182e+01 2.0185189120200867e+01 2.3985558204426091e+01 0 0 0
2629 1 7.5928201771099477e+00 8.1929779392107331e+00 1.0372510322100746e+01 0 0 0
2305 1 1.9236386964816166e+01 2.8767596524058572e+01 4.6003746319146552e+00 0 -1 0
443 2 9.2595506376250594e+00 8.2611843698628178e+00 3.9710961523841299e+00 0 0 0
829 1 1.3365148614744342e+01 2.8957733222112459e+01 1.2259449441881536e+01 0 0 0
2375 2 1.2837521886441760e+01 2.9801643818891211e+01 6.3838328933085497e+00 0 0 1
994 1 4.3504162817562824e+00 1.0251167138158262e+01 2.6575464491083167e+00 0 1 0
2641 1 7.9157157328925525e+00 3.8445832144878080e+00 7.7708855871184950e+00 0 0 1
897 2 1.9695188112520345e+01 2.8261486375721919e+01 2.2619672507067904e+01 0 0 -1
318 2 2.2542358082717840e+01 2.7169267335413377e+01 2.4604270800641800e+01 0 -1 -1
725 2 6.0256303464755661e+00 3.5026045172483657e+00 4.1623965787449979e+00 0 0 1
2456 2 1.3986594415732883e+01 1.9245685763848918e+01 2.7167247025469052e+00 0 0 1
1672 1 1.6937434556565066e+01 3.0321695101777888e+01 1.0118152722394804e+01 0 -1 0
1617 2 1.4567354011766650e+01 2.3272590539668897e+01 1.3034768715854197e+01 0 -1 0
1117 1 2.2833855291149572e+01 2.7499985549544821e+01 2.2816607701846976e+01 0 0 -1
1737 2 1.3735633981220428e+01 1.1719939726965578e+01 9.1314559083365801e+00 0 0 0
1909 1 1.4751693185102251e+01 1.3351785058169860e+01 1.5737726870537696e+01 0 0 0
1682 2 6.2434525959021911e+00 5.5072793209758171e+00 7.2137080574757757e+00 0 0 0
368 2 1.5120273486063514e+01 1.2434396181015838e+01 1.2753741728710661e+01 0 0 -1
197 2 1.8927875160367869e+01 2.7767622578716335e+01 1.0094834536626420e+01 0 -1 0
759 2 2.0448015427225283e+01 2.8038073335919183e+01 5.5669506263641910e+00 0 -1 0
2576 2 4.1286927785704197e+00 3.2278990206053830e+00 9.5960678865784992e+00 0 1 0
444 2 1.0006744273332030e+01 6.9576676448628891e+00 3.6020362758744633e+00 0 0 0
2513 2 1.7510557378623396e+01 2.5665797336210478e+01 1.7436638741939838e+01 0 0 0
2169 2 2.3022522463400254e+01 1.4235130801436689e+01 1.4944633615862855e+01 0 0 0
1681 1 5.5824754431719725e+00 5.5566503714151283e+00 7.9748758112338196e+00 0 0 0
2467 1 9.9918852103659237e+00 1.3229259312193625e+01 3.2651610706911085e+00 0 0 1
1596 2 1.7548610954607785e+01 2.2392796360455261e+01 1.8066392966636904e+01 0 0 0
1621 1 1.0939780555524599e+01 1.2035104083589625e+01 1.8806271776047197e+01 0 0 -1
1622 2 1.1619052653216581e+01 1.2332467543985434e+01 1.8187498466694628e+01 0 0 -1
1151 2 1.7899617758136465e+01 1.9471883493846139e+01 1.6456584545740085e+01 0 0 0
1691 2 1.2665120620911127e+01 2.2656990210898957e+01 3.1678656661229576e+00 0 -1 1
316 1 2.2205697658683189e+01 2.6983808374051232e+01 2.5489389024289991e+01 0 -1 -1
2612 2 1.9702653295255825e+01 2.5985771054335114e+01 1.1180948118989832e+01 0 0 1
2491 1 1.0294579757164973e+01 1.9824070665926044e+01 4.0631404064624093e+00 0 0 1
5 2 2.4052836564928860e+01 1.2029474731746637e+01 2.2793190289372291e+01 0 -1 0
1110 2 1.2316159977908573e+01 9.9002565658971449e+00 1.4736885208290264e+01 0 0 0
1876 1 2.2336698018746795e+01 3.3681807003158966e+01 2.1263527488294002e+01 0 -1 0
2563 1 8.8641700150395746e+00 1.2935714244039879e+01 7.8469955983713457e-01 0 1 0
2630 2 7.1835377898048769e+00 7.2944082932894254e+00 1.0295285868937015e+01 0 0 0
216 2 1.7188274841565374e+01 2.3788588956758922e+01 1.2057841711222538e+01 0 0 0
819 2 2.0489335061678492e+01 3.2061930119725091e+01 1.7958257705370521e+01 0 0 -1
373 1 5.6908967307837610e+00 8.0855851552612457e+00 4.9045781572407137e+00 0 0 0
1049 2 1.2353336564888744e+01 2.2020204872984852e+01 5.7932718610790177e+00 0 0 0
2512 1 1.7894859543598226e+01 2.5919912483315628e+01 1.8341303437086012e+01 0 0 0
214 1 1.7826630408438618e+01 2.3008956871500789e+01 1.2073441853650658e+01 0 0 0
1900 1 1.1983730188364616e+01 8.4346502480691772e+00 2.6183171514452539e+01 0 0 0
375 2 6.3643375460306011e+00 7.4637217494282364e+00 5.2575501300106549e+00 0 0 0
1668 2 5.9388858045818003e+00 1.2154359483467497e+01 1.5169428322826986e+00 0 0 1
2439 2 7.1551284031104956e+00 1.3244646493753345e+01 4.5838427226115019e+00 0 1 0
189 2 1.3624052838676118e+01 2.2820462601435743e+01 9.9183484845016743e+00 0 0 0
844 1 1.4824503049172584e+01 1.7289701936361823e+01 2.3969119055695238e+01 0 0 -1
187 1 1.3882849654836223e+01 2.3776852370189470e+01 9.7479618133066595e+00 0 0 0
1611 2 7.6329259607899207e+00 1.7478622373686836e+01 4.0318487104781529e+00 0 -1 0
314 2 1.4464038114923074e+01 2.0091634293644677e+01 1.5658066790508286e+01 0 0 -1
2602 1 1.7158489735188926e+01 1.6232525574141700e+01 2.3026643077997740e+01 0 1 0
1548 2 1.2481352026572573e+01 1.6158297218029798e+01 2.5451785467433766e+01 0 1 0
1560 2 1.4549000043976598e+01 2.7296862504461686e+01 1.2400915624765447e+00 0 0 1
2598 2 1.3209098594645258e+01 2.2968858747150268e+01 2.0868646361354941e+01 0 0 0
271 1 1.1249328314183717e+01 1.3510595384845208e+01 2.1018031162057632e+01 0 0 0
2469 2 1.0498620782892029e+01 1.2641216976782003e+01 3.8305767400926478e+00 0 0 1
1657 1 1.7383928889831971e+01 2.8395860148721518e+01 1.8887106137233452e+01 0 -1 0
385 1 2.0086926533584599e+01 1.8452961660637502e+01 2.5896945007985856e+01 0 0 -1
154 1 9.7682424182823748e+00 3.6522385391481174e+00 9.7497998131749632e+00 0 0 0
29 2 1.9411068190695492e+01 2.2040082622611536e+01 1.4841918473361591e+01 0 0 0
1152 2 1.8058859697180804e+01 1.9031405256092892e+01 1.7929434355982842e+01 0 0 0
625 1 1.1808368184363523e+01 7.8819542818099295e+00 1.8691501823320097e-01 0 0 0
1878 2 1.2802725625082203e+01 6.2101846033055317e+00 2.0680638619088832e+01 0 0 0
2437 1 7.8724792882906165e+00 1.2510946767040521e+01 4.4480749044428149e+00 0 1 0
1615 1 1.4163003856635161e+01 2.2396977740089245e+01 1.3224532391219496e+01 0 -1 0
920 2 2.0689691873621371e+01 2.0724930750949859e+01 2.2772145614122486e+01 0 0 -1
284 2 2.5391628876357913e+01 3.2076054671786231e+01 2.0105877228322456e+01 0 0 -1
871 1 1.1523287861388900e+01 1.4993906347714729e+01 1.7831862374412765e+01 0 0 0
820 1 8.7869017235564684e+00 1.8874183134343571e+01 1.3308995410927458e+00 0 0 0
2670 2 2.1886452633029148e+01 2.5474286421680041e+01 1.2092629655994001e+01 0 0 0
117 2 1.2142016751188407e+01 1.4741628550112781e+01 1.0689545782086816e+00 0 0 0
2433 2 1.5887377861853480e+01 2.8615035116032896e+01 1.9677479186730700e+01 0 0 0
2492 2 9.4719057911915918e+00 2.0360822353000824e+01 3.9696780356931245e+00 0 0 1
1085 2 1.3449258443464027e+01 1.6536562757172607e+01 4.7136669791747217e+00 0 0 0
848 2 1.4493689106959341e+01 1.9092068616760848e+01 1.0820317742284193e+01 0 0 -1
273 2 1.1262601824149968e+01 1.3055019964116852e+01 2.0204217571439656e+01 0 0 0
1084 1 1.3220864113386854e+01 1.7317877003939508e+01 5.2405259496963890e+00 0 0 0
1910 2 1.4722002573085327e+01 1.3551500813272840e+01 1.4785497133933514e+01 0 0 0
1087 1 2.0257062727068973e+01 2.9200975557311569e+01 2.6334799440149240e+01 0 0 -1
360 2 1.6298606424766017e+01 2.5775039567336041e+01 2.3470535847789769e+01 0 0 0
196 1 1.9071551115944484e+01 2.8714260243045345e+01 9.7650032273842804e+00 0 -1 0
777 2 1.2094252741767475e+01 2.4731367646693954e+01 4.3538282372467387e+00 0 0 0
308 2 2.4644461250865195e+01 3.3009787918490360e+01 2.3377816604305266e+01 0 0 -1
309 2 2.5212193876930904e+01 3.1492758270430667e+01 2.3350497481427233e+01 0 0 -1
3003 2 1.0984892351730059e+01 6.6488708458360328e+00 8.0484095194531076e+00 0 1 0
1809 2 1.6203698554965339e+01 1.4613203911438488e+01 1.1887380284671076e+01 0 0 0
880 1 1.5132503585848855e+01 2.0314214882854419e+01 2.3383935962744097e+01 0 0 0
315 2 1.2983260223500153e+01 1.9630008041752458e+01 1.6431712417293895e+01 0 0 -1
283 1 2.5771867611612738e+01 3.2947382699596560e+01 2.0289410878814543e+01 0 0 -1
386 2 1.9684687062462515e+01 1.9035545350783995e+01 2.5230687553603964e+01 0 0 -1
2376 2 3.1353746635430220e+00 2.9278635263376440e+00 7.3626052418116918e+00 0 1 1
726 2 4.8877417650429651e+00 4.5911964297417986e+00 4.5928996402963280e+00 0 0 1
1545 2 8.4414991958269301e+00 9.6046138228474316e+00 1.4992943632296893e+01 0 0 0