LAMMPS data file via write_data, version 15 Apr 2020, timestep = 14050000

6144 atoms
2 atom types

-2.4861041952098333e+00 6.2454393311543498e+01 xlo xhi
0.0000000000000000e+00 2.8102275793471531e+01 ylo yhi
0.0000000000000000e+00 2.7162661773102471e+01 zlo zhi
1.0148867966419239e+01 1.0173634328282972e+01 7.1120876177611017e+00 xy xz yz

Masses

1 16
2 2

Atoms # atomic

685 1 2.1700472345928347e+01 2.0513965305851357e+01 1.6977926534763345e+01 0 0 -1
1604 2 1.7605435845924010e+01 2.1712566752325014e+01 1.9030105407638040e+01 0 0 0
961 1 2.6593743584373108e+01 2.3760232100435299e+01 1.9964830732113562e+01 0 0 -1
987 2 1.4218197097154512e+01 9.4164499249143603e+00 2.2603392424952538e+01 0 0 0
225 2 1.2479166854118549e+01 3.9068466486920910e+00 3.2883879084856522e+00 0 0 0
52 1 7.5138820391873775e+00 4.7866753373798172e+00 1.5581120128830252e+01 0 0 0
1655 2 -7.9922533304255028e-01 3.1031917179743618e-01 6.6283796292733466e-01 0 1 2
1625 2 1.4425387201337010e+01 1.3763922974202394e+01 2.6583036373752236e+01 0 0 0
1017 2 1.4710778590158647e+01 2.8567309190607219e+01 1.6454014542970143e+01 0 0 -1
886 1 1.6883011678521996e+01 2.5147852185013306e+01 2.3018020737087415e+01 0 1 -1
170 2 1.1438693698087182e+01 1.6793461851570768e+01 2.5726063652327213e+01 0 0 -1
849 2 1.3440206689282107e+01 1.9051813155920211e+01 3.2772602598554172e+00 0 0 -1
2443 1 1.3075415011859715e+01 1.7354634372299802e+01 1.8293437930429192e+01 0 1 0
1782 2 3.1126340228434293e+00 8.6130723644849905e+00 8.4419259723685229e+00 0 0 0
2322 2 1.3526334597113006e+01 1.7400901338268664e+01 2.1536750772245597e+01 0 0 0
1895 2 6.4754130163002994e+00 6.8082280004953173e+00 7.8940486783125889e+00 0 0 1
1670 2 1.2985250788455204e+01 1.0097048079967006e+01 2.6637213376102721e+01 0 0 -1
974 2 9.7596826505120351e+00 2.7843958426935355e+01 7.5609662107833255e+00 0 0 0
1064 2 2.2353092058148288e+01 1.7545868167944739e+01 2.0262215515565938e+01 0 0 -1
1894 1 5.5850638545519189e+00 6.5548911258997311e+00 7.5234506568082917e+00 0 0 1
1740 2 1.5646521121551665e+01 2.2654106345787504e+01 2.4899826004154452e+01 0 0 0
1772 2 5.5823590133172480e+00 6.7623308264992250e+00 1.1452556407263698e+01 0 1 -1
611 2 6.3484168752160315e+00 3.2691655229811847e+00 8.9623666636817116e+00 0 1 0
1709 2 8.4927989189576074e+00 1.3687115532515321e+01 1.2150997920853953e+01 0 0 0
2024 2 2.0767450248004401e+01 1.9209036674989893e+01 2.6321034788295751e+01 0 0 0
53 2 1.8122060488878859e+01 3.2211920292173296e+01 1.6141815089168066e+01 0 -1 0
88 1 2.4718827477054511e+01 2.0268700149251291e+01 1.3499149582204796e+01 0 -1 -1
1780 1 3.8516875677523110e+00 8.2676222913114863e+00 8.9514316707076684e+00 0 0 0
2435 2 1.1856701188230291e+01 2.8509667775200587e+01 9.3521921650556621e+00 0 0 0
2564 2 1.6794455195664209e+01 9.3057397729871134e+00 1.5982917144330193e+01 0 1 -1
416 2 2.0955301098810750e+01 2.3349004405503976e+01 1.9322678293164930e+01 0 0 0
374 2 1.5868844526937430e+01 2.2741343518986955e+01 2.1722770997362478e+01 0 0 -1
610 1 7.3413171723939250e+00 3.3733448463622220e+00 8.8722352801518145e+00 0 1 0
316 1 1.8247866166208901e+01 1.9797825902051578e+01 2.1494565408651987e+01 0 -1 -1
2315 2 8.7436894094493844e-02 3.4565193494976447e+00 3.4524807808152342e+00 0 1 1
2516 2 1.4149413692896534e+01 2.5406555463891941e+01 1.3859749843429830e+01 0 0 0
1708 1 7.8643137306314017e+00 1.3222525559255040e+01 1.1568778530376708e+01 0 0 0
2660 2 4.9004799790188542e+00 8.2762073376969862e+00 1.2749658933718081e+01 0 1 0
1229 2 2.3320899996027158e+01 1.1888569850033079e+01 2.6196281364490780e+01 0 0 0
99 2 1.5398229493143184e+01 2.4721685024075324e+00 9.1636190537665723e+00 0 0 0
413 2 1.8387631424578171e+01 8.4091388660000508e+00 1.6905161677856377e+01 0 0 0
1901 2 1.6087887422691274e+01 2.8302658770350554e+01 2.2200267310057033e+01 0 -1 0
2051 2 2.5985926660911744e+01 2.7898030593196363e+01 1.0043104233421170e+01 0 -1 1
353 2 5.4453390050879706e+00 9.6425231178829733e+00 1.1196074422264420e+01 0 0 0
3010 1 2.6658823803645173e+01 2.8855314779090179e+01 1.9024143673059420e+01 0 0 0
780 2 9.6018055569917387e+00 2.0010135520223166e+01 7.6119340982356851e+00 0 0 0
224 2 1.2561310234226859e+01 2.8765135586345050e+00 4.3031030215080799e+00 0 0 0
2572 1 1.1037338700596091e+01 1.9037268353531800e+01 1.8195897891222494e+01 0 0 0
1710 2 8.0697367580340043e+00 1.3588173988839999e+01 1.0684195047601754e+01 0 0 0
854 2 1.6084893736244247e+01 1.7298901385233425e+01 2.4124482814413142e+01 0 0 -1
1705 1 1.8464431992053008e+01 1.2570949026163639e+01 1.4384321608157046e+01 0 0 -1
1773 2 4.7156555992495885e+00 5.6560716056644038e+00 1.0827268169756902e+01 0 1 -1
101 2 8.6562843809731937e+00 9.1758893747752772e+00 1.3056981194239057e+01 0 0 0
1563 2 1.1779286705695316e+01 2.1955156256284827e+01 1.6313067130603375e+01 0 0 0
25 1 6.9679537048214524e+00 1.1188981393778914e+01 6.1071362716832862e+00 0 0 -1
1129 1 7.5658586227922555e+00 1.1913169834834443e+01 5.0738156997948469e-01 0 0 0
2360 2 1.5689013324640399e+01 1.8266043943411546e+01 1.7329083741801885e+01 0 0 0
1590 2 1.3877332770763054e+01 2.6256574670090970e+01 2.1767887191492228e+01 0 -1 0
1122 2 1.9232567810771442e+01 1.0186536652639614e+01 9.7808772640608890e+00 0 1 -1
1719 2 1.2894971576530171e+01 9.5440214922197448e+00 1.6769099290390709e+01 0 0 0
199 1 2.5035091906089708e+01 2.2995082719716684e+01 1.3248275216937790e+01 0 0 -1
1845 2 8.1151474685507736e+00 1.2330628609861439e+01 1.6085356523575300e+01 0 0 0
2477 2 5.8334323748529098e+00 1.4771888511358737e+01 7.9295287669257086e-01 0 0 1
2479 1 1.7031052903440237e+01 2.2227501189900579e+01 5.4480996349495570e+00 0 1 0
632 2 1.1917825929520383e+01 1.3275609702053014e+01 1.5522131488523687e+01 0 0 0
2366 2 2.5243528929874287e+01 2.2972370805719617e+01 2.5385293023326511e+01 0 0 -1
1659 2 2.0072375067963261e+01 3.3135163652351473e+01 2.2016891287245027e+01 0 -1 0
894 2 1.6934213118218281e+01 2.8565691624048213e+01 1.9109434901259686e+01 0 0 0
68 2 5.3809436329233931e+00 2.9838740261844903e+00 5.2923772563653921e+00 0 0 -1
2333 2 1.7259931864371467e+01 2.8962200632066406e+01 2.6079359918005903e+01 0 0 0
2596 1 1.4096772083408965e+01 2.5516768563143394e+01 2.0049650851674730e+01 0 0 0
1669 1 1.2269928264877148e+01 9.5188125514198170e+00 2.6570074569612196e+01 0 0 -1
1063 1 2.2592789030411552e+01 1.8123619989304377e+01 2.1038976160565404e+01 0 0 -1
1671 2 1.1571216761186594e+01 9.9107144451489013e+00 2.6074920694462488e+01 0 0 -1
1820 2 8.6716223877568996e+00 1.1669348986834379e+01 6.6020490258615538e+00 0 0 0
2489 2 1.4014522897825643e+01 2.2966748986905213e+01 1.9681590464387644e+00 0 0 1
846 2 1.6095377899827952e+01 1.4041403554794059e+01 1.8827915483038677e+01 0 0 -1
839 2 2.2043111877011118e+01 1.7935364580512722e+01 9.0254128525709838e+00 0 0 0
1739 2 1.4557649723166808e+01 2.3118344707501649e+01 2.5901727490881271e+01 0 0 0
1717 1 1.2635880060628967e+01 1.0514284432768914e+01 1.6756621443317233e+01 0 0 0
793 1 5.6487962811997701e+00 8.5797955388455680e+00 1.3595455060282313e+00 0 0 0
1673 2 1.0199069933927667e+01 2.4540244238603950e+01 4.0855872612596394e-01 0 -1 0
887 2 1.6557096461935274e+01 2.4230704570441546e+01 2.3063338863411246e+01 0 1 -1
1028 2 1.6101889197065134e+01 2.4726454734315791e+01 2.5726220112305199e+01 0 1 -1
1027 1 1.6410802735720360e+01 2.5621433280582487e+01 2.5587848696346740e+01 0 1 -1
102 2 8.5775679833530116e+00 7.6442985685970726e+00 1.3530772997797870e+01 0 0 0
223 1 1.1872064608424864e+01 3.2433426178920532e+00 3.6506720884050012e+00 0 0 0
483 2 2.3989313924529679e+01 2.9185290982122730e+01 5.4416402548371678e+00 0 -1 0
1716 2 1.0229807963190458e+01 2.8517877848761138e+01 3.0881824404477314e+00 0 -1 1
1775 2 2.3979211087522867e+01 2.3730724512127523e+01 1.6726836056070486e+01 0 0 0
2459 2 2.2057960793418850e+01 1.2808942153901366e+01 1.6835566793085512e+01 0 0 0
986 2 1.3467340105091420e+01 8.1432175369526227e+00 2.3187589980409051e+01 0 0 0
1706 2 1.8323356836042176e+01 1.3554074564402512e+01 1.4309226419174356e+01 0 0 -1
457 1 2.1328761614435457e+01 2.0838746999635525e+01 5.4322238450593394e+00 0 0 -1
1675 1 9.2187093091830441e+00 1.8242293931809481e+01 1.6462917277774995e+01 0 0 0
2320 1 1.4072435845580330e+01 1.8183872579274567e+01 2.1862529548679355e+01 0 0 0
1588 1 1.4326417091162796e+01 2.6545708862694266e+01 2.2578308536431098e+01 0 -1 0
2403 2 1.8733510271970040e+01 3.1402799486453702e+01 2.6118385365224402e+01 0 0 0
583 1 7.4860242824814307e+00 1.6598978590639810e+01 4.0679727250685991e+00 0 0 0
2576 2 5.9994351424053320e+00 5.1438972236974818e+00 4.5613470041767314e+00 0 1 0
845 2 1.5350387631458020e+01 1.2717594204103586e+01 1.8286266611824797e+01 0 0 -1
2406 2 1.8175900034882027e+01 3.2174957113064906e+01 1.8772471245135474e+01 0 0 0
858 2 9.9394667708658524e+00 5.8694527764533575e+00 1.0036658028265258e+01 0 0 0
893 2 1.8549579771649881e+01 2.8507574060425664e+01 1.9337486451117162e+01 0 0 0
28 1 1.9812834686142335e+01 2.8367052974063895e+01 6.5524252876113822e+00 0 0 0
1120 1 1.9483316508313756e+01 1.1040126943235229e+01 9.3080423360791062e+00 0 1 -1
1035 2 2.2220346795580166e+01 2.7108961780615726e+01 2.7595344370815509e+00 0 0 0
300 2 1.6823713423095132e+01 2.0243370485700900e+01 2.9864734917114748e+00 0 0 0
1571 2 6.0553454715758086e+00 9.8282382678499509e+00 1.5901335068341032e+01 0 0 1
2414 2 1.4766720468238795e+01 2.1880559835843940e+01 1.2378524907829425e+01 0 0 1
116 2 2.4688116481965167e+01 2.0408541662051391e+01 1.6491451627468670e+01 0 0 -1
2441 2 1.5784073620051348e+01 2.1305884061930563e+01 8.4737809483906315e+00 0 0 1
847 1 1.3626396265712074e+01 1.8806530659454999e+01 2.3456948172511609e+00 0 0 -1
269 2 8.6744051789774819e+00 1.6207868846826351e+01 6.9097552583631217e+00 0 -1 -1
1015 1 1.4728412355499067e+01 2.7542599335391191e+01 1.6370800108295590e+01 0 0 -1
1738 1 1.5522981076147381e+01 2.2918465928417870e+01 2.5814131018285615e+01 0 0 0
19 1 1.9536599165139325e+01 2.4835503779984084e+01 3.5095480931019880e+00 0 -1 0
132 2 5.1024434909760146e+00 1.4879298974728554e+01 2.5392034551939338e+00 0 0 0
270 2 7.5360670948669561e+00 1.7429402060131824e+01 6.8846794977566761e+00 0 -1 -1
2819 2 1.6280025259521160e+01 1.9647129461054636e+01 1.8242772959148826e-01 0 0 1
309 2 1.2537507362754557e+01 2.5021479916443834e+01 2.0843149780011366e+01 0 0 -1
2440 1 1.5730236862741435e+01 2.1893604956386408e+01 7.6955486995192492e+00 0 0 1
98 2 1.5509618752913177e+01 3.9373614823250671e+00 9.8086498811051737e+00 0 0 0
318 2 1.7967403618864470e+01 2.0190902445092206e+01 2.0640339896527568e+01 0 -1 -1
369 2 1.7051549102553498e+01 1.8223539328182309e+01 1.0664711614462783e+01 0 0 -1
1065 2 2.3544545710874562e+01 1.7943530723933137e+01 2.1172743763800529e+01 0 0 -1
1130 2 7.6177340254779544e+00 1.1358867386919004e+01 1.3080074004606641e+00 0 0 0
1875 2 1.3728459314133143e+01 2.0093337848247135e+01 1.1609058921405172e+01 0 -1 0
1595 2 7.9461601059599705e+00 2.0686219302977847e+01 2.6109979180324330e+00 0 0 1
888 2 1.6735255437172121e+01 2.5374616715070687e+01 2.3997459952197140e+01 0 1 -1
1714 1 9.7420480263752989e+00 2.8690400300589115e+01 3.9235683506217640e+00 0 -1 1
299 2 1.6992451504007420e+01 2.0702356896232182e+01 4.4897674782553576e+00 0 0 0
2367 2 2.4882301226533773e+01 2.1458575760204585e+01 2.5473371790834676e+01 0 0 -1
873 2 1.2654722967435223e+01 1.4116599663288124e+01 2.0013044982618478e+01 0 0 0
1865 2 9.8002449647423209e+00 8.8918216958357341e+00 2.4082216280173270e+01 0 0 0
957 2 2.0110187608150369e+01 2.0625358762575530e+01 1.0486087133585855e+01 0 0 0
1515 2 2.0355311252286064e+01 2.7403572574406283e+01 1.9749127837344574e+01 0 0 -1
1896 2 4.9352448251150207e+00 6.8007518728692364e+00 8.2261466314052214e+00 0 0 1
1546 1 1.5043996499887903e+01 1.9733406173750513e+01 1.9799709450499613e+01 0 1 0
2589 2 1.4437293652565877e+01 8.5557401791463441e+00 8.4403241332304066e+00 0 1 0
588 2 7.3955622326960082e+00 5.9042272417322206e+00 1.0343602573818780e+01 0 0 0
930 2 1.5614043015714312e+01 1.0714800127209012e+01 7.0039918562767083e+00 0 0 0
2668 1 1.9589672546235356e+01 2.5393778133688105e+01 1.2028887041804870e+01 0 0 0
15 2 4.0780427738291039e+00 4.4081234060179408e+00 1.2579084002160283e+01 0 0 0
1045 1 2.8175377360804006e+01 2.0711476232880536e+01 2.5525290672181416e+01 0 0 0
900 2 1.8603030695977640e+01 1.9831944984527759e+01 1.7826293366210603e+01 0 0 0
2631 2 1.4915875452798968e+01 3.1532372813242137e+01 1.7980304862659072e+01 0 -1 0
1132 1 1.0749721126008280e+01 1.0853685842451272e+01 3.8504020633954541e+00 0 1 0
2471 2 1.1360591546711955e+01 7.1311215360212055e+00 1.6539265987999144e+01 0 1 0
2407 1 1.1413638704113550e+01 1.7323290286714048e+01 5.8582567285398053e+00 0 0 0
1514 2 1.9793151624587505e+01 2.7832578369939551e+01 2.1234058238149050e+01 0 0 -1
1127 2 1.6464318878622350e+01 1.5331740360619811e+01 2.4030686957107125e+01 0 0 -1
1688 2 1.7627664490082417e+01 3.0288719341477375e+01 2.1752569387343698e+01 0 -1 0
2916 2 2.8008632266791626e+01 3.0956281189652813e+01 2.1312550607025038e+01 0 0 0
1445 2 2.0213803041699794e+01 1.8769221562504711e+01 7.6193294564411715e+00 0 0 0
1627 1 1.7884200511657028e+01 2.1733426369620648e+01 1.3328522129553953e+01 0 0 0
1048 1 8.3783546559703268e+00 2.1627560431514055e+01 7.5123988796269927e+00 0 0 0
2636 2 1.3432960782109012e+01 2.7469292909645610e+01 9.9078658454715427e+00 0 0 1
818 2 1.6910670195002798e+01 8.1825642901048781e+00 2.1740566463554277e+01 0 1 -1
2513 2 1.5533351647465476e+01 2.4077562199188673e+01 1.5254183793842939e+01 0 0 0
1603 1 1.7597177426772440e+01 2.0729545614932530e+01 1.9043438664048466e+01 0 0 0
1575 2 2.4874132622747787e+01 2.8485565076419551e+01 8.1856813931846393e+00 0 -1 0
1605 2 1.6702546959277022e+01 2.0437183009290589e+01 1.9055474219243642e+01 0 0 0
2532 2 1.7594595120133285e+01 2.3934825209130143e+01 1.7467661448001262e+01 0 0 0
1656 2 6.3855194328855580e-01 9.7582612407446689e-01 6.6356494981313485e-01 0 1 2
100 1 8.0673953819415356e+00 8.4960848127884550e+00 1.3531684382903450e+01 0 0 0
313 1 6.0091367032712562e+00 1.4689200033164074e+01 7.6495634997187576e+00 0 0 -1
2669 2 1.9259785262092951e+01 2.6337935433872502e+01 1.2159106865056671e+01 0 0 0
1718 2 1.1672078714902600e+01 1.0517144874760049e+01 1.6829662843494440e+01 0 0 0
776 2 7.6210445345313378e+00 2.4761202448277821e+01 3.0502097676518973e+00 0 0 0
852 2 6.8262266045332112e+00 1.3826654388978067e+01 1.5074090841766807e+01 0 1 0
491 2 1.6983737227005914e+01 1.4769661176074216e+01 5.2069535797583564e+00 0 0 0
1066 1 2.2984063705465978e+01 2.6907693143365169e+01 2.5883080067323181e+01 0 1 -1
97 1 1.5740191978685338e+01 3.3880585560789132e+00 9.0012937471855796e+00 0 0 0
2361 2 1.6470202773843976e+01 1.7182844929862988e+01 1.8197465764284352e+01 0 0 0
1629 2 1.6911512153212449e+01 2.1963927961958923e+01 1.3289874619051995e+01 0 0 0
1513 1 2.0034034089826946e+01 2.8117167094008899e+01 2.0352181398116976e+01 0 0 -1
1078 1 8.2156509850405577e+00 1.3671639842336839e+01 3.6528386746031503e+00 0 0 1
1790 2 4.5276462574767251e+00 1.1105061401117119e+01 3.7818334720093869e+00 0 0 1
1496 2 2.1981849185419300e+01 2.5965953710420440e+01 5.0658373262066183e+00 0 0 -1
2353 1 1.1477137608286650e+01 9.4377637418053162e+00 1.9755030396706569e+01 0 1 0
917 2 2.1979935950527093e+01 2.9755993954356082e+01 2.2911111176136227e+01 0 0 -1
227 2 3.2799643096556785e+00 9.7035014413733585e+00 2.8570059040679454e+00 0 1 0
985 1 1.4212110339816057e+01 8.4537838794735727e+00 2.2673324496989288e+01 0 0 0
1884 2 1.2952728593691331e+01 1.8723415982830332e+01 9.8400443077542903e+00 0 0 0
775 1 8.4552040924189757e+00 2.5297308805739878e+01 2.8020792927207170e+00 0 0 0
298 1 1.7284394259416793e+01 2.0033584290624812e+01 3.8302756783915894e+00 0 0 0
1707 2 1.8309487134312441e+01 1.2299645938742586e+01 1.5319970151447317e+01 0 0 -1
218 2 9.3869845126887927e+00 1.0672136324178989e+01 1.7647911119738772e+01 0 -1 0
612 2 7.4120475654667946e+00 3.2177110412744954e+00 7.8396368952372715e+00 0 1 0
1784 2 6.8832242939477641e+00 1.0717083277930662e+01 7.8660184638534716e+00 0 0 0
1079 2 9.0078872912970454e+00 1.3982977914140509e+01 3.2052995636023813e+00 0 0 1
3012 2 2.6851188257151474e+01 2.9552088909115596e+01 1.9696802495972761e+01 0 0 0
2442 2 1.4694313423930762e+01 2.2157009470565356e+01 7.6452394885797945e+00 0 0 1
1653 2 8.7616291549982730e+00 2.0779450160322323e+01 6.8225417189174953e-01 0 0 1
2451 2 1.3923783713719672e+01 2.0943494676524335e+01 1.9358510825581401e+01 0 0 0
111 2 2.6011347159795452e+01 2.8204282059314551e+01 1.3564509082074967e+01 0 -1 0
384 2 1.3053204861711910e+01 2.3819332193653537e+01 1.5790687649037336e+01 0 0 0
206 2 2.0131925317137320e+01 1.4129595265308396e+01 1.6240325350163388e+01 0 0 -1
2504 2 2.6413801771529748e+01 2.0164053016876821e+01 2.2378862198875620e+01 0 1 -1
2586 2 1.5030859249574867e+01 1.1755330544960280e+01 2.2807794395211829e+01 0 1 0
1572 2 6.9339391308878078e+00 9.5035975356974944e+00 1.4615879140023337e+01 0 0 1
156 2 1.5829926653584472e+01 2.5946210348622600e+01 8.1569868986675793e+00 0 -1 0
756 2 1.0211470321350564e+01 2.3006236038458116e+01 1.4090453309038500e+01 0 0 0
1474 1 2.0595230467631538e+01 1.4772027349159064e+01 9.7669253325060783e+00 0 0 0
2502 2 2.3808008335239411e+01 2.4829794577168784e+01 1.8975974857690058e+01 0 0 0
1033 1 2.1988962554319343e+01 2.7619175365601279e+01 1.9425514746887147e+00 0 0 0
2560 1 1.4365592132705597e+01 1.6189677731673530e+01 1.9680789757060593e+00 0 0 1
885 2 2.7430586460230852e+01 2.4901492708646277e+01 2.0819996082331500e+01 0 0 -1
322 1 9.1903717891993324e+00 2.2863804966957463e+01 9.6151472688404009e+00 0 0 0
883 1 2.7719587918280155e+01 2.5660010860534101e+01 2.1422626278419525e+01 0 0 -1
1068 2 2.2823294976155591e+01 2.7296012487983560e+01 2.6770104838135232e+01 0 1 -1
2515 1 1.4121800493152840e+01 2.6402428318124922e+01 1.3902543259110834e+01 0 0 0
1118 2 1.5181507573716200e+01 1.6787805832892222e+01 3.3373828591066362e-01 0 0 0
1112 2 5.7351795331083260e+00 7.7100007901851375e-01 2.2365135697175496e+00 0 1 0
2613 2 1.8629000570036581e+01 1.5956145829780795e+01 1.8231072545586514e+01 0 0 1
1133 2 1.1236785564304979e+01 1.1109851408427827e+01 3.0127533023126301e+00 0 1 0
1762 1 1.2035491339916458e+01 8.4979400594381875e+00 9.8640029390538420e+00 0 0 0
2556 2 2.4709219184971410e+01 2.7481251403923661e+01 2.1189303475804643e+01 0 0 0
2548 1 1.0358985506398811e+01 1.4858550339515133e+01 2.3644319207011684e+00 0 1 1
1042 1 8.6326425815983470e+00 1.4122032571067738e+01 9.0560722094792094e+00 0 1 0
1662 2 1.1115511051059105e+01 1.3697880951219780e+01 1.1991345090497619e+01 0 -1 1
870 2 1.0217598012191207e+01 1.5704704254445133e+01 1.2478391186401383e+01 0 0 0
1736 2 1.0462852079625119e+01 1.1348006358023611e+01 1.2234650186603197e+01 0 0 0
1018 1 2.9320519749438340e+01 2.7493261603628969e+01 2.6105085239538720e+01 0 0 -1
1109 2 1.4402208182133680e+01 1.6016160546684574e+01 1.1677576200894274e+01 0 0 0
372 2 1.1449163405637817e+01 7.6820474882920156e+00 2.4271836318836886e+01 0 0 0
1013 2 1.4797551520367293e+01 5.7532256779509661e+00 1.8400469287607518e+01 0 0 0
2555 2 2.3988771638936488e+01 2.7097284159892979e+01 1.9952796403380326e+01 0 0 0
1058 2 4.4989877290780189e+00 9.6828853406573714e+00 6.4381427321225981e+00 0 1 0
1801 1 1.4110414153903960e+01 1.8031277489149677e+01 1.4370733753192273e+01 0 -1 0
1542 2 1.6778674409871059e+01 9.7029002519216814e+00 1.0736676491142927e+00 0 0 0
2601 2 1.1315153933740865e+01 2.1392593454456129e+01 5.4646076779548798e+00 0 0 0
2600 2 1.2825723205750425e+01 2.0772169753081741e+01 5.3524897599706467e+00 0 0 0
1690 1 7.6315554607064389e+00 7.0449675690837488e+00 1.9668274473848236e+01 0 0 0
2444 2 1.2361321870071730e+01 1.7963775210163718e+01 1.8397115343529268e+01 0 1 0
745 1 2.1917688505843081e+01 2.6400990722554297e+01 6.7691847518410366e+00 0 -1 0
2642 2 1.2199179942060599e+01 1.3361768695620436e+01 4.6544126900054472e+00 0 0 1
2307 2 9.1220544087355950e+00 1.6982846840818038e+01 3.8654273629623424e+00 0 0 0
279 2 1.5604525732421887e+01 5.4403006455663654e+00 1.1264552587855583e+01 0 0 0
1494 2 2.6515856753840040e+01 3.0328653837929330e+01 1.7376432058293119e+01 0 0 0
3026 2 1.1144136360189275e+01 3.7994228764164162e+00 1.2464154698823332e+01 0 1 0
2655 2 2.2367935314563610e+01 2.1590885867623129e+01 2.6995417309988881e+01 0 1 -1
2306 2 1.0515217680540948e+01 1.7386246081575585e+01 4.3810440328080711e+00 0 0 0
198 2 2.1046099647101610e+01 3.0575364308092666e+01 1.5944624503483107e+01 0 -1 0
1283 2 2.4262522142341563e+01 2.6682882058239031e+01 1.4059674286905517e+01 0 0 0
2468 2 1.1424908218386570e+01 1.9460357313669292e+01 1.3383350663563320e+01 0 0 1
2570 2 1.2969683328714686e+01 2.4440071037313661e+01 7.5088654548686238e+00 0 0 0
1562 2 1.0551754774678844e+01 2.1200776604753301e+01 1.5772606903915730e+01 0 0 0
2072 2 1.3312732880564624e+01 1.9982308256437616e+01 2.6375633780794288e+01 0 0 0
314 2 6.8471013857706140e+00 1.4784933664766287e+01 8.0796391723764280e+00 0 0 -1
6040 1 1.6180116230180097e+01 1.2981388787414510e+01 2.2218874467663248e+01 1 0 0
2604 2 2.1377392522893192e+01 2.1637051865224617e+01 1.5574045136750170e+01 0 1 0
2354 2 1.1026414164380300e+01 9.6521931211138288e+00 1.8916655208856863e+01 0 1 0
1134 2 1.0745836936598925e+01 9.8734228153673360e+00 3.9688906390667791e+00 0 1 0
2644 1 2.8498508745240132e+00 5.2442546739165889e+00 4.0196517194996124e+00 0 0 1
360 2 7.1330748740434480e+00 1.6226585569759727e+01 6.8916219952338420e-01 0 0 1
375 2 1.5960624879019626e+01 2.1662288169075779e+01 2.2842912387149539e+01 0 0 -1
1735 1 1.1417614748040968e+01 1.1614570897097710e+01 1.2216695945915101e+01 0 0 0
2646 2 3.1355606296974603e+00 5.6105156223274548e+00 3.1739332215302700e+00 0 0 1
2413 1 1.5366849389039480e+01 2.2624385708193856e+01 1.2799830525026831e+01 0 0 1
2450 2 1.2588701300487354e+01 2.1784144141139166e+01 1.9265868012390339e+01 0 0 0
2603 2 2.2147944085887957e+01 2.2820008921350986e+01 1.4807945946954533e+01 0 1 0
2554 1 2.4375059093180560e+01 2.7938396470994068e+01 2.0344788118738769e+01 0 0 0
2654 2 2.2036671442964440e+01 2.3190888028605308e+01 2.6930098877860289e+01 0 1 -1
2305 1 1.0027736167558075e+01 1.7156536041184669e+01 3.5819978443533325e+00 0 0 0
1599 2 1.9711420982334094e+01 1.6974145217129742e+01 4.4046590098187419e+00 0 0 0
1861 1 3.7109239624077119e+00 1.1176247971373151e+01 7.0334910779126583e+00 0 0 0
3055 1 1.9422855312078045e+01 7.0699355631069869e+00 2.0755049787910718e+01 0 1 0
477 2 1.9609199239524735e+01 2.1634250420649316e+01 2.3943039561779518e+01 0 0 -1
2641 1 1.2678674859039624e+01 1.3888026496834994e+01 3.9377711070822285e+00 0 0 1
2434 1 1.1639307153423150e+01 2.9507991479905730e+01 9.3186707915484224e+00 0 0 0
2537 2 1.1203945425712295e+01 4.5131652478668833e+00 8.7038657104393646e+00 0 1 1
725 2 1.7307250945379344e+01 7.4930686252227776e+00 2.4292908960095716e+01 0 0 0
1441 1 1.9540363524954937e+01 2.3172455365660841e+01 5.6020681964034491e+00 0 0 0
3060 2 2.5116316834648948e+01 1.3246879993854481e+01 2.6074617958432423e+01 0 1 0
67 1 5.0531069353802955e+00 2.1231764462413376e+00 4.9431986146610427e+00 0 0 -1
1117 1 2.6004105672289171e+01 2.3934681671891301e+01 2.6746864424785219e+01 0 0 -1
1737 2 1.1781303816648226e+01 1.1637163849721983e+01 1.3136931609244622e+01 0 0 0
1909 1 1.5079584011643636e+01 1.3081251416043223e+01 1.3453234285445522e+01 0 0 0
63 2 5.2975798339195279e+00 6.8004226466752389e+00 1.6891004744583942e+01 0 0 -1
368 2 1.6239712293811301e+01 1.7209343344442075e+01 1.1450722200842726e+01 0 0 -1
197 2 2.1174373098151037e+01 2.9045726984445341e+01 1.5575639833004473e+01 0 -1 0
759 2 1.3353257318518656e+01 4.6043304164685246e+00 1.6237399786416136e+00 0 0 0
173 2 1.6712791904136484e+01 7.2333522684650280e+00 1.1627572298678807e+01 0 0 -1
1701 2 1.0439217947526576e+01 1.5595669789851932e+01 2.2216204904013580e+01 0 0 0
6041 2 1.7035852046755377e+01 1.2547732325796737e+01 2.1975907692216687e+01 1 0 0
2312 2 1.1108032961575724e+01 1.3626239127889119e+00 9.3077872564661035e-01 0 1 0
1681 1 2.8478071416145255e+01 3.1072745376914273e+01 2.3104591195227780e+01 0 -1 -1
2467 1 1.2199731572874779e+01 1.9709256775797833e+01 1.3969804613502527e+01 0 0 1
964 1 1.0297722007344625e+01 1.3263107746054036e+01 2.5516260034835692e+01 0 0 -1
1621 1 1.4206075172749522e+01 1.1673935983724700e+01 1.8739459027167491e+01 0 0 -1
1622 2 1.4608078565527435e+01 1.0815137586710867e+01 1.9056891215907122e+01 0 0 -1
2328 2 2.8758764547432548e+01 2.4978298265855358e+01 2.2464109484760407e+01 0 0 0
1691 2 7.5923985022790514e+00 6.0481807206389577e+00 1.9743864490096129e+01 0 0 0
281 2 2.2720215405733278e+01 2.5371152770953699e+01 1.1606073109701697e+01 0 -1 0
2612 2 1.8024255079686544e+01 1.6336015304876934e+01 1.6749748914682076e+01 0 0 1
2491 1 1.8390428157016359e+01 2.1284422447702433e+01 1.0705778167157352e+01 0 0 1
1082 2 2.1938370596436950e+01 2.2833349805841841e+01 8.7181872015040494e+00 0 0 -1
1110 2 1.4279486034782884e+01 1.7138154982377394e+01 1.2764786564072972e+01 0 0 0
1876 1 8.3114514180408072e+00 1.2161027905390156e+01 1.7790406284163012e+01 0 0 0
2563 1 1.6985092540890815e+01 9.5024041520658820e+00 1.6920697823982742e+01 0 1 -1
1700 2 9.7345407351956865e+00 1.6753567068221006e+01 2.1500067153646967e+01 0 0 0
216 2 1.7454267915522280e+01 2.5450500741384051e+01 1.6043658128450467e+01 0 0 0
819 2 1.6577294286587762e+01 9.3142345159280566e+00 2.0692241944739287e+01 0 1 -1
2545 1 1.8583977663039171e+01 2.2364527117864657e+01 2.7140574089792583e+01 0 0 0
946 1 9.7718808333671419e+00 7.8220899886897284e+00 2.1090645242705509e+01 0 0 0
879 2 1.4369556358097618e+01 9.1900819356872159e+00 1.4603621135361828e+00 0 0 0
214 1 1.7300727943171768e+01 2.4529630534609868e+01 1.5878349905784672e+01 0 0 0
1900 1 1.6851869056210166e+01 2.8598311316045162e+01 2.2741487075740746e+01 0 -1 0
1616 2 1.4807687032298251e+01 2.2359956246612462e+01 1.6083633660889546e+01 0 -1 0
1668 2 2.0041505047571924e+01 2.0002106943727512e+01 2.1380098968349728e+01 0 0 0
2439 2 8.8570367546127446e+00 3.7950197467151985e+00 1.4121417098803166e+00 0 1 0
2474 2 1.4538637643185169e+01 3.0236252296889912e+01 9.6204377277644113e+00 0 -1 1
844 1 1.5996078340519134e+01 1.3388426804209079e+01 1.8083077387644646e+01 0 0 -1
1687 1 1.7994118469288512e+01 3.1159778961175107e+01 2.1937695606648369e+01 0 -1 0
3027 2 1.0972214307795554e+01 5.1943409580722264e+00 1.1657805403115200e+01 0 1 0
1232 2 2.9563405099506859e+01 2.8494681025945585e+01 2.4627499529230228e+01 0 0 -1
2602 1 2.1404987151920885e+01 2.2145323662623085e+01 1.4748558675530495e+01 0 1 0
1277 2 2.5271680356977473e+01 2.7274925433484903e+01 1.7389129588467707e+01 0 0 0
1490 2 2.1264827172087493e+01 1.2912825227208623e+01 1.0572486477271489e+01 0 0 0
953 2 2.2750722911901818e+01 1.4018729748504979e+01 2.6632629386400033e+01 0 1 -1
271 1 1.6286744201783208e+01 1.9957075525954057e+01 2.3634100829609917e+01 0 0 0
2469 2 1.1763592936961050e+01 2.0129315067779192e+01 1.4742014501681950e+01 0 0 1
1657 1 2.0498628126724519e+01 3.3304264153991419e+01 2.1187612721054510e+01 0 -1 0
385 1 1.0100055759763279e+01 6.6673131892113870e+00 1.3331705380190726e+00 0 0 0
154 1 1.5397402822533500e+01 2.6723493192195583e+01 7.7389022359496096e+00 0 -1 0
1608 2 1.2086676170173625e+01 7.6445109981942343e+00 3.9134352922078701e+00 0 0 0
585 2 6.9032630909674459e+00 1.7161434278625126e+01 4.5947541515504948e+00 0 0 0
2316 2 1.5531523632123694e+00 4.0958428931461839e+00 3.4312211146849543e+00 0 1 1
251 2 6.1580103761996146e+00 1.3296883118701688e+01 1.2468947453713030e+01 0 0 0
2437 1 9.4169630829661717e+00 4.0338929299745798e+00 6.8897742185577171e-01 0 1 0
194 2 6.4545833918384474e+00 2.2325073281078755e+01 2.2252154750903594e+00 0 -1 0
376 1 1.0964413611838552e+01 2.8506982505853227e+01 6.3981173988516788e+00 0 -1 1
284 2 1.5602380785080960e+01 7.2364729545918181e+00 2.2773450624613407e+01 0 1 -1
871 1 1.2323279925999902e+01 1.3195607658398428e+01 2.0087516871740007e+01 0 0 0
855 2 1.6543280166931360e+01 1.7028479481749514e+01 2.2657088138467024e+01 0 0 -1
2670 2 2.0585815280012703e+01 2.5559862987996112e+01 1.2030079100427706e+01 0 0 0
945 2 1.2697113754051355e+01 2.3252620358364890e+01 2.2145844277282794e+01 0 1 -1
1585 1 1.0922392011335432e+01 1.8207516866704307e+01 2.1169749419186100e+01 0 0 0
2492 2 1.8168886727948177e+01 2.1457988314647434e+01 1.1610189656571727e+01 0 0 1
2623 1 1.2077866819425402e+01 1.5344630580324329e+01 2.2924319465172889e+01 0 0 0
848 2 1.3817382557526336e+01 1.7850995796527737e+01 2.2404578134935176e+00 0 0 -1
1559 2 1.9394760981433432e+00 7.8415122306988359e+00 2.3025447155536307e+00 0 1 1
1084 1 1.1333418414188351e+01 1.8266631099947819e+01 9.5575252481811575e+00 0 0 0
1910 2 1.5734970922261475e+01 1.2417191416773939e+01 1.3157977724640354e+01 0 0 0
126 2 3.5538093942070175e+00 4.3706176846866267e+00 9.6610318764280052e+00 0 0 0
321 2 2.1414591494583366e+01 1.6319787684793969e+01 1.2431489074404094e+01 0 0 -1
196 1 2.0761214084165932e+01 2.9891400960705230e+01 1.5306814487507864e+01 0 -1 0
1597 1 1.9616938994841775e+01 1.6770527702521605e+01 5.3536643638557821e+00 0 0 0
1652 2 8.6756422988297892e+00 2.2338016785435514e+01 3.1557386007419097e-01 0 0 1
1607 2 1.3537251580902527e+01 7.1768406427592906e+00 4.5286334096572212e+00 0 0 0
331 1 1.4818231403050440e+01 3.0139849641792569e+01 1.6906766641534169e+01 0 0 0
1809 2 1.3564627631192572e+01 1.1547716865344341e+01 8.1478553132207701e+00 0 0 0
838 1 2.1021008151830593e+01 1.8082002505154161e+01 9.1012318760933315e+00 0 0 0
115 1 2.4229927024450905e+01 1.9815389516256413e+01 1.5924008380594268e+01 0 0 -1
283 1 1.6466734366164470e+01 6.7993870677394064e+00 2.2595833580816347e+01 0 1 -1
386 2 1.0087147433595431e+01 5.6681034366417382e+00 1.2212713209549979e+00 0 0 0
683 2 1.8565998136320943e+01 1.3535608391028733e+01 4.1293075033859132e+00 0 0 0
726 2 1.7062483182838978e+01 7.4188153955846596e+00 2.5876884540129488e+01 0 0 0
189 2 2.3358672573873882e+00 3.2177225972972803e+00 6.7736427075525185e+00 0 1 0