LAMMPS data file via write_data, version 15 Apr 2020, timestep = 0

6144 atoms
2 atom types

-1.9059312472584509e+00 6.1874220378442587e+01 xlo xhi
0.0000000000000000e+00 2.8102275793471531e+01 ylo yhi
0.0000000000000000e+00 2.7162661773102471e+01 zlo zhi
1.0148867966419239e+01 1.0173634328282972e+01 7.1120876177611017e+00 xy xz yz

Masses

1 16
2 2

Atoms # atomic

1595 2 2.0688482046480267e+01 2.2295644517832017e+01 1.9373123516182559e+01 0 0 0
1604 2 1.5762210775038643e+01 1.9180766505702159e+01 2.3992938933326922e+01 0 0 0
1645 1 1.8172193771601464e+01 1.0971509573313838e+01 3.0428529712023500e+00 0 0 0
987 2 1.3415672614650957e+01 1.2030752647636673e+01 2.1697700230030517e+01 0 0 0
225 2 6.9741476435779841e+00 5.4526509048505325e+00 3.9149206553353197e+00 0 0 0
52 1 1.2743972088536811e+01 2.8987306367794147e+01 9.9245392167123967e+00 0 -1 0
25 1 8.0367218265398286e+00 1.5114466144676280e+01 9.5819048838198100e+00 0 0 -1
1625 2 1.4824141138694884e+01 1.9323983065791950e+01 1.8182179992268296e+01 0 0 0
2464 1 1.1869540380806068e+01 2.0320168486006498e+01 6.2314633160079449e+00 0 1 0
886 1 1.6421965527769594e+01 2.3384340796418442e+01 1.9777946546597448e+01 0 1 -1
1633 1 1.6514820310310029e+01 1.2527446607789059e+01 2.1938818565709621e+01 0 0 0
849 2 1.6063110408509246e+01 1.8396421122425011e+01 1.2574202383742723e+01 0 0 -1
2443 1 1.1854389361777301e+01 1.3917676718211649e+01 1.0368481144484747e+01 0 1 0
358 1 1.7131613923582073e+01 2.4137655403924143e+01 2.3721199066484076e+01 0 0 0
2466 2 1.1743072247999864e+01 2.0402395532452005e+01 5.2423414705962763e+00 0 1 0
1895 2 8.5696817598717328e+00 1.3665546908770631e+01 6.7699884684279397e+00 0 0 1
1670 2 5.9362849136545126e+00 4.5987147068742802e+00 1.8169065958224262e+00 0 0 0
1634 2 1.6787698968344216e+01 1.3299538608727980e+01 2.2484253260332057e+01 0 0 0
1064 2 2.1774199327106835e+01 3.1046886053804322e+01 2.3474572684440453e+01 0 0 -1
1894 1 9.5169685747808117e+00 1.3539472659553093e+01 6.5019586625150501e+00 0 0 1
1740 2 1.6893155630376551e+01 2.1882676346403883e+01 2.6385788683955550e+01 0 0 0
1916 2 1.6447621564051378e+01 2.4717615888640122e+01 1.6711883931196581e+01 0 0 0
611 2 6.0282716360591797e+00 5.1927878534212537e+00 1.4650666991557040e+01 0 1 0
1709 2 1.2066496138073347e+01 6.4547152591094346e+00 1.7563393401540271e+01 0 0 0
2671 1 4.6712196792797815e+00 5.5916240424681654e+00 1.3492763997877374e+01 0 1 0
53 2 1.3081821977284745e+01 2.8049360389046029e+01 1.0174088034117846e+01 0 -1 0
1587 2 1.2208070283179797e+01 1.4648234513794629e+01 1.5051913211645713e+01 0 0 0
1586 2 1.2792185713010571e+01 1.5381540181412754e+01 1.3903929187636839e+01 0 0 0
1012 1 2.3100492007966906e+01 8.1700964074253264e+00 2.3234863812022180e+01 0 0 0
2564 2 1.9370247355590248e+01 1.8374890359604844e+01 2.6991680004227941e+01 0 1 -1
416 2 1.1253338223662549e+01 1.6805071107941117e+01 1.9896316913778261e+01 0 0 0
1871 2 1.5743957299946956e+01 2.4819179944554300e+01 2.0135195284845071e+01 0 0 0
610 1 6.7305273496056248e+00 4.7683580127765701e+00 1.5151472644567207e+01 0 1 0
1275 2 4.9908977425791319e+00 6.9237889918679434e+00 1.5298138033975428e+00 0 0 0
2391 2 1.0557608065167257e+01 2.8187064574061679e+01 7.0698703381563428e+00 0 0 0
1107 2 5.3380449629281310e+00 1.7992256100468609e+01 2.0703705239443808e+00 0 0 0
1708 1 1.2077923558624100e+01 7.3929277152720729e+00 1.7244346323038179e+01 0 0 0
27 2 8.6316996479152657e+00 1.5350821859668095e+01 1.0290274958211228e+01 0 0 -1
907 1 1.9252819663243756e+01 2.6870473461659589e+01 2.1540789050224706e+01 0 0 -1
99 2 1.0784571659706472e+01 5.4639100295429390e+00 8.3227996055755220e+00 0 0 0
1561 1 1.1503983665557179e+01 1.5995551368880626e+01 1.6589895606013368e+01 0 0 0
1901 2 1.3575332918651783e+01 7.1548163143339387e+00 2.5026148413329260e+01 0 0 0
174 2 1.8008684185912944e+01 7.7372869649085292e+00 1.8264948509734666e+01 0 0 -1
1521 2 1.6752229463610842e+01 1.1162557497319376e+01 3.9088442110229287e+00 0 0 0
924 2 2.0116241864450025e+01 1.8181802827122461e+01 1.0220374759960439e+01 0 0 0
149 2 9.6941835277157526e+00 7.9091103021735938e+00 2.5183302633545484e+01 0 0 -1
224 2 7.8672085656396398e+00 6.5330792534301185e+00 3.1413865019003917e+00 0 0 0
1781 2 9.5901751145570504e+00 1.2557632639747979e+01 1.3571963559618146e+01 0 0 0
1710 2 1.2736375686484125e+01 7.5439745414111110e+00 1.6542034760452946e+01 0 0 0
1689 2 1.0829052780513118e+01 6.6940320856042446e+00 1.2004163788862719e+01 0 0 0
1705 1 1.4791965098691445e+01 1.6327043448363899e+01 1.6702115575943484e+01 0 0 -1
1773 2 2.1270017958940937e+01 3.0821668868498723e+01 2.5551167659912373e+01 0 0 -1
101 2 4.9589270902696825e+00 7.0577959973002589e+00 8.8875568535160205e+00 0 0 0
1570 1 1.1662515851203912e+01 1.0554953537734699e+01 1.5206788864202389e+01 0 0 1
2314 1 1.4426853556480953e+01 2.6360809165745739e+01 6.5277703283342596e+00 0 0 1
1129 1 1.3854653119897211e+01 1.5142168798179604e+01 2.0490052996463803e+01 0 0 -1
2360 2 1.1066117429775730e+01 1.4107626913445426e+01 1.3092334199348034e+01 0 0 0
1635 2 1.5538244448093458e+01 1.2593069152951923e+01 2.1749748842540235e+01 0 0 0
1017 2 8.1962877362286797e+00 3.6462806076236065e+00 1.2204065545133176e+01 0 1 -1
829 1 1.1456098101262711e+01 2.6627628206342234e+01 1.2999238776788021e+01 0 0 0
821 2 9.2538596576346244e+00 1.8510912057339905e+01 1.8574890843813796e-01 0 0 0
1059 2 2.2400532757321631e+01 3.3860723502782825e+01 2.7094495851606762e+01 0 0 -1
896 2 1.8201158388059113e+01 3.1675572691834393e+01 2.4656550474306659e+01 0 0 -1
868 1 9.2213961134633813e+00 1.7254163743775564e+01 8.0962288186281270e+00 0 0 0
944 2 5.5171326931164639e+00 1.4118380196045489e+01 1.9877922402116159e+00 0 1 0
1571 2 1.2393031985840423e+01 1.1114445546319001e+01 1.5522057058426373e+01 0 0 1
1659 2 1.7020745529351501e+01 2.9379472358631922e+01 1.7623455130993218e+01 0 -1 0
894 2 1.4794618222044146e+01 2.3708027865195490e+01 1.0291963499355996e+01 0 0 0
206 2 2.3750932442916582e+01 1.2307740893725738e+01 1.9653165291214890e+01 0 0 -1
1274 2 5.1314481780270933e+00 7.3341253189050608e+00 3.0220038635674022e+00 0 0 0
1113 2 1.4582424860677737e+01 2.0434307125517819e+01 1.3272191067431622e+01 0 0 0
1669 1 5.6343991823315491e+00 5.0910030614588608e+00 9.3873060728322155e-01 0 0 0
1063 1 2.1671593434284226e+01 3.0175655392990237e+01 2.3856692708730446e+01 0 0 -1
1671 2 6.3968450465922047e+00 5.1451651057845069e+00 3.7446673107656392e-01 0 0 0
1791 2 3.7095709677114517e+00 7.8326965462772948e+00 5.3631403750305653e+00 0 0 1
1001 2 7.2442955415842611e+00 1.5313274810895443e+01 6.3523857577095724e+00 0 0 0
846 2 1.3004747860573634e+01 1.7276022838576843e+01 2.2346720212081330e+01 0 0 -1
359 2 1.6501566265945787e+01 2.3641356866677135e+01 2.4313914849860158e+01 0 0 0
1739 2 1.6012810707382137e+01 2.1427870447496797e+01 2.5259508462857013e+01 0 0 0
822 2 1.7967443090218254e+01 2.6351977262185574e+01 2.7090249936043680e+01 0 0 -1
2471 2 1.8631279031319554e+01 9.8055543092596302e+00 1.8679553305602109e+01 0 1 0
1112 2 1.4170255355029820e+01 2.2054598710814048e+01 1.3273295386927348e+01 0 0 0
887 2 1.6709209383505151e+01 2.3211887432174731e+01 1.8848916055949601e+01 0 1 -1
2465 2 1.0971659970017496e+01 2.0317041366398435e+01 6.6261742311253746e+00 0 1 0
1203 2 2.4914697554817174e+01 2.0636236080912383e+01 1.5865115877005348e+01 0 1 -1
102 2 5.3807422465147967e+00 8.5434400651928470e+00 8.6853333316569312e+00 0 0 0
223 1 7.3149502309814292e+00 6.3827894703175323e+00 3.9160145657221102e+00 0 0 0
1917 2 1.5411426083082102e+01 2.5834957439004999e+01 1.6940828715749010e+01 0 0 0
353 2 6.8847024146170277e+00 1.0539594774185542e+01 8.3290717809604438e+00 0 0 0
2407 1 9.8410226360604653e+00 1.9656305150846705e+01 9.2739890184297895e+00 0 0 0
1687 1 1.0474003069308280e+01 5.8429717654114208e+00 1.2325759759771262e+01 0 0 0
986 2 1.4285175980819801e+01 1.2195436924274215e+01 2.0297676206174014e+01 0 0 0
1706 2 1.5389132219305854e+01 1.6222992093170532e+01 1.5933761449008591e+01 0 0 -1
1703 2 9.2736312755612857e+00 1.3234741784417423e+01 1.5775298092903194e+01 0 0 0
1374 2 1.7723198298828287e+01 1.9984013179602670e+01 2.8316503804146378e+00 0 0 0
1688 2 1.0110341550564346e+01 6.0277344531781445e+00 1.3192842589635148e+01 0 0 0
956 2 2.2480830955658469e+01 1.9154689644233752e+01 6.7553727642890813e+00 0 0 0
1610 2 7.5680233344669681e+00 1.8173378327841068e+01 1.8657834714264070e+00 0 -1 0
922 1 1.9911517783744625e+01 1.7659907867555926e+01 1.0989771545206667e+01 0 0 0
945 2 4.4947436880509555e+00 1.3292054723424652e+01 2.5547443361223112e+00 0 1 0
845 2 1.3314846315474405e+01 1.6158261112393809e+01 2.3501127230572642e+01 0 0 -1
1563 2 1.1596801816009119e+01 1.6225347495202662e+01 1.7546316730283472e+01 0 0 0
908 2 1.9671414844793869e+01 2.5977380500911842e+01 2.1484373800770850e+01 0 0 -1
893 2 1.3256320752469367e+01 2.3493347310372023e+01 1.0747181136735655e+01 0 0 0
28 1 2.1173721046472185e+01 2.1877582268738987e+01 1.4843245347826576e+01 0 0 0
2652 2 2.7499859790540853e+01 2.3835545564720103e+01 2.2472185744588771e+01 0 0 0
870 2 9.5383670143587640e+00 1.8151706294564033e+01 8.4149415213790633e+00 0 0 0
300 2 1.4234009283602575e+01 2.0302487647320572e+01 9.1378213767555998e+00 0 0 0
1585 1 1.2538233219732394e+01 1.4454986498215884e+01 1.4120104017187051e+01 0 0 0
2414 2 1.1733566851865092e+01 1.7331468696776099e+01 1.3401772550114622e+01 0 0 1
2436 2 2.1002877145725609e+01 2.6123091886437219e+01 1.0871825508547184e+01 0 0 0
2441 2 1.7046510428295107e+01 2.0923154642743402e+01 9.9958339841896624e+00 0 0 1
847 1 1.5046016318015720e+01 1.8470744395205770e+01 1.2464158957976528e+01 0 0 -1
1562 2 1.0783988038289738e+01 1.6619536975253300e+01 1.6378804966364726e+01 0 0 0
1015 1 1.8040902596143393e+01 3.1375197368263759e+01 1.3056650428242566e+01 0 0 -1
1738 1 1.6350806855353550e+01 2.2291706192085826e+01 2.5669245806569350e+01 0 0 0
949 1 2.1923562448902935e+01 2.1457065363931900e+01 1.9811052652896201e+01 0 -1 0
30 2 2.1637988038002604e+01 2.2724989826805341e+01 1.4865742541632663e+01 0 0 0
2409 2 9.2526407364007142e+00 1.9640389588867606e+01 1.0056524519486986e+01 0 0 0
753 2 1.0658343094162973e+01 2.0953496128812269e+01 1.5727839339914748e+01 0 0 0
150 2 1.1061289041981848e+01 7.1669813585364004e+00 2.4811676899501858e+01 0 0 -1
2440 1 1.7370248278377545e+01 2.0298198286039248e+01 9.3363690176576384e+00 0 0 1
98 2 1.0802292632323278e+01 6.6088916904498340e+00 7.3687265048561006e+00 0 0 0
2408 2 1.0718274984954665e+01 1.9361477048009000e+01 9.5905379650568481e+00 0 0 0
369 2 1.4404163894720615e+01 1.5688626444826287e+01 1.1977198014703832e+01 0 0 -1
1065 2 2.2595603434461417e+01 2.9917690858411301e+01 2.4079182151962460e+01 0 0 -1
1130 2 1.3682887532936066e+01 1.5564124509352506e+01 2.1395596339184380e+01 0 0 -1
2355 2 2.1906825769651576e+01 2.4059348186213917e+01 2.1375183154368209e+01 0 0 0
962 2 2.8332756702092588e+01 3.0383861164320304e+01 2.3213183464362274e+01 0 0 -1
888 2 1.7226240308909198e+01 2.3192013305300449e+01 2.0323489715710686e+01 0 1 -1
434 2 2.0189153998680801e+01 1.3594046239165451e+01 1.6496333580742377e+01 0 0 -1
299 2 1.4029573002284183e+01 2.1293287391084451e+01 1.0300859634789745e+01 0 0 0
626 2 2.1814204957635141e+01 1.4406595058446614e+01 2.5530815417982058e+01 0 0 -1
873 2 1.0968019957670055e+01 1.2355430949208074e+01 1.8457150140707082e+01 0 0 0
105 2 7.6923857997204870e+00 1.2711659711420209e+01 8.9305512747047686e+00 0 0 0
2311 1 1.8591995181361220e+01 1.5163800395135713e+01 2.6434396138850659e+01 0 1 -1
1515 2 7.6976071794683847e+00 1.4755219092364699e+01 1.4203219928039692e+00 0 0 0
1896 2 9.9913192219491709e+00 1.4223803464520399e+01 6.9725793862631269e+00 0 0 1
1546 1 1.2913930652743124e+01 1.5252421759731698e+01 2.4781915674543836e+01 0 1 0
984 2 1.5370959678422636e+01 6.5893900680380373e+00 1.4089434309357237e+01 0 1 -1
588 2 6.5892432304693394e+00 1.1466731127260163e+01 3.7296432360921705e+00 0 0 0
909 2 1.8488414691984914e+01 2.6760363188609773e+01 2.2111310829953972e+01 0 0 -1
2668 1 1.9577475979094434e+01 2.5553051804517818e+01 1.1760460731672449e+01 0 0 0
2354 2 2.3319880628281076e+01 2.4316207285586366e+01 2.0612050867970872e+01 0 0 0
856 1 1.9263861005511931e+01 8.7287839862528074e+00 9.7306406501768006e+00 0 0 0
435 2 1.9261307967858965e+01 1.3488339263238888e+01 1.7764884097163137e+01 0 0 -1
1273 1 4.7556819448725411e+00 7.6838823251403054e+00 2.1684653012118451e+00 0 0 0
1132 1 7.1420875063267033e+00 5.7402001161918310e+00 7.9571904834697831e+00 0 1 0
1780 1 9.5028584590342078e+00 1.2153749221272808e+01 1.4403735936527026e+01 0 0 0
898 1 1.3848878615502107e+01 2.5920650295486322e+01 1.7923727740161414e+01 0 0 0
1514 2 6.8492003821031826e+00 1.5913518640270560e+01 2.1829167925339612e+00 0 0 0
2653 1 1.7166861686458574e+01 8.2504181055281212e+00 3.1279697051550226e+00 0 1 0
352 1 6.7232275845500133e+00 9.5854794688144729e+00 8.3297719825460668e+00 0 0 0
961 1 2.7516602196757198e+01 3.0258443383135230e+01 2.2718048093348276e+01 0 0 -1
885 2 1.3437531901805546e+01 4.9962157232182367e+00 1.4750291525097472e+01 0 1 -1
228 2 9.6632888809504678e+00 2.8721883894576024e+01 3.3890123925249123e+00 0 0 0
2316 2 1.4156281304071484e+01 2.7042547425407026e+01 5.8427959249701749e+00 0 0 1
975 2 1.1751540769149861e+01 2.6937978038030444e+01 8.5893085800273106e+00 0 0 0
818 2 1.2102741829873370e+01 5.1166642243609886e+00 1.9095592153634943e+01 0 1 -1
775 1 1.1237046169106204e+01 2.5927105192344229e+01 4.2411262538140075e+00 0 0 0
1603 1 1.5481152616921655e+01 1.9788433682859495e+01 2.4661285748763760e+01 0 0 0
2331 2 8.0705195701099974e+00 2.2702796641864779e+01 5.1240507686467982e+00 0 0 0
1605 2 1.5767938681480693e+01 1.9365704250234280e+01 2.5503673352343721e+01 0 0 0
2532 2 1.3656438103788684e+01 2.3021972024662091e+01 1.6240686122760099e+01 0 0 0
895 1 1.7567647579098633e+01 3.1096832133115253e+01 2.4209139956942842e+01 0 0 -1
100 1 4.5908361316979107e+00 7.9544768660390357e+00 8.7079028226214614e+00 0 0 0
1877 2 2.1342012616332561e+01 3.3167248053583592e+01 2.2736776684705983e+01 0 -1 0
2669 2 1.9708770689016987e+01 2.5763561553849222e+01 1.2689093469057584e+01 0 0 0
2323 1 8.0055927599106926e+00 2.1417048566527807e+01 2.3061057394226343e+00 0 1 1
675 2 1.3850368130791285e+01 1.3498462989115605e+00 4.2455901413303204e-01 0 0 0
1016 2 1.8798242873414072e+01 3.0835637773714453e+01 1.3399785751153637e+01 0 0 -1
2283 2 1.0819542739298724e+01 2.2861338599747402e+01 5.5744525970872525e+00 0 -1 0
995 2 4.0223318523205638e+00 9.3457675769449224e+00 2.2001843367375788e+00 0 1 0
97 1 1.1066843363219153e+01 6.4099850021702478e+00 8.3005008148663997e+00 0 0 0
2361 2 9.6643562155109652e+00 1.4684284959939676e+01 1.2584741085704788e+01 0 0 0
2625 2 1.0218825179809453e+01 1.6053956007768825e+01 2.2087350792108595e+01 0 0 0
1513 1 6.9620921077600588e+00 1.4974597233776024e+01 2.1117414758654438e+00 0 0 0
1078 1 1.8445218146786864e+01 2.7231753394381009e+01 1.5996581676047091e+01 0 0 0
963 2 2.7197559908015620e+01 2.9345194887999813e+01 2.2943912324717605e+01 0 0 -1
1547 2 1.2190681205329142e+01 1.4656479004730006e+01 2.4383513660609381e+01 0 1 0
2353 1 2.2915781770972806e+01 2.4049368460548159e+01 2.1403447357730879e+01 0 0 0
917 2 1.4671482455605986e+01 1.4956081881520955e+01 2.5406911074417845e+01 0 1 -1
417 2 1.2527135817463909e+01 1.6057596678520419e+01 1.9555204029854757e+01 0 0 0
985 1 1.4088583572779578e+01 1.2597737849153372e+01 2.1200788593106381e+01 0 0 0
1884 2 1.2949262099294607e+01 1.9408116259636866e+01 1.0272049550929047e+01 0 0 0
76 1 9.2217758710515998e+00 2.4740048986456706e+01 2.8990846252299174e+00 0 -1 0
298 1 1.4118508853480343e+01 2.0362004250286461e+01 1.0082274042695760e+01 0 0 0
1707 2 1.3998284518487807e+01 1.6811576739022726e+01 1.6366354596689039e+01 0 0 -1
2258 2 2.9889219302272103e+01 2.4036208580260968e+01 2.6083375215893813e+01 0 0 0
612 2 7.4070834883332637e+00 4.3146374869481612e+00 1.4537574759511552e+01 0 1 0
1047 2 2.8560796050099938e+01 2.8423712414818755e+01 1.5476979206383559e+01 0 0 0
1079 2 1.7916134163497979e+01 2.8030361195154480e+01 1.5739549586409654e+01 0 0 0
883 1 1.3054719423799114e+01 4.8184388809980856e+00 1.5628236404047199e+01 0 1 -1
2442 2 1.7010552201632734e+01 1.9474978648522580e+01 9.6541155694069030e+00 0 0 1
1915 1 1.6138184839557344e+01 2.5549850421640890e+01 1.6315640905339556e+01 0 0 0
2451 2 1.3619062463630847e+01 2.3569347335872202e+01 2.2783586732009216e+01 0 0 0
2315 2 1.3695122091597806e+01 2.6442192050129478e+01 7.2029481096803893e+00 0 0 1
1712 2 8.0191955841610856e+00 1.6106905301848361e+01 1.3100298201711194e+01 0 0 0
983 2 1.6282358484085741e+01 7.8276788739405490e+00 1.3822109254132940e+01 0 1 -1
923 2 2.0679801099317178e+01 1.7850855685265490e+01 1.1577053271050403e+01 0 0 0
2572 1 1.3480481928240797e+01 1.9170400907417861e+01 1.9281780477700000e+01 0 0 0
354 2 6.9112235297239444e+00 9.2966372178518313e+00 7.4316020948868839e+00 0 0 0
156 2 9.5214260938974231e+00 4.9304389410597951e+00 1.1215310863901855e+01 0 0 0
900 2 1.3307630553909638e+01 2.6774660384447806e+01 1.7950359019083781e+01 0 0 0
1616 2 1.2878239976805032e+01 2.3790918295125426e+01 1.4373004489097209e+01 0 -1 0
1050 2 1.4323024846835786e+01 2.1420050390181789e+01 4.8124247753853773e+00 0 0 0
1081 1 2.0193764926651639e+01 1.5726443570101823e+01 2.0483203256963069e+01 0 0 -1
1594 1 1.9708673547039137e+01 2.2466072939189424e+01 1.9145027225405812e+01 0 0 0
2445 2 1.1119858814053281e+01 1.3947458601913860e+01 1.1012469192749553e+01 0 1 0
1588 1 8.1292985303130880e+00 2.3084584226242821e+01 2.2811809245356093e-01 0 -1 1
1150 1 1.8053624408518825e+01 1.9118056221612960e+01 1.7234746880105192e+01 0 0 0
1841 2 2.3714546068833265e+01 1.2945673782042110e+01 2.3410967107513684e+01 0 0 0
313 1 1.3245313095262965e+01 1.8651271595545136e+01 1.5969327899221142e+01 0 0 -1
1118 2 2.3095982434586340e+01 2.7327956655830583e+01 2.2772289917374017e+01 0 0 -1
1872 2 1.6031409339709871e+01 2.6277431198734313e+01 1.9602977148481447e+01 0 0 0
2613 2 1.7020729540899165e+01 2.6932164585976260e+01 1.1025554982202332e+01 0 0 1
1133 2 7.6808071768310633e+00 5.1064198148092776e+00 7.4472947985904208e+00 0 1 0
1762 1 1.3859735279911000e+01 7.9613640077908574e+00 1.1830070406067954e+01 0 0 0
2556 2 1.9344332372646715e+01 2.1138223088519045e+01 2.4144255651366876e+01 0 0 0
2548 1 2.0429913292628065e+01 1.0828636572272607e+01 2.5313997879165463e+01 0 1 0
1870 1 1.5358896230794411e+01 2.5738520737942736e+01 2.0137881807881232e+01 0 0 0
1662 2 9.0184354347677012e+00 1.3426749700207445e+01 7.3243326039610424e-01 0 -1 1
2768 2 2.1795247673798048e+01 6.3666784373129541e+00 2.0848658092823918e+01 0 1 -1
1736 2 1.2481581695043023e+01 1.2293556032618921e+01 1.0130523397947226e+01 0 0 0
376 1 2.2595081379404991e+01 3.0669802764239854e+01 1.7695843240865180e+01 0 -1 0
1109 2 9.3041037009455998e+00 7.9522599862911107e+00 1.3966037269985469e+01 0 0 0
372 2 1.0550380998657985e+01 1.0378417360195424e+01 2.4163279701794746e+01 0 0 0
1879 1 8.8167697195833252e+00 1.0675447006245406e+01 2.1277568923254893e+01 0 0 0
2555 2 1.9138582449736077e+01 1.9632324865912931e+01 2.3549015751019727e+01 0 0 0
374 2 4.6646729792059620e+00 9.8872477899708660e+00 5.7232263093410323e+00 0 0 0
1801 1 1.4922660903282523e+01 2.1790389566676510e+01 1.6086517958037678e+01 0 -1 0
442 1 9.1450612696832021e+00 6.3912177292841550e+00 1.6649975430321045e+00 0 0 0
2601 2 2.0417263283975082e+01 2.3322932312497482e+01 9.6349728336991785e+00 0 0 0
2600 2 2.1504823427463332e+01 2.3493571978678240e+01 1.0839531430642687e+01 0 0 0
188 2 1.1137658991126195e+01 2.3326903278061558e+01 8.7210377063514297e+00 0 0 0
2444 2 1.2500164343759923e+01 1.4614133303433229e+01 1.0606368908034854e+01 0 1 0
1617 2 1.2359957946971992e+01 2.3708461986444782e+01 1.2920671799354112e+01 0 -1 0
2642 2 8.5426657544211260e+00 3.9118172070994692e+00 5.7487631916580240e+00 0 0 1
2307 2 1.1537801891235349e+01 1.6572901035701411e+00 5.2159260585383871e+00 0 0 0
1119 2 2.2712760552459013e+01 2.6019455755906005e+01 2.2112226697957045e+01 0 0 -1
1088 2 1.9817060291662614e+01 3.2379469877677892e+01 2.5830868161172457e+01 0 0 -1
68 2 2.3165226107189035e+01 2.5651043980092322e+01 6.0550265455347505e+00 0 -1 -1
269 2 1.5984130161524881e+01 1.8458578455499879e+01 2.0163383985491251e+01 0 -1 -1
2306 2 2.0506588545211937e+01 2.9736803157170669e+01 6.2609604787146065e+00 0 -1 0
198 2 1.7514682469197897e+01 2.9850122808323949e+01 9.3711487467599230e+00 0 -1 0
1089 2 1.9597463154976914e+01 3.3641464606724327e+01 2.4998186868346991e+01 0 0 -1
2468 2 8.9479980590915140e+00 1.6164825812041016e+01 4.6683059277344814e+00 0 0 1
2570 2 2.0217889337212121e+01 2.4621056692869896e+01 7.9456733547787293e+00 0 0 0
776 2 1.1858299460301970e+01 2.5196861175296839e+01 4.4588089539643709e+00 0 0 0
323 2 7.9023003850504807e+00 1.9529876962048949e+01 7.6005938328286353e+00 0 0 0
1658 2 1.7626827822029014e+01 2.9665830329594762e+01 1.9002575590414136e+01 0 -1 0
345 2 2.7615406754090914e+00 1.1147886988262526e+01 1.2953823337184340e+00 0 0 0
2604 2 1.5162115973622505e+01 1.7037225615673719e+01 2.2796514344756240e+01 0 1 0
2397 2 4.2324625755155374e+00 3.1695969302474936e+00 1.1749931606821102e+01 0 1 0
1134 2 7.5339615738599868e+00 6.1092098308528264e+00 8.7385167497972152e+00 0 1 0
2644 1 1.3905315218336661e+01 7.7299177975649656e+00 2.0274762991733777e+01 0 0 0
3026 2 2.6274193120510279e+01 2.8416332693943897e+01 1.8194462902658589e+01 0 0 0
332 2 1.6197305949622837e+01 3.2133980035082189e+01 1.6477284689920300e+01 0 0 0
1735 1 1.2561145227726779e+01 1.1267764675781933e+01 1.0186532001447940e+01 0 0 0
2646 2 1.4542119132531496e+01 7.9671345066328421e+00 1.9609442433908978e+01 0 0 0
2413 1 1.0690137450044794e+01 1.7564699898891519e+01 1.3348169128258430e+01 0 0 1
2450 2 1.3764973763710909e+01 2.4138144912433326e+01 2.4146762892258071e+01 0 0 0
2603 2 1.6210901505825504e+01 1.8042739420482416e+01 2.2134422503313164e+01 0 1 0
2554 1 1.9296716849189831e+01 2.0607585900048246e+01 2.3305502672341436e+01 0 0 0
2629 1 8.0040180354653057e+00 7.5640074490628653e+00 9.7925109437879012e+00 0 0 0
2305 1 1.0932186091706470e+01 2.2635923940410176e+00 5.6887132542898318e+00 0 0 0
443 2 8.8822125672948946e+00 6.9537482210497954e+00 8.9930898686687266e-01 0 0 0
2592 2 3.2300202626904237e+01 3.2203803859823473e+01 2.3711246717918158e+01 0 0 0
2375 2 2.7606625079211948e+00 2.9856041172740921e+00 6.9178621040864021e+00 0 1 1
994 1 3.7226147833586802e+00 1.0218128246379129e+01 2.4714612876120725e+00 0 1 0
2641 1 8.0498161858062893e+00 3.6427777269532369e+00 6.5440966244576710e+00 0 0 1
897 2 1.7520693587148514e+01 3.1462423487582292e+01 2.3294771118798760e+01 0 0 -1
318 2 2.1397608048307177e+01 2.7974303026860287e+01 2.6306426043829099e+01 0 -1 -1
725 2 6.3494079038923186e+00 3.0518401987003179e+00 3.1797593272805620e+00 0 0 1
2456 2 1.4142970894437241e+01 1.7112982220420928e+01 3.7592897829650034e+00 0 0 1
1672 1 6.3771989580838842e+00 3.0928791365660673e+00 9.5993751638333453e+00 0 0 0
1826 2 6.1230612131827904e+00 7.7878754938025674e+00 1.5247387784788760e+01 0 0 0
1117 1 2.2441516970735947e+01 2.6644252129467411e+01 2.2767979531557536e+01 0 0 -1
1737 2 1.2954767317637920e+01 1.1195223057820391e+01 1.1069404152183971e+01 0 0 0
1909 1 1.3956999251541289e+01 1.2119493561134650e+01 1.5418272012080418e+01 0 0 0
1682 2 7.4368782819277417e+00 7.2749513164131248e+00 5.1666437710145159e+00 0 0 0
368 2 1.5914589299661174e+01 1.5283266148516574e+01 1.1706169181654325e+01 0 0 -1
197 2 1.7842639097268048e+01 2.8332959064650559e+01 9.7609387200571920e+00 0 -1 0
759 2 2.1779533483353628e+01 2.8185348740605384e+01 3.3648337771718215e+00 0 -1 0
2576 2 4.4885197227403539e+00 4.7295244818231668e+00 9.4022317281614054e+00 0 1 0
444 2 1.0000814235379256e+01 6.7695950212520479e+00 1.9175440617883468e+00 0 0 0
2513 2 1.7728527742604044e+01 2.7280318512119976e+01 1.8657262078764447e+01 0 0 0
463 1 1.8869733184370343e+01 8.9942532641617117e+00 7.0530072459556283e+00 0 1 -1
1681 1 7.1989727126472154e+00 7.8230547783750346e+00 6.0145788777279323e+00 0 0 0
2467 1 9.8302705838293409e+00 1.5893071558821111e+01 4.3025436698950594e+00 0 0 1
1596 2 1.9682394867527588e+01 2.3347095779209450e+01 1.8712900688718438e+01 0 0 0
1621 1 1.0832363766991545e+01 1.0904402355053325e+01 1.7817942999178335e+01 0 0 -1
1622 2 1.1088948424727530e+01 1.0491375419593670e+01 1.6945995673980537e+01 0 0 -1
1151 2 1.8252407247181115e+01 1.8230106496935591e+01 1.7021063491325894e+01 0 0 0
1691 2 1.0264499999472763e+01 2.3618284670094130e+01 2.4411558658462158e+00 0 -1 1
316 1 2.1969479213927187e+01 2.8239850856848985e+01 2.7094082455725566e+01 0 -1 -1
2612 2 1.8375223860159501e+01 2.6342324706509167e+01 1.0724109486274997e+01 0 0 1
2491 1 9.1790220297614944e+00 1.8602036475726635e+01 4.0732099228575942e+00 0 0 1
2557 1 2.6490060693325443e+01 2.0720321901325626e+01 1.9529123729923359e+01 0 0 0
1110 2 8.1474084358380168e+00 7.4210334958933393e+00 1.3092494450736714e+01 0 0 0
1876 1 2.2151200187364644e+01 3.2773891579096542e+01 2.2991205437393894e+01 0 -1 0
2563 1 8.9021779857209573e+00 1.1781851211498124e+01 6.0676966172033397e-01 0 1 0
2630 2 8.7582596898038290e+00 7.6205773763741327e+00 1.0354263222299211e+01 0 0 0
216 2 1.6350402779860943e+01 2.1522385910517688e+01 1.2382614883627030e+01 0 0 0
819 2 2.2154995959698581e+01 3.2296578359038229e+01 1.7864133808093516e+01 0 0 -1
373 1 5.0345874783313151e+00 9.1103107435303539e+00 5.2732204621084406e+00 0 0 0
1049 2 1.3094287921633502e+01 2.2502755345245152e+01 5.2359864145478632e+00 0 0 0
2512 1 1.7887391607792949e+01 2.6472851377623446e+01 1.9178980870091280e+01 0 0 0
214 1 1.6987403299603994e+01 2.1751162216297008e+01 1.1663990341003185e+01 0 0 0
1900 1 2.2851416481310338e+01 3.4694845002406034e+01 2.5229437994464906e+01 0 -1 0
375 2 5.8477989591138382e+00 8.7132143773296260e+00 5.6576932982606607e+00 0 0 0
1668 2 5.5693735582478459e+00 1.2356979348367098e+01 7.0330638824166425e-01 0 0 1
2439 2 7.1796348598672424e+00 1.3400205738320203e+01 4.8466284567807127e+00 0 1 0
189 2 1.2704194768285639e+01 2.3315781713671338e+01 8.7027007866626516e+00 0 0 0
844 1 1.3574946918723130e+01 1.6567723742642197e+01 2.2634547487066662e+01 0 0 -1
187 1 1.1927114992130425e+01 2.3736342812699142e+01 8.3544823674349686e+00 0 0 0
1611 2 7.2328550209203328e+00 1.8096541587939459e+01 3.3594845522483401e+00 0 -1 0
314 2 1.4085298630476167e+01 1.8861050413384952e+01 1.6472121659088991e+01 0 0 -1
2602 1 1.6013497037139366e+01 1.7461309570744607e+01 2.2946170391661841e+01 0 1 0
1548 2 1.2393068119582765e+01 1.5755422161234012e+01 2.5472195500784970e+01 0 1 0
1560 2 1.4254528391128154e+01 2.6512116555301372e+01 1.7928055374349152e+00 0 0 1
2342 2 1.2715732079527665e+01 2.0031164700744256e+01 2.6109964523573797e+01 0 1 0
271 1 1.0574652306805540e+01 1.2975123287694625e+01 2.1405797414262757e+01 0 0 0
2469 2 9.7511313995300508e+00 1.4922213848433943e+01 4.2047169364980270e+00 0 0 1
1657 1 1.6915339012363688e+01 2.9172087260518094e+01 1.8569173791760374e+01 0 -1 0
385 1 2.0072353404082833e+01 1.7486496842440282e+01 2.5797495666947032e+01 0 0 -1
154 1 8.7780714601715548e+00 4.5981663044702010e+00 1.0626613981250358e+01 0 0 0
29 2 2.0502188917196175e+01 2.1790278392549613e+01 1.5541768360276910e+01 0 0 0
1152 2 1.8411190043546068e+01 1.9298450513430254e+01 1.8142486868936384e+01 0 0 0
625 1 2.1690617693993829e+01 1.5251422598790278e+01 2.5132417421910418e+01 0 0 -1
1878 2 2.2663629596235495e+01 3.2752193560040908e+01 2.2146461985981663e+01 0 -1 0
2437 1 7.3095003165186601e+00 1.2906453195933544e+01 3.9872980839457193e+00 0 1 0
1615 1 1.3190184814810738e+01 2.3544802378143860e+01 1.3472953609737338e+01 0 -1 0
920 2 2.2941543597302470e+01 1.8267735424549059e+01 2.3214462725942571e+01 0 0 -1
284 2 2.4907338811147365e+01 3.1764942851399240e+01 1.9852125491312272e+01 0 0 -1
871 1 1.1025641320913042e+01 1.3323572628225406e+01 1.8765869855789155e+01 0 0 0
820 1 8.5648707851302568e+00 1.9051784815632029e+01 6.1454808138291817e-01 0 0 0
2670 2 1.9679368828645536e+01 2.4615300481896966e+01 1.1568313664986006e+01 0 0 0
117 2 2.3718890886813092e+01 2.2222887073227028e+01 2.5884093589033874e+01 0 0 -1
2433 2 1.5157842299441633e+01 2.9128297684014250e+01 1.9159366924189509e+01 0 0 0
2492 2 9.9020905393709473e+00 1.9219004288185499e+01 3.8996565479047747e+00 0 0 1
1085 2 1.1889502960215989e+01 1.5636537649300710e+01 1.9681267776909745e+00 0 0 0
848 2 1.4991392527059773e+01 1.8689562177982207e+01 1.1501779666292203e+01 0 0 -1
273 2 9.9588053086950445e+00 1.2307151200169923e+01 2.1092867932052719e+01 0 0 0
1084 1 1.1661226354698066e+01 1.5456244399431140e+01 1.0124635169954435e+00 0 0 0
1910 2 1.3668222252149286e+01 1.2854296322937330e+01 1.4810606746246922e+01 0 0 0
1087 1 1.9129191055517950e+01 3.2902312294160822e+01 2.5400857708047781e+01 0 0 -1
360 2 1.6601706489886730e+01 2.4927666368226664e+01 2.3365506937525513e+01 0 0 0
196 1 1.8182167682575955e+01 2.9160740510029438e+01 9.4492340960871726e+00 0 -1 0
777 2 1.0491695142225582e+01 2.5493071303883060e+01 3.8432296510793793e+00 0 0 0
308 2 2.5327240474281922e+01 3.2328209569037107e+01 2.3707089002875826e+01 0 0 -1
309 2 2.6434420074047384e+01 3.1658342844822855e+01 2.2738374994878082e+01 0 0 -1
3003 2 1.0615622324643812e+01 6.0365206125782720e+00 4.8511355455060263e+00 0 1 0
1809 2 1.6974469116319607e+01 1.4640517635001871e+01 9.5622298923047833e+00 0 0 0
880 1 1.4620039220445008e+01 2.0496715935129611e+01 2.1878719725482451e+01 0 0 0
315 2 1.2669799290988339e+01 1.9432868109783460e+01 1.6070278103993385e+01 0 0 -1
283 1 2.5232323966637750e+01 3.1124633742556000e+01 1.9218142198951643e+01 0 0 -1
386 2 1.9692479288537491e+01 1.7540622209189035e+01 2.4910480478982947e+01 0 0 -1
2568 2 2.7944611124540707e+01 3.0536061646248260e+01 2.1114106396107985e+01 0 0 0
726 2 5.2880112192410955e+00 3.9964924225529579e+00 3.6491533803095333e+00 0 0 1
1545 2 7.9624618681967405e+00 9.5613242754053793e+00 1.4381857347918141e+01 0 0 0