LAMMPS data file via write_data, version 8 Apr 2021, timestep = 21715000

576 atoms
2 atom types

0.3023190417944984 17.617681958199597 xlo xhi
0.09731804179367666 17.412680958199296 ylo yhi
0.4473190417960754 17.762681958199874 zlo zhi

Masses

1 16
2 2

Atoms # atomic

195 2 2.0559807489285875 2.5017052090231156 3.1053100054826834 -2 0 2
193 1 2.1713020499868683 2.968212943593215 2.2508927935094314 -2 0 2
194 2 3.0406525177537636 3.0007453019274366 1.827590995313429 -2 0 2
379 1 4.388849968134763 3.659818006404794 1.0420985687866504 -1 2 1
293 2 6.715972869233303 3.1976197783867284 2.9769662715979845 1 -1 -3
149 2 5.546170398477455 0.9194821980963173 2.965225457692363 1 2 0
516 2 7.339061003890514 0.8404440025969989 3.77523273964379 1 -1 0
148 1 5.874898273522608 1.7238360387943095 3.442292718237172 1 2 0
381 2 4.935564011922108 4.329971326294804 1.4192158606627785 -1 2 1
292 1 7.110730654228434 4.096407423568855 2.849939652375683 1 -1 -3
294 2 8.127191764714603 3.8726190148005926 3.0013285907928475 1 -1 -3
150 2 5.348675479920478 1.82192606331329 4.2868778022380365 1 2 0
476 2 8.560715500452295 0.2938263273008452 1.6508777793908993 -1 0 0
514 1 8.222990918442811 0.4704516294902043 3.4675803755767762 1 -1 0
17 2 2.744871947554159 8.497692441862123 2.3781641409674044 0 0 1
320 2 2.207794007479773 4.624109107569772 2.8186872652284767 2 0 1
321 2 2.646079490890848 6.1383937291940605 2.9956315844654826 2 0 1
319 1 2.1451081856517216 5.385345913874288 3.4093403093175403 2 0 1
18 2 3.544342689420255 8.22602009179826 3.7382489489607966 0 0 1
16 1 3.336306332380124 7.903060072771653 2.860309667157578 0 0 1
428 2 4.249715410988882 7.24886030665366 1.3775096460067209 1 0 1
431 2 5.868248055074013 8.319281677950961 3.1572316338706443 5 1 0
427 1 4.663234401040079 6.898348010029816 0.5090303740440751 1 0 1
306 2 4.742229766217383 6.095149540676134 4.230455210372814 -1 2 1
304 1 5.585481016758482 6.283071301926838 3.819566650956948 -1 2 1
305 2 5.972811733120698 5.389596851986518 3.651662006142015 -1 2 1
539 2 7.041532602624191 4.993861855767425 1.5162756510317144 1 1 3
264 2 7.77204407126841 7.319335273516984 0.9431237313580622 1 0 1
429 2 5.444288648551396 6.4061943257638765 0.7712549611290959 1 0 1
262 1 8.267619116854323 7.915199364142342 1.526814282559228 1 0 1
538 1 6.917129072603166 5.663128500447322 0.7708995393249692 1 1 3
250 1 2.075026198849462 2.1144020770026173 4.888358914527802 2 2 1
252 2 1.7642984229029106 1.2019212505006462 4.952653351715883 2 2 1
569 2 0.7947247160388311 3.3120956718876355 5.433561933913634 -1 2 -2
251 2 2.9912126712297624 2.1396708789713808 5.287918967718254 2 2 1
496 1 4.651935279043984 2.210709042557212 5.60825523363995 -3 -1 0
497 2 5.22038813146072 3.016309869621467 5.881507497963269 -3 -1 0
498 2 4.765835363677097 1.4675482774925037 6.295513836111562 -3 -1 0
563 2 8.240228973511998 2.201969996762348 8.519939167334151 0 1 -1
10 1 8.363376906881804 1.5985817821925836 6.845518473409807 -1 1 0
463 1 5.984862625683269 4.412821497808403 6.344838552409039 3 2 0
494 2 6.52046057539149 3.0553088033095097 8.914836093228798 -2 0 2
493 1 5.642788056502096 3.467052934206362 8.807740729505243 -2 0 2
465 2 5.903457352352888 4.390629870172196 7.3249565200447275 3 2 0
12 2 8.554711401761828 2.445797266282468 6.384643559332221 -1 1 0
495 2 4.945805272543989 2.8265151325219846 8.864013586373211 -2 0 2
274 1 5.841864826732986 0.14887087274664984 6.759131468363478 -2 1 1
275 2 6.7477984225021235 0.5135546833019385 6.8312165878372415 -2 1 1
119 2 3.003128982689988 5.23187773210165 4.94826885469944 -2 1 -1
181 1 1.747146690129978 8.57421827740765 6.672448185935851 1 2 -1
118 1 3.495167734407746 5.56940873992034 5.748173403721247 -2 1 -1
33 2 0.5506438900724091 5.532525900812093 6.372410362273807 1 2 0
32 2 2.0190507092017094 5.574861738961321 6.413472991688405 1 2 0
31 1 1.187238684530335 6.061077269076894 6.7916741988370735 1 2 0
183 2 1.5052907344629838 7.615244523304851 6.672310474003711 1 2 -1
396 2 1.4717430058620034 5.699042986668712 8.444356302046181 -1 2 1
120 2 4.219099150279625 4.99810359917161 6.010289272026963 -2 1 -1
560 2 6.334390068035003 7.502158397863876 5.837573584396808 -1 2 3
464 2 6.784662563367927 4.9485998486267695 6.152350857060545 3 2 0
115 1 7.954132186562792 6.346745426671195 5.7646689335179335 -1 -2 0
114 2 6.751379919742755 7.451558855816677 8.006533597332398 1 1 2
559 1 6.021972433364865 8.2577411398225 6.365492121449684 -1 2 3
116 2 8.310667478271025 6.8113089522976455 4.986181767372989 -1 -2 0
112 1 6.761380616416323 6.659819972562228 8.602356062703231 1 1 2
488 2 8.275980509570799 5.959892010370436 8.982117392390073 -1 0 -1
117 2 8.511827412220056 5.544435369091039 6.00010169410267 -1 -2 0
83 2 8.680609538515897 7.476718143604471 6.858643714004649 0 -1 -2
102 2 3.3872119795216356 1.0183507538687147 9.130676909577891 1 -1 2
100 1 3.92060519954354 1.6053255431409819 9.677601253353942 1 -1 2
198 2 2.892563873446817 2.828081615701106 10.829616156636591 1 1 1
196 1 2.1986029106943943 3.5331111722614663 10.987407948809539 1 1 1
197 2 2.6060375615575753 4.084270008124928 11.654732362667902 1 1 1
101 2 4.440147966867907 0.9522784451383752 10.186598473953007 1 -1 2
478 1 3.9468660600924577 2.113541007828669 13.338092917244824 2 -1 0
480 2 3.782669654778502 3.006687869108543 13.023308274609386 2 -1 0
390 2 0.4146074977823894 0.5685440877128711 12.070851169711696 0 1 0
564 2 8.221619162136204 3.6270575166689683 9.295697831879947 0 1 -1
562 1 8.047897327354782 2.660076179703882 9.334322694549284 0 1 -1
259 1 6.697420473749999 1.9371717473819656 12.393288186455939 -1 1 1
260 2 7.045322919182049 2.76918548525687 11.919746794585453 -1 1 1
261 2 5.7523238401129895 1.9383223988188312 12.6249005835791 -1 1 1
437 2 6.583669348818983 0.4568739762658701 11.283619535184103 1 1 0
414 2 8.137183281398483 1.4137552476243447 13.300705286634924 1 -1 1
519 2 4.314746238526356 8.110118110675947 12.757741421000915 1 0 -2
394 1 1.680711860953504 5.706201736770843 9.401897392022091 -1 2 1
395 2 1.790773051192192 4.811464181031547 9.834014203186749 -1 2 1
296 2 3.245184442559293 6.419733289233193 9.845362592680491 -1 0 -1
29 2 0.9032378154433988 6.619666746178507 10.530841862496903 1 -1 0
297 2 3.8446171098028477 7.651830694080517 9.214059985991891 -1 0 -1
295 1 4.125453630112735 6.899631023273438 9.807215487348643 -1 0 -1
50 2 3.5695172379988995 5.90284756413788 12.969561521108865 1 0 1
49 1 3.1043341389235435 5.065828230120617 13.273700923211699 1 0 1
517 1 4.609944375762184 7.267262261452597 12.37273706513322 1 0 -2
518 2 4.477836250261027 7.3446757933329465 11.401853697175028 1 0 -2
28 1 0.4266355213266151 7.175685258496727 11.26749006103869 1 -1 0
312 2 1.1885327628603366 8.612333381060042 11.17330031764851 -1 1 -1
113 2 6.024388751096631 6.817731747691014 9.193505939770121 1 1 2
159 2 8.357769855992201 5.927906571337178 12.44462060811973 0 0 -2
315 2 5.0950342443017895 5.078136326914067 11.621364520792813 2 -1 0
314 2 5.639817689077507 4.455839197638856 10.279809657994273 2 -1 0
313 1 5.84853360102946 4.763798714078912 11.202927724325367 2 -1 0
392 2 8.194206253253268 8.21332640965815 11.487029272886284 -3 -1 0
157 1 7.778105806757052 6.550211687306236 12.004249860694793 0 0 -2
158 2 7.043290219882511 6.065450696124442 11.585677725475612 0 0 -2
78 2 1.4945404353981226 3.1330452085587597 17.626142541923063 1 0 0
461 2 2.2438282369994638 1.5792207621588275 13.639600305220403 -1 0 2
460 1 1.370289371788867 1.158229481530045 13.51402176712011 -1 0 2
462 2 1.554307132101831 0.3716251371969569 14.083664130001848 -1 0 2
479 2 4.483268769654685 2.4037232461254505 14.092602627434447 2 -1 0
77 2 1.6906052138804082 2.2237482917603537 16.346110204758553 1 0 0
76 1 1.6181886864381694 3.1646127279607574 16.646986914655336 1 0 0
61 1 2.1729807822897684 0.3935963622576795 16.451934062906954 1 1 0
380 2 4.742904630912114 3.399708740714411 17.428121959595998 -1 2 0
413 2 8.871761604878042 1.9281971160357096 14.510294395573052 1 -1 1
453 2 7.460756739502204 0.4288837682564938 16.928343656598734 0 0 -1
451 1 6.807548173972789 0.6853934512435973 16.19923144340552 0 0 -1
452 2 7.3589725850491865 0.6720683733975158 15.430212459138557 0 0 -1
189 2 5.892739053881072 2.0936749235882592 15.923877834981395 0 1 -1
187 1 5.240257396790382 2.845033131360589 15.730673455762995 0 1 -1
188 2 5.762419395521217 3.6671768961188995 15.424007355959391 0 1 -1
412 1 8.623710157016209 1.1421693103523092 14.072189810209823 1 -1 1
51 2 3.1408609032548527 5.121359569828843 14.244103209746742 1 0 1
248 2 1.7605803117032788 8.097369698993433 15.77257968651411 3 0 -1
242 2 0.46877332126205407 5.632779772747681 13.997229162700698 1 0 -1
249 2 2.0217973572418857 6.682352494822186 16.368207221317235 3 0 -1
446 2 3.888537267439997 5.890532988275941 16.707792176320847 1 0 0
26 2 1.726759226219178 8.741522458877407 17.47109589658729 1 -3 -4
247 1 1.4079048202981865 7.387946167109635 16.375308625431018 3 0 -1
447 2 2.8927927561275957 4.610148471412101 16.47738446774575 1 0 0
445 1 3.2349611447026523 5.4254424828764805 16.096234921155652 1 0 0
467 2 7.2194447302346685 7.804623776269192 14.530619884269509 0 -3 -1
309 2 6.671535771576472 5.84239445286572 15.23782187717586 -2 0 3
334 1 8.614682667307019 8.605415771917395 14.569741144844274 1 2 1
81 2 5.439599316736409 8.595206354024576 15.538689638980482 0 0 1
307 1 6.777515171892057 4.858687010329239 15.302443088142121 -2 0 3
80 2 4.886652509665131 8.390974696790213 16.98366626457992 0 0 1
540 2 7.060188352828737 5.138590017081639 17.294027745862376 1 1 2
468 2 5.918014388587647 7.2340849360545505 13.799273909125722 0 -3 -1
466 1 6.3163162493130605 7.419364881782643 14.68592256411413 0 -3 -1
308 2 7.656220534686875 4.6209554931670125 15.034851456254822 -2 0 3
439 1 3.530477706375582 11.243233344279998 1.1947670358539382 -3 -1 1
386 2 3.1665026301810495 11.435360007810324 2.8547366455795524 0 -1 1
385 1 3.145809161521718 11.614734233304597 3.846844335650409 0 -1 1
387 2 3.5011530452441524 10.81913461623614 4.356921507520226 0 -1 1
222 2 1.5511524696826458 11.351064132753454 4.248784499799261 -1 1 2
440 2 3.3684353840773014 12.14769867980643 0.8435311945328888 -3 -1 1
25 1 1.8323135773603445 9.171211817650866 1.0059252973457546 1 -3 -3
27 2 2.4058454106336113 9.945068000928618 0.8470724235855547 1 -3 -3
473 2 0.5471556193748757 9.198262549130673 2.041556361423371 1 -1 0
220 1 0.5936526052854556 11.187984527873088 4.2537178569053955 -1 1 2
441 2 4.4028379682533565 11.074184365387021 0.7748457339979417 -3 -1 1
513 2 7.45383226592903 12.042649404770252 1.88338411504013 1 -1 1
234 2 6.58692650558338 9.88448495365968 4.19648051928895 1 -2 0
184 1 8.618204308300534 11.287104455527926 0.9365818673710147 0 -1 0
512 2 6.1446139332750285 11.770745592331766 2.6092407514558853 1 -1 1
430 1 6.170654563188006 9.111840861438356 2.7163318997892283 5 1 0
511 1 6.7497450126397585 12.519073608159346 2.39796468003103 1 -1 1
432 2 6.988642442826003 8.809926025719768 2.284195483880273 5 1 0
233 2 7.938413917004446 10.4594069242448 4.753875470198259 1 -2 0
89 2 1.5539085178609704 14.422222677935974 1.0442513561227924 0 1 0
88 1 0.6677774512230682 14.740705417742907 1.264783837583979 0 1 0
75 2 1.743626735161944 16.03063305870989 1.6146943474525575 -1 1 2
434 2 4.245541188070822 16.666648464091736 2.009524010580958 2 -1 -1
350 2 3.618384286401291 13.096420888593524 4.512545581818912 0 -1 0
20 2 1.5404813443183163 17.15595622514789 3.2354322147483794 4 -1 1
19 1 1.0883054528714948 17.099439526621683 4.107076676380155 4 -1 1
21 2 1.3180195100757661 16.296923478747843 4.600005264210426 4 -1 1
73 1 2.159303081365035 16.943027430372425 1.5938077495547085 -1 1 2
74 2 2.217777130438191 17.245954790134547 0.6490488827023373 -1 1 2
435 2 5.319990941318948 16.194458803242004 3.0903955400291867 2 -1 -1
433 1 5.1702013840379415 16.425281890824834 2.140515935675124 2 -1 -1
105 2 5.634302096110517 15.298202482795467 0.8770728973314527 0 -1 2
71 2 7.517415454064386 13.622846225060378 3.4482479066442218 2 -1 1
104 2 5.9484235197407385 13.720864605939406 0.8227032132001494 0 -1 2
70 1 7.841299723385847 14.03851494668035 4.269317331684255 2 -1 1
72 2 7.099264928878767 14.53833232499231 4.554577378873536 2 -1 1
475 1 8.737575478919481 17.379396927306605 0.7234651127809875 -1 -1 0
477 2 8.780860647990766 16.452020255288964 0.6037361833947464 -1 -1 0
367 1 5.647575871866015 15.773324007837253 4.612909212208358 -2 -2 3
515 2 8.565929655661874 17.191996299039904 4.1778390990799545 1 -2 0
132 2 2.7276867525793542 9.268142728445431 5.753523454420964 2 -2 -1
287 2 2.4967999839070196 8.942821948315038 8.083681844626062 -1 0 -3
182 2 0.9631675858129818 9.140649818664649 6.9303276114352155 1 2 -1
286 1 3.1855631653383094 9.31034405130385 8.74145218698046 -1 0 -3
180 2 4.3190360604246925 10.547634657038548 8.523622226018269 1 -1 -1
131 2 4.378055271745168 9.325926696665 5.644403433511255 2 -2 -1
130 1 3.527442588925988 9.511893202126574 5.1815523119778275 2 -2 -1
457 1 0.3809263215163106 12.778161098326168 8.530426735839628 0 0 -1
366 2 0.3104070104795491 11.533378820310508 7.408585581979749 4 0 0
503 2 7.8381788709995215 9.484320532392434 8.131080401320439 1 -2 0
138 2 8.691056412726784 12.915190181660842 8.491515946110672 0 1 1
232 1 6.968488565402101 10.44910570807186 4.9310306627807465 1 -2 0
555 2 5.491727874019812 12.11027532244506 7.016321776854173 -2 1 0
553 1 5.9696645627200144 12.74178281414624 6.425305031616536 -2 1 0
554 2 6.447747894022771 12.16018207056272 5.7878218286733 -2 1 0
178 1 5.109629431663813 11.118717031342255 8.423189209772197 1 -1 -1
179 2 5.896744727864594 10.62180571053312 8.6920500642881 1 -1 -1
502 1 7.553873337541361 9.902315302552008 8.988541344635866 1 -2 0
561 2 6.383005680193066 9.031745620969923 5.915198013082232 -1 2 3
85 1 2.506841191214793 17.026370498099137 8.11137121617225 0 0 3
349 1 3.904321274191029 13.793153957372112 5.164853826315654 0 -1 0
458 2 1.2333365064906059 13.280309355620917 8.503788781090327 0 0 -1
340 1 1.7368843397913118 15.402019870021288 6.013039410424715 -2 0 -1
342 2 0.962889816211047 14.862114380444382 6.135576353436032 -2 0 -1
341 2 2.5054493697094835 14.786541941253153 5.69324123968837 -2 0 -1
87 2 2.5113339909503907 16.373597536588626 7.378574137270393 0 0 3
444 2 2.6205349503278743 15.22169910601255 8.861332817928227 -1 -4 1
86 2 1.5692934831745977 17.2104315026484 8.225330618270453 0 0 3
351 2 4.685682611223334 13.38156732062482 5.681100784496215 0 -1 0
369 2 4.97669136985531 15.132152559685517 4.828061257777723 -2 -2 3
276 2 5.786874686461103 16.76136643851393 7.447292927844693 -2 0 1
382 1 7.600795557393875 14.139823777492998 7.856349763962042 0 -2 0
384 2 7.059869741405861 13.731758471197208 7.1560884176525645 0 -2 0
368 2 5.639167114380631 16.507159657062594 5.261409608279666 -2 -2 3
383 2 6.965147780110631 14.78589595984125 8.227356123603771 0 -2 0
346 1 5.890005311105632 15.696644199551189 8.828113959782195 0 0 0
311 2 0.9466177121174257 10.092843685005827 10.857122596451116 -1 1 -1
288 2 2.6228798725019664 9.50734111693101 9.53558876509148 -1 0 -3
310 1 1.6589016862037065 9.422391282732839 11.015432852374538 -1 1 -1
337 1 3.627668459918182 9.589098989903208 12.843016837071788 -1 0 -1
398 2 4.27806074849385 11.133311035625315 12.54110315266355 0 -1 -1
339 2 2.9002353369911305 9.433677579701733 12.13875876512443 -1 0 -1
397 1 4.522788408126462 12.104064680056382 12.361609503597837 0 -1 -1
504 2 8.123949303440128 10.707032226903852 9.118538986641216 1 -2 0
393 2 8.158905182807406 9.075538707622654 10.225149013795045 -3 -1 0
35 2 6.555178030932011 11.873546780472475 11.385676592585888 1 0 -1
170 2 4.887563800321194 12.447217122200174 9.41574464253508 0 1 2
34 1 7.499370740628188 11.794667443830237 11.333687172086472 1 0 -1
36 2 7.807211982941352 10.8808631867221 11.232185699923752 1 0 -1
399 2 5.047652608235787 12.40429149893973 13.11713227298286 0 -1 -1
391 1 8.485114754034898 9.079721275420344 11.156204348189553 -3 -1 0
124 1 0.7481682922514223 14.892227241418597 10.997665488655565 -3 1 1
442 1 2.408535131978665 14.372066438175926 9.166004478983833 -1 -4 1
126 2 1.2803662874141941 14.710558152068947 10.14359055931087 -3 1 1
443 2 3.2822938590861015 13.884865808732862 9.291465585889762 -1 -4 1
41 2 1.9303094168985542 14.178879054174889 12.211163933096527 1 0 0
42 2 3.0213740380385086 13.14575962326288 12.62511888327099 1 0 0
40 1 2.792052171085974 14.05338360369508 12.658049767679934 1 0 0
6 2 4.2138423553530435 15.156873533107031 12.860557514447423 -1 1 -1
389 2 0.3521164118515108 16.588859718883025 11.1669555627516 0 0 0
171 2 4.64585278959092 13.130739177053838 10.754053034167944 0 1 2
169 1 4.639540675225907 13.303476479408365 9.786372347283946 0 1 2
211 1 8.489701452611918 14.518927124756512 11.684975643946583 -3 1 -1
212 2 8.069321363153152 13.70468901928793 11.389953522031727 -3 1 -1
438 2 5.589104691220127 16.560568412358798 11.583791444626684 1 0 0
347 2 5.393643906657928 14.89669501018545 9.22123718426367 0 0 0
348 2 6.013630769334129 16.300313361020113 9.588604800608472 0 0 0
436 1 5.879768049364304 17.181428390955745 10.884079372318244 1 0 0
4 1 4.957141014250834 15.755566818330838 13.102665735248234 -1 1 -1
354 2 8.878856496159681 15.476372389494657 13.109550152932217 -1 -2 2
338 2 3.155357552207652 9.656536761487011 13.72917504058998 -1 0 -1
298 1 0.8486168496694172 11.414129399577659 15.561395813896892 1 2 -3
576 2 3.4960025303101268 9.39927484453053 15.646656904619828 2 3 4
574 1 2.6520472565223874 9.581365711989834 15.100941775447959 2 3 4
575 2 2.086498176145786 10.429241074233914 15.420783950653206 2 3 4
299 2 1.0692802542030617 12.408920430668932 15.520600344821784 1 2 -3
300 2 0.31169541729216077 11.227679507909674 14.79230575866763 1 2 -3
550 1 8.656626024468071 11.551735068335518 14.205309318995699 1 0 0
79 1 4.87330331814135 9.044820441664774 16.230495051307134 0 0 1
551 2 7.865411242131228 11.949753689130036 13.858595318049096 1 0 0
122 2 7.0670333690416784 10.957275284758342 17.26925923887724 0 3 0
415 1 5.947702656934518 12.595200407117975 14.56284314722459 1 0 -1
123 2 5.859627615729387 10.330990345646601 16.668821111543885 0 3 0
121 1 6.270209425091783 11.210006836311209 16.816735061091155 0 3 0
417 2 5.840123552026358 11.98965590790599 15.30836340924226 1 0 -1
335 2 8.470484247031 9.550618249223879 14.36989749089876 1 2 1
450 2 3.6686267013766876 14.48695240798315 17.28604240497054 0 -3 -2
448 1 2.9470370661135803 13.907402896296443 17.469000521049328 0 -3 -2
63 2 2.973096226232726 17.249589525403938 16.106997230112725 1 0 0
325 1 4.3170204087926685 16.592609435263746 15.656768837986485 0 -1 -1
326 2 4.440188817875992 16.33026335742325 14.715905423566248 0 -1 -1
546 2 0.7572206674953568 14.647227118665402 15.258658306208053 1 0 0
449 2 2.574800371997433 13.749692428166888 16.56114889584978 0 -3 -2
545 2 1.8764141531495202 14.149668466099586 14.343566083127705 1 0 0
544 1 1.5085853699329728 14.082041708341043 15.25022374158896 1 0 0
62 2 1.4073412649680521 17.11220255354142 16.34050310925769 1 0 0
416 2 6.252544409021375 13.505854130411613 14.830745001637323 1 0 -1
5 2 5.631528784920363 15.216304784228216 13.515991275300323 -1 1 -1
65 2 8.01060071994873 14.840159221340777 17.62888152941493 -1 1 -3
103 1 6.086556670311541 14.588644468626388 17.63980772477013 0 -1 1
327 2 5.086302044235318 17.161659851170835 15.86943207047942 0 -1 -1
372 2 6.388825846838585 15.074549710110935 15.681089248409137 -2 -1 -2
371 2 7.762714965132889 15.154502852154359 14.875201718259994 -2 -1 -2
370 1 6.771960833522658 15.029537037351544 14.819864953444766 -2 -1 -2
64 1 8.954927413347674 14.93745378383355 17.634657920191923 -1 1 -3
142 1 11.493450197941588 3.9104644695120307 1.9795424827435477 -3 0 3
215 2 12.2934242792468 2.2096669008934584 2.6026507687236022 -1 0 -2
214 1 12.415744688069829 1.2661438872164337 2.519472503181766 -1 0 -2
176 2 10.200785645876204 3.4444178535206023 2.873691656264508 0 1 -1
144 2 11.172757511478345 4.201025582599116 1.0671810158378419 -3 0 3
175 1 9.500382050285138 3.1583780001368873 3.5421018508586504 0 1 -1
177 2 9.260245865722752 2.2305687067747013 3.2999738442900806 0 1 -1
210 2 11.993094000562758 0.47989540222485805 0.4823529410728753 1 -1 0
573 2 11.827356728582474 0.30456196137023345 3.736361042657533 0 1 3
343 1 15.471310931336006 3.6387244182724667 3.5364226147895526 2 2 0
167 2 16.517142312887913 2.3275179680500586 2.1574918182443095 0 1 -1
166 1 16.999141913420857 1.7655939932336193 1.4667083002009635 0 1 -1
345 2 16.27533445429469 3.8983941189157805 4.013128756865471 2 2 0
216 2 13.374344560677066 1.2249551875491969 2.2609811722047195 -1 0 -2
527 2 14.38312309148781 4.2596834888864405 1.008202398494846 -2 -1 0
168 2 17.558221617132755 1.1660594658281096 1.9825030392837046 0 1 -1
284 2 15.565498826607245 0.4168817313117996 2.0455918388743672 -1 1 4
143 2 12.294522613778023 4.460983056603913 1.960114832242778 -3 0 3
566 2 12.132904588948037 7.110511525533362 3.7068594284439174 -1 2 -2
565 1 11.742121282483415 6.3203559671553275 4.117849699099853 -1 2 -2
567 2 11.640023612615417 5.613033207575336 3.4556245041740024 -1 2 -2
141 2 10.035703405676594 7.957249918947018 4.268994180634681 3 -2 -1
139 1 9.09020266494235 8.027065322450243 4.141048587888131 3 -2 -1
202 1 12.53192830325492 8.679614787904159 3.4913678194751965 1 1 -1
263 2 9.111531017646012 8.168268925062934 0.942540117077447 1 0 1
140 2 9.051487300278938 7.854304458082139 3.169174593962986 3 -2 -1
344 2 15.119601496938259 4.440173930450072 3.112644363021311 2 2 0
526 1 14.097004968266686 4.895784077340942 1.6738473109533132 -2 -1 0
528 2 14.354979115042818 5.797295843553224 1.3187077197352854 -2 -1 0
492 2 16.88325798402502 7.386031535970785 3.4772528519720365 0 -1 1
490 1 16.628730268095577 6.519002628859541 3.7770559941057424 0 -1 1
401 2 14.61383129938362 7.987620236672124 1.2055750846273476 -2 -1 -1
491 2 17.272519706523614 5.956581814247781 3.406210743752752 0 -1 1
400 1 14.416423878111445 7.214429454603885 0.5923382026391049 -2 -1 -1
230 2 9.239454727626986 3.77359969544577 5.050543171383562 -5 -1 1
231 2 10.008905204580932 4.068805521001921 6.420727977444878 -5 -1 1
229 1 9.098343027604846 4.064363935179446 5.984420759910884 -5 -1 1
255 2 12.616679463022715 1.1388529235441878 8.230255635130947 -1 -1 -2
253 1 12.744247405152084 0.6404593729792563 7.3807391998933305 -1 -1 -2
258 2 12.239519797605412 3.0823259918871435 9.050998706175152 4 -1 1
11 2 9.169844871033385 1.0777409286589925 6.75220991859315 -1 1 0
254 2 13.118954415748235 1.2549073368711965 6.758876105929641 -1 -1 -2
409 1 11.295613036943774 4.190642875799944 7.873601805985223 1 -2 2
224 2 11.369985273571027 0.1820648524434635 6.745567399687678 1 1 -4
570 2 16.894343207401043 3.7177728580840177 6.202205942067473 -2 2 -2
521 2 14.097639800252049 2.9166047320267796 5.021619762955869 0 1 1
156 2 16.781350342526515 1.491772021578391 8.201596214615295 -1 2 -1
522 2 14.940133495060072 1.7567000863465638 5.303470669242934 0 1 1
318 2 15.175201809893906 3.061201775516361 7.376212604745487 -2 -1 1
520 1 14.24967753750327 2.260595258805965 5.715184678877689 0 1 1
317 2 16.051604179991685 3.5297912113505006 8.671584818195814 -2 -1 1
316 1 16.04061528420022 3.0356508781337554 7.799255567178419 -2 -1 1
568 1 17.441826069568833 3.990371333861633 5.477274986483753 -2 2 -2
154 1 17.00987319988084 0.5691963927379264 8.501465963819028 -1 2 -1
557 2 12.631389944207358 6.118231179855682 5.520051235533358 0 -1 -2
558 2 12.423842366172487 7.030963856884315 6.743893073199829 0 -1 -2
556 1 12.755069915807132 6.135205612524585 6.490315026261345 0 -1 -2
411 2 11.863823783017516 4.907930458500472 7.499535472786733 1 -2 2
410 2 10.566606255729596 4.634654186460617 8.331423148743541 1 -2 2
333 2 10.41141848208241 7.74274800773864 8.360190816703089 0 -3 1
331 1 11.271513646371488 7.816843301921279 8.884040374630667 0 -3 1
82 1 9.080736421791137 8.254972919316401 7.389306563699703 0 -1 -2
84 2 9.742698258672274 8.53567943607067 6.713298975021211 0 -1 -2
524 2 15.257942020677215 8.574491218724328 6.969277068502073 -1 0 1
426 2 15.884294481109759 6.915268204148996 5.55160745808583 0 1 0
206 2 16.205581507814077 6.38716256142392 8.165679728250673 -1 1 0
425 2 14.668804731465467 6.429983038496297 6.384986122344396 0 1 0
424 1 15.539801654491347 6.8257965011275825 6.4301391586242245 0 1 0
205 1 15.927587000722808 6.302103206431798 9.048821612619648 -1 1 0
226 1 11.728777372050924 0.18412315071648094 12.19344803090599 -2 0 -3
228 2 12.682449993354261 0.3835760162545767 12.100694001310544 -2 0 -3
256 1 12.469360292803437 2.3219360613400926 9.612527895314917 4 -1 1
422 2 9.389082381715545 2.4067198882385683 10.404735718202879 -1 1 0
471 2 9.963240525434625 3.954162539197164 12.10233243992264 0 0 0
423 2 10.968150335403761 2.4223272850391386 10.400468315400511 -1 1 0
421 1 10.155279705839792 2.4155895147237234 10.984342191196765 -1 1 0
227 2 11.171461804159657 0.982625985974818 11.927997344548514 -2 0 -3
257 2 13.144943760595277 2.6752374855074637 10.275330853959908 4 -1 1
388 1 17.354988805363007 0.1814964248112937 11.221318522242465 -1 1 0
271 1 14.755729179790162 0.4065544868789143 12.508014100579393 -1 0 0
363 2 14.261282208615677 3.7252370541853135 12.002137001759875 -1 2 0
361 1 14.204783863678925 3.0161904100218595 11.377552171988446 -1 2 0
362 2 14.480736024630202 2.229096114305783 11.87180309162014 -1 2 0
482 2 15.91806452387252 3.6317255492570304 10.802965715266689 3 1 0
481 1 16.722393061898742 3.9685977236970724 10.37969841260712 3 1 0
272 2 15.529547707766854 0.1181047345817009 11.934993493022668 -1 0 0
273 2 15.256562576842938 0.7921742459166531 13.274460614109465 -1 0 0
155 2 17.155061864249863 0.5851048683162159 9.492886117264582 -1 2 -1
483 2 17.525331750007158 3.70737609260055 10.783183026964624 3 1 0
469 1 9.881313012309763 4.759062150020578 12.65639343884444 0 0 0
153 2 12.745861581887663 7.037126103488857 9.392338963929463 -3 0 1
470 2 10.700362960732624 5.286632249026072 12.489607910910635 0 0 0
13 1 12.154683454852853 6.283347841680609 12.48564231596234 -3 -1 -1
14 2 12.4214864802832 6.656059351062344 11.66008507682284 -3 -1 -1
15 2 12.994950096036309 5.9543862222156365 12.844026790242031 -3 -1 -1
332 2 11.223883657710315 8.036299024197657 9.854642430491525 0 -3 1
489 2 9.32101629147072 5.603394059344862 10.010923134383722 -1 0 -1
487 1 9.0012233482544 5.326351389724654 9.156310932123132 -1 0 -1
405 2 14.53741079591316 8.132247232821074 10.99943727143237 0 -1 -4
151 1 13.50246816509231 6.858216570231881 10.015771592707647 -3 0 1
207 2 16.476301351736197 5.60018917912471 9.526131019387144 -1 1 0
152 2 14.292757734654508 6.56067065219085 9.558665450176157 -3 0 1
30 2 16.923870461354458 7.318510489207151 10.813901448151906 0 -1 0
243 2 17.503259235666953 5.929465172384364 12.466634960420734 0 0 -1
241 1 17.144045330892578 5.400638776837577 13.299986864088481 0 0 -1
24 2 14.97624750529471 8.613666958616873 13.200905416134669 -1 0 -1
302 2 11.998926935546914 0.47792010456737805 15.622838186648721 1 1 -1
303 2 11.942378020519792 0.5965486369740306 14.098553531732396 1 1 -1
165 2 9.480829362148127 4.057402989403285 14.184264159976207 0 2 1
301 1 12.447643452542506 0.8625977521157282 14.865436705452616 1 1 -1
237 2 12.753817462114958 2.5273297519214912 15.10557919292485 0 1 1
9 2 11.960054481997137 4.234139727303421 16.270189344696067 3 0 -2
164 2 9.679953379310497 4.044955861579038 15.742325129638965 0 2 1
163 1 9.085936625723818 3.7789921977979675 15.057046579373836 0 2 1
235 1 13.258702879727107 3.349863666606297 15.360888710714368 0 1 1
209 2 10.572398716866585 0.1734864895550387 17.46093452302004 1 -1 -1
290 2 16.719065104038524 3.670015549095646 13.481871684097994 0 -1 -1
291 2 17.43379208072432 2.3038704741702887 13.615290927912191 0 -1 -1
330 2 15.722568113413116 2.270882998093069 17.39195401919311 -3 2 0
218 2 13.992344732586155 4.2075435191990636 14.156765664436435 -1 1 -1
289 1 16.52704573659394 2.71580050233341 13.656712911899197 0 -1 -1
373 1 16.156907638278167 4.165272052354426 16.31575042456556 0 1 0
374 2 16.043210792777817 3.813785621539349 15.411585908867236 0 1 0
236 2 13.864614662435823 3.027074778771907 16.120887069888624 0 1 1
329 2 14.843466106232455 1.255191142374806 16.599720302787684 -3 2 0
328 1 14.803578222602729 1.9990689004185347 17.170077108750654 -3 2 0
375 2 17.096840421390446 3.817375894626492 16.48906493661663 0 1 0
7 1 11.159833666152831 4.6183986416404235 16.761369242957965 3 0 -2
48 2 11.38925350626107 7.0694487111863875 13.565541188102522 0 -2 1
336 2 9.412269589945861 8.243468241422821 14.137799087206213 1 2 1
47 2 11.428466529803503 7.3767349021535225 15.09208840823134 0 -2 1
46 1 11.012851024659504 7.624936854263289 14.28838510169721 0 -2 1
91 1 12.075741942394501 7.295069992993444 16.703497579546102 2 0 -1
93 2 12.962640064541947 7.355108839717527 17.103639124154878 2 0 -1
92 2 11.542720824989129 7.9788383053170575 17.068752926812248 2 0 -1
8 2 11.367236238938423 5.5916157580204615 16.714665437157194 3 0 -2
402 2 15.080056867752688 7.205834523480231 17.187082993946216 -2 -1 -2
127 1 16.153765982322078 7.032374493339791 15.874840691848433 -2 3 -2
219 2 15.138623512576231 5.276729296213924 13.725623893976802 -1 1 -1
23 2 15.20422256386627 8.281547565334995 14.750810409917582 -1 0 -1
217 1 14.273730456567705 4.864510951489524 13.446216745447783 -1 1 -1
129 2 17.11273870506493 7.2314830269804755 16.175356615511895 -2 3 -2
128 2 16.123747597036534 5.99530652645584 15.906257907868085 -2 3 -2
160 1 10.839314768325275 10.736619227170857 2.3615893378500603 0 -2 0
162 2 11.121262421346989 11.62855488405329 2.1409277442856065 0 -2 0
161 2 10.290011057032105 10.882879259384417 3.1643508891860157 0 -2 0
204 2 12.06801817608879 9.532566162867022 3.2211864831311448 1 1 -1
67 1 9.492025291918365 11.5595406004003 4.533830095782573 3 0 1
185 2 9.33074718411771 10.940991829148286 1.4660562304455993 0 -1 0
68 2 9.134324086889807 12.47644814737832 4.525074285963208 3 0 1