LAMMPS data file via write_data, version 8 Apr 2021, timestep = 861000

1008 atoms
2 atom types

0.2830842633277055 18.11647073667183 xlo xhi
0.05978053422466752 22.510608465781363 ylo yhi
0.1941715226100133 19.311544477395312 zlo zhi
-0.10223023275475415 -6.69623528624309 -0.06021092150110528 xy xz yz

Masses

1 16
2 2

Atoms # atomic

1 1 6.395977081703162 1.2361281620144142 4.857648695531987 0 0 0
4 1 3.651577251631181 1.1705281713485254 5.298148008648183 0 0 0
6 2 3.6470970518566026 1.5417096412365705 6.22835518860173 0 0 0
7 1 -0.7123994440828059 6.306094051363279 4.961924676125011 0 0 0
8 2 -0.6412805991934831 5.864452878861385 5.882526431225198 0 0 0
10 1 2.0168106234250036 6.574078169341779 4.592663553986172 0 0 0
11 2 1.04403838997415 6.739598361734243 4.54629989522957 0 0 0
12 2 2.4453405405005704 7.382656386129964 4.355873912541819 0 0 0
18 2 5.495542282917516 4.995904118860564 0.9765355054196531 0 0 0
21 2 0.7775331817332389 2.115127535365999 1.4511947907602076 0 0 0
25 1 4.7384507042414485 6.405907883589573 6.952756837317437 0 0 0
26 2 5.446128659197975 7.035019978619996 7.342067389741904 0 0 0
27 2 3.843344273007217 6.674157272421866 7.276143212207296 0 0 0
28 1 5.7395655052570005 6.15062798515969 2.3762749418784206 0 0 0
29 2 5.45213983946835 5.830376142639141 3.2863392865256764 0 0 0
30 2 5.1620486018487375 6.875734503601564 2.061769924431669 0 0 0
31 1 1.4694356742125032 0.8586623243426624 2.916199594721204 0 0 0
520 1 2.203255416186788 4.689903112674432 9.54687324353825 0 0 0
33 2 1.4595824402360167 1.2484518226404948 3.810002947747382 0 0 0
34 1 0.2732100509749378 1.082127754207595 7.221226244545244 0 0 0
36 2 0.35034707474485693 1.8242347926819766 7.860506847750028 0 0 0
37 1 6.236216738138828 2.6739472329159746 2.578157724053621 0 0 0
38 2 5.378432398795313 3.0447504279408943 2.8126120857238903 0 0 0
39 2 6.881711169887061 3.3702885233836812 2.78027593205271 0 0 0
40 1 3.902240094607331 2.620208456737642 7.552084925739657 0 0 0
41 2 4.779775873288405 2.8489111278878316 7.177750701701156 0 0 0
42 2 3.19581540813846 3.279621324027362 7.265616078441324 0 0 0
43 1 -0.5462999060377209 4.889312521191778 7.233020812995145 0 0 0
44 2 -1.1234522152497903 4.017685749065117 7.175183655219785 0 0 0
45 2 -0.665299698860891 5.137457312890502 8.186894987782685 0 0 0
46 1 1.9634584771247086 4.80486316637136 2.356191716380805 0 0 0
47 2 1.0420254586947377 4.580304931028386 2.455424809100505 0 0 0
48 2 2.239936509271958 5.449464265543319 3.1162905722737033 0 0 0
49 1 6.5547958266824065 3.2648724593273957 6.485344228648417 0 0 0
50 2 6.247524248566569 3.991027951766532 5.924783508021355 0 0 0
51 2 6.629227734714061 2.458541595228837 5.95310451079758 0 0 0
52 1 3.5964080557739857 3.1619682179114235 3.5931200972860395 0 0 0
53 2 2.6891049349897 3.4060877791071773 3.3820132956293514 0 0 0
54 2 3.56893386375149 2.5643111082987913 4.351457738467478 0 0 0
57 2 -0.034078879619114044 3.6003436642976765 3.844822512854527 0 0 0
58 1 1.8957518351300433 4.38840530967229 6.409235657803233 0 0 0
59 2 2.1078504960996765 5.15788551663438 5.837008579454727 0 0 0
60 2 1.0799722559423752 4.734387793298018 6.83094183583478 0 0 0
61 1 8.221393226865294 6.932319490964977 1.49523353254877 0 0 0
62 2 7.356804325386442 6.491926499788795 1.7495056049149271 0 0 0
64 1 2.3729089953789804 7.08491330685215 8.109503644512865 0 0 0
65 2 1.4863682972251802 7.473055904593878 7.875420504405313 0 0 0
72 2 4.241173938916578 1.2753119493555818 1.2476697524400469 0 0 0
73 1 5.040196443356826 5.184660225955274 4.711991885189979 0 0 0
74 2 4.635362214906518 5.776914036065888 5.402973073445586 0 0 0
75 2 4.380836954644026 4.50222172713486 4.514081140222567 0 0 0
76 1 0.6984557837133504 2.5230219686839486 4.848091505466185 0 0 0
77 2 0.2669855707485859 1.9459030316097443 5.565550295762233 0 0 0
78 2 1.1612795663074253 3.1437795085284774 5.472313554464151 0 0 0
91 1 7.914694558821161 6.175949709586655 5.558321830117613 0 0 0
92 2 7.763151637657374 5.410224214646586 4.930317781813127 0 0 0
93 2 8.817941703511408 6.43529507251057 5.2866470663199925 0 0 0
94 1 10.599132870209196 6.361959703141153 4.804810017861277 0 0 0
115 1 10.227423119370732 1.1297119050992643 2.8962900854769256 0 0 0
116 2 10.199069321487666 1.7377683213585755 2.1564838521666476 0 0 0
118 1 8.84330283252892 1.3227533333162222 7.353000419126113 0 0 0
119 2 9.208840192672021 1.9447240593212114 8.04475543436768 0 0 0
120 2 9.155144178718048 1.6496485899235194 6.455874934032007 0 0 0
127 1 8.488328331213163 4.753113717132632 7.766091224324667 0 0 0
128 2 8.003572443335853 3.9351075373795585 7.924990566120799 0 0 0
129 2 8.139408870788337 5.370750375628726 7.04311047440897 0 0 0
130 1 10.51412418244589 4.8552289823519414 2.6453936604208987 0 0 0
131 2 11.176461890087085 4.138761953064313 2.919624109256183 0 0 0
132 2 10.63113388560479 5.6115475408754865 3.2974926322829905 0 0 0
139 1 7.99299841051977 4.175868377523046 3.5949928183001973 0 0 0
140 2 8.797893047375165 4.541412543612216 3.089956776977938 0 0 0
141 2 8.397862655288904 3.4864661044979517 4.155025106450265 0 0 0
160 1 9.564563682780463 2.431399180632854 5.113317486670627 0 0 0
161 2 10.33245679196252 2.9744280809523636 5.384199804118494 0 0 0
162 2 9.84603356890221 1.7904725711451583 4.439689882564214 0 0 0
169 1 6.245145264261306 8.811526095372404 4.9324046927537 0 0 0
170 2 6.515986485129244 7.938013978608369 5.176132227588825 0 0 0
171 2 6.600327178854692 9.418114448752117 5.581129417296043 0 0 0
172 1 3.5332993156334407 8.837708802169622 4.3421698767215675 0 0 0
173 2 3.50553485167563 9.7736169125032 4.012589331755968 0 0 0
174 2 4.477333051479347 8.700846145324126 4.5813311730504465 0 0 0
199 1 1.199142268459866 8.99988510128033 2.8651509590760806 0 0 0
200 2 1.048517373812269 9.442547376292756 2.0149836643161194 0 0 0
201 2 0.8824682795448267 8.132969759402567 2.7820925350014156 0 0 0
202 1 0.1344896995236631 8.409191965533651 7.516147470171277 0 0 0
203 2 -0.8147462533330585 8.154420077430897 7.621186072210642 0 0 0
204 2 0.12281227493140523 8.739463020268934 6.5843851009809695 0 0 0
205 1 6.557004827749844 10.390708718393832 2.5410152286656076 0 0 0
206 2 6.416342834538032 9.795135988477188 3.2989466463003616 0 0 0
207 2 6.690503107211398 9.882128177493962 1.703108835652676 0 0 0
208 1 4.314758052334382 9.800155019293717 7.441480014465554 0 0 0
210 2 4.498118469669218 9.102479561959106 6.773892222847768 0 0 0
238 1 4.157888294914896 8.185910386967233 1.5672043222250267 0 0 0
239 2 3.6278090902330455 8.57762673272695 2.365700851959106 0 0 0
240 2 4.4375206974635395 8.94225442570405 0.9634680324081865 0 0 0
244 1 0.39791728429183293 9.89371813666696 5.064436571646999 0 0 0
245 2 0.6094639954842342 9.549088246798009 4.151567116089041 0 0 0
272 2 10.012413998243265 9.82250933615332 0.882218381461973 0 0 0
283 1 10.136129377812972 8.728589449322659 2.3095603497947317 0 0 0
284 2 9.778818778114655 9.155635259896494 3.138234875963146 0 0 0
285 2 9.424449887921401 8.096410924152806 2.1146732139387536 0 0 0
286 1 9.257092736852705 8.995170657872317 7.199122982697204 0 0 0
287 2 9.848430521947273 8.274875275378022 7.408909613790941 0 0 0
288 2 8.355684954258377 8.654562415429451 7.2305721806464485 0 0 0
319 1 6.909102502879991 7.879131507604364 7.7933681571374525 0 0 0
320 2 6.917926707903093 8.708401086872257 8.254900587985533 0 0 0
321 2 7.315916199018869 7.294506445901074 8.480576829874536 0 0 0
323 2 12.054867511060692 8.076742417155552 2.394767797213504 0 0 0
328 1 9.674591099490783 10.015194948684487 4.6067624486416685 0 0 0
329 2 9.601744339746897 9.623762265062588 5.516196102813459 0 0 0
3 2 6.589092653928125 1.7673585204839892 4.068052173032443 0 0 0
192 2 0.5388343066102801 9.956829216340669 8.68131142557397 0 0 0
153 2 6.4984861486559815 1.8008025913068442 8.900518794636255 0 0 0
95 2 11.177229227313562 7.06597903263207 4.971827514962522 0 0 0
96 2 10.616734760531932 5.674420587764936 5.458453247913422 0 0 0
142 1 10.986715863274496 4.298923851690752 6.362892059212628 0 0 0
144 2 10.17342864451406 4.285844162943531 6.873919537443369 0 0 0
322 1 12.742557895313835 7.633775756543859 1.9055154545422164 0 0 0
5 2 4.679824428414735 0.9301133518685681 5.169008330415949 0 0 0
324 2 12.229537932033246 7.200074704485792 1.1912877135957012 0 0 0
66 2 2.8583107547173756 7.702945380568512 8.665860950179608 0 0 0
14 2 5.055858059612507 5.320387499398688 8.722861427529683 0 0 0
276 2 9.452801734560236 9.950975712768749 8.659838014628258 0 0 0
246 2 1.208069721845905 10.355638929459857 5.410598498853807 0 0 0
35 2 -0.5689222339725724 0.7209530484521817 7.49274456562738 0 0 0
106 1 9.49290382730868 2.7085347293021895 9.582007044877384 0 0 0
155 2 12.715723478046073 1.2630388421236518 1.3712567699291294 0 0 0
136 1 12.827515567301162 3.2593445110702963 3.6655002544796185 0 0 0
149 2 10.836417620025395 6.47804759981515 8.850795711655863 0 0 0
148 1 11.044667088808602 7.192327820328968 8.244582317207694 0 0 0
69 2 15.226668998298816 0.20722952938688455 7.687621167272323 0 0 0
22 1 0.5187667209070052 2.4978679013117486 9.522623952916284 0 0 0
15 2 4.089778573148629 4.708583064807499 9.748586295049748 0 0 0
67 1 -2.0224655881873175 0.6630521222283849 8.347009063039033 0 0 0
55 1 -0.47780451503050175 4.12597422367122 3.12548102358809 0 0 0
248 2 7.613731535086502 8.308900257859209 0.6829157848137642 0 0 0
221 2 4.900334235489352 11.0341653627894 2.8662975058264317 0 0 0
86 2 16.141418478282294 0.44039152260300973 4.943763042595854 0 0 0
19 1 0.9552274564496848 2.423130127483941 0.5413769004396639 0 0 0
20 2 0.40589329480710123 3.2408928827957206 0.49095687204251176 0 0 0
486 2 11.454808747800625 0.5672591918557287 8.65988878641892 0 0 0
836 2 12.856526483239389 9.561519322411689 9.221070494762174 0 0 0
63 2 8.446214201465427 6.339830302195935 0.8149581136286966 0 0 0
304 1 12.94264189341477 10.639686783541851 3.787653320137932 0 0 0
167 2 10.959461787184622 5.640356267086087 1.1717738928776342 0 0 0
247 1 7.009927444293676 9.005934208401555 0.4020320096980305 0 0 0
9 2 16.34730199664889 6.91045382128991 5.030138307505122 -1 0 0
23 2 1.1635613436374956 3.262465490438564 9.658718585062912 0 0 0
56 2 -0.7763307201205074 4.912778958619703 3.607313350978483 0 0 0
255 2 15.165642543935551 8.718485019673766 4.180349021146034 0 0 0
668 2 12.509953969671121 2.159066828258035 9.239898911699232 0 0 0
143 2 11.709626490604348 4.0469138955641535 6.941289985377226 0 0 0
258 2 12.149890057925605 9.156575322210875 4.659717016191254 0 0 0
158 2 14.603237211562123 5.532697997718856 4.402352691834184 0 0 0
89 2 12.793789314077253 1.925406829325606 4.915341921582484 0 0 0
306 2 13.6438254178677 10.328529417556922 3.1338124431788827 0 0 0
256 1 12.159411947410543 8.381071934233306 5.252148163789271 0 0 0
88 1 12.785070821077138 1.151390303087452 5.467628748873892 0 0 0
150 2 11.48666611372337 7.868282907730446 8.776295022971603 0 0 0
138 2 13.286914341353626 2.877532930156807 2.8823674609469716 0 0 0
137 2 13.438472073507949 3.854641312457486 4.177777438984235 0 0 0
113 2 13.992625696770558 6.7202445757100735 2.6059612599539705 0 0 0
101 2 14.352871959697243 4.833066016204241 1.3282049141778247 0 0 0
126 2 12.771874260221862 2.2136726476973396 7.122815744835623 0 0 0
294 2 12.48353354083803 9.494369440034372 6.575560270823881 0 0 0
111 2 12.585943509144562 6.598281806966921 7.398923798740512 0 0 0
112 1 14.643449840775256 6.012445548013304 2.6837471311098073 0 0 0
90 2 13.688702375268228 0.7674572711697223 5.5488073831206 0 0 0
124 1 12.96358786545634 3.0421920301464187 7.723173536853255 0 0 0
117 2 9.525562638124075 0.43386330321835453 2.756619112549927 0 0 0
330 2 8.991056289069203 10.732821154959584 4.545740189184322 0 0 0
671 2 8.345038499968696 5.630106260349305 9.21880405770814 0 0 0
289 1 15.09203177012028 9.77649958091917 2.6463672203240938 0 0 0
83 2 2.3242494692948448 5.905175084905062 0.8127670358107392 0 0 0
584 2 2.7973075452637084 0.7248911763506766 9.43066961124523 0 0 0
753 2 4.355692862743788 9.361093745060636 8.965106081189695 0 0 0
80 2 6.575970028844412 2.070942002186462 0.9779460282614941 0 0 0
692 2 -2.917312954506564 11.103985730464434 9.74601731124835 0 0 0
114 2 15.568612572395418 6.312690539221036 2.577270420794886 0 0 0
32 2 2.4011115778643717 0.7811134106969702 2.6609879874377187 0 0 0
235 1 -2.43556399272808 7.959334707494125 8.434575387642447 0 0 0
157 1 14.17275506395788 5.032834032374873 5.064128089662583 0 0 0
159 2 13.958927807022205 5.552069539620104 5.8379670518299775 0 0 0
152 2 7.150010120185368 0.9652703623375859 7.746072699089602 0 0 0
156 2 11.876443987883754 0.5064970777038632 2.435668283093943 0 0 0
84 2 3.2460322624404006 7.0672368361059075 0.7454736086618566 0 0 0
585 2 3.8504180690305847 1.7162715849394903 9.082677832378579 0 0 0
121 1 15.294506113749426 2.3580591363040866 2.386188576622336 0 0 0
123 2 15.77313040783037 2.004077840921523 1.6028276059577906 0 0 0
302 2 14.637161577257965 10.75574904963247 7.01139653370425 0 0 0
110 2 13.728027101601025 5.837344129156792 8.084077677553333 0 0 0
257 2 13.072640239202244 8.083179373634513 5.35639647432651 0 0 0
109 1 13.543397741975959 6.436733933930484 7.294258077163777 0 0 0
291 2 15.240666255024044 9.419619631939263 1.705786229871908 0 0 0
292 1 12.800499153787428 10.196529272253642 7.225418897350498 0 0 0
217 1 6.733270877795851 10.987230433439823 6.703681151638233 0 0 0
68 2 -2.4537784607209505 1.4351690891320195 8.770451685878653 0 0 0
87 2 15.591766292160822 1.4609438006069067 4.015819168381604 0 0 0
122 2 15.783480705554748 3.146097691011242 2.6309539417081957 0 0 0
125 2 13.945713008094586 3.162178149161749 7.507052625345382 0 0 0
254 2 15.530037572981454 8.955357773106504 5.689168502500137 0 0 0
586 1 -0.848409520679513 6.173490883749915 9.611127336954043 0 0 0
134 2 15.16982214439846 3.8153290662862265 5.935310415497768 0 0 0
147 2 16.80014229935844 7.492379313714311 1.3310594999042034 0 0 0
236 2 -2.684052361895534 8.812127447465024 8.836192411146277 0 0 0
135 2 15.751833871674117 2.3346071112012945 6.04832660955213 0 0 0
2 2 7.062884468794462 0.501664786268782 4.812413528746153 0 0 0
253 1 15.22250427167269 8.239600346038285 5.066181691976171 0 0 0
290 2 15.746376087299165 10.530005486715437 2.72714163555951 0 0 0
103 1 10.175787004864981 2.7714959325901054 0.7242080951798514 0 0 0
780 2 12.960079689520853 9.541835497951851 0.9196881434949634 0 0 0
521 2 1.9737469403975778 5.39198960384632 8.938318879245989 0 0 0
293 2 12.10101999794199 10.851002768698638 7.263214237994637 0 0 0
401 2 1.5589554425397176 0.16978652253239318 7.748377965536376 0 0 0
187 1 1.2371212107851748 10.23347163974974 0.3427760604716398 0 0 0
85 1 15.519378311120521 1.1722794770220213 4.949420492737653 0 0 0
485 2 10.489208301074612 0.07009149332457884 7.457928500245093 0 0 0
13 1 5.054853202921937 4.970667771856557 9.616470873299123 0 0 0
237 2 14.623374755234495 7.61926456486762 7.930154147938717 0 0 0
100 1 14.506770058180958 4.636539555061967 0.3696775178102503 0 0 0
70 1 4.167356565961095 0.536271121437988 1.924871432045188 0 0 0
301 1 15.518015942113161 10.869444597913715 6.612806618218586 0 0 0
190 1 0.6823240305745959 10.20748893798884 9.624281411244079 0 0 0
219 2 6.136291496062332 10.704734033675436 7.421397825553962 0 0 0
154 1 12.61594440735561 0.34070746993521556 1.7621218264371032 0 0 0
587 2 -1.50816182312439 6.87888823652344 9.359055256966073 0 0 0
165 2 16.56276507912648 0.5806781884919231 0.6823224627954766 0 0 0
104 2 9.532454207206603 3.4838811325020336 0.6784675357809185 0 0 1
209 2 3.5686474953090443 10.317740698249159 7.1123202995492925 0 0 0
166 1 11.248121344280834 6.0413893725618735 0.3251890216479889 0 0 1
133 1 15.454498723843857 3.1174271374087983 6.559772134563589 0 0 0
145 1 17.188888882377 6.943243167383118 2.0510790243525827 0 0 0
97 1 13.899853706742299 5.177986945534866 9.699761425922533 0 0 0
311 2 10.70204700365965 11.10695909358287 5.570101430932481 0 0 0
399 2 7.886523007444966 0.49375438398009713 1.3933712605404103 0 0 0
778 1 12.93602290226038 10.21445489925066 0.2142961728969839 0 0 1
146 2 17.501196775896034 6.216243185775578 1.5840881502766713 0 0 0
612 2 11.819955660448125 2.902418815348455 0.37227874524337984 0 0 0
79 1 7.105735693535585 1.5676570466751143 0.3594191125089799 0 0 1
305 2 12.171379856599406 10.994092227846519 3.248177861772042 0 0 0
151 1 6.360625034490847 0.9517212261151742 8.28725360426404 0 0 0
224 2 -0.13977505468827012 11.08801187281932 3.9852684099764035 0 0 0
220 1 4.081673968170393 11.234281551225175 3.3000188124920347 0 0 0
331 1 15.807174202127975 8.598358039971584 0.39681015458685104 0 0 0
274 1 9.586120675093657 10.084753583592857 9.628993967666583 0 0 0
776 2 7.893129319811073 10.263014256669834 9.698336764347886 0 0 0
693 2 -1.5696456737527662 10.349870765149982 9.393507760746537 0 0 0
602 2 16.369616016984665 4.908799527912405 0.3419281601922899 0 0 0
610 1 12.722504413532766 2.5744033453332666 0.20843063934359973 0 0 1
826 1 9.425451550982519 7.866467202184772 11.33310642724724 0 0 0
333 2 8.461089774038834 7.924448651416584 19.114654816500327 0 0 0
722 2 2.813714607319064 10.88244712433658 15.464360338725994 0 0 0
605 2 11.17512196017977 5.468873562452954 10.905086441456724 0 0 0
672 2 8.704534192729842 6.815498801071969 10.26694705640865 0 0 0
571 1 -5.138468633061164 0.550471829044692 17.701250028882153 0 0 0
621 2 7.592205126370978 0.8968209038951215 11.92671925471457 0 0 0
809 2 10.327101500092363 10.521446441336671 12.340039286859852 0 0 0
775 1 6.895454904572365 10.148463611706394 9.77065986746857 0 0 0
168 2 3.952550043180033 6.639043672721479 19.049764879015072 0 0 0
249 2 0.6325821987810232 9.41169125953847 18.730849216628712 0 0 0
623 2 4.720095095603391 1.1015472683548257 17.201907933474896 0 0 0
275 2 9.911263236049315 9.174468707222307 9.94908201764418 0 0 0
620 2 5.957874932545273 0.9324668485455206 11.933767923216573 0 0 0
798 2 9.943727108070208 9.302462538407704 16.370130577294827 0 0 0
805 1 12.34809483029179 10.852589472575922 16.29722682020764 0 0 0
835 1 12.490609283716758 8.891073895159135 9.899072519257867 0 0 0
537 2 -1.3052815744686903 0.8741612486071244 11.88606246772602 0 0 0
505 1 3.078321198856356 0.8420087138785892 14.289007253899413 0 0 0
506 2 3.451834312158016 1.4832173797073698 14.978026840197401 0 0 0
694 1 -2.6119374457280977 10.148439645339996 19.01029365145268 0 0 0
508 1 0.4861101235289768 0.8970777913335141 14.731964853228845 0 0 0
823 1 3.654197577779462 7.858324841378156 17.933154593395244 0 0 0
574 1 0.42486330619284374 0.4350013574779409 11.214930103897428 0 0 0
511 1 -4.195603649374846 6.533733704300501 14.859136485440912 0 0 0
512 2 -4.028243699767721 5.8807016339147005 14.127048123933887 0 0 0
513 2 -3.839097888563797 6.03677665579033 15.660347795000167 0 0 0
514 1 -1.2970757425295278 6.627998288615029 14.445600999422462 0 0 0
515 2 -1.1030771815878162 5.8603765082135215 15.012628578536257 0 0 0
516 2 -2.2464307145504434 6.805289809548907 14.498933948022641 0 0 0
539 2 -3.5252742741662417 0.6139932477086911 17.070887975400495 0 0 0
519 2 1.7046520854657128 5.1552672598911675 18.08927780745162 0 0 0
510 2 1.3997666888142286 0.6271675561342819 14.412355981309332 0 0 0
522 2 2.1062116688280437 5.1855629885130305 10.38174566167517 0 0 0
728 2 -3.449244797611393 11.055157732627585 13.958681289263104 0 0 0
807 2 12.613170575976499 10.021878527047914 15.66279162750603 0 0 0
525 2 -2.552572005255809 2.4519029675746418 10.73245430060712 0 0 0
17 2 -1.7129678771392753 3.8941409789042543 19.055916591739102 0 0 -1
527 2 -2.7050879635199374 2.1341371269366873 18.102954479541836 0 0 0
529 1 1.7127100116022942 6.141143564854349 16.724134294085896 0 0 0
530 2 1.8091169503248883 5.630433764229026 15.88440814364675 0 0 0
531 2 0.8039657259390964 6.518684920411095 16.710291520668527 0 0 0
532 1 2.3929889617089275 5.839152570075734 12.00604052991246 0 0 0
533 2 3.2749423077488315 6.287429038464601 11.890310288949985 0 0 0
534 2 2.484542789673885 5.681755788522795 12.977797168355064 0 0 0
535 1 -2.1579628730566753 1.0765550459053694 12.267161976886658 0 0 0
986 2 13.331908335246965 0.4053493247071885 10.336356942897222 0 0 0
794 2 12.61275374561412 10.971250948677932 12.586984574460374 0 0 0
538 1 -2.605352323341356 0.9263252705352794 16.892633063472015 0 0 0
332 2 9.543888667781646 9.043820545885886 18.777190513659477 0 0 0
540 2 -2.5992835868934887 1.2266691351888794 15.955703998810582 0 0 0
541 1 2.927927803523664 2.6488124531326935 12.045462760055523 0 0 0
542 2 3.0398434977154594 1.8998164295293096 12.634564885799637 0 0 0
543 2 3.027572420477997 2.3253036640092724 11.170294294221645 0 0 0
544 1 0.8780636602360161 2.5612306120519386 16.85491559817889 0 0 0
545 2 0.9298749685188963 2.2457986218343797 17.816889534919113 0 0 0
546 2 0.6476381518369054 1.8221101859565492 16.266752079478284 0 0 0
547 1 -3.164545560225711 5.04286084835381 16.917961699943504 0 0 0
548 2 -3.8969561586770065 4.4120582806978375 16.77104330713957 0 0 0
549 2 -3.441554998285912 5.554711922281798 17.701334617614954 0 0 0
550 1 -1.3065656121228273 5.087440804942173 12.053015686461505 0 0 0
551 2 -0.55401987912802 4.43176873915505 12.314659366249046 0 0 0
552 2 -1.3957560925328723 5.7656880748372705 12.754323351925564 0 0 0
553 1 3.39916188266503 3.1372682199097723 15.877186286767541 0 0 0
554 2 2.4475974507723035 3.1533448166816633 16.217090797505936 0 0 0
555 2 4.005133478456681 3.804743303217308 16.32159250639197 0 0 0
556 1 0.26869961288319266 3.094950949214003 12.950853096590862 0 0 0
557 2 1.0950737526595353 2.876021156167673 12.521759312801231 0 0 0
558 2 0.12722928317140292 2.3082548999157018 13.484673071470244 0 0 0
559 1 -3.7235318898890495 4.59708940728999 13.01343278680038 0 0 0
560 2 -2.8324988138462017 4.664367609329259 12.529751561049387 0 0 0
561 2 -3.609126095702779 3.771409243902338 13.553277708971875 0 0 0
562 1 -0.7743992755977553 4.340054020949337 15.902274037839062 0 0 0
563 2 -0.1609618495949232 3.869735792755765 16.60875211229335 0 0 0
564 2 -1.6273793768155789 4.509111978966482 16.392670053985544 0 0 0
565 1 5.13172599482047 6.900811926878207 11.551565380027753 0 0 0
566 2 4.751275214330234 7.588989709370342 11.035514706879963 0 0 0
588 2 -1.0901541421576164 5.735248943953972 10.449781382607878 0 0 0
568 1 -0.7848716825237301 7.180705231586933 17.399512782655968 0 0 0
569 2 -0.9883015978388796 6.221490566330629 17.78243937785017 0 0 0
752 2 3.723981688187277 9.493698111014265 10.469318949999993 0 0 0
906 2 -1.328214701971351 0.08743431312009403 17.43604484513411 0 0 0
572 2 -5.414648270410088 1.1405923926734314 18.412952090394583 0 0 0
189 2 -4.599801815314448 10.517875972779981 19.240597776085192 0 0 -1
724 1 0.6000629570892151 10.894963213176975 13.049298162223057 0 0 0
576 2 0.6155276542826268 1.24421538518269 10.620349279185543 0 0 0
577 1 2.2683001949866894 4.834058963103368 14.396148372257597 0 0 0
578 2 1.3862811329666147 4.479546945572299 14.184278445619784 0 0 0
579 2 2.829448017618733 4.117451377872224 14.86608568429382 0 0 0
580 1 -2.676950304948447 2.3597702582260207 14.53370756012025 0 0 0
581 2 -2.339480206014536 1.842500822729223 13.80060275197825 0 0 0
582 2 -1.9593926047950165 2.8723342277359634 14.925346254997969 0 0 0
833 2 6.603733696516659 9.388133899756308 13.612190701632429 0 0 0
507 2 3.7250591806586035 0.09369125151955551 14.334451544156824 0 0 0
589 1 12.284902743472562 1.214640169898066 14.371925151500054 0 0 0
743 2 0.2458692576290093 7.140316185354782 10.491398505640747 0 0 0
591 2 12.77356496153311 1.8705237559745211 14.920629803388254 0 0 0
592 1 9.657722526605426 1.301082285604572 14.83143794398004 0 0 0
824 2 2.9140493310937736 7.676426810496104 17.367012728077736 0 0 0
594 2 9.456522239246608 1.9972302900918664 14.165195396410311 0 0 0
595 1 5.228113564741161 6.1931511153941186 14.625240228504472 0 0 0
596 2 5.135499421549507 5.682558431805364 15.481678879709628 0 0 0
597 2 5.040834102109484 5.5290930355250385 13.944906068283512 0 0 0
598 1 7.970108632982243 6.37724066922193 14.489664775660085 0 0 0
599 2 7.104473469718577 6.656701162448992 14.786567441814086 0 0 0
600 2 7.796166821470441 6.067790699835712 13.585521763185739 0 0 0
24 2 -0.32443876105242325 2.785039606505562 9.869424307154341 0 0 0
603 2 10.469822849088095 5.08172574057437 18.199545490383823 0 0 0
810 2 8.846827911439812 11.11847380300948 12.533576657189494 0 0 0
779 2 6.3189018938504 9.6632091172745 18.51232964663423 0 0 0
696 2 -2.0979268970696614 10.969445009964732 18.986510172885943 0 0 0
832 1 6.364970926375346 9.586993595521065 14.51708082068177 0 0 0
105 2 3.324261862387469 2.118686867384239 19.1069755561742 0 0 0
517 1 1.7260431385527932 4.660271853973362 18.940256967364988 0 0 0
164 2 8.772772196070997 0.8172141694850502 18.708701637406463 0 0 0
611 2 5.909563111334118 1.9992802326847354 18.46204322975279 0 0 0
613 1 10.345050584823076 6.385298095136143 16.902614370008422 0 0 0
614 2 10.868348140910564 7.09589162478958 17.398664617196005 0 0 0
615 2 9.404452117870214 6.6193319566062545 16.985043975653475 0 0 0
616 1 11.377322577753851 6.15749863367261 12.271441075702935 0 0 0
617 2 11.229857236389007 5.9266236486917885 13.210620836907063 0 0 0
618 2 12.263633352187355 6.625211024000684 12.337591122563 0 0 0
619 1 6.801512128218688 1.423697478589087 12.209755323701105 0 0 0
570 2 -0.4855947068424748 7.762932320118911 18.1511933399083 0 0 0
669 2 11.999672668791737 2.1076984902972304 10.8449896370117 0 0 0
622 1 5.65907618175579 1.1016712518320553 17.05506920339988 0 0 0
714 2 1.854350955351144 10.416070720702374 17.040849254611373 0 0 0
624 2 5.86286150825062 1.4854580273321176 16.197776633623853 0 0 0
625 1 11.846127414595703 2.9397820978450415 12.37797464674434 0 0 0
626 2 11.867050122220814 2.3366344387264313 13.156969053507284 0 0 0
627 2 12.51813178744968 3.6427264479637196 12.52077554396461 0 0 0
628 1 10.163082736523213 2.9169699715179034 16.893588327566246 0 0 0
629 2 9.973269495877899 2.627522707115276 17.790137139835135 0 0 0
630 2 9.869503144472139 2.1479860191714697 16.364853550141234 0 0 0
631 1 5.25700571868396 4.975049179299649 16.92865427196173 0 0 0
632 2 5.1287201821401345 5.471109075472094 17.72795166727597 0 0 0
633 2 6.2020604806741115 4.657172049503536 16.910700293298305 0 0 0
634 1 7.6291291546324675 5.087899213870547 12.206438818433307 0 0 0
635 2 6.849880206699789 4.422768867123678 12.187713038847937 0 0 0
636 2 7.78786130133323 5.370371901261522 11.305098574164921 0 0 0
637 1 -5.233918503582552 3.5996333968303404 16.072287470528252 1 0 0
638 2 12.011190395218893 4.229776148808575 15.629407114671851 0 0 0
639 2 11.981347298196404 3.1964545483037687 16.707366014399575 0 0 0
640 1 9.40316418247683 3.3762903180290333 13.1573806875667 0 0 0
641 2 8.720779381885654 3.9198744167313118 12.736054280355127 0 0 0
642 2 10.184737236587498 3.35641047719653 12.531750088292792 0 0 0
643 1 5.068344743522788 4.004859483159795 12.822316203957467 0 0 0
644 2 4.218334741611994 3.7542055355232646 12.46971800092585 0 0 0
645 2 5.272983936344402 3.318563819657363 13.499461860836915 0 0 0
646 1 7.8212967446839965 4.072245534591046 16.11578229504631 0 0 0
647 2 8.730196483062189 3.737861331670871 16.385605806590835 0 0 0
648 2 7.946829332412035 4.76253633181261 15.486764813772666 0 0 0
649 1 13.98666197987811 7.204580270968884 11.478999789639879 0 0 0
650 2 13.601945330042192 7.733036566545786 10.727431871660881 0 0 0
651 2 -3.1100990436865885 7.733451001637525 11.876057445755068 0 0 0
652 1 7.772606070516004 6.9871784324895065 18.156718823628385 0 0 0
653 2 7.034497234529433 7.408222203379859 17.68664316791119 0 0 0
654 2 7.510089093208418 6.146575293036815 18.593409500865977 0 0 0
740 2 -5.2351386761362075 7.335628029434651 18.44271985295844 0 0 0
725 2 -0.3077305663099236 11.067963855822407 12.782140404886285 0 0 0
661 1 10.955212668826935 5.165949604551581 14.651161715916542 0 0 0
662 2 10.800920156241322 5.649701588136527 15.494576037092983 0 0 0
663 2 10.333342966766153 4.452881550186112 14.483985267494095 0 0 0
664 1 6.129596843354843 2.4362435372477913 14.803163428021021 0 0 0
665 2 6.739152360171172 3.080108935382191 15.158054953068012 0 0 0
666 2 6.572267057466621 2.0423047391553504 14.024216900395619 0 0 0
816 2 7.952856836722199 10.76528951595075 15.402362661452685 0 0 0
523 1 -2.3928522994182124 2.9059237954990933 9.89830760255353 0 0 0
659 2 9.809853052060024 0.19575182020158383 11.838083060444125 0 1 0
673 1 3.2912598195157927 8.006951874577318 14.334206793104501 0 0 0
674 2 3.9504293014640863 7.307353009654066 14.50963362708358 0 0 0
675 2 3.452033061752044 8.630318009750422 15.016384426305132 0 0 0
676 1 0.5815413797019502 8.52904989336194 14.908858461063534 0 0 0
677 2 1.4390576407789397 8.108884395371609 14.675144037957997 0 0 0
678 2 -0.077044250378202 7.817412735327974 14.700450757957434 0 0 0
583 1 3.550499140311021 1.2168776966357688 9.852097100977256 0 0 0
721 1 3.1690393400555186 10.422417322157207 16.22637773391598 0 0 0
667 1 12.097501285736818 1.6380381250161384 9.956798289335637 0 0 0
825 2 3.508895984186642 8.798301521894702 18.09179910363576 0 0 0
695 2 -2.823190753319249 9.854768420506145 18.117327846805598 0 0 0
990 2 6.859713618843614 0.02665931811317062 17.76567608225405 0 1 0
703 1 -1.789290313218952 8.892288495572805 12.036981157414488 0 0 0
704 2 -2.079894194295454 9.595283773551849 11.43432554731705 0 0 0
705 2 -0.8960160862670155 8.663669363993883 11.7242515098034 0 0 0
706 1 -3.133924414606143 8.542816362940668 16.74340678712011 0 0 0
707 2 -2.984265103726831 8.914679267084308 15.853019114998743 0 0 0
708 2 -2.3687395792047004 7.98917278204611 16.886513642192945 0 0 0
709 1 3.0889962465622562 10.060388463915327 12.055369638246926 0 0 0
710 2 3.3169260112198726 9.324421721201816 12.65770688838157 0 0 0
567 2 5.2508864941520015 6.207055122244374 10.879206376084442 0 0 0
712 1 0.9187592928807753 10.070646903580752 17.350893858717665 0 0 0
713 2 0.6880654532285992 9.422156473463774 16.692080424925404 0 0 0