LAMMPS data file via write_data, version 8 Apr 2021, timestep = 0

768 atoms
2 atom types

-0.7511819657072782 30.694528909160812 xlo xhi
0 14.139303059538475 ylo yhi
0 13.522626685713783 zlo zhi
5.091747173206848 5.055623682637595 3.5501254240687032 xy xz yz

Masses

1 16
2 2

Atoms # atomic

161 2 20.9054070000541 17.064253802653212 11.888264285641442 0 -1 0
248 2 6.245468076188683 11.859182056682586 6.82374592628042 0 0 0
295 1 8.0521913985345 5.031567964000471 6.51171467528987 0 1 -1
297 2 8.544272028599218 5.125337348566997 5.657270460676877 0 1 -1
164 2 15.857242825568406 8.183093567566726 4.515401042867075 0 0 0
220 1 5.97150352974512 4.445694109334691 2.319990902196859 0 -1 0
371 2 5.609836687541385 3.4315545944691666 3.467132719719149 0 1 1
125 2 3.525099969395524 7.712948118650323 1.6233135705815942 0 -1 1
352 1 9.664210684647276 5.321204337973978 4.364730713793494 0 0 1
150 2 9.074186568286262 4.972416364872763 1.3360307703061627 0 0 1
298 1 12.928858883817917 8.481137332748302 7.307803299876684 0 1 0
101 2 7.097807411702241 8.187311918744864 8.560601785724545 0 0 0
60 2 6.054510554530718 2.454451863332999 7.213244838703761 0 1 0
148 1 8.431500281262371 5.302975408891301 1.977348163095226 0 0 1
27 2 2.637356628223917 4.801178446746504 0.9174647989246931 0 0 0
105 2 10.641021467611951 3.2189712529548387 7.771895641517136 0 0 -1
39 2 18.805460860453763 7.0820612188700105 6.740900499476637 0 0 0
106 1 8.63233684268305 9.006606359584731 13.062088525649797 0 1 -1
162 2 22.421219620981738 17.262751272664794 12.290891788532427 0 -1 0
179 2 6.663695592760745 12.43342067848058 8.925098431839412 0 -1 1
58 1 6.47592349839711 2.918902215972577 6.525351985508589 0 1 0
59 2 6.876210262679572 3.751321160030631 6.817297195446563 0 1 0
149 2 8.534471965899256 6.304615619937692 1.923604942397211 0 0 1
50 2 12.33196643484279 7.284412307673654 2.301460913345788 0 0 -1
127 1 5.821929409942035 6.3148675258199525 12.94516330512056 0 1 -2
171 2 2.8178058095439846 5.140765206982593 5.5202115110011585 0 -1 0
44 2 20.601142258019845 15.56697436149339 6.183300045794852 0 0 0
218 2 7.606972120458758 6.409855716793383 11.874988196571389 0 0 -1
351 2 12.56453610888221 4.830742737283308 3.235323839040331 0 0 0
212 2 18.983291081235564 9.74042470328939 2.846460765676422 0 0 0
172 1 6.467258073484829 11.1754804068979 10.079734873510237 0 -1 1
170 2 3.5437861916993905 3.8236176070773995 5.40618555292947 0 -1 0
353 2 10.52565732301303 4.877913489392885 4.531837029574903 0 0 1
219 2 8.172490845208493 7.254767006466961 10.665682659409319 0 0 -1
61 1 8.237088777057467 2.0349913112368707 2.8278626649182166 0 0 0
315 2 5.31446995585635 7.539065706845417 4.164882160621867 0 0 0
92 2 3.477516985855896 6.495271274801773 3.505133602948825 0 0 0
324 2 2.0201752680533236 1.0435616869956441 0.06445555699550913 0 1 -1
65 2 15.39542857841895 6.695000008944073 9.046972608992915 0 0 0
233 2 15.112702604576636 3.691599474470891 9.024792698651087 0 0 0
217 1 8.43198239332739 6.777533869803701 11.447733727971405 0 0 -1
257 2 17.13575577289633 6.496718861699057 7.7837221001781804 0 0 0
38 2 17.928844771100053 8.097359347763554 5.926984532162022 0 0 0
94 1 14.140015242488746 7.672699425452458 4.863994946972232 0 0 0
225 2 6.002230759722585 1.1952099152726583 3.6717778886065218 0 1 0
128 2 5.407304233467344 6.932503484507678 12.271472488356766 0 1 -2
372 2 5.728706472967437 2.8141842199111737 4.962695642668268 0 1 1
274 1 2.7213983145908482 1.3617855165723802 3.031712410185002 0 0 1
140 2 6.262232745990839 7.809881742409841 6.278144184353652 0 -1 1
100 1 7.302340124816078 8.562500239045539 9.482739612124567 0 0 0
63 2 8.163983476080553 2.873849434337752 3.2876992163773804 0 0 0
129 2 1.2056362444916349 3.338172921819534 0.10155955686324442 0 1 -1
222 2 6.910035086693766 4.690367732066675 2.1500483076123955 0 -1 0
64 1 15.137550561979126 5.857162529722642 9.603087547389778 0 0 0
111 2 7.857878540471942 1.242364854053765 1.4486551875313947 0 0 1
13 1 14.750599564242338 4.999519339407666 4.128862054915254 0 0 0
62 2 9.196567597006016 1.8754317306307982 2.846931430835411 0 0 0
332 2 11.203370265574877 4.390540195252293 1.2327734093367797 0 0 0
275 2 2.1118897150642972 1.8769568147404252 3.587779696015308 0 0 1
250 1 9.345872125060156 4.092005205241124 8.657060002000394 0 1 0
368 2 6.632874009902347 4.4535996771829485 10.186280282909232 0 1 -1
102 2 8.29341089732233 8.686205855977967 9.398092022857416 0 0 0
349 1 12.52378336733559 5.013130605007413 2.238802824518497 0 0 0
81 2 4.301539140313033 2.100698865265804 0.5663389096292814 0 0 -1
85 1 11.856258356874935 9.17694484568303 10.686338180513543 0 -1 0
302 2 13.3884775482532 6.551518527370728 11.915333300757588 0 0 -1
301 1 12.92636924875151 6.7557961013447345 11.09775670495868 0 0 -1
103 1 11.089037144225134 2.6978571604931783 7.03805646074455 0 0 -1
6 2 11.486224397306977 3.0486911197366946 3.836067699220592 0 -1 0
303 2 12.17182574849965 6.1538551626454705 11.023658759511008 0 0 -1
305 2 15.670790649080086 8.751709501302335 7.436658987698632 0 0 0
239 2 18.63235974600048 9.375401026818702 8.848455757083473 0 0 0
2 2 4.506740638057825 11.855068223316444 0.9616617105139312 0 0 -1
333 2 16.052543588213226 8.602264469580406 13.352397883335497 0 0 -1
346 1 6.048221338069553 3.1421911577237003 11.378730154283941 0 1 0
110 2 8.37389450921105 1.3438223389715829 0.020935491806853945 0 0 1
331 1 10.580844736052068 4.374187256190556 0.42839821377396786 0 0 0
9 2 10.830632427060054 4.304745458511381 11.295381563825527 0 0 -1
4 1 11.110712494738548 2.249911656017254 3.391132060106728 0 -1 0
8 2 10.113039334506945 5.685292187176851 11.116343363206076 0 0 -1
5 2 11.76899447550933 1.9294275969503771 2.748542856853195 0 -1 0
7 1 10.823699754263135 5.153870289830364 10.742553041070932 0 0 -1
377 2 16.75152087117753 8.61484183648907 11.437133831349962 0 0 0
112 1 14.823654104952917 5.68784759954872 12.90558902408235 0 0 0
304 1 16.10823382239267 8.15662513917276 8.142415155292607 0 0 0
367 1 6.698277026121735 5.0930388513256055 9.424339548598915 0 1 -1
350 2 13.42636999428509 4.82413832855678 1.8955872296127863 0 0 0
113 2 15.484230192486411 5.136053864579422 12.513624862201242 0 0 0
376 1 16.586578621390498 9.448733096355099 11.935817262682143 0 0 0
114 2 15.322234537040071 6.417220729140321 13.409000851977808 0 0 0
66 2 14.285974856241316 6.038671462721579 10.04474786323559 0 0 0
14 2 15.106176042970061 4.588059545900271 4.952455877634211 0 0 0
296 2 7.483724789751831 5.811198306746485 6.696967851738326 0 1 -1
369 2 7.408539471977155 4.799629278607531 8.900888443778417 0 1 -1
280 1 19.462622351267644 7.748465150322373 9.445532428008173 0 0 0
109 1 7.713722716773622 0.8197889154751038 0.5276517681661816 0 0 1
87 2 12.163522938379145 8.295138845988856 10.937760808791692 0 -1 0
184 1 18.58457550196654 6.055428780480729 13.154313899232568 0 0 0
277 1 16.9297201960749 6.082869415415588 2.6933850471814402 0 0 0
93 2 4.824933338483577 5.863040256895478 2.8445867462929075 0 0 0
15 2 14.342969246154793 5.855479101103324 4.421484854424357 0 0 0
299 2 12.82472107004985 7.645182366916347 7.847779456445935 0 1 0
107 2 8.46982423387554 8.249524814129327 12.458956605405106 0 1 -1
160 1 16.61125388082517 3.5529198957473898 11.826118162456396 0 0 0
17 2 16.565506290863908 6.616994184522071 10.669887705600283 0 0 0
507 2 17.300270850675446 3.379378635538487 5.009222868455009 0 0 0
18 2 17.97890692834776 7.202419886000196 10.162044749960701 0 0 0
231 2 12.97634677317978 1.4904991645516894 0.8840222456557276 0 0 0
104 2 11.794056130714834 2.1553300708381453 7.431802459891543 0 0 -1
205 1 15.37951187935576 2.34262222741937 2.9812529149785405 0 0 0
210 2 17.531415491389666 4.1367532040549495 10.299444608263746 0 0 0
186 2 18.13707171693794 6.527831427324433 12.422994296231703 0 0 0
232 1 15.365602071120598 2.900180248156136 8.55451145093769 0 0 0
354 2 9.461243087596703 5.181073192618139 3.3807600257630224 0 0 1
467 2 20.646519752033242 10.04654471601708 8.093959115436716 0 0 0
183 2 16.644491868870766 4.848313340892941 6.602742676823745 0 0 0
40 1 20.894613228254343 9.71561536888209 13.144422771319766 0 0 0
207 2 15.226460756189109 3.105265880390724 2.361962307935776 0 0 0
208 1 18.20966528859813 4.226565754632982 9.60035226311645 0 0 0
279 2 16.343561618849353 6.832468504890406 2.3223957900924357 0 0 0
254 2 15.19957940823907 4.979184809467753 0.7297858023421323 0 0 0
181 1 16.183599703321587 4.1582374308289225 6.074270002939246 0 0 0
182 2 15.785000957532898 3.551420395588857 6.713011028986595 0 0 0
256 1 17.774684903310582 5.81509002531128 7.540359448336389 0 0 0
255 2 14.36125795620153 3.679749488034627 0.5861879086974005 0 0 0
253 1 14.912479893316615 4.206613585109794 1.2190782139148593 0 0 0
157 1 14.161106502692045 2.1724754697739352 5.336887009773982 0 0 0
185 2 19.248472459688674 5.506346356630456 12.706986185962311 0 0 0
278 2 16.39154867396774 5.529503037489823 3.2795298898540617 0 0 0
159 2 14.490169070437949 2.4503008012277907 4.422173607592449 0 0 0
16 1 17.379648571663363 7.087393684047449 10.962453248580585 0 0 0
258 2 17.872593615047325 5.18589603429041 8.313064880994517 0 0 0
370 1 5.163657015728593 2.792138697221878 4.117375416388392 0 1 1
80 2 5.7813058660630405 1.7050843008041392 0.5320236071958055 0 0 -1
306 2 16.883036297041212 8.751654180259026 8.313983907225454 0 0 0
79 1 5.197207125169286 2.4635366840520714 0.7689785960033926 0 0 -1
246 2 9.101735691252866 7.316135466876014 4.509792394026753 0 0 0
108 2 9.623632653966544 9.095100434948122 13.132573574459784 0 1 -1
300 2 13.51359193460632 9.087071167200111 7.7710551972515 0 1 0
221 2 5.604350698210378 3.7963663121999778 1.6805631554036244 0 -1 0
348 2 5.139798813918682 3.5397026635111053 11.416018267206644 0 1 0
251 2 9.964077469887465 4.668069462599092 9.19034032675417 0 1 0
139 1 6.540588165093075 7.238407190447957 6.971506698042946 0 -1 1
276 2 3.52271314388733 1.825382911098924 3.24291249238231 0 0 1
313 1 5.701105614618039 8.398791904708123 4.516787447442129 0 0 0
252 2 9.013102358115665 4.5774685490758715 7.834396689411139 0 1 0
91 1 4.335226246685659 6.722391702753448 2.957188850266849 0 0 0
195 2 12.974902430301494 3.9746600615080765 5.087450501613332 0 0 0
229 1 12.663521931183727 0.9084218435328111 1.593090665502158 0 0 0
194 2 11.739872207882094 3.76105086771704 5.930487330901585 0 0 0
193 1 12.020888883788148 4.259819096318839 5.136203657762226 0 0 0
141 2 5.698294486448069 6.861385302329935 7.406552111440807 0 -1 1
234 2 14.582436994528468 2.3860178107038936 8.348179451882743 0 0 0
96 2 13.605786417114379 7.92699638685577 5.6441866338592055 0 0 0
34 1 16.337121515194973 17.250388222560908 12.36803167367161 0 0 0
380 2 16.61086570574108 15.147437783772016 4.609697541387958 0 0 0
158 2 13.326870195627176 1.5705719723414189 5.215726646545783 0 0 0
12 2 5.182126140388205 5.423302663760338 8.462798516938122 0 1 0
35 2 16.968539239127875 17.546206010252106 13.094326654627617 0 0 0
267 2 9.556122661415811 1.8812876673748335 6.390348945303434 0 0 0
266 2 7.999005837238904 1.9556920402100741 6.248058961325867 0 0 0
48 2 24.40184454504993 17.264555637482538 13.10900441592199 0 0 0
86 2 11.00871864276324 9.068813055492653 10.178359639607114 0 -1 0
226 1 13.13222650109106 10.914287091157675 4.620192777730283 0 0 1
77 2 10.113931974340355 10.979996050752716 6.373972183941706 0 0 0
227 2 12.19788503116803 10.732596730747574 4.749140769076156 0 0 1
82 1 9.912351189590838 12.133731983781441 9.074365179265724 0 -1 -1
166 1 18.88750185735445 11.001512432376904 11.89795160970658 0 0 0
228 2 13.22307747232226 11.865017926777613 4.7391572765542325 0 0 1
330 2 10.598677193001285 10.370463110774255 2.8254405511802694 0 0 1
74 2 -0.12592704269997512 1.6605025253905623 0.08197345017595044 0 0 0
281 2 20.15361442561231 7.7492134518884 10.1442946393849 0 0 0
120 2 17.7994461670142 13.785204445616028 13.221538870642105 0 0 0
176 2 11.7817430439247 14.179640561459564 13.015584270462423 0 -1 -1
294 2 9.025755564241864 12.521838560809048 10.593142980412638 0 0 1
270 2 10.797157039492044 16.424479880949445 9.715029129364806 0 0 -1
118 1 17.410752583364374 13.163882377879611 12.552908288743376 0 0 0
322 1 2.8560856501902423 0.841705938318684 0.4907303200340347 0 1 -1
238 1 17.905049962283112 9.927403725578312 8.538289647595025 0 0 0
209 2 18.100136943334473 3.4474830542545214 9.03869325062025 0 0 0
196 1 13.218648402764256 11.56216130588476 0.6428844203345869 0 -1 0
83 2 10.797388044692964 12.469559077323222 9.434969047569226 0 -1 -1
290 2 8.16364528577598 8.386180863372616 2.0207087556629437 0 0 0
334 1 15.748456925385689 12.983019993152652 7.124687999865727 0 0 0
285 2 18.841976529207333 13.54931048361487 1.9336479606630395 0 0 0
375 2 4.339878186571969 10.81642037552686 3.3427732527110083 0 1 0
147 2 12.899649457378343 13.248358754127525 9.603543504382387 0 -1 1
364 1 6.938231780988212 9.521803657089428 2.2949343780133935 0 0 1
320 2 8.589534827765446 14.131275184409656 5.2282595082804315 0 0 0
344 2 13.340739364042442 13.118348830992355 6.618534169529695 0 0 0
242 2 4.560834598205285 8.827315297288973 0.2821329423175857 0 1 1
374 2 4.41857316832212 9.58957979627747 4.245930644698655 0 1 0
230 2 11.768137706753146 0.5820387941709452 1.3647846331893851 0 0 0
132 2 11.129302918289222 8.995344399004049 6.80200971393441 0 0 1
56 2 14.019042887696795 13.130915501502484 12.835214778162426 0 0 -1
168 2 18.498556069838063 11.858806054163486 12.126685677672148 0 0 0
245 2 7.860116147907595 8.13811168587173 4.86402271743483 0 0 0
145 1 12.026876340190157 13.364600131865807 10.078883220770606 0 -1 1
57 2 14.861083520364007 12.039450588553613 12.102994709002424 0 0 -1
328 1 10.781129220822582 9.685307210163499 3.5315600038535675 0 0 1
199 1 7.556307487810825 12.214199960893136 2.6776509920033216 0 0 1
28 1 10.826390022905562 12.081114310723079 1.8630997615372062 0 0 1
336 2 16.361022915343703 13.532553834853886 6.613537610448891 0 0 0
366 2 7.11838131582276 10.481356703107698 2.263565627320052 0 0 1
287 2 21.71199760950341 15.577365287744806 9.088926391079925 0 0 0
224 2 12.142263940097203 14.257055257951409 3.7909314468929534 0 0 0
55 1 14.814510237828483 12.586335786539948 12.950518424670516 0 0 -1
216 2 20.449041796982446 11.929221714752181 8.785243392989168 0 0 0
329 2 9.888919518553196 9.294265361957862 3.6597583957694173 0 0 1
33 2 9.762654857456974 9.411006941444759 8.140432635279344 0 0 1
312 2 17.75604096523992 15.309711915261586 9.122097832757907 0 0 0
335 2 16.40947422988691 12.626914608385135 7.7603702314878795 0 0 0
97 1 13.940637848398197 13.732927249984956 4.262231594982964 0 -2 0
268 1 10.84686965436771 15.860197134695799 8.907964469890596 0 0 -1
98 2 14.307770232836468 13.845920608968488 3.4050788542422286 0 -2 0
310 1 18.17896067336586 15.344985021065973 8.251967877146662 0 0 0
273 2 14.149713668215417 15.39137170530217 9.013406768970945 0 -1 0
197 2 13.862038236437934 11.422572373460575 1.3785956530554573 0 -1 0
241 1 10.521432897293883 12.623520373436477 13.452795524134073 0 1 0
345 2 12.034279269859512 12.342714875626463 6.910906468028389 0 0 0
319 1 9.002258094244139 13.390830525986724 4.815283526562832 0 0 0
272 2 14.881250733086825 14.216496365903652 8.30503306073373 0 -1 0
264 2 19.592494392804706 12.397007245082238 6.828656805875032 0 0 0
142 1 15.41101734047011 11.34532217492389 10.65990795415402 0 0 0
263 2 20.56235600530811 13.573747021896509 6.973506460759656 0 0 0
121 1 5.7914882503646545 12.757563666786274 0.4861045234346991 0 0 -1
269 2 11.241457592880833 14.995075174450955 9.238896441594253 0 0 -1
169 1 3.0583179491517702 4.386673609228953 6.052855469624223 0 -1 0
215 2 19.8571520228489 11.156122436745067 10.104605304122169 0 0 0
271 1 14.641964387261499 14.604116138813866 9.187914518121904 0 -1 0
262 1 19.967517814793844 12.985444784690259 7.506497658483634 0 0 0
465 2 18.01571842614341 8.418579430905025 1.1949731603128109 0 0 0
192 2 21.465613653766415 13.801962109522204 13.204087558916976 0 0 0
214 1 20.60979890973063 11.156917145863181 9.405609357513327 0 0 0
240 2 18.22873353191465 10.325779007201392 7.707873054105597 0 0 0
321 2 9.748408236308224 13.847652081404876 4.376321215790611 0 0 0
343 1 12.840917081849058 12.692317776307664 7.2968627136898565 0 0 0
153 2 14.747650630728627 16.513373189441584 12.82718183244281 0 -1 -1
363 2 5.512446202308598 12.068171985401811 4.881556059558669 0 0 -1
291 2 9.392487056692925 8.089188474508122 0.8580090283578269 0 0 0
173 2 6.892299193133852 10.395047183313418 9.804807788521453 0 -1 1
51 2 11.858334022352748 8.590385894297265 3.0258799864965873 0 0 -1
200 2 6.768894402932104 12.368058950995822 3.260302929361759 0 0 1
88 1 13.508773854157917 10.763831213584307 8.922352007507795 0 0 0
198 2 12.383725493948646 11.900073730733292 1.084306844753478 0 -1 0
84 2 10.054510846902588 12.083646276919277 8.087958214328967 0 -1 -1
152 2 8.494039317181372 13.545677891993478 0.08518247512169917 0 -1 0
311 2 18.677167640705388 14.480354582295043 8.127668650482471 0 0 0
359 2 17.076915844399256 14.441865267607998 11.177516378650488 0 0 0
265 1 13.862257524064786 15.544940148320709 6.110308878883862 0 -1 0
41 2 21.613051664196487 10.321846312115749 13.346211331918287 0 0 0
72 2 17.612361786735015 11.400611742889925 9.101436690952838 0 0 0
42 2 20.30231988012077 10.341465248507722 12.587153718786853 0 0 0
177 2 13.113809762370577 15.091692426207677 12.743026489515803 0 -1 -1
190 1 21.10476581131347 13.062317955460744 12.676756435031063 0 0 0
223 1 11.216217755829616 14.40116833944537 3.546604062294273 0 0 0
191 2 21.858570543815922 12.500432083692768 12.39376717839758 0 0 0
382 1 19.425436598575416 16.266606854846767 11.913907700177905 0 0 0
19 1 17.29927646233015 12.334723401213402 4.142823801260089 0 0 0
20 2 18.041612698298692 12.56438958059335 3.531171803860604 0 0 0
21 2 16.53619159602968 12.043555659022466 3.595730969471057 0 0 0
379 1 16.993015420885307 14.594354482913966 5.311309034164442 0 0 0
43 1 21.390405913591355 14.954984199662034 6.310662849519423 0 0 0
381 2 17.088314059161778 13.789078376648543 4.769302456339163 0 0 0
67 1 15.195770051942224 11.081627072476598 2.8080560415636113 0 0 0
68 2 14.37898603190906 10.868931614090553 3.241686280075418 0 0 0
69 2 15.407372981297407 10.144825629495744 2.5716537995800977 0 0 0
119 2 16.52017932804135 12.977760212708672 12.86882089940995 0 0 0
146 2 12.207429524296469 13.765117131330522 10.970815151426768 0 -1 1
360 2 16.00820229307607 14.956495550089715 10.072680428991081 0 0 0
115 1 15.27541482837577 10.25150126388387 6.424492746741656 0 0 0
116 2 14.36390771933283 10.090190474594214 6.080643642613308 0 0 0
365 2 6.360748523610073 9.363464290183968 1.5456467429597345 0 0 1
136 1 11.605510004941673 10.224231960009504 13.26564196779228 0 0 0
144 2 14.715972358123887 11.247868997221047 9.956064600174203 0 0 0
383 2 19.301455784524816 15.505085856853462 11.258927254796951 0 0 0
163 1 16.663912937440767 8.676867623979623 4.77774813665106 0 0 0
286 1 22.035815176314884 14.670534041349049 9.36040149961477 0 0 0
165 2 16.26740840985036 9.454534896622107 5.1947578746933125 0 0 0
187 1 18.829965939835947 11.096209728226677 6.14154183621048 0 0 0
188 2 19.356621827721806 10.664341615438076 5.420288730028638 0 0 0
189 2 18.01030388444242 11.348469695106951 5.6552405743692225 0 0 0
30 2 10.080270327111506 12.319567504095696 1.2867060967310928 0 0 1
211 1 18.095863023501877 9.58087567658331 2.3744928236815714 0 0 0
213 2 17.478336401200163 9.334483208544833 3.140451980731563 0 0 0
235 1 15.243748828140326 8.416188033037189 1.9101646771036704 0 0 0
236 2 15.322012547398142 8.401505207381458 0.9655247586049651 0 0 0
78 2 9.704839097436068 12.467409896776147 5.857216627499582 0 0 0
260 2 17.824228896561518 11.922978343426989 0.3677315153627778 0 0 0
124 1 3.1282898159214696 8.522331561802973 1.1903725182895701 0 -1 1
259 1 17.061413631661377 11.497659357106933 0.7747116243668002 0 0 0
117 2 15.275602978605718 11.174396625585352 6.84388332562998 0 0 0
261 2 17.451980525724448 10.947562683099745 1.5290839672395025 0 0 0
283 1 19.40496575607886 12.942991305808016 2.4214631076126287 0 0 0
347 2 11.188924200341752 16.625391677784556 12.146696129616664 0 0 0
249 2 5.609831174429352 10.536725822327668 6.199933388335472 0 0 0
307 1 15.272085504743913 13.806639076970205 1.546767549549551 0 0 0
89 2 13.163232795110689 11.521256702926026 8.409327076602905 0 0 0
309 2 15.582181033275042 12.96089410911306 1.1979337919065307 0 0 0
29 2 11.01652968752618 12.9277793648311 2.415917946800596 0 0 1
49 1 12.676615700290371 8.091281927769165 2.7754830352589033 0 0 -1
175 1 12.671060305296159 14.169135558583037 12.549143261088519 0 -1 -1
326 2 7.9514026462444605 15.182364615212009 7.432838822099972 0 0 -1
358 1 16.812742898307043 15.215182838953364 10.629539584549043 0 0 0
289 1 8.94868465396066 7.810252935990018 1.745795820311156 0 0 0
22 1 19.543697469514594 13.750959504020855 10.611353381139383 0 0 0
23 2 20.275339343407058 13.885440616708335 9.943692674159072 0 0 0
24 2 20.064264602384945 13.377446927359053 11.356664111270772 0 0 0
143 2 16.060323568966943 11.916620411997982 10.327474550819186 0 0 0
46 1 23.79359796216937 16.546726353905118 12.950735433840599 0 0 0
70 1 17.498850770083745 12.366072545687501 9.24708715485091 0 0 0
71 2 18.1825705100626 12.658279743109253 9.887088667329747 0 0 0
325 1 8.6975127130006 14.55490693866141 7.3309177454907735 0 0 -1
130 1 10.222458856697667 9.285915391797996 6.632054066469166 0 0 1
151 1 13.917354040759273 16.284972462887342 13.250021270901852 0 -1 -1
201 2 8.2729192732092 12.645693538145187 3.2296466874847587 0 0 1
323 2 2.705973575661975 0.9869022116761192 1.4526138348663107 0 1 -1
131 2 9.759200008527495 8.68902974293506 5.970448016940622 0 0 1
76 1 10.369382991802476 11.943113404939345 6.415334157768011 0 0 0
327 2 9.218312348535584 14.666903240052264 8.156618572207408 0 0 -1
32 2 9.767101145288681 10.40447351094472 9.36877154013341 0 0 1
293 2 9.221925540866224 12.985396169161303 12.094122272709079 0 0 1
243 2 10.945067849416628 11.715055190036628 13.313911379854211 0 1 0
244 1 8.792549524350022 8.159093031969338 4.843016436991351 0 0 0
99 2 14.037419764505367 14.537101772143554 4.87256152678852 0 -2 0
384 2 19.198636617418092 15.81523287067212 12.714222226890012 0 0 0
11 2 3.94563965102659 5.403011182864109 7.486461383574254 0 1 0
122 2 5.452481614526425 13.640788351780774 0.7155564877767836 0 0 -1
37 1 18.835670874953514 7.8704490826844244 6.160106885117211 0 0 0
314 2 6.149570078298577 8.717414821493982 3.7216898211630642 0 0 0
292 1 8.553222844848852 12.891331775645515 11.376541191996164 0 0 1
180 2 7.568651507896705 13.274641906796973 7.82670507114984 0 -1 1
123 2 6.572235725427257 12.677873540641317 1.0691389922865162 0 0 -1
90 2 12.770645523241669 10.35066023041307 9.386416479359921 0 0 0
167 2 18.135472565607962 10.393323906126506 11.823978329212778 0 0 0
308 2 14.647389962386288 14.075121827447656 0.8550716680630597 0 0 0
137 2 11.84196153889678 9.97093628712806 12.360084253640656 0 0 0
54 2 5.755353804583316 7.945169088072016 10.541710588815882 0 2 0
378 2 16.06352169418982 10.068103016908912 11.427825678262122 0 0 0
36 2 16.663760640999474 16.403325176376278 11.914499494159207 0 0 0
725 2 21.294149362095332 8.541733409643086 11.699403559681738 0 0 0
461 2 17.407336059740754 1.8770263009458725 6.846966738711829 0 0 0
31 1 9.63883890170155 9.446347855530524 9.157785848494681 0 0 1
138 2 7.204206616778044 6.290701939188875 0.33965214518494746 0 0 1
95 2 13.602001747694137 7.908750094686004 4.096082762624123 0 0 0
237 2 14.299416083752833 8.433268729195284 1.9921819580578612 0 0 0
47 2 24.055065005871157 15.983338188936939 12.105665301709529 0 0 0
3 2 3.6291528543137126 10.583898976315652 1.2453639947573243 0 0 -1
10 1 4.503721539494112 5.947673863505267 8.037543111748867 0 1 0
25 1 1.8529392722061442 4.498897768693405 1.4435168922105597 0 0 0
178 1 6.647786863895206 13.029676241692231 8.101804226585296 0 -1 1
45 2 21.442769690179787 14.564733543766526 5.425167036433914 0 0 0
247 1 6.1854824286160675 11.287467841666578 6.067436353853893 0 0 0
361 1 5.454551911262091 12.781163916141 4.193865213383735 0 0 -1
206 2 16.25122966393567 2.5724996402963076 3.4154349448522843 0 0 0
459 2 15.300703862987412 1.0877772853315115 1.408920097567411 0 0 0
468 2 20.150713614313663 8.962000275519493 6.991121243450141 0 0 0
288 2 22.49023953787024 14.333124235745055 8.546554112231346 0 0 0
317 2 1.6261554021890523 3.9448455399592297 3.4028212144307597 0 0 0
282 2 19.90557336030631 7.3451351011727075 8.740567207596452 0 0 0
342 2 4.043759203717294 5.156117860884134 10.280978988212759 0 0 0
385 1 21.915014428459557 4.879110748407368 4.012377225386163 0 0 0
386 2 21.69530129214247 5.798343092377518 4.26780911851748 0 0 0
387 2 21.147828705897638 4.451188328870307 3.6265500536906345 0 0 0
409 1 26.035369003522405 8.460282267389703 6.188998911425568 0 0 0
483 2 19.272037225849353 3.7254945476476258 6.430386310559964 0 0 0
425 2 36.747611235946536 10.24328037997356 13.212835165834182 0 0 0
463 1 18.195373076374707 7.83360976539758 0.39726096528061433 0 0 0
433 1 19.70901828254543 3.274745522709809 2.9451098396366118 0 0 0
434 2 20.00017245323479 2.3643536946119745 2.6868795302629342 0 0 0
435 2 19.34463875992813 3.6600880741492103 2.109068564608032 0 0 0
602 2 26.00762767268677 14.406027142364726 1.8949556087307928 0 -1 0
204 2 32.798594462958405 6.407617377465589 3.5127982384680383 -1 1 0
677 2 22.328936467039394 8.666489865109119 7.969993439872317 0 0 0
481 1 20.111289642568256 4.082902817529404 6.1771970043822995 0 0 0
482 2 19.878570094840683 4.626795108796623 5.436258649106288 0 0 0
650 2 24.910393461688315 6.257768560323162 3.5948674856289826 0 0 0
75 2 30.632946390081877 1.3005960097003924 1.4471354637477476 -1 0 0
506 2 18.385538455447282 3.161291704608296 3.814542581128307 0 0 0
529 1 21.613785869750274 2.106488973977564 5.259176289032477 0 0 0
530 2 21.183190921096894 2.955627263675199 5.532824131193972 0 0 0
531 2 21.952363498619324 2.4367402413621813 4.371851092714395 0 0 0
553 1 23.5789253445564 4.25049292428585 6.092779643935946 0 0 0
554 2 22.81706178328664 4.203033671432899 5.475461399244331 0 0 0
745 1 21.794799404056985 7.420362492396041 4.973023804079397 0 0 0
577 1 23.10016243192268 2.4294979184331225 2.6630801180875006 0 0 0
579 2 22.78251763533742 3.2349567371646817 2.211918608984869 0 0 0
601 1 20.295585177609105 1.0015286437637028 1.7393391001706742 0 0 0
666 2 34.912470723858604 8.066417873913776 9.996649998853929 0 0 0
603 2 20.540044840532037 1.5117686667306443 0.9476786897346838 0 0 0
410 2 26.86889613911462 8.810601779575785 6.559858389384877 0 0 0
625 1 21.871735404150428 4.61746940638109 0.8783856584544415 0 0 0
627 2 21.165722960758863 5.113289531253616 1.3772224496064769 0 0 0
649 1 24.2117966336311 6.0957362890641456 2.848797698400915 0 0 0
578 2 23.01767775015198 1.687879620256493 2.0003866355835487 0 0 0
651 2 23.50562476113291 5.617125991406459 3.276091472764737 0 0 0
673 1 20.32951531555659 6.804466343353023 1.7587912702184838 0 0 0
373 1 35.42095204535025 10.420878003756712 4.164697863624294 -1 1 0
675 2 20.017239979770093 6.787396851568598 2.683725314212987 0 0 0
697 1 18.48871645404844 4.353171355977192 0.5756897690866329 0 0 0
593 2 32.23990256299551 3.986284410392792 10.183949247640191 0 0 0
505 1 17.662425137686412 2.720349202140592 4.352477404164032 0 0 0
746 2 21.64919784748261 7.22591728210801 5.93749137584098 0 0 0
721 1 19.142248524504215 6.100058870461458 4.041095264009347 0 0 0
626 2 22.475826238681 5.271689558814857 0.4579027115073213 0 0 0
340 1 35.118902886445206 4.505370761561441 10.879984178702637 -1 0 0
411 2 25.711100850486577 7.716600570265519 6.687453574495176 0 0 0
678 2 22.586772199148417 8.274789600000386 9.3398737499409 0 0 0
388 1 24.498396273591077 6.861262686429065 10.890856432000021 0 0 0
389 2 24.352682752335543 7.853141831566734 11.077030970205987 0 0 0
390 2 25.041115332554373 6.690097594958868 11.72000204436121 0 0 0
412 1 28.58854415322617 10.057458784709809 13.166215399657794 0 0 0
357 2 34.81619552408279 8.927714567242894 6.519412129035063 -1 1 -1
436 1 22.65697417572913 5.478437911038927 9.33744798434124 0 0 0
437 2 22.000112533263483 5.44330898598792 10.0682377335966 0 0 0
438 2 23.470931083286253 5.945119218130983 9.678451289655998 0 0 0
699 2 17.977228778038295 5.035316075878865 1.0217351393774308 0 0 0
654 2 27.683598527843557 7.943031103550213 9.861097357142672 0 0 0
748 1 24.43682973597716 9.453956966980495 11.808396105931793 0 0 0
485 2 22.764732221007236 6.564141781299854 13.402333343788223 0 0 0
484 1 22.38381833828819 5.877927778023618 12.820120286052608 0 0 0
508 1 20.400202834001643 4.8921681753444775 11.122866397514889 0 0 0
510 2 20.83274642700409 4.040597913187398 11.45073067740843 0 0 0
558 2 26.4247317389606 6.934495567044109 13.408316477902 0 0 0
532 1 23.961067875814418 3.9247667725450714 11.627572240239102 0 0 0
533 2 23.411858110418592 4.650199838373395 12.093051619610623 0 0 0
728 2 20.873838774835168 13.342679542412897 3.5591803718426105 0 0 0
556 1 26.0184291210977 6.200916881528718 12.945425136838544 0 0 0
557 2 26.675910367483723 5.727393690880214 12.356555172031241 0 0 0
580 1 25.677296771734238 4.499375222681599 9.51708729778408 0 0 0
581 2 25.047321794970212 4.2949179624337654 10.25974929445046 0 0 0
582 2 25.326445222268198 5.298073561731877 9.020531705834786 0 0 0
630 2 24.35598464950772 5.806999024526308 6.941270168612951 0 0 0
604 1 22.783630941351948 3.1294399601522462 8.413272164247047 0 0 0
605 2 22.644346264787934 4.016441290645866 8.77568341871482 0 0 0
756 2 27.577476935381252 17.06452154309878 11.931767023941982 0 0 0
462 2 23.92078829262546 15.885152701229588 7.361829591314249 0 -1 0
628 1 24.971615946817003 6.363303597199078 7.483112746129423 0 0 0
629 2 24.359885576476202 6.9933248874290355 7.87890651090202 0 0 0
476 2 26.61197182100148 7.42164667616612 1.0610675315718183 0 0 0
542 2 28.058217149474142 1.5145542470427984 5.1865347316583295 0 0 0