LAMMPS data file via write_data, version 8 Apr 2021, timestep = 500000

384 atoms
2 atom types

0.09299382565056105 14.977104174349856 xlo xhi
0.025635498242907884 14.144597501757787 ylo yhi
0.11214054755947665 13.593582452440323 zlo zhi
5.107727880618129 5.0556573557074875 3.5474805226266537 xy xz yz

Masses

1 16
2 2

Atoms # atomic

1 1 7.384745700788943 4.939129143264632 4.0140679407652815 0 0 0
2 2 7.319535677960714 5.882016746941858 4.324103732498602 0 0 0
3 2 6.5050400117435965 4.613840653594005 3.7231530314859436 0 0 0
4 1 9.979536381215564 6.780363095372285 10.838704784382681 0 0 0
5 2 9.703050731152455 7.622521754404994 11.124306950043014 0 0 0
6 2 10.53858530883017 6.450036926781764 11.542500718035777 0 0 0
7 1 9.854152370216033 12.189371885686324 4.214304891433593 0 0 0
8 2 10.50745976127339 11.799496374040578 4.797624243282927 0 0 0
9 2 9.87986185480562 13.150173034005993 4.372856892354902 0 0 0
10 1 12.828744926713163 14.277299420529578 10.86990171364195 0 0 0
11 2 13.479626915540907 14.501428187722942 10.11116107125367 0 0 0
12 2 12.124899167214071 13.645956869420615 10.641426801813335 0 0 0
25 1 11.443222913106972 8.10547722662571 6.376347042730226 0 0 0
365 2 10.571630866030594 9.947965966320789 12.05539453160601 0 0 0
27 2 11.168401739274374 7.489326146646149 7.070988072638463 0 0 0
28 1 14.098890149839926 10.044803519541329 12.94044340197959 0 0 0
29 2 13.454930986242008 10.722824284863664 12.612169167262667 0 0 0
194 2 8.484663467996114 1.8568405937775565 2.0375532807275385 0 0 0
31 1 13.96847936759974 15.150089692247493 6.339180624431933 0 0 0
369 2 10.558723960842606 15.14678785571024 4.9866023446895875 0 0 0
33 2 13.244466635090296 15.597244435873014 5.837143516750762 0 0 0
34 1 16.584770430140225 16.816028336174533 12.888308016247871 0 0 0
366 2 9.151288585432034 9.889346763609382 11.518511216489104 0 0 0
45 2 7.0482003348226785 14.70539885302425 5.510660144261504 1 0 0
49 1 5.107713959953246 3.648958636973203 2.9372289281521753 0 0 0
50 2 5.5131983818992945 2.867457321507294 2.539508204944875 0 0 0
51 2 4.7094525064822035 4.165301720125906 2.2146237613058357 0 0 0
52 1 7.700149890639419 5.394989842824075 9.469944129612848 0 0 0
53 2 6.937418091220428 5.350285517712578 10.09023184189122 0 0 0
54 2 8.299204240527542 6.073830532716722 9.798813479871304 0 0 0
55 1 7.86949582359461 10.691587347496537 2.625355312239545 0 0 0
56 2 8.088411991299655 9.717147145463057 2.455547245983751 0 0 0
57 2 8.589182831784054 11.080658871586051 3.1536005330546395 0 0 0
58 1 10.468144681309285 12.741648323741517 9.69357588434229 0 0 0
59 2 10.106010576299623 13.20833129636096 8.93092361492324 0 0 0
60 2 10.774524642656473 11.830126645255053 9.387840920432225 0 0 0
73 1 1.0882387665424613 0.8326440599126073 0.5945789372283572 0 0 0
74 2 1.868315569032169 0.34468992128264436 1.0087558965152834 0 0 0
368 2 3.994613688097326 1.3284977620764937 4.705681794646164 0 1 0
76 1 3.881686823031168 2.6792215876682564 7.551061381802521 0 0 0
339 2 3.626447477537747 5.900911530452223 3.7054206242895016 0 0 0
78 2 4.626290777651558 2.0682225589122614 7.784947887855164 0 0 0
341 2 7.059457486124107 8.686953076587962 11.534560968483165 0 0 0
80 2 4.517520682581911 7.445732081094475 1.1486403462149781 0 0 0
370 1 11.979683489364753 16.53159017008493 12.242609094742384 0 0 0
82 1 6.2229784735294915 9.452573460067159 7.321553922537813 0 0 0
367 1 9.719978218902563 14.700139012057722 4.986948418258829 0 0 0
273 2 12.824597158721568 13.123852692154255 3.3168756083336692 0 0 0
97 1 5.222432760137933 4.490957981109939 5.925996919050401 0 0 0
98 2 4.815007377916926 4.978671344245745 5.226263201422139 0 0 0
99 2 4.5604148360370305 4.02151207143951 6.487293182000806 0 0 0
100 1 7.819845136082376 5.922003091433346 12.631702139723435 0 0 0
101 2 8.111293156779688 6.641871238645088 13.212614878134955 0 0 0
102 2 7.084931880385968 5.386377978833467 13.049767744589309 0 0 0
103 1 7.893048092412363 11.357591921438067 6.24399332541986 0 0 0
104 2 7.1204744898192 10.790721099056732 6.481045549875141 0 0 0
105 2 7.606149413415256 11.947030333918248 5.493431077150143 0 0 0
106 1 10.435846404736557 13.363669486312407 12.68809402653207 0 0 0
107 2 10.49847445771841 14.073205187730816 13.404241056649475 0 0 0
108 2 9.635855787905593 12.840382610847048 12.985296157201452 0 0 0
121 1 2.868400568620058 2.7500602495627557 4.148887879062551 0 0 0
122 2 3.6436100952846036 3.17582371309579 3.7815265802669247 0 0 0
77 2 3.1800335163201243 2.1716647418096167 7.1259504792624515 0 0 0
124 1 5.826122335760072 4.741316884629826 11.105384965336652 0 0 0
363 2 7.582302835421187 8.161825873679707 4.928937807115997 0 0 0
126 2 6.119038985397539 3.8462951769798464 11.412501136547622 0 0 0
127 1 5.535155796013914 10.016356573581891 4.090213912372153 0 0 0
128 2 5.900018028398012 9.097147431438902 4.301534357235198 0 0 0
129 2 6.248280060477263 10.378592905948727 3.4873760999421735 0 0 0
130 1 8.195462241008524 11.500580620877681 11.181862712887437 0 0 0
348 2 8.800896272659196 15.172079698920452 10.43621755449811 0 0 0
132 2 8.888343993647702 12.014635704761343 10.741689015661692 0 0 0
145 1 6.809212414434309 2.0189231564325527 4.844467019008232 0 0 0
146 2 6.56332012882215 2.934152552861407 5.073892578113387 0 0 0
147 2 7.153776232769749 2.0372405073436783 3.927776620639812 0 0 0
148 1 9.117127552840572 3.6844859503694574 11.879387317587879 0 0 0
149 2 8.787349041577341 4.627570447513517 12.019289523797488 0 0 0
150 2 9.888431000884864 3.4576127645742822 12.486131888894324 0 0 0
151 1 9.210984318118271 9.140663389209017 4.903344582548205 0 0 0
152 2 8.83254954017475 9.947904454977557 5.330757905082101 0 0 0
153 2 9.922368215124976 8.86967446421368 5.4959440970846005 0 0 0
154 1 11.904928299185551 11.223470439427814 11.882606726160192 0 0 0
155 2 11.630643035752882 12.086504979621353 12.192225491505665 0 0 0
156 2 12.311721782663971 11.381520482589355 11.028805282619105 0 0 0
169 1 9.184612419742919 4.27369990457728 6.330143670436462 0 0 0
170 2 8.399058592302534 4.508655911882335 5.758424325803634 0 0 0
171 2 8.822475980521576 3.710148053327025 7.03202756584881 0 0 0
172 1 11.73084379873682 6.000236644135334 12.728289469951038 0 0 0
173 2 12.470201591801725 5.894697288963874 12.087073377587839 0 0 0
174 2 12.019766657323673 6.840895651977021 13.204257498146225 0 0 0
175 1 11.375498615179806 11.347104249140049 6.157340598184094 0 0 0
176 2 11.185203378885825 10.864614739565578 7.002696685661807 0 0 0
177 2 12.098278801027153 10.821584662438118 5.692545164331555 0 0 0
178 1 14.405201691033623 13.071000550088465 12.967017471679103 0 0 0
179 2 13.842706521059608 13.539469605385358 12.219541398901008 0 0 0
180 2 15.21178114671643 12.785336967133013 12.46637411942481 0 0 0
193 1 8.36530037540338 2.6654086954730913 2.5997029039568065 0 0 0
79 1 3.7859192260363455 7.971334489191854 0.7418310405079003 0 0 0
195 2 8.084905311783949 3.4337301905528803 2.007119364295992 0 0 0
196 1 10.818824511129499 4.093834087056621 9.76431366321653 0 0 0
197 2 10.126947301125131 3.7459261904339183 10.329612667801916 0 0 0
198 2 10.485544979241133 4.914481753453702 9.404899205287256 0 0 0
199 1 10.936929826394945 9.987188676673064 2.7285060684779014 0 0 0
200 2 10.559365012926909 10.832135772005167 2.291207029898577 0 0 0
201 2 10.310183949233634 9.827330192728258 3.467974122304752 0 0 0
202 1 13.32536200852179 11.502484755793603 9.591544101676094 0 0 0
203 2 13.053386897334963 12.280542837271426 9.024659989486898 0 0 0
270 2 12.857268677667136 8.025988692942802 9.955071958882977 0 0 0
217 1 5.812412172145012 1.2712149133582862 1.69565232135903 0 0 0
218 2 11.352271322819961 14.541174752409129 1.9011219282482021 0 -1 0
219 2 6.022515574655773 1.4065554758017522 0.7104863440806247 0 0 0
220 1 8.276012013594888 2.939956670280052 8.567302689640124 0 0 0
221 2 7.995273352914339 3.7799392578304363 8.958336100900187 0 0 0
222 2 7.403156423937917 2.5069762859246247 8.434992416445315 0 0 0
223 1 7.999415803885097 8.354318898263804 1.8649734598066636 0 0 0
224 2 8.618479265106009 7.628085024134837 2.1600834693855546 0 0 0
225 2 8.295599286428718 8.574404710021312 0.9719820536149855 0 0 0
226 1 10.758839801350776 10.075501121961157 8.579897503980067 0 0 0
227 2 11.382321637271694 9.366173039095147 8.742837676707573 0 0 0
228 2 9.879296501345445 9.731293783062727 8.737601496963668 0 0 0
241 1 7.465174780060941 4.482433719504482 0.8096648840597811 0 0 0
242 2 8.162416597957206 5.153886297282666 0.5306537978033032 0 0 0
243 2 6.793947674557359 5.0982487269445 1.2526192121520248 0 0 0
244 1 10.162148206703584 6.227408490615005 8.019753970286322 0 0 0
245 2 9.508429123237274 6.916896654087633 8.119581207114589 0 0 0
246 2 9.98745332501235 5.669495160598965 7.227638314026998 0 0 0
247 1 10.079622510895494 11.743116694812205 1.018617841568806 0 0 0
248 2 10.73655028636603 12.155144125011557 0.5034499415806147 0 0 0
249 2 9.772698144066602 11.030832818017089 0.4152409602099002 0 0 0
250 1 12.498953420724883 13.298992012339573 7.559506546241173 0 0 0
251 2 13.19789758840321 13.847755775889956 7.163463126364197 0 0 0
252 2 12.148993583372594 12.634321511206299 6.939809178803966 0 0 0
265 1 9.514652583615137 5.959953858939876 2.7427890877277603 0 0 0
364 1 9.767099050758453 9.306900176798178 11.980306916687978 0 0 0
267 2 8.90458832485441 5.408383218285956 3.2549296133015453 0 0 0
268 1 12.134329110466355 7.883896448642719 9.359648768162169 0 0 0
269 2 11.556797469953692 7.2564353466655644 9.808155302243383 0 0 0
338 2 4.3292587190733505 6.758700046686865 4.795173634649851 0 0 0
271 1 12.077056379774275 13.067322364388913 2.6607095810634385 0 0 0
272 2 11.336927906752026 12.568044450863098 3.1303560567193203 0 0 0
125 2 4.972199510126589 4.496427400721938 10.645281118950585 0 0 0
274 1 14.853364210438178 14.955176694583265 9.373093921470648 0 0 0
275 2 14.44927587255196 15.809837458325127 8.98497946413213 0 0 0
372 2 12.835507294500943 16.936146074582023 12.332264917240964 0 0 0
289 1 5.867668513775783 6.506775881738073 1.6950346870014383 0 0 0
290 2 6.4962571412746115 7.248727577794259 1.7440424478432297 0 0 0
291 2 5.561299472184522 6.521787253338535 2.641226620343031 0 0 0
292 1 8.456785413290381 8.388698602929017 8.629718201366892 0 0 0
293 2 7.707216925332048 8.610889629108064 8.092903044102028 0 0 0
294 2 8.134292890077287 8.309165233564787 9.55467815574776 0 0 0
295 1 8.416939910853547 13.78161469841913 1.7589858195468926 0 0 0
296 2 8.95814882242383 13.039663353618007 1.457659442104433 0 0 0
297 2 9.089156397505663 14.46356874538162 1.8103497716325365 0 0 0
298 1 10.991788537209926 15.70786966589356 8.618871369407872 0 0 0
299 2 10.648028276712944 15.654224306305546 9.538048423547325 0 0 0
300 2 11.227963683088054 14.76705415140508 8.355196800077003 0 0 0
313 1 3.591818383865064 4.5239222092294025 0.7185321797235579 0 0 0
314 2 9.111723279413004 8.661497681500753 13.532776377245902 0 0 -1
315 2 2.7878607148883834 4.982582774427785 1.0564193545117138 0 0 0
316 1 6.087792004568431 6.311948725233989 7.503593195703937 0 0 0
317 2 5.877520886017087 5.538434114357488 6.877749240676309 0 0 0
318 2 6.833274925906862 6.022885529978658 8.129863267158907 0 0 0
319 1 6.1107652045377785 11.7675242612397 0.920214585198046 0 0 0
320 2 6.766493341573316 11.345716513194994 1.565821120135776 0 0 0
321 2 6.6320665385832935 12.282355663850463 0.2702602432054646 0 0 0
322 1 8.831503274724385 13.43899114000157 7.486026725120766 0 0 0
323 2 9.183390641623971 13.856826264019126 6.698892627553693 0 0 0
324 2 8.762355222164587 12.518991875005936 7.202721113385124 0 0 0
337 1 4.490724939868898 6.122979089262658 4.050372605177173 0 0 0
89 2 10.883923975773941 3.2124586329953613 8.34768733944091 0 0 0
35 2 17.383219468099476 17.257782594890752 13.29464264646764 0 0 0
340 1 7.069605744708171 7.930627285156282 10.9017423576171 0 0 0
32 2 14.751732776345442 15.707164574105313 6.255417386315906 0 0 0
342 2 7.094735710078883 7.084160402798874 11.46964819125526 0 0 0
343 1 7.103416072416355 13.218946956236534 4.321168984440787 0 0 0
371 2 12.058237461314537 15.844614785934043 11.518700621890332 0 0 0
345 2 7.7522913908126 13.443198060782793 3.5961395568972208 0 0 0
346 1 9.589383483399253 15.351406868204093 10.997250469846525 0 0 0
347 2 9.95810697888239 14.511621358559742 11.291295784823422 0 0 0
131 2 7.4824309775938245 11.411658816597322 10.529374825765313 0 0 0
361 1 6.900552977402408 7.536905543458075 4.903870111895148 0 0 0
362 2 6.464273704419953 7.474162362451089 5.733381787989741 0 0 0
84 2 5.425538696128597 9.102941869065816 6.988467280984742 0 0 0
30 2 14.638210598458498 10.584491565090852 13.586550612823451 0 0 0
204 2 13.022171027949405 10.714332271122034 9.085633268094682 0 0 0
344 2 6.262369411915381 13.169887055203574 3.8153540465747815 0 0 0
26 2 12.268573324771959 8.50785532051417 6.707025603337268 0 0 0
266 2 10.190076137177883 6.200872136687155 3.434182560198925 0 0 0
83 2 5.955572498586163 9.817784303068528 8.192532337329645 0 0 0
288 2 7.827047846880284 14.397994863733494 8.656487499419438 1 0 0
282 2 5.1409988691202555 7.16147084450714 8.809940595082976 1 0 0
13 1 14.86831200602542 5.176158093043286 4.101796581302354 0 0 0
14 2 14.19831927576735 4.643831901603954 3.659747909105546 0 0 0
15 2 15.298743357733178 4.6270764389216 4.861236858681801 0 0 0
16 1 17.424999686280977 7.250696174207355 10.854943986329536 0 0 0
17 2 16.640502211310565 6.726422411160546 10.549384966959872 0 0 0
18 2 18.132245635685056 7.200686774786519 10.145573627386462 0 0 0
19 1 17.360108320037785 12.280351870071463 4.33909967046266 0 0 0
20 2 18.08166608754852 12.427439022334031 3.655685943329465 0 0 0
21 2 16.599133974276562 11.846474457285499 3.832324515171643 0 0 0
22 1 20.07061298485967 13.87920017465272 10.61190189506899 0 0 0
23 2 20.81526440054758 14.047972456297796 9.967708894056619 0 0 0
24 2 20.545714071643385 13.636276393866723 11.394666483963313 0 0 0
37 1 18.847762469908048 7.911260836846044 5.915738045881384 0 0 0
38 2 18.101503675241126 8.417224995419462 5.503539328880304 0 0 0
39 2 18.468779108057177 7.3876856523277645 6.672081854785883 0 0 0
40 1 21.62880055229707 9.75574823185331 12.947356919522733 0 0 0
144 2 15.031348516911118 11.490021549400595 10.4605260762221 0 0 0
42 2 20.90559905884929 10.273471132528412 12.560323371316537 0 0 0
135 2 9.848473369461784 2.815488212420095 3.520318041046193 0 0 0
44 2 15.70401846263651 1.574418149781683 5.878872568091876 0 1 0
384 2 19.751906856626384 15.37852091515374 11.405068397136036 0 0 0
46 1 23.94451171460918 17.115654785557602 12.83756572912787 0 0 0
383 2 19.349130353240152 15.987414864331958 12.727556156601107 0 0 0
48 2 19.59363541200907 3.4753488616003145 13.105052325392753 0 1 0
61 1 12.662532888306053 3.873032668117118 2.8468391976443224 0 0 0
62 2 11.953864303334672 3.5936340878946194 3.3803999780991183 0 0 0
63 2 12.237288536592578 4.225331121640756 2.0356066090234433 0 0 0
64 1 15.20881761894702 5.730450736244531 9.845890072545222 0 0 0
65 2 14.786344087304606 5.875086438517143 8.993583678060224 0 0 0
66 2 14.637218444158291 5.059274910737087 10.338984042343997 0 0 0
67 1 15.282877537560049 10.978680690342358 3.008869928616527 0 0 0
68 2 15.58357411346526 10.09012689321893 2.7179852351894067 0 0 0
69 2 14.498542736410386 10.73603804817315 3.583148455485884 0 0 0
70 1 17.848820499698718 12.597289791432951 9.619354493274678 0 0 0
71 2 18.618307758685557 12.96384470557172 10.113791702147058 0 0 0
72 2 18.13761957838211 11.699754726254342 9.339853049213971 0 0 0
85 1 8.574002990165353 0.7122807528540791 0.6075717762909245 0 0 0
86 2 14.323220670330842 14.211387773959235 1.0475341696660956 0 -1 0
87 2 14.105404168229546 4.934036740781141 13.568247894275016 0 0 -1
36 2 16.889223240212928 16.26799485806128 12.132551202918284 0 0 0
382 1 19.662653463439298 16.200727314216152 11.847394449599674 0 0 0
90 2 16.812818802310307 16.133848443403455 7.931783150358161 0 -1 0
91 1 11.342172896931153 7.942052002211543 0.9607520403657878 0 0 0
92 2 11.95071789136875 7.303567983441302 1.474262782202178 0 0 0
379 1 17.263884379038352 14.762875802805782 5.134244685052267 0 0 0
94 1 13.4613019560599 9.568420005009452 7.5016342824040745 0 0 0
95 2 14.177953855451893 8.892248440602568 7.771331604324685 0 0 0
96 2 13.94812843534847 10.256264999101088 6.9745227216687375 0 0 0
109 1 12.674235833816693 4.119910950351422 6.01461601891917 0 0 0
110 2 12.056009490088611 3.7313287410548965 6.673401294616961 0 0 0
111 2 13.355384257506467 3.376039988480639 5.843653098885879 0 0 0
112 1 15.158923020329846 6.058637008537582 12.948154832039034 0 0 0
113 2 15.821050985383529 5.369251673821861 12.746560096169022 0 0 0
114 2 15.633653292584354 6.8074039262000685 13.386991864857924 0 0 0
115 1 14.926109941554422 11.529481621384692 6.06950477480416 0 0 0
116 2 14.518064123837883 12.105908694399442 5.3767604044627175 0 0 0
117 2 15.310416170002183 12.264162971481912 6.6685636622105 0 0 0
118 1 18.02209225374923 13.041841356269067 12.795808575512009 0 0 0
119 2 18.19074542124101 13.686592324400701 13.507514689056313 0 0 0
120 2 17.386637549028205 12.426529560146806 13.246381887579656 0 0 0
133 1 10.573869802496297 2.7899461965342853 4.216402942832122 0 0 0
350 2 11.56256434128782 6.7962046786710895 5.1043503449635335 0 0 0
212 2 18.950161050545617 10.00181583806981 3.202482010177976 0 0 0
136 1 13.300905441501444 4.221551233694258 10.978647184489033 0 0 0
137 2 13.558201200886382 3.2861152516483734 11.307737931482274 0 0 0
376 1 17.213394238352077 9.418381850439474 12.147722203388163 0 0 0
139 1 13.070822784811961 10.107466479070006 4.2481409955463 0 0 0
140 2 13.453120877150313 9.220659113277375 4.460079272571742 0 0 0
375 2 14.085361175696415 7.475012908854054 6.071543843309705 0 0 0
142 1 15.763903561710192 11.665818421490604 11.074462949622367 0 0 0
143 2 16.437822742416024 12.194943511281442 10.650405516003737 0 0 0
209 2 18.454222845912952 3.8258298023808455 8.846101042449028 0 0 0
157 1 14.259329817501404 2.141360428869697 5.1043264687342305 0 0 0
158 2 13.50955639396771 1.5355558061666243 4.804225995953408 0 0 0
159 2 14.615264582810058 2.364609159847271 4.208562750260791 0 0 0
160 1 16.546539308549423 4.0521065810587915 11.926191642074134 0 0 0
161 2 15.933688686250724 3.2630937377551263 11.948032990930708 0 0 0
162 2 17.35463907792264 3.829334602127142 12.464766242466585 0 0 0
163 1 16.652898786235294 9.433929604278326 5.114523437034276 0 0 0
164 2 15.826536986784761 8.979982579261772 5.053207583963449 0 0 0
165 2 16.415352963773824 10.297828166945232 5.546099752974852 0 0 0
166 1 19.486014103450657 10.763418025011806 11.921168548753704 0 0 0
167 2 18.64093393319425 10.186349426256347 12.01579148578369 0 0 0
168 2 19.258431932780905 11.608253008526228 12.265839860457755 0 0 0
181 1 16.298530790634477 4.37700534092475 6.113346017338245 0 0 0
182 2 15.996427272862428 3.9060304424095293 6.925183061380331 0 0 0
183 2 16.94086735635027 5.030404972201145 6.4647517588030325 0 0 0
184 1 18.70737558054332 6.257763952310867 12.806987342182296 0 0 0
185 2 19.517957317288463 5.881097368855512 12.389163336948858 0 0 0
186 2 18.113940393805464 6.475859026078906 12.066958286165347 0 0 0
187 1 19.05512478124698 11.35390845425263 6.116046710967404 0 0 0
188 2 19.446601294904845 10.829732272867583 5.38780830869163 0 0 0
189 2 18.390322512025044 11.830189063758967 5.6007449508571865 0 0 0
190 1 21.390571713657312 13.089203129163797 12.892534572106381 0 0 0
191 2 22.13847122824589 12.560364045672284 12.410631724752198 0 0 0
192 2 21.80694436397722 13.779795346020155 13.438231668303795 0 0 0
205 1 15.733348560149974 2.673228544035179 2.552123307345031 0 0 0
377 2 17.120825995482395 8.671999960532675 11.514136587188792 0 0 0
207 2 15.615424704503774 3.575443361867844 2.1276828990931027 0 0 0
208 1 18.299332043629644 4.422752945892497 9.68967395754599 0 0 0
374 2 14.623034795165557 6.757487227392533 4.739103920976049 0 0 0
210 2 17.636435308683154 4.003644737116624 10.216661112137924 0 0 0
211 1 18.09383694543686 9.836538092769706 2.7917676030380685 0 0 0
88 1 11.036398728890974 2.6095569590602907 7.554316058684176 0 0 0
213 2 17.5050138934247 9.552669383720394 3.4705315738439584 0 0 0
214 1 20.888158936959304 11.123507734218709 9.436555196900851 0 0 0
215 2 20.229321066811696 10.975883676760182 10.123897597702724 0 0 0
216 2 20.69867365136298 12.017368595824369 9.073635400380411 0 0 0
229 1 13.03298292465854 1.3219469273219713 1.7048277359887378 0 0 0
230 2 12.895433721435056 2.176104383352671 2.2373164688222453 0 0 0
231 2 13.23612092511383 1.600068405938805 0.8227155902207778 0 0 0
232 1 15.522250159566692 3.024348790610525 8.326546143396758 0 0 0
233 2 15.488851499753856 3.770204488981182 8.89992297619778 0 0 0
234 2 14.718182560616546 2.481332992819955 8.512096217311788 0 0 0
235 1 15.768556194395304 8.481733090815073 1.935501575047592 0 0 0
236 2 16.00399030009661 8.673639775190761 0.9841404295240361 0 0 0
237 2 14.884770196161664 8.067383472033084 2.0396825129171203 0 0 0
238 1 17.96978364770261 10.119858051998005 8.494100570957434 0 0 0
239 2 18.49667908899929 9.324813008390645 8.756363471365885 0 0 0
240 2 18.30384773275057 10.383735951146699 7.584749121245009 0 0 0
253 1 14.590658441639903 4.823056853227874 0.624887590171329 0 0 0
254 2 15.366050204770588 5.311575248078875 0.2723095011657648 0 0 0
255 2 19.315368354258606 7.681325953042111 13.491452411331393 0 0 -1
256 1 17.443740408338073 6.382807659401841 7.659130603747642 0 0 0
257 2 16.77998909969733 7.104478650777034 7.9527813891576296 0 0 0
258 2 17.774329075452663 5.88013390273795 8.418973769955677 0 0 0
259 1 17.418289873326806 11.492288952194917 0.9319331408287193 0 0 0
260 2 18.015104479825943 12.115182986882163 0.5091501892208287 0 0 0
261 2 17.876796620404885 10.997196227256943 1.6203758987550712 0 0 0
262 1 20.36779440838247 13.263173269321122 7.657507887090757 0 0 0
263 2 20.815076545854723 13.832920656459065 7.002281308303817 0 0 0
264 2 20.03158578470586 12.527678650954078 7.109238828058647 0 0 0
277 1 16.971276780781242 5.977441189382643 2.6264909825562732 0 0 0
278 2 16.170132985099062 5.662367318488919 3.1239120530711104 0 0 0
279 2 16.646920922160984 6.831823230775264 2.256665818813641 0 0 0
280 1 19.543336612918896 7.865343749128481 9.37321477788198 0 0 0
43 1 21.582528633187813 15.2174184833264 6.2385952885760005 0 0 0
378 2 16.74936618709853 10.228696394922986 11.86188011443151 0 0 0
283 1 19.612579295411273 13.337698288849666 2.728982938919734 0 0 0
284 2 19.115428877408597 14.099127211056945 2.309661351535848 0 0 0
381 2 17.094966650133312 13.869842438169844 4.740720863745936 0 0 0
286 1 22.21049406598261 14.917669583774854 9.349048584277238 0 0 0
287 2 21.728055858999355 15.65084067362478 8.985451738663905 0 0 0
380 2 16.540218990663757 15.352004502036431 4.986422559984674 0 0 0
301 1 13.310932804075325 6.820128405926486 2.225369008549853 0 0 0
302 2 13.68384022572052 6.120552809336788 1.6618592066803657 0 0 0
303 2 12.881364364557855 6.4807225866421065 3.0380813392270603 0 0 0
304 1 15.79885733826699 8.421789684358291 8.606026521401 0 0 0
305 2 15.389469270576305 8.22847301756666 9.428013983955383 0 0 0
306 2 16.458035093000866 9.10332088962975 8.716733347379458 0 0 0
307 1 16.053946096188128 13.552230186240896 2.098600333355106 0 0 0
308 2 16.489254407866145 14.370072214546473 1.7812603803868554 0 0 0
309 2 16.527999191404877 12.79358245134584 1.7626864714452728 0 0 0
310 1 18.574761778855407 15.42513276226894 8.555488756119093 0 0 0
311 2 19.029936492545218 14.635108846989057 8.204033876223752 0 0 0
312 2 18.41197234332202 15.244223513182195 9.515632365708832 0 0 0
325 1 11.100087247000118 4.7969969732515905 0.791089517414346 0 0 0
326 2 10.569294855377265 5.297467729223792 1.4748135261151822 0 0 0
327 2 11.484349756413092 5.344098824991789 0.12696866252636235 0 0 0
328 1 13.763310321234213 6.080429644191955 7.709165345767769 0 0 0
329 2 13.038979317877263 6.40108028223232 8.297715875046539 0 0 0
330 2 13.414211040070583 5.399195851208985 7.116572148797737 0 0 0
331 1 13.682531110950602 11.657800073217993 0.8718995351432086 0 0 0
332 2 13.010922297633538 11.9429306609072 1.510076249409658 0 0 0
333 2 14.425955526714437 11.374557540441513 1.4731172590187744 0 0 0
334 1 16.30889301326762 13.422531769790293 7.618476623291042 0 0 0
335 2 16.987993237180262 13.18948829130827 8.303468547355825 0 0 0
336 2 16.788846862987626 13.881533233627858 6.918031398565739 0 0 0
349 1 11.637476622050356 6.128518528456048 4.351913956082628 0 0 0
281 2 20.06339191689988 7.927757918039047 10.1850367837473 0 0 0
351 2 12.018456756097914 5.347212882648832 4.8278108135885756 0 0 0
352 1 14.289237933811789 8.28534455443364 10.932430510812424 0 0 0
356 2 14.200183254577063 14.075925240681693 4.799779459130087 0 0 0
354 2 14.491360971361146 7.40920676951504 11.336690947556773 0 0 0
355 1 14.28750717090159 13.36328778522202 4.1195252951811785 0 0 0
276 2 15.163424754583396 14.396978314615417 8.64097955993765 0 0 0
357 2 15.043527123772925 13.497108604810835 3.5454486919791326 0 0 0
358 1 17.104346411051267 15.086746746045588 11.154944775256844 0 0 0
359 2 17.251952227989165 14.304863939012147 11.682186124055717 0 0 0
206 2 16.577461445211448 2.749686726648443 3.092040861235738 0 0 0
373 1 14.40768893208793 7.6548809436917455 5.169646628529067 0 0 0
353 2 14.189254851082318 8.813191617552672 11.774254460185897 0 0 0
138 2 12.456882688384932 4.141280056201459 10.539555963985798 0 0 0
81 2 18.39172788688751 8.397223022455385 1.5518026828893878 -1 0 0
41 2 22.359966477621885 10.351566509568409 13.273160508085601 0 0 0
360 2 16.432459823688816 14.864905603700228 10.484823851289999 0 0 0
134 2 10.350087884913766 3.4731556065783566 4.866417363007578 0 0 0
47 2 24.223303263570624 16.523741006862203 12.119831083579875 0 0 0
141 2 12.304199852926942 9.964525426366944 3.6260452954940092 0 0 0
123 2 17.387800068228817 3.2154794618179943 4.913451033307203 -1 0 0
75 2 15.64134860914256 1.3936710733213575 1.3134006871879613 -1 0 0
285 2 20.04519934173916 12.843832792368865 1.9712505940115779 0 0 0
93 2 11.111011763963086 8.705394614095797 1.506121507654541 0 0 0

Velocities

1 2.2417325348706805 4.892074933423249 3.0915464460631816
2 -0.7084521510085573 7.235939491723361 7.458808556360099
3 2.3338229905906216 16.85271293821269 12.53543685302375
4 6.221674537209413 -2.691166704637016 -0.9061409858701507
5 -10.172653409334057 9.943371137482133 -6.608396726001819
6 -5.142935052331072 3.7122296135947654 20.034741639901085
7 6.17196279740109 -0.2550197791980715 -3.3902626820622026
8 -8.861310942664522 8.6945436338521 7.414373160123209
9 1.4923676733743794 -19.05516200827165 -10.083285764603554
10 4.2513066381512665 -0.7666835409292123 6.113751458823697
11 -2.18035064123724 -4.727558579229157 12.700002805251243
12 -8.741923848325078 -14.025931134231115 -8.375164813561831
25 1.5081906196656039 -1.340046378020764 4.430722770914545
365 5.886990524813642 7.641098103285249 7.644968936033835
27 -13.655683222426317 7.835210613669761 -2.667959821564942
28 -2.2848598426139866 -6.64353114813676 2.5368668982086184
29 -0.9898396275741956 4.8345800759810755 -10.961305163643653
194 -2.5788722101733996 -28.913709397241483 3.798243474780323
31 -0.09199852043254228 -6.455749496402028 4.518995723415073
369 2.4389163974212047 7.321947838506749 -4.165819778642803
33 -2.188157186085953 3.9383999141223476 8.041790184975632
34 -4.125835868322822 -2.497793133088711 -4.4865624141428
366 3.0905118542440806 2.9138489928670825 -7.940774848679626
45 8.71716952355613 5.323688029835078 1.4060177547977741
49 -0.6074795224905811 -0.3371265099721383 -2.564344608986023
50 -0.19473237604381044 5.240353835491831 -14.175738443539453
51 3.9547801004136542 -11.410385007259764 -11.598626450143565
52 0.7326288157461017 -0.23572267351645554 4.291584944684854
53 15.539181689877099 1.5803261550722272 6.547773257904194
54 -8.121245800041354 14.819134195214723 15.156664640362841
55 0.15177519643011247 1.6666012303136244 1.1047740416405933
56 -0.9313096595634819 -15.239442746554321 -7.42055512530863
57 2.3841988714471434 -4.058604906830846 -7.131678928784708
58 3.258564298301072 2.3386318170269647 7.87849917700487
59 6.229723887876302 2.7621718058645257 -16.109338089635365
60 15.275687839649471 -5.065148110137036 7.577626333888566
73 -8.966492910877793 -1.418879394622171 -3.315492843751028
74 -8.505833091641382 -4.085981812848559 8.113546327250688
368 -3.1216674554031503 -27.252334267517433 -19.687336680821492
76 2.8756610099806292 1.3662137439019308 -0.7996631977435275
339 11.783514247629377 -17.63423329267898 4.642898837010984
78 7.413066479181257 -5.997249888628629 -9.126557251589873
341 11.474187822931036 4.317704287990477 -7.373697723531482
80 1.4574496223987192 11.519020959442566 4.079058613070778
370 -1.2977430664855687 -3.540945927853811 -1.313732345177381
82 3.449418134124371 -0.5068414532926965 -4.906185329854345
367 -2.545798573802087 6.86761808978996 0.5561769231582351
273 -8.169428566556723 13.781341147779614 2.329741515996655
97 -1.2884418166764875 0.26513286442844824 -2.8316169351350844
98 4.110747535482812 -6.220062600607389 2.816072569566136
99 6.902533637776296 -5.4062847207168385 -6.180856148242343
100 1.7514280252518155 -2.3468143898662888 -9.13416177893732
101 0.7311522129371589 25.30652714502323 11.929632289790868
102 -18.78231236539338 11.464513636167979 -11.390559361738504
103 -1.131181244430217 6.838443613137629 -5.523486712544123
104 -13.857900083682711 8.101721699584482 5.943832126460803
105 -29.609028858838844 -15.846839883826519 0.5734483890954464
106 2.9644965373048437 -4.353871990511857 3.1611391984764676
107 -11.9802202458993 -2.320364058789465 -8.217740295151781
108 10.718555288701497 -12.145776841234348 0.08819470734437225
121 -1.626658048296362 5.342775741380556 9.30367987631177
122 -5.875506114807193 1.185875725411959 -8.463480434665398
77 4.73853819671155 -1.8416732517708105 1.3585945971798774
124 -1.6777129504942867 -3.321842779582438 -4.627277680251022