LAMMPS data file via write_data, version 15 Apr 2020, timestep = 1163000

1920 atoms
2 atom types

6.0775027969437900e-02 2.4663629972034453e+01 xlo xhi
-3.4544328055410745e-02 2.4758949328042739e+01 ylo yhi
3.9144293587465739e-02 2.2753227706418841e+01 zlo zhi
5.4998332980970933e-02 2.4424576786894972e-01 2.3202139963660148e-01 xy xz yz

Masses

1 16
2 2

Atoms # atomic

1 1 4.9238258950275773e+00 1.7976089386296161e+00 4.2109457973356594e+00 0 0 0
2 2 5.5492528781908046e+00 1.7469744589217526e+00 3.4973665377519350e+00 0 0 0
3 2 4.8181878278736594e+00 9.6632460927703812e-01 4.7771356661450586e+00 0 0 0
4 1 3.0293595483673479e+00 1.9261652863450442e+00 2.2642003138933391e+00 0 0 0
654 2 7.6922387440917648e+00 1.1957927631663786e+01 6.3423435608929983e+00 0 0 0
6 2 3.6450288515704634e+00 1.8266839636220833e+00 3.0295015276427555e+00 0 0 0
7 1 6.2165072751319723e+00 4.4004785490306366e+00 3.6154242180416549e+00 0 0 0
8 2 5.2351423569164464e+00 4.3436219386645210e+00 3.5928754727133065e+00 0 0 0
9 2 6.5512135552365196e+00 3.5961477254025431e+00 4.0661420675462132e+00 0 0 0
10 1 3.5603086779535675e+00 4.6751761040814408e+00 3.4129153019986944e+00 0 0 0
11 2 3.2381126799776911e+00 3.8378715965388075e+00 3.8464947075780094e+00 0 0 0
12 2 3.1936710461350986e+00 5.3781121095993756e+00 3.9742072182162542e+00 0 0 0
13 1 2.3031969965878796e+00 2.9170293404213909e+00 4.9999145497231465e+00 0 0 0
14 2 2.3171524433271049e+00 1.9633176821679794e+00 5.0341613414618145e+00 0 0 0
15 2 2.2629185356651322e+00 3.2668971168516086e+00 5.8628234966068131e+00 0 0 0
976 1 4.2496684695541809e-01 1.5127738549030838e+00 1.2997362104130035e+01 0 0 0
1739 2 7.3009048480433254e+00 1.2481557445738543e+01 2.1387564799816634e+01 0 0 0
19 1 5.0322963504533318e+00 3.2750709129768798e+00 8.0280429552949506e-01 0 0 0
20 2 4.2939167796317159e+00 3.2433039452381531e+00 1.4509376759809463e+00 0 0 0
21 2 5.2950662287120496e+00 4.2206313612463955e+00 7.6382592817487438e-01 0 0 0
22 1 1.7466275139598908e+00 4.6075887365350665e+00 1.2834118955619569e+00 0 0 0
23 2 2.5863010049671709e+00 4.6543196751685780e+00 1.8114847964377674e+00 0 0 0
24 2 1.7636230523806822e+00 3.6920220333447102e+00 8.1490902925337061e-01 0 0 0
25 1 5.0848746003411716e+00 6.0596954249043051e+00 9.2710446247842204e-01 0 0 0
26 2 4.2480257302555939e+00 6.5269040627212433e+00 1.2928258983536054e+00 0 0 0
27 2 5.2537870328838379e+00 6.5181401378084214e+00 2.2691769389280832e+01 0 0 0
1539 2 5.6236498376816768e-01 3.9506542047019080e+00 2.0970014004282625e+01 0 0 0
31 1 1.0601977091598766e+01 1.4829843788212096e+00 4.4502502272492608e+00 0 0 0
32 2 1.0744223032807881e+01 2.2416742171901904e+00 5.0125959538188010e+00 0 0 0
1117 1 1.2323241277386513e+01 1.0819399916001872e+01 1.5102006486960837e+01 0 0 0
34 1 9.0009609671026567e+00 1.4156964945003643e+00 2.2864719463075467e+00 0 0 0
867 2 3.8077256414670178e+00 4.5318806432487174e-02 6.5505115407631864e+00 0 0 0
36 2 9.4321616383374849e+00 2.1824872442043239e+00 1.8796822160867688e+00 0 0 0
269 2 2.4522334672152293e+00 1.2031353774077310e+01 4.7444552008216805e+00 0 0 0
39 2 1.1336540910674454e+01 4.6445002538679780e+00 3.7118825937893130e+00 0 0 0
40 1 9.5082632855825757e+00 4.8053293945078073e+00 3.9818402090384248e+00 0 0 0
41 2 9.1362355860226163e+00 4.8637151490105541e+00 3.0716283732016376e+00 0 0 0
42 2 9.0568503040335528e+00 4.0001982233825641e+00 4.3948747086957081e+00 0 0 0
43 1 8.0211513038733600e+00 2.8259595115903378e+00 5.0575490399806435e+00 0 0 0
44 2 7.8335381252896621e+00 3.1896065089658019e+00 5.9672566770358832e+00 0 0 0
45 2 7.9046229129448529e+00 1.8694655223922687e+00 5.0817476118480993e+00 0 0 0
46 1 6.4922709653730397e+00 1.4429113828056201e+00 2.0262898448725988e+00 0 0 0
47 2 7.4649222653826461e+00 1.4372912541691809e+00 2.0596942934094034e+00 0 0 0
48 2 6.1852261378707265e+00 2.2202787452300474e+00 1.5550108512175977e+00 0 0 0
49 1 1.0793116227075087e+01 3.2457852041932078e+00 9.1438504968234569e-01 0 0 0
50 2 1.1531130244840540e+01 2.8196376501057054e+00 1.3703487080755308e+00 0 0 0
51 2 1.0681159558142411e+01 2.8238780406423722e+00 5.1500514731144802e-02 0 0 1
52 1 7.7962994160384946e+00 4.7585021851883758e+00 1.5634809154900784e+00 0 0 0
53 2 7.7017799728173761e+00 3.9929213683596458e+00 1.0101194537980462e+00 0 0 0
54 2 7.0233507382664300e+00 4.5984200768125634e+00 2.2208802619270132e+00 0 0 0
55 1 1.0639625917428715e+01 5.8820739826862054e+00 8.9062603248400229e-01 0 0 0
56 2 9.8863571047304379e+00 6.1759575054141891e+00 1.4459525798702964e+00 0 0 0
57 2 1.0704615553451159e+01 4.8957846621500432e+00 9.1971437143775137e-01 0 0 0
1456 1 5.9442841624689202e-01 1.8790278108608287e+00 1.9292303191011598e+01 0 0 0
1038 2 1.2313453136841956e+01 1.7159715026458089e+00 1.4237288014505586e+01 0 0 0
1608 2 7.3437582268577586e+00 7.9743523320717138e+00 1.9638526524575632e+01 0 0 0
531 2 1.0802853043828408e+01 4.0653895412071508e+00 6.4558957348262949e+00 0 0 0
121 1 4.7171200583275485e+00 7.8788587548629545e+00 4.3573888630793407e+00 0 0 0
122 2 5.5327789512808527e+00 8.0195737082179352e+00 3.8019615153535420e+00 0 0 0
123 2 4.0692327471008563e+00 7.6423994681428224e+00 3.6843815603256980e+00 0 0 0
124 1 3.3054879442647924e+00 7.5300061664236964e+00 2.0862232348756784e+00 0 0 0
125 2 3.3747826942225498e+00 8.3526808562337660e+00 1.5293694978775070e+00 0 0 0
126 2 2.3331858420617970e+00 7.5193210255558540e+00 2.1385949544336116e+00 0 0 0
127 1 6.0584213817883832e+00 1.1097261081580184e+01 3.5957025302745365e+00 0 0 0
128 2 6.2580177343704992e+00 1.0359583170448222e+01 4.1774743246544181e+00 0 0 0
417 2 1.0034666781527458e+01 3.0312002463028936e-01 1.3007698949707458e+00 0 0 0
130 1 3.3784894174238866e+00 1.0706558554600653e+01 3.6833899109739590e+00 0 0 0
131 2 3.1954780641558420e+00 9.8994828398207950e+00 4.1444990242598401e+00 0 0 0
132 2 2.8891154547983788e+00 1.0707557108418882e+01 2.8826206961375225e+00 0 0 0
133 1 1.4034881220590700e+00 9.0106056377748018e+00 5.1883292946916058e+00 0 0 0
134 2 1.5478497223213434e+00 9.4412200122514403e+00 6.0708464004528686e+00 0 0 0
135 2 7.0459707791565662e-01 9.5155456070657536e+00 4.7604091601481446e+00 0 0 0
28 1 1.6712189908551633e+00 2.5335849514149390e-02 4.8427376188075995e+00 0 0 0
139 1 4.8333254339089606e+00 9.4061606407402820e+00 7.1873553734758455e-01 0 0 0
140 2 4.9130675654491478e+00 1.0360050665208087e+01 8.3121213158259333e-01 0 0 0
141 2 5.4718927361550289e+00 9.0550813264335908e+00 1.4175319591802993e+00 0 0 0
142 1 1.5761011286136064e+00 1.0637206808049905e+01 1.6717589284802388e+00 0 0 0
143 2 1.5105723292544455e+00 9.8557300328830877e+00 1.0788966973834884e+00 0 0 0
144 2 1.7159148435922469e+00 1.1358424612057451e+01 9.7820616255748871e-01 0 0 0
218 2 3.1106989065435070e-01 1.0670341833121684e+01 2.7904430145418226e+00 0 0 0
148 1 1.9892875850597878e+00 6.2650453820339038e+00 5.1281040483496332e+00 0 0 0
517 1 1.2360919500823977e+01 4.7052752158314135e+00 9.0179956153906087e+00 0 0 0
150 2 1.7323185926360709e+00 7.1957285941550575e+00 4.9689074685354635e+00 0 0 0
151 1 1.1022353426376913e+01 7.7465606397333300e+00 4.3327516205213605e+00 0 0 0
129 2 5.0849947852516983e+00 1.1040781864536713e+01 3.4963362341022410e+00 0 0 0
153 2 1.1166537284258403e+01 8.4428112503176092e+00 5.0212069249754432e+00 0 0 0
154 1 9.0798948808775730e+00 7.6669856744870684e+00 2.4769676652148318e+00 0 0 0
155 2 9.4388988692255147e+00 8.2766542271598542e+00 1.8169450580401307e+00 0 0 0
156 2 9.5796951953391254e+00 7.8180810306281696e+00 3.3159647748134535e+00 0 0 0
699 2 5.2216834989511329e-01 1.1763118516822917e+01 9.7171158216611282e+00 0 0 0
158 2 1.1251277809042156e+01 1.0728535449129193e+01 3.7292087024542080e+00 0 0 0
160 1 9.4933703331742478e+00 1.0730864767260156e+01 3.8181050600607898e+00 0 0 0
161 2 9.0076442004498780e+00 1.0914867113838707e+01 2.9689465026238162e+00 0 0 0
1346 2 4.1827826807896891e+00 3.1528576997649543e-01 1.2462484359675766e+01 0 0 0
163 1 7.6653980734233329e+00 9.2168320033994853e+00 5.3042177588351134e+00 0 0 0
164 2 7.9220160896676113e+00 8.2676051519839344e+00 5.1860996627381581e+00 0 0 0
165 2 8.2579361211321878e+00 9.6829934228254420e+00 4.7072716469644522e+00 0 0 0
166 1 6.5422004483596377e+00 7.8427107726883545e+00 2.2339494929912109e+00 0 0 0
167 2 6.1476084817430694e+00 7.1214109018013456e+00 1.7887258993863033e+00 0 0 0
168 2 7.4927626146217809e+00 7.7347637037391772e+00 2.4479715709442003e+00 0 0 0
169 1 1.0721605109403974e+01 9.7025423130649671e+00 9.0400674165617156e-01 0 0 0
170 2 1.0977246338747488e+01 1.0649251958529224e+01 8.7524338447866690e-01 0 0 0
171 2 1.0799815636886493e+01 9.6635612265547621e+00 2.2718440763221437e+01 0 0 0
172 1 7.9745050571855280e+00 1.1142157093212539e+01 1.5819770278351721e+00 0 0 0
145 1 4.5755389921478358e+00 1.2291819192590431e+01 8.8475936677723432e-01 0 0 0
174 2 8.2257217516580390e+00 1.0355855118500804e+01 1.1225125321332168e+00 0 0 0
508 1 1.8662639264562582e+00 4.9570619950054606e-01 1.0238749207129720e+01 0 0 0
178 1 7.7095035512156969e+00 6.4277935295986603e+00 5.0460260264062518e+00 0 0 0
179 2 6.9386234381726926e+00 6.0999159659376936e+00 4.5641952638661909e+00 0 0 0
180 2 8.3624911579022232e+00 5.8980661759488973e+00 4.5110875116441074e+00 0 0 0
780 2 7.3747366685414928e+00 1.2239326014188325e+01 1.0180455575498948e+01 0 0 0
1468 1 1.8873796742506093e+00 2.8160440097400935e-01 2.1809041821870725e+01 0 0 0
219 2 5.6128350296850815e-01 1.1528383233475436e+01 4.0005772607988384e+00 0 0 0
1589 2 1.0079519504409111e+00 6.1194867211380606e+00 2.1374859455445655e+01 0 0 0
1619 2 7.4935240340755520e+00 6.0972190475336623e+00 3.4519917779657078e-01 0 0 1
495 2 1.2056018854408235e+00 3.8692332117572499e+00 1.0117234431402339e+01 0 0 0
1618 1 7.7823261659650305e+00 6.6986337982847086e+00 2.2096272481848647e+01 0 0 0
625 1 4.5609682324247620e+00 1.2207432117448461e+01 6.4898623326820202e+00 0 0 0
1856 2 1.0008340905801713e+01 6.9103861612569872e-01 1.8456801386603289e+01 0 0 0
481 1 4.6811255104569103e+00 1.8578384847503988e+00 9.8248594012522812e+00 0 0 0
482 2 4.7802989042121453e+00 1.1473787619777815e+00 1.0462374055504810e+01 0 0 0
483 2 5.4946623141847919e+00 1.8315867439668905e+00 9.1731847519509611e+00 0 0 0
484 1 3.1388129304563677e+00 1.4847254319974195e+00 7.4414306790730276e+00 0 0 0
485 2 3.5572969524611295e+00 1.5293822188874848e+00 8.3270890372062727e+00 0 0 0
486 2 2.1969904808565373e+00 1.5245291234181015e+00 7.6481558628205635e+00 0 0 0
487 1 6.3871670034487380e+00 4.9547262818422988e+00 9.2125914407105896e+00 0 0 0
488 2 5.4622032255432593e+00 4.8653717776598953e+00 8.9818447208234069e+00 0 0 0
489 2 6.7552490764933202e+00 4.2275433815183554e+00 9.7261621794215838e+00 0 0 0
490 1 3.7320719875889030e+00 4.8559380797170153e+00 9.3152932882808894e+00 0 0 0
491 2 3.2540985106113314e+00 4.0237974436888022e+00 9.6477264430269010e+00 0 0 0
492 2 3.3578392004894626e+00 5.5796103179030290e+00 9.9004023826343452e+00 0 0 0
493 1 2.0209199954627812e+00 3.3716484337515049e+00 1.0512798654822689e+01 0 0 0
494 2 2.1309761121163406e+00 3.8248325884335781e+00 1.1338119281935468e+01 0 0 0
1605 2 7.1174553147869295e+00 9.8905138627974072e+00 2.1781383516780611e+01 0 0 0
1613 2 8.2153872633171829e+00 1.1800547917542014e+01 1.7829099926555561e+01 0 0 0
499 1 4.9715673658647992e+00 3.4863771244980750e+00 6.4399518886988618e+00 0 0 0
500 2 4.1919793233957208e+00 3.2545292800420147e+00 6.9751775317208669e+00 0 0 0
501 2 4.9861572021893057e+00 2.9126634343417863e+00 5.6459331218160100e+00 0 0 0
502 1 1.8713259475257511e+00 4.6864762270153202e+00 7.3085600746347144e+00 0 0 0
503 2 2.5036029226104390e+00 4.9632181859492350e+00 8.0426942052904646e+00 0 0 0
504 2 2.0074698629770129e+00 5.3484884397491221e+00 6.6965129823107539e+00 0 0 0
505 1 4.8610935674251428e+00 6.3530656195359390e+00 6.4724995363086073e+00 0 0 0
506 2 5.1488137429170937e+00 5.4629085412910614e+00 6.3239770983898600e+00 0 0 0
507 2 4.6519312647080788e+00 6.6467943340024851e+00 5.6359823295284546e+00 0 0 0
5 2 3.2760190524858133e+00 1.1773419274726895e+00 1.6743653681691320e+00 0 0 0
509 2 1.7791039949811598e+00 1.4621925870106214e+00 1.0415432906309398e+01 0 0 0
511 1 1.1030559732485735e+01 1.7771727421724381e+00 1.0009919118873242e+01 0 0 0
512 2 1.1002594975943950e+01 9.7837379174304795e-01 1.0667264821506322e+01 0 0 0
513 2 1.0138528032362386e+01 1.7831692630795815e+00 9.5349616219903979e+00 0 0 0
514 1 9.2597097503817363e+00 1.5898051333120395e+00 8.0118191696685024e+00 0 0 0
515 2 8.2875548488423938e+00 1.4937368772044699e+00 8.0142564010765778e+00 0 0 0
1571 2 3.2565727371990847e+00 1.1855786054015848e+01 2.1222339289240576e+01 0 0 0
98 2 4.5288427961434463e-01 4.3968971199921940e+00 2.5910182388151295e+00 0 0 0
520 1 9.6782515065960997e+00 4.7803281305509104e+00 9.1494100443817210e+00 0 0 0
521 2 1.0617773349163700e+01 4.7555805972428375e+00 8.9842821358556844e+00 0 0 0
522 2 9.2320045598091198e+00 4.4933932312730098e+00 8.3209059585596883e+00 0 0 0
523 1 7.9114244448320159e+00 3.1889958743430986e+00 1.0691175113279369e+01 0 0 0
524 2 8.0286592327194448e+00 2.2153495922401816e+00 1.0594722872099778e+01 0 0 0
525 2 8.7921812436852669e+00 3.6299078496983501e+00 1.0413278980651720e+01 0 0 0
526 1 6.3522630003958156e+00 1.4291028878346750e+00 7.7301395841810843e+00 0 0 0
527 2 5.7240539969297979e+00 8.0174751897145402e-01 7.3163862267794135e+00 0 0 0
538 1 7.9800886210087620e+00 3.4115811766070031e-01 1.0573264180472993e+01 0 0 0
529 1 1.0917362540648016e+01 3.1252498012656993e+00 6.4373295636585972e+00 0 0 0
530 2 1.0374961593804844e+01 2.8536639075475874e+00 7.1706280429869542e+00 0 0 0
1158 2 1.2238718561994146e+01 8.4220656996681615e+00 1.3073175642527842e+01 0 0 0
532 1 7.7996747236531814e+00 4.5302217836041008e+00 7.0895783913836876e+00 0 0 0
533 2 7.8071029037289517e+00 5.2772802350220092e+00 6.4701154610325995e+00 0 0 0
534 2 7.1751228285598190e+00 4.7372013404927165e+00 7.8595388234501513e+00 0 0 0
535 1 1.1010202061258761e+01 5.8785716743345020e+00 6.4930650815493172e+00 0 0 0
536 2 1.0250590634531319e+01 6.4354954312811481e+00 6.6680224534835792e+00 0 0 0
1464 2 1.2085148413440843e+00 5.0880573092183603e+00 1.9070086151803711e+01 0 0 0
1607 2 5.8893044485749728e+00 7.8890239711246508e+00 2.0233198528582687e+01 0 0 0
614 2 9.1136749023448793e-01 9.5783331869590764e+00 1.0627440201351709e+01 0 0 0
1472 2 1.1768110382275173e+01 1.4909655874137149e+00 2.0786841687728625e+01 0 0 0
197 2 1.2045590971221932e+01 8.3193428063596233e+00 1.3323145707352131e+00 0 0 0
1612 1 8.1730615603469889e+00 1.1058265504344728e+01 1.8444212196088152e+01 0 0 0
601 1 4.5918984978966462e+00 7.8860412868350762e+00 9.8138018926899058e+00 0 0 0
602 2 5.3754446537792822e+00 7.9401685397965709e+00 9.2483762825501614e+00 0 0 0
603 2 4.6601921327942071e+00 8.7149012986660814e+00 1.0319145748167745e+01 0 0 0
604 1 2.6976558296405568e+00 7.4394167116511181e+00 8.0293050139696138e+00 0 0 0
605 2 3.1721121883577799e+00 7.4281154714977173e+00 8.8348452456695377e+00 0 0 0
606 2 3.3031353204622649e+00 7.0159326937908215e+00 7.4187632221935216e+00 0 0 0
607 1 6.3488840810874221e+00 1.0969684333022272e+01 9.5130556101765560e+00 0 0 0
608 2 6.6276306021088063e+00 1.1096494740997743e+01 8.5743366437392279e+00 0 0 0
609 2 6.8717963034139720e+00 1.0161143391161390e+01 9.8442437136605658e+00 0 0 0
610 1 3.5845412104055905e+00 1.1146744350649882e+01 9.5884701744705438e+00 0 0 0
611 2 3.1939825981782728e+00 1.0857695960107614e+01 8.7236243972602718e+00 0 0 0
612 2 4.5391095805450083e+00 1.1166618746893313e+01 9.5636052581087956e+00 0 0 0
613 1 1.7469570415583520e+00 9.2319945399880226e+00 1.0980006872957819e+01 0 0 0
1057 1 2.7373939614610132e-01 4.7295026714939610e+00 1.4956171027006279e+01 1 0 0
615 2 2.4303744173441020e+00 9.8287879245978420e+00 1.0612138482766083e+01 0 0 0
1092 2 2.8753969171284517e+00 1.1055675132191300e+01 1.4275190536009742e+01 0 0 0
618 2 9.9845356684894415e-01 7.6937339612810378e+00 8.0287017187462144e+00 0 0 0
619 1 4.5294528673042738e+00 9.4124745305627133e+00 6.4495822667915528e+00 0 0 0
620 2 4.3229834053922662e+00 8.8122777750934418e+00 5.7049635415645623e+00 0 0 0
621 2 3.7504279216945746e+00 9.1823031466657081e+00 6.9889295717230837e+00 0 0 0
622 1 1.7726649042649405e+00 1.0638562509552131e+01 7.4018511574788208e+00 0 0 0
623 2 1.1531310570276172e+00 1.0879656601820640e+01 8.1348562188162941e+00 0 0 0
624 2 1.7301506091953220e+00 1.1327731196256920e+01 6.6829902618038615e+00 0 0 0
76 1 1.2290181000333478e+01 1.5239003793095494e+00 2.2819931625239924e+00 0 0 0
626 2 4.6585080298194228e+00 1.1264879399121215e+01 6.2116715533873004e+00 0 0 0
628 1 1.7536078415519296e+00 6.5186211266845726e+00 1.0918896227189549e+01 0 0 0
629 2 1.7349537883436248e+00 6.0835226404497105e+00 1.1752429363718685e+01 0 0 0
630 2 1.6115804091664963e+00 7.4655614433358544e+00 1.0999078522652075e+01 0 0 0
631 1 1.1013246428789209e+01 7.8020783055141569e+00 1.0191945663537352e+01 0 0 0
632 2 1.1098905845076196e+01 7.0256609773067913e+00 1.0755424904483139e+01 0 0 0
633 2 1.1707249060333748e+01 7.7413370086411977e+00 9.4934396658797890e+00 0 0 0
634 1 9.3516795669988166e+00 7.7476411094855528e+00 7.8279090939337177e+00 0 0 0
635 2 9.7927760849766017e+00 7.8484672597047505e+00 8.7001507411911323e+00 0 0 0
636 2 8.3560319243607974e+00 7.8315547670837020e+00 7.8572460872204024e+00 0 0 0
1442 2 4.7456067754636173e+00 1.1799912775711829e+00 2.2142097883433948e+01 0 0 0
639 2 1.1302295387622339e+01 1.0499452831516017e+01 9.3987333475712216e+00 0 0 0
640 1 9.5353562357428050e+00 1.0853860072469651e+01 8.9020326174356956e+00 0 0 0
641 2 8.9752368852325901e+00 1.1047035789417958e+01 8.1762262444722893e+00 0 0 0
642 2 9.1098862689356697e+00 1.0180585013916550e+01 9.4345359135009197e+00 0 0 0
643 1 8.1927379093919495e+00 9.2996441326370469e+00 1.0435604745674516e+01 0 0 0
644 2 8.2575200002561147e+00 8.3416590478480401e+00 1.0534633422020878e+01 0 0 0
645 2 8.2977744036307755e+00 9.7171742325635098e+00 1.1316976568627117e+01 0 0 0
646 1 6.6058042845050364e+00 8.1198792729071840e+00 7.9790404563492938e+00 0 0 0
647 2 6.2176982011705286e+00 7.3378130447780823e+00 7.5101359003461559e+00 0 0 0
648 2 6.0660803413184095e+00 8.8175429317970249e+00 7.5874208304802009e+00 0 0 0
649 1 1.1186147044557838e+01 9.4645456115087132e+00 6.5359726044829722e+00 0 0 0
650 2 1.1006478763139214e+01 1.0356828303199222e+01 6.3223444155557740e+00 0 0 0
651 2 1.0347696206779645e+01 9.1102495429000623e+00 6.9030920774755167e+00 0 0 0
652 1 7.6184159289606885e+00 1.1260971414474835e+01 7.0454463423745199e+00 0 0 0
653 2 7.5492736758367363e+00 1.0465382645756874e+01 6.4932545269556003e+00 0 0 0
678 2 1.2188082015191846e+01 6.7158866656994034e+00 7.3971569030975282e+00 0 0 0
1089 2 5.2679277679618322e+00 1.1126498780879679e+01 1.4957006261473479e+01 0 0 0
658 1 8.0318044099898636e+00 6.5836397758875247e+00 1.0708912968598225e+01 0 0 0
659 2 7.2898919944359291e+00 6.1378388008255653e+00 1.0274212931500349e+01 0 0 0
660 2 8.7470772526237397e+00 6.1770800057836723e+00 1.0276214903327615e+01 0 0 0
1610 2 1.1107909562872715e+01 9.3465452994977163e+00 1.7119126338723827e+01 0 0 0
1604 2 8.6334851061823219e+00 9.5885625114340005e+00 2.1788738658953339e+01 0 0 0
77 2 1.1818350607604557e+01 8.1438761637590185e-01 1.8217661684424711e+00 0 0 0
510 2 1.7442666528975079e+00 1.9874535488388653e-01 1.1135862867512252e+01 0 1 0
1614 2 8.9725477308422192e+00 1.1220475510593667e+01 1.8918343239793806e+01 0 0 0
1611 2 1.1706301087408443e+01 9.2501653690108263e+00 1.8558259929120091e+01 0 0 0
416 2 1.1205536646105598e+01 5.7051824116004413e-01 2.2690353700914589e+01 0 0 0
1616 2 1.1101173898920718e+01 1.1388559116821098e+01 1.7982653015868937e+01 0 0 0
1133 2 8.1163099910228205e+00 1.1467184375547136e+01 1.2006638125262169e+01 0 0 0
677 2 1.2094503830933530e+01 8.2462837500300505e+00 7.4913806818319975e+00 0 0 0
961 1 4.8303385817309339e+00 1.8020468042240139e+00 1.5594411965615366e+01 0 0 0
962 2 5.0006187527890544e+00 2.5577377340228784e+00 1.6235872896598718e+01 0 0 0
1710 2 1.1090048925753524e+00 1.2202346137954727e+01 2.1810102336127294e+01 0 0 0
964 1 3.1002714317174815e+00 1.6974487609751416e+00 1.3501179489088997e+01 0 0 0
965 2 3.4491212239600695e+00 1.8689400947861827e+00 1.4392335896201891e+01 0 0 0
966 2 3.4734414620647818e+00 2.5149929920016891e+00 1.3079015357873347e+01 0 0 0
967 1 6.2643113594973121e+00 4.8510011562747408e+00 1.5055531242114633e+01 0 0 0
968 2 6.6776369254806500e+00 5.7453711814741579e+00 1.5356711929113878e+01 0 0 0
969 2 6.5926608143476519e+00 4.8461615951482884e+00 1.4119289804986277e+01 0 0 0
970 1 3.5462865961213175e+00 4.8251422010787923e+00 1.5015684428071374e+01 0 0 0
971 2 4.5180405930125884e+00 4.7057088582169717e+00 1.5082233391384806e+01 0 0 0
972 2 3.3197167710430251e+00 5.6452277613827668e+00 1.5505850623234233e+01 0 0 0
973 1 1.7988204682177071e+00 3.0185563119589589e+00 1.6488107163045132e+01 0 0 0
974 2 2.5314711908022600e+00 3.4682399030821793e+00 1.6083250409326144e+01 0 0 0
975 2 1.7173879407947374e+00 3.4961618080160832e+00 1.7322432439751712e+01 0 0 0
1230 2 2.3906155566695162e+00 1.2273017939949803e+01 1.6047798989187577e+01 0 0 0
977 2 1.4178187613008013e+00 1.4689473023258033e+00 1.3124406414124632e+01 0 0 0
979 1 4.7623582788408569e+00 3.7113138631787943e+00 1.1976784981305128e+01 0 0 0
980 2 4.6078927208850970e+00 3.3439153253245260e+00 1.1073366234345233e+01 0 0 0
981 2 5.4220235763166222e+00 3.1158371571894468e+00 1.2314529571944828e+01 0 0 0
982 1 1.9361075760175981e+00 4.8582275547742535e+00 1.2906752550805225e+01 0 0 0
983 2 2.7384727433508234e+00 4.9999477329159241e+00 1.3420110023854678e+01 0 0 0
984 2 1.2412358503416212e+00 4.7381124106771715e+00 1.3607156493955429e+01 0 0 0
985 1 4.9422276108423633e+00 6.4097153008117669e+00 1.2104018911319692e+01 0 0 0
986 2 4.9102433192508030e+00 6.8141908915711875e+00 1.1250320303168397e+01 0 0 0
987 2 4.9996513415805408e+00 5.4253415468755097e+00 1.2006404902840004e+01 0 0 0
17 2 1.3335608253909124e+00 1.7323475309409484e+00 2.2673927015880402e+00 0 0 0
989 2 1.7452936194750919e+00 1.3858183989463639e+00 1.6029737344658585e+01 0 0 0
991 1 1.0791084245803203e+01 1.8610251527046009e+00 1.5696816809063394e+01 0 0 0
992 2 1.0842518796313337e+01 1.1048296258991970e+00 1.6376028924412555e+01 0 0 0
993 2 9.9764213844801439e+00 1.7180222237006575e+00 1.5178006900408869e+01 0 0 0
994 1 9.0049327132652337e+00 1.7867607983435687e+00 1.3532843459703061e+01 0 0 0
995 2 9.4287181409841470e+00 9.5250198295496347e-01 1.3309823498661116e+01 0 0 0
996 2 9.5291825418301297e+00 2.3754394027692931e+00 1.3012780756232358e+01 0 0 0
196 1 1.2368997990680818e+01 7.6694277127051427e+00 1.8825488302720230e+00 0 0 0
998 2 1.1440572612441640e+01 4.5715198847600957e+00 1.4966323560516230e+01 0 0 0
1000 1 9.7778165083666533e+00 4.8272078195559684e+00 1.5005311244661717e+01 0 0 0
1001 2 9.2550691252646455e+00 4.2219211895429352e+00 1.5548650311257060e+01 0 0 0
1002 2 9.5733565717772215e+00 4.4891467979898332e+00 1.4128213503808229e+01 0 0 0
1003 1 7.9933583845773857e+00 2.9686097796530340e+00 1.6402418736777893e+01 0 0 0
1004 2 7.3566837070838575e+00 3.4417637216603327e+00 1.5845517949038058e+01 0 0 0
1005 2 7.9270374744494836e+00 3.3660734980345124e+00 1.7304126077012782e+01 0 0 0
1006 1 6.2318975199173554e+00 1.7821594856940337e+00 1.3275709053594744e+01 0 0 0
1007 2 5.8036727217854240e+00 1.8682736838021210e+00 1.4156071196019756e+01 0 0 0
1008 2 7.1545559182266061e+00 1.7206145310676306e+00 1.3470492072006948e+01 0 0 0
1009 1 1.0666742021074528e+01 3.4109960829648736e+00 1.2382330795688585e+01 0 0 0
1010 2 1.1540102922006003e+01 2.9892859651993176e+00 1.2671968555461079e+01 0 0 0
1011 2 1.0657583349077965e+01 3.0667157240015905e+00 1.1472889346909206e+01 0 0 0
1012 1 7.5811626285374150e+00 4.7909941363875825e+00 1.2790116642641717e+01 0 0 0
1013 2 7.4852512195773695e+00 4.1007461535820680e+00 1.2095219912207847e+01 0 0 0
1014 2 7.8930462280260141e+00 5.4973494467651225e+00 1.2231477483997038e+01 0 0 0
1015 1 1.1001592130994387e+01 6.1694747952136080e+00 1.2155825939471347e+01 0 0 0
1016 2 1.0994824043513603e+01 5.1808909352571533e+00 1.2130504816634923e+01 0 0 0
1017 2 1.1783965276453618e+01 6.4830149143918696e+00 1.2743929003193134e+01 0 0 0
35 2 9.2967607085049266e+00 1.5306979919584329e+00 3.1939427125457329e+00 0 0 0
1019 2 7.8740584984847883e+00 1.1875289810121952e+00 1.6522396940366399e+01 0 0 0
1109 2 1.1841277719259795e+00 6.1189237527484002e+00 1.5731674265473329e+01 0 0 0
1602 2 9.5509144960058254e+00 1.2027245607565437e+01 2.1009341656584748e+01 0 0 0
1081 1 5.0983426024741076e+00 8.3001560223866608e+00 1.5591723954256777e+01 0 0 0
1082 2 5.8597643027006487e+00 8.6358802425152312e+00 1.5171010499407224e+01 0 0 0
1083 2 5.4517071383748581e+00 7.5983635944860559e+00 1.6119473476762643e+01 0 0 0
1084 1 3.3084911336147682e+00 8.0164778564208650e+00 1.3628410316034698e+01 0 0 0
1085 2 3.9378148979063599e+00 8.0190408001816902e+00 1.4354572486026619e+01 0 0 0
1086 2 3.6642026646593826e+00 7.3199160232601059e+00 1.3086591186040817e+01 0 0 0
1087 1 6.2300227395964294e+00 1.1369313400268563e+01 1.5002142710333521e+01 0 0 0
1088 2 6.6552982670287362e+00 1.0693604635890551e+01 1.5506197465876220e+01 0 0 0
1260 2 7.2687736440872968e+00 1.2467798283522598e+01 1.5976623658934617e+01 0 0 0
1090 1 3.3191820676540305e+00 1.0888724041864657e+01 1.5136283900942287e+01 0 0 0
1091 2 2.7939709695075789e+00 1.0196525687223549e+01 1.5560114666418043e+01 0 0 0
136 1 3.7587586305475718e-01 7.8173847542134753e+00 2.2478472674344481e+00 0 0 0
1093 1 1.3856555368743966e+00 9.2352048815523062e+00 1.6385559205110884e+01 0 0 0
1094 2 1.4199319630950513e+00 8.2793993417172107e+00 1.6161933745073082e+01 0 0 0
1095 2 7.2911091173262477e-01 9.5893966543950118e+00 1.5751313810755279e+01 0 0 0
97 1 1.7684446163536272e-01 4.5460384411888173e+00 3.5458853845310530e+00 1 0 0
1097 2 1.3832779376704700e+00 8.1180021236230271e+00 1.3542196679774763e+01 0 0 0
1099 1 4.8593644696222391e+00 9.7806442154301987e+00 1.1792590463999671e+01 0 0 0
1100 2 4.3203605515097907e+00 9.3738293005804856e+00 1.2468978784709766e+01 0 0 0
1101 2 4.7197536400700821e+00 1.0752004224398844e+01 1.1865271820661434e+01 0 0 0
1102 1 1.7291554065204755e+00 1.1316355518243594e+01 1.2885975373637933e+01 0 0 0
1103 2 1.7061515931624740e+00 1.0460179048365717e+01 1.2461015442495793e+01 0 0 0
1104 2 8.0578436171014789e-01 1.1335595366578238e+01 1.3350585339965352e+01 0 0 0
1096 1 4.1013653569304342e-01 7.9979123266818100e+00 1.3585135861224098e+01 0 0 0
1108 1 1.8443572266495569e+00 6.5304030186058988e+00 1.6287144090779961e+01 0 0 0
577 1 1.7443302651911186e-01 5.0086893135302537e+00 9.4841428759622524e+00 1 0 0
1110 2 1.9410408546769198e+00 6.1037679007205199e+00 1.7160650588198482e+01 0 0 0
1111 1 1.1080615088532834e+01 7.9454939532377207e+00 1.5792454037334252e+01 0 0 0
1112 2 1.1871799036297851e+01 7.7506232277234908e+00 1.5262683044375228e+01 0 0 0
1113 2 1.0367007474709043e+01 7.9240823598921368e+00 1.5148870744430660e+01 0 0 0
1114 1 9.4390272477056065e+00 7.7633453913357133e+00 1.3504726824850453e+01 0 0 0
1115 2 9.6561636567244715e+00 6.9088220669319274e+00 1.3097505935945511e+01 0 0 0
1116 2 8.4164487278189188e+00 7.9184028309836547e+00 1.3412279227914993e+01 0 0 0
33 2 1.1413924479769321e+01 1.4270425474954873e+00 3.8443004741550912e+00 0 0 0
1120 1 9.5259994662998881e+00 1.1054422666685092e+01 1.4873162404054851e+01 0 0 0
1121 2 9.1203628259388569e+00 1.1098904809177474e+01 1.3978611041100930e+01 0 0 0
1122 2 1.0462808424529220e+01 1.0907707862690263e+01 1.4814153786042061e+01 0 0 0
1123 1 7.8278687438773291e+00 9.5057647274913091e+00 1.6243247594668137e+01 0 0 0
1124 2 8.4451977561653067e+00 9.9015912595491127e+00 1.5606864104768356e+01 0 0 0
1125 2 8.1561964687900907e+00 9.9279645965757162e+00 1.7053998202929293e+01 0 0 0
1126 1 6.7172006859102371e+00 8.1159894175470484e+00 1.3179015198634467e+01 0 0 0
1127 2 6.4354979395460239e+00 7.2427009303263779e+00 1.2845208615191934e+01 0 0 0
1128 2 6.1827976868500860e+00 8.7587604157956136e+00 1.2602119061358215e+01 0 0 0
1129 1 1.1087309010404564e+01 9.6061491466747331e+00 1.2283979725855803e+01 0 0 0
1130 2 1.0338376838166601e+01 9.2364113632443541e+00 1.2817434904063445e+01 0 0 0
1131 2 1.1047643257529346e+01 9.2599068346045001e+00 1.1418556966840049e+01 0 0 0
1132 1 8.0199098590596769e+00 1.0814282964894048e+01 1.2730254631703977e+01 0 0 0
1347 2 5.6153700084503777e+00 5.9138750030167409e-01 1.2260927928937980e+01 0 0 0
1134 2 7.0988179529836533e+00 1.0879917410258471e+01 1.3048295878636509e+01 0 0 0
516 2 9.5527205174197451e+00 7.5931110893271869e-01 7.4912921712908584e+00 0 0 0
1137 2 1.0991081968304570e+01 1.1368674762168107e+01 1.2291145795467170e+01 0 0 0
1138 1 7.7932211821377635e+00 6.8178772939291568e+00 1.6525152022998281e+01 0 0 0
1139 2 7.7663643661841402e+00 7.7939862045593191e+00 1.6621260474394447e+01 0 0 0
1140 2 8.7149327989715726e+00 6.6908556348685400e+00 1.6281048879615302e+01 0 0 0
557 2 1.1959429412738523e+01 1.3354551357255704e+00 8.7084248414573029e+00 0 0 0
1658 2 4.5050014917410131e-01 1.0860323073758874e+01 2.0112179441989682e+01 0 0 0
198 2 1.1932845281278405e+01 6.7939542635416590e+00 1.5363831349324542e+00 0 0 0
99 2 8.5141295205363410e-01 3.9423106226638072e+00 3.9722949456590326e+00 0 0 0
162 2 9.1737485293005481e+00 1.1468624718121557e+01 4.3315687611551557e+00 0 0 0
1615 1 1.0949014304356192e+01 1.2344563589260407e+01 1.8014984076243522e+01 0 0 0
1606 1 6.4577039178943165e+00 7.9008461765888240e+00 1.9381557355016408e+01 0 0 0
637 1 1.2233316285324470e+01 1.0651438423989612e+01 9.6311647344292588e+00 0 0 0
537 2 1.1247581781702650e+01 6.0621876623607029e+00 5.5971293381153471e+00 0 0 0
1441 1 4.7734591827554276e+00 1.7397755850302981e+00 2.1368051770680939e+01 0 0 0
1576 1 5.0829168220892673e-01 7.7007370677829998e+00 1.9047711748090425e+01 0 0 0
1443 2 4.9671765982707052e+00 2.5985337429031485e+00 2.1749732400068119e+01 0 0 0