LAMMPS data file via write_data, version 3 Mar 2020, timestep = 6350000

2016 atoms
2 atom types

0.0000000000000000e+00 1.7938718694993419e+01 xlo xhi
-8.4224785953101033e-01 4.5838407836442087e+01 ylo yhi
0.0000000000000000e+00 1.9077954589255725e+01 zlo zhi
4.5017366359870574e-02 -6.6760948824468471e+00 -2.2931285196285955e-02 xy xz yz

Masses

1 16
2 2

Atoms # atomic

579 2 6.7743626445399361e+00 4.0956390340414934e+00 3.9146252174682314e+00 -1 0 0
1545 2 7.9288273017476500e+00 8.6684225271688700e+00 1.9629402384258667e+00 -1 0 0
892 1 5.5768754376976544e+00 1.4559152418701771e-01 9.4047218152526479e+00 -2 0 -3
984 2 5.7781132401866264e+00 3.1016076593476543e+00 1.1630546263597036e+01 0 0 0
151 1 2.7570251176087410e+00 2.6749282520032569e-01 9.4675645177245205e+00 3 0 0
542 2 6.9798036628558933e+00 6.5353765682724010e+00 1.4476440101054248e+01 -1 0 1
927 2 9.7321333989685677e-02 2.7588895648825345e+00 1.7332843660412131e+01 2 0 2
214 1 5.0008787684770564e+00 9.1364403309218964e+00 1.4457956490754986e+01 0 0 -3
728 2 8.4285614980252497e+00 5.5460716328765072e+00 1.5972774299916507e+01 0 0 1
559 1 1.4415953740880907e+00 3.7433016954209064e+00 2.3751080521488435e+00 -2 0 1
874 1 8.9795054373873562e+00 1.0618176779256694e-02 7.2753788443575855e+00 -3 0 1
493 1 4.0679173624848115e+00 6.0183095982050343e+00 8.0651634679317681e+00 -3 0 -2
715 1 6.6946798798988958e+00 6.0224773019900777e+00 8.3445051269234884e+00 1 0 2
750 2 4.4666196320324412e+00 7.9878711567832479e+00 3.3040191307753637e+00 -3 0 1
710 2 4.8799508095242139e-02 7.8075560495528489e+00 1.5988353017500284e+01 -3 0 -2
596 2 8.6314951614162960e-01 6.0648187387124084e+00 4.3871293454052598e+00 3 0 -2
918 2 2.2164340970492020e+00 6.4627296261834322e-01 3.2630975650654515e+00 1 0 3
735 2 -1.8701461744710128e+00 3.6053301206771939e+00 1.8808752096003989e+01 -3 0 -1
555 2 8.1227406174351131e+00 -8.0283425243684126e-01 1.6794623298392420e+01 -5 0 -2
385 1 -1.0712676550324791e+00 1.6657993894550125e+00 9.6677664456477999e+00 0 0 -2
388 1 1.3546988527155126e+01 2.6483395336305433e+00 1.0930633556690317e+01 -1 0 0
669 2 6.5120818713871405e+00 6.3497380019987526e+00 9.6045544737411753e-02 -2 0 -2
254 2 1.1531389114396227e+00 5.8705902163384680e+00 1.6172768124865399e+01 -2 0 -3
916 1 1.8774054030550618e+00 3.2799889805358617e-01 2.4024489058471663e+00 1 0 3
716 2 6.9707841186998110e+00 5.1315354698249545e+00 8.2650984348905467e+00 1 0 2
844 1 9.6554802265897566e-01 3.1675388057487917e+00 1.0949673208856401e+01 1 0 1
574 1 -9.6957286211886817e-01 -1.5461607599566030e-01 1.5712600268087115e+01 0 0 1
274 1 5.8479438070125163e+00 4.4120916917312059e+00 2.2550074773497348e+00 2 0 0
724 1 1.1564358451314527e+01 -7.8205723347204126e-01 6.3166391834713016e+00 1 0 1
344 2 1.0732756938852351e+01 1.0254421286338069e+00 1.5584929768198020e+01 -2 0 1
246 2 1.1493317681474334e+01 7.7123847324054218e+00 1.8397969357703793e+01 -4 0 -3
958 1 -3.3356291255432011e+00 5.4832426657004785e-01 1.6802545270873729e+01 1 0 -1
252 2 1.5371743699156347e+01 6.5189649375224175e+00 6.2626945955699025e+00 -3 0 2
306 2 4.2189293656074014e+00 9.1992767065320837e+00 6.1211451776474242e+00 0 0 -3
1075 1 5.4836040972339317e+00 6.4806007279693825e+00 3.8917168698754865e+00 0 0 0
544 1 9.0591724322260934e+00 1.0323916066602106e+01 1.4976657040843293e+01 2 0 1
685 1 1.1152239611590982e+01 1.4074368325490183e+00 4.7496157395501806e+00 -4 0 1
709 1 8.7731942133443486e-01 7.3502820113431877e+00 1.5696235092070580e+01 -3 0 -2
502 1 9.5332606122792445e+00 9.7973820930723914e+00 9.6934586918429080e+00 -1 0 -1
704 2 -1.5514470825418227e+00 1.0492218583773711e+00 1.1196149073776374e+01 -2 0 0
700 1 7.3526697195547479e+00 4.1453605678702976e+00 1.2100115130728771e+01 -3 0 -3
114 2 3.2365124838800794e+00 3.0671781167306560e+00 1.7910948057108396e+01 -2 0 -2
523 1 1.4711712812073589e+01 1.5597881525701887e+00 2.3713874378728224e+00 -2 0 -3
1617 2 -2.7867906094106933e+00 5.5380835222619922e+00 1.0658563055638675e+01 1 0 0
206 2 5.4808560604461203e+00 3.1782415096347663e+00 1.4380868383248160e+01 3 0 0
290 2 2.3401191796569316e+00 4.0251585353330146e+00 1.3648891910378953e+01 1 0 3
826 1 1.5497493766815014e+00 1.6792954684939980e+00 1.6933312356610926e+01 1 0 0
583 1 1.3080453325627850e+01 3.8609637658708031e+00 1.9266672794571011e+00 -4 0 -3
784 1 -2.4444106738768396e+00 7.8785542664298056e+00 7.6012938556945535e+00 -3 0 -2
305 2 2.9298637210772176e+00 9.9424583060607112e+00 5.3707757518143593e+00 0 0 -3
1994 2 -2.1411745689922226e+00 7.7121193666829804e+00 1.8281140293869225e+01 -2 0 -3
923 2 -4.1996258819803529e+00 6.5158824892982201e+00 1.7174278759494186e+01 -3 0 -3
925 1 -8.7882007474109969e-01 2.7510268762837242e+00 1.7346551242925919e+01 2 0 2
454 1 5.5492168245014275e+00 1.4345830526514596e+00 2.2169852041125262e+00 -1 0 0
796 1 1.1217318060825590e+01 1.9747155993756049e-01 1.0160571684879102e+01 -3 0 1
760 1 1.6958482873142330e+01 5.8056254181543911e+00 2.4165950681706514e+00 -4 0 2
920 2 1.1588609395760942e+01 1.7196462369123848e+00 9.2280114767648680e+00 0 0 -2
187 1 8.3897951722768891e+00 1.9495921194254060e+00 1.4271293724605522e+01 -5 0 -6
689 2 9.9399608943747921e+00 4.9444144492198561e+00 7.5023063823779684e-02 -3 0 0
162 2 6.1025901850160285e+00 9.3459185154179156e+00 1.5682107064440505e+01 0 0 -5
392 2 1.1498785797470113e+01 2.8598265619067496e+00 1.6868121321109282e+01 -2 0 -1
387 2 -1.6087163091253451e+00 2.2367608378054262e+00 9.1490216566009597e+00 0 0 -2
977 2 1.5819187323259051e+01 5.4613789626697962e+00 6.1184148278054984e-01 -3 0 0
153 2 2.1878040309376030e+00 -4.5811911770098673e-01 9.3121840544677443e+00 3 0 0
309 2 6.3103792332762341e+00 1.0472449636045523e+01 6.1682654041393494e+00 1 0 2
500 2 4.2155627038227035e+00 1.3482602572706059e+00 1.4068217306830745e+01 1 0 0
1584 2 4.1621865952560375e+00 3.5507597295098936e+00 1.0074629723863707e+01 0 0 0
675 2 1.6458637303949850e+01 4.1787666411377042e+00 3.3440868938886328e+00 -1 0 -3
846 2 2.2555829194388766e-01 2.6745633470464503e+00 1.0511831166686690e+01 1 0 1
810 2 1.0507777112283829e+01 1.1529207529675267e+00 1.7941374817078586e+01 -4 0 -1
525 2 1.5587429567242275e+01 2.0039011450526703e+00 2.2696161027787309e+00 -2 0 -3
445 1 -9.7865031861820384e-01 9.2005729440492576e+00 1.6492434860838699e+01 0 0 0
501 2 4.4184494210572609e+00 1.5358743515608322e+00 1.5524142029524421e+01 1 0 0
78 2 6.6642863309453917e+00 6.5911741145287284e+00 9.9696376112707306e+00 -2 0 -3
367 1 1.1747720062233231e+01 1.8679925324259692e+00 1.2835373311491796e+01 -2 0 0
459 2 9.3842587586001862e+00 3.1532062181400122e+00 1.4226735980744524e+01 -3 0 -3
85 1 6.8850675594746686e+00 6.9289295067385774e+00 1.7930634019458463e+01 1 0 -3
123 2 2.0810998776868237e+00 8.2912791480405588e+00 6.8297142941609437e+00 -1 0 0
622 1 -9.6020695019524371e-02 7.5456837653084161e+00 4.9470940274343924e+00 -2 0 -1
624 2 -1.4231526056918020e-01 8.3883917943222901e+00 4.3642821431006222e+00 -2 0 -1
926 2 -1.0137894637230049e+00 1.8727230103686212e+00 1.7835831752946628e+01 2 0 2
751 1 1.0211553151245759e+01 1.0219627529825644e+01 6.8195847610048972e+00 0 0 3
857 2 4.7320467941434892e+00 3.5722122547598039e+00 6.2235221379072430e+00 -2 0 -3
37 1 -1.5945810002044205e+00 7.1815970204456292e+00 1.0027940848846280e+01 -3 0 -3
914 2 1.0022895794740341e+01 -7.4161644446462316e-01 1.3863980070642024e+01 0 0 2
302 2 9.1858095618719737e+00 -1.8243390379655866e-01 3.0812906463022678e+00 0 0 0
229 1 1.2891874493433754e+01 3.3251248103469395e+00 5.0744451634669518e+00 -1 0 -2
806 2 2.3523747663843437e+00 1.5346695180950269e+00 8.2929519495132791e+00 -4 0 1
987 2 4.2115118020982711e+00 7.0707664902553988e+00 6.0835557946842678e-01 -2 0 -2
393 2 -5.3147508377780150e+00 3.9385920459092469e+00 1.6778046786121838e+01 -1 0 -1
950 2 8.6790945224190814e+00 3.2504506868826093e+00 7.5018492567519575e+00 -1 0 2
514 1 1.2363867888756232e+01 9.2983421960010304e+00 1.3253742700263070e+01 -1 0 -1
1583 2 -5.7475549258493785e-01 5.8598897895565361e-01 1.5206932136847723e+01 0 1 1
841 1 -7.4979889375249709e-01 5.1766166810220948e-01 1.8755158311364131e+01 -5 0 -5
714 2 -9.8640849353127624e-01 2.6987633855839666e+00 1.4520072491898890e+01 0 0 2
251 2 -1.4162060210029286e+00 6.7020921754049345e+00 5.1139740429107938e+00 -2 0 2
702 2 7.0538388600229620e+00 4.0013243570297368e+00 1.3035166335501009e+01 -3 0 -3
386 2 -4.6772045890222058e-01 1.2710935348746135e+00 9.0212047451307065e+00 0 0 -2
1543 1 8.7280266228988435e+00 8.1173972416766524e+00 2.0108349429845336e+00 -1 0 0
880 1 9.1400688134964838e+00 8.0822923963641156e+00 1.3396378362992408e+01 -3 0 2
960 2 -2.4124732139530716e+00 3.6310977301800262e-01 1.6622742108818819e+01 1 0 -1
516 2 1.2992087904833213e+01 1.0022137277264259e+01 1.2955008450677902e+01 -1 0 -1
871 1 5.4390747924069434e+00 5.7033251885174319e-01 4.7795786679486474e+00 -2 0 -1
1517 2 8.2574611519876697e+00 8.5941215715582109e-01 4.5615986945746156e+00 0 0 0
105 2 5.6400887322775661e-01 8.7885957261746022e+00 8.5369657734383999e+00 0 0 1
86 2 7.4753822655281148e+00 6.6656788118533736e+00 1.8715808189210186e+01 1 0 -3
872 2 4.6644797027639715e+00 6.6777155256887100e-02 4.5476721279020591e+00 -2 0 -1
273 2 1.2891401874879984e+00 1.6448672934469282e+00 4.8761425303182380e+00 0 0 -1
4 1 1.0369455942465084e+01 4.5240316351370105e+00 1.8908150499269716e+01 0 0 -1
61 1 -2.6372710810009425e-01 8.4251067178359644e+00 2.4119745972532880e+00 0 0 -1
382 1 -3.8778441168302691e-01 1.7902866874739560e+00 4.9807806104285319e+00 -1 0 1
969 2 5.8178406531503271e+00 5.2963803527375841e-02 1.2529744509493044e+01 -1 0 1
112 1 3.4670863236446667e+00 4.0406499839036236e+00 1.7890583771040575e+01 -2 0 -2
1664 2 7.3808482293942452e+00 2.9955207782867461e+00 1.7436391799527062e+01 -3 1 -1
703 1 -1.5749235714245913e+00 5.5745777045423028e-01 1.2035959593309606e+01 -2 0 0
856 1 4.7323299739476941e+00 2.7419637060907363e+00 6.7045110518817053e+00 -2 0 -3
733 1 4.0617295204336399e+00 3.9388848830713155e+00 2.7579168873887894e-01 -3 0 0
843 2 5.7558296568122413e+00 8.6140952954242533e-01 6.4219286739825332e-01 -5 0 -4
611 2 1.0603157397925187e+01 5.3535251890589333e+00 1.3461035573939007e+01 -1 0 2
38 2 -2.1668162815005170e+00 7.4121310750968803e+00 9.2804567041834662e+00 -3 0 -3
506 2 1.2887979497084242e+01 6.2409225977331859e+00 1.3071077170145688e+01 -5 0 -3
98 2 7.8365142533289012e+00 6.0117344843512188e-01 1.1251012295781930e+01 0 0 -1
368 2 1.2602695375420801e+01 1.7576467173941439e+00 1.2358476801691506e+01 -2 0 0
946 1 -5.0522374383107627e-01 -3.4159058913445417e-01 3.2820550143640888e+00 0 0 4
623 2 6.4058468539955449e-02 7.7058001849621753e+00 5.9068394700517839e+00 -2 0 -1
513 2 1.2004070358713756e+01 2.4958638041129837e+00 6.1404912583718496e-01 1 0 1
253 1 1.2976109005921828e+00 4.9503098430907588e+00 1.6584058463762972e+01 -2 0 -3
982 1 5.1378111395202151e+00 2.5472322725901777e+00 1.1136472584966997e+01 0 0 0
515 2 1.1809271838598576e+01 9.0021649792628757e+00 1.2446058473128698e+01 -1 0 -1
250 1 1.5724995707683345e+01 6.2070404909113464e+00 5.4403865121219450e+00 -3 0 3
929 2 1.1000864105443780e+01 8.0497663099092809e-01 3.1850779075875146e+00 0 0 0
881 2 8.6308632398800214e+00 7.5887312612758357e+00 1.4085348534585796e+01 -3 0 2
488 2 4.8239990767600318e+00 7.5077782195154921e+00 1.0221868017699434e+01 -5 0 0
176 2 8.5665390196061768e+00 8.6349863671635285e-01 6.7749128114846469e-01 -5 0 2
697 1 1.2625843853635271e+01 9.4458147352509503e+00 7.2745876022800733e+00 2 0 4
650 2 -4.5998362680522060e+00 2.4004911237230826e+00 1.5076710839228108e+01 -4 0 -1
870 2 1.5055262486967640e+01 9.1925574933212264e+00 1.3115357978924360e+00 1 0 0
959 2 -3.5496583182574803e+00 1.2043938496285396e+00 1.6146270572884596e+01 1 0 -1
613 1 1.0164629798964517e+01 7.5869484136609895e+00 1.7315129962408236e+01 -3 0 -1
355 1 1.7236455296339777e+01 2.4805955733102105e+00 1.5762974542006054e+00 -5 0 -3
654 2 1.0662974275673186e+01 6.7087439274714207e+00 7.8406916739796841e+00 -2 0 0
786 2 -2.3900831559737465e+00 8.7670359483985187e+00 7.2149006505383113e+00 -3 0 -2
711 2 7.7063542465936763e-01 7.0137057347411815e+00 1.4801830291839845e+01 -3 0 -2
244 1 -5.5720510607172873e+00 8.0362931932410930e+00 1.8795430286213708e+01 -3 0 -3
76 1 6.4612607290355788e+00 6.7758669858294587e+00 1.0923743314094958e+01 -2 0 -3
894 2 5.4882091526882260e+00 9.8013552860633690e-01 9.9213396363848450e+00 -2 0 -3
521 2 1.5999600617937398e-01 -5.1536579373829761e-01 2.2004540189832975e-01 -4 0 -1
408 2 1.2627742093838073e+01 5.8052527852082028e+00 9.9886836352040671e+00 -3 0 -2
297 2 2.0629561862855530e+00 9.9547531833644918e+00 1.2463428310981190e+01 1 0 2
753 2 9.5255913717830047e+00 9.5057892177309924e+00 6.6082095483488459e+00 0 0 3
827 2 1.7391846447607859e+00 1.1889710975148788e+00 1.6119722715801764e+01 1 0 0
1077 2 6.3494761875505059e+00 6.8065240656602182e+00 4.0837540526668930e+00 1 0 0
62 2 1.2482283164693531e-01 8.4986349461350255e+00 1.5049132284672442e+00 0 0 -1
541 1 7.6899468696693836e+00 6.7935834416451524e+00 1.5178818062100097e+01 -1 0 1
589 1 6.0894281230680010e+00 4.4061102470077609e+00 1.7013925668165836e+01 -4 0 -1
649 1 -3.7529756651015740e+00 2.1381668808693290e+00 1.4720917617531470e+01 -4 0 -1
749 2 3.3811063833127983e+00 8.4886128544585642e+00 4.1846407903339760e+00 -3 0 1
868 1 1.5209599422100650e+01 9.2620514932385696e+00 2.2932437041281903e+00 1 0 0
938 2 6.2350881292300251e+00 2.9424752975451640e+00 7.5910679663212877e+00 1 0 0
983 2 4.4541471496992946e+00 2.2444092747400610e+00 1.1723735018356582e+01 0 0 0
643 1 8.3666059398079717e+00 7.0998826959411909e+00 4.4786415930961772e+00 -4 0 -3
522 2 1.6543810074804174e+01 -7.9261881267245204e-02 2.4763319448891144e-01 -5 0 -1
937 1 7.0884922187480424e+00 3.1548460151050328e+00 7.9840295269298958e+00 1 0 1
895 1 5.1587829509222987e+00 4.3406844365479080e-01 1.6619683754157133e+01 -2 0 -1
911 2 -2.9245118994937442e+00 6.0299296935233726e-02 1.2785432051303525e+01 -1 0 1
976 1 1.4886768157215796e+01 5.7200953565791073e+00 7.9678547954625578e-01 -3 0 0
350 2 1.2033344857331429e+01 9.8566653613326860e+00 1.6093554786553312e+01 2 0 3
458 2 1.0929904385754593e+01 3.3794668966721568e+00 1.4645140458487059e+01 -3 0 -3
231 2 1.3199698619768050e+01 3.7927761980843915e+00 5.8758427560139195e+00 -1 0 -2
494 2 4.0625140634533947e+00 5.6991604923587582e+00 7.1568889647553906e+00 -3 0 -2
357 2 9.5719171516999046e-02 2.9113963162180783e+00 1.7964803558861691e+00 -4 0 -3
100 1 9.8018001465784055e-01 6.0337767487182292e+00 9.4808628766165715e+00 -1 0 -1
609 2 2.7520401805889811e+00 7.1029060139696565e+00 2.1845555850615401e+00 -3 0 0
160 1 6.7166360403978533e+00 9.6870737172839636e+00 1.6373042260320819e+01 0 0 -5
42 2 2.0334927970193877e+00 1.1733195110401695e+00 1.0154726296575216e+00 -2 0 3
708 2 2.4435653665452897e+00 7.8643017193951059e-01 1.2793845588616948e+01 -1 0 -1
767 2 1.3816825035389328e+01 1.0676746914097887e+01 9.7994187523523681e+00 -5 0 -2
289 1 1.8755847896569895e+00 3.3509540430977216e+00 1.4193572816026762e+01 1 0 3
93 2 1.0298538000380745e+01 4.9198537849382209e+00 2.0653282417416450e+00 0 0 1
1616 2 -3.2592710434878014e+00 5.4893570520122541e+00 1.2000498703576845e+01 1 0 0
630 2 1.4790428392188860e+01 6.5600859628861050e+00 4.2047984238633438e+00 -3 0 1
41 2 -4.0387622225491953e+00 1.0727145174021970e+00 1.8583506431391726e+01 -2 0 2
712 1 -4.0269235639249867e-01 1.9495435535291374e+00 1.4191071525600051e+01 0 0 2
548 2 5.9760175196746212e+00 6.5839940180246943e+00 1.2408093100949451e+01 -3 0 -4
184 1 -4.7947900453456560e+00 5.0713532643248156e+00 1.7980515316235707e+01 -4 0 -7
129 2 2.6689101129426920e+00 5.7736737604666253e+00 1.2555868993613810e+01 -2 0 -2
658 1 -5.3468317609907130e+00 1.0633816784915391e+01 1.8703159085269316e+01 0 0 -2
122 2 1.7731938223067245e+00 7.0836915378700827e+00 7.8872470056483612e+00 -1 0 0
16 1 1.4514171734631446e+01 1.3242816896432141e-01 4.7047703204818516e+00 -1 0 2
17 2 1.4221533788345230e+01 5.8686903468611051e-01 5.5193554652780543e+00 -1 0 2
917 2 9.0034995142137042e-01 2.7801256280762487e-01 2.4260320589558075e+00 1 0 3
769 1 1.1198065450893413e+01 5.2420196741293701e+00 1.0473080547355105e+01 0 0 -3
671 2 6.9938958770942614e+00 1.0351165654982802e+01 6.2682579670987892e-01 -3 0 0
883 1 -5.4239954018364056e-01 1.0121295911572547e+01 1.3979153354359113e+01 0 0 -1
636 2 -2.3138231812521268e+00 2.0073692435361399e+00 7.0288579741539898e+00 2 0 -2
40 1 2.4953409220887948e+00 1.6633654250259613e+00 2.6612845343245051e-01 -2 0 3
674 2 1.6002172004808596e+01 4.5786058663686076e+00 4.7470414497821007e+00 -1 0 -3
828 2 1.8636344561087075e+00 1.1077326735138582e+00 1.7708452676842548e+01 1 0 0
128 2 3.1334916616661959e+00 4.5476413244098177e+00 1.1499085129129014e+01 -2 0 -2
503 2 9.5804416828594920e+00 9.8844155056580068e+00 8.7034425766225265e+00 -1 0 0
928 1 1.0771824596165542e+01 5.6819025383860411e-02 2.5541479690930204e+00 0 0 0
185 2 -5.5363721457344610e+00 4.8498442335624601e+00 1.8540930468822044e+01 -4 0 -7
681 2 3.0025576952739375e+00 5.3579852827905894e+00 5.2907773016089408e+00 -3 0 -2
912 2 -4.0143496796342468e+00 6.0178911994200268e-01 1.3799391941846711e+01 -1 0 1
549 2 4.8237643068227154e+00 6.0756025207141739e+00 1.3214646878876255e+01 -3 0 -4
973 1 2.0238428065125813e+00 1.6890302319128314e-01 1.4620839608744998e+01 -4 0 -2
36 2 -1.5739600514737733e+00 3.6233864996111604e+00 1.6154738313384090e+01 -1 0 0
945 2 -3.0287032988938325e+00 6.6367862596904041e+00 1.4171697370486521e+01 0 0 2
972 2 8.7754647426764105e+00 6.5363742986991813e-01 9.0307470280848303e+00 0 0 1
336 2 1.2114908936086321e+01 9.0880801715623480e+00 1.0524711902888331e+01 -2 0 -2
970 1 8.2602851068298264e+00 1.1947195461157860e+00 9.6376523474122884e+00 0 0 1
924 2 -4.3112167737777245e+00 7.9964546406551271e+00 1.6550948975871261e+01 -3 0 -3
215 2 4.9447266529082281e+00 1.0009430057937847e+01 1.3964933670453624e+01 0 0 -3
571 1 8.0684856425899714e+00 5.4478026814140601e-02 1.9010317562105630e+01 1 0 3
34 1 -1.8757114872950429e+00 3.9928712183159218e+00 1.5263711993933894e+01 -1 0 0
383 2 -8.1666320196924935e-01 2.6370591724474441e+00 4.7333001651486102e+00 -1 0 1
687 2 1.0205150268232384e+01 1.6130524547164442e+00 5.0079882132377076e+00 -4 0 0
397 1 9.7423617929841395e+00 2.9264615845886195e+00 1.1186509791783092e+01 3 0 0
135 2 3.9477322491642548e+00 8.2072116366016132e+00 1.7615303654327306e+01 0 0 -1
91 1 1.0502565046811977e+01 4.2420631282568442e+00 2.7538094682640031e+00 0 0 1
189 2 8.1433281869660341e+00 1.5929668478929759e+00 1.3359014531080014e+01 -5 0 -6
951 2 9.3983416132442876e+00 4.0781507616997601e+00 6.5606092270346750e+00 -1 0 2
833 2 -2.0375083634538709e+00 1.0198215802822761e+01 8.8953718702815490e+00 -3 0 0
713 2 5.3358492168687555e-01 2.3180959678522193e+00 1.4196402945114693e+01 0 0 2
893 2 4.6331289977573462e+00 6.9527541141067073e-02 9.2697979267385069e+00 -2 0 -3
698 2 1.1748142161261006e+01 9.8082504321339883e+00 6.9541742481820332e+00 2 0 4
762 2 -2.0982817748135124e-01 5.4726874001086223e+00 1.9158282496414607e+00 -3 0 2
656 2 -1.7996423054344661e+00 7.6504782908465820e+00 1.3342510406525385e+01 0 0 0
255 2 1.3800507318512061e+00 4.3118407623934951e+00 1.5810815587288506e+01 -2 0 -3
213 2 -1.2713083848364128e+00 4.9243872734343634e+00 1.2024009761114284e+01 -5 0 -2
978 2 1.4997694258916429e+01 5.9677587717559710e+00 1.7211727005379842e+00 -3 0 0
645 2 8.6374323177647003e+00 7.4165736546092145e+00 3.5747735543928418e+00 -4 0 -3
651 2 -3.0835780840076850e+00 2.7169390931299744e+00 1.5022926405074083e+01 -5 0 -1
504 2 1.0235517977872274e+01 9.1580217650878168e+00 1.0008234846270787e+01 -1 0 -1
1516 1 8.5378050343625702e+00 1.5943619060257634e+00 5.1876256943982453e+00 0 0 0
175 1 8.6820729534891736e+00 1.3768031861547025e-01 4.1712292383998810e-02 -5 0 2
406 1 1.3337050134291518e+01 6.1700575584285975e+00 9.3785647657345503e+00 -3 0 -2
584 2 1.3689891875507888e+01 3.1061498995960810e+00 2.1040812594177369e+00 -4 0 -3
446 2 -9.0206788087824297e-01 9.6058855211374361e+00 1.5624180807366029e+01 0 0 0
612 2 1.0307613308352931e+01 6.8456244918997156e+00 1.3065702274291422e+01 -1 0 1
391 1 -5.6701400845672172e+00 3.1650999873192927e+00 1.6320765621528480e+01 -1 0 -1
87 2 6.1266065473383575e+00 7.4305086660436874e+00 1.8232674467680194e+01 1 0 -3
230 2 1.3375321154439419e+01 3.6366894206072553e+00 4.2782959419630799e+00 -1 0 -2
505 1 -4.1855769657317872e+00 6.7110579469298699e+00 1.3033211191053237e+01 -4 0 -3
224 2 1.0950608218083932e+01 5.5186295729177388e+00 5.4236718081041682e+00 -2 0 -1
748 1 3.5547825994885289e+00 8.3695779832569865e+00 3.2343752543641457e+00 -3 0 1
679 1 3.9097262972653892e+00 5.1814193273816365e+00 5.5291520046799665e+00 -3 0 -2
842 2 -1.3512818056669902e+00 -1.8388209591785398e-01 1.8518777331075647e+01 -5 0 -5
845 2 6.0859289928846838e-01 3.7329212638853164e+00 1.1625115728846577e+01 1 0 1
798 2 1.0923194175551920e+01 4.5219025086526465e-01 1.1022856210489344e+01 -3 0 1
101 2 2.3687571576428690e-01 6.5930761694015558e+00 9.7434050760983464e+00 -1 0 -1
943 1 -2.2659727345483374e+00 6.5658528461803609e+00 1.4797768218674658e+01 0 0 2
770 2 1.0723241335401646e+01 5.8197840841459376e+00 9.9169219100529276e+00 0 0 -3
511 1 1.1657257560862815e+01 1.6265707437711976e+00 4.1942950841657323e-01 1 0 1
726 2 1.1857928815703008e+01 4.4287334778434717e-02 5.8683416315268317e+00 1 0 1
873 2 5.2193875849066167e+00 1.3745507732449127e+00 5.2373637315009978e+00 -2 0 -1
457 1 1.0070023485896805e+01 3.8564670665666867e+00 1.4347977429476202e+01 -3 0 -3
680 2 4.5373084829330192e+00 5.7765185812730788e+00 5.0901109192827345e+00 -3 0 -2
461 2 7.7249229848495808e+00 9.4664189903333824e+00 1.7884900090858785e+01 -3 0 -2
186 2 -3.9708053277567790e+00 4.7430381015982634e+00 1.8423703235838474e+01 -4 0 -6
944 2 -2.6141320858780714e+00 6.9656030014570165e+00 1.5628734953617784e+01 0 0 2
116 2 1.3076567334058947e+01 -1.8683314322759759e-01 9.8190426098212331e+00 -5 0 -5
921 2 1.0915290161481531e+01 2.8581715644444117e+00 8.3931794462058384e+00 0 0 -2
26 2 1.2415481833351064e+01 7.6817763100280860e+00 6.6207568922074742e+00 -2 0 -3
805 1 2.2371221330313862e+00 2.3992296478748494e+00 7.7806238888335688e+00 -4 0 1
1076 2 5.4889733258980531e+00 5.8202474313716364e+00 3.1591566490005873e+00 0 0 0
272 2 2.2889594790523171e+00 6.8420229975506275e-01 5.4856507228331308e+00 0 0 -2
807 2 2.0975900656161599e+00 2.1638179209339725e+00 6.8139253140582809e+00 -4 0 1
766 1 1.2858190506247521e+01 1.0543084584450932e+01 9.6781940923036895e+00 -5 0 -2
338 2 2.7855143667671731e+00 8.3043455870505571e+00 1.0807828017411570e+01 -1 0 -2
910 1 -3.6833573448512893e+00 -1.8336442782404860e-01 1.3346112561140991e+01 -1 0 1
1582 1 3.3973577742241301e+00 4.1314327474772687e+00 9.8442076432438927e+00 0 0 0
5 2 1.7052803939020659e+01 3.6892995705895659e+00 2.3607284684509749e-01 0 0 0
595 1 1.2534981139594896e+00 5.1629358355892672e+00 4.6143240331487556e+00 3 0 -2
308 2 6.6718179875825516e+00 9.0718106105416236e+00 6.6163289580877178e+00 1 0 2
398 2 8.8680634664648430e+00 3.2874347745266501e+00 1.1484592959189852e+01 3 0 0
615 2 1.0730294246759977e+01 7.9024199639925197e+00 1.6527643096107841e+01 -3 0 -1
819 2 5.2962996135876796e+00 1.0293663014722696e+01 7.9746770271240361e+00 1 0 3
776 2 1.4345505815348536e+01 3.6513488432355965e+00 7.4989775166987629e+00 -3 0 2
438 2 4.0817417529364786e+00 3.8010251267761870e+00 3.7581214516049202e+00 -2 0 1
268 1 1.2515872546090163e+00 6.7712298853878892e+00 1.3206656396547910e+01 2 0 -2
985 1 4.9229683943998088e+00 7.5610872632336772e+00 8.0286769622332471e-02 -2 0 -2
304 1 3.2585917286000723e+00 9.0575189976121138e+00 5.7528260441968966e+00 0 0 -3
35 2 -1.9849008893089128e+00 5.0015902151037919e+00 1.5288312762288031e+01 -1 0 0
699 2 1.3329480709806059e+01 9.9219600858546340e+00 6.7488058619530324e+00 2 0 4
771 2 1.1091881926259063e+01 5.5503989155578299e+00 1.1455592323327849e+01 0 0 -3
460 1 8.4211569397072807e+00 9.3424953666043642e+00 1.8555578696700930e+01 -3 0 -2
68 2 8.5221926152151823e+00 7.5675711483528865e+00 7.5072522187180022e+00 -4 0 -2
96 2 1.3314142108347301e+01 1.5621651967850267e+00 7.3573318529577199e+00 -2 0 -1
667 1 7.2391342276062796e+00 5.7434367048812103e+00 2.1968284416905651e-01 -2 0 -2
63 2 1.6840523745330739e+01 8.8950693264237835e+00 2.3483189225435921e+00 -1 0 -1
939 2 7.2434832959137303e+00 2.3110230064191652e+00 8.4406299274934291e+00 1 0 0
337 1 2.0038692224437220e+00 8.5472957072435527e+00 1.1353995754775625e+01 -1 0 -2
706 1 2.6385075219667495e+00 1.2173055623129878e+00 1.1953934352124866e+01 -1 0 -1
39 2 -1.8140373953008742e+00 7.6413269619768727e+00 1.0902698341345566e+01 -3 0 -3
270 2 5.1796610935288978e-01 6.2264111835156202e+00 1.2821909933274160e+01 2 0 -1
690 2 9.0745538968033923e+00 6.0654722038016393e+00 7.2159111948902099e-01 -3 0 0
974 2 2.5633891586639157e+00 -4.8168838114499346e-01 1.5150907528098704e+01 -4 0 -2
25 1 1.2140111214694079e+01 6.7852961162514678e+00 6.4815967211630916e+00 -2 0 -3
705 2 -1.2677188988591679e+00 1.1458927456276027e+00 1.2762329287761307e+01 -2 0 0
390 2 -3.7800825058187395e+00 3.3004048427251407e+00 1.1133247128098088e+01 0 0 0
225 2 1.0178500746522849e+01 4.8523428864776719e+00 4.2581862192635054e+00 -2 0 -1
644 2 9.0581756121866839e+00 6.4416513600798302e+00 4.6596700437123983e+00 -4 0 -3
590 2 5.1450863339257236e+00 4.1346171215334371e+00 1.7156729605264474e+01 -4 0 -1
67 1 8.3468007751360105e+00 8.3056975999497791e+00 6.9357141660854493e+00 -4 0 -2
919 1 1.1773599205847720e+01 2.5213463805950687e+00 8.6630644665921945e+00 0 0 -2
276 2 5.0076694566876645e+00 4.2669986267809143e+00 1.7722650808085501e+00 2 0 0
785 2 1.4492135126702101e+01 7.8236851733095527e+00 7.6080857151552266e+00 -4 0 -2
487 1 4.1095141356063349e+00 8.1220320550367493e+00 9.9230712181090652e+00 -5 0 0
610 1 1.0999052919262795e+01 6.1019063614786386e+00 1.2966591337490998e+01 -1 0 2
113 2 2.8282609818168147e+00 4.4364423882530204e+00 1.7239043827647613e+01 -2 0 -2
219 2 5.6894163481357491e+00 1.0006842843940703e+01 2.1711262633694859e+00 -1 0 -1
211 1 -4.4359384988722095e-01 4.8790649376135926e+00 1.2591319667877050e+01 -5 0 -2
668 2 6.1577984337417568e-01 5.2842556144788269e+00 1.8411388244559429e+01 -2 0 -3
573 2 1.4803630648477018e+01 4.4507992885532199e-01 8.6447858689764701e-01 2 0 4
6 2 9.8936994969278089e+00 4.4699685092500676e+00 1.8081650617842371e+01 0 0 -1
575 2 2.7873711478077219e+00 3.5188154607331228e+00 9.3878411142690865e+00 0 0 0
1615 1 -2.7015114043711881e+00 4.9842298125925408e+00 1.1474289815496128e+01 1 0 0
54 2 7.0407719658082506e+00 9.7903653763590572e+00 1.1350526521803781e+01 1 0 -1
481 1 -4.3603141211984475e-01 2.9357807000387548e-01 7.3441238238233932e+00 -2 0 -1
655 1 7.7283085957253919e+00 2.1804117066363564e+00 1.7217697877469590e+01 -3 0 -1
95 2 1.4177687678233463e+01 4.5182310603035769e-01 8.0601561932265877e+00 -2 0 -1
117 2 1.4085374452065992e+01 1.0478381217999564e+00 1.0275951751316233e+01 -5 0 -5
207 2 6.4255026579471828e+00 4.0074122659037208e+00 1.5471118599126186e+01 3 0 0
808 1 1.0401366302676443e+01 1.7378750525691564e+00 1.7127890937013696e+01 -4 0 -1
188 2 7.5890122536207922e+00 2.4386979428977011e+00 1.4605634555205308e+01 -5 0 -5
577 1 6.9753649005952720e+00 3.8778492843662642e+00 4.8132938586704874e+00 -1 0 0
212 2 -7.6821142735274917e-01 4.5466284370202272e+00 1.3451684053115404e+01 -5 0 -2
356 2 -3.0129858186247871e-01 1.5996094999043429e+00 1.3097695432931074e+00 -4 0 -2
456 2 5.6848989913925996e+00 8.0272237752927289e-01 2.9500148047757357e+00 -1 0 0
345 2 1.1372008779371583e+01 1.0442021021896899e+00 1.4154067903483122e+01 -2 0 1
968 2 4.4838260938839367e+00 -7.2669820242115191e-01 1.2459609688178956e+01 -1 0 1
585 2 1.3664867705038745e+01 4.4874888601118377e+00 1.4726900214224394e+00 -4 0 -3
223 1 1.0074362454750693e+01 5.1783063857193765e+00 5.1985347006000033e+00 -2 0 -1
301 1 8.3652775143686799e+00 -3.8911917387126571e-01 3.6004174219907399e+00 0 0 0
686 2 1.1686609992611253e+01 2.2322018272818687e+00 4.9379026673224455e+00 -4 0 0
269 2 1.4401882165285187e+00 7.5109232064175622e+00 1.2601672463176214e+01 2 0 -1
858 2 3.9639476648507235e+00 2.6985348642096061e+00 7.2812354267234056e+00 -2 0 -3
127 1 3.2891876897309889e+00 4.9931682585668353e+00 1.2359847509594353e+01 -2 0 -2
809 2 9.4719277621965912e+00 2.0833674666607602e+00 1.7132192372147109e+01 -4 0 -1
437 2 3.4340936842699139e+00 2.4800676264686881e+00 4.2309516386992394e+00 -2 0 0
369 2 1.1113635697822129e+01 2.3433309322547475e+00 1.2256218221306186e+01 -2 0 0
560 2 1.3893559055257421e+00 4.2384628890923226e+00 3.2296672207206409e+00 -2 0 1
564 2 2.6509617772364109e+00 9.8051868299712321e+00 1.6764195575649882e+01 -2 0 -1
334 1 1.1487720729033729e+01 8.4336415707102468e+00 1.0882785682479945e+01 -2 0 -1
717 2 5.7233673703792292e+00 5.9898710476495607e+00 8.2839680049694966e+00 1 0 2
547 1 5.6778035879471043e+00 6.5070699060343369e+00 1.3365105465572416e+01 -3 0 -4
495 2 3.5962091573406916e+00 5.2952594283578156e+00 8.6200963706963947e+00 -3 0 -2
499 1 4.0907741082066185e+00 2.0729282171903884e+00 1.4765790528310584e+01 1 0 1
99 2 8.2682153461353387e+00 -3.6620883477196897e-01 1.2472189776879192e+01 0 0 -1
349 1 1.2113079117044041e+01 8.8839089566729577e+00 1.5830738695427119e+01 2 0 3
967 1 5.0233492523680354e+00 -1.7769904714644313e-01 1.3032122907252466e+01 -1 0 1
629 2 1.3257056509006610e+01 6.9269721284145387e+00 3.8265826454039633e+00 -3 0 1
27 2 1.2623511088387326e+01 6.1901645878868026e+00 7.1066159491860201e+00 -2 0 -3
480 2 1.3867292718412413e+01 1.0481465187027538e+01 2.3732280963916388e+00 -1 0 -5
512 2 5.1802052697324825e+00 1.2726608255022813e+00 1.8607381654594676e+01 1 0 0
775 1 1.3491776289249687e+01 4.1955566248860761e+00 7.5076995103564705e+00 -3 0 2
761 2 1.7054650910392063e+01 6.7375990287731264e+00 2.4491145843956499e+00 -4 0 2
271 1 2.2827744614029721e+00 1.5610899525446240e+00 5.0316840186866356e+00 0 0 -2