LAMMPS data file via write_data, version 3 Mar 2020, timestep = 0

2016 atoms
2 atom types

0.0000000000000000e+00 1.7938718694993419e+01 xlo xhi
-1.9555284152998738e+00 4.6951688392216639e+01 ylo yhi
0.0000000000000000e+00 1.9077954589255725e+01 zlo zhi
4.7164592352869045e-02 -6.6760948824468471e+00 -2.2931285196285955e-02 xy xz yz

Masses

1 16
2 2

Atoms # atomic

579 2 2.3422104444728822e+00 4.6269119981143154e+00 1.7196260179162014e+01 0 0 0
223 1 -2.5095870011494914e+00 6.6379405055302154e+00 1.7216268123011972e+01 -2 0 -2
995 2 8.3890210224723472e+00 5.6158417085438126e+00 1.0613452581038931e+01 3 0 1
654 2 -2.2158082664802481e-01 6.4018589840324474e+00 4.0208104790737274e+00 -1 0 0
394 1 1.0653704553489055e+01 5.0747062977940329e+00 5.1050326995898034e+00 -3 0 -3
578 2 1.9035289075258079e+00 5.9426474021924127e+00 1.6701610418703037e+01 0 0 0
929 2 1.5058594390811411e+01 2.3890919499885781e+00 6.0981720019561303e+00 0 0 0
150 2 9.4724702261791478e+00 7.6686565057944822e+00 1.6207722136972279e+01 -4 0 -1
705 2 -1.2696927196405330e+00 5.8530380592893083e+00 1.4674994576435655e+01 -2 0 -1
302 2 9.7662714501556795e+00 6.2224181014060775e+00 2.1672811889832064e+00 0 0 0
299 2 1.1517863496034419e+01 1.2238966246995346e+00 1.6125298801510464e+01 -3 0 -2
896 2 1.6189844020975976e+01 6.0221389704509907e+00 6.3535051452517954e-01 -1 0 0
82 1 1.3937236139643156e+01 9.8791487294252676e+00 5.5006016090906735e+00 -1 0 -2
406 1 2.1162959536350687e+00 5.4864994788455901e-01 1.0846654770899718e+01 -2 0 -2
336 2 8.4140258493626625e+00 9.6451021443557039e+00 8.3852295592125152e+00 -2 0 -2
596 2 2.0207515053843337e+00 4.7072667711266121e+00 5.5450470716750475e+00 3 0 -2
368 2 1.5520608163506283e+01 8.8452394920406920e+00 2.6087973033637075e+00 -2 0 0
428 2 1.1473523337060028e+01 8.1785701135916433e+00 1.4420283115823372e+01 -1 0 -1
881 2 1.2440293520592492e+01 2.3704432519944652e+00 8.8354512286442102e+00 -3 0 2
319 1 1.0502696583463887e+01 -1.3533325591262959e+00 1.4905552110287237e+01 -4 0 -3
53 2 7.7307342013691800e+00 1.7158147086284110e+00 9.2633572818571452e-01 2 0 0
549 2 7.4112630398637744e+00 8.5099782968815951e+00 1.6212574928798375e+01 -3 0 -4
609 2 4.2610589551107516e+00 -9.2755189602480304e-03 2.2755161375940163e+00 -3 0 0
1583 2 -4.4318379864603923e+00 6.9423658557884327e-01 1.5144526634815037e+01 0 1 1
122 2 8.1466795477829681e+00 4.9057287970337606e+00 1.4799547874860183e+01 -2 0 -1
295 1 2.1992182580439854e+00 7.0088430846891399e+00 1.7272381772559759e+00 2 0 3
407 2 1.3308117101125108e+00 7.8243193662659793e-01 1.1466484591500496e+01 -2 0 -2
707 2 1.4849116813925649e+00 8.2736416165720890e+00 1.6122102828951071e+01 -1 0 -1
843 2 -8.9131999927469430e-01 -9.1728954904793181e-01 1.5644063392258039e+01 -5 0 -5
448 1 4.9619124735848859e+00 5.5017395528560318e+00 1.0205064056161714e+01 -1 0 1
244 1 1.0536511875635552e+01 4.3337475200871065e+00 1.5976916096891689e+01 -4 0 -4
919 1 1.1770327218149284e+01 -1.8877803615068702e+00 9.3649131339967617e+00 0 0 -2
687 2 2.2571150748301205e+00 -7.7899524325378811e-01 1.0074431505973894e+01 -3 0 0
977 2 3.8291898198385468e+00 2.0719351994550328e-02 1.7309990466668228e+01 -3 0 -1
215 2 -1.2989770083543388e+00 8.5772190653715548e+00 4.6107172954608995e+00 0 0 -2
301 1 9.7922987242940707e+00 5.3451807121510795e+00 2.5343595402888237e+00 0 0 0
149 2 9.6885649445993867e+00 7.1507440734553214e+00 1.7616916902540716e+01 -4 0 -1
270 2 -1.7092065353737338e+00 8.1483688212058851e+00 1.4217642101152466e+01 2 0 -1
463 1 2.5111402730916206e+00 6.0573832265748742e+00 6.5551159899234488e+00 2 0 0
449 2 4.8133945015844768e+00 6.4808950168206501e+00 1.0107409929905538e+01 -1 0 1
524 2 1.8851540221689014e+00 2.7930018048225067e+00 1.3328027495706468e+01 -2 0 -4
585 2 -2.3336588302898806e+00 8.6301970263732741e+00 1.2318989314394823e+01 -4 0 -4
523 1 1.6316928013628225e+00 3.5719944513988962e+00 1.2790487577964864e+01 -2 0 -4
658 1 5.1634877955084626e+00 2.4096424286297005e+00 1.3952566623683484e+01 -1 0 -2
206 2 3.7999076020323912e+00 7.4102069350317468e-01 1.1637109093725343e+01 3 0 0
96 2 -3.4384888579482409e-01 5.9898687772937658e+00 1.0021097096296270e+01 -1 0 -1
441 2 6.4622453323746853e-01 4.6561578654834355e+00 1.5762188336906483e+01 -2 0 -1
151 1 7.5011038368219012e+00 3.2047110303540238e-02 5.0562585213914373e+00 3 0 0
781 1 2.8211178638588814e+00 3.2409348879512070e+00 1.0534816250065844e+00 -2 0 -2
880 1 1.1528906348021687e+01 2.0235794694642157e+00 8.7008517811095736e+00 -3 0 2
626 2 3.9282389762450975e+00 3.1322245801031645e+00 1.7521272538379243e+01 0 0 -1
926 2 -3.0688362995202887e+00 -1.8650953544755744e+00 1.2471889021879120e+01 2 0 2
703 1 -1.9920525255814225e+00 6.5039219569073694e+00 1.4636056054995120e+01 -2 0 -1
382 1 1.6437683984370128e+01 4.7546901909746788e+00 1.6308798617322726e+00 -2 0 1
21 2 1.0478107537883311e+01 8.3548339624353112e+00 2.6826503460434585e+00 -3 0 -3
86 2 9.7337313840661448e+00 -1.3992574653101411e+00 1.8691708756577935e+01 1 0 -3
54 2 6.4823590953637389e+00 7.3602164323468511e-01 9.0149721962775808e-01 2 0 0
221 2 -5.7408944827611386e-02 9.2184574896339182e+00 1.7305868710748950e+01 -2 0 -3
689 2 6.4495829089214718e-01 7.7192387877978597e-01 4.8852878474756860e+00 -2 0 0
335 2 8.3518485585343463e+00 9.9744348392863920e+00 6.9089925522255893e+00 -2 0 -2
392 2 2.2595498283151736e+00 6.5429549900642137e+00 1.2907437370202006e+01 -1 0 -1
652 1 2.7191577131750844e-01 5.7348030073572360e+00 3.4684644758358076e+00 -1 0 0
52 1 7.1541782505051863e+00 1.1611878139799985e+00 3.2950629513769042e-01 2 0 0
356 2 -3.8149443534162768e+00 4.2301713303734321e+00 1.3946664559192095e+01 -4 0 -3
477 2 8.2149759760911749e+00 2.6145533621495334e+00 1.3699193771583689e+01 -1 0 2
500 2 -5.4425682792548580e-01 1.8899514603187177e+00 1.2027664576119928e+01 1 0 0
367 1 1.4991817587858764e+01 8.5477733563557390e+00 1.8838211699171585e+00 -2 0 0
806 2 1.2007016680446695e+01 7.5577570259961870e+00 8.4159409854493710e+00 -4 0 1
789 2 6.4835175668003409e+00 6.5678513835928438e+00 1.4561394982495766e+00 -2 0 0
810 2 6.6444082541051284e+00 4.6617536078268618e+00 1.0695850540408319e+01 -4 0 -1
930 2 -1.7707190340904575e+00 2.0631160112445590e+00 7.1767492843388405e+00 1 0 0
702 2 5.8978305938406255e+00 1.0105009656594004e+00 1.6549522532131487e+01 -3 0 -3
501 2 -5.9356782272922759e-01 3.4288539683007135e-01 1.2213297203992250e+01 1 0 0
625 1 4.1401218811937301e+00 4.0487007514121265e+00 1.7453331410048197e+01 0 0 -1
846 2 6.7642595663816500e+00 -1.7182451602822737e+00 1.2255067887491105e+01 1 0 1
101 2 4.3049549346559761e+00 5.5520746758369626e+00 1.2223896287189600e+01 -1 0 -1
384 2 1.7112078452697066e+01 4.9457745359853291e+00 2.3177181577237813e+00 -2 0 1
245 2 1.1079236102560220e+01 4.2343239108776727e+00 1.5167217092346196e+01 -4 0 -4
622 1 -4.3523937630871492e+00 3.6399226167318819e+00 1.5719417592499216e+01 -2 0 -2
624 2 -3.3591368591867443e+00 3.6547393323257609e+00 1.5892189140364550e+01 -2 0 -2
179 2 1.1485734045259090e+01 2.9085252888271693e+00 1.7072156685600319e+00 -3 0 0
561 2 8.1133924932125012e+00 -9.9427362331933189e-01 6.5846329710540266e+00 -2 0 1
714 2 -1.4176369002648852e+00 -1.0996019969387809e+00 1.1047196198504025e+01 0 0 3
531 2 8.4109572456670243e+00 -1.8182375623123135e+00 2.9306405690289163e+00 -1 0 0
268 1 -1.9217933200002384e+00 9.0344534373749283e+00 1.3967348706051617e+01 2 0 -2
600 2 -1.0610689985716268e+00 6.7170767985567892e-01 9.1477030927617378e+00 -3 0 1
49 1 1.0624987721970481e+01 4.0110316705251714e-01 1.0595374672159741e+01 -1 0 0
183 2 1.1976037653651481e+01 5.3647331984404385e+00 7.3672342946063738e+00 -1 0 0
464 2 3.1067760724650215e+00 6.5452801043552142e+00 5.9321060551480951e+00 2 0 0
393 2 1.4478759138055235e+00 7.1870703860046952e+00 1.3990066951817978e+01 -1 0 -1
369 2 1.4608397814686858e+01 9.3516987029129339e+00 1.4224481603937267e+00 -2 0 0
671 2 -3.3838510477061767e-01 -6.9250722404708465e-01 6.3847785302236657e+00 -3 0 -1
135 2 -1.8832994099317943e+00 2.7671328070596939e+00 9.2926663557475493e+00 1 0 -1
778 1 6.3148733752038284e+00 7.1883629217889951e+00 4.6499090797938862e+00 1 0 0
949 1 -5.0930659020925777e+00 -1.2803449299632734e+00 1.8171170091954156e+01 -1 0 1
598 1 -1.2268659219149911e+00 -2.5069095908664085e-01 9.2943001941831067e+00 -3 0 1
120 2 6.5258068314511863e+00 3.3712296173800409e+00 2.9108160342580915e+00 -2 0 -2
858 2 -1.4129019159750866e-01 7.1352401038462361e+00 8.1934649855215724e+00 -1 0 -3
640 1 -4.5502136866618947e-01 6.1937278060251231e+00 1.1566970672215373e+01 4 0 -1
753 2 -5.1912339080477032e+00 4.1607401156945549e+00 1.7113506344630800e+01 0 0 2
923 2 5.0009332137508142e+00 7.9138816419585929e+00 1.5393135390160943e+01 -3 0 -3
119 2 5.1592912445854102e+00 4.1581864708876690e+00 3.1507477476265198e+00 -2 0 -2
525 2 2.2537281263340665e+00 4.3219409195981191e+00 1.2904920931336383e+01 -2 0 -4
761 2 1.6653800891166171e+00 -2.4056287186676073e-01 1.9052881160415694e+01 -3 0 1
745 1 -4.2824325526963811e+00 9.9469421520096724e+00 1.4990455202449583e+01 -2 0 0
962 2 1.4800932301939946e+00 -1.5414514116703988e+00 1.4360091604866904e+01 -3 0 -1
212 2 7.8215741377565635e+00 4.0968205276533087e+00 6.7066741282296043e+00 -5 0 -2
701 2 6.9495958980549997e+00 2.0443865602904507e+00 1.6746907838390719e+01 -3 0 -3
5 2 4.7445417832701562e+00 7.7262749093965208e+00 4.8136959064479656e+00 1 0 0
470 2 1.7236373575207988e+01 1.4251587217974060e+00 5.2782417239093549e-01 -7 0 -2
471 2 1.7243210865107784e+01 -1.5567829465631022e-01 8.4827182250534505e-01 -6 0 -2
708 2 2.7681832792995680e+00 7.7690460617499184e+00 1.5353512097101653e+01 -1 0 -1
991 1 1.4148022974808701e+01 -1.1178152525385538e+00 1.0007653360155972e+01 1 0 1
46 1 1.0593893891946488e+01 7.6829633838682110e+00 5.6119299041797213e+00 -3 0 0
185 2 -1.7144141209384278e+00 -1.2980447739218031e+00 1.7550689328183729e+01 -4 0 -7
856 1 5.0448531623207060e-02 7.7511246830867453e+00 7.4543562956137848e+00 -1 0 -3
627 2 4.5638115934296009e+00 4.3762776921978030e+00 1.8268929232667372e+01 0 0 -1
111 2 2.2643731156401126e+00 1.7694717047980366e+00 1.6377941665477881e+01 1 0 -4
869 2 1.0420089238833668e+01 5.1193607062282567e+00 9.3175256797778516e+00 1 0 0
16 1 -1.8058203943291589e+00 3.0595814208021253e+00 1.6139403050443018e+01 0 0 1
178 1 1.1793077251064542e+01 3.8187680179044685e+00 1.5684981004490544e+00 -3 0 0
974 2 9.7749172826538295e+00 -8.5180386786289364e-01 1.6397271799649321e+01 -4 0 -2
118 1 5.7967511505124438e+00 3.5289077460321909e+00 3.5428584696837935e+00 -2 0 -2
922 1 4.3289217968973981e+00 8.3653236360076555e+00 1.4775000570870393e+01 -3 0 -3
623 2 -4.6328812242132775e+00 2.7734773811844704e+00 1.6040178250323638e+01 -2 0 -2
1668 2 5.6987439531635591e+00 2.0385418596268736e+00 1.4709801537295663e+01 -1 1 -2
502 1 5.1127486696711353e+00 -1.2998456512000134e+00 9.5450199685624266e+00 0 0 -1
839 2 -5.3727905196522752e+00 9.8886063089846115e+00 1.8559380573531769e+01 0 0 -3
83 2 1.3840488748327134e+01 8.9165202838458182e+00 5.3374729335479056e+00 -1 0 -3
239 2 4.8755456692345334e+00 4.7689024819287607e+00 1.6014173235061648e+01 0 0 0
716 2 8.6168908242236899e+00 2.5963772807902927e+00 2.9953512382928569e+00 1 0 2
717 2 8.7341571825004287e+00 3.8249386819899804e+00 2.0261335880575317e+00 1 0 2
240 2 6.1229119405266097e+00 5.3896606041880739e+00 1.5289052159008266e+01 0 0 0
904 1 9.2985566707367209e+00 7.9478236653178698e+00 1.6576927338170073e+00 -3 0 2
17 2 -1.1454155395575976e+00 3.6844200271823206e+00 1.5682090036916168e+01 0 0 1
779 2 6.2626822180729658e+00 7.0119276287477241e+00 3.7007080408255826e+00 1 0 0
747 2 -4.8416804194467353e+00 9.2141954547246208e+00 1.5306762110505639e+01 -2 0 0
645 2 1.1014226132950995e+01 5.9890276892463579e-01 1.2241644948609952e+01 -4 0 -3
613 1 -1.5424133463499690e+00 2.7975570917287982e+00 1.8788972012350410e+01 -2 0 -1
246 2 1.0457710014295523e+01 5.2691226843772867e+00 1.6198593060224965e+01 -4 0 -4
238 1 5.1579986687174868e+00 5.1452334585929789e+00 1.5174661439716903e+01 0 0 0
522 2 7.7750523158023368e+00 -7.9640077627912453e-01 1.0380099154326890e+01 -5 0 -2
715 1 8.2869791168539209e+00 2.9492617258833302e+00 2.1551597569649088e+00 1 0 2
115 1 1.3830139836437830e+01 1.2926329855250276e+00 1.1670063619849806e+01 -5 0 -5
426 2 1.3012749254104001e+01 2.7195779935627042e+00 5.2728728226988419e+00 -2 0 1
494 2 1.8897208384008044e+00 8.3065814366165487e+00 1.1960492021088612e+01 -3 0 -2
575 2 9.3063196165856805e+00 9.0712186672756641e+00 1.4352273965489328e+01 0 0 0
547 1 8.2434781324976569e+00 8.9747246426806271e+00 1.5826026993642555e+01 -3 0 -4
933 2 -1.9465702371546154e+00 5.3635036561521110e-01 1.4624632791252012e+01 -2 0 -1
857 2 -3.5964310191608284e-01 7.4494015633881965e+00 6.6648554442323249e+00 -1 0 -3
868 1 1.0657529784764694e+01 4.5699255677204373e+00 8.4953374627008333e+00 1 0 0
291 2 9.2088301100159953e+00 8.4650380133192478e+00 5.4339075380758741e+00 0 0 3
18 2 -1.5473913168476399e+00 2.2198865909830339e+00 1.5747940069733703e+01 0 0 1
164 2 9.5157430350034993e+00 1.0066344661165589e+01 1.2571858807053273e+01 2 0 1
84 2 1.4262508872959941e+01 1.0082167138004804e+01 6.3918831065714450e+00 -1 0 -3
785 2 7.6390794285349550e-01 1.0194082965195985e+00 1.9708793123529726e+00 -3 0 -2
870 2 9.8515710870674447e+00 4.3373049108278563e+00 8.0201799232369435e+00 1 0 0
211 1 8.6871257692245507e+00 3.5531696079985791e+00 6.9850894394206025e+00 -5 0 -2
387 2 2.1896250006663847e+00 2.3080714155496409e+00 4.8473583053691298e+00 0 0 -2
144 2 1.9816987921054965e+00 9.6209521812196908e+00 1.8177683837874984e+01 2 0 -1
643 1 1.1439307503321572e+01 8.9029653260120778e-01 1.3121376956388159e+01 -4 0 -3
548 2 8.2839481771025696e+00 9.8095668204713764e+00 1.6265849469717526e+01 -3 0 -4
760 1 2.4507968117816032e+00 -8.1471145677421619e-01 1.8750009993357921e+01 -3 0 1
289 1 8.3659201856338647e+00 8.9075185494765794e+00 5.3181662880380571e+00 0 0 3
116 2 -3.5525088713291417e+00 1.3558892993476843e+00 1.2463299625937802e+01 -4 0 -5
224 2 -1.9369902908580761e+00 6.0876551085436041e+00 1.7860495897757449e+01 -2 0 -2
845 2 7.7012894517954757e+00 -6.0583073934367659e-01 1.2586310364299866e+01 1 0 1
48 2 1.0637493165636034e+01 6.6583940292875052e+00 5.4992974154617551e+00 -3 0 0
117 2 1.2967295401812123e+01 1.1275954842627431e+00 1.2130531738619494e+01 -5 0 -5
931 1 -9.9522366917168004e-01 6.6749482499973700e-01 1.4860300889431981e+01 -2 0 -1
429 2 1.1683754758844453e+01 7.2967610049877258e+00 1.5671155478480371e+01 -1 0 -1
385 1 2.2756617122142462e+00 1.3500900614419611e+00 4.8205855643524567e+00 0 0 -2
250 1 4.5634798478456542e+00 8.3717067633218036e+00 1.0191447058864705e+01 -3 0 2
961 1 2.0259985228428095e+00 -8.1054545818671486e-01 1.4674732846929590e+01 -3 0 -1
42 2 3.0778095629286271e+00 4.9364693311854824e+00 7.6492764570313296e+00 -2 0 3
726 2 1.1589855256880654e+01 -1.1634613255950188e+00 6.5237188278617602e+00 1 0 1
952 1 1.6196969266018765e+01 1.0021620385883161e+01 3.9228362444201221e+00 -1 0 1
769 1 1.4653925631982666e+01 5.6518987328017163e+00 9.1275797262276761e+00 0 0 -3
1002 2 1.2253317582112537e+01 7.7162631060471254e-01 1.8769939692024928e+00 -1 0 1
4 1 3.8347658992340774e+00 8.0723076975070001e+00 5.0056780531669141e+00 1 0 0
905 2 9.1128907524052902e+00 8.8195365051330210e+00 1.2507208548821307e+00 -3 0 2
41 2 3.8434889787939408e+00 3.5868026919109246e+00 8.0189177986434981e+00 -2 0 3
712 1 -1.5407046848717671e+00 -1.1879684725179667e+00 1.2000301365553565e+01 0 0 3
812 2 1.2793098689846126e+01 5.4657294150462983e+00 1.2551885171702235e+01 -2 0 -1
932 2 -5.2494104270447384e-01 7.4902064741454799e-01 1.3997476652149558e+01 -2 0 -1
321 2 1.0734780203555051e+01 -5.8276360010385098e-01 1.4412959613635234e+01 -4 0 -3
213 2 8.8136063997706415e+00 2.8645913535974010e+00 6.2085047513771192e+00 -5 0 -2
290 2 7.6725276722471776e+00 8.3089053594868094e+00 5.1692900780044244e+00 0 0 3
354 2 9.8544453430627996e+00 8.4990768527324079e+00 8.9822820258666152e+00 -1 0 0
338 2 2.9967839599288384e+00 4.6695770987381495e+00 3.5096579662720537e+00 -1 0 -1
938 2 1.2412111052122151e+01 7.2209289760387669e+00 2.6111411234884225e+00 1 0 1
969 2 1.3131853711993435e+00 3.3777272464310268e+00 1.1069403449297756e+01 -1 0 1
545 2 2.3762338816952688e+00 8.1590188299458477e-01 1.4329437429918963e+01 2 0 1
386 2 2.2462876909513114e+00 1.1285005976874571e+00 3.8725916324953471e+00 0 0 -2
937 1 1.3128716062383363e+01 6.6571205551270829e+00 2.1372406388468459e+00 1 0 2
40 1 3.2523502445918546e+00 4.3089989639560535e+00 8.3658901557408498e+00 -2 0 3
786 2 2.0108888224257386e+00 1.8814033918866300e+00 1.8665091436669512e+00 -3 0 -2
520 1 7.9446725944660628e+00 -6.8182767340494443e-02 9.7025082373360085e+00 -5 0 -2
724 1 1.2007297500424274e+01 -2.2297654829586322e-01 6.6157706493730100e+00 1 0 1
784 1 1.6906527745600570e+00 1.0541487426482208e+00 2.3284070328156257e+00 -3 0 -2
967 1 1.1581055973384284e+00 3.1064829681650163e+00 1.0075220988500952e+01 -1 0 1
553 1 9.9136194096256816e+00 1.5808834027366920e+00 1.5733556548683181e+01 -5 0 -2
681 2 6.9521891020124658e+00 3.5295987295648841e+00 1.8590890913340893e+01 -3 0 -3
649 1 8.7527511175358654e+00 2.2235132933489217e+00 4.8298180642252371e+00 -4 0 0
650 2 9.7070518703149062e+00 2.1358785946460621e+00 4.7823970500713937e+00 -4 0 0
51 2 9.7170670181174099e+00 3.9207505081746374e-01 1.0315235077206900e+01 -1 0 0
36 2 1.4916256361794739e+01 1.6992708346018142e+00 3.4538189906515102e+00 -2 0 0
945 2 4.0153070040102481e+00 1.2874142843814669e+00 4.9523749295072372e+00 0 0 3
673 1 -5.0521426601096451e+00 6.8015477240960482e+00 1.8129325422116715e+01 0 0 -4
939 2 1.3831337184001011e+01 7.3161900792837500e+00 2.0868680123248931e+00 1 0 1
397 1 1.4071917479475424e+01 7.2609303828221297e+00 5.2186985857213921e+00 2 0 0
127 1 1.4161733932155585e+01 4.3958060807675947e+00 3.0079048735892759e+00 -2 0 -1
128 2 1.4057879379573315e+01 4.1238946044254750e+00 3.9834631197372752e+00 -2 0 -1
1407 2 1.3610794925412646e+01 7.0697246466092434e+00 4.4198175826929722e+00 2 0 0
34 1 1.5153949668992034e+01 7.9758027279591959e-01 3.2006822529538161e+00 -2 0 0
928 1 -2.0913549723767209e+00 1.7906263613160962e+00 6.2888025361636339e+00 1 0 0
251 2 4.7488436599598902e+00 9.1413448067577328e+00 9.6361665352027863e+00 -3 0 1
152 2 6.6592402364371797e+00 4.9257627062189524e-01 5.0540454134111776e+00 3 0 0
439 1 -3.5361502591102045e-02 4.3567517374689064e+00 1.5078309711403763e+01 -2 0 -2
350 2 1.3667471416977154e+01 -3.6753971157359366e-01 7.4975091972590380e-01 2 0 4
148 1 9.9938045478549427e+00 6.9386940012377050e+00 1.6657541048159658e+01 -4 0 -1
504 2 5.2683947794115920e+00 -7.1652731770231681e-01 1.0316001571177887e+01 0 0 -1
783 2 3.5847878144352516e+00 2.8772743872268647e+00 4.9325910103079096e-01 -2 0 -2
162 2 -1.8944538241155031e+00 9.1008856150276376e+00 9.7419183465167425e+00 1 0 -5
994 1 9.1690339912941319e+00 6.2055783965664926e+00 1.0472136711763676e+01 3 0 1
725 2 1.1818265073739438e+01 2.4156247506239970e-01 7.4394523160930612e+00 1 0 1
972 2 -2.1461703868764417e+00 8.3653400890729035e+00 1.7556147799838492e+01 0 0 0
129 2 1.3790057556196754e+01 5.3188374420139448e+00 2.8405592923792704e+00 -2 0 -1
1994 2 4.1022464025724696e+00 9.3522837445299665e+00 1.4549181787438970e+00 -2 0 -2
173 2 1.1582458714613166e+01 4.1678197404330923e+00 1.3174811845138715e+01 -1 0 -2
1664 2 5.9570638150535213e+00 8.6055115722722633e+00 1.7457498132511837e+01 -3 1 -1
685 1 2.4594271801771197e+00 -1.5970937443561248e+00 9.5789359000989727e+00 -3 0 1
992 2 1.3848781124741134e+01 -3.1328156576568156e-01 1.0470452894703948e+01 1 0 1
462 2 1.2496243729340815e+01 7.3599934187245513e+00 1.1640981588537050e+01 -4 0 -2
651 2 8.3311928241716124e+00 1.2909921596050564e+00 4.9427833857310981e+00 -5 0 0
996 2 9.1734604143477014e+00 6.6155537680169214e+00 1.1394814829244066e+01 3 0 1
611 2 1.4262262192312125e+01 4.0292306425052473e+00 9.9257064997649209e+00 -1 0 2
951 2 -4.1208080731053762e+00 -1.1557402000358969e+00 1.8062477714617728e+01 -1 0 1
750 2 5.3893349314385679e+00 8.2930484680968881e+00 1.1714091791369363e+01 -3 0 1
749 2 5.3627387742271333e+00 8.2629004897762268e+00 1.3258958945969837e+01 -3 0 1
102 2 4.0898465110682141e+00 5.5959509638985327e+00 1.3753817374588374e+01 -1 0 -1
497 2 5.7679331721170062e+00 2.2879236655117241e+00 7.7328258566064667e+00 0 0 1
498 2 4.8217321512325491e+00 2.3428255894995882e+00 6.4360114128657724e+00 0 0 1
395 2 9.9326516250251551e+00 4.8288738827110596e+00 5.6969649186422764e+00 -3 0 -3
924 2 4.2820385851480607e+00 9.2928951106885798e+00 1.5097916347458199e+01 -3 0 -3
349 1 1.3649554380032439e+01 6.0305226969740122e-01 7.5909233296916356e-01 2 0 4
679 1 7.3912756409602061e+00 2.7658078483631883e+00 1.8251165570350544e+01 -3 0 -3
398 2 1.3533501656375762e+01 6.8751131951013953e+00 5.9914631118125872e+00 2 0 0
540 2 1.6543551135825481e+00 -6.3370990105727287e-01 1.9496877721284733e+00 -4 0 -3
269 2 -1.1258824233848350e+00 9.5833548294620190e+00 1.4068674157767326e+01 2 0 -1
841 1 -1.0263170134683897e+00 -1.7590812641037181e+00 1.6050414169924615e+01 -5 0 -5
943 1 5.0041714684672973e+00 1.3323269789735601e+00 4.9169742338669504e+00 0 0 3
672 2 -5.8362280807196054e-01 -1.1622477796684172e+00 7.8903546341053401e+00 -3 0 -1
950 2 1.3753505413366944e+00 -1.3402501290086530e+00 4.9132392271324522e-02 -1 0 2
320 2 1.0007508431143396e+01 -1.9552232013856996e+00 1.4230773007039266e+01 -4 0 -3
172 1 1.1088777538145436e+01 3.4188315231683939e+00 1.3564238279569755e+01 -1 0 -2
298 1 -5.4868828868883552e+00 1.0620438399410896e+00 1.6278359762411966e+01 -2 0 -2
680 2 7.1783657780841503e+00 2.0924850493575393e+00 1.8930185487562522e+01 -3 0 -3
527 2 3.7006664443376969e+00 -1.3913185127739549e+00 5.9490841270342871e+00 -2 0 0
829 1 2.7596163620403562e+00 9.2844418985257526e+00 2.9953359979258760e+00 -3 0 0
944 2 5.2615401785585147e+00 2.0941712748096224e+00 4.2504402828740426e+00 0 0 3
100 1 3.6516974585827882e+00 5.8103225507399738e+00 1.2911398922846697e+01 -1 0 -1
1667 2 5.0577330189481504e+00 3.3487769234878817e+00 1.4171948159651945e+01 -1 1 -2
352 1 9.0610110973684925e+00 8.7171057344864824e+00 9.5568524010312537e+00 -1 0 0
174 2 1.0088779474278912e+01 3.6473605531088396e+00 1.3685106290054440e+01 -1 0 -2
388 1 1.3929786493072253e+01 -1.1794609084577896e+00 5.0371814366337366e+00 -1 0 0
465 2 1.8628339233041955e+00 6.6505280142210470e+00 6.8122525600357893e+00 2 0 0
838 1 -6.3505518270847654e+00 9.7040074697175260e+00 1.8433078345605452e+01 0 0 -3
460 1 1.2811321573894473e+01 7.7873813043393341e+00 1.0825357775549831e+01 -4 0 -2
607 1 5.0441198557406519e+00 8.5523742917942069e-02 1.6998830886787524e+00 -3 0 0
176 2 4.8037244791859344e+00 -8.0869234909004994e-01 1.2611860683370914e+01 -5 0 1
1582 1 1.0189199508551916e+01 9.4450310390782448e+00 1.4011534863929745e+01 0 0 0
953 2 1.5336016963702605e+01 1.0052972820769359e+01 4.3533880540156371e+00 -1 0 1
595 1 1.8096882732282098e+00 4.1251122270287288e+00 4.8251645178981155e+00 3 0 -2
528 2 4.7779498233355238e+00 -3.9564581729140902e-01 5.3248817137464526e+00 -2 0 -1
109 1 2.4729881522113963e+00 1.6607644220442963e+00 1.7303719337949204e+01 1 0 -4
615 2 -1.7290852632271898e+00 2.9013572964659069e+00 1.7838646751879683e+01 -2 0 -1
976 1 4.7566541200386290e+00 -2.5487704000604339e-01 1.7203010983681942e+01 -3 0 -1
461 2 1.2369982957271873e+01 8.6456013457356349e+00 1.0761532249610731e+01 -4 0 -2
599 2 -2.1339798761878224e+00 -4.6726319853047493e-01 9.1751618939367354e+00 -3 0 1
408 2 1.7857175748859180e+00 1.2161269662273702e+00 1.0172751633844300e+01 -2 0 -2
20 2 1.0944635411242935e+01 8.1617884145678463e+00 4.1153109957862322e+00 -3 0 -3
182 2 1.3431744982976731e+01 5.7223950396498857e+00 7.8507218789730251e+00 -1 0 0
35 2 1.6043808900085441e+01 9.2201413175762248e-01 2.7985790957728875e+00 -2 0 0
216 2 1.5924882756594286e+01 7.2831757032012980e+00 5.0003550352737181e+00 -1 0 -2
184 1 -2.2067816375785627e+00 -1.3016756009191734e+00 1.8441557034423074e+01 -4 0 -7
475 1 8.4312578968172858e+00 3.5417433147479898e+00 1.3492532587088169e+01 -1 0 2
68 2 7.7942424055022963e+00 6.0518105268385813e+00 1.8624143027981052e+01 -4 0 -3
526 1 4.4710817343256108e+00 -1.3237180875990786e+00 5.3511790083863247e+00 -2 0 0
133 1 -1.1143089499367929e+00 2.5907798540105489e+00 8.7501857472224511e+00 1 0 -1
610 1 1.4196449849027180e+01 3.0855026294649051e+00 9.6000570942878092e+00 -1 0 2
675 2 -5.3893422406736562e+00 5.8862416421307566e+00 1.7981304132465361e+01 0 0 -4
634 1 1.2451288656099151e+00 1.0123606322863667e+01 6.8863855280612132e+00 1 0 -2
300 2 -5.4195262448317978e+00 4.5297980377351577e-01 1.7044804832376474e+01 -2 0 -2
214 1 -1.1269922745121517e+00 7.5797326029393108e+00 4.7960630960722721e+00 0 0 -2
782 2 2.2760087686179840e+00 3.5814070329000636e+00 3.4623275725969638e-01 -2 0 -2
690 2 -9.1469133547839110e-01 8.2797284334829691e-01 5.3429492872378361e+00 -2 0 0
66 2 7.3919437565623207e+00 1.1997507400257073e+00 9.1426878195956771e+00 -2 0 -3
728 2 7.6510890190302030e+00 7.5826582736903116e+00 1.2637570662381703e+01 0 0 1
113 2 8.9598115208738331e+00 9.4218230846600282e-01 1.4292515138919613e+01 -2 0 -1
831 2 3.1613900768542096e+00 8.9194897582882966e+00 3.8097216792799640e+00 -3 0 0
970 1 -1.6216781242622762e+00 9.2066904409906574e+00 1.7557712128308562e+01 0 0 0
644 2 1.1367417361102893e+01 1.8852582532692890e+00 1.3239960651051371e+01 -4 0 -3
776 2 9.7964152854075994e+00 -1.3293192827129277e+00 1.3870966887604346e+00 -2 0 2
67 1 6.9032381201634738e+00 5.6118577358478241e+00 1.8560650928035173e+01 -4 0 -3
727 1 8.6265713370021064e+00 7.4378851536219077e+00 1.2806625070251807e+01 0 0 1
114 2 7.3969160493166717e+00 9.3809872879061906e-01 1.4267830887674299e+01 -2 0 -1
425 2 1.3093386962251490e+01 4.0304122636109305e+00 6.0558493461605387e+00 -2 0 1
544 1 2.4892088735050288e+00 1.7819030189235088e+00 1.4443344981264326e+01 2 0 1
231 2 1.3627195325606665e+00 -1.7550259363314018e+00 6.8028233749132712e+00 0 0 -2
1001 2 1.0737525524585639e+01 5.8726833776164478e-01 2.2585793760254327e+00 -1 0 1
496 1 4.9739227485391373e+00 2.6740209252323339e+00 7.3429796557488336e+00 0 0 1
655 1 6.1928099913151566e+00 7.8722892493995431e+00 1.6832858975748927e+01 -3 0 -1
337 1 3.6362708441464773e+00 4.9028931734189776e+00 2.7332982889016320e+00 -1 0 -1
503 2 4.1316494533988743e+00 -1.4851963222171491e+00 9.5793642677469872e+00 0 0 0
670 1 -2.8849933029591401e-01 -1.4653543653323702e+00 7.0293673975642044e+00 -3 0 -1
220 1 8.6781397021407436e-01 9.4299027128566095e+00 1.6936256936063440e+01 -2 0 -3
583 1 -2.4036919916856894e+00 8.1294172982163140e+00 1.1494143113372205e+01 -4 0 -4
584 2 -3.3721094484305931e+00 8.0396051823239425e+00 1.1378666697303496e+01 -4 0 -4
641 2 -1.1862174606108717e+00 6.8626240111661172e+00 1.1710807565205295e+01 4 0 -1
110 2 1.6613872570028034e+00 1.3634280021659761e+00 1.7787218744149893e+01 1 0 -4
389 2 1.3454818445063395e+01 -4.7219183194926972e-01 5.5297125218839458e+00 -1 0 0
47 2 1.0946319949219701e+01 7.8121765989741583e+00 6.5101856056839402e+00 -3 0 0
207 2 4.9435172377493348e+00 1.4821641929775957e+00 1.2328881899836540e+01 3 0 0
808 1 7.3978372642789409e+00 4.0556595735832097e+00 1.0863893251271580e+01 -4 0 -1
746 2 -3.3692275569214392e+00 9.5868580621475505e+00 1.4905446112228983e+01 -2 0 0
577 1 1.5079764193809480e+00 5.1366172890082726e+00 1.7117913336986078e+01 0 0 0
19 1 1.1282556394200087e+01 8.4172402681443348e+00 3.2228429761375978e+00 -3 0 -3
1000 1 1.1478943330776545e+01 1.1866501998513903e+00 2.3341114324347751e+00 -1 0 1
294 2 -2.3569783844622378e+00 3.5908692261177828e+00 1.2223625708249052e+01 1 0 -3
390 2 1.4342752673602456e+01 -5.7085549155781656e-01 4.3295848750017809e+00 -1 0 0
297 2 2.3482065561566583e+00 7.8213345834113053e+00 2.2654194282591136e+00 2 0 3
521 2 8.0599804758140081e+00 -6.2354209726156795e-01 8.8569600300847107e+00 -5 0 -2
813 2 1.2233836454465587e+01 6.6592042857552229e+00 1.3462185633902113e+01 -2 0 -1
912 2 1.1591203081347901e+01 1.5510834094618731e+00 3.9903389833165099e+00 -2 0 1
167 2 1.1611108391226688e+01 1.0167309654037517e+01 2.8356187903911456e+00 -4 0 -4
978 2 4.9381316198079652e+00 -1.1043985245263206e+00 1.7663873967845650e+01 -3 0 -1
771 2 -2.3131740157894685e+00 5.7149674916494710e+00 9.2122847426188574e+00 1 0 -3
775 1 9.9838473591475356e+00 -1.2943634555011645e+00 2.3016819793049734e+00 -2 0 2
809 2 7.3884027193848851e+00 3.3175572036045411e+00 1.0215923488329940e+01 -4 0 -1
866 2 2.0665801172670140e-01 5.5731600682166631e+00 1.8195379972675219e+01 -3 0 -1
94 1 -5.1731172575501416e-01 5.8550942352524009e+00 9.0391238387356108e+00 -1 0 -1
225 2 -3.3591239885345594e+00 6.6470274169021017e+00 1.7717169008684820e+01 -2 0 -2
770 2 1.4325432708641390e+01 6.1724579877676025e+00 9.8766871809688350e+00 0 0 -3
123 2 8.2750091609194527e+00 5.7834277843219946e+00 1.6030041003801852e+01 -2 0 -1
440 2 5.2775130076845223e-01 3.8219184086637172e+00 1.4467432638162267e+01 -2 0 -2
383 2 1.5580028168296614e+01 4.5199702160010862e+00 2.1010534639515943e+00 -2 0 1
6 2 3.9284859538774741e+00 8.8778889592863024e+00 5.6456933651905068e+00 1 0 0
499 1 -6.6615237698226082e-02 1.1466794934434668e+00 1.2393831174550156e+01 1 0 1
910 1 1.1378984039351764e+01 1.8098767475664803e+00 4.9030568524221936e+00 -2 0 1
546 2 3.5044962107454252e+00 1.8512535541980717e+00 1.4269824440089629e+01 2 0 1
559 1 8.3614759147011934e+00 -1.5135679660137908e+00 7.3607504615412873e+00 -2 0 1
729 2 8.6183424954981351e+00 6.9276090394958221e+00 1.3645473240351237e+01 0 0 1
612 2 1.4060054323877978e+01 2.5820744064110084e+00 1.0449464089453919e+01 -1 0 1
674 2 1.8400490250499304e+00 6.9327087544051995e+00 1.3497445446343622e-02 0 0 -3
121 1 7.7884235070366747e+00 5.7124837078310469e+00 1.5228670096641654e+01 -2 0 -1
911 2 1.1464833592227167e+01 1.0336010010307288e+00 5.4717927685375338e+00 -2 0 1
424 1 1.3630040042756264e+01 3.4712995553918562e+00 5.4951690095791390e+00 -2 0 1
811 1 1.2040784908897512e+01 6.0161668701060149e+00 1.2706335276408252e+01 -2 0 -1