LAMMPS data file via write_data, version 3 Mar 2020, timestep = 1000000

1008 atoms
2 atom types

2.3635755705338113e-01 1.8163197442938532e+01 xlo xhi
2.8985866906833024e-02 2.2541403133088245e+01 ylo yhi
1.9922134467133823e-01 1.9306494655325800e+01 zlo zhi
2.3104864340735321e-02 -6.6606036390768599e+00 -8.3947522608065303e-02 xy xz yz

Masses

1 16
2 2

Atoms # atomic

1 1 6.6690731795729459e+00 1.3990981735823280e+00 4.7004678011568046e+00 0 0 0
219 2 5.9541379801685839e+00 1.0714600402967520e+01 7.1643868620194011e+00 0 0 0
3 2 6.5949890557241773e+00 1.7696900531139585e+00 3.7802146716134102e+00 0 0 0
4 1 4.0269661072410061e+00 1.0033199781412023e+00 5.2602454033610986e+00 0 0 0
5 2 5.0073396234855592e+00 1.0270266972189983e+00 4.9885781774273603e+00 0 0 0
6 2 4.0054679334876893e+00 1.4706426911348069e+00 6.0966934093161500e+00 0 0 0
7 1 -5.2581003566766815e-01 6.3887503212895211e+00 5.2001009329345882e+00 0 0 0
8 2 -6.0180807925387692e-01 6.0660725031037064e+00 6.1339852379603741e+00 0 0 0
9 2 -1.1325634093774470e+00 7.1211026882250303e+00 5.0802789219989286e+00 0 0 0
10 1 2.1369399445860386e+00 6.5280813292051105e+00 4.9430245552332348e+00 0 0 0
11 2 1.2538542164688729e+00 6.9466906154505450e+00 5.2109844123921727e+00 0 0 0
12 2 2.7641333309122906e+00 7.3350442645057941e+00 4.9427530039362573e+00 0 0 0
220 1 3.7534847369827862e+00 1.0853232764020776e+01 3.6303197215175822e+00 0 0 0
14 2 4.9315098041383489e+00 5.0526982902788475e+00 8.8254807824841244e+00 0 0 0
221 2 4.3940580799360900e+00 1.0605039013767248e+01 2.9505111750218860e+00 0 0 0
70 1 3.6751821580485662e+00 4.9811140867474274e-01 2.0642231769116961e+00 0 0 0
18 2 5.4421991161880019e+00 5.2179667965957277e+00 1.0978009625715091e+00 0 0 0
82 1 2.4174951273207084e+00 6.0430573629548645e+00 3.4476272769275257e-01 0 0 1
311 2 1.0844799889741516e+01 1.0943436623313158e+01 6.1126493103867965e+00 0 0 0
21 2 1.3076063297825724e+00 2.3135487769692826e+00 1.3662531080977232e+00 0 0 0
302 2 1.5039220153163184e+01 1.0467238117986474e+01 7.0889979218521688e+00 0 0 0
217 1 6.7191273194005472e+00 1.0796249435881169e+01 6.6168853422969391e+00 0 0 0
753 2 3.9728170306762327e+00 9.5013473835376594e+00 8.9365095314763501e+00 0 0 0
25 1 4.6896965294250652e+00 6.0106719357699401e+00 7.3547020645454202e+00 0 0 0
26 2 5.3771959765496709e+00 6.7324609399023538e+00 7.3530955435314365e+00 0 0 0
27 2 3.7934611332067720e+00 6.4451380985286537e+00 7.4227071101153062e+00 0 0 0
28 1 5.5613848112722888e+00 6.3478789788925027e+00 2.4768818483683508e+00 0 0 0
29 2 5.4934164725398489e+00 5.8646075425892814e+00 3.3492205033028917e+00 0 0 0
30 2 4.7455383894764980e+00 6.8925171780573855e+00 2.4390943939932055e+00 0 0 0
31 1 1.3274942162129668e+00 1.2740111051429990e+00 2.8225431244917232e+00 0 0 0
32 2 2.2772925406399547e+00 9.7771471860673376e-01 2.7996905372777410e+00 0 0 0
33 2 1.1374975771501410e+00 1.5326491408901159e+00 3.7576102420965207e+00 0 0 0
34 1 2.3910038393086852e-01 9.3673969191960238e-01 7.7873914512023719e+00 0 0 0
35 2 -7.5847886094471217e-01 8.2299896427866615e-01 7.7998349115044707e+00 0 0 0
36 2 3.4956530459823520e-01 1.5554901483189341e+00 8.5863065722655048e+00 0 0 0
37 1 6.5222254631324477e+00 2.5615072010729052e+00 2.3244109313838650e+00 0 0 0
38 2 5.7116214893338322e+00 3.0512263733562506e+00 2.3942419456102102e+00 0 0 0
39 2 7.2070210067072242e+00 3.2838374066614557e+00 2.5302672692614534e+00 0 0 0
40 1 4.1374923462746356e+00 2.7372766942757996e+00 7.5841310264077393e+00 0 0 0
41 2 5.0358261916042624e+00 3.0753556577574535e+00 7.3879852739823804e+00 0 0 0
42 2 3.5106277117627864e+00 3.3442448963693141e+00 7.1463117780730014e+00 0 0 0
43 1 -4.1830240290355003e-01 4.8806271506241874e+00 7.4356785545064819e+00 0 0 0
44 2 -1.1308558657349761e+00 4.3232791058850433e+00 7.1311237858433385e+00 0 0 0
45 2 -6.5260290669586474e-01 5.1009602217648213e+00 8.3466183625821504e+00 0 0 0
46 1 1.9193708615397411e+00 4.9276719563748914e+00 2.8054247425680492e+00 0 0 0
47 2 9.7236765070815490e-01 4.6143849759588864e+00 2.8527727568623447e+00 0 0 0
48 2 2.0248201145311446e+00 5.5591058994862186e+00 3.5355593408680868e+00 0 0 0
49 1 6.5729761838102547e+00 3.3900404628679714e+00 6.7080774661236875e+00 0 0 0
50 2 6.1569746412867117e+00 3.8682366577911140e+00 5.8986756331191037e+00 0 0 0
51 2 6.7410008823503684e+00 2.5519856463576951e+00 6.3104682191055659e+00 0 0 0
52 1 4.0080776428227232e+00 3.1973631313564082e+00 3.3770182426580924e+00 0 0 0
53 2 3.1692261556597900e+00 3.7342880528582176e+00 3.2418089437059296e+00 0 0 0
54 2 3.7985228477060087e+00 2.5223079561114465e+00 4.0379869353979352e+00 0 0 0
55 1 -5.1097264484576876e-01 4.0062564353848913e+00 3.7419889546212675e+00 0 0 0
56 2 -7.0168896876137354e-01 4.8448123044134830e+00 4.2406730834941175e+00 0 0 0
57 2 -4.4978196788281066e-01 3.3728090993142299e+00 4.4836804768625580e+00 0 0 0
58 1 2.1093198911956668e+00 4.3075729208259688e+00 6.4408683017472637e+00 0 0 0
59 2 2.1747214429149375e+00 5.1865432787524695e+00 6.0611653787127837e+00 0 0 0
60 2 1.1911919003484557e+00 4.3387055258986926e+00 6.8353802635720902e+00 0 0 0
61 1 8.1385275679692981e+00 7.1416114734546543e+00 1.4874542468906620e+00 0 0 0
62 2 7.4511535681576966e+00 7.0010685471041132e+00 2.1642082620107574e+00 0 0 0
63 2 8.1459585151856952e+00 6.2605250970254076e+00 1.0235980461030207e+00 0 0 0
64 1 2.5022337333452902e+00 7.0628360247849153e+00 8.4771314713472634e+00 0 0 0
65 2 1.7261560986505566e+00 7.4190897652445118e+00 8.0216105531235016e+00 0 0 0
66 2 2.7818834320824126e+00 7.7621528978151941e+00 9.1095840655434888e+00 0 0 0
301 1 1.5904560997760459e+01 1.0676531540861566e+01 6.6640357169939195e+00 0 0 0
68 2 -2.4290771774230393e+00 1.4706172399121220e+00 8.5745608300179228e+00 0 0 0
69 2 1.4779513509649700e+01 2.4166929007679169e-01 7.6333251239496693e+00 0 0 0
72 2 3.9325762178284922e+00 1.2434279033567006e+00 1.4679611390676570e+00 0 0 0
73 1 5.3750531625257914e+00 4.8818010038365500e+00 4.6811245583773582e+00 0 0 0
74 2 4.9351940821310212e+00 5.2533600079434883e+00 5.4859234597082613e+00 0 0 0
75 2 4.7332489580062909e+00 4.2341098639732415e+00 4.1915238559249293e+00 0 0 0
76 1 6.9349876253156295e-01 2.1429638802225828e+00 5.3883789417148380e+00 0 0 0
77 2 5.3517261846930531e-01 1.5535277542727974e+00 6.2083840811718707e+00 0 0 0
78 2 1.5482843557745536e+00 2.6593618328791777e+00 5.5413679305786889e+00 0 0 0
290 2 1.5814505932552757e+01 1.0711863752971141e+01 2.7604933640696347e+00 0 0 0
83 2 2.0515214091045806e+00 5.5992668855243792e+00 1.1442744101016002e+00 0 0 0
152 2 7.4627733209002303e+00 8.0124887243774712e-01 7.9943658083505484e+00 0 0 0
85 1 1.5306279057456038e+01 6.7419274062690526e-01 4.9290688244573069e+00 0 0 0
87 2 1.5522818460844478e+01 1.2565897552374716e+00 4.1390579489277695e+00 0 0 0
88 1 1.2580417329772164e+01 9.7678407426756697e-01 5.0168959184605786e+00 0 0 0
89 2 1.2552711339761688e+01 1.7651771488146648e+00 4.4555171396778466e+00 0 0 0
90 2 1.3531457748605469e+01 7.6259804254877239e-01 5.0506735476282447e+00 0 0 0
91 1 8.2143387150158915e+00 6.7193962763904853e+00 4.5738898994598260e+00 0 0 0
92 2 8.1944872253987704e+00 5.8689437451467867e+00 4.1071460653727785e+00 0 0 0
93 2 9.1773796100533058e+00 6.9023785545823744e+00 4.8077758041889549e+00 0 0 0
94 1 1.1030699538736341e+01 6.5251604561255263e+00 4.8178492453499180e+00 0 0 0
95 2 1.1755235032567501e+01 7.1586359847082441e+00 4.7689604057624218e+00 0 0 0
96 2 1.1279083370203427e+01 5.8357481319418101e+00 5.4197260409495085e+00 0 0 0
135 2 1.5803030539379527e+01 2.2011285238409393e+00 6.0481694453967139e+00 0 0 0
97 1 1.3854082492988098e+01 4.6419118453671828e+00 9.4471844910823233e+00 0 0 0
602 2 1.6494100060557745e+01 4.2610991716257267e+00 3.6854271993083099e-01 0 0 0
101 2 1.4349046963651690e+01 5.3995484332426553e+00 1.4209952807802175e+00 0 0 0
584 2 3.0440450106681785e+00 5.2217108699844395e-01 9.2561684119693215e+00 0 0 0
209 2 3.4219065618197533e+00 1.1041191257973804e+01 6.9914005020777292e+00 0 0 0
133 1 1.5755070344718773e+01 3.1734217582190145e+00 6.2894759999232557e+00 0 0 0
99 2 1.2890205015643438e+01 4.3515370473470751e+00 9.5797600554380207e+00 0 0 0
109 1 1.3911037354778715e+01 6.2168877947415879e+00 7.2590429991847847e+00 0 0 0
110 2 1.3923491326626024e+01 5.5944510388136859e+00 8.0347319291140646e+00 0 0 0
111 2 1.3002314539211392e+01 6.4980606830230085e+00 7.1889296202704580e+00 0 0 0
112 1 1.4671242796006467e+01 6.5242638355622580e+00 2.8304999835884908e+00 0 0 0
113 2 1.4009128435458646e+01 7.2258430739326185e+00 2.5502208653571841e+00 0 0 0
114 2 1.5578092872503401e+01 6.7021794880226855e+00 2.5815838866201966e+00 0 0 0
115 1 1.0163006065093503e+01 1.1631998787075193e+00 2.7693116910568603e+00 0 0 0
116 2 9.9829099943825756e+00 1.6540631085414526e+00 1.9569687112602716e+00 0 0 0
100 1 1.4336210099970840e+01 4.9586576012881922e+00 5.4571608699973340e-01 0 0 0
118 1 9.2988194131235176e+00 1.1275218770018052e+00 7.4295959014063637e+00 0 0 0
119 2 9.4016123131749225e+00 1.7794965931518070e+00 8.1281685974998013e+00 0 0 0
120 2 9.1537289291078281e+00 1.6275621381837475e+00 6.6019245727031395e+00 0 0 0
121 1 1.5064909847006401e+01 2.3713080674280982e+00 2.8127246228185410e+00 0 0 0
122 2 1.5674599166969561e+01 3.0751675390872681e+00 3.1209285176585184e+00 0 0 0
123 2 1.5300921660925473e+01 2.2573038268942005e+00 1.8851313295640437e+00 0 0 0
124 1 1.3206428309294930e+01 2.5911743647160197e+00 7.4228339362879447e+00 0 0 0
125 2 1.4177530289302922e+01 2.7376837263027141e+00 7.1924435937303342e+00 0 0 0
126 2 1.2849514373728002e+01 1.9884328604436912e+00 6.6925098764886686e+00 0 0 0
127 1 8.7644972350296761e+00 5.0569069339624013e+00 7.1311591472920126e+00 0 0 0
128 2 8.0061829540004030e+00 4.4608023873131595e+00 6.9842275133916658e+00 0 0 0
129 2 8.7220949181355039e+00 5.7778997996845920e+00 6.5043046322843230e+00 0 0 0
130 1 1.0929757737014562e+01 5.1225300945035119e+00 2.6303461938206802e+00 0 0 0
131 2 1.1443335886240837e+01 4.2578204763691447e+00 2.7004256782681262e+00 0 0 0
132 2 1.1018381931315304e+01 5.6391500617945658e+00 3.4311548087249464e+00 0 0 0
134 2 1.5190499269501228e+01 3.6091179359578058e+00 5.6529076826695883e+00 0 0 0
136 1 1.2557448513345184e+01 3.2961354514587575e+00 3.6212347241364897e+00 0 0 0
137 2 1.3009674082764645e+01 3.9252872421773262e+00 4.2380512865294984e+00 0 0 0
138 2 1.3299603646718756e+01 3.0780446015864413e+00 3.0260151845059791e+00 0 0 0
139 1 8.3520419231271852e+00 4.3425675238559212e+00 3.3487077063916226e+00 0 0 0
140 2 9.2619242962562502e+00 4.5414826526137206e+00 2.9581143214896333e+00 0 0 0
141 2 8.6294620805337292e+00 3.5977258978052702e+00 3.9941737643212392e+00 0 0 0
142 1 1.1086312433924473e+01 4.2349717970567067e+00 6.2480227455810198e+00 0 0 0
143 2 1.1662184276528166e+01 3.7261961888560702e+00 6.8008193855674763e+00 0 0 0
144 2 1.0296785456608871e+01 4.4823600976266684e+00 6.8021033983397912e+00 0 0 0
147 2 1.6881738899251232e+01 7.6718063067319422e+00 1.2440944350506324e+00 0 0 0
148 1 1.1308389572669618e+01 6.8068759977886861e+00 8.0732860423666875e+00 0 0 0
149 2 1.1139918086020337e+01 6.0485559385093177e+00 8.6267275956400731e+00 0 0 0
150 2 1.1665171228393643e+01 7.4709539747771352e+00 8.6711472234538309e+00 0 0 0
304 1 1.2797613506096628e+01 1.0816706427942680e+01 3.5891031412215071e+00 0 0 0
293 2 1.2480784706113591e+01 1.0513365513789996e+01 7.2554949192321034e+00 0 0 0
153 2 6.3688128688337908e+00 1.5782391968443930e+00 8.7623472079891602e+00 0 0 0
103 1 1.0078927282751209e+01 2.6533276901153946e+00 4.6947994349610472e-01 0 0 0
155 2 1.2754815896542071e+01 1.4624193985480223e+00 1.1558337060300796e+00 0 0 0
521 2 2.4025300520415795e+00 5.1955656902921641e+00 9.4512680585449491e+00 0 0 0
157 1 1.4103021349183301e+01 5.0703603008984928e+00 4.9053131841133775e+00 0 0 0
158 2 1.4367266203928880e+01 5.8506300242881926e+00 4.3271562444795153e+00 0 0 0
159 2 1.4168948932963294e+01 5.4945093318891729e+00 5.7734003939798537e+00 0 0 0
160 1 9.5683357062438397e+00 2.5455585811121524e+00 4.9969770288793809e+00 0 0 0
161 2 1.0436302834870157e+01 3.0018515513387181e+00 5.3792509704128406e+00 0 0 0
162 2 9.8911901925887467e+00 1.9912567847851770e+00 4.2620075632443886e+00 0 0 0
165 2 1.6427536620331480e+01 8.2984894192149194e-01 6.7814225032005182e-01 0 0 0
585 2 3.9280620290874251e+00 1.8334773476897255e+00 8.9842685500271511e+00 0 0 0
167 2 1.1131978438305005e+01 5.5682791313881221e+00 8.4227159160686471e-01 0 0 0
169 1 6.4213792573802237e+00 8.5812285655342890e+00 4.8400644807624511e+00 0 0 0
170 2 7.0079460211271538e+00 7.7404558591303108e+00 4.7488107423669552e+00 0 0 0
171 2 6.6471740266813280e+00 9.0761791487531589e+00 5.6644180941401334e+00 0 0 0
172 1 3.9548868629802429e+00 8.5007094756822408e+00 4.9849290931439025e+00 0 0 0
173 2 3.7604813353660265e+00 9.2678893622410037e+00 4.4601311247207098e+00 0 0 0
174 2 4.9284454846732650e+00 8.4083438537258015e+00 4.9225644678213545e+00 0 0 0
222 2 2.9542781028108780e+00 1.1170359528665774e+01 3.0536968263577307e+00 0 0 0
117 2 9.5075886150132121e+00 4.4337092650207194e-01 2.6873888387427889e+00 0 0 0
192 2 3.9923769871283543e-01 9.7854903931273078e+00 9.0159775402341307e+00 0 0 0
199 1 1.1471845019914211e+00 8.6485341113094343e+00 2.5474864221910871e+00 0 0 0
200 2 1.0219200949508567e+00 9.3332463578280063e+00 1.8107087831824955e+00 0 0 0
201 2 3.5179736587834709e-01 7.9917311296810141e+00 2.5262566301976972e+00 0 0 0
202 1 4.5677131647554869e-01 8.5491144618488732e+00 7.5537236234554408e+00 0 0 0
203 2 -4.6282682210484971e-01 8.2710762345195583e+00 7.6260164036883245e+00 0 0 0
204 2 5.0101632283302688e-01 9.0611766337314865e+00 6.7116253250163602e+00 0 0 0
205 1 5.9212412411047701e+00 1.0277182984324053e+01 2.4377347234637394e+00 0 0 0
206 2 6.2289574880557961e+00 9.5923465592612231e+00 3.0608984034570073e+00 0 0 0
207 2 6.0748279939105494e+00 9.8905626635493906e+00 1.5639000074748868e+00 0 0 0
208 1 4.0532186124122678e+00 1.0398914473604036e+01 7.3865806573914465e+00 0 0 0
67 1 -2.3190808008887887e+00 6.4636680156465376e-01 8.0317052548838905e+00 0 0 0
210 2 4.2047898508491528e+00 9.8029052639331802e+00 6.6169283971945081e+00 0 0 0
668 2 1.2881797352467085e+01 2.0000583713186888e+00 9.0827612771863038e+00 0 0 0
22 1 4.5767807635569913e-01 2.7907588862150257e+00 9.6470906519067086e+00 0 0 0
587 2 -1.3264190985424162e+00 6.7488069954474561e+00 9.1751931371578479e+00 0 0 0
156 2 1.1935553828313077e+01 6.3258176193628923e-01 2.2460258853833031e+00 0 0 0
224 2 -3.0629968426150767e-01 1.0864131543488009e+01 4.1923916353305941e+00 0 0 0
235 1 -2.1135000110469502e+00 7.8872067277562037e+00 8.2314257206828501e+00 0 0 0
236 2 -2.4159120703470318e+00 8.5972603037854327e+00 8.8691774658374207e+00 0 0 0
238 1 3.5784697576460998e+00 7.9950690621456539e+00 1.5887913629739192e+00 0 0 0
239 2 2.7429436042707831e+00 8.1364233762207725e+00 2.0051135226026737e+00 0 0 0
240 2 3.8600728970099225e+00 8.8098376778724887e+00 1.0961645803369104e+00 0 0 0
244 1 8.0129152338672860e-01 9.8101583027310824e+00 5.0834543612080418e+00 0 0 0
245 2 1.1320254901486404e+00 9.3060101632576959e+00 4.2780762048722485e+00 0 0 0
246 2 1.4576915911467858e+00 1.0492922748918200e+01 5.4169870684403731e+00 0 0 0
145 1 1.7239810953714425e+01 7.0973767825523391e+00 1.8820971416261689e+00 0 0 0
146 2 1.7377370196248030e+01 6.2732498801102983e+00 1.3463088651354025e+00 0 0 0
253 1 1.5468867679229152e+01 8.5972089225467148e+00 4.8462416055644342e+00 0 0 0
255 2 1.5522321997498185e+01 8.9455448835766394e+00 3.9413902617005760e+00 0 0 0
256 1 1.3019799085382189e+01 8.3219908853034994e+00 5.2562309613196065e+00 0 0 0
257 2 1.3955004146654343e+01 8.4278760753088573e+00 5.0934366479587458e+00 0 0 0
258 2 1.2517115151232604e+01 8.9224457404725488e+00 4.7003237204600037e+00 0 0 0
106 1 9.3766655652941502e+00 2.5832057432839028e+00 9.5919720044053758e+00 0 0 0
272 2 9.8456254715531024e+00 9.6395563599636684e+00 1.1587881020485487e+00 0 0 0
751 1 3.7818914681151301e+00 8.9626331809048061e+00 9.7497901627991457e+00 0 0 0
276 2 9.5866409482475810e+00 9.7119840254446519e+00 8.9043799095646783e+00 0 0 0
283 1 9.9618407510322591e+00 8.9214760479862054e+00 2.5539963664667509e+00 0 0 0
284 2 9.8738702116426023e+00 9.0969486182022585e+00 3.5006230868955068e+00 0 0 0
285 2 9.3960874659465272e+00 8.1687879337700640e+00 2.3057887937603829e+00 0 0 0
286 1 9.4434852452975573e+00 8.6560701899441774e+00 7.2021409072275384e+00 0 0 0
287 2 1.0206918733524887e+01 8.0388605883522448e+00 7.2840729913851074e+00 0 0 0
288 2 8.5694555038832050e+00 8.2868987018318947e+00 7.4088597043897808e+00 0 0 0
289 1 1.5201752217244239e+01 9.9637396143588326e+00 2.5480920814211161e+00 0 0 0
20 2 5.1573449384849268e-01 3.1584087914308783e+00 2.8557725077066570e-01 0 0 0
291 2 1.5418858749250715e+01 9.6065661664316249e+00 1.6515346243281468e+00 0 0 0
292 1 1.3271798385075931e+01 9.9545309685979486e+00 7.6312475474295942e+00 0 0 0
271 1 9.8945810624441499e+00 1.0065844706701128e+01 2.6861920305084208e-01 0 0 0
294 2 1.3080752484648716e+01 9.2199097823707827e+00 7.0255295170532781e+00 0 0 0
151 1 6.4960815323040837e+00 7.4591679559887014e-01 8.2023985355635762e+00 0 0 0
836 2 1.2667703820647946e+01 9.1986647898826295e+00 9.0637105649403136e+00 0 0 0
306 2 1.3621318961428702e+01 1.0494078203734988e+01 3.0963095309443855e+00 0 0 0
248 2 7.1906380990828618e+00 8.5918201992521421e+00 5.1442907556496020e-01 0 0 0
319 1 6.9249992789086603e+00 7.8766179533530378e+00 8.3151780352583895e+00 0 0 0
320 2 6.6610226740171417e+00 8.6602251805546722e+00 8.8326357410977341e+00 0 0 0
321 2 7.3773241454536667e+00 7.1725233661326602e+00 8.9667169137501332e+00 0 0 0
322 1 1.2743121625573961e+01 8.0217088507636802e+00 1.8338483494472679e+00 0 0 0
323 2 1.1907522296669484e+01 8.5010860912506256e+00 2.1059775301867987e+00 0 0 0
324 2 1.2485627862850546e+01 7.3797915873704891e+00 1.1390206618958210e+00 0 0 0
328 1 9.6863539766140718e+00 9.9830449233829999e+00 4.9955613004847930e+00 0 0 0
329 2 9.4749319358017239e+00 9.5329829896453635e+00 5.8258542557270978e+00 0 0 0
330 2 9.0167596316439838e+00 1.0663452794719699e+01 4.7375004212923830e+00 0 0 0
670 1 8.2026187852809471e+00 5.9520471311644370e+00 9.6583334302486090e+00 0 0 0
237 2 1.5009622054571267e+01 7.4163639794272314e+00 7.9433760060556207e+00 0 0 0
305 2 1.2128777993009946e+01 1.1161577595571702e+01 3.0184351767399216e+00 0 0 0
84 2 3.1395328647000467e+00 6.6529385429239918e+00 5.7327586578707490e-01 0 0 0
671 2 8.6650165144305156e+00 5.6697603268213044e+00 8.8011356406386057e+00 0 0 0
13 1 5.2049672322092109e+00 4.7033268353255213e+00 9.7145075722392384e+00 0 0 0
309 2 7.4175587312025701e+00 1.1259903807717668e+01 2.9150300967999412e+00 0 0 0
254 2 1.5790694387763242e+01 9.2604854427728913e+00 5.5004597863808167e+00 0 0 0
482 2 2.0267078926510540e-01 5.7834901302155364e-02 2.0223695695097983e+00 0 0 0
80 2 6.8260621803668888e+00 1.5418038707276547e+00 8.6135646889112794e-01 0 0 0
486 2 1.1489100619378565e+01 2.0066493143347611e-01 9.0153156127107277e+00 0 0 0
601 1 1.7372155458070264e+01 4.5933440190313366e+00 3.4245408046790343e-01 0 0 1
667 1 1.2372490416074012e+01 1.4500625440887998e+00 9.6997038302272962e+00 0 0 0
102 2 1.3882119983443465e+01 4.0826113354816203e+00 6.8009499669268081e-01 0 0 0
835 1 1.2436297431668329e+01 8.5476093071333388e+00 9.6863733854906311e+00 0 0 0
2 2 7.3493645229323015e+00 6.8062834086463608e-01 4.7640109844299001e+00 0 0 0
154 1 1.2688457136999908e+01 5.8819152552969367e-01 1.5852734480861836e+00 0 0 0
780 2 1.2917435822474097e+01 9.8032975747078428e+00 8.6782187418420920e-01 0 0 0
19 1 1.1894461082482413e+00 2.4742752451619223e+00 3.7624670836676805e-01 0 0 0
583 1 3.8403721839988165e+00 1.0360327863400591e+00 9.6551274113299890e+00 0 0 0
163 1 1.5809193876113683e+01 1.4923956843858877e+00 3.2735595577726562e-01 0 0 0
606 2 1.0430693900594949e+01 3.9228507828358889e+00 9.6613409437960005e+00 0 0 0
586 1 -8.2193956654043188e-01 6.0384860401753286e+00 9.6794450149311455e+00 0 0 0
104 2 9.4277220055233748e+00 3.4324681970629625e+00 4.0647673122889072e-01 0 0 1
218 2 7.3893696751248825e+00 1.1146502712590909e+01 7.2049601117132358e+00 0 0 0
331 1 1.5943714914304248e+01 8.8538077442760095e+00 2.2378022604974582e-01 0 0 0
524 2 1.4862006069335360e+01 3.3352134413130829e+00 9.6335841831205542e+00 -1 0 0
485 2 1.0423674347128765e+01 6.1216662188295731e-02 7.8598883694012276e+00 0 0 0
523 1 -2.3995850686986864e+00 2.6392022760185836e+00 9.7409201292630332e+00 0 0 0
518 2 7.4431729954476067e+00 4.6585444621076135e+00 2.2906423145429750e-01 0 0 0
16 1 -1.1768975137332021e+00 4.8752293733972580e+00 1.9293876982002651e+01 0 0 -1
17 2 -1.7280045892339730e+00 4.0666086524085623e+00 1.9139348050547973e+01 0 0 -1
810 2 8.8931411411337784e+00 1.1129463642916713e+01 1.2628749082129632e+01 0 0 0
247 1 -1.2908407660673582e-01 9.1778693469421135e+00 1.9274593445061413e+01 0 0 -1
520 1 2.3559016339677519e+00 4.5634436637992044e+00 1.0223861633966688e+01 0 0 0
903 2 5.0395832517862509e+00 2.3042939258985126e-01 1.0442320615081000e+01 0 0 0
105 2 3.1260976236357525e+00 1.8738466319891200e+00 1.8971833811253823e+01 0 0 0
834 2 6.0862877365963834e+00 1.0583139219248885e+01 1.4220275439490965e+01 0 0 0
728 2 -3.5759771645138461e+00 1.1213466838895942e+01 1.3723246478520542e+01 0 0 0
332 2 9.6637992453905301e+00 9.2701603437744637e+00 1.8526657143880954e+01 0 0 0
588 2 -1.3657443525434554e+00 5.9194680742939596e+00 1.0471287034275596e+01 0 0 0
828 2 8.8293307360418751e+00 7.7748352973467361e+00 1.1677932138376018e+01 0 0 0
655 1 3.3380453344636045e+00 4.3636745518410425e-01 1.7790928563537129e+01 0 0 0
188 2 -5.9154514499363291e+00 9.1683964602397943e+00 1.8738972413195256e+01 0 0 0
837 2 1.2229396831919537e+01 9.0273511738398096e+00 1.0540542611961659e+01 0 0 0
607 1 6.9426840567166952e+00 2.6680938150737701e+00 9.9458804439401955e+00 0 0 0
536 2 -2.6916178137820257e+00 5.1384455919629701e-01 1.1956267152321866e+01 0 0 0
808 1 9.5276238406273315e+00 1.0518576399142152e+01 1.3007607258162327e+01 0 0 0
505 1 3.1639737833476431e+00 6.9275559946951837e-01 1.4165774910629350e+01 0 0 0
506 2 3.4499748427888663e+00 1.5075875472087381e+00 1.4701112250495889e+01 0 0 0
721 1 3.7673561090159353e+00 1.0634686648713522e+01 1.5741539156982546e+01 0 0 0
508 1 3.5306432431538859e-01 1.0683355345285963e+00 1.4655330464784951e+01 0 0 0
807 2 1.2632898026893596e+01 1.0264845510936837e+01 1.5504560460389831e+01 0 0 0
510 2 1.1429827732623377e+00 6.0008022596533417e-01 1.4413012595497241e+01 0 0 0
511 1 -3.9347168822845608e+00 6.4941225328937637e+00 1.4856480080328446e+01 0 0 0
512 2 -4.2075383566537319e+00 5.8457332036301146e+00 1.4132387014535048e+01 0 0 0
513 2 -3.8143701161107195e+00 5.9233782378260020e+00 1.5607364252223416e+01 0 0 0
514 1 -1.1857310206836349e+00 6.7626308218941205e+00 1.4504119826140034e+01 0 0 0
515 2 -1.0566016728260981e+00 5.9955853240753294e+00 1.5055015899891231e+01 0 0 0
516 2 -2.1182354353482857e+00 7.0283249994645240e+00 1.4617572204192447e+01 0 0 0
81 2 7.9213171319743481e-02 2.0779592913558836e-01 1.9013973900389672e+01 0 0 0
519 2 1.6227687547969172e+00 5.1850337197548315e+00 1.8256803610530312e+01 0 0 0
825 2 3.3595399880871133e+00 8.4527657899958601e+00 1.8198204146891939e+01 0 0 0
522 2 2.2891008472395216e+00 5.0718814060944002e+00 1.1027590712619357e+01 0 0 0
990 2 7.1517978578705392e+00 1.2628290324795502e-01 1.7564079335637118e+01 0 1 0
191 2 5.0247251222446110e-01 9.3744084206690150e+00 1.0435138256768944e+01 0 0 0
525 2 -2.3945686412583926e+00 2.3704376899155561e+00 1.0685082937053467e+01 0 0 0
986 2 1.3372480631377123e+01 2.8679429112177274e-01 1.0525872821350445e+01 0 0 0
527 2 -2.7109083111300274e+00 2.0025249898476276e+00 1.8248871887142201e+01 0 0 0
529 1 1.2808803661865360e+00 6.3886265438241914e+00 1.6873340416680009e+01 0 0 0
530 2 1.3373381990795181e+00 5.9240283828693769e+00 1.6020162033672250e+01 0 0 0
531 2 3.4248438288599115e-01 6.6554688494898571e+00 1.7091354526197819e+01 0 0 0
532 1 2.5194733006465757e+00 6.3935750305712826e+00 1.2182940347124054e+01 0 0 0
533 2 3.3887846380021740e+00 6.7257469823803895e+00 1.1939646680743332e+01 0 0 0
534 2 2.5187487933335015e+00 6.2071151307900498e+00 1.3163422707727525e+01 0 0 0
535 1 -2.0512066079877620e+00 1.1312965368183081e+00 1.2429877207402502e+01 0 0 0
610 1 6.0918487787393349e+00 2.6155565664757709e+00 1.9119008180334625e+01 0 0 0
777 2 6.0890940063740011e+00 1.0760476019875830e+01 9.9416122759261150e+00 0 0 0
538 1 -3.1278985616900763e+00 1.1781091842817482e+00 1.6890167875556813e+01 0 0 0
539 2 -4.0588567694870452e+00 9.6795688754822429e-01 1.6973711738152687e+01 0 0 0
540 2 -2.9147821443950681e+00 1.6121052211413933e+00 1.6021149410269924e+01 0 0 0
541 1 2.9252344996613742e+00 2.2761107771229963e+00 1.2114826031960003e+01 0 0 0
542 2 2.9740790218947959e+00 1.5603241536687205e+00 1.2848614814990489e+01 0 0 0
543 2 3.2945372224763636e+00 1.9146089515756135e+00 1.1278606166551949e+01 0 0 0
544 1 8.5163600055873978e-01 2.5248325246010994e+00 1.6847248686825289e+01 0 0 0
545 2 8.4934543707748134e-01 2.1125886877952875e+00 1.7740002769512039e+01 0 0 0
546 2 4.6119094460024357e-01 1.8614384059783824e+00 1.6218387892011393e+01 0 0 0
547 1 -3.5749045527378778e+00 4.7230580866628555e+00 1.6945430242180109e+01 0 0 0
548 2 -4.3457269471410571e+00 4.0678517924050546e+00 1.6724369438580958e+01 0 0 0
549 2 -3.8171626970908719e+00 5.1109303751754700e+00 1.7801349154248783e+01 0 0 0
550 1 -1.7047582500623535e+00 5.1628695825762643e+00 1.2170444161942324e+01 0 0 0
551 2 -1.1353565765057638e+00 4.4014629064542010e+00 1.2252974869203747e+01 0 0 0
552 2 -1.3405764797667117e+00 5.7315411710013677e+00 1.2860938455153605e+01 0 0 0
553 1 3.0827668304905531e+00 3.0555693928901499e+00 1.5595387659116611e+01 0 0 0
554 2 2.3457775648183548e+00 2.7155998423748771e+00 1.6161200587452456e+01 0 0 0
555 2 3.7236287111607203e+00 3.4042745243230472e+00 1.6242456134242616e+01 0 0 0
556 1 4.8634853936681299e-01 3.3787823153509104e+00 1.3144646185825337e+01 0 0 0
557 2 1.2594550578260675e+00 3.0609024635171656e+00 1.2670729342329334e+01 0 0 0
558 2 2.8126756677795228e-01 2.5166112038186972e+00 1.3588491433706785e+01 0 0 0
559 1 -4.1924578912660406e+00 4.5419673406215750e+00 1.3054248185467817e+01 0 0 0
560 2 -3.4970343794234688e+00 4.7884291782467647e+00 1.2406690449604474e+01 0 0 0
561 2 -3.6726864150934331e+00 3.8996509147819234e+00 1.3613847389817483e+01 0 0 0
562 1 -1.0749977681556366e+00 4.4751164110490889e+00 1.5710693512004889e+01 0 0 0
563 2 -2.3607698873237126e-01 4.2152823275674756e+00 1.6133951610181530e+01 0 0 0
564 2 -1.8225591278346487e+00 4.5451462171982469e+00 1.6327827824052605e+01 0 0 0
565 1 4.9373818258470212e+00 7.1649090225670058e+00 1.1221098090168201e+01 0 0 0
566 2 4.5269259391834478e+00 7.8120786653927814e+00 1.0633159280116081e+01 0 0 0
567 2 5.2102162368850671e+00 6.3746757844712096e+00 1.0655910510103510e+01 0 0 0
568 1 -1.2082374174910901e+00 7.0950307410740763e+00 1.7821192139537217e+01 0 0 0
569 2 -1.4874979324482149e+00 6.2713905099692742e+00 1.8174885373168465e+01 0 0 0
570 2 -1.1364034567030661e+00 7.7222392336951380e+00 1.8531362198506841e+01 0 0 0
23 2 1.2025695837386841e+00 3.3813167600405576e+00 9.9108307788108014e+00 0 0 0
572 2 -5.6703778868660457e+00 1.1140484772661097e+00 1.8403960162907133e+01 0 0 0
656 2 2.5651593436216755e+00 2.7799143620040961e-02 1.7355893533057767e+01 0 1 0
107 2 9.6779477646407113e+00 1.8575153085435603e+00 1.0156912403537286e+01 0 0 0
576 2 4.5970879120355113e-01 1.4852232041147817e+00 1.0881662168535028e+01 0 0 0
577 1 1.8839858874876141e+00 5.2009261436437031e+00 1.4576754713185707e+01 0 0 0
578 2 1.2477436382409497e+00 4.5787907240685959e+00 1.4096863269759396e+01 0 0 0
579 2 2.5410186787194888e+00 4.5077681665859721e+00 1.4793931810721300e+01 0 0 0
580 1 -2.7807018212550965e+00 2.6353923089603266e+00 1.4484452613674655e+01 0 0 0
581 2 -2.6555382916547128e+00 1.9462051785239092e+00 1.3798124011446937e+01 0 0 0
582 2 -1.8604025515457590e+00 2.9712094646819009e+00 1.4738161058939774e+01 0 0 0
509 2 -3.0292795544754725e-01 2.7742571322687726e-01 1.4664482109909304e+01 0 0 0
672 2 8.8264593393737911e+00 6.6154399486358644e+00 1.0046774951300677e+01 0 0 0
589 1 1.2494908755059054e+01 1.1978278395791895e+00 1.4530983414110555e+01 0 0 0
590 2 1.1622148593224271e+01 8.8782344691486825e-01 1.4740470398573004e+01 0 0 0
591 2 1.2546679962536910e+01 1.9188196010291483e+00 1.5228246784370914e+01 0 0 0
592 1 9.7625046779853211e+00 9.6614940269834626e-01 1.4784260675626543e+01 0 0 0
693 2 -1.5553392414165159e+00 1.0562520048115525e+01 9.9261685272280591e+00 0 0 0
594 2 9.5527600230387506e+00 1.6813519834755060e+00 1.4153567951506638e+01 0 0 0
595 1 4.9468906717128673e+00 6.3316000030782105e+00 1.4531446423520485e+01 0 0 0
596 2 4.9054535993791282e+00 5.9019455174794020e+00 1.5413760695843393e+01 0 0 0
597 2 4.7782815932125517e+00 5.5618942318762450e+00 1.3964154598926179e+01 0 0 0
598 1 7.7366397731168748e+00 6.6338133258006593e+00 1.4707134103569082e+01 0 0 0
599 2 6.7679940257160220e+00 6.7799622169096700e+00 1.4651740034020868e+01 0 0 0
600 2 7.7730540329185676e+00 6.1210745723140647e+00 1.3886653930549857e+01 0 0 0
692 2 -3.0492210291739750e+00 1.0875357068895632e+01 1.0052405092428577e+01 0 0 0
603 2 1.0721258580076041e+01 5.0079917926633701e+00 1.8557894854623257e+01 0 0 0
608 2 6.4463268756698522e+00 3.5186661573715212e+00 9.9751476763319182e+00 0 0 0
605 2 1.1203281198092082e+01 4.9745664999532453e+00 1.0672939299719516e+01 0 0 0
537 2 -1.1154903272876608e+00 1.0280744768864756e+00 1.2046240092972539e+01 0 0 0
189 2 -4.8215368263601190e+00 1.0139436538314103e+01 1.9102077631027697e+01 0 0 -1
826 1 9.6117092760346576e+00 7.6687425946578429e+00 1.1124086857238796e+01 0 0 0
609 2 6.8481904710689463e+00 2.2202544692778847e+00 1.0807459004290973e+01 0 0 0
249 2 3.7431296389784041e-01 9.5903627943460776e+00 1.8542909600494269e+01 0 0 0
611 2 6.1057889267129530e+00 2.0731400559260793e+00 1.8313515150825253e+01 0 0 0