LAMMPS data file via write_data, version 8 Apr 2021, timestep = 4404000

1008 atoms
2 atom types

0.2705970389509823 18.128957961053423 xlo xhi
0.0024648811168926535 22.567924118862543 ylo yhi
0.22354431079698248 19.28217168921837 zlo zhi
0.12401888601664485 -6.642769231456782 -0.20352125685434871 xy xz yz

Masses

1 16
2 2

Atoms # atomic

1 1 6.638210027751108 1.3891130565707417 4.782511919053685 0 0 0
3 2 6.840050519972111 1.8015999799129927 3.891788608471709 0 0 0
4 1 4.01295483189409 1.0158497828408066 4.990019314633418 0 0 0
6 2 3.8709566148478767 1.3222087139606709 5.9082799675474496 0 0 0
7 1 -0.42083731545153946 6.425374900571767 4.8889236752142615 0 0 0
8 2 -0.467334016931619 5.9741879270011795 5.79820133810796 0 0 0
10 1 2.201691233128583 6.684611480248292 4.695519089755305 0 0 0
11 2 1.2736496647120696 7.100980420444592 4.827548057285057 0 0 0
12 2 2.7617570734023618 7.380084273089454 5.0607407574576895 0 0 0
25 1 4.840225990496933 6.5032785932100365 7.307520613382007 0 0 0
26 2 5.409233956517869 7.230085645813437 7.648766431391864 0 0 0
27 2 3.9403765081577915 6.644909134383352 7.672926279899663 0 0 0
28 1 6.031633552778039 6.481718158510838 2.354484765862178 0 0 0
29 2 5.682858233891891 6.184608422414559 3.235666286973037 0 0 0
30 2 5.386451213523897 7.229992118156223 2.180768382339917 0 0 0
31 1 1.513193939116884 1.0674839617328586 2.786036557265519 0 0 0
33 2 1.4137988810365503 1.4702314083679282 3.676479033337002 0 0 0
34 1 0.2562981529268213 1.0403463651272473 7.214727381806323 0 0 0
36 2 0.3602367294226386 1.7358948339371294 7.944067524035903 0 0 0
37 1 6.878586343033136 2.9358574385876044 2.6773980170330947 0 0 0
38 2 5.986538107759735 3.380271193096738 2.8906520005588363 0 0 0
39 2 7.591392330440478 3.548751414499586 3.014858941486334 0 0 0
40 1 3.8238859116816517 2.2545799534992774 7.343967070422002 0 0 0
41 2 4.708789123432734 2.514363701368542 7.08731871472058 0 0 0
42 2 3.2688133739795857 3.048422665669756 7.234113720490406 0 0 0
43 1 -0.32585965235394787 4.97518210893296 7.2778791085955135 0 0 0
44 2 -1.1501494025154568 4.368573437886645 7.2517878389507056 0 0 0
45 2 -0.443851169476816 5.433647703118838 8.108172589527046 0 0 0
46 1 2.1732144847605492 5.261112351955703 2.5014988037250707 0 0 0
47 2 1.2130105993409819 5.00327924339595 2.627819376113233 0 0 0
48 2 2.2357163566786333 6.002930680477644 3.173932452801238 0 0 0
49 1 6.415221847682536 3.4120091937645562 6.532728160290537 0 0 0
50 2 6.041602479445131 4.149231822201889 5.956982190166626 0 0 0
51 2 6.539939695954679 2.585489428415773 5.954772312788607 0 0 0
52 1 4.008357004745312 3.447456215706911 3.664438597215922 0 0 0
53 2 3.34945342142363 3.924259250563725 3.0467175831462607 0 0 0
54 2 3.8029498179246124 2.51628057505422 3.759348623373044 0 0 0
57 2 0.022828925737608613 3.5088616889485613 3.7276024280176054 0 0 0
58 1 2.038890988582058 4.315552569121235 6.796768895241158 0 0 0
59 2 2.189193613579727 4.9191312875362705 6.084818846280151 0 0 0
60 2 1.11839586453818 4.509194336668101 7.170239390416457 0 0 0
61 1 8.791509135670434 6.845041299027243 1.5582507041301112 0 0 0
62 2 7.90058276447771 6.6887025035446666 1.99854848254805 0 0 0
64 1 2.2681903038395 7.083679880207207 8.432179215821678 0 0 0
65 2 1.552324416198788 7.571974286796694 8.0001708374071 0 0 0
72 2 3.8387215422660717 1.2097512232595806 0.742123840282036 0 0 0
73 1 5.311215328494109 5.3115959753566155 4.972338379407367 0 0 0
74 2 5.105983557167314 5.859945748617676 5.761366806948467 0 0 0
75 2 4.5848164082254 4.738256780816069 4.695541014858191 0 0 0
76 1 0.6898594447639141 2.5241981423806625 5.021045231930703 0 0 0
77 2 0.46635440490698976 1.7723662903576265 5.685716280648452 0 0 0
78 2 1.197258914229601 3.103698218018184 5.608885829941107 0 0 0
91 1 8.43192953910236 6.409295762600069 5.04625016754185 0 0 0
92 2 8.565319294837105 5.620030038011876 4.454873835841007 0 0 0
93 2 9.38205551201357 6.687615068465234 5.143337727242967 0 0 0
116 2 10.235453833079402 1.760278482853789 2.0995511545119263 0 0 0
127 1 8.548458354407693 4.781793665793027 7.373146237722501 0 0 0
128 2 7.8025114317108 4.1404931746909615 7.166410847590526 0 0 0
129 2 8.434010050707853 5.409115834393627 6.613595233542604 0 0 0
139 1 8.936258735326154 4.238171580279934 3.4000147445279687 0 0 0
140 2 9.71778846695546 4.553459660698154 2.904772849800288 0 0 0
141 2 9.275469392711415 3.6056823143262187 4.056402038266131 0 0 0
169 1 7.0001684694622694 8.690973568124456 4.471052373471366 0 0 0
170 2 7.59020021594868 7.943616710182229 4.606662706882412 0 0 0
171 2 7.075315599423217 9.340126049072703 5.174224541156717 0 0 0
172 1 4.166162581403918 8.801241001511462 5.263481182427959 0 0 0
173 2 4.204975579533723 9.413178902593387 4.535891124859035 0 0 0
174 2 4.950481897694818 8.265284974011337 5.119225360793462 0 0 0
199 1 1.626778534782884 8.867331998745135 2.6459708595603275 0 0 0
200 2 1.4710586341436045 9.460846247806746 1.8133296323992678 0 0 0
201 2 0.9476957605060728 8.145700023923332 2.46498915059425 0 0 0
202 1 0.35115300531069726 8.874278876715891 7.606767050004959 0 0 0
203 2 -0.5718350225898423 8.515950157501454 7.6691638918952485 0 0 0
204 2 0.2939431035718137 9.26887506672165 6.71026592287765 0 0 0
205 1 6.512254804077651 10.602369883960364 2.3351693684366364 0 0 0
206 2 6.697052817151728 9.823790228871683 2.871630707818283 0 0 0
207 2 6.598774276110768 10.148891328529263 1.4827046237428811 0 0 0
208 1 4.512188465084326 10.22084871075213 7.503956436908699 0 0 0
238 1 4.119562353719035 8.270819247448092 1.6707060764327253 0 0 0
239 2 3.30295838251551 8.232448044005208 2.2636089242930186 0 0 0
240 2 4.032863494399253 9.139651758436264 1.2635190931551856 0 0 0
244 1 1.1255805942733668 9.620634701225462 5.054279785613078 0 0 0
245 2 1.438988668905163 9.288547143665136 4.153538881123047 0 0 0
283 1 10.764657860855628 8.553896740239743 2.430815827170513 0 0 0
285 2 10.080829002757216 7.858361012884811 2.2842916054486513 0 0 0
288 2 8.589723686167416 8.192046274567897 7.382921678583416 0 0 0
319 1 6.822147309811504 8.097455325702319 8.244363337280006 0 0 0
66 2 2.5571478498984375 7.670665165642875 9.13660972717147 0 0 0
21 2 0.9922594992888318 2.1142575772015757 1.364032022872794 0 0 0
192 2 0.16351015904658 9.923129558575807 8.8838128127172 0 0 0
320 2 6.724923319226346 8.842240163725684 8.859444139199727 0 0 0
115 1 10.43432234860257 0.976985485353716 2.738092788512513 0 0 0
118 1 9.091102768284767 0.9045310499380664 7.545970582226212 0 0 0
130 1 11.39505370505271 5.06971894585171 2.3775337945923427 0 0 0
160 1 9.786538370735395 2.415010602208729 5.04217682645484 0 0 0
162 2 10.336384773415341 1.9888688221544226 4.3561565854650395 0 0 0
284 2 10.6219878344622 8.817748753666653 3.3927232811262193 0 0 0
329 2 9.885767916202456 9.290402601178203 5.518032080294734 0 0 0
286 1 9.466057885241346 8.408812887341293 7.05719392301442 0 0 0
328 1 10.271228300608765 9.828791449644127 4.801470421150202 0 0 0
63 2 8.982219753675947 6.000611620941938 1.063782215495969 0 0 0
210 2 4.379061737391821 9.778835319416267 6.634332158179031 0 0 0
132 2 11.532505233076268 5.802988199240023 2.9770396638941996 0 0 0
94 1 11.134596502303124 6.39639320046121 4.9112801041959635 0 0 0
119 2 9.029173158982156 1.580334801473016 8.232783193690473 0 0 0
131 2 12.043748545924975 4.356981089000314 2.716195118966815 0 0 0
161 2 10.435556605150612 2.88022682326181 5.565950221782234 0 0 0
287 2 10.043099707879863 7.789248294636329 7.519908748706626 0 0 0
144 2 10.562120247180065 4.168157064070782 7.429239943238679 0 0 0
323 2 12.305885681376308 8.18380463840802 2.132940198080542 0 0 0
96 2 11.191594268059962 5.744990968408452 5.646781870531165 0 0 0
95 2 11.890187771940624 6.996509945568925 4.893774341923619 0 0 0
322 1 13.084028932233021 7.865513194916354 1.6187935857118496 0 0 0
120 2 9.277926446865273 1.1712081727929402 6.630574160306468 0 0 0
18 2 5.824640703789741 5.098812610001782 1.1959985340297887 0 0 0
153 2 6.450888018443184 1.0711605847014853 8.853393015037707 0 0 0
32 2 2.423043703204087 0.837681771867559 2.463548902830805 0 0 0
14 2 5.102567664533347 5.136067243413527 8.61645013448253 0 0 0
5 2 4.9151932480630425 0.9161296917440966 4.834340109507657 0 0 0
276 2 9.574376484836327 9.591761227264312 8.401026459112233 0 0 0
321 2 7.059911078832715 7.280727266890541 8.744687892073422 0 0 0
142 1 11.291392321136238 4.075201830585946 6.819337077245376 0 0 0
330 2 9.613495005861148 10.230635654210369 4.2085791525032334 0 0 0
80 2 6.718046279352487 1.9133185850479102 1.1207491820737776 0 0 0
324 2 12.698261836662065 7.269975459307103 0.9866208200216499 0 0 0
272 2 10.108416590796494 9.86228756928377 1.3426255987834879 0 0 0
246 2 1.7901426679146755 10.271092544833332 5.3770915076442805 0 0 0
155 2 13.105189212682493 1.2211609663633245 1.265694119639927 0 0 0
136 1 12.983449216959217 3.38235640057844 3.636426663708391 0 0 0
148 1 11.272047201339976 6.8354417812560095 8.274096680088928 0 0 0
585 2 3.733580381319764 1.6514791496647638 9.008757114164942 0 0 0
152 2 7.391124180885198 0.34713624202380094 7.836471811870548 0 0 0
35 2 -0.5970052245157901 0.5989014069183966 7.311179754205976 0 0 0
83 2 2.524601198878696 5.798114025100049 0.7503771190177528 0 0 0
149 2 11.152201904114545 5.973212770245787 8.685879707718797 0 0 0
143 2 11.895729694571791 3.479293334450376 7.305894303561796 0 0 0
89 2 12.859006557475157 2.0584423032743793 4.794815162744098 0 0 0
258 2 13.169012101796502 9.332945975330322 4.319491245893099 0 0 0
138 2 13.784543191948439 3.0728592093044744 3.1190136165743367 0 0 0
150 2 11.666911617733666 7.492932875137533 8.808371501623014 0 0 0
256 1 13.073725949108288 8.564624178539681 5.009948613333805 0 0 0
88 1 13.00471187218943 1.2390183339972325 5.385655469910276 0 0 0
293 2 12.932916077592097 11.077003385160465 7.104952586448095 0 0 0
137 2 13.371469985634477 4.052889481856384 4.250199215353124 0 0 0
113 2 14.37426418732308 6.865740450680832 2.2581051628289512 0 0 0
101 2 14.45847531406767 4.78511997545722 1.555004038545864 0 0 0
209 2 3.8292368091806277 10.891039270146598 7.348284750327199 0 0 0
9 2 -1.1453014280291343 7.067623900467216 4.864234933360352 0 0 0
306 2 14.101538408983693 10.718641541259371 3.0856404376982725 0 0 0
167 2 11.509884130823869 5.751212754291257 0.7726209012519571 0 0 0
235 1 -2.1212462739758045 7.919775627346656 8.37050067519069 0 0 0
219 2 6.7696834998066455 10.262441464190792 7.2133174742084964 0 0 0
55 1 -0.39903953278743587 4.217987948168821 3.1843531327350885 0 0 0
485 2 10.570882266116842 -0.03297302825387997 7.876065816630525 0 0 0
56 2 -0.5564724557142305 4.903769601085658 3.836051963877689 0 0 0
20 2 0.2545411514131317 3.225099644264547 0.38288549192591625 0 0 0
304 1 13.288084467290304 10.867161763019741 3.6068785455888834 0 0 0
16 1 6.001476369957065 4.591347254318969 0.35542413197102246 0 0 0
68 2 -2.289841148196603 1.0010700015559255 8.925504936197994 0 0 0
836 2 13.103282409778258 9.394185962966967 8.745897819867126 0 0 0
236 2 -2.394133296506125 8.745528320753737 8.896072272521275 0 0 0
126 2 13.288453447521235 1.977714650548722 6.747768204281864 0 0 0
111 2 12.748120700662701 6.548359017465226 7.66119047699604 0 0 0
294 2 13.214188680172683 9.733522407187982 6.49731542910323 0 0 0
90 2 13.99646580933682 1.0846760389934411 5.142235616851605 0 0 0
753 2 4.139606074159385 9.291642308259574 9.001075658203463 0 0 0
69 2 14.812317309701692 0.028697992059953634 7.901041721023237 0 0 0
117 2 9.706082893170205 0.3843796871298483 2.5380619584064408 0 0 0
255 2 15.858765775394687 9.142550240995561 3.891209510780319 0 0 0
15 2 4.007432257109637 4.602186134818354 9.510131579057784 0 0 0
301 1 16.058575119179473 10.828818999691057 6.262205198772965 0 0 0
778 1 12.893084473263574 10.217556137656029 0.2688272783867099 0 0 1
248 2 7.635323714478133 8.328576829345863 0.8089460564723924 0 0 0
85 1 15.651708339132185 1.3053323081746737 4.925395930387224 0 0 0
159 2 13.9642784609881 5.857115255477609 5.743199336255533 0 0 0
612 2 11.967961971442655 2.8386882534157962 0.5112637904487166 0 0 0
670 1 7.731090716616907 5.950395225752548 9.652097471505352 0 0 0
217 1 7.181087309447444 10.61664785030113 6.384106294210258 0 0 0
104 2 9.540152790931458 3.6229851429477806 0.35900853989751286 0 0 1
121 1 15.350180184554539 2.524581396815735 2.5111390908223963 0 0 0
112 1 14.982626351455073 6.239824590247542 2.7404505542117548 0 0 0
109 1 13.776210868304142 6.431701280006035 7.459704472521432 0 0 0
257 2 14.01805532369294 8.308562390048543 4.984509567477727 0 0 0
124 1 13.335142020449386 2.4639857174407904 7.625153846324529 0 0 0
292 1 13.454379258685512 10.290960904728859 7.2818184418507235 0 0 0
668 2 12.883539416699605 1.6275908762372642 9.037567142793733 0 0 0
123 2 15.438004505329586 2.1334475722132553 1.6000479208453469 0 0 0
291 2 15.977636047998189 9.344996443622719 1.723165855058951 0 0 0
289 1 15.742293759955464 9.951913007204404 2.494870982769114 0 0 0
158 2 14.409057005728688 5.843520673913375 4.185368956673656 0 0 0
157 1 14.296616748607788 5.280014424319828 5.015878238613376 0 0 0
671 2 8.049179862062223 5.461317040146885 8.824132737469343 0 0 0
187 1 1.3291979647296026 10.255532717218914 0.40864582173311514 0 0 0
220 1 4.224889471498646 10.852666991172327 3.4878974706006507 0 0 0
271 1 10.04005117189795 10.365795923790545 0.4740900118897314 0 0 0
602 2 15.986876883798052 4.83595166324653 0.32349574250980423 0 0 0
221 2 4.931447904454022 10.950914611525578 2.8091866611047904 0 0 0
70 1 3.7303608183226933 0.4601704208513129 1.3708007708443617 0 0 0
103 1 10.096553795546173 2.914330342374906 0.787906374868969 0 0 0
253 1 15.734162018620975 8.664899478076219 4.762025836679268 0 0 0
156 2 12.294444214975057 0.3673657985660975 2.423879878020015 0 0 0
99 2 12.990422240414693 4.181540588292075 9.565071428889214 0 0 0
151 1 6.489594291764466 0.3205784994454716 8.20022133191686 0 0 0
163 1 15.636232826788767 1.3576502509681232 0.3218424775559977 0 0 0
154 1 13.04388831085369 0.35491267093911455 1.7418368046254522 0 0 0
2 2 7.2970501711522795 0.6793089592701558 4.91882447737753 0 0 0
114 2 15.91492470257252 6.478032981738701 2.6201310969012854 0 0 0
87 2 15.719909659601035 1.5132128385372983 3.891611471359207 0 0 0
125 2 14.18675445540102 2.92401226347908 7.50050055880989 0 0 0
110 2 13.897489667513396 5.565212533398296 7.99305740771476 0 0 0
528 2 2.9249625160773536 3.0524386204803804 0.24218518546664008 0 0 0
134 2 15.332237771316876 4.1298827398446445 5.940820852760399 0 0 0
165 2 16.356001936589553 0.7030883923535812 0.47170227098495165 0 0 0
237 2 14.936359530937894 7.5092129701816 7.996500488822411 0 0 0
106 1 8.927617056223903 2.5582716237467964 9.694147520345405 0 0 0
302 2 15.357693456386844 10.67487861944877 6.90595390542795 0 0 0
147 2 17.42552900781868 7.855459826151334 0.9104958950612125 0 0 0
224 2 0.17479989808222535 10.834714636131864 4.1019813997783094 0 0 0
67 1 -2.153531378653448 0.22307121809879688 8.31319233098487 0 0 0
587 2 -1.3396685268800197 6.83677603485613 9.345145611166817 0 0 0
17 2 5.221193037173154 3.9671717010062695 0.2957165818125923 0 0 0
780 2 13.164338623029632 9.506629633516999 0.8688446277487839 0 0 0
290 2 16.444441060190506 10.622331839199427 2.5656985239366548 0 0 0
122 2 15.98938859456368 3.2567565495683866 2.5494032365649666 0 0 0
135 2 15.92163661322255 2.773851242805045 5.8404285378420635 0 0 0
584 2 2.929681042107986 0.41855493733148486 9.580024671723445 0 0 0
145 1 -0.14934537891981386 7.233472340474973 1.580008086828865 1 0 0
102 2 13.85837664005984 3.989439858388072 0.27939788167027896 0 0 0
133 1 15.625468780214131 3.4428557258260306 6.500450727564192 0 0 0
13 1 4.961368469053914 4.763269707684517 9.466916513537385 0 0 0
146 2 17.667520401344927 6.340102438463124 1.1521183774681774 0 0 0
79 1 6.97856522287999 1.31783450042196 0.37854544941091844 0 0 1
22 1 0.707337237182285 2.6112272716504936 9.515100205539632 0 0 0
97 1 13.904230221184514 4.477240001134714 9.549227967220858 0 0 0
254 2 15.665381715353107 9.431504505017339 5.3823679502894 0 0 0
274 1 9.408527826879752 10.03062555523929 9.274395208640874 0 0 0
521 2 2.048876661729474 5.451844462120187 9.206103819805628 0 0 0
486 2 11.556130771199275 0.048887579187617526 9.070321957721541 0 0 0
399 2 7.7173051844504945 0.24701550271973768 1.3328864708367265 0 0 0
520 1 2.3512886934120876 4.646440831364163 9.643475617925 0 0 0
86 2 15.974619957610694 0.3604856052129166 4.946371398326836 0 0 0
100 1 14.30782803029978 4.823828335778818 0.5666328043925103 0 0 0
247 1 6.9701542948363695 8.812239746279095 0.2942106730488948 0 0 0
19 1 0.8861248727728853 2.4934533156327325 0.4476195628685419 0 0 0
610 1 12.839515691792311 2.505186963745112 0.24793958838078428 0 0 1
835 1 12.92517587897412 8.739581519039609 9.37761097789268 0 0 0
273 2 10.875310692459868 10.762903326951507 0.4605910942589321 0 0 1
586 1 -0.7190156302406205 6.161398249108934 9.717393005350068 0 0 0
749 2 -1.912824457611316 10.383354883479724 14.789869734898302 0 0 0
593 2 8.928847223172971 0.199974601497858 14.735890792090215 0 0 0
654 2 7.400965112088452 5.996302602104655 18.235203979949585 0 0 0
82 1 -4.026474924682568 6.0672626733659 18.91656022924718 0 0 0
740 2 -5.4718614244461525 7.163291555071151 18.37757040994428 0 0 0
537 2 -1.0948767162898858 0.7740294825830246 12.132630907674988 0 0 0
105 2 3.2694486806722076 1.9915773568782593 19.126182757470318 0 0 0
751 1 3.9805433311805585 8.774068579515403 9.77120237359029 0 0 0
509 2 0.08760732603603527 0.3193915720177102 14.688820015998143 0 0 0
906 2 -1.8644142628856586 -0.1396401450871143 17.366774998866966 0 0 0
603 2 10.39067116526246 4.839036923118818 18.2763251209328 0 0 0
524 2 -2.7170069903453835 3.293349091377459 9.905805133057282 0 0 0
332 2 9.806937320299832 8.958554899618496 18.302505212463732 0 0 0
990 2 6.924997230069901 0.09384437537316559 17.20660578444216 0 1 0
526 1 -2.799709281979862 2.7811011802774015 19.02635223743424 0 0 0
507 2 3.6894928407825853 0.3091155525573365 14.320765482900509 0 0 0
84 2 -3.3658996126958325 6.734022095892322 19.077889136073313 0 0 -1
711 2 2.448090992068136 10.349658640176544 11.937300397149107 0 0 0
505 1 3.1148953939205133 1.0703854353483397 14.21769922671199 0 0 0
506 2 3.3308744644454342 1.7555908949121815 14.926388201350983 0 0 0
621 2 7.456894395225282 0.7251414917342863 11.950061070216726 0 0 0
508 1 0.42172157761254236 1.220344386374719 14.82906454709398 0 0 0
809 2 10.30401930135084 10.380899974397304 12.207415082254773 0 0 0
527 2 -2.8206092882233 2.4304577590656136 18.104553584793866 0 0 0
511 1 -3.8320222897671243 6.298408615463286 14.488224983496222 0 0 0
512 2 -4.15237220245892 5.558026079747263 13.908132123127485 0 0 0
513 2 -3.844297203851159 5.85775924469446 15.429532135958139 0 0 0
514 1 -1.1028450578763147 6.342455733187176 14.221824531541563 0 0 0
515 2 -0.7477647487380538 5.613304322842998 14.830696236860593 0 0 0
516 2 -2.026988496566285 6.515998873025732 14.512125891252717 0 0 0
655 1 3.586254712944691 0.3709285763707246 17.95704512454264 0 0 0
519 2 2.1154832280610063 5.2174328712573095 18.04966701234665 0 0 0
828 2 8.634025759287177 8.065918559654964 11.628663910722942 0 0 0
522 2 2.4102120583879425 4.970516245884905 10.57980049905868 0 0 0
107 2 9.133067930210453 1.7968715150797006 10.226488250574313 0 0 0
166 1 5.101493534699262 6.057861725945053 19.058643794904512 0 0 0
333 2 8.802033826412291 7.9367739601514575 18.885086998057115 0 0 0
798 2 9.831564423808485 9.156914483876998 16.010428056363207 0 0 0
572 2 -5.797641267107287 0.8163143618077207 18.504625900854773 0 0 0
529 1 1.4657610886181391 6.238938792004293 16.827096748027753 0 0 0
530 2 1.5162231027961433 5.920257815588972 15.94075244242438 0 0 0
531 2 0.599580624331712 6.590119461627781 17.02835319361081 0 0 0
532 1 2.5052505829577374 6.0338357415597175 11.983105283336185 0 0 0
533 2 3.4099783142766484 6.4514486933340445 12.077600908422465 0 0 0
534 2 2.4318289560293778 5.629835243556441 12.881497167861989 0 0 0
535 1 -1.9377275763609458 1.0898683817302803 12.441521001111582 0 0 0
525 2 -2.113920268319996 2.238871246176799 10.90199182219063 0 0 0
249 2 0.576923246519322 9.018506718308483 18.52938312661902 0 0 0
538 1 -3.069024604105207 0.9706475313717999 16.905687981770548 0 0 0
609 2 6.366739811343248 2.1926390718742637 10.97318070687614 0 0 0
540 2 -3.017013088742739 1.5106576081471172 16.06190032551525 0 0 0
541 1 2.7649549388030445 2.7181881834010784 12.00124474407329 0 0 0
542 2 2.903911657661471 2.0204140767744994 12.700176121400562 0 0 0
543 2 2.953388870113852 2.2183550675149513 11.147028319842576 0 0 0
544 1 0.7934616251211268 2.517517774029205 17.220662863945343 0 0 0
545 2 0.7261287898828596 2.1045056353305833 18.114154338602532 0 0 0
546 2 0.4458553390003234 1.9019474177914328 16.51686784069631 0 0 0
547 1 -3.5387000067884378 4.828290147037493 16.72907587187453 0 0 0
548 2 -4.141475996921279 4.137608125513314 16.49375636698256 0 0 0
549 2 -3.6617349630175924 5.066384527828398 17.683035908695143 0 0 0
550 1 -1.6377986403747307 4.835277425518527 12.015283719950162 0 0 0
551 2 -0.9183567490668924 4.189277176176425 12.149617978090136 0 0 0
552 2 -1.4750957419581647 5.4033849894213954 12.79744231759396 0 0 0
553 1 3.14531615342562 3.0255661294501857 15.951146815283908 0 0 0
554 2 2.5712984627824524 2.9147390434912674 16.672618883340355 0 0 0
555 2 3.9571887828931938 3.465805061559974 16.354345639779755 0 0 0
556 1 0.42290413979053404 3.333785691233 12.976023739649667 0 0 0
557 2 1.1155859849330136 2.9911649325677425 12.418667491576883 0 0 0
558 2 0.21206036627098096 2.665993445898443 13.696157004173745 0 0 0
559 1 13.59332691131766 4.005382746334316 12.966276109434842 -1 0 0
560 2 -3.441896476913054 4.2500715373992115 12.416535234119705 0 0 0
561 2 -3.796478867798413 3.353511429497178 13.56154705524628 0 0 0
562 1 -0.9800115824017442 4.098894057649278 15.895626336078958 0 0 0
563 2 -0.31511627807124143 3.798353220748554 16.573172599877516 0 0 0
564 2 -1.7501134424172964 4.49064962726003 16.425240380330862 0 0 0
565 1 5.030373495619125 6.913492238107825 11.529097635833898 0 0 0
743 2 0.12649212456491277 7.290494342673005 10.469702872840315 0 0 0
517 1 2.05022239527825 4.706047272366485 18.912721107866027 0 0 0
568 1 -1.2299527506622048 6.781837274858144 18.034803160000056 0 0 0
539 2 -4.021695919576313 0.7785364765364625 17.0890726684651 0 0 0
168 2 4.381053840418014 6.633959618880884 18.693378897149028 0 0 0
779 2 6.24542918445127 9.571787155312547 18.44211169572655 0 0 0
810 2 8.883289926951871 10.883480847635976 12.499592132750134 0 0 0
827 2 10.139945620459342 7.296326488917208 11.215593691265923 0 0 0
570 2 -0.9121860740043727 7.525920983814222 18.6169029812315 0 0 0
576 2 0.7080597713825805 1.1321033134754221 10.642643784302427 0 0 0
577 1 2.0915937806074574 5.093892854980439 14.412571558508485 0 0 0
578 2 1.362851095454649 4.509106328455344 14.065313920935434 0 0 0
579 2 2.658544839870336 4.520989792819835 14.879777585456162 0 0 0
580 1 -2.5925102596990794 2.420275841493924 14.560132167331892 0 0 0
581 2 -2.1716533447283735 1.8691708802482991 13.802323418634282 0 0 0
582 2 -1.8325450487313777 2.956159809739497 15.021843987933927 0 0 0
571 1 -5.514817298293833 0.15455617179306588 17.869336195762354 0 0 0
510 2 1.3797634026354713 1.0549492907942308 14.738321708833325 0 0 0
589 1 12.329326796702256 0.7911926313317141 14.149141680550544 0 0 0
536 2 -2.6286635218705836 0.4340559060896531 12.26027204773774 0 0 0
591 2 12.696670009778286 1.592636415055319 14.605244108221413 0 0 0
592 1 9.538424772992995 0.9350845162494373 14.896090560667288 0 0 0
826 1 9.310356572698554 7.750089965299388 10.913835192691206 0 0 0
594 2 9.502825761243864 1.6331823460730148 14.216447330092821 0 0 0
595 1 5.047005653566712 6.16413417789315 14.94551169424522 0 0 0
596 2 5.081510911062367 5.751126852529292 15.806327562780899 0 0 0
597 2 4.876271039504747 5.479347386561647 14.262890469084017 0 0 0
598 1 7.825864055664443 6.290771559968686 14.41152909201884 0 0 0
599 2 6.91530782517319 6.52355737056417 14.533519389390358 0 0 0
600 2 7.812904513944418 5.839577899635305 13.552084237062036 0 0 0
692 2 -3.020729225503915 10.828066357017455 9.881146999280139 0 0 0
797 2 10.923337613309116 9.961242566087623 16.770837516155137 0 0 0
834 2 5.805388380128724 10.108461773035852 14.021968352955504 0 0 0
605 2 11.077049201114411 4.782698697926079 10.71452377916772 0 0 0
832 1 6.547212001379556 9.691580305968852 14.47699232694487 0 0 0
620 2 5.966761697560403 0.12254498028125202 12.015407056787302 0 0 0
825 2 3.164412897648024 8.60832616211394 18.399525983299192 0 0 0
608 2 5.897388764742943 3.3104690096236813 9.952125546315616 0 0 0
566 2 5.1918284627620634 6.088189362827205 11.010427916491304 0 0 0
611 2 5.894999170962422 1.8920457424050705 18.436180711831906 0 0 0
613 1 10.277660274486454 6.181434589132134 16.725301568986815 0 0 0
614 2 10.876882143861247 6.909201904360138 16.967287983764464 0 0 0
615 2 9.391040530668652 6.505548786154127 17.01926467913878 0 0 0
616 1 11.528648255395742 6.208037737724222 11.935526228656812 0 0 0
617 2 11.388759100163385 5.824040442277883 12.833227635983478 0 0 0
618 2 12.492259682404352 6.472032432549032 11.879011433755771 0 0 0
619 1 6.543355879382555 0.8740745841880047 12.303318913696614 0 0 0
694 1 -2.697974448334888 10.131094047859422 19.060089650161355 0 0 0
656 2 2.61531965782842 0.1614945483052496 17.69335576230748 0 1 0
622 1 5.675707351143368 0.8973150169934792 16.556491880249798 0 0 0
604 1 10.90345344911294 4.392626120400905 9.86270871437067 0 0 0
624 2 5.666501168060364 1.5261274517582122 15.842620857591225 0 0 0
625 1 11.643599240301501 2.5493642074399863 12.089728517284245 0 0 0
626 2 11.954626154826052 1.8099364448314907 12.628027757921924 0 0 0
627 2 12.403605962271325 3.1265183034007062 12.28212912529533 0 0 0
628 1 10.10345161294128 2.3419997363087504 16.920068818101278 0 0 0
629 2 9.618462412945481 2.0331857893288783 17.72822539388435 0 0 0
630 2 9.77387044088962 1.7432405561259494 16.213497330983525 0 0 0
631 1 5.182944591950493 4.338221038880435 16.948138072509142 0 0 0
632 2 5.155963519871054 4.7031570173257675 17.86393790753547 0 0 0
633 2 6.068125734899865 4.041323608962328 16.697546149902355 0 0 0
634 1 7.3550332337135815 4.712930355695354 12.126589334700467 0 0 0
635 2 6.380543646537591 4.500256146734067 12.201339943897404 0 0 0
636 2 7.548233550014247 4.96705121589102 11.146923888586215 0 0 0
637 1 12.54120522422417 2.982219667054555 15.809262232503613 0 0 0
638 2 12.02659837647031 3.656520814917478 15.39339608933284 0 0 0
639 2 11.878596549769329 2.5054234455176916 16.343902710842052 0 0 0
640 1 9.227970945502578 2.978294798083329 13.108491439212216 0 0 0
641 2 8.649639786579675 3.6580441027170663 12.68108575565694 0 0 0
642 2 10.027435432977471 2.806146763706409 12.6150904708085 0 0 0
643 1 4.822352399794071 4.276751819999953 12.997073265827678 0 0 0
644 2 3.8970064821864816 3.894634328658672 12.714354476618952 0 0 0
645 2 5.118832982082246 3.5104334810938953 13.583890924471998 0 0 0
646 1 7.836951134011363 4.0081919740020195 16.200171387306472 0 0 0
647 2 8.642647799977686 3.5725743464776256 16.46596733430473 0 0 0
648 2 8.147710215541121 4.753257845946442 15.592535071175725 0 0 0
649 1 14.171041321868856 6.7603756786227285 10.967675007586301 0 0 0
650 2 13.924381493843198 7.499755896096955 10.434751604786047 0 0 0
651 2 -2.8822921436859885 6.846535463594817 11.518764877313837 0 0 0
652 1 7.774400672011771 6.735721578621233 17.709047897919017 0 0 0
653 2 7.127983118257046 7.420133984381327 17.49651808881471 0 0 0
837 2 12.533995780150427 9.14826000048765 10.22711293374538 0 0 0
188 2 -5.775155306095693 9.372898697179794 18.92514831334322 0 0 0
601 1 10.322189411995836 4.600961240482989 19.226581011778265 0 0 0
661 1 10.896579654549644 4.758291132586922 14.650770678607591 0 0 0
662 2 10.595596392070764 5.494437446251925 15.237083110569738 0 0 0
663 2 10.114423281136864 4.2425700262026185 14.313843697693246 0 0 0
664 1 6.125917983935505 2.5469875090300422 14.553386857223666 0 0 0
665 2 6.9724552302305085 2.9705922445627886 14.733341723511002 0 0 0
666 2 6.26469071855775 1.9264348591737566 13.838848181801426 0 0 0
669 2 12.068629814634045 1.5867499628749075 10.472525065655944 0 0 0
796 1 10.000301981324903 9.674481156805777 16.829844945893075 0 0 0
777 2 6.026435228926777 10.687420763644226 9.914270904018789 0 0 0
673 1 3.3342232459873147 8.697475395905725 14.511927401380463 0 0 0
674 2 3.9309678019244956 7.9223038881928725 14.635927289251422 0 0 0
675 2 3.4977727293766523 9.22327524635002 15.349273402221343 0 0 0
676 1 0.7261233409925263 8.653011524129981 14.722301098961255 0 0 0
677 2 1.57946855686186 8.329103358435518 14.416839810864495 0 0 0
678 2 0.03548477073838005 7.987005286258036 14.37807529554895 0 0 0
623 2 4.732614991041233 0.6102813591323593 16.81891701468855 0 0 0
164 2 8.399793258925328 0.6578299151524388 18.797705842644437 0 0 0
98 2 14.022860839412202 5.244692066111423 10.128839965851663 0 0 0
807 2 12.685554091818963 9.874761477491072 15.378669549582602 0 0 0
695 2 -2.7166204671398697 9.628560845804255 18.280148882743642 0 0 0
607 1 6.367483611915922 2.4744932268415134 10.065040282918467 0 0 0
703 1 -1.698585385948963 8.460211538951372 12.248307420434408 0 0 0
704 2 -2.036445664661775 8.984416719133481 11.500290241524066 0 0 0
705 2 -0.8145998897497443 8.140734889704433 12.01100506304623 0 0 0
706 1 -3.1887128832687845 8.440723768945299 16.825060511715094 0 0 0
707 2 -2.9541343535328974 8.884178278799535 15.939917237733235 0 0 0
708 2 -2.5416901069208166 7.7918684611067155 17.11960697200248 0 0 0
709 1 3.389960738626439 10.126186306282348 12.099993246615021 0 0 0
710 2 3.451637917349789 9.536019709916227 12.861994217552589 0 0 0
795 2 12.30958816562287 8.893828042372427 12.533646995479092 0 0 0
712 1 0.783281169276978 9.989339110487302 17.027269869844424 0 0 0
713 2 0.6768031130711694 9.296616207330468 16.328766327459228 0 0 0
721 1 3.4331363032292073 10.64880907320027 16.30568180577209 0 0 0