LAMMPS data file via write_data, version 15 Apr 2020, timestep = 3301000

576 atoms
2 atom types

5.7898130154203642e-01 1.7341019698446285e+01 xlo xhi
3.7398030154216144e-01 1.7136018698446410e+01 ylo yhi
7.2398130154215323e-01 1.7486019698446245e+01 zlo zhi

Masses

1 16
2 2

Atoms # atomic

111 2 2.7055867221928307e+00 2.3568135478020773e+00 4.4578659179084923e+00 -3 0 -2
109 1 2.4943247819184253e+00 3.1938328840906380e+00 3.9930369179971259e+00 -3 0 -2
94 1 2.1833623005664400e+00 1.1267350826630955e+00 1.2346762507664968e+00 2 2 -6
513 2 3.6729685898863083e+00 1.5592608893717685e+00 2.4229365854973004e+00 1 1 -2
393 2 4.5822866854669622e+00 4.1206422497879291e+00 1.4836381039899735e+00 -1 -3 0
110 2 3.3091990954349573e+00 3.2236871687873760e+00 3.4301981395031294e+00 -3 0 -2
511 1 4.5828563129186506e+00 1.4465406999351822e+00 2.7054370425388359e+00 1 1 -2
25 1 8.5229918777938818e-01 4.0798861722912010e+00 2.0914435041270729e+00 1 -3 0
27 2 1.5657478151753166e+00 3.9120912770120508e+00 2.7521126587951805e+00 1 -3 0
122 2 1.2790371543064398e+00 6.6388510388462008e-01 2.9076218347516480e+00 1 4 2
512 2 5.1203388786095267e+00 1.4517840823011743e+00 1.9141627944045285e+00 1 1 -2
197 2 8.3014858815067267e+00 3.7906900034880331e+00 2.0947900781567808e+00 0 1 -1
399 2 5.2598511287768517e+00 2.8234340574565757e+00 3.9017296120666525e+00 2 1 -1
398 2 6.4402248011444012e+00 3.3930154496898792e+00 4.6084118325340064e+00 2 1 -1
397 1 5.5034575106325345e+00 3.1224287101575530e+00 4.7619365150301558e+00 2 1 -1
196 1 8.8414000405208757e+00 3.2017076698391604e+00 1.4725674437260445e+00 0 1 -1
198 2 8.8890619831326916e+00 2.3237779746062674e+00 1.9494749397150857e+00 0 1 -1
391 1 4.1144360762059069e+00 4.7207630299832450e+00 2.0761210160447519e+00 -1 -3 0
373 1 1.9011968408176809e+00 7.3679379764506896e+00 3.4728332232905057e+00 2 0 2
374 2 2.7552453217741748e+00 7.0232961785659720e+00 3.2019115143518757e+00 2 0 2
254 2 4.2914130509030723e+00 7.4414165603128923e+00 7.8932878861406119e-01 -1 -1 -1
253 1 3.3690737756943081e+00 7.4929130529836332e+00 1.1538814861834739e+00 -1 -1 -1
392 2 3.5902965761015708e+00 5.2621198796145769e+00 1.3961961562075236e+00 -1 -3 0
161 2 7.5818633442798422e-01 7.0893254473946739e+00 2.4731027928447640e+00 3 1 4
375 2 1.9584860312374421e+00 8.3937135957052469e+00 3.2877964680966150e+00 2 0 2
414 2 8.8206500516920485e+00 7.1965516611533191e+00 8.4577698244834110e-01 1 -1 2
459 2 5.1657266979852290e+00 6.9500791855073514e+00 4.1130784176593673e+00 5 2 -3
458 2 5.0037153051286394e+00 5.9347416167585649e+00 2.8523219142220544e+00 5 2 -3
457 1 5.6225881573218048e+00 6.5302212707843230e+00 3.3655740900384452e+00 5 2 -3
47 2 6.8271333348121779e+00 5.3529080298066605e+00 4.2102555133295105e+00 0 0 2
185 2 6.9472822648867218e+00 5.9661318071501697e+00 1.3258710099585342e+00 1 1 0
184 1 7.8434349077081720e+00 5.6915065921287429e+00 1.4400566118566389e+00 1 1 0
353 2 7.0241474349767561e+00 7.9251761021786393e+00 3.3890359998192805e+00 -1 1 2
186 2 7.9420919106580765e+00 5.8278513607233089e+00 2.3699597142120998e+00 1 1 0
46 1 7.7185456081724668e+00 5.0048109597613033e+00 4.2472523432138276e+00 0 0 2
68 2 6.3108482825274770e+00 8.7341470670339696e+00 8.0263278310382558e-01 -1 0 0
394 1 2.9218600379285147e+00 1.1841620598118472e+00 5.4167209183556677e+00 2 1 0
396 2 3.7326404375001103e+00 1.1786181482688813e+00 5.8875716017410520e+00 2 1 0
24 2 2.1762765000484006e+00 2.6124480826886707e+00 7.0221042294537179e+00 2 -2 0
517 1 4.4976709703565634e+00 2.9815512689598740e+00 8.2453556949636990e+00 0 -3 -3
23 2 1.9542860396262067e+00 3.2695168340950276e+00 8.4088148348351730e+00 2 -2 0
548 2 3.1591594260736611e+00 4.3420761438254409e+00 5.3699285169213082e+00 2 5 0
102 2 2.6630438416808677e+00 1.0434271816386689e+00 8.6176765545566880e+00 2 0 3
22 1 1.7847439893842079e+00 2.4232445481795661e+00 7.9278355208936517e+00 2 -2 0
518 2 4.4020344353878347e+00 3.6409377535643772e+00 7.4830400356285329e+00 0 -3 -3
395 2 2.2601494079487452e+00 6.3110317168449381e-01 5.9289757210331704e+00 2 1 0
243 2 8.5761474935378832e+00 2.3458503627493723e+00 5.8597085064373395e+00 -2 3 -2
361 1 6.0196791371163174e+00 6.4181577138224655e-01 7.1612539960069643e+00 -5 -2 0
519 2 5.0631306534002407e+00 3.3755985705702667e+00 8.9910268275153307e+00 0 -3 -3
363 2 5.3135048512396086e+00 1.2155746716532043e+00 7.4479167620637057e+00 -5 -2 0
155 2 6.8886375706418166e+00 4.3083955451417664e+00 7.1925160105921311e+00 -2 0 1
288 2 6.9710248205597765e+00 2.0291537083771929e+00 7.0483502917052725e+00 2 -1 -2
286 1 7.6295477498430451e+00 2.7874858046177780e+00 7.1996087414580421e+00 2 -1 -2
287 2 8.1357756830895624e+00 2.3919001411542293e+00 7.9638636648376320e+00 2 -1 -2
131 2 6.7846447035913204e-01 6.4385587944489293e+00 6.2597864318812784e+00 3 -1 -5
132 2 1.5039117296750171e+00 7.1474128777685335e+00 5.0986418521885701e+00 3 -1 -5
89 2 2.1019882398471799e+00 7.3785564298824369e+00 7.6433108152733542e+00 -2 -1 1
549 2 2.4803466504984533e+00 5.3815086144973527e+00 6.1355999804572248e+00 2 5 0
88 1 2.3600589113140846e+00 7.1819205182032171e+00 8.6019244658820746e+00 -2 -1 1
547 1 3.2417184821538969e+00 4.8033304581601692e+00 6.1948914741078038e+00 2 5 0
224 2 4.1754482436227267e+00 6.5397849811924571e+00 8.5566119870352537e+00 0 3 -1
130 1 1.4095365978588947e+00 7.0266046007837391e+00 6.0954052849256826e+00 3 -1 -5
378 2 4.2040895305265256e+00 7.9238243408283520e+00 6.1780306516336898e+00 -2 -2 3
376 1 4.7531525676456665e+00 7.2275554976855743e+00 5.8284221938996934e+00 -2 -2 3
377 2 4.2699834564330983e+00 6.3568596953414342e+00 5.9521831881148639e+00 -2 -2 3
44 2 7.3910467094951651e+00 6.8155214538037949e+00 8.7748518289878596e+00 3 -3 0
425 2 6.4477633792055729e+00 8.6323822357710824e+00 8.3452069425208322e+00 3 -2 3
223 1 5.0523821476968891e+00 6.2839142231096545e+00 8.9376003918087008e+00 0 3 -1
48 2 8.1374128211885797e+00 5.4805408579954742e+00 4.9827549865673202e+00 0 0 2
225 2 5.5533899137583331e+00 5.8891787659364319e+00 8.1077117555355240e+00 0 3 -1
154 1 6.6862123449338355e+00 5.2604174108271327e+00 7.1378638158088021e+00 -2 0 1
156 2 7.5287751224274730e+00 5.6867041438676500e+00 6.8818643288593044e+00 -2 0 1
426 2 6.0782861727003414e+00 7.7361942693621595e+00 7.0738321841384151e+00 3 -2 3
424 1 6.8279300288952980e+00 8.2222668662119265e+00 7.5284804643237164e+00 3 -2 3
192 2 3.1878101378503283e+00 4.4487919948650634e-01 1.1711722607508280e+01 2 1 -2
307 1 4.4707206599088600e+00 1.2775292936542886e+00 1.0912113544142413e+01 3 -2 0
309 2 4.7481687366741498e+00 2.2194943236523841e+00 1.0797376178178272e+01 3 -2 0
441 2 2.5525628880087563e+00 2.7441417666431307e+00 1.1771576452578289e+01 1 1 3
440 2 1.1389280156492778e+00 2.6998111667803566e+00 1.2420936294593288e+01 1 1 3
439 1 2.1260981306551225e+00 2.8958039950002408e+00 1.2604407578784604e+01 1 1 3
231 2 4.6799555205525785e+00 3.8950298211736447e+00 1.2333876921388526e+01 2 0 0
308 2 5.2942413593604636e+00 8.5134979138470557e-01 1.1284762798652483e+01 3 -2 0
463 1 8.6971062498805889e+00 2.5350491099971326e+00 9.5953470906907885e+00 1 2 2
488 2 7.1117419728321210e+00 3.1180840361062554e+00 1.0061470569186660e+01 -2 -2 -2
489 2 6.4404372823578981e+00 4.2227683762105812e+00 1.0969520666668300e+01 -2 -2 -2
487 1 6.2567787195873015e+00 3.4173996800909170e+00 1.0421326926729481e+01 -2 -2 -2
477 2 8.3490025915357933e+00 2.1300826370328618e+00 1.2791336441675222e+01 4 1 -3
229 1 5.3171906227172672e+00 3.5806806151588879e+00 1.3041436392578714e+01 2 0 0
476 2 6.9304036127509159e+00 2.6866985658921712e+00 1.3114102598548095e+01 4 1 -3
90 2 2.5142242646934982e+00 7.9238927730829163e+00 9.2043615380240276e+00 -2 -1 1
447 2 1.3685558819247043e+00 5.7636348711745846e+00 1.3242195294960618e+01 3 1 3
524 2 2.5365813488107740e+00 4.6774868468680575e+00 9.8436109416118018e+00 0 4 1
525 2 1.7717613425962098e+00 5.7390971951139607e+00 9.1283615196206025e+00 0 4 1
337 1 2.7371862891654821e+00 7.0298838234597776e+00 1.2034829873512454e+01 2 1 1
542 2 3.3917098082795327e+00 5.5930697857705498e+00 1.1479546021204458e+01 -2 1 1
541 1 3.8221200476689510e+00 4.8744222801769004e+00 1.1079757622143516e+01 -2 1 1
543 2 4.4258799715747079e+00 5.3127849697267466e+00 1.0467109005917740e+01 -2 1 1
338 2 2.7054162502927035e+00 7.4881927655118448e+00 1.2896218484188621e+01 2 1 1
339 2 1.8719676572504429e+00 7.1655021187809824e+00 1.1551992795097854e+01 2 1 1
523 1 1.6320474658257713e+00 4.7757772393358078e+00 9.4510121871843573e+00 0 4 1
266 2 4.5923997858363919e+00 7.5905510259987805e+00 1.1734068212147616e+01 -3 1 2
45 2 8.4319267585257744e+00 7.5671530401524993e+00 9.7054317883805048e+00 3 -3 0
470 2 7.3828226709662914e+00 5.2568161497895423e+00 1.2190244301026354e+01 -3 1 1
471 2 7.2701125313054664e+00 5.9568213138619894e+00 1.0767779884419522e+01 -3 1 1
469 1 6.7443509939044386e+00 5.5844966826844802e+00 1.1570617855148953e+01 -3 1 1
267 2 5.9737644811448369e+00 7.1012420869613040e+00 1.1866704186639462e+01 -3 1 2
265 1 5.4661790936544570e+00 7.9714042008533310e+00 1.1799939594307643e+01 -3 1 2
43 1 8.1116257466618009e+00 6.6899446777869409e+00 9.4425607390845574e+00 3 -3 0
96 2 2.3044512670134303e+00 1.7441134207566804e+00 1.7267421136168686e+01 2 2 -7
36 2 1.7160940711547470e+00 4.1313107600324193e+00 1.6820503678141790e+01 2 2 -2
446 2 1.1333475715537522e+00 4.4669049929406093e+00 1.3904202613137752e+01 3 1 3
292 1 1.8970009298614772e+00 1.3502320925884215e+00 1.4675659064929834e+01 2 3 1
294 2 2.0158428475930843e+00 1.6970244202903166e+00 1.3766601724022381e+01 2 3 1
35 2 2.0738523897934700e+00 3.0410600707988560e+00 1.5737024095978766e+01 2 2 -2
194 2 3.8524617765530333e+00 1.5637690296089588e+00 1.5257558733132383e+01 1 -1 -1
34 1 2.4812174965727944e+00 3.6940494322535771e+00 1.6371843068707140e+01 2 2 -2
230 2 4.7475265146702004e+00 3.0398280035600607e+00 1.3606911768316582e+01 2 0 0
368 2 5.7047218226849674e+00 3.0341951235074713e+00 1.6155690192127508e+01 -1 -2 -2
203 2 6.9197219732421988e+00 4.9824708879056911e-01 1.7018306525630361e+01 -2 0 0
475 1 7.6767062100525525e+00 2.1319058217967388e+00 1.3459114177418749e+01 4 1 -3
193 1 4.7866932480150037e+00 1.8509062373127909e+00 1.5298022518697332e+01 1 -1 -1
195 2 5.2895030945274835e+00 1.0119519122751808e+00 1.5100237028217382e+01 1 -1 -1
367 1 6.1028026506925386e+00 3.6064944521411730e+00 1.6862777823726208e+01 -1 -2 -2
369 2 6.8539547400710328e+00 3.0161592969169488e+00 1.7225762701325472e+01 -1 -2 -2
77 2 7.7152624738333451e+00 1.4279927353641260e+00 1.5049708843161401e+01 1 3 -3
251 2 7.5001539006414308e+00 4.3347650350510385e+00 1.5940583252328759e+01 1 -1 -2
78 2 8.7263559324679090e+00 2.1883954405327470e+00 1.5873623855598343e+01 1 3 -3
76 1 8.1145684793624611e+00 1.4243460117407407e+00 1.5941625307791785e+01 1 3 -3
28 1 4.0523661194351135e+00 5.3120357375853242e+00 1.4887669873498067e+01 1 0 -1
30 2 4.5189510010218630e+00 4.7545391608861536e+00 1.4218863885917719e+01 1 0 -1
306 2 9.8834980081833534e-01 7.3059779298150174e+00 1.6467364443288126e+01 1 1 1
255 2 2.7636754831289565e+00 7.1959326825579559e+00 1.7091992689091850e+01 -1 -1 -2
445 1 8.3666400996987944e-01 5.3930222547058353e+00 1.3971006112902387e+01 3 1 3
29 2 3.4965184466705859e+00 4.7504307984531353e+00 1.5450207234552581e+01 1 0 -1
555 2 3.0871144381766791e+00 7.7474106566950924e+00 1.4993181910787651e+01 1 3 2
553 1 2.9026314499337271e+00 8.4560502233813271e+00 1.4346877862476523e+01 1 3 2
305 2 1.1886237932371506e+00 6.3407796721975371e+00 1.5335369916898884e+01 1 1 1
304 1 1.6079348242796667e+00 6.6868731677193036e+00 1.6147274119754425e+01 1 1 1
532 1 6.4679816421890051e+00 6.6047415744142155e+00 1.5081426929562973e+01 1 1 1
534 2 7.2063505259499312e+00 6.0224803719383315e+00 1.4778795425519601e+01 1 1 1
67 1 5.9632799156633700e+00 7.8374025716143914e+00 1.7346387594836976e+01 -1 0 -1
533 2 5.6402796639143080e+00 6.0664438972788259e+00 1.5171253696409719e+01 1 1 1
252 2 8.8592193667389552e+00 4.8745315654952179e+00 1.6415126946924200e+01 1 -1 -2
69 2 6.1664078161235656e+00 7.7579366290679301e+00 1.6378324435496125e+01 -1 0 -1
250 1 8.3585483171275889e+00 4.5985811665175396e+00 1.5634984029796513e+01 1 -1 -2
434 2 3.5000897010395184e+00 1.2627768890908348e+01 2.6693684343591162e+00 0 3 0
245 2 2.0684879148933053e+00 1.0058081356194817e+01 2.4978042516481578e+00 0 -2 -1
244 1 1.6926599202118506e+00 1.0003875736738324e+01 3.3952150360400566e+00 0 -2 -1
433 1 4.3362149699940247e+00 1.2056938334788891e+01 2.5274027293420920e+00 0 3 0
158 2 2.0321500666475787e+00 1.1667379493425036e+01 4.6480150202374091e+00 2 2 -4
435 2 4.2471133214595742e+00 1.1519585024941698e+01 1.7412163560903167e+00 0 3 0
246 2 9.4393569689731915e-01 1.0676992209445226e+01 3.3480976760727592e+00 0 -2 -1
332 2 4.6951508319572266e+00 1.0929810121318106e+01 3.7556627622141643e+00 -2 -2 -4
333 2 4.1898348536886871e+00 9.8999659113972793e+00 4.8200938115939227e+00 -2 -2 -4
234 2 3.2411338401061260e+00 9.2251649923733474e+00 9.3590783756776841e-01 2 2 1
211 1 8.7085128068695123e+00 1.0825392592312365e+01 1.7018136782992115e+00 1 -1 1
213 2 8.2402323583898163e+00 1.0039267699196952e+01 2.1450844814178796e+00 1 -1 1
331 1 5.0341035001901657e+00 1.0347421087104559e+01 4.5361281048533204e+00 -2 -2 -4
354 2 6.3864830620198143e+00 9.3348171370962145e+00 3.7744596277805016e+00 -1 1 2
561 2 7.8296662323555442e+00 1.2456661922763557e+01 4.6587706824264759e+00 2 -2 -3
559 1 8.8025922859413246e+00 1.2427693225316927e+01 4.4374969463622671e+00 2 -2 -3
212 2 8.7512601975793824e+00 1.1667042771060753e+01 2.2267076365045746e+00 1 -1 1
352 1 7.1760305359897636e+00 8.9242469167406711e+00 3.3073986011963785e+00 -1 1 2
284 2 8.7938913741091778e+00 9.5222611848303575e+00 4.3791988099679422e+00 4 0 -1
159 2 1.9911388655716551e+00 1.3205680660891373e+01 4.6555684111384794e+00 2 2 -4
208 1 2.2190194699847798e+00 1.4061542006195872e+01 2.7829292101584544e+00 -2 -1 2
210 2 3.0042181268547012e+00 1.4588244344074287e+01 2.7149189207795925e+00 -2 -1 2
209 2 1.4620187169808259e+00 1.4664618817631174e+01 2.8466883543988168e+00 -2 -1 2
496 1 4.5551627517760558e+00 1.5412925430639209e+01 3.3045106653079079e+00 -2 -1 3
20 2 4.6952162353645397e+00 1.3018031613169697e+01 9.9292558089859928e-01 2 1 5
105 2 1.3769744728890378e+00 1.3578500218126425e+01 9.4511573295366336e-01 1 -1 3
498 2 4.7301978109399094e+00 1.6351604269591263e+01 3.2437026517115517e+00 -2 -1 3
121 1 7.5914258001609736e-01 1.6806837590624752e+01 3.4976932276074719e+00 1 3 2
123 2 1.2891382694205222e+00 1.6699815577811666e+01 4.3129806335984906e+00 1 3 2
95 2 2.6765753178907410e+00 1.7069080051819682e+01 9.7114478126162651e-01 2 1 -6
166 1 6.8861415690171759e+00 1.4850055694595676e+01 2.3328938530535792e+00 -5 4 -3
168 2 7.3496276275735362e+00 1.4159168028972145e+01 1.8301473253733351e+00 -5 4 -3
167 2 7.3961909228724627e+00 1.5165443945847567e+01 3.0998910131776323e+00 -5 4 -3
497 2 5.2872040477349422e+00 1.5030349397366546e+01 2.7831802950255464e+00 -2 -1 3
289 1 7.9494796121957814e+00 1.6064307903452629e+01 4.5682679888377518e+00 0 -4 0
204 2 6.4727432491952355e+00 1.6281360640111664e+01 1.4969899825387643e+00 -2 -1 1
202 1 6.1376664563005425e+00 1.6968755594317550e+01 8.7336033870933383e-01 -2 -1 1
188 2 8.9427637966139049e+00 1.6473248203015824e+01 3.1457526317879667e+00 1 4 1
359 2 8.5018339878362226e-01 1.2214125914606184e+01 6.2314168326935491e+00 2 2 1
461 2 2.4569671514349012e+00 9.2695174817954751e+00 6.9684468606841445e+00 -3 0 -3
460 1 3.3335068440757731e+00 9.4661413903745615e+00 6.6452305072658557e+00 -3 0 -3
462 2 3.4742821216524695e+00 1.0393842637793629e+01 6.9369747871705858e+00 -3 0 -3
563 2 3.2802489032789328e+00 1.2537724967690803e+01 6.8642796642105512e+00 -2 -2 3
562 1 3.8333230886303538e+00 1.1883370323248469e+01 7.3087539601401046e+00 -2 -2 3
564 2 4.1003910375351866e+00 1.2163260593090449e+01 8.1877481834338859e+00 -2 -2 3
157 1 2.0840539205014244e+00 1.2423584095623800e+01 5.2305808821846940e+00 2 2 -4
9 2 1.4059070502950579e+00 1.1871931342445137e+01 8.3937194245217093e+00 4 3 1
334 1 6.8183843949971292e+00 1.1161414960931506e+01 6.4679044479374062e+00 2 -1 1
335 2 6.0263985944410976e+00 1.1073464749428597e+01 5.8751271311198145e+00 2 -1 1
336 2 6.9066378618375692e+00 1.0261176230118981e+01 6.7706419957413706e+00 2 -1 1
444 2 6.4040064775580916e+00 1.2876714866709481e+01 7.1951074729138229e+00 -1 -3 -2
179 2 7.5494101894351191e+00 1.1447058270210519e+01 8.1515419793259376e+00 1 3 1
178 1 8.0465891157833838e+00 1.1551726614450763e+01 8.9900105105820565e+00 1 3 1
552 2 8.5600961310164081e+00 9.1348157058328745e+00 7.4560603967656336e+00 1 -4 -1
410 2 1.6707579928160172e+00 1.5704195339096501e+01 6.8289741849122736e+00 -2 3 2
574 1 2.6173886637870161e+00 1.4709447122921635e+01 7.5298926347540487e+00 0 0 -2
576 2 3.3477422293946937e+00 1.4981338951492452e+01 6.9397051980196442e+00 0 0 -2
575 2 2.8353922981731676e+00 1.5308294638677554e+01 8.2751090287634206e+00 0 0 -2
409 1 1.1526447984634007e+00 1.6428470146603111e+01 6.3286339831367533e+00 -2 3 2
100 1 2.9550591273168703e+00 1.6908846563829506e+01 8.9369794599413073e+00 2 -1 3
411 2 6.3850860887943195e-01 1.6928564833167094e+01 6.9682584022997567e+00 -2 3 2
362 2 5.6298198827675101e+00 1.6607997502047787e+01 6.6947433946919137e+00 -5 -3 0
326 2 4.7994744090104904e+00 1.5302963744094933e+01 5.0047531153299358e+00 0 2 2
290 2 8.2956393911760653e+00 1.6889891731016853e+01 5.0494904045132953e+00 0 -4 0
325 1 4.8924252109971205e+00 1.5346091668361771e+01 6.0425774406460304e+00 0 2 2
327 2 5.4744067410260451e+00 1.4618349273583087e+01 6.3139507457865456e+00 0 2 2
291 2 8.3201735682343845e+00 1.5468361539277664e+01 5.2537673714819642e+00 0 -4 0
6 2 8.0506152223206975e+00 1.4681811970684850e+01 7.3887815019631731e+00 0 1 3
443 2 5.9657880908725449e+00 1.3873125920351782e+01 8.2909425080946395e+00 -1 -3 -2
442 1 6.4833727368002254e+00 1.3812647297107079e+01 7.4121711669332893e+00 -1 -3 -2
540 2 6.8490120922340223e+00 1.7019946428354999e+01 8.8207791208428041e+00 1 -3 0
4 1 8.8129165598128587e+00 1.4938315063990093e+01 6.7991559726340594e+00 0 1 3
8 2 2.1520201675650670e+00 1.0886636651127112e+01 9.3048314460141111e+00 4 3 1
52 1 2.9076469780007232e+00 9.3952806329971263e+00 9.9922094344123540e+00 2 -2 3
53 2 3.8546179503304905e+00 9.5821400631488558e+00 9.8243922461523621e+00 2 -2 3
349 1 2.2586142886354423e+00 1.0772749511192872e+01 1.2513322858481784e+01 2 -3 -2
350 2 2.7138171119374497e+00 1.1445504261672244e+01 1.2956413902277673e+01 2 -3 -2
351 2 1.7125548729065532e+00 1.0399241525330714e+01 1.3264824151085598e+01 2 -3 -2
7 1 1.6337490907579655e+00 1.1691038616856193e+01 9.3281908488372025e+00 4 3 1
54 2 2.6950828090556893e+00 9.8458632110077549e+00 1.0834614787022412e+01 2 -2 3
180 2 7.8133091208452754e+00 1.2412203280902848e+01 9.4111322292734805e+00 1 3 1
143 2 5.8919984358019066e+00 9.1137120873211774e+00 1.0275990975047808e+01 -1 0 0
303 2 6.4308018427172149e+00 8.8523270332897201e+00 1.3114567595548007e+01 -1 -3 1
142 1 5.8235032995068661e+00 9.7415658020556570e+00 9.5034191113017972e+00 -1 0 0
144 2 5.9890782678719789e+00 1.0673408684294225e+01 9.7880662753214711e+00 -1 0 0
495 2 7.3244443856344263e+00 1.1664676590616597e+01 1.1657640122212564e+01 0 3 3
493 1 6.4494471562153324e+00 1.1890898242133007e+01 1.1888563039654628e+01 0 3 3
494 2 6.2333435294860084e+00 1.1348486051342576e+01 1.2657532540355906e+01 0 3 3
63 2 8.7476819176165801e+00 1.0754753520465311e+01 1.1526224426591483e+01 1 -1 -1
206 2 7.8766528764543886e-01 1.6538771376107736e+01 9.6069195926097386e+00 -3 2 -1
101 2 3.7105164355428677e+00 1.7135228561556985e+01 9.4883565210946710e+00 2 -1 3
175 1 1.4642076653067104e+00 1.3923676017030079e+01 1.2520317401201833e+01 0 -1 0
386 2 2.3295694484644667e+00 1.3037528550614086e+01 9.6408511035747839e+00 4 -3 -1
176 2 1.2897428771237287e+00 1.3044444026763243e+01 1.2970466962317765e+01 0 -1 0
190 1 2.5076357264904114e+00 1.6667337367431394e+01 1.2117510041827035e+01 2 0 -2
273 2 4.1243343405413180e+00 1.3996101788029607e+01 9.6214268469960249e+00 -1 0 -1
385 1 2.5969914081951258e+00 1.3897454287152909e+01 1.0107660421940659e+01 4 -3 -1
387 2 2.2839689309710560e+00 1.3821700842388978e+01 1.1072282401363418e+01 4 -3 -1
191 2 2.7371201590947689e+00 1.5736450529278763e+01 1.2234744697745969e+01 2 0 -2
479 2 4.7016175054075839e+00 1.3933630058876146e+01 1.1916533700497336e+01 2 -4 -1
207 2 1.2290177402204647e+00 1.6790725643068445e+01 1.1030474840322226e+01 -3 2 -1
478 1 4.6873597967905463e+00 1.4672698448017366e+01 1.2523992145606341e+01 2 -4 -1
112 1 7.8900724323121612e+00 1.3831188615048836e+01 1.0240290161186925e+01 -1 -3 -4
271 1 5.1383654981843945e+00 1.3906724546519785e+01 9.4892462337766030e+00 -1 0 -1
538 1 7.5532250840376207e+00 1.6578932095503692e+01 9.3655236013555019e+00 1 -3 0
272 2 5.4705319886044075e+00 1.3300583101874290e+01 1.0200011116889099e+01 -1 0 -1
480 2 5.2360740955063010e+00 1.5301953923083015e+01 1.2056957297052824e+01 2 -4 -1
297 2 6.8204021578990943e+00 1.6611074330797305e+01 1.0956219838043166e+01 -1 -2 0
113 2 7.6017938946474892e+00 1.4698611377986694e+01 1.0004419766239032e+01 -1 -3 -4
295 1 6.5138892145251566e+00 1.6548635295960423e+01 1.1870208602581059e+01 -1 -2 0
114 2 8.1755773163338947e+00 1.3855389919434291e+01 1.1186755359666694e+01 -1 -3 -4
539 2 8.4672067091723537e+00 1.6751413900613109e+01 9.1306351533923458e+00 1 -3 0
296 2 7.1337903813365440e+00 1.7034617004515205e+01 1.2425085194240147e+01 -1 -2 0
554 2 3.7065127636523489e+00 9.0306791413834748e+00 1.4407112323534800e+01 1 3 2
233 2 3.3137890789901947e+00 1.0264404613603263e+01 1.6611272150963579e+01 2 2 0
232 1 2.8252584732757642e+00 1.0045981483745747e+01 1.7415113867378690e+01 2 2 0
75 2 4.2568920771487555e+00 1.1228626904660333e+01 1.4805159554753386e+01 0 -1 -1
514 1 3.3743877210298887e+00 1.2686488358301627e+01 1.4585420733821641e+01 -1 -1 -2
515 2 3.4565224649759925e+00 1.2806567061244952e+01 1.5555940250867929e+01 -1 -1 -2
73 1 4.6717552094942398e+00 1.0413856954711486e+01 1.5174304334024004e+01 0 -1 -1
320 2 1.0805603187311330e+00 9.7582584902929117e+00 1.6848947578419850e+01 0 1 1
316 1 6.2395491962989995e+00 1.0617957685219498e+01 1.7424323676888523e+01 0 -2 2
317 2 7.1938048479337509e+00 1.0875519672297713e+01 1.7340770043584989e+01 0 -2 2
301 1 6.6169019820533785e+00 9.6713925420262505e+00 1.3577631554640181e+01 -1 -3 1
74 2 5.4129553686027121e+00 9.9843230056401513e+00 1.4539906763861309e+01 0 -1 -1
318 2 5.8062592037719245e+00 1.0728470338196086e+01 1.6589821738171715e+01 0 -2 2
302 2 7.3565568009400986e+00 9.5139718515239160e+00 1.4236468537905919e+01 -1 -3 1
506 2 8.1777779466098615e+00 1.1941996917923873e+01 1.4710198278600036e+01 -4 0 3
58 1 6.6754499357658128e+00 1.2666900815938565e+01 1.5302311126328988e+01 2 0 -1
59 2 5.9964133041538012e+00 1.2578129113631048e+01 1.6009393738229761e+01 2 0 -1
181 1 8.9306554316842313e+00 8.9863200800149095e+00 1.4727564528895481e+01 -3 -4 0
103 1 7.6526413422236261e-01 1.3814570879312635e+01 1.6967537834828526e+01 1 -1 2
293 2 1.9872657601880475e+00 1.7133458660374224e+01 1.4567680011339998e+01 2 2 1
516 2 3.8768821615398630e+00 1.3396545356097214e+01 1.4299671557449187e+01 -1 -1 -2
21 2 4.1546033740085786e+00 1.4336561717579652e+01 1.7251452788866544e+01 2 1 4
268 1 3.8123148041199997e+00 1.6016172379681308e+01 1.6986240411705484e+01 3 -1 1
270 2 4.7546332116447205e+00 1.6345380652908403e+01 1.7041625743003440e+01 3 -1 1
269 2 3.5974766554559867e+00 1.5932470440813136e+01 1.6054911229561306e+01 3 -1 1
275 2 1.1964045498265765e+00 1.4839813093777529e+01 1.5620087715039359e+01 -4 -3 0
276 2 1.8427777656985129e+00 1.4712810563764215e+01 1.4160720948758074e+01 -4 -3 0
274 1 1.7414804747653534e+00 1.5297206768175659e+01 1.4926397964647071e+01 -4 -3 0
19 1 4.3359774154892134e+00 1.3382859989731029e+01 1.6958547584303606e+01 2 1 4
221 2 8.6496355081463889e+00 1.4993756877956722e+01 1.4151860999515611e+01 0 0 3
222 2 8.8052220498308511e+00 1.5927963766892956e+01 1.5498624751125327e+01 0 0 3
220 1 8.2466682602815169e+00 1.5312580286981795e+01 1.4980624463704444e+01 0 0 3
106 1 5.8251471415508220e+00 1.6161335358954403e+01 1.4820982725291032e+01 -3 0 2
107 2 5.4217578081594828e+00 1.5573116238567920e+01 1.4147656984625133e+01 -3 0 2
108 2 6.8309576136330934e+00 1.5891699817245474e+01 1.4933090062337662e+01 -3 0 2
60 2 7.0208456877398540e+00 1.3580384210396934e+01 1.5453623815300620e+01 2 0 -1
66 2 1.2673758258971175e+01 3.4036747433652823e+00 2.9804498411018590e+00 1 -2 1
504 2 1.2677710610582299e+01 1.4146064380225591e+00 3.0054038975721178e+00 -1 -1 1
125 2 1.0458560358461412e+01 3.5657757255767142e+00 2.3958842987648152e+00 3 -2 2
124 1 1.1182723870646813e+01 4.0817581055314029e+00 2.7437274972826491e+00 3 -2 2
189 2 1.0339934199801807e+01 4.5121740739320026e-01 2.6814412259889178e+00 1 5 1
242 2 9.1680993623755640e+00 2.1622559957493905e+00 4.4100482160184580e+00 -2 3 -2
502 1 1.2107511087659036e+01 6.0343450698836643e-01 2.8893892439638029e+00 -1 -1 1
64 1 1.3541118259146316e+01 2.9358098154168957e+00 2.9978906537992280e+00 1 -2 1
65 2 1.3868137882128977e+01 2.7618943367504594e+00 3.9159585515668547e+00 1 -2 1
18 2 1.5283923573981438e+01 2.3932194868098264e+00 2.0388642959301118e+00 -1 -1 -2
16 1 1.6088561197598825e+01 1.9567621259319741e+00 1.7626316457079949e+00 -1 -1 -2
17 2 1.6791310403894283e+01 2.6254836814824278e+00 2.0363130315609848e+00 -1 -1 -2
2 2 1.5732677532658025e+01 4.3803136335871766e+00 4.1846551811810029e+00 -1 2 2
236 2 1.4401051591022883e+01 3.8848003337568243e-01 4.5233196188289275e+00 0 2 2
120 2 1.0643867355165622e+01 8.6689706339975459e+00 3.6082470692592556e+00 -2 1 1
126 2 1.0893919244076249e+01 4.7185883377337783e+00 3.4598094176525156e+00 3 -2 2
119 2 1.2152146811021902e+01 8.6871759860727860e+00 3.8616814866017943e+00 -2 1 1
80 2 1.2637753705020570e+01 5.7998667443375354e+00 2.6678836363986806e+00 -1 5 1
12 2 1.1399370594411840e+01 6.5791492649395247e+00 4.4531565133718658e+00 4 1 1
413 2 1.0161612602393822e+01 7.8383065760835882e+00 7.3475282537480524e-01 1 -1 2
118 1 1.1453326820010101e+01 8.1212784127143998e+00 3.4906716173643160e+00 -2 1 1
10 1 1.1240227438160582e+01 5.6380805181839264e+00 4.7886984608960415e+00 4 1 1
171 2 1.1455338527076179e+01 4.7041399422658561e+00 8.5391896870869877e-01 -2 1 -1
79 1 1.3438010182420692e+01 6.1225648110496609e+00 2.2083479714314973e+00 -1 5 1
81 2 1.3272359899773111e+01 7.0143396801966418e+00 1.8057696785127753e+00 -1 5 1
3 2 1.4599253506519872e+01 5.1908360200055856e+00 3.3980849930787764e+00 -1 2 2
1 1 1.5269069916351931e+01 5.1892191107691943e+00 4.1430728458056381e+00 -1 2 2
160 1 1.6827794680755432e+01 6.8456614334569430e+00 1.8382185442197878e+00 2 1 4
162 2 1.6063387928203205e+01 7.4052548336578052e+00 1.9598887967097174e+00 2 1 4
85 1 1.5203609652997086e+01 8.2431612784439547e+00 4.7169817893982993e+00 -2 0 -3
87 2 1.5275066146524587e+01 7.2849803169669194e+00 4.5142509330361138e+00 -2 0 -3
26 2 1.7238124890289544e+01 4.9477168630335004e+00 2.3054253287417117e+00 0 -3 0
86 2 1.5610141020326550e+01 8.6541432874615687e+00 3.9173849075606442e+00 -2 0 -3
298 1 1.3322632071176150e+01 8.5576881566606939e+00 9.6734958881665978e-01 -3 0 3
241 1 9.3051038883020780e+00 1.9636540694601157e+00 5.3083380642481712e+00 -2 3 -2
128 2 1.0625902740670861e+01 9.0214460928691709e-01 5.5462543698302884e+00 1 0 3
237 2 1.4258133964493965e+01 6.0880768868680002e-01 6.1282750762105298e+00 0 2 2
403 1 1.6351455742306204e+01 2.9584056082743113e+00 5.3409211382542301e+00 -2 2 0
405 2 1.5633244815480980e+01 2.3936882718407886e+00 5.7251943225559767e+00 -2 2 0
235 1 1.4178092006655357e+01 1.0482685573725643e+00 5.2553343210162415e+00 0 2 2
404 2 1.6989106980595750e+01 2.2742297948687407e+00 5.0961918323169764e+00 -2 2 0
278 2 1.6540072151625154e+01 4.2847907190237233e+00 6.4166038962295975e+00 -1 2 2
340 1 1.4194437269192434e+01 3.2425309874399852e+00 8.8637734056571311e+00 -1 1 -1
341 2 1.3744812267111371e+01 3.4568406696920300e+00 8.0294972715480117e+00 -1 1 -1
165 2 1.5225170731055822e+01 1.7927378704152879e+00 8.2328418120941897e+00 3 -2 -1
163 1 1.6011832721685082e+01 1.3509805900406500e+00 7.9371655456079191e+00 3 -2 -1
164 2 1.6697042722019386e+01 2.0677361669531384e+00 7.8538378384101772e+00 3 -2 -1
557 2 1.2721031634670203e+01 5.0204361514868880e+00 5.6676835709802473e+00 1 -1 -3
508 1 9.3017134041769918e+00 6.1916553944737620e+00 6.5621309450042400e+00 1 2 -2
510 2 9.6452700800000937e+00 5.6163421838905823e+00 7.2609797705397767e+00 1 2 -2
11 2 1.0440230398804436e+01 5.7551829358545090e+00 5.4466441604821298e+00 4 1 1
509 2 9.6526042408748385e+00 7.0645765028796630e+00 6.7936317349189883e+00 1 2 -2
91 1 1.1420768025179088e+01 7.7499098940906341e+00 7.5875934558166227e+00 -2 0 -2
93 2 1.1613994298512049e+01 8.3675418906274661e+00 6.9050720965403602e+00 -2 0 -2
92 2 1.2239426060966023e+01 7.1849172918458386e+00 7.6846512998874630e+00 -2 0 -2
313 1 1.0055213277356460e+01 4.7442890064128385e+00 9.0223705216335972e+00 -1 0 3
558 2 1.4315399868380306e+01 4.9071196305573110e+00 5.7521024308157731e+00 1 -1 -3
556 1 1.3453890447394121e+01 4.6773230704284394e+00 6.2469357841940569e+00 1 -1 -3
277 1 1.6662397400088718e+01 5.1188217933220939e+00 6.8877103889093219e+00 -1 2 2
279 2 1.6655362747484112e+01 4.9988600060459154e+00 7.8415467781094890e+00 -1 2 2
97 1 1.3781613233763331e+01 6.3214407467320681e+00 8.3187204272010646e+00 -2 2 -1
99 2 1.4663301466953948e+01 6.7782697211054090e+00 8.3394839655959387e+00 -2 2 -1
98 2 1.3770114843778337e+01 5.6498947946801703e+00 7.5917455406402414e+00 -2 2 -1
311 2 1.6372194261278125e+01 8.7235260043799183e+00 6.2752383192158145e+00 -3 -1 3
569 2 1.6181661295365505e+01 8.7333610761213496e+00 8.4243049786731454e+00 -3 -1 -2
465 2 9.2247292433521242e+00 3.2950987217694907e+00 9.2798633940215307e+00 1 2 2
50 2 9.8357507591986586e+00 5.2143693441169647e-01 1.1984613118848076e+01 2 1 -2
151 1 1.2178681166534815e+01 1.5933987136026584e+00 9.8416188776108360e+00 1 1 1