LAMMPS data file via write_data, version 8 Apr 2021, timestep = 43170000

576 atoms
2 atom types

0.1887857736086063 17.731215226402977 xlo xhi
-0.01621522639109994 17.526214226403336 ylo yhi
0.33378577360832695 17.876215226400497 zlo zhi

Masses

1 16
2 2

Atoms # atomic

50 2 2.6974007731332312 1.613583595115024 2.9261375262356686 -2 1 1
51 2 1.1749317179382612 2.1803774298032454 3.3509827148199554 -2 1 1
49 1 1.8818610375500224 1.4145250184225875 3.3976825574100937 -2 1 1
569 2 4.115610042090683 1.7230898007697555 1.4835340292088501 4 1 1
568 1 4.16907011595116 2.091747111968412 2.3886896405374727 4 1 1
126 2 4.086153713252247 3.800314516103984 2.3549443223314794 -2 1 1
258 2 0.5807249905388211 4.339306396341625 4.338868311354735 1 -3 -1
570 2 4.771124531733982 1.4743216471370288 2.876818999161625 4 1 1
552 2 7.493179798059465 1.669214115934087 2.541668529357831 1 -2 2
551 2 7.993217887991531 2.9199870280618705 1.835324526366067 1 -2 2
313 1 6.178506216404946 0.8456886685096064 3.7571833277536224 -1 0 -1
314 2 6.288125009630676 1.175936306894503 4.677506993939391 -1 0 -1
550 1 7.921310112709771 1.961870918162911 1.7436305685211166 1 -2 2
396 2 9.54122155930524 1.079937019607169 3.935677664959702 0 3 1
301 1 12.38127112400672 0.7586700869301951 1.2284385787860095 2 -1 -1
215 2 11.802727275902258 2.700532628080167 1.4382733918137318 1 -3 1
302 2 12.941774621376268 0.45765972586256437 2.0174501165638477 2 -1 -1
214 1 11.499809626092853 3.588828964195661 1.601877104563986 1 -3 1
226 1 9.99650047652056 2.8844625909234853 4.071430097289126 0 3 -1
228 2 10.525933345519832 3.0226873883411507 3.231046498046594 0 3 -1
394 1 9.530269641235936 0.12216368600548737 3.953248509312079 0 3 1
303 2 11.514312377601227 0.4132445181836342 1.4769857742748167 2 -1 -1
216 2 12.362915648901229 4.0584239675525176 1.6006965872712395 1 -3 1
531 2 9.17390552606404 0.3525465893333859 1.6305669102621296 -2 2 3
227 2 10.691964591339984 2.6953202393088618 4.656886199635951 0 3 -1
445 1 13.818178926434816 0.2673788210408345 3.4610113756525043 1 0 -3
256 1 17.631562639722702 3.6016847571604154 3.8827961504149116 0 -3 -1
446 2 13.899004557864725 1.1344990633723808 3.919905994192812 1 0 -3
288 2 16.460193912114804 3.8096542181547495 1.318377155979123 0 0 -2
365 2 16.2363211310883 0.5084631713806665 1.2767753554530716 -1 1 0
257 2 17.024509860098558 4.063523534485306 3.1665549981760446 0 -3 -1
250 1 16.63541368298403 2.237704395620632 0.7305756431027857 0 1 2
428 2 2.261893212243526 8.330626419048189 3.845770920236416 0 1 2
358 1 0.4116549395267222 6.581095234797864 0.689560003655058 -1 0 1
427 1 2.692920777912846 7.447388754069433 3.7632771447480655 0 1 2
429 2 3.523678716008613 7.514790535090528 3.2606137937868116 0 1 2
125 2 3.8867611578423276 5.1793543962740305 1.7005123189960376 -2 1 1
45 2 3.5136625820937306 7.097360437381731 0.44292852744264666 2 -2 -1
359 2 0.22576755139969806 7.309404559961524 1.3734627751639086 -1 0 1
124 1 4.430370626234229 4.743972224561332 2.3785962070720568 -2 1 1
360 2 1.3845077020726884 6.504204881126161 0.6530887889526603 -1 0 1
439 1 5.4008789252796925 8.113151326998022 2.834640903566102 0 2 -1
440 2 5.4201906131383355 8.697286503324287 2.039561481881301 0 2 -1
362 2 7.564577321004402 5.354613343073478 2.3489621171437505 -3 -1 -2
361 1 7.228152167709667 4.770338199661464 1.6655389511818532 -3 -1 -2
363 2 6.277720247834569 4.535372535781689 1.866422118611328 -3 -1 -2
456 2 4.900458174400219 5.357161355852251 4.055552977643398 0 3 0
534 2 8.558275429022135 6.647381709844435 3.9919355579688665 2 1 0
532 1 8.175632654745984 6.638244330444097 3.1431920080043727 2 1 0
533 2 8.933360587129608 6.88564400845989 2.5932350957483923 2 1 0
441 2 6.219791598251991 7.624897219252656 2.905568533610648 0 2 -1
416 2 7.07096302499787 6.657958239470736 0.7338566738829826 2 0 1
242 2 10.316939607332797 4.421119939904248 0.5455243976554973 0 0 -2
200 2 9.896858705124695 6.843344415917009 0.8601669538684374 1 1 1
199 1 10.144190688892552 7.627890588721566 1.3419089612245965 1 1 1
503 2 13.323233198625488 5.647499648730667 4.010859763848693 0 -1 0
201 2 9.52875513017789 8.369894992823147 1.0241809090058585 1 1 1
36 2 17.676309453062736 8.24454138157407 4.100262012674517 0 -2 -2
286 1 16.35471115361151 4.633425744500412 1.867723534548979 0 0 -2
205 1 14.30910258538015 7.928507650864344 2.3168810370965667 -3 0 2
287 2 16.961943907107532 5.319207102967545 1.497209732798641 0 0 -2
47 2 14.603335785768834 5.147286782273814 1.5693149125236328 -1 2 1
46 1 13.702218829859396 5.380095082839581 1.3760432552580695 -1 2 1
207 2 14.048408579381823 6.997676292362651 2.0732921491979344 -3 0 2
48 2 13.731446864135167 5.631348931885384 0.4035739599048743 -1 2 1
72 2 16.047222180959693 8.186972525699515 2.181976693593589 1 0 0
206 2 14.060715332022914 8.104515602315287 3.2330423943583693 -3 0 2
70 1 17.012208479575165 8.295932569363359 2.384506321432572 1 0 0
211 1 2.5847081874634044 1.147030944534903 6.0060541961818 0 0 0
212 2 2.3939076179304903 1.0739853119340552 5.056794616564084 0 0 0
209 2 3.1461227785181882 2.6916211200037248 5.859906941683495 -1 -1 3
213 2 1.7110794927566808 1.0721883624367163 6.473034970615135 0 0 0
198 2 0.4207025352658963 1.4955065247564734 8.34553615595962 0 1 0
238 1 3.382470988034607 4.17489398002723 8.78164070641603 3 2 -1
240 2 3.2549706421972746 4.147090702770204 7.8132775035246045 3 2 -1
208 1 3.2817159312800146 3.7125867558877266 5.905869359659739 -1 -1 3
210 2 4.145572552275765 3.9284550358488723 5.504265988069722 -1 -1 3
196 1 0.24269966849307767 1.2180274612525777 7.421342176189689 0 1 0
84 2 4.422941971865631 1.365903483536521 8.57897202992687 -1 -1 2
239 2 3.7836362698695356 3.331348311318615 9.033243513293344 3 2 -1
540 2 8.32354968309571 3.5331393010417815 4.932944215455981 2 1 1
377 2 7.8050049103503145 3.2392754722995862 8.727372471385086 0 -2 4
82 1 5.122593500479527 2.002772875299957 8.426598223287193 -1 -1 2
566 2 7.991470033976804 0.8624292317696096 6.4718196525344345 2 2 1
434 2 6.952362582115915 2.81549631263044 6.244701068782265 -3 1 -1
433 1 6.701191209474378 1.8565521796424582 6.210542156770189 -3 1 -1
435 2 6.053136763975468 1.8370016044286102 6.934565335455762 -3 1 -1
565 1 8.876167332585037 0.45770895347399576 6.656347254188555 2 2 1
538 1 7.680361354831824 4.153099821931559 5.21825837370096 2 1 1
376 1 7.96689625498652 3.914771928904708 8.010465907473087 0 -2 4
567 2 8.735645711634131 0.0052399493453059165 7.469245033410517 2 2 1
471 2 13.297957501939871 2.6291344810624184 8.739371943103132 -2 0 2
466 1 11.099166417900543 2.034147371762947 6.544275909307208 -1 0 -2
467 2 10.709052692234746 2.8769838000054904 6.860995580888051 -1 0 -2
468 2 10.341202596193702 1.4087576031717248 6.598724268065824 -1 0 -2
470 2 12.224648113445253 1.758269204150641 7.952866644774923 -2 0 2
97 1 10.560802043197185 4.144713229101878 8.316567847687077 0 3 -1
138 2 13.083021726182139 2.1055253568658827 5.813719832333233 -1 1 3
98 2 9.56906371766948 4.13066451805747 8.372363625705294 0 3 -1
469 1 12.969834404381817 1.7146068914505268 8.585590599858225 -2 0 2
483 2 13.927354281905822 0.2893842677923486 8.30749085735822 -1 -3 1
137 2 13.3477653256351 3.3485519384404077 4.939381546183702 -1 1 3
136 1 13.55253922926864 2.405627820509812 5.032907069663221 -1 1 3
197 2 17.189535972977353 1.825991753096664 6.920300370958746 -1 1 0
450 2 16.71255252890388 2.9856232999938324 5.071370117920398 0 -1 1
448 1 16.10801420893209 2.757566874210215 5.838194990992162 0 -1 1
449 2 15.224288615899502 2.5519736367958017 5.547184228964221 0 -1 1
387 2 16.058779349411772 3.919265426826732 7.049592776716304 -2 1 0
424 1 13.727446827130779 4.255104004538626 9.042010382334741 -1 -1 0
485 2 4.122951046729885 6.803895443618853 8.511928637872808 0 0 -1
41 2 1.7670177316150972 6.14443506806291 4.785785424030374 -2 -2 -1
54 2 3.8256196811386167 7.961782470970997 6.009627822385372 3 0 1
491 2 1.926045820283768 6.468487105558521 8.328640210396982 -1 -2 0
42 2 2.0757872462099534 4.871644692595177 5.645770628862105 -2 -2 -1
40 1 1.356927038373353 5.4397998508571614 5.369483218556815 -2 -2 -1
490 1 0.9511178241949277 6.476513843349626 8.13351637927602 -1 -2 0
492 2 0.8597194199086045 6.052426019799725 7.284258335037288 -1 -2 0
53 2 4.5658572670971065 6.643342297578989 5.742990107232854 3 0 1
455 2 6.073667475985344 4.7698292416326815 4.844606036299234 0 3 0
454 1 5.222718870955317 5.1522836913095515 4.947294940826003 0 3 0
321 2 5.140484703964611 5.123610636980492 8.567287879152977 2 -1 0
106 1 7.2834985387952615 7.994643115295134 7.116086859234435 -3 1 2
108 2 6.425991153133443 8.112543857278968 6.612884988811383 -3 1 2
319 1 5.890575156977633 5.6357703049999905 8.259039611392252 2 -1 0
52 1 4.665455627874531 7.475218432632549 6.204187068719166 3 0 1
262 1 8.903622014276623 6.487231434120073 5.762096036831648 3 -1 2
539 2 8.130116091924712 5.002015361969474 5.512241380562915 2 1 1
264 2 8.485966886592012 7.134831917726079 6.324022061376944 3 -1 2
378 2 7.400085033791921 4.657343393272037 8.245785150630509 0 -2 4
320 2 5.6413103846148385 5.761687104963008 7.332652059944276 2 -1 0
293 2 7.239292980823513 7.587026300996601 9.029552516776297 2 0 -2
330 2 13.189569964932211 8.16247077562805 6.7361823283852145 0 3 0
329 2 12.19325114780669 8.464379278798342 7.900356240926873 0 3 0
328 1 12.832940855678427 7.787124495380055 7.599358519172014 0 3 0
263 2 9.83369678274929 6.351046022171366 6.132139002602088 3 -1 2
526 1 11.658043762122478 5.82577122361094 6.492498225514617 -1 4 1
527 2 11.27952709444062 5.228468626905391 7.174622322122859 -1 4 1
528 2 12.211666934990447 6.510993227539752 6.933596518524899 -1 4 1
504 2 12.827657032030206 5.317863041852781 5.475789133312603 0 -1 0
220 1 13.757720543389695 8.580670921380378 4.989210071122916 0 1 2
145 1 16.45414651271095 8.137750196479944 8.830696986579522 -2 1 0
502 1 13.600005731236614 5.264833398508872 4.869339136726906 0 -1 0
131 2 13.566889962282014 7.822170216460106 9.094913120390121 0 -1 2
386 2 16.665220061013652 4.63302379509805 8.344017049572056 -2 1 0
385 1 15.981091564866821 4.702354548527644 7.683227124282933 -2 1 0
425 2 14.54785364283261 4.46857300547623 8.616311435507418 -1 -1 0
147 2 16.845351921545593 7.688131934999156 8.036891564186849 -2 1 0
1 1 15.657411906996746 6.777911737182775 6.017145365072116 1 -1 0
2 2 15.841486514060113 5.974079513824331 6.50887365758548 1 -1 0
3 2 14.904391959668956 6.5725712917144685 5.433519570819771 1 -1 0
34 1 17.64796963247037 8.28858132425456 5.045159604845171 0 -2 -2
35 2 16.880245253273902 7.712712698289966 5.287289280482892 0 -2 -2
340 1 1.3305520275057414 1.551873778641876 9.898086676906994 -1 -2 0
420 2 2.3199277786715284 2.115010085494521 11.419717791561903 1 1 -1
418 1 2.715271653053405 2.7570372899666102 12.047656576529137 1 1 -1
419 2 3.596634786164236 2.460835528154168 12.365527819103127 1 1 -1
342 2 0.7417515606878218 1.0471745337193046 10.479249801824407 -1 -2 0
444 2 1.8212507619172003 3.1357723733537908 13.374035892835153 1 -1 -2
341 2 2.1028378239373926 0.9326164380134156 9.666989406303395 -1 -2 0
161 2 0.9686395393497544 3.7200527672663437 9.652265999508074 0 -3 2
520 1 3.315740156621945 0.018119742279292087 9.13361437001542 0 -1 -1
159 2 7.3074639688566005 2.3048609903522594 10.85196908241487 -1 3 -1
403 1 7.226955593686462 3.4601734108386806 12.312380248716513 0 -2 0
404 2 8.175077505960308 3.579204566845732 12.609393753098326 0 -2 0
150 2 5.860900422214814 2.3132470998827297 12.534460880861735 0 1 -2
149 2 5.400186177722334 0.8161125979435737 12.728518701914005 0 1 -2
148 1 5.083497027804947 1.7503040472403377 12.71477010871261 0 1 -2
158 2 7.889860117873517 1.263127125781813 10.050707075612472 -1 3 -1
157 1 7.14451207045399 1.9187510079255838 10.00952143903726 -1 3 -1
405 2 6.847322380381865 4.347714533192953 12.309448820851742 0 -2 0
83 2 5.761555922402166 1.9185638627851522 9.159204149835773 -1 -1 2
541 1 11.529247432478545 1.214428652157951 10.828923677618182 -1 2 3
543 2 11.758422403117638 1.919852703897947 11.462399508438345 -1 2 3
542 2 12.000422873761337 1.5003691399609376 9.9651308804509 -1 2 3
409 1 9.723727248171189 4.2849217811854 13.155040528669351 1 0 0
410 2 10.254480917311792 3.491809078797332 13.44854130103135 1 0 0
10 1 11.532214330683287 2.564508509408784 13.220167234985384 0 1 2
30 2 12.694591222467443 0.3068021096477312 11.77412880733302 1 1 -1
389 2 9.925714415495271 0.6491949625475183 10.407513539204231 0 0 -1
388 1 9.114744367696769 0.1297474425007492 10.149498844939133 0 0 -1
407 2 15.29986326627684 1.9700242640871772 12.530578045102562 -2 -3 4
232 1 15.075432479388217 3.874140516217131 12.88991878536228 1 -2 -2
406 1 15.330819674764067 1.0307207624987613 12.929871999504666 -2 -3 4
29 2 14.137567766904798 0.3536954627833678 12.48655191587529 1 1 -1
408 2 16.20019933964978 0.6532398150041703 12.556246975468941 -2 -3 4
88 1 17.608828458451455 0.009101605549470808 12.050729909846645 -1 -1 0
160 1 0.45792531595597663 4.472457523464562 10.000158578857102 0 -3 2
231 2 3.3368290782279777 4.650233615036464 11.337029544375323 -3 0 1
56 2 3.8642756733273926 8.320547907392253 12.81925355829419 -1 0 -1
230 2 3.053175705261115 6.1021224241308465 11.850422692905079 -3 0 1
229 1 3.651714129377192 5.5749920101567865 11.2684038959752 -3 0 1
486 2 3.3730141177116297 6.538769419263896 9.890781544504145 0 0 -1
184 1 0.9801798142467661 7.354292538073881 11.068412064485866 -2 -3 1
185 2 0.5545551683519995 7.4477163529800485 10.173147346438636 -2 -3 1
162 2 0.8998724660976077 5.194538940363721 9.524566707443345 0 -3 2
186 2 0.9907429403455297 8.269447757778318 11.317044722321421 -2 -3 1
484 1 3.503845091358606 7.136770171078902 9.166944602919003 0 0 -1
261 2 5.31817978430042 5.7920251779539695 11.667295814389089 0 1 3
260 2 6.68149093909989 6.256927250212423 10.961941246627497 0 1 3
292 1 7.437972021048219 7.694476240684185 9.949430015442386 2 0 -2
259 1 6.268904253333253 5.911425049298462 11.789726610101251 0 1 3
294 2 6.917929743172557 8.523754583172085 10.300332539946387 2 0 -2
173 2 7.096809127741681 6.779084569321959 13.245348689917526 1 -1 0
575 2 8.772801959464418 8.362426475142668 13.129950312753497 -2 2 1
461 2 9.077141793392212 7.525372481562452 10.015957042477323 1 1 0
460 1 10.034281962645593 7.648866535063585 10.175704146611892 1 1 0
117 2 10.36653182639165 4.845542675281198 11.709761465242527 0 -2 -1
122 2 12.386098842059335 5.3702674183873675 11.368438237485027 0 1 4
115 1 10.912305629725905 5.189285464055181 10.947183454119102 0 -2 -1
116 2 10.55883333688427 6.079459814445947 10.663676369116642 0 -2 -1
462 2 9.951803996419807 8.073925624309357 11.026704028467664 1 1 0
348 2 13.081164695356154 8.441878443189365 12.753201817693231 -1 -2 0
99 2 10.85864838601532 4.51652669200717 9.156345096746142 0 3 -1
574 1 9.61207366184068 8.69964737534493 12.762628007333843 -2 2 1
132 2 13.884374265881434 6.826712569662537 10.348623836372056 0 -1 2
233 2 15.885238393438437 4.41575033802439 12.722721615979577 1 -2 -2
234 2 14.392997992241687 4.396514200734396 12.378568979326529 1 -2 -2
152 2 17.546214379260647 4.8815874460879325 11.606998824594163 0 0 -1
130 1 14.03253068044855 7.717428220215398 9.958279882036907 0 -1 2
123 2 13.497066527716933 6.18584295632896 12.205037591390667 0 1 4
121 1 13.387549393757741 5.466828331602745 11.552335322828599 0 1 4
346 1 13.473744976167977 7.609797620900301 13.159210914200983 -1 -2 0
153 2 17.36337950523992 6.1558561750419765 12.679927215866147 0 0 -1
151 1 17.43078054443294 5.1833275992633565 12.523051513492138 0 0 -1
426 2 13.779839382533831 4.708223460596611 9.93988890006571 -1 -1 0
146 2 15.662969690665161 7.74250985466269 9.191131681550896 -2 1 0
572 2 15.469846468357607 8.628901515746962 13.365286526571397 1 -1 3
112 1 3.3193654183172923 1.177157213237861 17.41492378368312 -1 -1 0
218 2 0.7763156300058255 1.3681190864347228 16.016373569496064 4 0 2
217 1 0.9846380133276732 2.3269096035945442 16.262188232197776 4 0 2
219 2 0.9260874987659725 2.8686967348428385 15.433226048386933 4 0 2
442 1 1.4187071180380695 3.762627167941665 14.050912525407101 1 -1 -2
113 2 2.509633703914346 1.635519503163612 17.198698835532245 -1 -1 0
120 2 4.385548028005856 1.9139190741843155 16.10237444265047 -2 5 -2
114 2 3.0037036803361405 0.31486316062069014 17.71526195942118 -1 -1 0
118 1 4.9337717438071 2.4528309748715644 15.439653570728723 -2 5 -2
119 2 4.741455454003968 2.072766384950188 14.575285169746325 -2 5 -2
94 1 7.347003938859814 2.0123985839308847 16.5426146857799 0 -3 0
167 2 8.294683848163443 0.7935197378469481 16.247214705883135 -4 1 -3
96 2 6.481988455085767 2.1063301707453594 16.099120611840423 0 -3 0
311 2 6.924357524243828 4.154455596347745 15.999228570976257 5 2 3
95 2 7.25487799962732 2.1272472660603468 17.50750909401809 0 -3 0
255 2 9.991981509841692 0.34389348923167407 14.91059238659416 1 3 -2
253 1 10.401164358481704 0.3839254683682895 14.020886382838995 1 3 -2
11 2 11.091890589703176 1.7544919225807323 13.518523612718646 0 1 2
12 2 12.097943362848445 2.8854118958589376 13.943097396066026 0 1 2
536 2 13.410569949241514 4.209079841756908 15.451262828647259 -1 -2 4
248 2 15.296386607493025 0.4361806844237643 14.795157310448621 -1 2 -3
252 2 15.791502396888916 2.1278185745434985 17.698043528371496 0 1 1
535 1 13.51098349391849 3.3630932604129367 14.951933264138372 -1 -2 4
335 2 13.701965353447482 1.4386638180419653 17.686398270353028 3 -1 -2
537 2 14.210748732221173 3.4690618710866405 14.315151469829818 -1 -2 4
336 2 13.93091233853491 2.2244041453704395 16.311487157369022 3 -1 -2
334 1 14.357668972923417 1.6895728120755131 17.013555577175623 3 -1 -2
249 2 14.891246927586389 0.18339690835787328 16.224953151748764 -1 2 -3
251 2 17.393295226805893 2.3431332986363813 17.628625560902147 0 1 1
443 2 0.7775811255464304 4.379826714019429 13.60141075637675 1 -1 -2
183 2 4.117977355900549 4.40319966352866 15.10809912440621 -4 2 -4
182 2 2.606809538385684 4.528610768878404 15.033164829370811 -4 2 -4
187 1 0.3797110991433178 7.463035165664846 14.377802813112924 2 -3 -1
133 1 2.972247209327509 7.126909378206265 13.659414355114695 3 4 2
181 1 3.405422154234562 5.033602931726783 15.35448116519139 -4 2 -4
134 2 2.0361999210715145 7.2558670924652136 13.866579996949069 3 4 2
135 2 3.2880157050456242 6.426871901606579 14.262037158883206 3 4 2
44 2 3.2462181400930787 5.905006861068422 17.00167737218223 2 -2 -2
43 1 3.064318153100847 6.284134720252923 17.864281657093272 2 -2 -2
512 2 7.671389637935384 8.654745007373755 17.76069279263999 1 -1 3
243 2 8.865503086571083 4.909647581835242 17.652664007948893 0 0 -3
507 2 4.980695510338331 8.58950015326756 15.976918035149016 -3 -2 -3
415 1 6.750613822551109 7.285343404568154 17.600201735756983 2 0 0
417 2 6.596801046271455 6.694552380589392 16.87572224115341 2 0 0
312 2 7.232126454654661 5.228283062696188 14.850005391405286 5 2 3
174 2 7.132168771529138 7.642372309598353 14.500263580958654 1 -1 0
172 1 7.691754669554409 7.06514172758356 13.97724399289549 1 -1 0
310 1 6.851725402547977 5.140508483280693 15.74907103490028 5 2 3
505 1 5.687201878364082 8.536262270108002 15.208234715048494 -3 -2 -3
506 2 5.107752956112307 8.556256029543922 14.422492055081385 -3 -2 -3
322 1 12.077078794062826 7.5080586255502455 15.494766913670679 -2 -2 0
411 2 9.688956709028266 4.902135384680428 13.948999544767412 1 0 0
347 2 13.068525408581017 7.451929639513985 14.045695164091587 -1 -2 0
413 2 9.68422995312487 5.757176752153958 15.81070403630524 -1 0 -3
549 2 13.05976036467315 6.54471779232023 16.10322039046761 2 3 -4
324 2 11.309994918246154 6.919772351104055 15.273775333912624 -2 -2 0
412 1 9.846551016687247 6.177196725877738 14.960634667011368 -1 0 -3
323 2 11.691873670175204 8.423399842196758 15.701115938166641 -2 -2 0
414 2 9.048333902608226 6.664022384404149 14.677953848165329 -1 0 -3
241 1 9.824560213918655 5.104465513614617 17.5599933196609 0 0 -3
546 2 15.797879774305809 7.9294515337231815 16.102185401078728 -2 -2 0
189 2 17.21101511084374 7.201917839270243 14.992031005488213 1 -3 -1
544 1 16.17059066965904 7.087283267864423 16.197244146510883 -2 -2 0
188 2 17.394295251386566 8.12521231288396 13.872532158671302 1 -3 -1
545 2 16.66146386056831 7.02881616986393 17.05537323256483 -2 -2 0
548 2 14.69156637489857 6.308801515742163 16.13551156586917 2 3 -4
547 1 13.816312861424738 5.911607056212389 16.29682397657004 2 3 -4
351 2 3.1204058515768973 11.568046041734444 2.60911031836997 3 -1 -1
350 2 2.4960050151663786 11.91938202807962 4.0747518101270055 3 -1 -1
349 1 2.3668539640703483 11.9362221591015 3.1215464990711355 3 -1 -1
317 2 0.8797961110165757 11.261223883696303 2.7426346591163475 1 -2 0
91 1 4.44035542714824 10.871540246642125 1.327090838555732 0 -1 -2
93 2 4.19326060096895 11.33815236869014 0.5184924653995647 0 -1 -2
92 2 5.3963174779410235 11.062682940866488 1.5409412346322755 0 -1 -2
246 2 7.023405953799906 10.933351420991672 3.0037419227702484 -1 2 -1
244 1 7.0209238592292 11.268414541442398 2.105894900374169 -1 2 -1
245 2 7.647874095584575 10.662054798505084 1.6604290128106505 -1 2 -1
307 1 6.663228355502194 10.147077159361489 4.603025161450691 -1 -1 1
476 2 7.573040586092087 12.997758108744533 2.295314754846737 -2 1 2
309 2 5.978412298119235 9.719202204119922 4.072563417223113 -1 -1 1
511 1 8.371856906762254 9.321391040877625 0.43711239895934567 1 -1 4
339 2 12.26364618322652 11.165664312007475 3.469030401525081 0 2 1
271 1 12.524569351121924 12.022306034285178 1.5560924674822532 0 2 2
337 1 12.098825769770997 11.046071734403217 4.415332272196923 0 2 1
272 2 12.359296347113522 11.087661761578149 1.177254597027742 0 2 2
268 1 12.38707994327636 9.465035138029602 0.9071464874165166 -1 2 4
279 2 11.833921027626895 12.934060521116546 0.40309102353682014 1 1 0
269 2 11.610256848638993 8.958923593022357 0.7441163883927907 -1 2 4
270 2 12.971401250334218 9.075848720489919 1.5895973852000427 -1 2 4
273 2 13.524882742575983 12.037761894690448 1.5625130714199684 0 2 2
316 1 17.690073704440167 10.92373236171478 2.1938675775062615 0 -2 0
318 2 16.839029529074793 11.346936776303801 2.386092161475601 0 -2 0
71 2 17.317093410568837 9.182687458448289 2.1153115081273874 1 0 0
163 1 15.398589828102825 12.39210760809817 2.1691406715049557 -1 0 1
165 2 15.273308966514655 12.63817893677283 3.1095935215387933 -1 0 1
489 2 17.25546441886758 11.005107973878333 0.5094898903669616 -1 -2 1
371 2 1.0223645308035214 14.166524629204066 0.6251897143810119 2 3 -3
500 2 2.1830631991815648 13.686586041397364 2.554794911668431 -2 -1 0
501 2 1.287653678579655 15.009651840913987 2.808937244621444 -2 -1 0
499 1 1.7455933337393934 14.466746336228843 2.1403309636504235 -2 -1 0
237 2 3.072676543195053 15.360573975705423 1.3682919462997025 -1 0 -1
223 1 0.2535781679745883 16.516621003702078 3.3327477756459554 2 0 1
235 1 3.855914472490462 15.949354198456842 1.1817546659783909 -1 0 -1
225 2 0.9067041663291872 17.245645331850525 3.475759539143593 2 0 1
236 2 4.3112120950398305 15.596969196324501 0.38670128853326 -1 0 -1
392 2 8.455676832008574 13.6182024425191 0.473955579028359 2 -1 -1
101 2 5.133118325249806 15.6903852780062 2.522439151132445 -1 2 2
475 1 7.889869292489973 13.923230073124017 2.143124501395744 -2 1 2
102 2 6.4902820912505685 15.008741847341835 2.6989134345821615 -1 2 2
100 1 5.859724579000394 15.658788608145477 3.106613908278947 -1 2 2
477 2 8.825110797402276 14.066176690286232 2.3246709450420395 -2 1 2
315 2 6.241360946145616 17.449120807053387 3.846319001006145 -1 -1 -1
529 1 9.82990954572936 17.319986786402463 1.1149837963161757 -2 1 3
73 1 11.52183961093566 15.881414662971572 4.363833865070351 -2 3 4
74 2 12.360155043746358 16.277175331635426 4.095419448531465 -2 3 4
75 2 10.801067105863579 16.600628336685475 4.2729820027876855 -2 3 4
530 2 9.755756592868172 16.441561016585137 1.5840431998683926 -2 1 3
5 2 10.892443121891683 14.94835698317388 3.115930769091532 0 -1 3
4 1 10.284231261189449 14.83844839467503 2.346220292357844 0 -1 3
6 2 10.783176307604357 14.413067313295102 1.5814329144002837 0 -1 3
364 1 15.85156702118502 17.318291583545204 1.7807115143993046 -1 0 0
224 2 17.08389731784619 16.873993734658598 2.784220053364739 1 0 1
164 2 15.538846047979419 13.226512292172204 1.6491208064394685 -1 0 1
64 1 15.690548706381229 14.698284756371182 0.7664127868213574 0 -2 0
366 2 15.778327285324469 16.509925938542807 1.258169218702896 -1 0 0
65 2 16.582935566107494 14.48705922116212 0.34195090814433754 0 -2 0
447 2 14.680934715711324 17.44317876214495 3.2247176288188126 1 -1 -3
497 2 4.224317509407744 10.74807335381913 8.887312577062254 0 0 -2
25 1 2.907357864661505 9.664339297077706 8.665389487249648 3 2 1
421 1 3.0218794419390322 11.76310491130324 5.682905283695397 0 0 5
422 2 2.5995119031018596 10.956749585943792 6.048737600475935 0 0 5
423 2 2.6173511972426193 12.607998539827783 6.0623319787872 0 0 5
356 2 2.349301431876895 9.190906539767965 7.165537889264016 -1 1 -1
355 1 2.182567240855845 9.270165658643023 6.219829846707385 -1 1 -1
357 2 1.4181872362808658 8.772915735823261 5.955635162177894 -1 1 -1
27 2 2.0092535679472303 9.888600690673828 8.986932578008608 3 2 1
26 2 3.1035744581001974 8.762850221830474 8.923722754178458 3 2 1
383 2 8.704467878617042 10.701574332878034 4.731902783486419 0 3 1
77 2 8.451672342001375 13.01491586239409 5.904701872935963 0 0 2
438 2 4.575350158033276 11.938796893237365 6.1089372998091624 2 2 1
308 2 6.18858404423765 10.70629156235518 5.270946847595515 -1 -1 1
13 1 8.697240377099561 10.170265627996981 7.671471751100036 -1 0 -1
436 1 5.557597935611287 11.854918284357899 6.351656297168851 2 2 1
437 2 5.590528838629256 11.607649272806743 7.321176507659194 2 2 1
78 2 6.953910174313127 12.752023531753114 6.361978688558333 0 0 2
15 2 8.950859271894123 10.689677454771568 6.855527597510562 -1 0 -1
14 2 8.432592671348688 10.815878670079536 8.395666281640885 -1 0 -1
107 2 7.701866132365129 8.891299748968722 7.225873232611547 -3 1 2
496 1 5.073064838387664 11.189965114168654 9.09345525905122 0 0 -2
384 2 10.181888436296122 11.12209473461785 4.960439960787129 0 3 1
382 1 9.263155116332126 11.267035236236241 5.269295435855756 0 3 1
222 2 13.141806389733985 9.332405303189352 4.829251848788409 0 1 2
23 2 12.502820950867973 10.785920857945854 8.690729458331164 0 -3 2
22 1 13.160275756020956 11.48762354806945 8.496863932697199 0 -3 2
338 2 12.439620528113585 11.861445893328366 4.876912700109263 0 2 1
326 2 10.44652422773973 9.61499087218546 8.116565410092084 0 2 0
458 2 13.217785850560338 12.450663664903528 7.045072291220484 -1 1 -2
325 1 11.253612202594622 9.52437084565266 8.624157244036738 0 2 0
494 2 14.769763851102187 12.839247679872999 5.5282667572777715 -3 -1 1
457 1 13.383151524801516 12.863980041205547 6.201551778834191 -1 1 -2
493 1 15.618532159962552 12.685056336210586 5.007118919449361 -3 -1 1
139 1 15.753021635826533 10.68519916848958 8.658998403544318 2 0 -5
221 2 14.596321014602005 8.978972421878437 5.255973228638672 0 1 2
9 2 15.664987676049286 11.106988535368018 5.621844073455626 -2 3 -1
7 1 15.653902210106702 10.190373270410543 6.000006738866754 -2 3 -1
8 2 16.435520999617655 9.795935404867196 5.55002139125172 -2 3 -1
140 2 15.928817196407309 10.861239047468722 7.732344107467053 2 0 -5
24 2 14.108409817269266 11.126561030339955 8.542997140902056 0 -3 2
141 2 15.971796505455197 9.703749541813815 8.694058302490367 2 0 -5
128 2 1.6666657686234254 14.106079614749651 8.346544549972542 2 0 0
556 1 1.6467016299974135 14.125808376296451 6.672393652904941 2 -1 0
375 2 3.1274290844201054 17.006455953715996 6.175580314391706 -2 -2 1
373 1 3.2746033946233664 16.17592722295149 6.673941844502842 -2 -2 1
558 2 0.7884772677198478 14.227350656206296 6.151067400533164 2 -1 0
557 2 2.239086329568661 14.851666118647936 6.381744262293251 2 -1 0
522 2 3.155926982268304 16.965400928348522 8.334926370151546 0 -2 -1
374 2 4.2129595844372005 15.921859141459393 6.415227277538824 -2 -2 1
432 2 5.722993098381381 15.418478757176715 4.958135811034321 3 -2 -2
76 1 7.7264705355464125 13.362002256415156 6.439170557504272 0 0 2
559 1 8.036419083081535 14.159386532584227 8.890169083795376 -5 0 1
561 2 7.979107798781497 13.81344780766213 7.943630496361738 -5 0 1
190 1 6.897865212141159 16.71374863528577 8.365760699797542 0 0 0
431 2 6.437502711967601 14.58362824680232 6.152416152813405 3 -2 -2
430 1 5.831894852186042 15.322382887237707 5.962607971453696 3 -2 -2
192 2 6.5216343273999415 16.592252331877816 7.5034370419818845 0 0 0
191 2 7.357999748013043 15.876706120779257 8.475618078200233 0 0 0
63 2 12.072004962575685 15.55389977146266 5.99919381979172 0 -4 0
62 2 12.85401419929141 15.964682947459725 7.280445839988174 0 -4 0
554 2 10.682030947266501 15.486499142056216 8.115614840723271 1 -5 2
61 1 12.31746055752621 15.253150554622657 6.9480412188543434 0 -4 0
395 2 9.27395572395218 17.50279267132914 4.84053661633031 0 2 1
553 1 10.425214808197953 15.538667046649792 9.04632520332933 1 -5 2
481 1 14.23404848363692 16.930508779811568 8.163982325477658 -1 -4 1
353 2 15.78293776388704 16.713731192815533 7.891285234998711 -1 6 0
195 2 17.380907445279448 15.637473387658751 4.727595003447254 1 1 1
495 2 16.113884481895468 13.532149781758791 5.224894987038783 -3 -1 1
194 2 16.780582693384602 15.52553396382174 6.24077769254973 1 1 1
482 2 14.201679013394429 16.40673773234332 8.994216523145788 -1 -4 1
459 2 13.347397986534038 13.812075700325293 6.3446171448033475 -1 1 -2
352 1 16.724159221616652 16.416524368064206 7.833774846671439 -1 6 0
193 1 16.97654004439508 15.015140478286572 5.4032180671819265 1 1 1
354 2 17.23475558428938 17.182966983032024 7.672706478034779 -1 6 0
480 2 2.130818643494924 10.862287640226208 12.992748559143289 -3 -5 0
57 2 3.8907386803363986 9.832647769905824 13.285801130415713 -1 0 -1
518 2 3.577638095354794 12.397697327671716 13.09120207178424 1 0 0
465 2 0.91203645304981 10.503856710804056 11.130590655311764 0 4 1
463 1 0.8826108399565413 10.061126134666033 12.036132316527322 0 4 1
397 1 0.8396008432343238 11.250692523720339 9.538628243307942 0 4 1