LAMMPS data file via write_data, version 8 Apr 2021, timestep = 1753000

1008 atoms
2 atom types

-0.2171980653913296 20.889724722617675 xlo xhi
-0.2171980653913296 20.889724722617675 ylo yhi
-0.2171980653913296 20.889724722617675 zlo zhi
0 0 0 xy xz yz

Masses

1 16
2 2

Atoms # atomic

441 2 17.194746136733862 4.251385606339975 6.644213797443788 2 -1 0
206 2 11.94105008361065 6.437721162835884 6.436136188506708 -1 -2 1
535 1 5.478355173538622 1.1344412806293165 9.109341020622972 0 -3 3
755 2 4.441571213835212 4.3053566166723005 10.283055223107645 0 0 3
989 2 3.574065907080046 3.7531664819872086 0.5807290182235448 2 0 1
948 2 1.90396594268515 9.072587052507755 8.312042522598391 3 2 2
79 1 1.9706117292656609 3.2366076711142573 3.2302336013315136 -2 -1 -1
725 2 9.649598056538478 3.448291569018834 8.063757289554834 0 2 -1
233 2 6.923847337270728 6.514762165792347 1.408541685016595 -1 0 -2
274 1 8.166503720575589 7.999676112595237 7.487687546422664 0 -3 -1
749 2 12.167730479700364 9.991019112582796 4.333139197804406 1 2 5
866 2 1.4120498009387075 5.4410385176335385 5.780097909506239 2 2 4
395 2 15.785907035510306 7.972249235135935 4.073974875061321 -2 1 0
141 2 0.4336245034810209 5.994380620025353 1.1984475706943667 1 -3 -1
938 2 7.548892136285592 0.02818627988326708 6.882133678180553 1 2 1
818 2 8.559545461887804 8.274484531804891 2.660294845576378 -2 1 1
750 2 12.227579666711604 9.60347755236293 5.867528569572867 1 2 5
706 1 9.42453069383228 2.5941214442887475 1.0298014045939057 -1 0 0
607 1 17.205158755669746 2.883670655211954 2.0537075842827135 0 -3 1
807 2 15.441734436634 0.6048163937200579 6.367082127176729 -2 1 1
10 1 10.431587988746331 7.530006782658817 9.076868522984078 -2 2 -1
136 1 20.085981425899234 3.1952220688301094 5.432010227779018 1 -2 3
253 1 6.091802118296524 9.16936392584578 8.958710572516948 1 -2 0
609 2 16.853518621725662 2.092645700614229 2.4774033504961603 0 -3 1
817 1 8.506038349598846 9.300326636460683 2.8804964797129013 -2 1 1
232 1 6.090825816618853 6.583038852907784 0.9091242574396591 -1 0 -2
370 1 12.867916766830296 8.555046802788542 9.747005443062214 0 -2 1
276 2 7.390929958804927 8.346411813117456 7.938207589769531 0 -3 -1
32 2 4.421663699560114 7.0965985405990155 10.234327919680561 -2 3 -1
323 2 4.967038514270473 7.63349068824047 2.145306344347579 0 -1 -2
998 2 12.395419217248458 3.964360769190641 3.036128783387666 -2 2 1
383 2 20.184240400365404 1.6266659904840701 5.5658905483250125 -1 -1 0
1006 1 0.16215365366176007 8.296229788556463 4.281116134668081 1 -1 1
608 2 17.364210111473348 2.6117750629665375 1.1562324940188353 0 -3 1
560 2 0.5760863754316097 4.132132223883149 9.1397582989468 4 1 1
419 2 12.168964398849626 6.101776439405016 4.041517747817247 -1 0 2
104 2 1.0603568835035246 9.844040446279095 3.6684166336649504 0 -1 -1
432 2 14.134774086044423 5.7565133766050804 0.13040612053880143 -4 -1 1
828 2 17.71936913305801 0.11159276054266268 3.9594908133455196 0 -1 1
12 2 9.577640788248397 7.695197552940878 8.607903540365115 -2 2 -1
654 2 20.684550352236062 6.910836623338112 3.1120739029543163 0 0 0
246 2 19.0422728760362 7.436969736716155 2.036642602316037 0 2 1
914 2 14.462242943661625 7.562261837793996 10.241166927431093 -1 2 0
338 2 4.51662492337899 6.389105952659511 5.308809410545911 -2 -1 1
473 2 20.804012086146855 0.5886550732707277 2.1925830146111083 0 0 1
270 2 5.055242743527144 9.549319314275134 2.8942789651386005 0 -1 -3
497 2 0.7062335046207089 2.60102178201991 1.8878366266620068 -1 -1 -1
118 1 12.590135910381898 1.1085195900021254 6.354910320031611 -1 0 -3
611 2 3.371727949073179 0.4812503949805532 2.806411581964438 -1 3 0
53 2 0.2291159892422732 6.1443077022199875 9.415833595730497 2 1 2
708 2 8.855766306401271 2.9548509505810188 1.8017929570319549 -1 0 0
339 2 4.244042638201379 7.540738381791803 4.2101398376795345 -2 -1 1
265 1 5.555736724626793 3.7810362175794694 2.785406550767369 1 1 -1
47 2 5.977188144930163 0.5616461352588419 2.4808840495771483 1 -2 2
972 2 15.899497015335417 -0.10946568239374645 3.3388748215805855 2 -1 -1
36 2 14.625884043791315 5.875831966450301 8.831138159664746 -2 3 -1
267 2 5.451895159924194 4.202952072374394 3.6452979771208267 1 1 0
52 1 0.0074956540587722 5.385171455617995 9.964533064140952 2 1 2
655 1 15.28439240738896 9.558516342804895 5.098187785263187 4 -1 2
275 2 8.514068801102757 8.679969326698872 6.856823438959719 0 -3 -1
344 2 8.098105547973224 4.889850422112492 7.279913201912053 1 2 0
910 1 10.591944935769254 6.633806364860877 -0.17745198336081208 0 0 1
138 2 19.38056473610689 3.6569774637716606 6.0193331232855165 1 -2 3
127 1 3.540123630975308 3.37536331870161 6.750490799240267 0 -3 0
970 1 16.196281112653995 0.8005977157821415 3.5145664869697035 2 -1 -1
76 1 14.09407699304579 9.181382937638228 1.4247496322493889 -1 -3 0
674 2 17.797573515117232 6.317597239709353 0.8965906388361092 0 2 2
67 1 8.82197050603715 0.6579230235869651 4.386512062891819 -3 -1 2
394 1 16.33767562314547 7.2532901839220605 3.918251025300841 -2 1 0
69 2 8.708570570403849 1.602354032384741 4.069654433703415 -3 -1 2
55 1 19.69426651272951 3.9037549200181747 2.8781586327012603 -4 1 1
382 1 20.300035337095338 0.6625633339009332 5.739740411607094 -1 -1 0
493 1 11.90108825498455 2.2519072087612186 2.3292780037474343 1 3 1
785 2 14.079352754126857 0.8884256667870177 0.03214837109790009 -1 1 0
789 2 4.661829816724407 8.632721771955305 6.190257283723881 1 1 -3
980 2 16.282772503777622 4.121640481435955 3.3368988559706807 1 2 1
647 2 7.140067210896037 1.3440053131218492 8.50936577417886 2 -1 4
56 2 18.83445797115332 3.5908954429077524 2.581735653419961 -4 1 1
337 1 4.217505926731795 7.327543467790786 5.163359058468589 -2 -1 1
848 2 10.567388391070342 9.881319848329806 8.942492685851207 1 -1 -1
444 2 7.31038805114947 3.3352408960780147 3.1142208847693915 3 0 -1
936 2 13.851180400382441 4.600923881683155 9.822296051979453 1 0 -2
139 1 1.2786019223554466 5.923557702532438 0.6473695837171152 1 -3 -1
566 2 1.782915631065421 7.337050817637282 6.97725799775 -1 -4 1
464 2 2.340481147070707 -0.0246186253479036 9.71858769419731 2 0 -2
646 1 8.056358882148201 1.2823019400884577 8.171082642489807 2 -1 4
847 1 10.182088408365619 10.14255660060864 9.84680216232442 0 -1 -1
324 2 3.5087471885825807 8.112618879760067 1.8989512950567309 0 -1 -2
567 2 2.6414416772877978 7.188618200714902 5.717367313475656 -1 -4 1
418 1 11.679397234316534 6.669577324243541 4.6232179885248295 -1 0 2
686 2 11.92130380655529 0.46500653637165756 4.771318921673096 -1 -1 -1
805 1 15.125104300231689 1.318491845709931 5.765407558196432 -1 1 1
244 1 18.088674201419245 7.726868772843021 1.9405685806986135 0 2 0
678 2 17.36772764785168 8.638496452798343 0.259997312455291 0 -2 2
128 2 3.8129271170443637 2.4517434394007913 6.582493593711988 0 -3 0
124 1 16.284223860241177 0.7481171450847599 9.542836740435497 1 0 -1
327 2 14.918499672871569 3.4283147502130635 -0.039502443712613466 -1 0 0
656 2 15.573939179965908 9.759204285920013 6.06470212128479 4 -1 2
343 1 7.859233102963021 5.534589911425995 6.566717999747152 0 2 0
891 2 16.535679524830247 8.137568560140247 9.229498592769763 -1 -2 2
20 2 20.682973991892357 0.0516738040637533 8.752650349669318 -4 1 -2
707 2 10.349312044649594 2.432903303450948 1.424630298297542 -1 0 -1
1007 2 20.653942859550007 8.750868373587739 4.8605990629941145 0 -1 1
801 2 9.126144435992757 9.764645762745293 4.936460226897106 -1 1 -2
312 2 10.043297751157514 5.933685229909219 4.740466417418268 0 0 0
207 2 11.424751875364556 6.717187716944328 7.855620487440186 -1 -2 1
129 2 3.379666446064704 3.398875970597568 7.714771381267901 0 -3 0
669 2 11.20611801054115 4.293350637962603 6.840354403809748 0 2 0
971 2 15.77222378199734 1.1103988838654901 4.3218077136765105 2 -1 -1
420 2 11.929846042086147 7.610850529678332 4.479472311182559 -1 0 2
291 2 19.791059597702446 8.359434360208773 10.191865063462265 2 2 1
234 2 5.744691925939289 5.668501512880125 0.7992585025169036 -1 0 -2
439 1 18.095393164434064 4.533434066816095 6.871797498069896 2 -1 0
318 2 19.273502710201594 1.7149252747120431 9.278194114996197 0 0 0
310 1 9.244099298425013 5.444778857146457 4.48571825039395 0 0 0
35 2 13.485387951680146 5.59979446415891 7.8727788234564375 -2 3 -1
756 2 3.6188972692108496 3.0666926960934857 10.057240562853748 0 0 3
97 1 8.508259431626286 6.798862717338565 2.1247714260104256 3 -3 0
889 1 17.07010571657486 8.68811932628984 8.664819243523995 -1 -2 2
443 2 8.632611972109695 3.8524042051016094 3.8812458331879878 3 0 -1
653 2 19.96187709094182 5.503667916217638 2.7242226719604066 0 0 0
398 2 3.4043325353291825 10.193278755480758 7.201494311842976 5 -1 2
325 1 14.260988219228834 2.7365574487700366 0.21301126199045117 -1 0 0
119 2 13.534503203752047 1.2955709212501523 6.203695442597827 -1 0 -3
74 2 19.012548567310755 3.9683869861762844 0.16968963121920214 4 -1 -2
667 1 10.916721708069925 3.4548540527617915 6.510939062963621 0 2 0
81 2 1.939195532243638 3.7065375576521453 4.073730682367848 -2 -1 -1
610 1 2.655671057864832 0.5568512436930748 3.436688007388838 -1 2 0
98 2 8.852599221069761 6.346229997998005 2.906375995640281 3 -3 0
747 2 5.252233506849839 0.7083216493547414 5.371824821761416 1 0 0
461 2 4.8548003731215355 4.141976497794293 5.910858183279065 -1 0 1
416 2 -0.19740664766685562 10.263089664561097 6.574820170142875 3 0 0
819 2 7.563691297534284 9.638552500968398 2.891863864960886 -2 1 1
955 1 18.557445589573543 4.459698726889605 9.737090549597156 -1 -1 1
254 2 6.436566160315562 10.038769361233939 9.293249638658109 1 -2 0
770 2 8.101194895851982 4.346121247388386 10.173800632104651 3 0 0
612 2 2.3541118848177134 1.4838554230953072 3.4683116288312075 -1 2 0
799 1 9.237729306634819 9.932300087171933 5.902372342321299 -1 1 -2
746 2 3.8184916903634782 0.7271981047289396 4.922761006145342 1 0 0
913 1 15.210832200007406 6.997451304486756 9.93429394248382 -1 2 0
290 2 20.81051212373043 8.877303356098526 9.236024043307909 2 2 1
981 2 15.94832753904646 5.673018204818142 3.6660463624435957 1 2 2
546 2 1.6941117923053994 2.450020834304687 9.976971260829327 0 -2 1
787 1 4.877489946191663 9.551546240232078 6.595286930157932 1 1 -3
691 1 19.303814695156326 9.568915727079503 6.607777931417809 0 -2 0
668 2 10.272121261698265 3.681581368197311 5.7903446938635845 0 2 0
947 2 2.2846702515805672 7.846663351536693 9.196385212382905 3 2 2
99 2 9.171830156464894 6.624227493710072 1.3845054550947424 3 -3 1
322 1 4.235276829009522 8.136570750625625 2.580850547760593 0 -1 -2
956 2 17.77833888581309 4.813678457949335 10.2486446196162 -1 -1 1
692 2 18.974666352518042 10.14602131432455 5.916626181323039 0 -2 0
34 1 14.307345774374191 5.202919982809861 8.209804732811696 -2 3 -1
946 1 1.5303202006567942 8.185128594780963 8.645063261162548 3 2 2
449 2 18.14089350610629 6.167169967355759 6.384722207954114 -2 0 1
31 1 3.8957914248017698 7.950337454010866 10.169816461476724 -2 3 -1
11 2 10.337635055888343 7.022825380441986 9.883077873898696 -2 2 -1
68 2 9.780040682389542 0.3900378430438869 4.3383703991714615 -3 -1 2
498 2 20.546994975789712 2.30081664131214 1.0595758085060676 -2 -1 0
748 1 12.440344627338321 9.302569561404576 4.9741582010739185 1 2 5
77 2 13.909433225215885 8.276942965121373 1.7403731263124955 -1 -3 0
912 2 11.513945600797527 6.645792286706482 0.14242638311818914 0 0 1
137 2 -0.17622518934104262 3.7375544375957404 5.4843358399892095 2 -2 3
988 1 3.495150550445561 4.474415655490968 1.2687562063188034 2 0 1
533 2 1.8931476440959967 0.6525819181700507 0.6633554114985685 -4 1 2
451 1 2.585860479693118 8.275066397544037 0.49901896931589473 -4 -1 -1
990 2 2.7111688653057935 5.0186843297718795 0.9075321672536262 2 -1 1
865 1 1.326451874744455 4.461698947099041 5.640026879580021 1 2 4
494 2 11.66694862564654 1.4054395652990725 2.813025310275458 1 3 1
496 1 0.26575699182654544 1.8438339926710758 1.370056700603174 -1 -1 -1
979 1 15.688970088956866 4.716899506107777 3.814757349056273 1 2 2
537 2 5.2145029155652525 2.01630852251795 9.471299666782988 0 -3 3
867 2 1.9365299767623834 4.02268936655833 6.25819795718949 1 2 4
536 2 4.635268222730051 0.6154391596510922 9.034410181752806 0 -3 3
890 2 17.52041891986639 8.080068941327642 8.069273009693081 -1 -2 2
311 2 8.70512936138519 5.587034949125672 5.3241443381969695 0 0 0
714 2 5.102207853494361 1.0924602827095071 0.6850011234750678 -2 0 3
519 2 10.15267565493798 10.041375506706496 0.38008819675649164 -1 -2 -1
372 2 12.006569333212356 8.215054991966468 9.46565289214167 0 -2 1
460 1 5.4363504655494035 4.651267877757239 5.299419830120314 -1 0 1
245 2 18.21184132180433 8.68084630416392 2.1187732044371073 0 2 0
745 1 4.38856488465028 0.9880111463684312 5.697778828212834 1 0 0
48 2 5.193517584982004 2.048552600744495 2.581310832865502 1 -2 2
80 2 2.639005280125627 3.6086062903865224 2.630868854091393 -2 -1 -1
46 1 5.166388094116573 1.0897236174655374 2.321452952936221 1 -2 2
442 1 8.263600386362173 3.1383109634649577 3.3141019510686984 3 0 -1
693 2 18.85982010219579 8.719071186890252 6.518964945828029 0 -2 0
788 2 5.45994974842404 9.501707456903189 7.372058001883259 1 1 -3
440 2 18.281176021977366 4.408160308878932 7.811363119641992 2 -1 0
673 1 17.823218645191226 5.599894700579889 0.23319553640326074 0 2 2
999 2 13.86604498531002 4.518936055487502 3.180971256670487 -2 2 1
724 1 8.822987712283236 3.6754314679208493 8.480993761629556 0 2 -1
452 2 2.1330416935642638 7.432334583428512 0.563401527564683 -4 -1 -1
345 2 7.9281837208473664 6.497050555627194 6.981240294458869 0 2 0
396 2 16.846839671531725 7.567077406452237 3.141852178641118 -2 1 0
726 2 8.359703103791672 2.834737457767629 8.365813477415784 0 2 -1
205 1 11.90171367557464 6.035984657951348 7.336244991773742 -1 -2 1
78 2 13.962255248806322 9.115612011223988 0.4805072014638174 -1 -3 1
657 2 14.324579331884127 9.562214091666574 5.089247711755201 3 -1 2
213 2 15.347191295291712 4.26670734294645 5.521406601349307 -1 1 -2
495 2 12.591042804144598 2.0751666809835223 1.7349239754694348 1 3 1
559 1 0.7980403312305792 3.2664991938447394 8.68512819626549 4 1 2
652 1 20.331962112853482 6.35033758217416 2.3804401998599904 0 0 0
453 2 1.888239672089833 9.020227020156325 0.4156026580391682 -4 -1 -1
561 2 0.10931920959850108 2.560539291878335 8.7484986403188 4 1 2
997 1 12.914344124290563 4.790320901792524 3.0076621613926875 -2 2 1
211 1 15.539382101091602 3.8498996105133427 6.396924099120897 -1 1 -2
806 2 15.43462304031399 2.183910496035785 6.065690811294665 -1 1 1
212 2 14.964283782429531 4.24285004054074 7.059308784980934 -1 1 -2
685 1 11.43822088360564 0.1686248018246055 3.9973927529830506 -1 -1 -1
1008 2 0.7155050867329511 7.882651480496692 5.0282890486389595 1 -1 1
120 2 12.129857523177408 1.9832969001615106 6.4420384181559625 -1 0 -3
57 2 19.708982849569466 3.54260928029755 3.7812583142409175 -4 1 1
431 2 13.233386829447445 5.589807340476625 1.3508576720808982 -4 -1 1
255 2 5.446327822802748 8.796330654395087 9.50768719966917 1 -2 0
266 2 4.775491945709635 4.12816288061965 2.2480589424885595 1 1 -1
448 1 18.09036094347188 7.144342537826574 6.229089257623192 -2 0 1
430 1 13.542512602628252 6.253575700176827 0.7343099953594451 -4 -1 1
565 1 1.7362229472765396 7.001817666870359 6.0415627124701885 -1 -4 1
462 2 6.266825909046266 4.7794864756248066 5.814488886858263 -1 0 1
450 2 17.55729507696383 7.175820325192557 5.428281228239788 -2 0 1
316 1 18.579878006269883 1.942177064268831 9.987245543731555 0 0 0
317 2 18.691159267785977 2.8984845545509836 10.094937371863818 0 0 0
371 2 13.048712494030628 9.439984700751348 9.28156551721882 0 -2 1
289 1 20.074747558440723 9.171343692033743 9.771139187035418 2 2 1
225 2 10.678331529107732 10.013087390848472 6.831345476765135 -1 2 0
384 2 19.48442733638933 0.26225851889552576 5.337315466508078 -1 -1 0
21 2 20.231010068285247 0.9577243797131431 7.482096910480933 -4 1 -2
754 1 4.151577599547027 3.6834333159408366 9.584727312002654 0 0 3
648 2 8.595217613836276 0.7692514881831349 8.831215322014684 2 -1 4
126 2 17.10822385125794 1.3357668072991356 9.63792946602269 1 0 -1
223 1 11.378471102280109 10.180396184928066 7.449910334590784 -1 2 0
19 1 20.435790866361025 0.9933834602081447 8.435125714921302 -4 1 -2
636 2 11.723643344787524 -0.12044687151843893 7.5652501599282616 0 1 3
957 2 19.27006441441528 5.052495720625 9.976726473424634 -1 -1 1
665 2 16.431258497757664 9.9121707812841 7.8939636122850345 0 -1 0
125 2 15.588991652994158 1.3173654088433397 9.938426895049632 1 0 -1
585 2 16.047499311447996 -0.03718631171642717 8.180894474452781 1 1 1
474 2 19.72233529192043 -0.17296053813798132 3.000183328929925 0 0 1
939 2 7.923587080164571 -0.04381900220025592 5.489396056471587 1 2 1
518 2 9.387464036699756 10.32903129806845 1.7860725795054924 -1 -2 -1
194 2 16.043773676056173 1.1767944956667926 -0.13456838096872326 1 0 1
723 2 15.20964897630929 6.7423858602622415 19.319074916306572 -1 1 -2
593 2 18.72379725505323 6.168244498914213 18.38299976860293 0 2 0
784 1 14.011644515094142 0.17879353706339343 20.48632166551885 -1 1 -1
730 1 6.18042484781118 3.869660028359921 14.673520741728211 2 -1 0
475 1 11.640673723273562 7.485006498215212 13.854573300892412 -2 2 -2
595 1 9.480399168927631 0.1755859957856051 20.477203989836443 -1 0 -2
307 1 0.5677169802939714 0.9224320606056619 13.149038954216797 1 0 0
621 2 4.341919410766036 1.134610970541902 13.137439623747316 -1 1 -2
548 2 4.5188854787829085 8.959809138758011 13.476412790064117 -2 1 -1
992 2 11.324794675819593 4.296188316325405 14.72172184071692 0 2 -1
814 1 19.026404811929947 7.41984026303189 11.624585969556199 0 -2 0
638 2 1.8745987694292412 -0.032393178501508274 16.407098807716945 1 -1 1
975 2 2.643737807062658 8.007003963306863 18.49273625815767 -1 -3 0
935 2 13.713753894157323 4.889512268471282 11.389863220667046 1 0 -2
272 2 17.840760300094527 0.19292970335949547 14.523956771970884 0 0 -1
905 2 15.41332966703072 3.660761902814799 13.834244187112091 0 1 -2
16 1 18.95349898978938 6.677460925275563 14.84671571500874 -2 1 -1
277 1 4.641671411068258 2.957683847008494 16.76080051808741 3 1 -2
143 2 16.32270440265531 10.259856792485559 20.683606026132907 -1 -2 -3
485 2 18.348435048040052 1.7660292903889034 13.513325835956582 -2 -1 0
683 2 3.6909131459147644 1.96877902484556 20.578820866995148 -1 2 -1
294 2 14.326389561840882 5.517542114633058 13.200534391814866 3 -4 3
721 1 15.641844780914745 7.514143936363456 18.942778561440903 -1 1 -2
454 1 15.224996197132965 8.380596083244798 13.915965571451393 1 -1 2
758 2 14.4744042575901 1.761599769604388 14.020454055937742 -4 4 -2
209 2 18.53593208015196 2.8128127398546656 16.126089875137666 -2 1 -3
712 1 4.954293332526917 0.965407827610088 20.796362688560198 -2 0 2
193 1 16.997490871888395 1.3300749738661168 20.775661897391863 0 0 0
815 2 19.6544998749482 7.01717689948033 12.266866023957936 0 -2 0
1003 1 7.230076739959243 6.312692148981011 13.49191914061321 3 -1 0
974 2 3.0410139795051085 7.477271089196512 17.147466151987924 0 -3 0
619 1 5.085517075849335 0.6401042894491772 12.678503084141889 -1 1 -2
70 1 12.13912176447871 1.0263638742994892 17.663747586355395 0 -3 0
931 1 8.50708282153846 3.6267410961545155 15.94501600337566 0 1 -1
24 2 7.805043615280532 9.294646245188735 13.27158044767439 0 -1 -2
809 2 19.399926893900815 9.619390566254662 19.422914654364572 0 1 2
404 2 12.66205496454815 1.3290740717904619 15.785652207211143 -5 1 1
72 2 12.587517103400549 0.23028982185012523 17.949091479035342 0 -3 0
592 1 18.176882956198625 6.738217344677939 19.00263239567911 0 2 0
551 2 3.6533310455808596 5.700034624405433 14.30849938293097 -3 0 0
301 1 4.098104747215214 10.19589871860579 16.49479865042245 1 -2 -2
757 1 15.29563179109003 2.0138551833032743 13.526756783306833 -4 4 -2
27 2 6.46391899948642 1.8175394436050702 12.440229069134423 1 1 0
447 2 7.042807594449631 7.992602280848127 17.995248183147833 2 -1 2
868 1 19.188983820450233 0.7662101663274044 12.240767495572118 -3 0 -2
677 2 16.51256618651289 8.387950720990268 19.855144740972953 0 -2 1
641 2 4.759607747831069 5.58776673734354 18.42841258913522 2 2 -4
630 2 -0.17571907825279226 3.430482819480464 19.836203709189558 -1 4 -1
108 2 14.197140715105977 8.57431546974506 16.54603124568773 2 1 3
218 2 19.998782483741163 3.7577376154430993 14.226389134972495 -4 3 -2
550 1 4.069064365628385 5.2240257206098635 13.538902861765344 -3 0 0
88 1 10.486453365593631 5.29694370640691 15.951363797751867 0 0 -1
279 2 4.319117659489793 3.7750089435022414 17.166784810409496 3 1 -2
769 1 7.570952741421563 4.649422148552908 10.942302184946895 3 0 0
852 2 2.251889098025075 5.268782779326674 16.2382452614981 1 0 0
964 1 8.262307808475047 0.8631348576944681 15.659654949209779 1 2 4
624 2 7.1083332554900736 5.485679683654984 18.61218498902602 1 0 -1
830 2 10.224322330958579 10.178158893613006 16.20083746428112 -3 -2 1
405 2 12.44662483441543 2.5121195498341304 14.724128815163395 -5 1 1
795 2 18.966665762535033 0.1423684624199603 18.649155328180257 2 1 -1
628 1 0.5408616265520511 3.0663861867680264 19.28566520343584 -1 4 -1
629 2 1.3256194729788542 2.960723597678679 19.796779435970222 -1 4 -1
488 2 11.921448871424447 3.680029422948372 11.144034549099272 1 -2 -1
195 2 17.36469712312107 0.5617707173167045 20.298208235263328 0 0 0
894 2 8.965659162599986 7.60331576348997 11.944311261154203 -1 0 -1
362 2 5.0199089499905485 9.090066690218759 15.346889754085792 0 0 0
522 2 5.058458375241349 10.004901347188357 20.11619045402448 1 0 0
18 2 19.007130155662804 5.734600773381753 14.657760000712289 -2 1 -1
486 2 16.838753105031962 1.9970765889927262 14.069864791106468 -2 -2 0
783 2 11.849773404018888 5.272969715423067 17.077155481903247 0 1 3
933 2 7.630584704435868 3.823881032852177 15.510896222385636 0 1 -1
994 1 12.865670913359676 9.133124768452367 12.379740511709418 -2 0 -2
39 2 12.42625824359505 2.4251137090690342 18.64057757871368 1 -2 -2
412 1 8.992811113987603 7.3630326423331285 15.563070649015057 1 1 2
959 2 0.3062707358872978 2.248250713309687 14.971824046086963 2 1 1
991 1 11.554878417325007 3.4904258238701353 14.194881767459494 0 2 -1
549 2 4.228346350103116 10.297321508773521 12.681278948055663 -2 1 -1
544 1 2.2395579528716154 1.970864028543365 10.727935514618807 0 -2 1
642 2 3.269898718697813 5.148321293073082 18.466771611566923 2 2 -4
904 1 15.62530357772013 4.611110134815509 13.931022394399182 0 1 -2
38 2 12.699461536486952 4.052948980344768 18.625835342977894 1 -2 -2
309 2 20.801384599828666 1.007034996221677 12.697596023743461 0 0 0
197 2 20.509240915702943 7.305449628800156 14.746757560309774 -2 1 0
903 2 1.3850317145230178 3.806519879823571 13.312539857749925 -2 1 0
885 2 15.797469405419907 4.553153539999556 19.38308434593247 -1 1 1
219 2 18.36314442794031 3.7545149293047855 14.05944779597741 -4 3 -2
966 2 8.216212818188831 1.844728938741213 15.754705371096689 1 2 4
44 2 10.853324843456825 6.865619163210091 12.543831611930877 1 0 0
414 2 8.455345509153634 7.970318302069153 16.12413882303271 1 1 3
146 2 7.103117230314718 0.08468895791889028 14.815841955675275 4 1 0
43 1 10.39604075831201 6.412838870710489 11.79606561975057 1 0 0
165 2 17.859780568602513 10.087362125517805 13.254594103510788 -1 0 0
381 2 19.59865565023812 4.606019450399504 17.12897101268239 2 -2 -1
89 2 10.033890453200474 6.151390353766368 15.856970103992346 0 0 -1
932 2 8.328701516346799 3.698132394454623 16.909298455725807 0 1 -1
308 2 1.168232236492174 1.0875357924130695 12.370395292700904 1 0 0
37 1 12.505989947487045 3.2866929440821995 19.22409017273679 1 -2 -2
391 1 9.744151250247677 1.2933785819437205 12.153540064300874 2 1 0
163 1 17.340711167896135 9.551960069649729 12.62387349209387 -1 0 0
896 2 20.789954818064192 9.17282184909402 18.03554063500655 -1 0 -1
836 2 1.1182187694326076 9.953831409580726 12.425772935939802 1 -1 -1
883 1 15.503646334404868 5.0990044219286625 20.20488485380549 -1 1 1
843 2 14.975677898316984 0.5132953931565576 18.955270306704413 -2 0 -2
794 2 17.53096412104929 -0.0467034317706046 18.23348158286912 2 1 -1
94 1 0.7346231579713594 6.660232477101917 12.174458673101581 5 -2 -3
96 2 1.0432027003759015 5.850140895703066 12.597192560781044 5 -2 -3
446 2 6.853331517610476 9.468935618934212 17.548396737776148 2 -1 2
471 2 14.059101711608678 5.160827345258556 16.46991420567637 -3 1 -3
403 1 12.838998536347786 1.6162175831299095 14.890146456596053 -5 1 1
363 2 6.182487666053366 8.28949846469783 14.885670665459436 -1 0 0
902 2 2.7783195174550146 4.149720684036615 12.797095027109558 -2 1 0
523 1 10.653230050725316 -0.011655393334880526 14.40123094122076 -3 1 1
529 1 12.496757460257477 -0.10768673239457999 11.475390587723718 -1 1 1
429 2 8.77104431239089 3.7359983387136104 19.046304916065786 3 1 -1
214 1 11.706301026248005 9.689373117766548 17.773156248213716 1 -1 -1
477 2 11.12033810102846 7.686078673081508 14.606771674172222 -2 2 -2
293 2 12.913020291545347 6.296725291896009 13.004231967460646 3 -4 3
422 2 5.804818200939536 1.172227338481758 19.296589210589765 1 -1 2
222 2 17.15659625952933 3.367571890732139 17.645330956711145 -2 3 0
303 2 3.992596489770306 9.315081968024582 16.942025605575818 0 -2 -2
106 1 13.826332132305964 8.185357580201563 17.33109707845052 2 1 3
380 2 20.116487536080307 5.9157022990986885 16.41661948761535 2 -2 -1
682 1 3.1923393208101123 2.7653029929326802 20.30893233765661 -1 2 -1
278 2 5.146404409695248 2.446576902716494 17.4144703983758 3 1 -2
456 2 14.533630848237253 9.01691243367273 14.210553223023329 1 -1 2
855 2 6.225898583518977 5.50599783671403 10.921921660446388 -1 0 1
413 2 8.288609103499486 7.030131823756123 14.992835822497106 1 1 2
428 2 7.540646898469458 2.968925888918482 18.664668557257773 3 1 -1
557 2 16.015584397553777 6.562212310849567 16.311100566411326 1 0 3
869 2 19.066771694363773 1.1736380051602897 11.34058721585568 -3 0 -2
487 1 11.056397649325215 3.6966495763226774 11.64154117039378 1 -2 -1
698 2 0.2656134004034536 6.026715845231778 18.519660541807013 -1 1 -1
455 2 14.841826179380373 7.734731998199956 13.374326110667623 1 -1 2
90 2 9.739385464232951 4.664090519155995 15.99410429345344 0 0 -1
84 2 1.4214623797384867 3.461052264907935 17.742058945890232 -1 -1 0
489 2 10.614600143512455 2.8671229328276513 11.685032995474693 0 -2 -1
1004 2 6.741972572663401 5.609965062701366 13.95326034097992 3 -1 0
710 2 17.59297658683209 6.338525429185446 11.742536447853514 -1 1 -1
196 1 0.3430635455172455 7.510536727436151 14.75544814436116 -1 1 0
545 2 2.3286449294646183 2.575341873515657 11.472979410762218 0 -2 1
521 2 3.6812669095087585 9.534853003684665 20.648978315637887 1 0 0
697 1 0.9355700215706445 6.4705513239773484 19.102137539657434 -2 1 -1
901 1 1.8594023169359557 4.094373860989747 12.480504210959362 -2 1 0
147 2 5.917799608285751 -0.05211557430102623 13.804383416173135 4 1 0
349 1 20.513173549596832 0.8990426393150323 18.230161569493845 1 2 -2
355 1 9.625987706782263 9.231697547466513 19.93519885465878 -4 3 -1
552 2 4.756781119165325 4.64668154163597 13.829556578333431 -3 0 0
851 2 1.786018449284062 6.663249796773264 15.38538454536109 1 0 0
897 2 0.881563425464866 9.184033495133635 17.009761143575467 0 0 0
33 2 4.010174813426313 8.40062770175555 11.040726587815618 -2 3 -1
210 2 19.416084655744246 2.5045841705560674 17.378364403306144 -2 1 -3
216 2 11.020681358772746 9.630793639963812 18.46243939467889 1 -1 -1
985 1 10.036404484663795 3.9935279823407006 20.01616079016078 0 1 -2
993 2 11.38424857819602 3.6035135870533894 13.271570227484503 -1 2 -1
469 1 15.042420205138841 5.145400745590249 16.311317303686288 -2 1 -3
837 2 2.3956700321295075 9.234222366978882 12.899279065056048 1 -1 -1
520 1 4.123228617886005 10.264141142632948 20.29817565220734 1 0 0
164 2 16.537866338147033 9.227924060676774 13.080503489396682 -1 0 0
45 2 10.489974409359853 5.454332045753346 11.967297700210437 1 0 0
26 2 7.988629485681196 2.1179913105561394 12.480482746466347 2 1 0
445 1 7.189598953622276 8.597952397631955 17.232168116539906 2 -1 2
684 2 3.674862484542763 3.169076489288204 19.60303000585637 -1 2 -1
83 2 2.5997683934886053 2.9163597991800465 16.96728909842672 -1 -1 0
906 2 15.451097221783673 4.822256782216805 14.861858821942215 0 0 -2
524 2 11.52856390325963 0.4201200026389159 14.512543145771389 -3 1 1
95 2 1.3039076589879486 7.472813733255972 12.381795530185391 5 -2 -3
711 2 16.82454196892258 5.181176167794355 12.478041531788485 -1 1 -1
556 1 16.522876939368803 7.320682707568381 15.958590277688042 1 0 3
476 2 12.034419696607127 8.360204055670557 13.5029344701328 -2 2 -2
379 1 19.905000412755538 5.561327843747668 17.301783098073972 2 -2 -1
423 2 6.2055459306502305 0.53317239908747 17.92133191114176 1 -1 2
292 1 13.814321545091955 6.148371087796302 12.627221338461325 3 -4 3
973 1 3.4306085969138103 7.884263785763602 17.933265860709067 0 -3 0
722 2 15.027527144396343 7.993691571193155 18.424986298346077 -1 1 -2
470 2 15.460917319429905 4.495557363297044 16.89040056418417 -2 1 -3
915 2 15.484799154093118 6.447447570932916 10.682892147119603 -1 2 0
637 1 1.3154845326897011 0.5361684078078586 15.839326655408701 1 -1 1
774 2 18.221603326789527 9.484880538367157 17.654231996716472 0 0 -2
773 2 17.248394883395385 8.752780548670156 16.686937911062067 0 0 -2
996 2 12.698592159223505 9.088817810807566 11.406527756143348 -2 0 -2
781 1 12.767888737180368 5.410029381908768 17.341335470304962 0 1 3
484 1 17.788947321485438 1.826964910763923 14.322336572610554 -2 -1 0
17 2 18.10172635929514 6.814437258514666 15.241892141287028 -2 1 -1
835 1 1.3866131233536094 9.18606895346727 13.006082412527187 1 -1 -1
640 1 4.166736461430843 4.812475056178384 18.47734113842797 2 2 -4
427 1 7.915753112383118 3.833158242114039 18.570514550421322 3 1 -1
842 2 14.956757484021878 0.4505540154006219 17.402711311871528 -2 0 -2
25 1 7.1091056151556975 2.512737932024596 12.423517293261872 1 1 0
217 1 19.206021747642726 4.271154532501893 14.015785731857319 -4 3 -2
326 2 13.522688653004217 2.8379430948650435 20.71302650380613 -1 0 -1
792 2 1.3270566437015963 10.223135993587928 14.722356464764337 1 0 2
771 2 7.209831342796135 3.8154227542234747 11.407708978932424 3 0 0
893 2 7.7399184552568885 8.234757302188273 11.474266743186412 -1 0 -1