LAMMPS data file via write_data, version 3 Mar 2020, timestep = 0

2016 atoms
2 atom types

0.0000000000000000e+00 1.7934322902818220e+01 xlo xhi
-1.7584754969384697e+00 4.6754635473854854e+01 ylo yhi
0.0000000000000000e+00 1.9073388412287574e+01 zlo zhi
4.5873070775313225e-02 -6.6738135422689346e+00 -2.2819122524829538e-02 xy xz yz

Masses

1 16
2 2

Atoms # atomic

579 2 2.7252384837463914e+00 2.2570473088660759e+00 1.4202165241102394e+01 0 0 0
223 1 4.9102517854556993e+00 5.2966997224936918e+00 3.5818351447781643e-01 -2 0 -1
995 2 7.6580941485576721e+00 7.2151738932551108e+00 7.7873386784820200e+00 3 0 1
654 2 1.6252329590156627e+01 7.1062626904324961e+00 1.9682187596265792e+00 -2 0 0
394 1 7.9711744778756932e+00 2.7950359995206835e+00 1.3170978540977043e+00 -3 0 -3
578 2 2.7135157151310016e+00 3.7896547752028047e+00 1.3847910219062168e+01 0 0 0
929 2 1.4250226272006682e+01 3.1942907051306264e+00 5.4375594357186845e+00 0 0 0
513 2 8.1988758408101994e+00 -7.6910902902724665e-01 1.5441438941631990e+01 1 0 0
705 2 -5.0461037138598783e+00 5.2637600269879057e+00 1.6293812417376255e+01 -2 0 -1
302 2 7.2549265313955535e+00 7.2280642707215961e+00 9.9654102535067934e-01 0 0 0
299 2 -5.4576905268494933e+00 3.1603727108800861e-01 1.6942755056251652e+01 -2 0 -2
896 2 1.2058018065122788e+01 7.7361018077749506e+00 2.0457265778818021e+00 -1 0 0
150 2 8.9078493959330594e+00 8.6474776379248404e+00 1.8969837849805682e+01 -4 0 -1
406 1 1.9158733413167921e+00 1.3470455075709391e+00 9.4426811070035797e+00 -2 0 -2
389 2 1.3823622391156754e+01 -1.3794740182856455e+00 4.7125099449573744e+00 -1 0 0
596 2 1.8816418656375706e+00 4.1898107059177221e+00 5.6209593652347092e+00 3 0 -2
191 2 1.4160597231176544e+00 8.9467393676855220e+00 1.1252565899143812e+01 -2 0 -3
745 1 1.2310805997487268e+01 6.9606215256706729e+00 1.3660412992872903e+01 -3 0 0
881 2 1.1849157831115225e+01 -5.0851106143555924e-02 1.0297859952569418e+01 -3 0 2
319 1 1.1098488071629514e+01 -9.9469439918726477e-01 1.4615451804647227e+01 -4 0 -3
53 2 1.0998709808497454e+01 2.1466707460283052e+00 1.0721422223105617e+00 2 0 0
575 2 1.0709855038614144e+01 1.0071100486061722e+01 1.4074458921345364e+01 0 0 0
609 2 3.1984016225682965e+00 1.9255761823835260e-01 3.7004061257266199e+00 -3 0 0
1583 2 -4.1288928145195412e+00 8.1292414874473051e-01 1.5279125888981767e+01 0 1 1
122 2 6.3789073488710661e+00 6.9435747060060944e+00 1.7465614912995779e+01 -2 0 -1
295 1 -1.4059352676040238e-01 9.3783086841313104e+00 3.1386140394946036e+00 2 0 3
407 2 1.1621758650579790e+00 1.7364921798145736e+00 8.8928156373147722e+00 -2 0 -2
707 2 3.8147166046943415e-01 6.6062831010628127e+00 1.1763357515761145e+01 -1 0 -1
972 2 3.2703262035821004e+00 6.7745008138346385e+00 2.4145271815553930e+00 0 0 1
448 1 6.0968626112724378e+00 8.6741883215549489e+00 1.0075470194292249e+01 -1 0 1
244 1 9.1070354939649132e+00 6.3289402369016940e+00 1.5463074185635525e+01 -4 0 -4
1002 2 1.1677531210906828e+01 -1.5178116032774716e+00 3.5819661552075037e+00 -1 0 1
687 2 2.4700591675160184e+00 -3.4656226318515593e-01 9.8051953681308035e+00 -3 0 0
84 2 1.0903048594776674e+01 8.2190193170418429e+00 5.8878645690939688e+00 -1 0 -3
165 2 1.0150336221043645e+01 8.8150503679377419e+00 1.0532307537382467e+01 2 0 0
301 1 7.4128545049732821e+00 6.3135697377442401e+00 6.2918415198606448e-01 0 0 0
149 2 1.4395266428814296e+01 7.9171819943377475e+00 7.9309154887081701e-01 -4 0 0
214 1 1.3636255062256581e+01 6.5581367608989680e+00 4.4635136932290758e+00 -1 0 -2
463 1 2.6636112721149758e+00 6.8858913751508144e+00 6.6020582020160328e+00 2 0 0
449 2 5.7498262104683739e+00 7.8078032233299197e+00 1.0421339634972286e+01 -1 0 1
524 2 2.5920785378600972e+00 3.3460336283026839e+00 1.0991269325989839e+01 -2 0 -4
585 2 -2.3999391395784273e+00 6.4503698544204937e+00 1.3500644827043114e+01 -4 0 -4
523 1 1.9722392903897035e+00 3.4401887795615647e+00 1.1723536361631206e+01 -2 0 -4
658 1 6.2697906563457551e+00 2.1210413625674187e+00 1.4978522644268789e+01 -1 0 -2
206 2 4.4072963118515629e+00 2.1300107570921223e+00 1.2509170473538893e+01 3 0 0
96 2 -1.2863524686487118e+00 5.7824516641933501e+00 4.0053760603127131e+00 -1 0 -1
441 2 9.0293375148075228e-02 4.1548876386432276e+00 1.5497017142294226e+01 -2 0 -1
904 1 8.5620326099504922e+00 9.1847039221083193e+00 6.0607987084374138e-01 -3 0 2
781 1 1.5720698094061434e+00 3.9262609111518927e+00 5.6275174141901152e-01 -2 0 -2
880 1 1.1462270959455605e+01 7.2677780458302088e-01 1.0815187543706918e+01 -3 0 2
626 2 3.0865757153557949e+00 3.8745619988304361e+00 1.6294377081545576e+01 0 0 -1
926 2 -3.6383849497560758e+00 -1.3132101259606730e+00 1.2026734910715550e+01 2 0 2
703 1 -4.4118796685333690e+00 4.7225961641394090e+00 1.5811825732072869e+01 -2 0 -1
382 1 1.5008251007249918e+01 5.0280586437473174e+00 1.6884951591840354e+00 -2 0 1
21 2 1.0077255132647460e+01 8.4655308290680917e+00 3.4810460114188202e+00 -3 0 -3
309 2 -1.5838771482013789e+00 9.5697169754415849e+00 1.3996725051234725e+01 1 0 1
54 2 9.5635517770220169e+00 2.2872037977903883e+00 7.5898592584078095e-01 2 0 0
672 2 -8.5369653657883982e-01 -5.5715887734113712e-01 8.5754486065052706e+00 -3 0 -1
689 2 6.0469944519809560e-01 1.2775875515267101e+00 5.3384171530485665e+00 -2 0 0
607 1 3.7599452023486508e+00 -2.5881997304952153e-01 3.1016186483907706e+00 -3 0 0
392 2 3.2764226499124391e+00 6.7667288372911347e+00 8.5435279275916169e+00 -1 0 -1
652 1 1.6596462353572374e+01 6.9314928174990698e+00 2.8234506542077376e+00 -2 0 0
52 1 1.0415901302081894e+01 2.2244697852330426e+00 2.7285694700544705e-01 2 0 0
356 2 1.0923682507164955e+01 5.4022531498886588e+00 1.7616765378289049e+01 -5 0 -3
477 2 5.0027350308783847e+00 6.7096339844005790e+00 1.2187615193063847e+01 -1 0 2
500 2 -1.2746649491603241e+00 2.6479990447572854e+00 1.1936009753226456e+01 1 0 0
761 2 5.1238407499654226e-01 -1.4492567807936938e+00 1.7880762818833770e+01 -3 0 1
806 2 1.0749911529912950e+01 5.3121603389089129e+00 8.0362808062406170e+00 -4 0 1
789 2 5.1665764098344944e+00 8.1503381897449447e+00 1.9766219748589604e+00 -2 0 0
810 2 7.5468426312469656e+00 4.6109028102244141e+00 7.8472756647677970e+00 -4 0 -1
930 2 1.5289322944410836e+01 2.8431304418829111e+00 6.5967398955104226e+00 0 0 0
702 2 4.8370740020952958e+00 2.4629543272019738e-01 1.6807240568344074e+01 -3 0 -3
501 2 2.9658154266892733e-01 2.4968477479617128e+00 1.1694968332929578e+01 1 0 0
625 1 3.3408655043206599e+00 4.1894681072464239e+00 1.7134949681173143e+01 0 0 -1
712 1 -1.7023371164423102e+00 3.1490101732768760e-01 9.9432542366081549e+00 0 0 3
101 2 2.5612752905736675e+00 6.6299982548169520e+00 1.4998219742456772e+01 -1 0 -1
384 2 1.5162830612045658e+01 5.5994194324644226e+00 2.4222776247875966e+00 -2 0 1
245 2 8.5994663832110092e+00 6.7644126101759188e+00 1.6154225983488075e+01 -4 0 -4
622 1 -3.5504528860554259e+00 2.9353803750635521e+00 1.7701932179663238e+01 -2 0 -2
624 2 -2.6242890627985336e+00 2.8866477062028748e+00 1.7888342781384349e+01 -2 0 -2
179 2 1.9076738825130342e+00 6.3793997302306913e+00 1.8573701541020302e+01 -3 0 -1
722 2 -4.2287711404520589e-01 8.7426743230486483e+00 1.7381987401883265e+01 -5 0 -3
494 2 3.3361416596048152e+00 9.9912567727208632e+00 9.6273904620392941e+00 -3 0 -2
503 2 4.5430637420845912e+00 -7.4198991060804831e-01 9.3060384710917639e+00 0 0 0
268 1 -3.8964951208120082e+00 7.6996943283793389e+00 1.5643394732175958e+01 2 0 -2
600 2 -2.3594627206433274e+00 4.9432433521352843e+00 8.9466012410523099e+00 -3 0 1
49 1 6.4980606871559203e+00 4.4213161451633178e+00 1.0879229184894577e+01 -1 0 0
183 2 1.2249322765716352e+01 3.9713654057633061e+00 4.5237953149476704e+00 -1 0 0
464 2 3.2160959146798485e+00 7.4579453092969104e+00 6.0345115867296419e+00 2 0 0
393 2 3.5618406973524812e+00 6.4815725697946505e+00 1.0038766942857150e+01 -1 0 -1
1582 1 1.0696022731374107e+01 9.2261474844939126e+00 1.3596738172506868e+01 0 0 0
671 2 -7.0086780356479861e-01 -2.8241438474509817e-01 7.0553229629030945e+00 -3 0 -1
135 2 -5.9692416900557577e-01 3.2033551899593427e+00 8.5571633712107982e+00 1 0 -1
778 1 7.4201183388592717e+00 7.7645618861507142e+00 4.1181559013186000e+00 1 0 0
977 2 5.3447049643531583e+00 -1.3299989377234160e+00 1.7883157734768968e+01 -3 0 -1
598 1 -1.7429882198649846e+00 4.8310551203763730e+00 9.6986263356755078e+00 -3 0 1
120 2 5.3252857811666123e+00 2.6128336143089319e+00 3.2857745563011989e+00 -2 0 -2
858 2 -1.9347762002277444e+00 7.7023658961403338e+00 6.8416088867573075e+00 -1 0 -3
640 1 3.2028271000832653e-01 6.5834220188969930e+00 9.1260389473953865e+00 4 0 -1
753 2 8.6608080652997970e+00 4.6896820176377494e+00 1.5213493896371265e+01 -1 0 2
777 2 1.0596377420344190e+01 -1.5354287705070191e-01 4.0967677100871436e-01 -2 0 2
119 2 4.4408817339008575e+00 3.8406711867556940e+00 3.4320724039214010e+00 -2 0 -2
525 2 1.8033678355319056e+00 4.4180507819683656e+00 1.1741479685822343e+01 -2 0 -4
495 2 4.6706701394157006e+00 9.3740617207122483e+00 9.1254838084456509e+00 -3 0 -2
971 2 2.8331574981909826e+00 8.2936296855656231e+00 1.9768775424542824e+00 0 0 1
539 2 2.0398205833160445e+00 -1.3595096695862019e+00 5.6228221861426197e-01 -4 0 -3
212 2 1.0509029706262089e+01 3.0452117939406840e+00 7.0378564695352761e+00 -5 0 -2
701 2 3.7568314145051671e+00 1.3477028869218959e+00 1.6798712381963799e+01 -3 0 -3
5 2 3.7934194005028408e+00 8.2334516540833782e+00 3.9460678065369450e+00 1 0 0
470 2 1.5563090807234465e+01 3.0218256990180636e+00 1.8569355157817857e+00 -7 0 -2
471 2 1.4899891120183350e+01 1.6334908981713023e+00 1.6388774508795341e+00 -6 0 -2
708 2 1.5772003852357033e+00 6.3455168155730615e+00 1.2836556461263669e+01 -1 0 -1
749 2 5.3740095586161489e+00 1.0020702646973968e+01 1.4946739269211017e+01 -3 0 1
46 1 1.1257511509171843e+01 5.1779219832407577e+00 4.5871314917698651e+00 -3 0 0
992 2 -2.9911387628764499e+00 -7.4775922617418966e-01 1.0139273834342282e+01 2 0 1
856 1 1.5042291604870130e+01 7.7001721903253291e+00 7.0611268351111498e+00 -2 0 -3
627 2 3.3761119358254028e+00 3.4758124513964637e+00 1.7786283028070365e+01 0 0 -1
111 2 1.1864076762181730e+00 2.7868961320613028e-01 1.7323302280912113e+01 1 0 -4
869 2 1.2346989689044557e+01 5.7090046480460588e+00 1.0100078149995880e+01 1 0 0
16 1 1.0056862242653963e-01 2.4719107275636558e+00 1.5972594200470626e+01 0 0 1
178 1 2.5626665841386727e+00 6.5969861204948561e+00 1.7808704444835470e+01 -3 0 -1
974 2 1.0349746424040724e+01 -1.5935678310514279e-01 1.6134629439862977e+01 -4 0 -2
118 1 5.1165547096375406e+00 3.3138484630551543e+00 3.8984851711226800e+00 -2 0 -2
922 1 4.9799861465700515e+00 7.3202998655439231e+00 1.8504707296370157e+01 -3 0 -3
623 2 -3.9520782263234708e+00 2.0436059440360355e+00 1.7517004362573154e+01 -2 0 -2
1668 2 6.3019207125017367e+00 3.0853947895465152e+00 1.5187462141575873e+01 -1 1 -2
644 2 1.1233423401005584e+01 9.6245225279970059e-01 1.2336217886054742e+01 -4 0 -3
275 2 1.4025232726438826e+01 -1.0952130880889255e+00 9.5746843038510743e-01 2 0 0
83 2 1.2072625583430519e+01 7.4610154001156292e+00 6.5490038885630222e+00 -1 0 -3
239 2 5.1226851543909708e+00 7.8624207669427868e+00 1.3988461987206438e+01 0 0 0
716 2 6.0305411504558935e+00 5.4116775211183166e-01 3.5252578298708932e+00 1 0 2
717 2 5.7429654894708433e+00 7.7551916314582581e-01 1.9689241464866112e+00 1 0 2
240 2 5.3965836092571227e+00 6.4182292418572153e+00 1.4567695248891388e+01 0 0 0
163 1 9.9892921649412347e+00 9.6437982898669929e+00 1.1058524589661578e+01 2 0 0
17 2 9.0674746306653997e-01 1.9307223156694069e+00 1.6214751916499846e+01 0 0 1
779 2 6.9149531358026248e+00 8.0041145223693793e+00 3.3372942794891194e+00 1 0 0
468 2 -5.2693583487765894e-01 9.5843979602173590e+00 1.0679813232308138e+01 -1 0 2
645 2 1.1611016717697556e+01 1.9955356681074532e+00 1.3539989066960148e+01 -4 0 -3
613 1 -9.2019170798529792e-01 2.9676826518638393e+00 1.8235476302977489e+01 -2 0 -1
246 2 8.9108329929909562e+00 6.7813958323800421e+00 1.4585567563583730e+01 -4 0 -4
238 1 5.4084955862037560e+00 6.9506172378935833e+00 1.3774022713931165e+01 0 0 0
522 2 8.5049921834434539e+00 -5.0936100307615417e-01 1.0923575708882101e+01 -5 0 -2
715 1 6.2738527232564003e+00 1.0917199272495997e+00 2.7720951728479744e+00 1 0 2
115 1 -4.7087573090359793e+00 3.2417409171740061e+00 1.3526500690617159e+01 -4 0 -5
426 2 1.1580426055548278e+01 6.6816993415517123e-01 3.2171503934520893e+00 -2 0 1
590 2 8.3322507507735288e-01 9.4285711424991288e+00 1.3529964404052796e+01 -4 0 -1
308 2 -2.7345811166245393e+00 8.8870452218975782e+00 1.4788106247068528e+01 1 0 1
428 2 -5.8400405811973668e+00 9.1844122568165805e+00 1.7431411041573700e+01 0 0 -1
933 2 -1.9499038130841497e+00 6.0304047950856310e-01 1.4190190523108518e+01 -2 0 -1
857 2 1.4755707494991926e+01 8.6408722574095638e+00 7.2085268411133834e+00 -2 0 -3
868 1 1.2188201944057740e+01 5.0942899453211004e+00 9.3833255877362216e+00 1 0 0
291 2 6.6795749007806737e+00 8.5765223160150494e+00 5.3602832646536038e+00 0 0 3
18 2 -3.7174076219602448e-01 1.9334544634477480e+00 1.5341161624128926e+01 0 0 1
670 1 -7.1901445630590843e-01 -9.8978590227317931e-01 7.7270550123160220e+00 -3 0 -1
976 1 5.5143108377823369e+00 -1.3761704643699670e+00 1.6921995394918177e+01 -3 0 -1
785 2 -4.2380489040130120e-01 1.6859289504910273e+00 1.3387354396399489e+00 -3 0 -2
870 2 1.3003199758265684e+01 5.0821496612851336e+00 8.8434325823461268e+00 1 0 0
211 1 1.0709642248038614e+01 2.2415054158790459e+00 6.5201166970143039e+00 -5 0 -2
387 2 1.7746896936436927e+00 2.5565804474731060e+00 4.1411023157406275e+00 0 0 -2
151 1 8.4259197816413138e+00 -9.2377344967591524e-01 2.1217216834749015e+00 3 0 0
643 1 1.1110877766960176e+01 1.2052242412870000e+00 1.3315152517009736e+01 -4 0 -3
530 2 6.6726580080975273e+00 3.2670730808297677e-01 5.7046720782525675e+00 -1 0 0
312 2 6.9420537425883246e+00 9.6985974169159892e+00 1.1070000144994797e+01 0 0 -2
459 2 1.6816294192204442e+01 -9.2600030313951265e-01 1.9530432480796227e+00 -3 0 -2
116 2 -4.1631565298732944e+00 2.4498329673450323e+00 1.3743114528344558e+01 -4 0 -5
224 2 4.3114201652000039e+00 5.0911676178637935e+00 1.0841459787667931e+00 -2 0 -1
845 2 8.0713200896427786e+00 -3.3356915984563984e-01 1.3139297504043405e+01 1 0 1
48 2 1.2004919628784350e+01 5.8325079753354059e+00 4.4721174099357990e+00 -3 0 0
117 2 -4.6909214093306533e+00 3.8352333194162780e+00 1.4408079749345228e+01 -4 0 -5
931 1 -9.8867140241595886e-01 5.4333986015477231e-01 1.4136853260799166e+01 -2 0 -1
429 2 -6.1128089036845008e+00 7.5950703539363769e+00 1.7515281945242123e+01 0 0 -1
385 1 1.7734829392286449e+00 1.5647526446487907e+00 4.1262589966183540e+00 0 0 -2
723 2 -4.3579120436425089e-01 9.9576272732658779e+00 1.8357337160262670e+01 -5 0 -3
961 1 2.2557120548410339e+00 -1.1333894435742242e+00 1.4593813312328878e+01 -3 0 -1
42 2 2.3991260908665879e+00 5.0615607714891375e+00 7.2638789338635128e+00 -2 0 3
726 2 1.4456930139439478e+01 2.5314044077627509e+00 9.0001663304824095e+00 1 0 1
876 2 1.2691254904061886e+01 6.9466863171894637e+00 1.2045258531945056e+01 -3 0 1
769 1 -6.0695728792898862e-03 6.9563856514238811e+00 6.3928272196700000e+00 1 0 -3
466 1 -3.4152353674666225e-01 8.6322112862906852e+00 1.0817344363466493e+01 -1 0 2
4 1 3.8110766681171184e+00 8.4634920111491869e+00 4.8918820151297151e+00 1 0 0
457 1 -9.9779283106356242e-01 -1.0980620996281334e+00 2.8851162585872130e+00 -2 0 -2
41 2 2.9112451093107037e+00 3.5196432902667105e+00 7.1738475068063119e+00 -2 0 3
713 2 -1.1749888244322557e+00 9.1260251315225194e-01 1.0563746921259579e+01 0 0 3
812 2 1.1430230013293691e+01 4.0286857608189361e+00 1.2993880993920289e+01 -2 0 -1
932 2 -8.5462237077896441e-01 8.2369956796820665e-01 1.3199563233076589e+01 -2 0 -1
290 2 5.2468360673891770e+00 8.9020349163248458e+00 6.0062737592769837e+00 0 0 3
213 2 9.9497691911907946e+00 1.6622601611672594e+00 6.6802468436735900e+00 -5 0 -2
980 2 1.4078329143052144e+01 9.7388272218675720e+00 9.1221992845039779e+00 -2 0 0
185 2 3.8719452531071865e+00 2.9506757622862123e-01 8.6448469316790386e-02 -4 0 -6
338 2 2.6528913927451963e+00 4.9496845806417360e+00 3.2366626579218911e+00 -1 0 -1
938 2 9.5031466493841226e+00 8.1196451911213039e+00 1.3779998271816680e+00 1 0 1
969 2 4.5967323960049100e+00 3.4835236658102362e+00 9.9137318364703901e+00 -1 0 1
545 2 2.2062804875620108e+00 1.1589794501391659e+00 1.2337960746153577e+01 2 0 1
386 2 1.4568068034106698e+00 1.4007103379545205e+00 3.1750959757622801e+00 0 0 -2
937 1 1.0191170083980234e+01 7.6164254797688340e+00 1.9471356805384863e+00 1 0 2
40 1 2.1504461552487770e+00 4.1603552635161192e+00 7.2424287634706985e+00 -2 0 3
786 2 1.0200441592312524e+00 2.3070556803827964e+00 1.0705416429705403e+00 -3 0 -2
216 2 1.3681463799097173e+01 7.0625329585910954e+00 3.6306861358449609e+00 -1 0 -2
724 1 1.4792183316298516e+01 1.8882324539330719e+00 8.3142973739818213e+00 1 0 1
784 1 5.4197312473835524e-01 1.4973797399397069e+00 1.3610851422880426e+00 -3 0 -2
967 1 3.7421244410309966e+00 3.5095512754562144e+00 9.5247545370747595e+00 -1 0 1
553 1 8.7488726316342458e+00 2.5572819543012315e+00 1.7275170068543765e+01 -5 0 -2
681 2 6.4009458359564384e+00 3.1463165381391436e+00 1.8941041831011962e+01 -3 0 -3
649 1 8.1099472597096032e+00 1.1888671729177065e+00 6.5652175968925972e+00 -4 0 0
650 2 7.7904749840701211e+00 1.8993014750672255e+00 7.1835033081876309e+00 -4 0 0
51 2 7.4486459317389517e+00 4.6444865566681033e+00 1.1031668879391971e+01 -1 0 0
36 2 -1.6022844878473985e+00 1.1528952987815022e+00 4.9986145333602323e+00 -1 0 0
945 2 3.9757721246453728e+00 1.6993685491091872e+00 6.5750102006745141e+00 0 0 3
673 1 1.7435451161878905e+00 9.5058458038272740e+00 1.2009694922377787e+00 0 0 -3
939 2 1.0138264053825246e+01 6.6245112991719353e+00 1.9026275018023766e+00 1 0 1
397 1 1.4386385562427028e+01 5.3509691637469494e+00 7.7356715687799609e+00 2 0 0
127 1 1.2475166497990337e+01 4.8845101535596820e+00 7.2613804110762337e-01 -2 0 -1
128 2 1.1646782802572973e+01 4.6535021550362243e+00 1.2299585710827596e+00 -2 0 -1
1407 2 1.4747840721671910e+01 6.1831637256782095e+00 7.4351695542716874e+00 2 0 0
34 1 1.5776962371879629e+01 8.3300380548907915e-01 4.2883277783027527e+00 -2 0 0
928 1 1.5081734664104751e+01 3.4644319350670045e+00 5.8887409846074554e+00 0 0 0
297 2 -7.1743976889160688e-01 1.0050916355704951e+01 2.7644501945140125e+00 2 0 3
152 2 7.7705790858453261e+00 -3.0094041092418267e-01 2.4781642969747621e+00 3 0 0
439 1 -2.2159834024153113e-01 5.0790387068642175e+00 1.5406350601223853e+01 -2 0 -2
350 2 1.3468437899758332e+01 9.8237196307762620e-01 3.5043199809147374e-01 2 0 4
367 1 4.9332351668107099e+00 1.0050432704868458e+01 1.8070623477688493e+01 -2 0 -1
176 2 4.4558367624354807e+00 -5.5591541500359387e-01 1.2627147852882990e+01 -5 0 1
783 2 -4.5326436676402970e+00 3.6319455747907607e+00 1.8853768505937506e+01 -2 0 -3
148 1 1.5207488842072856e+01 7.7746537513939113e+00 2.7194895983581202e-01 -4 0 0
994 1 7.5918508033790681e+00 8.1661083676263146e+00 8.1448860591405694e+00 3 0 1
725 2 1.4013202787810759e+01 1.4857747226280997e+00 7.9433195186553327e+00 1 0 1
160 1 -2.4476791649585987e+00 7.6942477458475942e+00 1.2237522213929239e+01 1 0 -5
129 2 1.2316521646565048e+01 5.7325695919721618e+00 2.5205986482478648e-01 -2 0 -1
685 1 2.9322816245055607e+00 -1.1852835062955993e+00 9.5730150817806017e+00 -3 0 1
173 2 5.0955094434574555e+00 4.7001121469174176e+00 1.6213252572309017e+01 -1 0 -2
721 1 -7.7630386550531227e-03 9.6051255208295920e+00 1.7602289997001620e+01 -5 0 -3
1914 2 1.2964718216978897e+00 8.9584750108694422e+00 1.8898790319839318e+01 -3 0 1
1584 2 9.7934628709021183e+00 8.9046822613009500e+00 1.3633895357801888e+01 0 0 0
462 2 9.8545477499109246e+00 5.2636633040060978e+00 1.1909352567100033e+01 -4 0 -2
651 2 8.2558962428965170e+00 3.2011698239798880e-01 7.0463159501488493e+00 -5 0 0
996 2 7.0348779703702231e+00 8.4786702181241349e+00 7.3604324152864020e+00 3 0 1
611 2 1.2578650122155764e+01 3.6632144663822848e+00 1.0348945053137903e+01 -1 0 2
547 1 7.4213195023308982e+00 1.0327005783944765e+01 1.6901247168809096e+01 -3 0 -4
750 2 3.9503480640892681e+00 9.4700818681384362e+00 1.5114113174741828e+01 -3 0 1
65 2 7.3560583176337691e+00 9.9884513221044324e-01 1.0546396592215794e+01 -2 0 -3
102 2 1.3252086245397567e+00 5.6308889225018799e+00 1.4943820634526960e+01 -1 0 -1
497 2 6.7424673416562086e+00 3.0056380360290316e+00 9.2340563545946761e+00 0 0 1
498 2 6.0827706669171224e+00 2.9489292018911080e+00 7.8187555558767361e+00 0 0 1
395 2 7.4345041217828918e+00 3.0309723903229049e+00 5.4582889247369681e-01 -3 0 -3
924 2 4.0589890853403645e+00 6.9786056300119093e+00 1.8317691275008237e+01 -3 0 -3
349 1 1.3776252952084771e+01 4.3896290973947583e-01 1.0942733344016364e+00 2 0 4
679 1 6.5726779964329411e+00 2.3537690376258018e+00 1.8458952384902531e+01 -3 0 -3
398 2 1.4660153546067814e+01 4.6815060487869236e+00 7.0761236510988219e+00 2 0 0
540 2 1.6204506801269087e+00 2.0937682579799644e-01 9.0580141840747885e-01 -4 0 -3
502 1 5.3625160834198464e+00 -4.3097992996914458e-01 8.8958024503521322e+00 0 0 -1
321 2 1.1277987532422028e+01 -1.6594962383642287e-01 1.4107185583482156e+01 -4 0 -3
943 1 4.2652456810019750e+00 2.6264570861761678e+00 6.5787933405462367e+00 0 0 3
467 2 -1.1957132934965569e+00 8.3227175809342278e+00 1.1246564163849737e+01 -1 0 2
215 2 1.4208018340592718e+01 7.1069061307870811e+00 5.0551923321085681e+00 -1 0 -2
220 1 2.5955455719431004e+00 8.6765585092601363e+00 1.6123998588236869e+01 -2 0 -3
172 1 5.8116096961565837e+00 4.9651452660698832e+00 1.5664312050616807e+01 -1 0 -2
298 1 -4.4897570260542867e+00 5.2325520658001556e-01 1.6950280496708803e+01 -2 0 -2
680 2 5.8436391819883085e+00 2.0226101570838901e+00 1.7946856161554560e+01 -3 0 -3
714 2 -2.1387937705252726e+00 1.0012344263787383e+00 9.3284958316721038e+00 0 0 3
538 1 2.3427523528512042e+00 -3.8062139163237774e-01 5.1063753033973969e-01 -4 0 -3
944 2 4.5544851649653531e+00 2.8889712225618274e+00 5.6799494397186816e+00 0 0 3
100 1 2.0973122518643112e+00 6.0123942519675921e+00 1.4429912174523510e+01 -1 0 -1
1667 2 5.5249965942167201e+00 1.9454878548514900e+00 1.5611925710534933e+01 -1 1 -2
352 1 1.0065775819262740e+01 7.3295189045269726e+00 9.3867393459018320e+00 -1 0 0
174 2 6.4571793941534077e+00 5.4614867628506012e+00 1.6220833183050072e+01 -1 0 -2
388 1 1.4147840694566476e+01 -8.2378316451034939e-01 5.4041259511073205e+00 -1 0 0
465 2 1.7765061382807823e+00 7.2049320700029611e+00 6.4411056355172907e+00 2 0 0
919 1 1.1982038593130174e+01 -1.4279622436990915e+00 9.2678407283653179e+00 0 0 -2
460 1 9.1098170864389569e+00 5.6372680129065431e+00 1.1364184840045420e+01 -4 0 -2
504 2 5.6396962392893002e+00 3.5408059626066013e-01 9.4377583680643031e+00 0 0 -1
531 2 5.2539381628494706e+00 -3.7755758824462804e-02 5.5658757210418646e+00 -1 0 0
186 2 -1.2946260350310794e+00 4.4971570559013685e-03 1.8759242823118463e+01 -4 0 -6
164 2 1.0300135013485843e+01 9.4160424902930409e+00 1.1948895381555195e+01 2 0 1
595 1 1.6611129981916635e+00 4.2081609454129083e+00 4.6544171911747325e+00 3 0 -2
963 2 2.8751199736828719e+00 -1.6134722733972708e+00 1.5189554038624699e+01 -3 0 -1
109 1 1.7250926404919609e+00 7.8434345537641903e-01 1.6658810766014966e+01 1 0 -4
615 2 -4.7589049131557370e-01 2.7507200955937385e+00 1.7319231114591709e+01 -2 0 -1
962 2 1.8051342234787038e+00 -1.7037268621197763e+00 1.3963662451949579e+01 -3 0 -1
461 2 9.5219832753158453e+00 6.1308983484413364e+00 1.0627989965512704e+01 -4 0 -2
599 2 -9.4988811065289758e-01 5.4031079499370263e+00 9.4910435082578832e+00 -3 0 1
408 2 2.6925979127708115e+00 1.7907763933004794e+00 9.1120626928799116e+00 -2 0 -2
20 2 9.1757826700104719e+00 8.3588534478548411e+00 4.7125116846429149e+00 -3 0 -3
182 2 1.2117508227624970e+01 2.6792478494969174e+00 5.3287145418899771e+00 -1 0 0
35 2 1.5584078176900142e+01 1.5714098590008789e+00 3.6543151373076941e+00 -2 0 0
978 2 6.4507804156915238e+00 -1.3695120525943449e+00 1.6723502863563347e+01 -3 0 -1
747 2 1.1669768433811855e+01 7.6807700084093113e+00 1.3869397544065446e+01 -3 0 0
475 1 4.9415446834288561e+00 6.5323913566770369e+00 1.1218876943081142e+01 -1 0 2
68 2 1.0456218007351659e+01 5.1084344370135915e+00 3.0555976172944228e+00 -4 0 -2
514 1 1.4496957865200814e+01 1.0280416486691424e+01 7.5209820798073412e+00 -1 0 -1
133 1 -6.2340478641251806e-03 2.7250930528150965e+00 7.9355488259344673e+00 1 0 -1
610 1 1.3064666495244127e+01 2.8704153051923855e+00 1.0745277262699634e+01 -1 0 2
675 2 1.5524146381897226e+00 9.0979059476821291e+00 3.8705575741628523e-01 0 0 -3
82 1 1.1431896001282336e+01 8.1940565529478686e+00 6.6824844949102689e+00 -1 0 -2
300 2 -4.1117837669698289e+00 -2.3736631323889879e-01 1.7359990684425615e+01 -2 0 -2
608 2 3.3648211132647163e+00 -4.8930808925637059e-02 2.2141194044462278e+00 -3 0 0
782 2 7.3739670925828382e-01 4.2468804415014230e+00 1.9108687829551169e-01 -2 0 -2
690 2 -5.7267736739285979e-04 1.7317644276874717e+00 6.7111410647770340e+00 -2 0 0
561 2 8.3702653027942677e+00 -1.1727577162560339e+00 8.4857487144275190e+00 -2 0 1
728 2 8.7271873201689871e+00 6.7692458692765403e+00 1.2352389086049063e+01 0 0 1
113 2 9.1917351275699311e+00 1.1224971482605688e+00 1.4181538223010618e+01 -2 0 -1
270 2 -3.1415376802114272e+00 7.2842245144621316e+00 1.6150752898835371e+01 2 0 -1
85 1 1.7010701657674371e+01 -1.5670299280266453e+00 2.5890630549441979e-01 1 0 -2
222 2 1.9876322426164066e+00 9.3278136042334090e+00 1.6457682620594717e+01 -2 0 -3
184 1 4.8092010053963117e+00 4.8806807543598696e-01 3.4223192113241163e-01 -4 0 -6
67 1 1.0237451735219555e+01 4.9807431521388192e+00 2.0950134149114477e+00 -4 0 -2
727 1 8.5065011549862248e+00 7.3563862303078018e+00 1.3110974197906845e+01 0 0 1
114 2 7.7961349702630542e+00 1.3784995181797184e+00 1.4685476073160334e+01 -2 0 -1
425 2 1.2289716279687868e+01 2.0401854348859061e+00 3.3774114961307040e+00 -2 0 1
544 1 2.8893439161361893e+00 9.2639043524181597e-01 1.2945019325840324e+01 2 0 1
875 2 1.2847354284014715e+01 7.8874229172054076e+00 1.0730494461203863e+01 -3 0 1
1001 2 1.0636141647356579e+01 -1.2953779313956812e+00 4.5680960327528108e+00 -1 0 1
496 1 6.9284703512427246e+00 3.0460678087655735e+00 8.3088724158172980e+00 0 0 1
993 2 1.3609206793325924e+01 -1.5627882299626004e+00 9.8980876445846455e+00 1 0 1
337 1 3.1406262595610950e+00 5.0747660485674331e+00 2.4112300993176423e+00 -1 0 -1
289 1 6.1954608280302024e+00 9.0832812583548144e+00 6.0879819091652685e+00 0 0 3
221 2 2.5684758902512650e+00 7.8881334332458213e+00 1.6738585969867501e+01 -2 0 -3
844 1 7.8554089295822447e+00 -1.0394229564808122e+00 1.2448120017927680e+01 1 0 1
583 1 -2.3575757022403563e+00 5.5708657723328336e+00 1.3936389425222469e+01 -4 0 -4
584 2 -3.1670726658399957e+00 5.5029345147863946e+00 1.4494312426503850e+01 -4 0 -4
641 2 2.0863938174491725e-01 7.4233960048521581e+00 9.6320198500070351e+00 4 0 -1
110 2 1.8526805460740698e+00 2.0643453561718350e-01 1.5877004185808531e+01 1 0 -4
846 2 6.8705417453348527e+00 -1.1643478269779650e+00 1.2533510246653877e+01 1 0 1
47 2 1.0887249669136427e+01 5.0599907636761063e+00 5.4881900881581798e+00 -3 0 0
207 2 5.6648990508325081e+00 2.4134747472699081e+00 1.3355028190445623e+01 3 0 0
808 1 7.7585561079271947e+00 5.4851171092849400e+00 7.4023621854100572e+00 -4 0 -1
354 2 1.0853342414894879e+01 7.5876126232895551e+00 8.8842299984555275e+00 -1 0 0
577 1 2.8438549885237441e+00 3.1582151019071159e+00 1.4581360589288831e+01 0 0 0
19 1 1.0057930370890457e+01 8.7156222429270720e+00 4.4602310595160652e+00 -3 0 -3
1000 1 1.0874897060170076e+01 -9.6827606225919427e-01 3.6854450122271039e+00 -1 0 1
294 2 -2.3672604697377215e+00 4.3062480835448484e+00 1.1342753183901195e+01 1 0 -3
390 2 1.4833479672289970e+01 -3.2777819113543449e-01 4.9012549997537542e+00 -1 0 0
737 2 1.1508051748942817e+01 9.5542772474327826e+00 7.8173514213152906e+00 -1 0 1
521 2 9.7790233438843686e+00 6.8506866709698855e-02 1.0306770072180827e+01 -5 0 -2
813 2 1.1256264224227207e+01 5.4438137819143986e+00 1.3541429885527668e+01 -2 0 -1
912 2 1.1894447738087019e+01 8.3521665175906801e-01 7.0445985474013071e+00 -2 0 1
589 1 -1.0800818349138375e-02 9.8409623134689941e+00 1.3871224016658930e+01 -4 0 -1
192 2 2.5986561822956062e+00 8.0124799440370253e+00 1.1286097807203021e+01 -2 0 -3
771 2 2.2616415613647955e-01 6.6054338655595295e+00 7.2645762715305153e+00 1 0 -3
161 2 -3.2013828707695282e+00 7.5653234217983663e+00 1.1570670198276613e+01 1 0 -5
809 2 7.4121685665438033e+00 5.4870178492255324e+00 6.5262581424688868e+00 -4 0 -1
866 2 -8.9137293184541022e-01 6.2806964377488423e+00 1.6450498547720631e+01 -3 0 -1
94 1 -9.8087837219937424e-01 5.0873766566645413e+00 4.6009198809803422e+00 -1 0 -1
225 2 -1.5254501781159284e+00 4.4449298947470703e+00 1.8947573455860727e+01 -2 0 -2
770 2 -3.2222215616457350e-01 6.2206538036999062e+00 5.8460279404279962e+00 1 0 -3
123 2 7.6993155604819004e+00 6.7981188792716747e+00 1.8121840103586731e+01 -2 0 -1
440 2 -9.8116667755625642e-01 5.0691380528487313e+00 1.4779391499220383e+01 -2 0 -2
383 2 1.4085902787386011e+01 5.1928756189629128e+00 1.4064851737335098e+00 -2 0 1
6 2 3.4878739866177324e+00 9.3673614879540246e+00 5.0547869347921441e+00 1 0 0
499 1 -5.5116061561783702e-01 1.9786633908462048e+00 1.1753451137021285e+01 1 0 1
910 1 1.2640545837686533e+01 4.0508288351090282e-01 7.4665873143688470e+00 -2 0 1
546 2 2.6396871514898059e+00 8.4762428828724090e-02 1.3454460399738126e+01 2 0 1
528 2 4.5348862194813524e+00 -2.5676696036421798e-01 7.6102232795476565e+00 -2 0 -1
729 2 7.5671257428690408e+00 7.4511141251073489e+00 1.3194207319133888e+01 0 0 1
612 2 1.3835190247709056e+01 3.1486472149154023e+00 1.1356993193279816e+01 -1 0 1
674 2 8.9744180071961721e-01 9.4655128092951362e+00 1.6975787117545735e+00 0 0 -3
121 1 7.2705990897383224e+00 6.6490408028491039e+00 1.7239374498922619e+01 -2 0 -1
911 2 1.3041710552528802e+01 -7.5858697027245681e-02 6.6884184161315723e+00 -2 0 1
424 1 1.1999137531247300e+01 1.3778388669640300e+00 2.7305586727990572e+00 -2 0 1
811 1 1.0757290276547577e+01 4.7070330095120436e+00 1.3161590517053884e+01 -2 0 -1