LAMMPS data file via write_data, version 3 Mar 2020, timestep = 1000000

1008 atoms
2 atom types

2.2126090475406457e-01 1.8178294095239174e+01 xlo xhi
2.3778706734441712e-02 2.2546610293262120e+01 ylo yhi
2.0227257479528049e-01 1.9303443425198662e+01 zlo zhi
4.7842933515381540e-02 -6.7108867253494315e+00 -4.7288937382402543e-02 xy xz yz

Masses

1 16
2 2

Atoms # atomic

1 1 6.7158713067788041e+00 1.1382801684682078e+00 4.9054326548604861e+00 0 0 0
311 2 1.0532976755822400e+01 1.1104099840537927e+01 6.0872200110750700e+00 0 0 0
3 2 6.8831644951209778e+00 1.5826157580600400e+00 4.0188871678675913e+00 0 0 0
4 1 3.9557133417831283e+00 7.9874396786424118e-01 4.8633892168287138e+00 0 0 0
5 2 4.9517172856416636e+00 8.2220498700762645e-01 4.8583279443261302e+00 0 0 0
6 2 3.6720922284420947e+00 1.0876300849168352e+00 5.7505984900174063e+00 0 0 0
7 1 -4.9818396230131667e-01 6.3603233642394805e+00 4.7137111526128432e+00 0 0 0
8 2 -4.0867173673017376e-01 6.1674029733127416e+00 5.6278234664723374e+00 0 0 0
9 2 -9.3809879412351593e-01 7.2169368958100035e+00 4.6325811383031583e+00 0 0 0
10 1 2.2628485092158979e+00 6.2683333502263299e+00 4.8179150412710587e+00 0 0 0
11 2 1.3562284732971779e+00 6.5656083128471145e+00 4.7762030515001470e+00 0 0 0
12 2 2.7649364243816801e+00 7.1137039180738668e+00 4.6772361537903535e+00 0 0 0
585 2 3.9220558656252571e+00 1.4947573613578573e+00 8.9522889299185966e+00 0 0 0
14 2 4.7012893844223882e+00 4.9787356900095210e+00 8.9870247757010038e+00 0 0 0
668 2 1.2893779000268962e+01 1.9250771503598729e+00 9.1055492228022299e+00 0 0 0
152 2 7.3597395058422777e+00 6.6568121121985302e-01 7.8093826590443056e+00 0 0 0
18 2 5.6688119898128164e+00 5.1147525278846162e+00 9.7538453558677507e-01 0 0 0
401 2 1.7201648617084908e+00 1.3071946560551823e-01 7.6679599801650991e+00 0 0 0
146 2 1.7478178681653560e+01 6.4760338878420827e+00 1.0779186483407759e+00 0 0 0
21 2 9.4337270200667978e-01 2.3006849099806401e+00 1.2075372263859774e+00 0 0 0
331 1 1.5565912654921931e+01 9.1177863125046628e+00 3.8760741163917478e-01 0 0 0
584 2 3.0507373763589909e+00 4.3579172521892229e-01 9.5862525289506628e+00 0 0 0
25 1 4.6344945251645377e+00 6.2037517499728345e+00 7.2005254255855045e+00 0 0 0
26 2 5.2893119101484363e+00 6.7423967383172663e+00 7.6429490423516224e+00 0 0 0
27 2 3.7943931503814810e+00 6.6222838265151944e+00 7.2347343426265516e+00 0 0 0
28 1 5.7739368504154474e+00 6.2932026096865776e+00 2.6046155111987526e+00 0 0 0
29 2 5.7029396235589997e+00 6.0076905487482604e+00 3.5366618162380909e+00 0 0 0
30 2 5.1492689217860894e+00 7.0608793179702909e+00 2.5227291083751506e+00 0 0 0
31 1 1.2951285306552722e+00 9.4126665380434071e-01 2.6244312444501601e+00 0 0 0
32 2 2.2530307957485736e+00 9.2235516880407575e-01 2.5742101590414879e+00 0 0 0
33 2 1.0795858072586484e+00 1.3362629095131877e+00 3.4730434812124726e+00 0 0 0
34 1 1.8283513727696876e-01 1.2941804552869278e+00 7.3897040274925576e+00 0 0 0
84 2 3.0550488530528317e+00 6.6756719771663784e+00 6.5612535244832437e-01 0 0 0
36 2 2.5664422398443865e-01 1.8597388765516647e+00 8.2231061906005714e+00 0 0 0
37 1 6.3776998042791710e+00 2.4604975916575498e+00 2.5807801753383979e+00 0 0 0
38 2 5.4941382158459362e+00 2.6784435548439616e+00 2.8924213881564391e+00 0 0 0
39 2 6.9040245818237880e+00 3.2657190209405655e+00 2.8111294142200318e+00 0 0 0
40 1 3.9461408140767258e+00 2.0935045601695954e+00 7.4918437738122368e+00 0 0 0
41 2 4.8522339608607243e+00 2.4442209527945842e+00 7.3244429665473456e+00 0 0 0
42 2 3.3755098359711901e+00 2.8510134544515218e+00 7.2648536195634659e+00 0 0 0
43 1 -6.8912247215909606e-02 4.9286025271863076e+00 7.0187735298291942e+00 0 0 0
44 2 -7.0761271282291949e-01 4.2182236558175967e+00 6.7812127078134425e+00 0 0 0
45 2 -1.8857087293866570e-01 5.1041318512177734e+00 7.9373469407387525e+00 0 0 0
46 1 2.0165074366794893e+00 4.8166119852309492e+00 2.6160974186527102e+00 0 0 0
47 2 1.0654792586158550e+00 4.4914333032219735e+00 2.7252556311173297e+00 0 0 0
48 2 2.2737789727408910e+00 5.4187101736570797e+00 3.3503138407415500e+00 0 0 0
49 1 6.6468701236497818e+00 3.2331030945735790e+00 6.5056949139500722e+00 0 0 0
50 2 6.2331198611911027e+00 3.8058949601485765e+00 5.8249644975513553e+00 0 0 0
51 2 6.9637890031735177e+00 2.4526091807142323e+00 5.9302868801746733e+00 0 0 0
52 1 3.8982849744848243e+00 3.1589744805265507e+00 3.5507529017671993e+00 0 0 0
53 2 3.0504075148237382e+00 3.4943117454930990e+00 3.1235117703079136e+00 0 0 0
54 2 3.6841804553036743e+00 2.3513567518164127e+00 4.0752412025984146e+00 0 0 0
55 1 -3.7213232370270033e-01 3.9609096724250490e+00 3.2001969863438204e+00 0 0 0
56 2 -6.2796380822099329e-01 4.7957534578511885e+00 3.7041995309682219e+00 0 0 0
57 2 -2.0250109647211378e-01 3.3074765109706736e+00 3.9599723020018125e+00 0 0 0
58 1 2.4309446554334113e+00 4.0222548659854374e+00 6.5293522411818978e+00 0 0 0
59 2 2.8239399279469648e+00 4.8131345243154575e+00 6.2149010328355052e+00 0 0 0
60 2 1.5670126648716178e+00 4.3030215652169295e+00 6.9771915750876596e+00 0 0 0
61 1 8.4643283224038139e+00 7.1789830081040584e+00 1.8823243483011640e+00 0 0 0
62 2 7.6579804539922582e+00 6.9404090743740969e+00 2.3426661145846963e+00 0 0 0
63 2 8.6219189776965326e+00 6.3628256849622291e+00 1.2904564581738760e+00 0 0 0
64 1 2.1661636549057279e+00 6.9852939736948558e+00 8.0559432559239639e+00 0 0 0
65 2 1.2958669935306006e+00 7.4031513617727729e+00 7.7644995012735940e+00 0 0 0
66 2 2.5362824228765355e+00 7.6099559851526228e+00 8.7408530666416766e+00 0 0 0
163 1 1.5680204523105370e+01 1.5091874177496156e+00 2.1555974226043464e-01 0 0 0
68 2 -2.6366194720646345e+00 1.5517020169216940e+00 9.0672204463265249e+00 0 0 0
35 2 -7.5224433613555108e-01 1.1106889713904762e+00 7.3926658554700815e+00 0 0 0
72 2 4.1908287829598967e+00 1.0089874136462083e+00 1.2358512473498962e+00 0 0 0
73 1 5.4805532630571223e+00 5.2303657499903844e+00 4.9134637999064630e+00 0 0 0
74 2 5.1895320705444297e+00 5.6349952866122752e+00 5.7680095152229987e+00 0 0 0
75 2 4.7366536518830920e+00 4.6302302169463783e+00 4.6202442594241173e+00 0 0 0
76 1 9.6726573891898382e-01 2.2356118866741932e+00 4.9952268969037750e+00 0 0 0
77 2 5.8546849965704606e-01 1.7392485768018600e+00 5.8315558698583203e+00 0 0 0
78 2 1.5718535968026832e+00 2.9544713926991544e+00 5.3820871337877660e+00 0 0 0
80 2 6.7549955889709858e+00 1.9528303591146714e+00 8.7461897673183164e-01 0 0 0
165 2 1.6544054413329068e+01 1.2860365750466267e+00 5.8669405956054110e-01 0 0 0
224 2 -1.4420130266758502e-01 1.1125065473259962e+01 4.0981677672063181e+00 0 0 0
85 1 1.5623395731265173e+01 1.2672783944712649e+00 4.6890701802212966e+00 0 0 0
87 2 1.5567102419984487e+01 1.6931957084068434e+00 3.8323298614746273e+00 0 0 0
88 1 1.2940351192252496e+01 1.3306407499967483e+00 5.2157332899631328e+00 0 0 0
89 2 1.2471351603375599e+01 2.0238092145237743e+00 4.6276313883406912e+00 0 0 0
90 2 1.3840334176297290e+01 1.2058476034800416e+00 4.8803879591232393e+00 0 0 0
91 1 8.1146189299906979e+00 6.3052727641431927e+00 5.3162251420811888e+00 0 0 0
92 2 7.8184834676038237e+00 5.5474148011525131e+00 4.7965003316768495e+00 0 0 0
93 2 9.0827573754130420e+00 6.3397560044819317e+00 5.0346281849832293e+00 0 0 0
94 1 1.0785446389873737e+01 6.5190609854988422e+00 4.8685615647967957e+00 0 0 0
95 2 1.1344574758155797e+01 7.3005831509707875e+00 5.0444000325488965e+00 0 0 0
96 2 1.1034328953116942e+01 5.8118990329620983e+00 5.5131894787240263e+00 0 0 0
189 2 1.8747210541117958e+00 1.0606276908571028e+01 5.4131196931081815e-01 0 0 0
156 2 1.2036224174629726e+01 9.2457219777803612e-01 2.2322504123208766e+00 0 0 0
248 2 7.7381872972439769e+00 8.4453020815791557e+00 7.4155602959176947e-01 0 0 0
101 2 1.4663839137265921e+01 4.9161555392239231e+00 1.3018821717281310e+00 0 0 0
271 1 9.9808084837208320e+00 1.0071502949868014e+01 6.7163435645645209e-01 0 0 0
753 2 3.7119191566332699e+00 9.3443185811200671e+00 9.1447925623982353e+00 0 0 0
776 2 7.4727360546347423e+00 1.0495374486258852e+01 9.6939833625678897e+00 0 0 0
109 1 1.3682309418944175e+01 6.3889518103237073e+00 7.4608980367472881e+00 0 0 0
110 2 1.3498315218833627e+01 5.7013562338897161e+00 8.1281527645340983e+00 0 0 0
111 2 1.2866345401697249e+01 6.9326951115863844e+00 7.6143375763998380e+00 0 0 0
112 1 1.4892884929462435e+01 6.0359855860335667e+00 2.7184289304557292e+00 0 0 0
113 2 1.4325189980693210e+01 6.7811162545013097e+00 2.4937569972395823e+00 0 0 0
114 2 1.5753047530331612e+01 6.4099177167000230e+00 2.3960673811225770e+00 0 0 0
115 1 1.0404061395068787e+01 1.4800590318154629e+00 2.6367546060996738e+00 0 0 0
116 2 1.0412358896577924e+01 2.0424678314422318e+00 1.8174594285285559e+00 0 0 0
290 2 1.6121844773916685e+01 1.0720151783986237e+01 2.9888260550250547e+00 0 0 0
118 1 9.0423369475337054e+00 9.2492562452626681e-01 7.3114918567582583e+00 0 0 0
119 2 9.3256922046133734e+00 1.6759317584989837e+00 7.9132342189273270e+00 0 0 0
120 2 9.1649321226071798e+00 1.2883318218869453e+00 6.4066219612077440e+00 0 0 0
121 1 1.5023479042195030e+01 2.7807274302879534e+00 2.5479440413347882e+00 0 0 0
122 2 1.5540375526960350e+01 3.6038252354008775e+00 2.4976707822996929e+00 0 0 0
123 2 1.5265634558531380e+01 2.3157940106593857e+00 1.7380247478020343e+00 0 0 0
124 1 1.3062198206615086e+01 2.6787854715737454e+00 7.5945715592124925e+00 0 0 0
125 2 1.4030871200676957e+01 2.9420064162201305e+00 7.6837051358831046e+00 0 0 0
126 2 1.3120373824733164e+01 2.1764940330561227e+00 6.7427570915504376e+00 0 0 0
127 1 8.4792270659079634e+00 4.9463296339776557e+00 7.6502794827484335e+00 0 0 0
128 2 7.9411159838998673e+00 4.2120423102603164e+00 7.3507071871737395e+00 0 0 0
129 2 8.2923409379205939e+00 5.5850491169067302e+00 6.9139065293300552e+00 0 0 0
130 1 1.0788087887101277e+01 5.0232685868760996e+00 2.3226609450864428e+00 0 0 0
131 2 1.1331355221666183e+01 4.2870275113808534e+00 2.6184913073243750e+00 0 0 0
132 2 1.0659789594865508e+01 5.6996850292052876e+00 3.0714742490022364e+00 0 0 0
134 2 1.5224863985738505e+01 4.0093895337943657e+00 6.1156395181614638e+00 0 0 0
136 1 1.2715571252311465e+01 3.4963793020911700e+00 3.5640303425987119e+00 0 0 0
137 2 1.3211652541310020e+01 4.2018683438556428e+00 4.0263895032501420e+00 0 0 0
138 2 1.3453684057197949e+01 3.1051170573180440e+00 2.9459030827329986e+00 0 0 0
139 1 8.4243560339921473e+00 4.1218298723293376e+00 3.2080507363834596e+00 0 0 0
140 2 9.1772396535908456e+00 4.4765398983496683e+00 2.7764734118251457e+00 0 0 0
141 2 8.8191653738243279e+00 3.6406180550816121e+00 3.9293316129075997e+00 0 0 0
142 1 1.1074811200714747e+01 4.2092926824107382e+00 6.5369266365590226e+00 0 0 0
143 2 1.1806775327774339e+01 3.7792458200003964e+00 7.0388310022732643e+00 0 0 0
144 2 1.0498641647324563e+01 4.4776172988893741e+00 7.2886910355450798e+00 0 0 0
147 2 1.6920497242447645e+01 7.9617772052417992e+00 1.1601319705834769e+00 0 0 0
148 1 1.1032772120873894e+01 7.2081503563162777e+00 8.2370876386404372e+00 0 0 0
149 2 1.0736464550644486e+01 6.3408925365273960e+00 8.5175141122751850e+00 0 0 0
150 2 1.1604863841432813e+01 7.5270521658182483e+00 8.9416517713001031e+00 0 0 0
218 2 7.4856636037027933e+00 1.0976209261432734e+01 6.9221342213968002e+00 0 0 0
219 2 6.1063440512668539e+00 1.0159017878373072e+01 7.0623568335056612e+00 0 0 0
153 2 6.3876447134136090e+00 1.1205281183683946e+00 9.0294580653738024e+00 0 0 0
399 2 8.0772474341632154e+00 4.4311707346836654e-01 1.3408906714632549e+00 0 0 0
155 2 1.3007392263696950e+01 1.6183173838150566e+00 1.2539972412994678e+00 0 0 0
133 1 1.5706432732457314e+01 3.2884170595343258e+00 6.6001905907888396e+00 0 0 0
157 1 1.4220068042152120e+01 5.2750700244841857e+00 5.1250087482385860e+00 0 0 0
158 2 1.4700575478163922e+01 5.8885977019116442e+00 4.5360632181236937e+00 0 0 0
159 2 1.3774354058707686e+01 5.7443879158606945e+00 5.8396146429997620e+00 0 0 0
160 1 9.6028320363421376e+00 2.4659910494787707e+00 5.0891575078025477e+00 0 0 0
161 2 1.0281897566521906e+01 2.9933890070262352e+00 5.5583039313013218e+00 0 0 0
162 2 9.9592589375641865e+00 2.0819093660053647e+00 4.1990012936410039e+00 0 0 0
97 1 1.3898868157374174e+01 4.6763986202645658e+00 9.5987723547634776e+00 0 0 0
517 1 8.6431436801576584e+00 4.9850752132897167e+00 2.2248967135860970e-01 0 0 1
304 1 1.2958038078829128e+01 1.0874554913149650e+01 3.6414000982727641e+00 0 0 0
169 1 6.5898673570648159e+00 8.5655606795559134e+00 4.6669825244263397e+00 0 0 0
170 2 7.1460985294558679e+00 7.8058404515015143e+00 4.9172746574739712e+00 0 0 0
171 2 6.7403741083124071e+00 9.2493898732152999e+00 5.3976816101088065e+00 0 0 0
172 1 3.9076022182692722e+00 8.5644972218912176e+00 5.0043295843123108e+00 0 0 0
173 2 3.7778079453570443e+00 9.4313545645532173e+00 4.6109272320561354e+00 0 0 0
174 2 4.8614113510260104e+00 8.3570441414378998e+00 4.8478063270965981e+00 0 0 0
247 1 6.9944786430623838e+00 8.9386428838560743e+00 3.9800412733599533e-01 0 0 0
117 2 9.6753862904120957e+00 8.2017862279537068e-01 2.5348655137530396e+00 0 0 0
145 1 1.7287563821993917e+01 7.2073217499634836e+00 1.6887254757069354e+00 0 0 0
192 2 5.0088056509652690e-01 1.0009758490348281e+01 8.9022887622518940e+00 0 0 0
199 1 1.3224027180477784e+00 8.8048943890712010e+00 2.9125266921408386e+00 0 0 0
200 2 1.0060192605800742e+00 9.5021318137762467e+00 2.2746579383299621e+00 0 0 0
201 2 8.0097223639650050e-01 8.0249831781870533e+00 2.6529728078177119e+00 0 0 0
202 1 2.3987815035560889e-01 8.6155045802066095e+00 7.6289797362486089e+00 0 0 0
203 2 -7.1268438782498111e-01 8.4081118887079818e+00 7.7176877016638308e+00 0 0 0
204 2 4.2357817726275382e-01 8.9836817044518344e+00 6.7119545669664360e+00 0 0 0
205 1 6.5195854351066647e+00 1.0489981318382815e+01 2.6377777027759945e+00 0 0 0
206 2 6.4253385599262360e+00 9.7474319043482200e+00 3.2592471450721923e+00 0 0 0
207 2 6.6196215798885758e+00 1.0063965445659949e+01 1.7777162130445767e+00 0 0 0
208 1 4.2065949220765839e+00 9.8443966385966313e+00 7.4025891056617423e+00 0 0 0
272 2 1.0261947544793447e+01 9.4930005630296819e+00 1.4295111542271466e+00 0 0 0
210 2 4.0578899349946473e+00 9.4124858152155664e+00 6.5680418287083295e+00 0 0 0
221 2 4.6857719969766185e+00 1.0945881278179007e+01 3.1567651613644863e+00 0 0 0
79 1 7.4621244779026545e+00 1.6084289610443765e+00 2.9704634917769124e-01 0 0 1
836 2 1.2683482440186397e+01 9.1956883077547289e+00 9.1038347904410593e+00 0 0 0
209 2 3.6436229416167265e+00 1.0625956694952190e+01 7.4483387055502446e+00 0 0 0
70 1 4.0907054325097505e+00 2.1927194632446687e-01 1.7604089204332618e+00 0 0 0
235 1 -2.1531557731707909e+00 7.8510874924200600e+00 8.2849470416235498e+00 0 0 0
236 2 -2.5962351818830141e+00 8.3632071891739539e+00 8.9781699142801052e+00 0 0 0
238 1 3.8486403384103838e+00 8.0880232430421106e+00 1.6900560328366940e+00 0 0 0
239 2 3.0858772240915355e+00 8.3046310313856093e+00 2.2549982516285580e+00 0 0 0
240 2 3.9975484983818976e+00 8.8800617318124893e+00 1.0901305439979974e+00 0 0 0
244 1 6.3393045468095299e-01 9.7756510117019975e+00 5.2694165331125067e+00 0 0 0
245 2 9.3541271172991958e-01 9.1708100061064926e+00 4.5052254414927697e+00 0 0 0
246 2 1.3359974286465859e+00 1.0382954151762581e+01 5.5853300156466670e+00 0 0 0
23 2 8.3822689083198121e-01 3.6346911419082542e+00 9.3746411361996547e+00 0 0 0
106 1 9.4176723401415501e+00 2.5947291274460285e+00 9.3831357634630930e+00 0 0 0
253 1 1.5618024565609289e+01 8.4114484346682534e+00 5.0589296556077743e+00 0 0 0
255 2 1.5506252857991731e+01 8.8096774455919267e+00 4.1509655760129558e+00 0 0 0
256 1 1.2707901368180517e+01 8.5868853104266005e+00 5.3761854760114076e+00 0 0 0
257 2 1.3648820400645107e+01 8.4060423671486681e+00 5.2112966530283131e+00 0 0 0
258 2 1.2560212126698683e+01 9.4016651131963567e+00 4.8141012348412309e+00 0 0 0
83 2 2.1484492837688922e+00 5.4864676260924634e+00 1.0014094593579976e+00 0 0 0
2 2 7.1641619985157678e+00 2.7265684109178034e-01 4.8818879268769768e+00 0 0 0
167 2 1.1630034117659958e+01 5.7522858352576733e+00 1.2223613756776812e+00 0 0 0
276 2 9.5369029435707429e+00 9.8301773764878497e+00 8.6445730595422230e+00 0 0 0
283 1 1.0418902730563314e+01 8.5670823341673614e+00 2.8440899780784403e+00 0 0 0
284 2 1.0339592961611705e+01 8.9815594649755237e+00 3.7469178595626333e+00 0 0 0
285 2 9.6564581210805169e+00 7.9704197717027787e+00 2.6783979951839045e+00 0 0 0
286 1 9.1403773129991563e+00 8.6323339078424173e+00 7.1761601846091434e+00 0 0 0
287 2 9.8320813011178902e+00 8.1605297868557241e+00 7.6904333039923722e+00 0 0 0
288 2 8.2974762581390298e+00 8.3263380678527543e+00 7.5301815108949226e+00 0 0 0
289 1 1.5444023767191489e+01 1.0004272003597306e+01 2.8757672600637361e+00 0 0 0
518 2 7.8780880098507877e+00 4.4842515392996738e+00 5.4082532218702473e-01 0 0 0
291 2 1.5532627712762839e+01 9.7535137317068425e+00 1.9577911833104336e+00 0 0 0
292 1 1.2999632042035785e+01 1.0000329651524160e+01 7.5380630351845097e+00 0 0 0
67 1 -2.4043977280476159e+00 8.0230220276292186e-01 8.4921787704178318e+00 0 0 0
294 2 1.2869091163840906e+01 9.3775890919724425e+00 6.7638153966559900e+00 0 0 0
521 2 1.8248489778569659e+00 5.6091931185923443e+00 9.2781911820658500e+00 0 0 0
220 1 3.8489121871310008e+00 1.0989150735632306e+01 3.6852701835611614e+00 0 0 0
306 2 1.3660380262496924e+01 1.0555781211030856e+01 3.0372191304679377e+00 0 0 0
587 2 -1.6640924769182557e+00 6.4583863731719546e+00 9.3949656946940294e+00 0 0 0
319 1 6.5751345944092812e+00 7.6428175922226247e+00 8.4103423765895400e+00 0 0 0
320 2 6.4775600769972481e+00 8.3747136467263061e+00 9.0382833993599814e+00 0 0 0
321 2 7.2315697083734340e+00 6.9914165930871848e+00 8.8271559785481504e+00 0 0 0
322 1 1.3185064749040775e+01 8.1382829490250703e+00 1.9458210309355652e+00 0 0 0
323 2 1.2568894801009312e+01 8.5601084557623359e+00 2.5312329993260061e+00 0 0 0
324 2 1.2614902752504925e+01 7.5271093772875943e+00 1.4975509310998965e+00 0 0 0
328 1 9.9574197597495662e+00 9.9682762681168420e+00 4.9490492515141584e+00 0 0 0
329 2 9.3319187846243867e+00 9.4702330431083048e+00 5.5260436083706592e+00 0 0 0
330 2 9.4515534062137760e+00 1.0554861208366537e+01 4.3443738751504073e+00 0 0 0
671 2 8.1531606237900647e+00 5.5979394045768762e+00 9.1750738725541847e+00 0 0 0
606 2 1.0483726079127974e+01 4.1162214500427048e+00 9.5511166698673335e+00 0 0 0
22 1 2.1724534615561764e-01 2.8716776437406537e+00 9.4347463614520066e+00 0 0 0
293 2 1.2540616692367994e+01 1.0761856793313362e+01 7.2326684027085033e+00 0 0 0
151 1 6.5244394600993889e+00 4.1680733451783009e-01 8.3115870127481788e+00 0 0 0
254 2 1.5743058029386793e+01 9.2054643182261806e+00 5.6737493960828669e+00 0 0 0
302 2 1.4879028347248205e+01 1.0357181606810759e+01 7.3366660531700694e+00 0 0 0
780 2 1.2976981637047329e+01 9.6384872814757880e+00 6.8166654890128786e-01 0 0 0
237 2 1.5082383041218318e+01 7.2849003638974530e+00 7.9355583199280906e+00 0 0 0
274 1 9.3949217138335861e+00 1.0049764039483350e+01 9.5954812612506206e+00 0 0 0
154 1 1.2841887146242492e+01 7.5103146331398829e-01 1.6955664101662407e+00 0 0 0
86 2 1.6485149276413701e+01 8.2516912039986301e-01 4.8360368165307506e+00 0 0 0
135 2 1.5731491012282225e+01 2.5797583576710768e+00 5.8312102316397878e+00 0 0 0
217 1 6.8038373572588480e+00 1.0366981769018782e+01 6.4481088834534219e+00 0 0 0
273 2 1.0884181517729411e+01 1.0175571719577851e+01 2.3701332874346390e-01 0 0 1
108 2 8.4522646934989396e+00 2.6921689984617068e+00 9.5254713791111900e+00 0 0 0
69 2 1.4733382183356895e+01 4.4612716722952483e-01 8.0740262044396918e+00 0 0 0
187 1 8.4406315172864677e-01 1.0419589979514745e+01 7.2053476616327905e-01 0 0 0
301 1 1.5643203880108832e+01 1.0682261399367940e+01 6.8863800614146040e+00 0 0 0
486 2 1.1294406084762031e+01 3.7328200187023625e-01 8.9470693401580625e+00 0 0 0
19 1 9.4973469059580296e-01 2.5176948668051948e+00 2.2057155063878489e-01 0 0 0
82 1 2.4563919075838547e+00 6.0446951682124359e+00 2.4018386001896658e-01 0 0 1
166 1 1.2001829487120109e+01 6.4048007235954980e+00 5.1684963687205521e-01 0 0 1
99 2 1.2970976828759724e+01 4.3120562540724459e+00 9.5553672298815489e+00 0 0 0
100 1 1.4952680485650395e+01 4.7052495699355896e+00 4.1775059897603445e-01 0 0 0
604 1 1.1096568021282069e+01 4.8629655931303031e+00 9.5403703544187906e+00 0 0 0
333 2 8.5447197199459204e+00 8.2447273500773690e+00 1.9122668727940898e+01 0 0 0
588 2 -1.1716681944779692e+00 5.6145617196040600e+00 1.0715781954138881e+01 0 0 0
691 1 -2.5190789476667406e+00 9.9292314431004876e+00 1.0282011594179563e+01 0 0 0
816 2 7.5529135275094275e+00 1.1039137130095177e+01 1.5361417033264534e+01 0 0 0
669 2 1.2153409022919861e+01 1.9468017991310140e+00 1.0579846937426579e+01 0 0 0
526 1 -2.9127955307235611e+00 2.4508110611088156e+00 1.9193499453733335e+01 0 0 0
797 2 1.0797174608006122e+01 9.8807711565017744e+00 1.7102823896215298e+01 0 0 0
728 2 -3.3587322798539874e+00 1.0874647627786530e+01 1.3454863557685846e+01 0 0 0
812 2 4.0109859130183034e+00 1.1206573097113067e+01 1.2900339223131265e+01 0 0 0
825 2 3.2221429315690369e+00 8.5842454737325546e+00 1.8433130734802813e+01 0 0 0
827 2 9.9747572971873790e+00 7.2593622543504681e+00 1.1677779180011667e+01 0 0 0
275 2 9.4466198401511612e+00 9.1685405352296794e+00 1.0035504839984222e+01 0 0 0
105 2 3.1959058631623343e+00 2.0349674774691553e+00 1.8899444658531010e+01 0 0 0
986 2 1.3590805359413004e+01 1.6560393987144867e-01 1.0531095019225834e+01 0 0 0
833 2 6.7820007664873962e+00 9.4596291186370394e+00 1.3567100478101125e+01 0 0 0
696 2 -2.6337632468814620e+00 1.1065205648645648e+01 1.9212453602496641e+01 0 0 0
332 2 8.8253196907374161e+00 9.5970507712138069e+00 1.8696870308338660e+01 0 0 0
835 1 1.2548989387244267e+01 8.5414287310881978e+00 9.8219368459653733e+00 0 0 0
505 1 3.3478825779350094e+00 1.0286925469734292e+00 1.4436781079798742e+01 0 0 0
506 2 3.3303760074964384e+00 1.4877284352332281e+00 1.5313842326276951e+01 0 0 0
694 1 -3.2595135667764459e+00 1.0344620250972982e+01 1.9152066010522500e+01 0 0 0
508 1 4.8675182357223612e-01 9.3105733891017184e-01 1.4835151643225705e+01 0 0 0
826 1 9.3885990396435943e+00 7.8748276221300610e+00 1.1246051392881871e+01 0 0 0
510 2 1.3367411920247401e+00 8.8025648466748818e-01 1.4368005612420895e+01 0 0 0
511 1 -4.2107227805688368e+00 6.6097243154202596e+00 1.4662084091975455e+01 0 0 0
512 2 -4.4508260382203719e+00 5.7326481307077470e+00 1.4266806768648330e+01 0 0 0
513 2 -4.1680927670336914e+00 6.4764066179212074e+00 1.5646449788638819e+01 0 0 0
514 1 -1.3917677336277832e+00 6.4852275268406272e+00 1.4306238029769247e+01 0 0 0
515 2 -1.2160384429327187e+00 5.7207415344186421e+00 1.4969746738120293e+01 0 0 0
516 2 -2.3625237707664608e+00 6.6511240307623547e+00 1.4334473203911795e+01 0 0 0
724 1 5.0133384398944436e-01 1.1016154230245316e+01 1.3371080582540730e+01 0 0 0
519 2 1.6767941105771431e+00 5.1581835549465866e+00 1.8398241524076926e+01 0 0 0
608 2 5.9221640937042714e+00 3.0700129726808210e+00 1.0060564255523733e+01 0 0 0
522 2 2.0143662308534398e+00 5.2569911441549504e+00 1.0767688263921283e+01 0 0 0
815 2 8.7390010535090781e+00 1.1192142161776646e+01 1.6343163519267421e+01 0 0 0
612 2 5.4027529044953875e+00 2.7651655046567307e+00 1.9013851547181531e+01 0 0 -1
525 2 -2.3077587965332134e+00 2.5193079136679395e+00 1.1052133553153967e+01 0 0 0
536 2 -2.6747509511523546e+00 4.8719336918272121e-01 1.2025991098098775e+01 0 0 0
527 2 -2.8689535923573399e+00 2.0484508312599572e+00 1.8256149001650286e+01 0 0 0
529 1 1.5504464820740527e+00 6.3889773537740329e+00 1.6938524620770682e+01 0 0 0
530 2 1.4433785026052686e+00 5.8627860543385557e+00 1.6083450827317293e+01 0 0 0
531 2 6.3732571094835411e-01 6.6959328052395826e+00 1.7105590837846286e+01 0 0 0
532 1 2.5249289067210103e+00 6.0232060988539455e+00 1.2231082567768318e+01 0 0 0
533 2 3.4683509896678952e+00 6.2839974807897709e+00 1.2182682280852145e+01 0 0 0
534 2 2.1959145824689781e+00 5.7186311845674229e+00 1.3097026551309980e+01 0 0 0
535 1 -2.0786692423859106e+00 1.1388382431869384e+00 1.2405663409252222e+01 0 0 0
524 2 -2.9687675879935487e+00 3.4737383851521950e+00 1.0004156224740361e+01 0 0 0
537 2 -1.1904682964683522e+00 8.2757341447350530e-01 1.2425604192866892e+01 0 0 0
538 1 -2.7641494797856807e+00 1.0779871215601207e+00 1.6830301039050976e+01 0 0 0
539 2 -3.5375500143369139e+00 4.8651637675859660e-01 1.6714663903637678e+01 0 0 0
540 2 -2.5770229281331369e+00 1.4478178274233613e+00 1.5933192782943582e+01 0 0 0
541 1 3.0486572046141696e+00 2.7421358597629384e+00 1.2134831842570305e+01 0 0 0
542 2 3.0905676733397707e+00 2.1023071932896835e+00 1.2912002405378939e+01 0 0 0
543 2 2.9984689170597516e+00 2.2421511696015148e+00 1.1269836946432095e+01 0 0 0
544 1 1.0238944410125299e+00 2.8913680818891527e+00 1.6914395564252352e+01 0 0 0
545 2 1.0726689198726049e+00 2.4813211948879328e+00 1.7791270321602248e+01 0 0 0
546 2 7.7631028091516097e-01 2.2031534833672977e+00 1.6274913614495475e+01 0 0 0
547 1 -3.3101413694007227e+00 4.6407124817357852e+00 1.7247746983996464e+01 0 0 0
548 2 -3.9880263576229993e+00 4.1558034535668975e+00 1.6677682465885763e+01 0 0 0
549 2 -3.8684612250429833e+00 4.9041049144074682e+00 1.8010722495427022e+01 0 0 0
550 1 -1.5574960671134526e+00 4.8954351079304796e+00 1.2170308090415341e+01 0 0 0
551 2 -8.6703914532581328e-01 4.1766203520573359e+00 1.2361074309379784e+01 0 0 0
552 2 -1.2993702634441240e+00 5.5070715613699379e+00 1.2910834442772360e+01 0 0 0
553 1 3.3776358649769795e+00 3.5169548517073923e+00 1.6007810978544370e+01 0 0 0
554 2 2.6827488425819412e+00 3.2460024430836292e+00 1.6650597148090146e+01 0 0 0
555 2 4.0317783218999397e+00 4.0063882251377310e+00 1.6524390674303312e+01 0 0 0
556 1 4.7126150044203463e-01 3.1246250396696262e+00 1.2985166036401868e+01 0 0 0
557 2 1.3799865474674453e+00 2.8415770530885798e+00 1.2702290226114735e+01 0 0 0
558 2 2.6672205055743703e-01 2.2603595295761427e+00 1.3506187060582644e+01 0 0 0
559 1 -4.0153931244538192e+00 4.2814178927267834e+00 1.3401595802341532e+01 0 0 0
560 2 -3.2475602715001219e+00 4.5578921073394580e+00 1.2910779864510131e+01 0 0 0
561 2 -3.6689705231357221e+00 3.5643996103284192e+00 1.3943138512548321e+01 0 0 0
562 1 -1.1204870533723321e+00 4.4056216629802814e+00 1.5930168867014370e+01 0 0 0
563 2 -2.5482255709522583e-01 4.1728054705618334e+00 1.6311584533563934e+01 0 0 0
564 2 -1.8315772130779737e+00 4.4973413962699214e+00 1.6615426045873104e+01 0 0 0
565 1 4.9896357324374812e+00 6.9355534516035542e+00 1.1331188262095747e+01 0 0 0
566 2 4.5667251661809205e+00 7.6630140743656128e+00 1.0862812897927105e+01 0 0 0
567 2 5.2457755256322223e+00 6.2377706030342077e+00 1.0763721580271163e+01 0 0 0
568 1 -1.0845797236998527e+00 7.1762900118655102e+00 1.7913491321922027e+01 0 0 0
569 2 -1.3717319931463772e+00 6.3672805112218294e+00 1.8334999062613331e+01 0 0 0
570 2 -6.0738395448819915e-01 7.6962648452823181e+00 1.8581135960862436e+01 0 0 0
107 2 9.6259998303406995e+00 1.8806559674070873e+00 1.0027884122695948e+01 0 0 0
572 2 -5.7295391879213691e+00 1.1017627001782615e+00 1.8169998723731414e+01 0 0 0
692 2 -2.9222164579856198e+00 1.0726724222715053e+01 9.9059402542502202e+00 0 0 0
81 2 2.3801528818498952e-01 8.8129970547438718e-01 1.8877943694846653e+01 0 0 0
576 2 7.0167058762194001e-01 1.5350161465992191e+00 1.0656156091232830e+01 0 0 0
577 1 1.7351320399458023e+00 5.0552358551408290e+00 1.4580437795643585e+01 0 0 0
578 2 1.0409562988370773e+00 4.4354892148335363e+00 1.4243933802439814e+01 0 0 0
579 2 2.3757362061194716e+00 4.4466953540173906e+00 1.4982527227524670e+01 0 0 0
580 1 -2.5289509776473986e+00 2.4098222461756542e+00 1.4631059557215551e+01 0 0 0
581 2 -2.2491655717181462e+00 1.9928109601871591e+00 1.3782922264735481e+01 0 0 0
582 2 -1.8665060528371522e+00 3.0818072187837799e+00 1.4918753097340018e+01 0 0 0
586 1 -9.1279997153647141e-01 5.9695362986566005e+00 9.8253256940797709e+00 0 0 0
190 1 5.3785878201714699e-01 1.0191426234050375e+01 9.8331172848823876e+00 0 0 0
589 1 1.1892907281141042e+01 1.2313913000068075e+00 1.4722057049365032e+01 0 0 0
590 2 1.0949911449740139e+01 9.5155835508124154e-01 1.4894901893182034e+01 0 0 0
591 2 1.2103064442563799e+01 1.8638358630453709e+00 1.5454065652680239e+01 0 0 0
592 1 9.1487768967166616e+00 1.0316336113326041e+00 1.5084768151700056e+01 0 0 0
693 2 -1.5627580768300948e+00 1.0042537065057974e+01 1.0056262515185182e+01 0 0 0
594 2 8.9893838910321282e+00 1.7597089571557392e+00 1.4428002050527168e+01 0 0 0
595 1 5.0872954510056951e+00 6.6193874823369310e+00 1.4714921357405725e+01 0 0 0
596 2 4.9650301200698834e+00 6.1945029991419061e+00 1.5574070281770570e+01 0 0 0
597 2 4.8109224401488948e+00 5.9460193022197529e+00 1.4060540650794591e+01 0 0 0
598 1 7.8141488953053635e+00 6.4768848259789547e+00 1.4231604592693280e+01 0 0 0
599 2 6.8728009007137629e+00 6.6071755833893455e+00 1.4407991789603262e+01 0 0 0
600 2 7.6670140625163814e+00 6.0293911902773534e+00 1.3340473868316597e+01 0 0 0
823 1 3.5377781562009867e+00 7.8567749745372391e+00 1.7865450505262803e+01 0 0 0
603 2 1.0821816179597679e+01 5.3380961453871496e+00 1.8323445596010139e+01 0 0 0
808 1 9.1252089537254761e+00 1.0878387681842321e+01 1.2919175427955990e+01 0 0 0
605 2 1.0939521518930277e+01 5.2468099962526606e+00 1.0463627435297790e+01 0 0 0
670 1 7.9302045350013284e+00 5.9859212825285022e+00 1.0008651035185652e+01 0 0 0
571 1 -5.4600268591638237e+00 3.5611364747338409e-01 1.7578466562605183e+01 0 0 0
805 1 -5.1595678763081638e+00 1.0876561007587286e+01 1.6098193522689311e+01 1 0 0
609 2 6.9744615950990827e+00 2.1560472054918143e+00 1.1018434792342697e+01 0 0 0
620 2 6.3889356118926885e+00 1.2200053719457725e-01 1.1845824046347007e+01 0 0 0
611 2 6.5206392841974736e+00 2.1075520970678769e+00 1.8267222339823704e+01 0 0 0
613 1 1.0519854813581960e+01 6.3779327011131191e+00 1.7044750819773700e+01 0 0 0
614 2 1.1217355939224444e+01 7.0557664994269809e+00 1.7169358859663021e+01 0 0 0
615 2 9.6974377557927447e+00 6.8005575828254656e+00 1.7309513703825683e+01 0 0 0
616 1 1.1164690516239128e+01 5.9584070060738981e+00 1.1909652281732974e+01 0 0 0
617 2 1.1082560891295994e+01 5.6839431006292056e+00 1.2840137267493535e+01 0 0 0