LAMMPS data file via write_data, version 3 Mar 2020, timestep = 10550000

2016 atoms
2 atom types

0.0000000000000000e+00 1.7934322902818220e+01 xlo xhi
-4.7975775291529033e-01 4.5475917729829575e+01 ylo yhi
0.0000000000000000e+00 1.9073388412287574e+01 zlo zhi
4.3454808643711082e-02 -6.6738135422689346e+00 -2.2819122524829538e-02 xy xz yz

Masses

1 16
2 2

Atoms # atomic

301 1 1.3370143896737158e+01 2.8894374467127895e+00 3.1388538361202656e+00 0 0 0
440 2 -3.2314805875004815e+00 5.3269518598563503e-01 1.8063664324264124e+01 -1 0 -2
534 2 1.2082162157776736e+01 1.3833295178087524e-01 1.4483641804868313e+01 -2 0 0
131 2 3.2553412015258107e+00 9.3558599979718213e+00 1.5002957867496990e+01 -1 0 0
60 2 1.6867521214028095e+01 -1.6481183274512351e-01 1.0985698550442480e+00 -3 0 1
796 1 -3.7912790159479477e+00 8.2655100939214332e+00 1.3425715243976770e+01 -2 0 1
275 2 1.9988046724859503e+00 5.7353937207549577e-01 1.0422207566946909e+01 3 0 -1
424 1 7.6956384119306298e-01 3.8560645832637999e+00 1.0996053800806232e+01 -2 0 1
991 1 -2.6701947643852186e-01 9.2017747676355413e+00 7.0507699043432401e+00 2 0 1
784 1 -3.4187367079879873e+00 7.8287321012564650e+00 1.7981634204633810e+01 -3 0 -3
938 2 5.3360749955962659e+00 1.3565441473749213e+00 1.6687314984587282e+01 0 0 1
868 1 -1.4817460369784530e+00 9.0947659216704828e+00 1.1708454438927996e+01 3 0 0
20 2 -1.6071495384480881e+00 5.8670386999946853e+00 1.2090059597729873e+01 -2 0 -3
130 1 2.2962646052032571e+00 9.4271001914380061e+00 1.4705492772350855e+01 -1 0 0
829 1 1.0484722400715130e+01 6.5592209128758627e-01 2.1733631941533189e+00 -4 0 1
262 1 -4.1574690795314089e+00 1.0844220824802964e+01 1.8784372870354392e+01 0 0 0
910 1 1.6857846793951243e+01 4.5679111496836260e+00 3.0520150605479812e+00 -2 0 1
34 1 9.0775620121006870e+00 7.2696811746465508e+00 9.4101474992010079e+00 -1 0 0
818 2 7.8266215718141607e+00 1.9002980052176750e+00 1.9025532769592132e+01 1 0 2
523 1 9.2578068116235031e+00 4.6279863099958911e+00 1.8997333301345282e+01 -2 0 -4
529 1 1.4704053734024368e+01 3.8945802342421558e+00 8.1076135012279078e+00 -1 0 0
389 2 -5.6075805940957535e+00 3.0651609921225966e+00 1.6918216003226359e+01 0 0 0
132 2 1.9371960156196772e+00 1.0087928081490571e+01 1.5332764831327800e+01 -1 0 0
151 1 -3.3129237203456903e+00 2.0330412125919084e+00 1.4961793056062483e+01 3 0 -1
408 2 1.0543685055184049e+01 -3.5743611005087228e-01 1.3100886442948696e+01 -2 0 -2
752 2 1.1763834857102658e+01 4.2889407319933923e+00 1.3426236033331920e+01 0 0 2
1087 1 -8.4150774994810740e-01 3.5363822724609824e+00 5.9629996651278514e+00 0 0 1
1088 2 -2.9475982875268603e-01 3.4887139457499865e+00 6.7414455920084242e+00 0 0 0
379 1 6.5634744223958794e+00 7.1274256084614658e+00 1.0130145488151348e+01 -2 0 1
92 2 6.5849739370490745e-01 5.4096489950902731e+00 7.9137503416512613e+00 0 0 1
178 1 1.0451213673840554e+01 9.5123315556931178e+00 2.1791709610209629e+00 -3 0 0
731 2 1.0487218404258966e+01 9.9145090328613232e+00 1.4416958999690275e+01 -1 0 0
349 1 5.8964459770943725e+00 2.6697422136248208e+00 1.5286666512801609e+01 3 0 3
714 2 -3.4869057669188450e+00 7.8864601313312654e-01 1.4050732133770445e+01 0 0 2
939 2 4.3943621735057050e+00 8.0134651084957587e-01 1.7830240240004159e+01 0 0 1
186 2 5.3321160366064291e+00 5.0160670142514707e+00 6.5622794178114496e+00 -4 0 -5
36 2 9.7697069077950864e+00 7.9780985259751045e+00 9.2453508200695929e+00 -1 0 0
502 1 1.0164010741128608e+00 6.2894154967664511e+00 1.6462009196098634e+01 0 0 -2
179 2 1.0981401591236020e+01 9.7870610136757215e+00 2.9657874544512528e+00 -3 0 0
777 2 1.3466032752026075e+01 4.0109693351588502e+00 1.6816744397588246e+00 -2 0 2
845 2 8.7699539237752031e+00 7.1025717532328834e+00 1.6982086504094131e+01 0 0 0
870 2 -2.2732622678681205e+00 8.9452908603420500e+00 1.2179085888055393e+01 3 0 0
423 2 1.6394966461080038e+00 1.3397925506088157e+00 1.2490362000392718e+01 1 0 0
605 2 6.8300850627370435e+00 5.9865987751904735e+00 1.1500600557978160e+01 0 0 2
454 1 4.9432311832279741e+00 6.7096004483568361e-01 4.3811982155883888e-01 -1 0 0
96 2 4.1892100407077191e+00 5.2582080332168868e+00 1.4195676327916138e+01 -2 0 -2
667 1 9.8322125270333132e+00 2.5424074350410244e+00 1.2008285520015995e+01 -3 0 -3
710 2 9.2799211953808971e+00 1.9987916048501888e+00 5.3501181416904240e+00 -4 0 -2
640 1 1.4566361871844695e+01 4.2203931487941757e+00 5.2334583982929628e+00 3 0 -1
915 2 6.3422878021057212e+00 7.9668380841918331e+00 5.5398289849117921e+00 0 0 2
441 2 -4.3394472119012208e+00 1.5979281707252850e+00 1.7678919042587360e+01 -1 0 -1
638 2 9.9563015025934281e+00 1.6546464312491171e-01 6.1374670665064124e-01 -1 0 -1
560 2 5.7145952953707360e+00 2.6641598389456074e+00 2.3839136081901988e+00 -2 0 1
921 2 1.0649351960299805e+01 7.8789573802971145e+00 5.5906993926501238e+00 1 0 -2
283 1 4.9344779910779097e+00 4.8864963233276826e-01 9.4598799533777687e+00 -4 0 1
797 2 1.3268326698391617e+01 7.9431474502328570e+00 1.3095968641871442e+01 -3 0 1
794 2 7.1135753133308786e+00 -1.6722472392337462e-01 3.5645004796485744e+00 -1 0 0
417 2 7.7506385781383811e+00 1.0023306783201289e+01 1.4937418984521120e+01 1 0 -3
471 2 7.9499053539984192e+00 9.7964447550785376e+00 1.0330667282774288e+01 -6 0 -2
307 1 1.2525737393558202e+01 1.3587726307779286e+00 1.1457408261506593e+01 1 0 2
779 2 -1.2566428633046050e+00 1.0850973693224983e+01 1.3509453830839366e+01 1 0 -1
979 1 8.1836463520349891e+00 8.8780334310377711e+00 3.3988703832715608e+00 -2 0 0
737 2 3.6617144173125338e-01 6.7300623122190872e+00 9.7515310714812493e+00 0 0 1
167 2 8.1250334501067183e+00 4.0192363228587258e+00 4.6542704538408106e+00 -3 0 -4
831 2 1.1268897701528475e+01 2.8182020810992925e-01 2.6751712972165613e+00 -4 0 1
643 1 -3.7768276784343779e-01 3.9059569410856758e+00 1.6942443201772758e+01 -3 0 -3
1490 2 2.4124944001518909e+00 6.5009829369148093e+00 1.1823381915437245e+01 -3 0 -1
426 2 4.9634214030554702e-01 4.4813904139556699e+00 1.1700140252448715e+01 -2 0 1
508 1 -5.9312601733655352e+00 6.7291902747239138e+00 1.8494362386756681e+01 -1 0 -2
677 2 7.3011062977330052e+00 2.6685693462210729e+00 4.3470193195909534e-01 -2 0 1
1079 2 1.5252353699703547e-01 8.9593694689983057e+00 2.5732663934510978e+00 0 1 1
953 2 2.6542384699518320e+00 7.3179841952352120e+00 8.1261958037418438e+00 -1 0 1
631 1 7.6120928054018098e+00 9.0498169016256753e+00 1.2122466015720281e+01 -3 0 -2
58 1 1.7632508743253162e+01 1.5604200404088941e-01 5.9930265886919287e-01 -3 0 1
556 1 1.3652378881070870e+01 1.0821091120524549e+01 6.8389160299467902e+00 -2 0 1
268 1 7.9527199554074564e+00 6.3279191483035868e+00 1.4690293299385262e+01 1 0 -2
229 1 2.5062774649777717e+00 2.5387160452827722e+00 2.7974928506551482e+00 0 0 -2
676 1 7.3798499632453129e-01 2.3004170734564928e+00 1.8625636070596471e+01 -2 0 0
893 2 -2.5716810863744173e+00 6.5943706494374572e+00 1.0047250275824004e+01 -2 0 -4
736 1 5.4110938581911361e-01 7.4387990117228595e+00 1.0428026983293291e+01 0 0 1
382 1 4.9952683018680668e+00 1.5839724374975011e+00 1.1939245538084014e+01 -3 0 0
558 2 1.3842448158445793e+01 1.0262950917028769e+01 7.6395922883021230e+00 -2 0 1
869 2 -1.6972272794735161e+00 9.3726707965948108e+00 1.0808670529286754e+01 3 0 0
895 1 -3.4843938584466216e-01 1.0844912677451866e+01 4.9201164983969585e+00 -2 0 0
362 2 1.0789916941650567e+01 3.7971924826774144e+00 5.3566081038331792e-01 -1 0 -1
270 2 7.8589353063199781e+00 6.3389557161965620e+00 1.3766528351517429e+01 1 0 -1
166 1 7.6192602505807550e+00 4.7070674206338357e+00 4.1023608381335519e+00 -3 0 -3
206 2 1.4033305712688046e+01 6.6523226417685475e+00 8.1576689041731161e+00 3 0 1
514 1 1.5721480396213213e+01 6.8458443814657839e+00 2.2950124533199365e+00 -1 0 -2
458 2 1.1620156665176891e+01 6.4648642945018313e+00 1.6662533764313544e+01 -3 0 -3
955 1 2.9246644906731110e+00 3.6906628526466285e+00 5.2817061187063850e+00 -1 0 -3
606 2 6.0158222960715602e+00 5.4808784610106711e+00 1.2891060481332788e+01 0 0 2
103 1 5.4693596039312871e+00 6.0758315268049570e+00 7.9521962639126853e+00 -1 0 0
786 2 -2.7591632605603773e+00 8.0637029624588301e+00 1.8641068963636545e+01 -3 0 -3
231 2 3.4601347400027458e+00 2.2314237033438502e+00 2.6386799952279745e+00 0 0 -2
649 1 -4.4150352906554069e-01 5.3496805665862901e+00 1.2788163917470309e+01 -4 0 0
54 2 7.4154582715004533e+00 3.0561595910433494e+00 9.2724042144821226e+00 1 0 0
121 1 1.2174503108655619e+01 3.0091586382454150e-01 9.1645443773572453e+00 -2 0 0
957 2 2.7306221517717182e+00 3.4223317348703226e+00 4.3445300909672460e+00 -1 0 -3
645 2 -9.6495795975732435e-02 3.2024182936278924e+00 1.7517135822807976e+01 -3 0 -3
104 2 4.6277941772665292e+00 6.2780265683167729e+00 8.4300825548041658e+00 -1 0 1
391 1 3.0586710989448487e+00 3.8177729783455936e+00 8.3116980899681980e+00 -1 0 -1
916 1 -1.1120455720324451e+00 3.3722960697543640e+00 1.4387188810602190e+01 1 0 2
773 2 4.6316952139985936e+00 2.8512949175678290e+00 7.6658398527676583e+00 1 0 -2
207 2 1.2794787249480191e+01 7.1687425732310679e+00 7.3362808877237136e+00 3 0 1
175 1 1.1232426556491127e+01 9.1199174071622089e+00 9.4497167248925980e+00 -5 0 1
975 2 -4.1553282979387127e+00 4.8583371196336840e+00 1.3976754682032782e+01 -4 0 -2
734 2 1.0856349806245914e+01 3.3397023660815979e+00 8.1612935690504855e+00 -3 0 -1
428 2 1.0343006925007428e+01 2.5499041422642432e+00 2.2699916138004559e+00 -1 0 0
288 2 9.9005813640559523e+00 2.2818584246435010e+00 1.7243166811390047e+01 1 0 -3
297 2 1.4565615661372439e+01 -3.3725369151487339e-01 5.6602162439955102e+00 0 0 3
295 1 1.4168061831270292e+01 5.3307379137701894e-01 5.3155435932445174e+00 0 0 3
561 2 5.2826578742509289e+00 1.5645478739132970e+00 3.5855083159404466e+00 -2 0 1
1003 1 1.5554769952632723e+00 2.6389893011085794e+00 1.3765868062698427e+01 -3 0 -2
387 2 1.5807650790903326e+01 1.1028599156114771e+00 2.4507316771814476e+00 -1 0 -2
952 1 3.0397487086681285e+00 6.7672207339006736e+00 8.7990701858143510e+00 -1 0 1
648 2 6.4783996029898718e+00 5.6857738931058499e+00 1.6952182936264293e+01 -3 0 -1
67 1 7.4675556399236029e+00 8.9063671252201964e+00 1.9071905015250323e+01 -4 0 -3
346 1 -4.0848867137387543e+00 1.0738258182381029e+01 1.4172817585461377e+01 -1 0 -2
817 1 1.3708516303265521e+01 1.7800409169233906e+00 5.1992726178190729e-01 1 0 3
383 2 5.8416301217107716e+00 2.0932160689489514e+00 1.1903030316709444e+01 -3 0 0
673 1 2.8284480348766863e+00 3.3414108876090052e+00 1.6896717300153586e+01 0 0 -4
299 2 1.5517766816391983e+01 1.0788868549322146e+01 2.7263550941078654e+00 -3 0 -1
593 2 8.3239341698962335e+00 1.0427601973890207e+01 3.1686887819810233e-01 -2 0 0
509 2 -6.0285791657354615e+00 5.9177779371239820e+00 1.9004472166561225e+01 -1 0 -2
355 1 7.1418424442182662e+00 2.9045845610317875e+00 1.1050413478444934e+01 -5 0 -4
687 2 1.4213422015729279e+01 1.3322823368217593e+00 7.1062741607122328e+00 -4 0 0
931 1 6.5642908377062774e+00 3.8242108770202359e+00 1.7778862705584015e+00 -2 0 0
510 2 -4.9755235348564550e+00 7.0023782602531979e+00 1.8513239151734822e+01 -1 0 -2
224 2 1.1897552316791629e+01 5.9178612288686629e+00 3.3938336626503953e+00 -3 0 -2
300 2 1.4947353136463144e+01 9.8455182492395412e+00 1.6171790282910357e+00 -3 0 -1
633 2 6.7287067138902126e+00 8.7242658761637042e+00 1.2377609357148584e+01 -3 0 -2
525 2 1.5032464865554202e+01 4.6288127481715993e+00 4.4812930472132728e-01 -2 0 -3
832 1 4.9534986525189693e+00 5.8290619809083548e+00 9.3757476624096026e-01 -4 0 1
172 1 4.5306842083239607e-01 2.0745027938418428e+00 7.9723743845243753e+00 -1 0 -2
757 1 -3.7714865557065398e+00 3.3257434992038011e+00 1.1072118529975363e+01 -1 0 -1
912 2 1.6307961711466294e+01 5.1796450774727569e+00 2.5989884920823041e+00 -2 0 1
711 2 8.3503838927659082e+00 2.2651790352414523e+00 6.5540402612204511e+00 -4 0 -2
613 1 9.4349946567855554e+00 6.7632817422696405e+00 4.6037328805959401e+00 -2 0 0
1664 2 1.2075555635501397e+01 2.4745417964833973e+00 4.2254431477003802e+00 -3 1 -1
52 1 7.5987011963389195e+00 2.9749217254250357e+00 8.3251730393622658e+00 1 0 0
469 1 8.2097364140091109e+00 1.0491699400404885e+01 9.7475215828728174e+00 -6 0 -2
1080 2 1.1512122010364999e+01 6.7485521516237004e+00 1.3222286875030851e+00 0 0 0
232 1 1.1817113627812823e+01 6.8679053575769569e+00 1.2451498516446305e+01 -2 0 0
913 1 6.8786734311915669e+00 7.6082505157002416e+00 6.2460874764310184e+00 0 0 2
356 2 6.9618287225615276e+00 3.7542513921273839e+00 1.1445187581736622e+01 -5 0 -3
973 1 -4.6380331726654660e+00 4.0605256865387318e+00 1.3701059267015252e+01 -3 0 -2
811 1 7.7071612169043728e+00 4.2803928610028894e+00 1.6606435300267790e+01 -2 0 -1
285 2 5.3878155242750694e+00 -4.2109503944240989e-01 9.5648872333967230e+00 -4 0 1
636 2 1.3642114255373636e+00 8.5956751446819126e+00 6.7897781381222879e+00 1 0 -2
923 2 1.1075021408454512e+01 1.8352867830230259e+00 1.4979878428814994e+01 -4 0 -4
230 2 1.9524527636954248e+00 1.7458739706069761e+00 2.8133053081678119e+00 0 0 -2
16 1 1.4108654827984569e+01 8.9497628929819513e+00 4.9017035737893275e+00 1 0 2
35 2 9.1447519888803690e+00 6.7694061431138994e+00 8.5402578925200672e+00 -1 0 0
668 2 1.0434085063476557e+01 2.1824768307738633e+00 1.1379792248087266e+01 -3 0 -3
920 2 1.1394066618130497e+01 9.2229503220927924e+00 5.5453373771438663e+00 1 0 -2
384 2 5.0076557469530423e+00 9.6914680421522759e-01 1.2668042012948309e+01 -3 0 0
772 1 5.1606886175326316e+00 2.0955269858185841e+00 7.4391964599650953e+00 1 0 -2
339 2 1.2520480066584835e+01 5.5753243521357083e+00 9.4017640592428755e+00 -2 0 -2
813 2 8.2453263798990477e+00 4.0677633163203391e+00 1.7374371162035693e+01 -2 0 -1
709 1 8.3918607817359625e+00 2.3328195940619643e+00 5.5479462477818897e+00 -4 0 -2
82 1 3.4408781319336734e+00 3.6854927231601113e+00 1.1093015185191158e+01 0 0 -2
310 1 -1.9004808531703525e+00 7.1415336195385191e+00 6.4490818918812574e+00 1 0 -2
287 2 1.0012725468912063e+01 1.3053730991780637e+00 1.8604091484066004e+01 1 0 -3
41 2 8.8457198313237964e+00 7.8792361133477442e+00 1.2396826538165550e+01 -2 0 4
191 2 1.0264943022752007e+01 4.9040931076293477e+00 6.8554836740175498e+00 -3 0 -3
113 2 8.0931385926313162e+00 6.1920646406887316e+00 6.6401037338261091e+00 -2 0 -1
296 2 1.4888452549067029e+01 9.3301433245271803e-01 4.8322131872526004e+00 0 0 3
745 1 1.1025490778210360e+01 -2.3800981017977629e-01 5.7253554819093821e+00 -3 0 1
980 2 8.8824611841496566e+00 9.1371193358690377e+00 2.7453184405691808e+00 -2 0 0
180 2 1.0925423349508849e+01 8.8496171339373060e+00 1.6347324819463669e+00 -3 0 0
544 1 2.4326449000698518e+00 6.3858768243595225e+00 1.9226420000728857e+00 1 0 1
634 1 2.3174892054228007e+00 8.4535397659773004e+00 6.6009760407017231e+00 1 0 -2
393 2 2.3645066268443813e+00 3.2018116494659266e+00 8.0550424007199926e+00 -1 0 -1
995 2 -2.1760867889605482e+00 3.1285737216111464e-01 1.2309094770011903e+01 3 0 1
726 2 2.2035289114867602e+00 9.6821258003457658e+00 1.3020926985257015e+00 1 0 1
693 2 3.8007245519470869e+00 6.1935987450435892e+00 4.7231163033332422e+00 0 0 2
769 1 5.7512775876860198e+00 8.6022725224354613e+00 5.3879146263289412e-01 1 0 -3
425 2 1.7103517332318394e+00 3.6414688896747256e+00 1.1011328325651236e+01 -2 0 1
192 2 1.1833088005264788e+01 5.2796367363501835e+00 7.0203178872169634e+00 -3 0 -3
530 2 -2.3328990982292095e+00 3.7221667691494682e+00 7.9013014935287584e+00 0 0 0
185 2 6.1685275219063431e+00 4.7824931410812610e+00 5.2561109766840888e+00 -4 0 -6
208 1 -1.3674882383271303e-01 6.3692062331335126e+00 4.7419086420884993e+00 3 0 -1
390 2 -4.2894066195564502e+00 3.7642431636818161e+00 1.7470368638321130e+01 0 0 0
958 1 4.7635500969761448e+00 -2.5631374487417802e-01 1.3831265310227375e+01 0 0 -2
894 2 -1.7760072669722631e+00 6.8134343275970988e+00 8.6605607546205459e+00 -2 0 -4
129 2 1.5908528874756098e+00 8.8217770676754519e+00 9.9630453410874242e+00 -1 0 -1
776 2 1.2895908877059421e+01 4.7857802681036317e+00 5.3094902836870683e-01 -2 0 2
298 1 1.4735443557919492e+01 1.0321476306245280e+01 2.4212872793046158e+00 -3 0 -1
338 2 1.1528183076623186e+01 4.6244552263447565e+00 1.0080778980737053e+01 -2 0 -2
335 2 1.0139877105950942e+01 8.5179764468922627e+00 1.8293186520223518e+01 -2 0 -3
993 2 -9.0208306323298126e-01 8.4864807990058839e+00 6.7878740039000522e+00 2 0 1
692 2 2.8532001816051000e+00 7.2463370158425029e+00 5.4359636079484943e+00 0 0 2
691 1 3.4404016817835741e+00 7.0870849879087618e+00 4.6716257036252635e+00 0 0 2
706 1 8.4754071736851078e-01 7.6277275651487244e+00 1.3345475317612291e+01 -1 0 -1
312 2 -1.3147761401969493e+00 6.7375355075487500e+00 5.7882029387413434e+00 1 0 -2
289 1 5.0817673802504828e+00 7.9881889103458761e+00 1.3244071377575127e+01 1 0 3
701 2 1.3483735099047429e+01 7.3862353415594475e+00 4.5580222831818604e+00 -4 0 -3
724 1 2.1140945168859768e+00 9.2288058827543562e+00 2.1228855533619773e+00 1 0 1
302 2 1.3946934738477808e+01 2.2101159442033578e+00 2.7386853120188084e+00 0 0 0
932 2 5.9409983991885991e+00 4.5317950366979467e+00 1.3996022038498890e+00 -2 0 0
592 1 1.4194719719974858e+00 9.6660111343507626e+00 1.8784500129905734e+01 -2 0 -1
553 1 -1.3311148061972529e+00 2.5018424682533356e+00 1.0311688099962799e+01 -4 0 -2
632 2 7.8218965667328924e+00 9.7325934814589310e+00 1.2772160259109155e+01 -3 0 -2
830 2 9.7032719359099335e+00 4.2452140205432154e-01 2.7661511535609993e+00 -4 0 1
956 2 3.9008204045945805e+00 3.9459475266194870e+00 5.3235605856023662e+00 -1 0 -3
812 2 7.1053506124269585e+00 3.5368100000898828e+00 1.6347122682276115e+01 -2 0 -1
392 2 3.3553492863943419e+00 3.6427779731914871e+00 9.2520728257192548e+00 -1 0 -1
284 2 5.0799845012410572e+00 8.9231999815080498e-01 1.0369949789447691e+01 -4 0 1
294 2 2.5320793828805472e+00 7.0334117900114235e+00 1.7176160744638931e+01 1 0 -3
785 2 -3.7723764845838685e+00 8.6877097919423996e+00 1.7685157164093503e+01 -3 0 -3
996 2 -1.5867173098056080e+00 -2.4579111529138353e-01 1.0802605173185988e+01 3 0 1
1675 1 2.5660744573731034e+00 5.1950607052672089e+00 1.4418560698800956e+01 0 0 0
627 2 4.9837901321943221e+00 1.0589761718884146e+01 1.0508838602126179e+01 0 0 0
828 2 1.6766370785490654e+00 3.6829717400901565e+00 1.7746366705478931e+00 1 0 1
904 1 -2.8346180801560314e+00 4.8065936260472739e+00 1.7417438800698992e+01 -2 0 1
276 2 3.2662833421601820e+00 5.2617232941934744e-01 9.6176234364929591e+00 3 0 -1
464 2 -3.2244449018865646e+00 6.7520471833900606e+00 1.4512896960277105e+01 3 0 0
846 2 9.3718393193593883e+00 6.1651474688453174e+00 1.8087178692550264e+01 0 0 0
93 2 3.3693246217492190e-01 4.6596173541030348e+00 9.2579082714355820e+00 0 0 1
357 2 8.0641472980325091e+00 2.6636428306189117e+00 1.1271459934011508e+01 -5 0 -4
842 2 1.0020726914737783e+00 5.9627409609387145e+00 5.8193050775350104e+00 -5 0 -5
269 2 7.8393432436736932e+00 5.4256986439872579e+00 1.4983930022302507e+01 1 0 -1
954 2 2.8811709414057773e+00 5.8234593537979160e+00 8.5682887593411046e+00 -1 0 1
448 1 5.9527572806369182e+00 1.0776092061789793e+01 2.4236844607177961e+00 -1 0 1
725 2 2.1356008471102488e+00 8.2664751945130099e+00 1.9012940722632652e+00 1 0 1
610 1 -1.6760351135163876e-01 5.2251903817853607e-01 5.7900429472975503e+00 0 0 2
647 2 5.0674751141238765e+00 6.0133910175362919e+00 1.7385378340278081e+01 -3 0 -1
685 1 1.4299363366568466e+01 1.2178685339596478e+00 8.0161238272546527e+00 -4 0 1
917 2 -1.9279324542081846e+00 2.8340054913239170e+00 1.4395787205458717e+01 1 0 2
614 2 1.0092486860864442e+01 6.4671892369179131e+00 3.9008579151271956e+00 -2 0 0
871 1 8.0852713654331598e-01 -4.1805478250409867e-01 1.8273409587120025e+01 -2 0 -2
238 1 -1.2102140887919601e+00 9.1345208848452462e+00 1.6282556409856156e+01 0 0 0
545 2 2.3221945171739353e+00 6.5585045356474136e+00 2.8393819531984237e+00 1 0 1
336 2 1.1440417957237063e+01 9.3033515632427299e+00 1.7901111963285761e+01 -2 0 -3
985 1 2.1992101907475128e+00 1.0609064800889479e+01 4.4835016681666620e+00 -1 0 -2
800 2 4.9085411594011674e+00 1.0014451750575127e+01 7.6921608150928718e+00 0 0 -3
841 1 1.5884372765772583e+00 5.6761509232483851e+00 6.5463362459225376e+00 -5 0 -5
153 2 -4.0280679728228748e+00 2.7003757793450522e+00 1.4772750402348029e+01 3 0 -1
240 2 -1.3359526663674126e+00 9.8426363147643734e+00 1.6910221820051991e+01 0 0 0
675 2 2.1418010126964315e+00 3.1717237321489531e+00 1.7615684755511619e+01 0 0 -4
937 1 5.3299284429953149e+00 9.2151846115408675e-01 1.7560571877744383e+01 0 0 2
612 2 -3.9109735835985404e-01 1.0624531649657705e+00 5.0295916824668225e+00 0 0 1
801 2 4.6591149902186526e+00 1.0112322912947777e+01 6.1279347905302819e+00 0 0 -3
604 1 6.6528583311434604e+00 5.2789568357799181e+00 1.2157971756694032e+01 0 0 2
1994 2 2.3357560869107195e+00 1.0187287979041141e+01 3.5978440097275941e+00 -1 0 -2
775 1 1.3668627402745724e+01 4.7904942134943029e+00 1.1075188068118802e+00 -2 0 2
774 2 4.9766253814149923e+00 1.5085826629496715e+00 8.2503177042953677e+00 1 0 -2
344 2 1.3098965957376452e+01 -1.9333168628457076e-02 4.0959321729168741e+00 -2 0 1
127 1 2.1631885443858851e+00 9.5708846970680099e+00 9.8610274398146522e+00 -1 0 -1
205 1 1.3167412756039155e+01 6.4075755552391689e+00 7.7688320847002128e+00 3 0 1
161 2 9.7062060316006971e+00 9.0870314740525284e+00 6.9811673055400725e+00 1 0 -5
21 2 -2.7914981409431068e+00 6.8835479020728938e+00 1.2029867066012148e+01 -2 0 -3
546 2 1.7768284172021378e+00 5.6431160458836107e+00 1.7852027108678490e+00 1 0 1
531 2 1.4593546804337743e+01 4.7780554682693781e+00 8.4602427300632410e+00 -1 0 0
72 2 1.6733736637541639e+01 8.1822108553643211e+00 2.8127662414710670e+00 -1 0 1
308 2 1.3249323388224697e+01 1.9071789149368428e+00 1.1168830371322839e+01 1 0 2
470 2 8.5857275580983696e+00 1.0017914840032777e+01 8.9059116494550441e+00 -7 0 -2
69 2 7.7752315999580714e+00 8.1897269668467132e+00 1.8479309479937253e+01 -3 0 -3
678 2 8.3530743641314675e-01 1.3524101414935430e+00 1.8690716457998359e+01 -2 0 0
735 2 9.5168522623454468e+00 2.7104342980067995e+00 8.7721524879996231e+00 -3 0 -1
554 2 -7.6564112995031142e-01 3.0619531087350995e+00 1.0896464540998716e+01 -4 0 -2
19 1 -2.5333490156271123e+00 6.0348833611735504e+00 1.1624965551185047e+01 -2 0 -3
650 2 -6.4808931427752370e-01 4.7291791318213976e+00 1.3539042632807686e+01 -4 0 0
6 2 4.5666953070063663e+00 8.4709727031753026e+00 4.3779652202975443e+00 1 0 0
388 1 -5.0615508741107362e+00 3.2138899510611663e+00 1.7733318069650039e+01 0 0 0
1668 2 3.8418870964489193e+00 9.0001678582365887e+00 9.4956675636750596e+00 -1 1 -2
380 2 7.4627692519303928e+00 7.4527360808603360e+00 9.8722328927556600e+00 -2 0 1
421 1 1.3089517444506944e+00 5.7030853643873858e-01 1.1937543756689795e+01 1 0 0
892 1 -2.5959322138164649e+00 6.9830153529985610e+00 9.1093487913451234e+00 -2 0 -4
642 2 1.5473039360882517e+01 3.8643258329584764e+00 5.2725672548384876e+00 3 0 -1
463 1 -3.5115656351948861e+00 6.0003209938627258e+00 1.5057710020549406e+01 3 0 0
122 2 1.2912442468968607e+01 6.7472430557248253e-01 8.5995077302399228e+00 -2 0 0
1667 2 5.3111617501878836e+00 8.3984369262468661e+00 9.5222413012554998e+00 -1 1 -2
309 2 1.2589938902904629e+01 6.7258096721488947e-01 1.0785322526133964e+01 1 0 2
759 2 -2.8779052715909010e+00 3.2538773328206099e+00 1.0741899208158900e+01 -1 0 -1
615 2 9.0539921611047074e+00 7.5475827104192383e+00 4.0942189002936242e+00 -2 0 0
646 1 5.7757032981214156e+00 6.3008577718347896e+00 1.6748829254047084e+01 -3 0 -1
594 2 1.5160704627070789e+00 1.0110055353995678e+01 1.7881777152605377e+01 -2 0 -1
168 2 8.2793576359963446e+00 5.4600835438957747e+00 4.2089283089201279e+00 -3 0 -3
385 1 1.5667152588561265e+01 1.5754237133492048e+00 3.2975894238179353e+00 -1 0 -2
190 1 1.1183054120434029e+01 4.5773793851778262e+00 6.7309959207616537e+00 -3 0 -3
742 1 7.3811473259825533e+00 8.5594863272262049e+00 1.5924715230371724e+01 2 0 1
682 1 5.3650927403829618e+00 6.9735625467119555e-01 5.0915098625282118e+00 2 0 2
114 2 8.0506788769041009e+00 4.8614905738494292e+00 7.4830355969149762e+00 -2 0 -1
641 2 1.4380177209154962e+01 4.2162601447586461e+00 6.2139126838518912e+00 3 0 -1
559 1 5.1522130261104255e+00 1.8817607729885855e+00 2.6470032633449603e+00 -2 0 1
68 2 1.3235855095185649e+01 8.5586440923731750e+00 2.5147939701946920e-01 -4 0 -2
334 1 1.0592798195386944e+01 9.3622385812115532e+00 1.8410685813892563e+01 -2 0 -2
503 2 5.7997985844513877e-01 7.1028928706476426e+00 1.6676045424758392e+01 0 0 -1
162 2 8.6787650143210318e+00 1.0126600060553130e+01 6.3919904485931074e+00 1 0 -5
1665 2 1.1070057964801871e+01 2.9940693069234201e+00 5.3357655123482868e+00 -3 1 -1
177 2 1.2056084789343902e+01 8.6992501400364386e+00 9.1344194723146472e+00 -5 0 1
758 2 1.3731972599238299e+01 4.0722882754359766e+00 1.0597219376662666e+01 -2 0 -1
968 2 6.3540190453049883e-01 3.9054872145807962e-01 1.8728018407828713e+00 -1 0 1
700 1 1.3576925720139201e+01 6.5217239647157772e+00 4.0711929756684624e+00 -4 0 -3
246 2 1.4554166190373266e+01 8.5559394226578096e+00 9.1426913854982157e+00 -4 0 -3
233 2 1.0866104927522169e+01 6.8550734013579016e+00 1.2271929120138079e+01 -2 0 0
834 2 4.1308790620691092e+00 5.9274528477232336e+00 1.4950431559725064e+00 -4 0 1
555 2 -1.4637265352396405e+00 1.6647192327112497e+00 1.0787247071335967e+01 -4 0 -2
762 2 1.4253656590998286e+01 3.1832370066484228e-01 9.5037411725306065e-01 -4 0 2
888 2 2.7250448396090636e+00 -2.9295530628034328e-01 3.2446943313799315e+00 -2 0 0
71 2 4.4998547158270821e+00 7.2718512036472136e+00 1.9004246572883655e+01 0 0 -1
184 1 5.3150873335322038e+00 4.5362483906777520e+00 5.6790506888402152e+00 -4 0 -6
905 2 -2.7111597701148584e+00 5.4358907990483187e+00 1.6704979541922505e+01 -2 0 1
532 1 1.1520116036413011e+01 5.7409331185084356e-01 1.3824129942856418e+01 -2 0 0
4 1 5.1650969660949402e+00 9.1886778929100910e+00 4.6053162032733086e+00 1 0 0
42 2 9.0165240743556634e+00 6.9910071532233919e+00 1.1203565165201848e+01 -2 0 4
489 2 -2.2338464210866866e+00 7.7438261693665855e-03 8.6997038442572485e+00 -4 0 0
826 1 9.9876614220609383e-01 4.1038405010159540e+00 1.2584405853333676e+00 1 0 1
305 2 7.5309024427313940e+00 1.0358722571188396e+01 1.8034648420170253e+01 0 0 -3
112 1 8.6604164113461444e+00 5.4912445793276126e+00 7.0730457417041910e+00 -2 0 -1
653 2 5.1505341445098098e+00 1.0618983439771158e+01 1.5055357750895066e+01 -2 0 -1
337 1 1.2307470053570595e+01 5.1556769526990029e+00 1.0239689076274868e+01 -2 0 -2
1677 2 1.9186003003888441e+00 5.7279881140205493e+00 1.4967466660897191e+01 0 0 0
1002 2 2.5855505022458267e+00 7.2894824560814353e-01 1.6443061771166054e+01 -1 0 0
780 2 -1.2189853344584085e+00 1.0218328861615740e+01 1.4887393478898673e+01 1 0 -2
105 2 5.8421022181284794e+00 6.8801895779098832e+00 7.6136801265492311e+00 -1 0 1
303 2 1.3910838032873865e+01 3.3606832207498392e+00 3.7979539829847258e+00 0 0 0
1078 1 1.1641322118369414e+01 7.4950397109559823e+00 7.4171631548576999e-01 0 0 0
844 1 9.2175602701926795e+00 7.0911213570390936e+00 1.7872184478744320e+01 0 0 0
919 1 1.1122662392471492e+01 8.5591059541236696e+00 6.2263690467664849e+00 1 0 -2
427 1 1.0079044337391975e+01 3.5108713718730913e+00 2.1560924136941515e+00 -1 0 0
658 1 4.8252594549977665e+00 9.2422846865257160e+00 9.3646068756825187e+00 -1 0 -2
703 1 1.0014820204237520e+01 1.0801261750785576e+01 1.6130506492840947e+01 -3 0 -1
654 2 5.0621446726924058e+00 9.7610543913039685e+00 1.3799270278279582e+01 -2 0 -1
738 2 -3.3390314928550913e-01 7.7459631640679021e+00 1.0722513266647125e+01 0 0 1
933 2 6.7467539725531127e+00 4.2003691780683514e+00 2.6476989138334872e+00 -2 0 0
1584 2 2.0762484364854661e+00 1.0789303371450343e+01 8.4874279002008493e+00 1 0 1
290 2 4.2946775922680391e+00 7.7488264222852230e+00 1.2767864722580823e+01 1 0 3
461 2 1.7452967881639914e+01 1.0334513984532038e+01 6.5191360511519370e-01 -4 0 -1
483 2 3.0213159814505426e+00 6.7634173973314837e+00 1.0503382233752847e+01 -2 0 -1
128 2 2.2374793070152759e+00 9.9751072296271523e+00 1.0754214257007067e+01 -1 0 -1
1676 2 2.1931094331512497e+00 4.3018817079880041e+00 1.4274207757729522e+01 0 0 0
516 2 1.5316424752153839e+01 6.8939888435680565e+00 1.4058542664032081e+00 -1 0 -2
53 2 6.7370270914932497e+00 2.6485863427016323e+00 7.9681295704704782e+00 1 0 0
292 1 3.1116160596227056e+00 7.5288844548638370e+00 1.7760377500993126e+01 1 0 -3
771 2 5.6167049958331132e+00 9.4316185569239561e+00 1.0963864559119922e+00 1 0 -3
959 2 4.3143962007823839e+00 2.1320380590463817e-02 1.4641559500998042e+01 0 0 -2
798 2 -3.8919075487264552e+00 9.2486870867229225e+00 1.3676550542101959e+01 -2 0 1
504 2 4.2085061775768740e-01 5.5538984702157954e+00 1.6705944422336593e+01 0 0 -2
94 1 5.1161663442872305e+00 5.3146449004788492e+00 1.4333637066937358e+01 -2 0 -2
465 2 -4.3681649638262936e+00 6.2647270460939470e+00 1.5391173351629604e+01 3 0 0
770 2 6.6345760673312908e+00 8.7885587534810927e+00 1.6578342477769112e-01 1 0 -3
702 2 1.3827406491517904e+01 5.7607385646776113e+00 4.6612928632582911e+00 -4 0 -3
174 2 -6.0989859804970514e-02 1.8595345708934032e+00 8.7665873604271169e+00 -1 0 -2
574 1 4.8529780782174807e+00 9.4573409903560446e+00 1.6673263991552449e+01 -1 0 1
245 2 1.4077598111811625e+01 9.9222994747959596e+00 9.8481419811325797e+00 -4 0 -3
160 1 8.7502816524760085e+00 9.3991606583501444e+00 7.0771378878553337e+00 1 0 -5
911 2 -3.6938467391391144e-01 4.4293632268881318e+00 2.3645213262842857e+00 -1 0 1
833 2 5.3149707512938589e+00 6.7215674606934677e+00 9.3335436582280351e-01 -4 0 1
70 1 -3.9518609157471085e-01 8.5956800340792299e+00 3.2494346648471613e+00 0 0 1
753 2 1.0367035750310116e+01 5.0993784054305840e+00 1.3234782419898671e+01 0 0 2
635 2 2.6450835616390975e+00 9.1881725537442165e+00 6.0757698256107426e+00 1 0 -2
827 2 1.1346592613869015e+00 3.6663029478105793e+00 3.7436538983506717e-01 1 0 1
1089 2 -3.0608651728259506e-01 4.1547532382732042e+00 5.4503078342225715e+00 0 0 1
515 2 1.4937432333111897e+01 6.6647449154146168e+00 2.8497209743637062e+00 -1 0 -2
422 2 2.9588575754368751e-01 6.7468830239245059e-01 1.1891428116867869e+01 1 0 0
459 2 1.1232532686928412e+01 6.1618511514576735e+00 1.5161437842308304e+01 -3 0 -3
361 1 4.5654466392171189e+00 4.2347727147367289e+00 1.8839865964975250e+01 -1 0 -2