LAMMPS data file via write_data, version 15 Apr 2020, timestep = 38458000

1008 atoms
2 atom types
672 bonds
1 bond types
336 angles
1 angle types

-3.2714375002000180e+00 1.4881436500244538e+01 xlo xhi
-1.6928821394943180e-01 2.2749287213873583e+01 ylo yhi
-1.5193949474284785e-01 1.9381937494745006e+01 zlo zhi
-2.8354996530932780e-01 -6.6391695771449912e+00 -7.7919213378625604e-02 xy xz yz

Masses

1 16
2 2

Atoms # full

32 11 1 5.8970000000000000e-01 1.1442347245833637e+00 1.3772060858327235e+00 3.0747237629338726e+00 0 0 0
34 12 2 -1.1794000000000000e+00 -1.3221001113722516e-01 1.0599539271992775e+00 7.2620510590915410e+00 0 0 0
77 26 1 5.8970000000000000e-01 3.8244800156286229e-01 1.9531448586612306e+00 5.5075259601611517e+00 0 0 0
85 29 2 -1.1794000000000000e+00 -2.4053471806786249e+00 8.2452490607589835e-01 4.7331153154161836e+00 1 0 0
86 29 1 5.8970000000000000e-01 -2.3894496932661053e+00 1.2926939943361011e+00 3.8983299230667225e+00 1 0 0
36 12 1 5.8970000000000000e-01 -9.5818199363612766e-01 6.3371533876648733e-01 7.4909776996899042e+00 0 0 0
76 26 2 -1.1794000000000000e+00 9.9336959479715137e-01 2.1439521421465635e+00 4.7957358999625725e+00 0 0 0
31 11 2 -1.1794000000000000e+00 1.1502632157710870e+00 1.1264411591534598e+00 2.1509803956116831e+00 0 0 0
35 12 1 5.8970000000000000e-01 -4.0951398028063928e-03 1.7178523601901039e+00 7.9454895390564104e+00 0 0 0
87 29 1 5.8970000000000000e-01 -3.3116442604821938e+00 5.3099561248969174e-01 4.8265362369704956e+00 1 0 0
69 23 1 5.8970000000000000e-01 -2.8794304273834896e+00 1.0752998896426047e+00 8.9038214683011336e+00 0 0 0
122 41 1 5.8970000000000000e-01 -2.4624979198022996e+00 2.1871251134292060e+00 1.6291460978897694e+00 1 0 0
21 7 1 5.8970000000000000e-01 1.1630416850163867e+00 2.4337208063373303e+00 8.7090700316886305e-01 0 0 0
134 45 1 5.8970000000000000e-01 -2.0292798082631420e+00 2.5415762623315028e+00 5.8574274568986429e+00 1 0 0
124 42 2 -1.1794000000000000e+00 -4.7945207138578541e+00 2.3329236225983587e+00 7.4404743810972205e+00 1 0 0
71 24 1 5.8970000000000000e-01 2.9626440963886251e+00 3.9316394434325219e-01 1.8942787356150605e+00 0 0 0
669 223 1 5.8970000000000000e-01 -5.1871858489870588e+00 1.5327636212478277e+00 8.8740664782421561e+00 1 0 0
33 11 1 5.8970000000000000e-01 3.5858901592755149e-01 5.9988922401582223e-01 2.0400875482405234e+00 0 0 0
67 23 2 -1.1794000000000000e+00 -2.5678997699929118e+00 2.4727454981722005e-01 8.5380654433620329e+00 0 0 0
6 2 1 5.8970000000000000e-01 3.9245600833995753e+00 1.6060008032275708e+00 4.7426566021476724e+00 0 0 0
126 42 1 5.8970000000000000e-01 -4.0143565787387905e+00 2.7388423521875680e+00 7.0624602112356865e+00 1 0 0
70 24 2 -1.1794000000000000e+00 3.7139939491711145e+00 2.3269528164419842e-01 1.3233212538595529e+00 0 0 0
52 18 2 -1.1794000000000000e+00 3.7471528599985664e+00 3.0546518749646330e+00 3.5677841762636575e+00 0 0 0
121 41 2 -1.1794000000000000e+00 -2.5219939214966960e+00 2.4206893993375158e+00 2.5555009242924505e+00 1 0 0
4 2 2 -1.1794000000000000e+00 4.1733100640782759e+00 8.2095713370384882e-01 5.2307774372288494e+00 0 0 0
401 134 1 5.8970000000000000e-01 2.4792893169477837e+00 3.7135454974174342e-01 8.7814154770980064e+00 0 1 0
79 27 2 -1.1794000000000000e+00 6.8980915303721666e+00 1.0836656970622094e+00 7.0700439700612197e-02 0 0 0
78 26 1 5.8970000000000000e-01 5.7391499358326892e-01 2.8485590061044510e+00 4.3018035727777670e+00 0 0 0
22 8 2 -1.1794000000000000e+00 8.9072575769369056e-02 2.6823527186002303e+00 9.4967960235302673e+00 0 0 0
125 42 1 5.8970000000000000e-01 -5.5192061520730302e+00 2.8830906531209726e+00 7.1430733482969382e+00 1 0 0
105 35 1 5.8970000000000000e-01 1.0553409955589293e+01 2.9231758351019841e+00 3.5621178151243593e-01 0 0 0
103 35 2 -1.1794000000000000e+00 9.6326174706430088e+00 2.6645265595846772e+00 3.9481089305907019e-01 0 0 0
161 54 1 5.8970000000000000e-01 1.0404137435212238e+01 2.6252635427099857e+00 5.4861544495840775e+00 0 0 0
5 2 1 5.8970000000000000e-01 3.5526916183608028e+00 1.5181837689359307e-01 4.9419297098256321e+00 0 0 0
68 23 1 5.8970000000000000e-01 -3.3037385899930212e+00 -7.8027027069005633e-02 8.0194857874788941e+00 0 0 0
41 14 1 5.8970000000000000e-01 4.3887565393189298e+00 1.7687899809821082e+00 6.6517660605075708e+00 0 0 0
90 30 1 5.8970000000000000e-01 -5.1323123278453959e+00 1.0491436020724909e+00 5.8897589130847461e+00 1 0 0
610 204 2 -1.1794000000000000e+00 1.2392720741538749e+01 2.9331123800278380e+00 -8.8094432973233702e-02 0 0 1
528 176 1 5.8970000000000000e-01 3.9115980557243129e+00 1.9171494075669600e+00 5.6349174191607165e-01 0 0 1
116 39 1 5.8970000000000000e-01 1.1162929911434071e+01 6.7620765852876830e-01 2.3923907951827208e+00 0 0 0
138 46 1 5.8970000000000000e-01 1.2566423705926361e+01 2.4699094792990728e+00 3.7788207890157230e+00 0 0 0
107 36 1 5.8970000000000000e-01 9.4871395422726579e+00 2.4654945235630881e+00 9.0296934469665846e+00 0 0 0
120 40 1 5.8970000000000000e-01 9.9492110999908974e+00 4.7553907605954382e-01 7.7734036278009153e+00 0 0 0
154 52 2 -1.1794000000000000e+00 1.2682932595221700e+01 5.3100033017624693e-01 1.5294816485241132e+00 0 0 0
482 161 1 5.8970000000000000e-01 -1.4293408938585561e+00 9.5279470190253263e-02 1.0475716937205310e+00 1 1 0
88 30 2 -1.1794000000000000e+00 1.2960185864951125e+01 9.4323650241042611e-01 4.9403714766859403e+00 0 0 0
160 54 2 -1.1794000000000000e+00 9.6438572349694560e+00 2.1727142493926044e+00 5.1209034279125500e+00 0 0 0
151 51 2 -1.1794000000000000e+00 6.5854138884483362e+00 4.0539529985808953e-01 8.1609987996975484e+00 0 0 0
40 14 2 -1.1794000000000000e+00 4.3936927610220531e+00 2.5027716947262908e+00 7.2662876625499413e+00 0 0 0
42 14 1 5.8970000000000000e-01 4.0446029015162468e+00 2.1373183478232525e+00 8.0792346182166952e+00 0 0 0
155 52 1 5.8970000000000000e-01 1.2664074825330998e+01 1.3206511271296815e+00 9.8860634991144569e-01 0 0 0
38 13 1 5.8970000000000000e-01 6.3378467757143460e+00 2.3577018936324650e+00 1.5904718378477209e+00 0 0 0
37 13 2 -1.1794000000000000e+00 6.2329479757227739e+00 2.7167863905649305e+00 2.4715540253494965e+00 0 0 0
3 1 1 5.8970000000000000e-01 5.9454065116746939e+00 8.1320500396211570e-01 4.5807108095868569e+00 0 0 0
152 51 1 5.8970000000000000e-01 7.3697062926084316e+00 6.1881107650591927e-01 7.6554092118793182e+00 0 0 0
1 1 2 -1.1794000000000000e+00 6.8592071835135924e+00 1.0157355907297081e+00 4.3801899385466667e+00 0 0 0
162 54 1 5.8970000000000000e-01 9.9711112580402528e+00 1.7606367522536259e+00 4.3212857346677396e+00 0 0 0
119 40 1 5.8970000000000000e-01 9.4503692513200690e+00 1.4756104162698276e+00 6.7520390278987437e+00 0 0 0
39 13 1 5.8970000000000000e-01 6.4022967141283802e+00 1.9762773889141403e+00 3.0541147157465596e+00 0 0 0
115 39 2 -1.1794000000000000e+00 1.0323035617108665e+01 1.0773803222922755e+00 2.6158440833613708e+00 0 0 0
153 51 1 5.8970000000000000e-01 6.5491568845943933e+00 1.0767253698485804e+00 8.8424330397191007e+00 0 0 0
89 30 1 5.8970000000000000e-01 1.2488821269300397e+01 1.1869630800690814e-01 4.8203795969640026e+00 0 0 0
80 27 1 5.8970000000000000e-01 7.4039022276185964e+00 4.4245993751734847e-01 5.7005025647942853e-01 0 0 0
2 1 1 5.8970000000000000e-01 7.0945789858175985e+00 1.7040932016421291e+00 5.0023733719828396e+00 0 0 0
117 39 1 5.8970000000000000e-01 1.0104206953636126e+01 1.6156659199216887e+00 1.8551415419596300e+00 0 0 0
118 40 2 -1.1794000000000000e+00 9.2813979430638938e+00 1.1473188445902571e+00 7.6351855937391342e+00 0 0 0
50 17 1 5.8970000000000000e-01 6.1846555079294312e+00 2.9433613868245798e+00 6.8587696126168485e+00 0 0 0
402 134 1 5.8970000000000000e-01 1.4289876411556699e+00 -1.5034903934380572e-01 7.8240798930093236e+00 0 1 0
485 162 1 5.8970000000000000e-01 1.1745542938924430e+01 -3.5388273296848301e-02 8.6582264497702255e+00 0 1 0
527 176 1 5.8970000000000000e-01 2.9521783675954500e+00 2.9141122405432363e+00 -5.1103020488282407e-02 0 0 1
163 55 2 -1.1794000000000000e+00 -2.2906681668162450e+00 1.1957721560141019e+00 4.5624411487509266e-02 1 0 0
19 7 2 -1.1794000000000000e+00 1.0928578009447247e+00 2.9163599294954503e+00 4.7237044501913128e-02 0 0 0
526 176 2 -1.1794000000000000e+00 3.8840226082184151e+00 2.7098938814517757e+00 2.7545556726233239e-02 0 0 1
123 41 1 5.8970000000000000e-01 -3.4428816887729754e+00 2.6459957493213535e+00 2.6875947591284919e+00 1 0 0
668 223 1 5.8970000000000000e-01 -5.7009595452450563e+00 1.5749585812725990e+00 1.0297503965801686e+01 1 0 0
626 209 1 5.8970000000000000e-01 -5.9596545272072090e+00 1.7091486049839715e+00 1.2709860941936190e+01 1 0 0
589 197 2 -1.1794000000000000e+00 -5.7943955493648982e+00 6.9208328194060453e-01 1.4410453270337380e+01 1 0 0
628 210 2 -1.1794000000000000e+00 -8.3944554168530061e+00 2.2054621647590698e+00 1.7139279490154706e+01 1 0 0
590 197 1 5.8970000000000000e-01 -5.5737902371189847e+00 1.3907677274356416e+00 1.5026514840052302e+01 1 0 0
164 55 1 5.8970000000000000e-01 -8.5404048548055673e+00 1.4405176765593337e+00 1.8766775222509285e+01 1 0 -1
593 198 1 5.8970000000000000e-01 -7.7984919949671347e+00 6.8221860161151571e-01 1.4796324305013234e+01 1 0 0
625 209 2 -1.1794000000000000e+00 -6.1519234237616738e+00 2.3491120084638033e+00 1.2024414577307910e+01 1 0 0
539 180 1 5.8970000000000000e-01 -4.2949395727550499e+00 7.3605605719881062e-01 1.7458280027012169e+01 0 0 0
537 179 1 5.8970000000000000e-01 -2.1604340513070923e+00 1.5782211807006983e+00 1.1583243183419469e+01 0 0 0
581 194 1 5.8970000000000000e-01 -3.2974528378577723e+00 1.4320720351595719e+00 1.5485653663596226e+01 0 0 0
535 179 2 -1.1794000000000000e+00 -2.1507555983626285e+00 8.7666352944546522e-01 1.2234493609046311e+01 0 0 0
536 179 1 5.8970000000000000e-01 -2.5451557993724356e+00 1.2676589374780582e+00 1.3014148442670367e+01 0 0 0
538 180 2 -1.1794000000000000e+00 -3.3623326690403106e+00 9.4042571602920566e-01 1.7389587600252657e+01 0 0 0
580 194 2 -1.1794000000000000e+00 -2.9693243091938482e+00 1.9754475561205971e+00 1.4769110656652877e+01 0 0 0
540 180 1 5.8970000000000000e-01 -3.1705559534547074e+00 1.4531894526805533e+00 1.8174806848198976e+01 0 0 0
630 210 1 5.8970000000000000e-01 -8.5508293003289264e+00 1.6561885392516353e+00 1.6371078642864603e+01 1 0 0
571 191 2 -1.1794000000000000e+00 -5.9459118566473030e+00 3.3764310301295930e-01 1.8056036969461029e+01 0 0 0
20 7 1 5.8970000000000000e-01 -5.7159825081239415e+00 2.1650369454191853e+00 1.8922264267207630e+01 0 0 -1
523 175 2 -1.1794000000000000e+00 -2.5721127998727771e+00 2.5459658907597387e+00 9.9553253741903411e+00 0 0 0
576 192 1 5.8970000000000000e-01 -2.0102121667380063e-01 4.6404103368517846e-01 1.1654102239395879e+01 0 0 0
574 192 2 -1.1794000000000000e+00 5.5846719065167971e-01 3.7147985694417196e-01 1.1078882301225031e+01 0 0 0
23 8 1 5.8970000000000000e-01 3.8476883466431594e-01 2.0275356333568317e+00 1.0129355021193485e+01 0 0 0
557 186 1 5.8970000000000000e-01 2.7384176630508272e-01 2.2261237639121658e+00 1.3753584225191984e+01 0 0 0
508 170 2 -1.1794000000000000e+00 4.3446312485143829e-01 7.6796300996150302e-01 1.4749406670278647e+01 0 0 0
510 170 1 5.8970000000000000e-01 4.3379801645522204e-01 1.2171282742561633e+00 1.5594698386357109e+01 0 0 0
509 170 1 5.8970000000000000e-01 1.3608865053284420e+00 6.3276912058776325e-01 1.4550146568473911e+01 0 0 0
544 182 2 -1.1794000000000000e+00 8.6330829111668794e-01 2.1382293510132140e+00 1.7248179160525616e+01 0 0 0
585 195 1 5.8970000000000000e-01 3.1793040393178553e+00 1.9688703242448267e+00 1.0462320222664870e+01 0 0 0
545 182 1 5.8970000000000000e-01 6.0128760624139643e-01 1.8119156760493533e+00 1.8109078678286899e+01 0 0 0
541 181 2 -1.1794000000000000e+00 2.8312258595840616e+00 2.5405201668256701e+00 1.2240654866508164e+01 0 0 0
591 197 1 5.8970000000000000e-01 -5.1206493676294027e+00 2.6674283410031301e-02 1.4550662946067533e+01 1 0 0
572 191 1 5.8970000000000000e-01 -6.6803064324421282e+00 -7.1286899048828262e-02 1.7598141693114215e+01 0 0 0
165 55 1 5.8970000000000000e-01 -9.6404268919657561e+00 5.4361501471651197e-01 1.9293804141755771e+01 1 0 -1
627 209 1 5.8970000000000000e-01 -7.0806601538616816e+00 2.5509426157237143e+00 1.2138227108703665e+01 1 0 0
905 302 1 5.8970000000000000e-01 -1.9472097259315277e+00 -1.5243926997234758e-01 1.7603014387111010e+01 0 1 0
81 27 1 5.8970000000000000e-01 -2.8753445350009760e-01 4.7868450304551835e-01 1.9021609395720201e+01 0 0 -1
609 203 1 5.8970000000000000e-01 6.1104270008848820e+00 3.0610356965627621e+00 1.0030328392330315e+01 0 0 0
525 175 1 5.8970000000000000e-01 -1.6916013095596989e+00 2.8123287700403936e+00 9.6907054318537931e+00 0 0 0
667 223 2 -1.1794000000000000e+00 -5.3567930774912522e+00 9.7646596509269667e-01 9.6344034530732401e+00 1 0 0
623 208 1 5.8970000000000000e-01 4.9887052954533431e+00 6.7286442988510042e-01 1.7766402424754933e+01 0 0 0
594 198 1 5.8970000000000000e-01 8.9829479117382824e+00 4.8537480331088685e-02 1.4698327192306483e+01 0 0 0
106 36 2 -1.1794000000000000e+00 9.5385398458507940e+00 2.8712077427662166e+00 9.8951418610660369e+00 0 0 0
638 213 1 5.8970000000000000e-01 -6.6990380967780325e+00 2.7686397583127991e+00 1.6577052469731093e+01 1 0 0
620 207 1 5.8970000000000000e-01 6.6234971036397425e+00 1.2768585989713399e+00 1.3259520862130593e+01 0 0 0
583 195 2 -1.1794000000000000e+00 3.5230273323621182e+00 1.5570581558308934e+00 9.6695045837973019e+00 0 0 0
664 222 2 -1.1794000000000000e+00 6.2295274303959056e+00 2.1974939906473661e+00 1.4743127667172967e+01 0 0 0
621 207 1 5.8970000000000000e-01 6.8083920054845990e+00 1.4834073309878251e+00 1.1771219724080417e+01 0 0 0
607 203 2 -1.1794000000000000e+00 6.7892695955338924e+00 2.4160892644005747e+00 1.0229250418906551e+01 0 0 0
506 169 1 5.8970000000000000e-01 3.8165138287632789e+00 1.7134776880177099e-01 1.4695378508733961e+01 0 0 0
584 195 1 5.8970000000000000e-01 4.1268089060633901e+00 8.8672071152926213e-01 9.9895772888786869e+00 0 0 0
542 181 1 5.8970000000000000e-01 2.9446519750718090e+00 1.7869517166409434e+00 1.2820036780685772e+01 0 0 0
665 222 1 5.8970000000000000e-01 5.9310666052034664e+00 1.7111943592541488e+00 1.5511742520774341e+01 0 0 0
505 169 2 -1.1794000000000000e+00 3.1489939946981980e+00 8.1462633458726319e-01 1.4456723210855897e+01 0 0 0
507 169 1 5.8970000000000000e-01 3.3683469992194102e+00 1.5908894013871815e+00 1.4972186853951326e+01 0 0 0
619 207 2 -1.1794000000000000e+00 6.9997167074275630e+00 8.6871923241844473e-01 1.2479666455685736e+01 0 0 0
642 214 1 5.8970000000000000e-01 9.1567251522874660e+00 2.2724908652725846e+00 1.3551027878557024e+01 0 0 0
108 36 1 5.8970000000000000e-01 9.6315849473743835e+00 2.1350700419598732e+00 1.0500004334488992e+01 0 0 0
592 198 2 -1.1794000000000000e+00 9.4235796372949672e+00 8.6961717496418711e-01 1.4917679480015000e+01 0 0 0
624 208 1 5.8970000000000000e-01 6.4418845896777457e+00 3.5274137642418846e-01 1.7487606585880354e+01 0 0 0
657 219 1 5.8970000000000000e-01 2.6919646896808316e+00 9.8837158769305467e-01 1.8718204303951559e+01 0 0 0
655 219 2 -1.1794000000000000e+00 3.1607031922255420e+00 3.0339835490243117e-01 1.8241240823631827e+01 0 0 0
658 220 2 -1.1794000000000000e+00 9.5811343281785142e+00 4.2152419612323533e-01 1.1274054413955364e+01 0 0 0
622 208 2 -1.1794000000000000e+00 5.7974410777761483e+00 1.0581876735570979e+00 1.7429085233039633e+01 0 0 0
611 204 1 5.8970000000000000e-01 5.9524415109871516e+00 2.4608683081265963e+00 1.8596534983013711e+01 0 0 0
659 220 1 5.8970000000000000e-01 8.8135855848302054e+00 5.4655702862087796e-01 1.1832176407963232e+01 0 0 0
608 203 1 5.8970000000000000e-01 7.6126977611108311e+00 2.8854741012366927e+00 1.0095253137080512e+01 0 0 0
986 329 1 5.8970000000000000e-01 -4.3840528567745096e+00 -9.9099361762001903e-02 1.0668537226963418e+01 1 1 0
546 182 1 5.8970000000000000e-01 1.4733258596952920e-01 2.7151915816252701e+00 1.6982083576247462e+01 0 0 0
575 192 1 5.8970000000000000e-01 1.1912314638937458e+00 -1.2769990806229112e-01 1.1595302627037702e+01 0 0 0
543 181 1 5.8970000000000000e-01 1.9609363930873116e+00 2.8777784119748344e+00 1.2453096231522874e+01 0 0 0
582 194 1 5.8970000000000000e-01 -2.3996789891508463e+00 2.6161073751798058e+00 1.5195004835084390e+01 0 0 0
637 213 2 -1.1794000000000000e+00 -5.8486958083126046e+00 2.9908929140521128e+00 1.6197841924379812e+01 1 0 0
666 222 1 5.8970000000000000e-01 7.0297913730223263e+00 2.6359402914097632e+00 1.5032261689434723e+01 0 0 0
554 185 1 5.8970000000000000e-01 2.4840620036435617e+00 2.9416651095387216e+00 1.6584790097823998e+01 0 0 0
629 210 1 5.8970000000000000e-01 -9.0160318598417515e+00 2.9278246828576528e+00 1.7048549619917942e+01 1 0 0
640 214 2 -1.1794000000000000e+00 9.5449246399735745e+00 3.0479573734673164e+00 1.3145544975080698e+01 0 0 0
656 219 1 5.8970000000000000e-01 2.4813939679261092e+00 -1.4827050667784764e-01 1.7740473707957634e+01 0 0 0
55 19 2 -1.1794000000000000e+00 -3.8592776351814434e-01 4.2304635991931754e+00 3.3207482341838976e+00 0 0 0
157 53 2 -1.1794000000000000e+00 -3.8516974691861838e+00 5.1679905246041349e+00 4.7632138635935384e+00 1 0 0
98 33 1 5.8970000000000000e-01 -4.0836676338659990e+00 5.1461508067217618e+00 8.7587020379532401e+00 1 0 0
57 19 1 5.8970000000000000e-01 -7.7875106080657630e-01 4.8847128086357321e+00 3.8987012658898155e+00 0 0 0
43 15 2 -1.1794000000000000e+00 -3.0699698967226818e-01 4.9809631238576042e+00 7.3928310090890870e+00 0 0 0
48 16 1 5.8970000000000000e-01 1.2373049801902012e+00 4.7026804622338210e+00 2.4573935648041503e+00 0 0 0
159 53 1 5.8970000000000000e-01 -3.2806326093740532e+00 4.6247393427614876e+00 5.3063994310812506e+00 1 0 0
44 15 1 5.8970000000000000e-01 -3.4698806719734637e-01 5.2191041253926818e+00 8.3190658788282068e+00 0 0 0
47 16 1 5.8970000000000000e-01 2.1725045441186426e+00 5.2408258203255942e+00 1.3953674788593549e+00 0 0 0
45 15 1 5.8970000000000000e-01 5.8951033194993863e-01 4.6716462692693383e+00 7.2629841063736063e+00 0 0 0
46 16 2 -1.1794000000000000e+00 2.1347117098396389e+00 5.0073728665279997e+00 2.3228959335086339e+00 0 0 0
56 19 1 5.8970000000000000e-01 -1.1272642116345306e+00 3.7154733161888611e+00 3.0022203371988634e+00 0 0 0
114 38 1 5.8970000000000000e-01 -3.5628332722759346e+00 5.7240333371771044e+00 1.7203413783607406e+00 1 0 0
11 4 1 5.8970000000000000e-01 2.2289042473453637e+00 5.4776262615756961e+00 5.2702539686292971e+00 0 0 0
58 20 2 -1.1794000000000000e+00 2.1175999013716051e+00 3.8501306180570656e+00 6.4964821950314988e+00 0 0 0
158 53 1 5.8970000000000000e-01 -4.2976723395436478e+00 4.5464190065883745e+00 4.1878322974610374e+00 1 0 0
602 201 1 5.8970000000000000e-01 -8.0231656709428223e-01 5.2880297203251523e+00 1.3444196247336765e-01 1 0 1
51 17 1 5.8970000000000000e-01 6.6458982805886606e+00 3.7768182107862978e+00 5.6819940703478284e+00 0 0 0
113 38 1 5.8970000000000000e-01 -3.5196164343739396e+00 5.9456130497801949e+00 3.2172913824743667e+00 1 0 0
60 20 1 5.8970000000000000e-01 2.8453240449786241e+00 3.4293501787879284e+00 6.9543040140283683e+00 0 0 0
135 45 1 5.8970000000000000e-01 -1.4993393604131853e+00 3.6542587380264120e+00 6.7368060808280967e+00 1 0 0
144 48 1 5.8970000000000000e-01 1.0531441094247151e+01 4.1812646476849373e+00 6.9890584619209228e+00 0 0 0
8 3 1 5.8970000000000000e-01 -7.6321646973049373e-01 6.0983968555490184e+00 6.0656998407594642e+00 0 0 0
53 18 1 5.8970000000000000e-01 3.2471670148029679e+00 3.6961411664031445e+00 3.0629583402507019e+00 0 0 0
59 20 1 5.8970000000000000e-01 1.8403072437596506e+00 3.2065956934026993e+00 5.8443352420998931e+00 0 0 0
12 4 1 5.8970000000000000e-01 2.0114315687285660e+00 6.0505512014546055e+00 3.8859136205854612e+00 0 0 0
131 44 1 5.8970000000000000e-01 9.8331398345500993e+00 4.5610934123674598e+00 2.5380237395974592e+00 0 0 0
110 37 1 5.8970000000000000e-01 -4.4871306256015755e+00 6.0261793791714391e+00 6.3774354908875077e+00 1 0 0
104 35 1 5.8970000000000000e-01 9.1540094533664416e+00 3.4348729649676497e+00 8.8351603141300861e-02 0 0 0
54 18 1 5.8970000000000000e-01 4.6316262296648931e+00 3.1001882860755456e+00 3.2046221055981139e+00 0 0 0
133 45 2 -1.1794000000000000e+00 -2.3025919950142715e+00 3.3265763150573342e+00 6.3323076393730746e+00 1 0 0
18 6 1 5.8970000000000000e-01 4.7714741712745292e+00 4.3169002725276275e+00 -4.2345894223233165e-03 0 0 0
140 47 1 5.8970000000000000e-01 8.7425590454372966e+00 3.6419740907209235e+00 4.1166257190924549e+00 0 0 0
100 34 2 -1.1794000000000000e+00 1.4372880859731648e+01 4.7911959615683868e+00 1.5612991732524620e-01 0 0 0
612 204 1 5.8970000000000000e-01 1.3091198768523151e+01 3.5732220117096625e+00 4.8809289300079106e-02 0 0 1
26 9 1 5.8970000000000000e-01 4.8337349176274902e+00 5.4781656569249968e+00 6.6750350579401996e+00 0 0 0
136 46 2 -1.1794000000000000e+00 1.2814029704254985e+01 3.2648476560237722e+00 3.3063427597856143e+00 0 0 0
30 10 1 5.8970000000000000e-01 5.6666104206399712e+00 5.8844658405085664e+00 1.8715317170053309e+00 0 0 0
137 46 1 5.8970000000000000e-01 1.2007996944955220e+01 3.5486466900309410e+00 2.8750971673805856e+00 0 0 0
672 224 1 5.8970000000000000e-01 8.5255103844657789e+00 5.3924099838736117e+00 9.3816390048445655e+00 0 0 0
74 25 1 5.8970000000000000e-01 4.7118840881898967e+00 4.3837691981944946e+00 4.6271302876320082e+00 0 0 0
97 33 2 -1.1794000000000000e+00 -4.1324152533320033e+00 4.6198850064060109e+00 9.5568194139135070e+00 1 0 0
521 174 1 5.8970000000000000e-01 2.0955930114363528e+00 5.3973602055005552e+00 9.1792679194515330e+00 0 0 0
127 43 2 -1.1794000000000000e+00 8.8663888491268921e+00 4.7548501261585194e+00 7.5009163785379531e+00 0 0 0
141 47 1 5.8970000000000000e-01 7.5851974745054607e+00 3.9960250789216829e+00 3.2072710929919785e+00 0 0 0
130 44 2 -1.1794000000000000e+00 1.0686928280361615e+01 4.9011602127067633e+00 2.2702759546117757e+00 0 0 0
142 48 2 -1.1794000000000000e+00 1.1263987431170145e+01 3.8633141576573728e+00 6.4612568190548334e+00 0 0 0
143 48 1 5.8970000000000000e-01 1.1385548230419609e+01 4.5350711576770282e+00 5.7901628494183894e+00 0 0 0
93 31 1 5.8970000000000000e-01 8.3552442386048149e+00 5.8793822623374092e+00 4.6796360569619999e+00 0 0 0
132 44 1 5.8970000000000000e-01 1.0967981200111469e+01 5.4484871436537183e+00 3.0035731007173028e+00 0 0 0
519 173 1 5.8970000000000000e-01 8.1092727589044404e+00 5.4759953537289325e+00 4.8248086471160018e-01 0 0 1
167 56 1 5.8970000000000000e-01 1.1087119850617848e+01 5.7073257344933541e+00 5.9671234845874732e-01 0 0 0
27 9 1 5.8970000000000000e-01 4.8228003520678300e+00 5.2513077261946881e+00 8.1717897468107044e+00 0 0 0
75 25 1 5.8970000000000000e-01 5.4494377135317560e+00 5.6460461413837040e+00 4.2332226863613212e+00 0 0 0
73 25 2 -1.1794000000000000e+00 5.3001282693805072e+00 5.0556997431812229e+00 4.9718439866990556e+00 0 0 0
128 43 1 5.8970000000000000e-01 8.7984145391596371e+00 5.4882150477630791e+00 6.8893835147883307e+00 0 0 0
139 47 2 -1.1794000000000000e+00 8.3721465323405440e+00 4.3641484709123937e+00 3.6090360873980960e+00 0 0 0
129 43 1 5.8970000000000000e-01 8.2960512559809843e+00 4.0805396351276375e+00 7.1316373170811236e+00 0 0 0
49 17 2 -1.1794000000000000e+00 6.9479380365587486e+00 3.1190709646484480e+00 6.3084900992532447e+00 0 0 0
10 4 2 -1.1794000000000000e+00 2.0149273381456685e+00 6.2907109819746605e+00 4.8124821157394457e+00 0 0 0
101 34 1 5.8970000000000000e-01 -2.8798655737366734e+00 4.5159092102894602e+00 -1.7769143712001965e-02 1 0 0
16 6 2 -1.1794000000000000e+00 5.2998141718754717e+00 5.1091610318027048e+00 9.3819860131306068e-02 0 0 0
109 37 2 -1.1794000000000000e+00 -4.3787991562603850e+00 6.2250668291565425e+00 7.3074407256964067e+00 1 0 0
25 9 2 -1.1794000000000000e+00 4.6972622353150939e+00 5.9295756833887889e+00 7.5080334562660873e+00 0 0 0
94 32 2 -1.1794000000000000e+00 1.1300777927830140e+01 6.1973229479866561e+00 4.6430338888511180e+00 0 0 0
24 8 1 5.8970000000000000e-01 7.6943860311571755e-01 3.3555906069354382e+00 9.5122230098478990e+00 0 0 0
166 56 2 -1.1794000000000000e+00 1.1539067831685188e+01 6.1367161292591117e+00 -1.2971446318407620e-01 0 0 0
661 221 2 -1.1794000000000000e+00 -7.1038563437772657e+00 4.8602827386408016e+00 1.4470198938858132e+01 1 0 0
614 205 1 5.8970000000000000e-01 -7.8921263828183212e+00 5.1431841610688380e+00 1.7335128291511086e+01 1 0 0
559 187 2 -1.1794000000000000e+00 -4.3236889077328877e+00 3.9461184190172531e+00 1.3385892163414697e+01 0 0 0
663 221 1 5.8970000000000000e-01 -6.9300774514980263e+00 5.5573706094129589e+00 1.3837518661750345e+01 1 0 0
549 183 1 5.8970000000000000e-01 -4.4386630895892170e+00 3.8118404815593148e+00 1.6844960698978799e+01 0 0 0
552 184 1 5.8970000000000000e-01 -2.7498649294820212e+00 4.3301463460818574e+00 1.2262748056183751e+01 0 0 0
513 171 1 5.8970000000000000e-01 -4.1904012521698295e+00 5.6285716476185854e+00 1.4448664215135921e+01 0 0 0
639 213 1 5.8970000000000000e-01 -6.0386892432306167e+00 3.6963272163403729e+00 1.5579247546033699e+01 1 0 0
548 183 1 5.8970000000000000e-01 -3.7755545616012429e+00 5.1248492585204879e+00 1.6486041890705255e+01 0 0 0
547 183 2 -1.1794000000000000e+00 -3.6909459247849923e+00 4.3674184781102188e+00 1.7065320353673879e+01 0 0 0
587 196 1 5.8970000000000000e-01 -1.0767348030938952e+00 5.3756176982053114e+00 1.0718076192318883e+01 0 0 0
662 221 1 5.8970000000000000e-01 -7.5943120018149717e+00 4.2037447847946412e+00 1.3975483948220695e+01 1 0 0
84 28 1 5.8970000000000000e-01 -4.0834717776061042e+00 5.1908964583004620e+00 1.8568852822759915e+01 0 0 -1
550 184 2 -1.1794000000000000e+00 -1.7994570873133464e+00 4.4164948241303863e+00 1.2188611811602488e+01 0 0 0
99 33 1 5.8970000000000000e-01 -4.1586846536328741e+00 5.2620065448302258e+00 1.0266279504349946e+01 1 0 0
615 205 1 5.8970000000000000e-01 -7.6007579404823176e+00 5.7219795850414377e+00 1.5966869702527189e+01 1 0 0
560 187 1 5.8970000000000000e-01 -4.9574368291466300e+00 3.4709213648423498e+00 1.2848492151925971e+01 0 0 0
618 206 1 5.8970000000000000e-01 -6.9488949429122124e+00 5.9862749844602714e+00 1.1433528105102273e+01 1 0 0
551 184 1 5.8970000000000000e-01 -1.5648763154763776e+00 5.0648064044308505e+00 1.2852681478080745e+01 0 0 0
564 188 1 5.8970000000000000e-01 -1.9323943140199811e+00 4.0784902043007412e+00 1.6720841540783915e+01 0 0 0
563 188 1 5.8970000000000000e-01 -1.0950644782274834e+00 4.6315737100366539e+00 1.5587229511286743e+01 0 0 0
562 188 2 -1.1794000000000000e+00 -1.1905669326065922e+00 3.8662561045960095e+00 1.6154340388476427e+01 0 0 0
522 174 1 5.8970000000000000e-01 2.0162296450502279e+00 4.9248164137365782e+00 1.0615356142972077e+01 0 0 0
579 193 1 5.8970000000000000e-01 1.0358166705541032e+00 4.5124776071560770e+00 1.4337176615575185e+01 0 0 0
558 186 1 5.8970000000000000e-01 -4.1450601064233344e-01 3.2390949520901549e+00 1.2863510462799336e+01 0 0 0
561 187 1 5.8970000000000000e-01 -3.8757020698605764e+00 3.2647312765233081e+00 1.3887268744198487e+01 0 0 0
524 175 1 5.8970000000000000e-01 -3.1085016584268477e+00 3.3282149444966023e+00 9.8256988990268290e+00 0 0 0
556 186 2 -1.1794000000000000e+00 3.8198207056485706e-01 3.0989767974359359e+00 1.3375511006680837e+01 0 0 0
670 224 2 -1.1794000000000000e+00 7.9092787221164329e+00 5.8681500467877870e+00 9.9386432804750555e+00 0 0 0
605 202 1 5.8970000000000000e-01 1.0597329867217523e+01 4.3495247747880885e+00 9.7976975664665407e+00 0 0 0
553 185 2 -1.1794000000000000e+00 3.2633437421539724e+00 3.1263327176121538e+00 1.6060484264520511e+01 0 0 0
600 200 1 5.8970000000000000e-01 6.9098644766962005e+00 6.2069641123722894e+00 1.4603528859683344e+01 0 0 0
511 171 2 -1.1794000000000000e+00 -4.0855577400080207e+00 6.3159220848882001e+00 1.5106626337192992e+01 0 0 0
520 174 2 -1.1794000000000000e+00 2.0803121528798614e+00 4.6045394891673004e+00 9.7156026506946862e+00 0 0 0
532 178 2 -1.1794000000000000e+00 2.3399294456607911e+00 5.9499394785581030e+00 1.2076570733072650e+01 0 0 0
604 202 2 -1.1794000000000000e+00 1.1206468604433786e+01 5.0870681803619870e+00 9.8349513965781696e+00 0 0 0
599 200 1 5.8970000000000000e-01 7.8380103857465340e+00 5.6459579949897423e+00 1.3547183416392274e+01 0 0 0
14 5 1 5.8970000000000000e-01 3.9409427088087070e+00 4.3027934415414686e+00 9.6220077403397521e+00 0 0 0
586 196 2 -1.1794000000000000e+00 -7.7989925966215101e-01 5.8967393496441955e+00 9.9719744272562654e+00 0 0 0
598 200 2 -1.1794000000000000e+00 7.8353732394410223e+00 6.1348476368111031e+00 1.4370136022630078e+01 0 0 0
577 193 2 -1.1794000000000000e+00 1.7196183651960362e+00 5.0347608409276186e+00 1.4756590521428150e+01 0 0 0
533 178 1 5.8970000000000000e-01 2.3280415775011418e+00 5.7509959368214396e+00 1.3012789595911139e+01 0 0 0
531 177 1 5.8970000000000000e-01 1.1639150428920626e+00 5.8226703524710892e+00 1.6158264207996627e+01 0 0 0
578 193 1 5.8970000000000000e-01 2.3527412978600561e+00 4.3906481888127100e+00 1.5073791645503697e+01 0 0 0
518 173 1 5.8970000000000000e-01 1.3708633045480922e+00 5.3953993698278770e+00 1.8505744782124463e+01 0 0 0
645 215 1 5.8970000000000000e-01 4.0767184171415716e+00 3.5934280116279078e+00 1.2799971724557500e+01 0 0 0
15 5 1 5.8970000000000000e-01 4.9250256689201812e+00 5.3033587825746444e+00 1.0189973009092743e+01 0 0 0
633 211 1 5.8970000000000000e-01 5.1115593714854661e+00 5.2997326356619130e+00 1.6348845821882460e+01 0 0 0
644 215 1 5.8970000000000000e-01 5.2180739556037956e+00 3.4722050635384289e+00 1.3787050120086109e+01 0 0 0
102 34 1 5.8970000000000000e-01 7.6202795861391435e+00 5.5072097447403650e+00 1.9167271093373916e+01 0 0 -1
632 211 1 5.8970000000000000e-01 5.1961462942837997e+00 5.1049575962946125e+00 1.7847759783320374e+01 0 0 0
514 172 2 -1.1794000000000000e+00 -1.3082513396147468e+00 6.2343535955078755e+00 1.4429845921392365e+01 0 0 0
648 216 1 5.8970000000000000e-01 7.0656293546150941e+00 4.1990645920370611e+00 1.6725393817350628e+01 0 0 0
646 216 2 -1.1794000000000000e+00 7.8540983065625376e+00 3.9143658656489255e+00 1.6263282598164356e+01 0 0 0
555 185 1 5.8970000000000000e-01 3.8926194998500145e+00 3.4874781930848560e+00 1.6684817419643085e+01 0 0 0