LAMMPS data file via write_data, version 15 Apr 2020, timestep = 8750000

6144 atoms
2 atom types

1.4400638266911159e-01 5.9824282748525050e+01 xlo xhi
0.0000000000000000e+00 2.8042064321032285e+01 ylo yhi
0.0000000000000000e+00 2.7103964041774049e+01 zlo zhi
1.0153987749871007e+01 1.0178129065408839e+01 7.1102044244216387e+00 xy xz yz

Masses

1 16
2 2

Atoms # atomic

1538 2 1.1842721655889036e+01 1.4618610482435182e+01 1.9743471008579451e+01 0 0 0
1604 2 7.4721078057556731e+00 5.4716453940847369e+00 2.9413622955317914e-01 0 0 1
324 2 1.0765161609080106e+01 2.0173516855104896e+01 6.6378851803320567e+00 0 0 0
47 2 1.1291557569680727e+01 2.3392257039542667e+01 7.6415204041842797e+00 0 0 0
241 1 7.5298935040662558e+00 1.1283494317069344e+01 6.0008207341499933e+00 0 0 0
2440 1 2.2210987078951145e+01 2.1611003775219316e+01 1.0561512939236952e+01 0 0 1
25 1 1.5119631532248427e+01 1.1388595482989636e+01 5.9263931189387034e+00 0 0 -1
189 2 1.4474397483255805e+01 2.8167089875381549e+01 1.2055099527299976e+01 0 0 0
2464 1 1.5190295182990639e+01 1.8895305825027133e+01 8.8283008287940294e+00 0 1 0
886 1 1.7623584170662166e+01 2.8428623017306940e+01 1.6289816406396856e+01 0 1 -1
1633 1 1.9856736749068283e+01 1.5336213489831133e+01 1.9469157931871678e+01 0 0 0
1539 2 1.2922491899784816e+01 1.5745963081353704e+01 1.9998127792500298e+01 0 0 0
2626 1 1.6052913194901940e+01 2.4136662145533379e+01 2.1002969569659939e+01 0 0 0
358 1 1.7615694585411070e+01 2.3218866822678400e+01 2.3110465266998261e+01 0 0 0
2466 2 1.4767500122038157e+01 1.9622502967404806e+01 8.3610587494978663e+00 0 1 0
1226 2 2.2427793185899674e+01 2.0163617030668448e+01 2.1592778167626001e+01 0 0 -1
1670 2 1.5770803256255725e+01 1.3917161696454318e+01 2.4536528046028646e+01 0 0 -1
1634 2 2.0729043967029920e+01 1.5120906856955433e+01 1.9061172924822444e+01 0 0 0
1064 2 1.9120728520293692e+01 3.1642917851909893e+01 1.8347607338213596e+01 0 0 -1
1894 1 1.5289510415818743e+01 2.4859601829780793e+01 1.5269156741801769e+01 0 0 1
1852 1 2.8017997186955576e+01 3.3456936121652696e+01 2.1783232838481535e+01 0 -1 0
1916 2 1.8924120252671763e+01 2.8199231716434269e+01 1.3493933970843488e+01 0 0 0
2657 2 2.6927189655361687e+01 2.0770660728646895e+01 1.6755020413622795e+01 0 0 0
925 1 2.2179121936831478e+01 2.5707381465660802e+01 8.1112345307534128e-01 0 0 1
2602 1 2.6351268553866532e+01 1.3585993865333354e+01 2.6652121998723473e+01 0 1 0
303 2 1.9354040184786925e+01 6.0195292356334438e+00 1.7607534590623388e+01 0 0 -1
1587 2 1.5333998929403467e+01 1.2319094827570135e+01 1.4373736001308590e+01 0 0 0
1586 2 1.6493683997334404e+01 1.1338127588510167e+01 1.4319533268147417e+01 0 0 0
1675 1 2.0349216473375890e+01 9.7870566747155152e+00 2.5991605215184006e+01 0 0 0
2564 2 1.9683718026004385e+01 2.5649173509691764e+01 2.4169726999723334e+01 0 1 -1
416 2 1.5290511065447781e+01 1.4728428515922438e+01 2.2558884989785735e+01 0 0 0
927 2 2.1908054963886386e+01 2.5061658134574650e+01 5.8894463378262304e-02 0 0 1
610 1 2.0339044884481698e+01 2.4876187110713527e+01 2.9541531449169680e+00 0 0 0
1275 2 6.9876549986488987e+00 7.8508661761541774e+00 1.9991915382965535e+00 0 0 0
2330 2 1.0671081680861283e+01 1.5943857546558554e+01 5.2160423679499086e+00 0 0 0
2450 2 1.8039242848899079e+01 2.1672385588092752e+01 2.2623129292725817e+01 0 0 0
1862 2 5.8355204706800023e+00 1.0510327654081145e+01 4.0866002677330275e+00 0 0 0
27 2 1.5624228365480899e+01 1.0666550572245523e+01 5.4324099840714117e+00 0 0 -1
907 1 1.6105898858991132e+01 2.2241617178182217e+01 6.1384934647937692e+00 0 0 0
987 2 2.1376201090484933e+01 8.7032983927469765e+00 2.5290837322076065e+01 0 0 0
1561 1 1.4271904133851940e+01 1.8700177261523869e+01 1.8599471811907307e+01 0 0 0
1901 2 2.6631272623641003e+01 3.0147994720808548e+01 1.4577846306020648e+01 0 -1 1
2785 1 2.3523024911455181e+01 2.7353794941559805e+01 2.0463966378741173e+01 0 0 0
1083 2 9.9519574593145723e+00 2.3732475382763627e+00 7.1041904731060326e+00 0 0 0
1136 2 1.4019530228107412e+01 1.2342454308909220e+01 2.4815172262952874e+01 0 1 -1
104 2 1.0284595516923870e+01 1.0925537315280197e+01 8.7593220297926120e+00 0 0 0
166 1 1.3009408870082805e+01 6.1675398830615125e+00 1.6481152557647761e+01 0 1 -1
1781 2 2.6057794846358249e+01 3.0050037346424606e+01 2.4220763828950687e+01 0 -1 0
2113 1 2.8552198944025051e+01 3.1226513396181261e+01 1.2661887544340759e+01 0 -1 0
216 2 2.1663909758769158e+01 1.4851221535360901e+01 5.2957423560187271e+00 0 0 0
2470 1 2.0485750166964110e+01 2.8228040636129965e+01 1.7731681620438875e+00 0 0 1
1514 2 1.8213100637298641e+01 1.0869144528798381e+01 7.0847995393505636e+00 0 0 0
101 2 6.5716697874394736e+00 5.9304111068584042e+00 8.6884886323633790e+00 0 0 0
1570 1 9.8066789910046523e+00 1.2471447773285968e+01 9.3332618799986715e+00 0 0 1
1762 1 1.7603306757979841e+01 2.6024339332117172e+01 1.5351302044178826e+01 0 -1 0
1129 1 1.4502867998742644e+01 1.0154737668977226e+01 2.0827042838780454e+01 0 0 -1
2360 2 1.0202035153316965e+01 1.2447501584341985e+01 3.2787598066335959e+00 0 0 0
1635 2 1.9448949373829986e+01 1.4493017289373295e+01 1.9726116304812663e+01 0 0 0
1017 2 8.8898344523387820e+00 6.4296467323068427e+00 1.0089951520784844e+01 0 1 -1
946 1 1.0977501821566218e+01 1.0479445996066950e+01 2.0925467315928998e+01 0 0 0
1086 2 2.3417055795433356e+01 2.5893189110134003e+01 2.3864273008878705e+01 0 0 -1
2325 2 1.8746467152629727e+01 2.8235423011588964e+01 2.4865480702470343e+01 0 1 0
896 2 2.1584503070830724e+01 2.5519676173860315e+01 1.8858940272185116e+01 0 0 -1
868 1 1.0446557422315895e+01 1.5632995783062432e+01 8.2947670888504970e+00 0 0 0
1825 1 8.3380158216994218e+00 8.5268081127854654e+00 1.3966268569892680e+01 0 0 0
2331 2 1.1309273111598316e+01 1.7287116699107848e+01 5.5694074852370417e+00 0 0 0
1659 2 1.8182504844759730e+01 2.6038902661046151e+01 1.8564286964386593e+01 0 -1 0
926 2 2.2825098934645421e+01 2.6331764989273744e+01 4.0468551040001544e-01 0 0 1
112 1 1.8676181963192768e+01 3.0842015963673003e+01 2.1027828751981595e+01 0 -1 0
1274 2 7.6532711789814734e+00 8.6003582583688001e+00 7.7781504323598150e-01 0 0 0
1786 1 1.3886152455975051e+01 2.9430606394120687e+01 1.0776971593348810e+01 0 -1 1
1669 1 1.6498121788427760e+01 1.4469144739911712e+01 2.5000345302774498e+01 0 0 -1
1063 1 1.9314526721870635e+01 3.2376695318886270e+01 1.8946821657623012e+01 0 0 -1
1671 2 1.7091680186007494e+01 1.4803898956843874e+01 2.4297848258654291e+01 0 0 -1
2507 2 9.4815248850916038e+00 2.0706468039531714e+01 3.3946226345189028e+00 0 0 1
1001 2 1.6538904246524531e+01 1.8019593964001213e+01 2.1437399301601555e+01 0 0 -1
846 2 1.8975222009595598e+01 1.9738740999989801e+01 2.2826673358321461e+01 0 0 -1
359 2 1.8322462752749232e+01 2.3747346329516724e+01 2.3484066370201628e+01 0 0 0
2310 2 2.0449926034434029e+01 1.7932591529113203e+01 2.1910192105641691e+01 0 0 0
1971 2 2.2181801615221818e+01 1.8619079548501571e+01 1.0615525501035723e+01 0 0 0
465 2 2.0356798887745153e+01 1.0425421611446215e+01 8.0130666929117176e+00 0 1 -1
243 2 7.8518158449631050e+00 1.1976837551654146e+01 6.6690058845889908e+00 0 0 0
887 2 1.7656603677251880e+01 2.7502090415668839e+01 1.5889347737909304e+01 0 1 -1
2465 2 1.5323138067236975e+01 1.8128950562212150e+01 8.2082542138382113e+00 0 1 0
1829 2 1.3903668564297625e+01 2.2270338219915008e+01 1.4957275278628824e+01 0 -1 0
102 2 7.2888443273284933e+00 4.5751376449660075e+00 9.0202897467159762e+00 0 0 0
2516 2 2.2917012025594865e+01 2.6803442876706416e+01 1.2571959747632109e+01 0 0 0
1917 2 1.8277233433232681e+01 2.6875180877011463e+01 1.3802406614161708e+01 0 0 0
353 2 1.2549390020445101e+01 1.3248050095626079e+01 3.3540385257563585e+00 0 0 0
2407 1 1.2483629813478260e+01 1.7452349827482905e+01 1.5493153550681798e+01 0 0 0
1573 1 1.7828082992731801e+01 2.4174094319900696e+01 3.9830383002811067e+00 0 -1 0
1593 2 9.0584999970300117e+00 1.1223590708838216e+01 1.4596278369751133e+01 0 0 0
1134 2 2.2141711348773928e+01 1.9492555633963988e+01 1.7377826334556352e+00 0 0 0
1703 2 1.7367673127212278e+01 2.2511061240210744e+01 1.8257486319029770e+01 0 0 0
755 2 1.7691884219801267e+01 3.1193249012279612e+01 1.6017535768873039e+01 0 0 0
1969 1 2.1633362733928927e+01 1.8409924561668404e+01 1.1401486449839334e+01 0 0 0
1002 2 1.7830975792628760e+01 1.7901234958877573e+01 2.0417254939209425e+01 0 0 -1
2522 2 2.0074232621138652e+01 2.9061828392328049e+01 1.5171626829361838e+01 0 0 0
1884 2 1.1133657841929701e+01 1.6537638643374947e+01 1.2646884480502289e+01 0 0 0
1702 1 1.7062835044501419e+01 2.3086305134751179e+01 1.7494960001904882e+01 0 0 0
845 2 2.0334101799196439e+01 1.9356723814040166e+01 2.3431358578087888e+01 0 0 -1
220 1 1.1585825436056588e+01 1.1556161568399258e+01 2.4590608811321655e+01 0 0 -1
908 2 1.6401954247025127e+01 2.1824568450730844e+01 5.2854766813565117e+00 0 0 0
836 2 2.4176404270063820e+01 3.1684931287917941e+01 1.8313971991541980e+01 0 0 -1
28 1 1.6573348416189972e+01 2.0734629948074939e+01 1.2226534710620896e+01 0 0 0
2652 2 1.9189425017810514e+01 8.5418206197731426e+00 2.6789215271437083e+01 0 1 0
938 2 2.0062692387108257e+01 1.1144990709165377e+01 1.2209840522262214e+01 0 0 0
843 2 1.5738460911215562e+01 2.1461185767564892e+01 2.5015144595817251e+01 0 0 -1
1585 1 1.5725510612745314e+01 1.1693648077413464e+01 1.3784425264108901e+01 0 0 0
2414 2 2.0335492122812283e+01 1.2382300388385133e+01 1.4412182179541984e+01 0 0 1
958 1 2.2200577169311753e+01 2.0841672410133821e+01 7.5028074844389225e+00 0 1 0
1449 2 1.6239669085257070e+01 1.4525665916130563e+01 4.3257549729015272e+00 0 1 0
2605 1 2.1868493391881014e+01 1.5437184004645506e+01 1.4073231042333914e+01 0 0 0
823 1 1.0286384206711695e+01 8.3470462099919427e+00 1.9320487116868417e+01 0 1 -1
1015 1 9.4781246220196813e+00 7.1001931612007168e+00 1.0480690505798689e+01 0 1 -1
1811 2 5.6503101703850689e+00 3.7983286742502771e+00 1.1282857100978434e+01 0 1 0
49 1 6.5029013325484799e+00 1.3743731768422741e+01 4.1918303495875788e+00 0 0 0
30 2 1.6942762070445458e+01 2.1238644019896523e+01 1.2976030192954614e+01 0 0 0
323 2 1.1622805382367710e+01 2.0598695015712202e+01 7.8811850149592564e+00 0 0 0
95 2 1.3243537191110480e+01 3.6782402043919040e+00 1.1286776826540676e+01 0 0 0
850 1 9.6983557431132077e+00 1.3682111280631183e+01 1.2813392952154450e+01 0 1 0
2515 1 2.2237361466784716e+01 2.7411593477078299e+01 1.2852494941810759e+01 0 0 0
583 1 1.3858619739160975e+01 7.7000820749968764e+00 1.0560731574051701e+01 0 0 0
2408 2 1.3307845732688151e+01 1.7982502606222702e+01 1.5615932390234835e+01 0 0 0
1887 2 2.2190071795448603e+01 3.0081976642970645e+01 7.9770329414154295e+00 0 -1 0
1065 2 2.0219093761018410e+01 3.2721279394252839e+01 1.8798651423059106e+01 0 0 -1
1130 2 1.4837319287016904e+01 9.5802668369346193e+00 2.1566439614853078e+01 0 0 -1
2024 2 2.9394279684572506e+01 2.3303499289694876e+01 2.5947158271194915e+01 0 0 0
962 2 1.2705730451248234e+01 2.3256251556777848e+01 1.9601975667114238e+00 0 0 0
1859 2 1.3179522810396964e+01 1.4759408478529568e+01 2.4334560487176123e+01 0 0 0
1135 1 1.3915801970065502e+01 1.3334250945559578e+01 2.4941532721968947e+01 0 1 -1
89 2 2.3548884860609355e+01 2.0032206861773496e+01 1.8258353265502002e+01 0 -1 -1
1466 2 2.8918932155916522e+01 2.5215478083694293e+01 1.8219293422061398e+01 0 0 -1
346 1 8.8232744634009528e+00 1.5286112572195465e+01 1.0771751219127117e+01 0 0 0
2679 2 2.7671190095621267e+01 2.1995013173090204e+01 2.3791274135354239e+01 0 1 0
1803 2 1.9426290260535275e+01 8.0861330772735016e+00 1.3505697555940012e+01 0 -1 0
2072 2 3.0254587554276149e+01 3.1285639770816996e+01 1.6596215937378826e+01 0 0 0
1896 2 1.4930089909842270e+01 2.4809737364646004e+01 1.6161751606343550e+01 0 0 1
2355 2 1.6052109627927635e+01 4.1793098135158235e+00 1.4982370737831953e+01 0 1 0
2383 1 2.6269112580271777e+01 1.9240963063464317e+01 1.9693276357060874e+01 0 0 0
2789 2 2.0141661949677466e+01 1.9264747214395097e+01 2.2530325000962729e-03 0 0 1
909 2 1.6851302369304307e+01 2.2738230107555580e+01 6.5147136567577801e+00 0 0 0
874 1 2.4542705516458003e+00 3.0636832725399872e+00 4.0986787087243934e+00 0 1 0
1924 1 1.2310078561728542e+01 4.3745408721127932e+00 5.9279040707868997e+00 0 0 1
851 2 1.0365671815030243e+01 1.3111604554541788e+01 1.2321483206945134e+01 0 1 0
335 2 1.5072526417648596e+01 2.2839054022103866e+01 2.0272163612787882e+01 0 0 0
1273 1 7.8012273127471685e+00 8.3073941608852415e+00 1.7360230255013862e+00 0 0 0
2471 2 2.0692652296176661e+01 2.7371992265487211e+01 1.4106185431984275e+00 0 0 1
1780 1 2.5311760038702012e+01 2.9482792857528388e+01 2.4404537842549214e+01 0 -1 0
924 2 2.6072965148743158e+01 2.1673488850556307e+01 2.5418942477225208e+01 0 0 -1
1499 2 3.0768608497644898e+01 3.1403538438179055e+01 2.5500353470970676e+01 0 1 -1
2596 1 1.5778717668171719e+01 1.9331641503243382e+01 2.2030910852348576e+01 0 0 0
352 1 1.1779346987179526e+01 1.3161417980986593e+01 2.6610423261066316e+00 0 0 0
961 1 1.2640749956009291e+01 2.2488815772514126e+01 1.3876458041747395e+00 0 0 0
508 1 1.3023303770067441e+01 1.1933500973791059e+01 6.0430253844568305e-01 0 0 0
1648 1 8.4840711039073629e+00 1.6891526924606886e+01 7.2197122377305369e+00 0 0 1
877 1 2.3868955253473693e+01 1.1816468651760326e+01 1.9886682797920258e+01 0 0 -1
1060 1 1.0276541347179053e+01 8.4385154779483678e+00 2.4574762003339984e+01 0 1 -1
818 2 1.6288244452397322e+01 6.7574287906708559e+00 1.7279740882962933e+01 0 1 -1
775 1 1.2278080704364974e+01 2.4957020810306741e+01 2.7455819875882956e+00 0 0 0
1603 1 6.9036003301472970e+00 4.8471776341399391e+00 7.5509245081898979e-01 0 0 1
678 2 2.4939835835176083e+01 1.2130678666392566e+01 2.3610476418568624e+01 0 1 -1
1605 2 7.4383724004343117e+00 4.4379501543183908e+00 1.4198486251497870e+00 0 0 1
966 2 2.1155621710262743e+01 2.0034327046811274e+01 4.7641202749286311e+00 0 -1 0
752 2 2.3292092061976586e+01 2.3663868653919597e+01 8.7762737178716161e+00 0 0 0
100 1 7.0953345391355702e+00 5.4468062084799715e+00 9.4296303239128054e+00 0 0 0
294 2 7.8602495943595851e+00 1.4105895060821144e+01 7.6159022174501345e+00 0 0 0
1030 1 1.1823199531715007e+01 1.3587176189198487e+01 7.3388673976155605e+00 0 0 0
2323 1 1.9416239237571354e+01 2.7566232821725873e+01 2.5165705748709787e+01 0 1 0
635 2 2.1068209090622020e+01 1.9321339461302841e+01 1.7816336837421026e+01 0 0 0
1016 2 1.0279235374923456e+01 7.2203966801648320e+00 9.9803002257896551e+00 0 1 -1
942 2 1.1681052648133306e+01 1.6403421802088090e+01 1.8400839762431247e+01 0 0 0
995 2 7.4996505331484142e+00 9.6910343545583828e+00 2.5554024014920627e+00 0 1 0
2365 1 2.4433971532097839e+01 2.2597055113628969e+01 1.4258188552782880e+01 0 0 0
2361 2 9.5538576151691750e+00 1.2023149318495506e+01 4.5630177233787093e+00 0 0 0
1734 2 3.1209927836993430e+00 4.1526346835250916e+00 8.9540698742968369e-02 0 1 0
975 2 1.3254417088193897e+01 2.5251427997725283e+01 1.1566798121699868e+01 0 0 0
1078 1 2.7980071286606279e+01 2.8363193482162011e+01 2.2016587642725856e+01 0 0 0
963 2 1.3195146968561108e+01 2.1792288871876355e+01 1.7836012162707340e+00 0 0 0
2282 2 2.6524321243350620e+01 2.8560786711617283e+01 5.4994606427085415e+00 0 -1 0
2353 1 2.5506454980523458e+01 3.1523871618790814e+01 1.5022879643464423e+01 0 0 0
917 2 8.8101390590313891e+00 6.7473554250023184e+00 2.2739345480381816e+00 0 1 0
417 2 1.4410283075492005e+01 1.3423301244066113e+01 2.2435608420070920e+01 0 0 0
282 2 2.0078458166607511e+01 4.1105357325559417e+00 1.3414525469811453e+01 0 0 0
785 2 8.0785858155871466e+00 2.5457563129261316e+00 8.5491521171443221e+00 0 1 0
168 2 1.3133622954481215e+01 5.4980463192763835e+00 1.5786417258399061e+01 0 1 -1
298 1 1.4224886824423521e+01 1.4839204738873260e+01 8.9572587225820612e+00 0 0 0
88 1 2.4437133848362677e+01 2.0345969170519396e+01 1.8227015600176031e+01 0 -1 -1
973 1 1.2832363937143491e+01 2.6103984159759396e+01 1.1195513664067848e+01 0 0 0
612 2 2.0877934709545801e+01 2.4379425633842846e+01 3.6258853525566113e+00 0 0 0
1489 1 1.7964173528212946e+01 2.0329874621498071e+01 1.5916827437465621e+01 0 0 0
1079 2 2.7388946349296923e+01 2.7582651849785442e+01 2.1908991598173547e+01 0 0 0
894 2 1.6218299209668952e+01 1.1206930356573436e+01 2.2781172135822417e-01 0 0 1
482 2 2.1260885517063883e+01 1.3237793118035956e+01 2.1367873367796435e+01 0 0 -1
1915 1 1.8430138883328894e+01 2.7479853497522619e+01 1.3038387143425837e+01 0 0 0
2451 2 1.7158202236531181e+01 2.0557237322589920e+01 2.1909534762878359e+01 0 0 0
155 2 1.3245442832689392e+01 1.5677473632806125e+00 4.8876345187169195e+00 0 0 0
776 2 1.3093761858632378e+01 2.5370333734317391e+01 3.1730876321717059e+00 0 0 0
769 1 2.2843112885432468e+01 2.8035082127403612e+01 1.7759499520221702e+01 0 -1 -1
1826 2 9.0098006507635198e+00 8.1920489168988659e+00 1.4597080223333789e+01 0 0 0
2572 1 1.5097529791670240e+01 1.6353530018201155e+01 2.2824668522565975e+01 0 0 0
354 2 1.1495689703940847e+01 1.4095796115161860e+01 2.5605829105741469e+00 0 0 0
1665 2 1.1237526022134798e+01 1.8045514587058371e+01 1.4564459212346737e+01 0 0 0
1851 2 2.2848570198257963e+01 2.4534423642944628e+01 1.8874812737891857e+00 0 -1 0
3 2 2.7743834038313992e+01 2.0294107098748370e+01 2.0360960898735510e+01 0 0 -1
1704 2 1.6970084880948285e+01 2.3984541236598325e+01 1.7904000277224693e+01 0 0 0
1733 2 2.7202891654243819e+00 5.2259500402529229e+00 1.0480336626838804e+00 0 1 0
1899 2 1.6218995164229995e+01 2.7972513155061584e+01 2.0319254831709625e+01 0 0 0
633 2 1.0517157847727116e+01 1.4864013142888316e+01 1.3732288992171224e+01 0 0 0
145 1 1.6804093563758165e+01 3.1172926522544728e+01 1.7618495976640812e+01 0 -1 -1
1044 2 8.1311689572793995e+00 1.0936098381218244e+01 1.1366759482245262e+01 0 1 0
1156 1 1.9242458696022602e+01 2.1923133500365818e+01 5.2696346677402950e+00 0 0 0
313 1 1.4334087773362732e+01 1.7615423579279970e+01 1.1098695324988885e+01 0 0 -1
2363 2 1.4088999170460742e+01 2.3636117067919219e+01 1.8080766832584271e+01 0 0 0
1297 1 2.3653518950498544e+01 1.7140029769832839e+01 1.2589041730804709e+01 0 0 -1
2613 2 2.2597885301039103e+01 1.9480343092867297e+01 2.3576228978549189e+01 0 0 1
1133 2 2.1831402845700062e+01 2.0957762558212309e+01 2.0428277058461948e+00 0 0 0
1500 2 3.2024505938934553e+01 3.0538720521701279e+01 2.5615526860981426e+01 0 1 -1
1615 1 1.5756478288265230e+01 2.9362076154884726e+01 1.4417053232011114e+01 0 -1 0
1715 2 2.4001029366110675e+01 2.4963207136236459e+01 2.0347456143482692e+01 0 -1 0
1870 1 2.9875852736130813e+01 3.1266143538239881e+01 2.1190820070727455e+01 0 0 0
1662 2 1.7570951323174704e+01 1.7015120297911487e+01 2.5515977750527501e+01 0 -1 0
915 2 2.4079468987102313e+01 2.9291563944728043e+01 1.4835292273427862e+01 0 -1 -1
1736 2 1.6387621503267496e+01 1.6435199880714897e+01 1.6673815406027902e+01 0 0 0
376 1 2.3008309164310212e+01 2.9065266566674172e+01 2.2884567617310047e+01 0 -1 0
1109 2 1.2677585550090638e+01 8.0864004425926872e+00 1.5245254261894921e+01 0 0 0
372 2 1.1661114011775476e+01 8.9877658227553532e+00 2.3595005610807757e+01 0 0 0
333 2 1.1061291528341034e+01 4.4405846361850347e+00 1.5317177722927712e+01 0 1 0
2676 2 1.9874030473954562e+01 1.3321407636118519e+01 8.0409900445393721e+00 0 1 1
374 2 9.3716178018218343e+00 8.5736235586198219e+00 5.7221748292237393e+00 0 0 0
2324 2 1.8969002491341310e+01 2.7038429981231481e+01 2.5904621455230536e+01 0 1 0
343 1 5.7559051165477246e+00 1.1760883310548579e+01 9.9118813720000820e-01 0 0 0
950 2 1.6740359879169265e+01 1.2642087835103961e+01 1.0083258953923965e+01 0 -1 0
2770 1 2.9846064935268554e+01 3.4436267471307794e+01 2.5415516222715237e+01 0 0 0
188 2 1.5116839361788944e+01 2.7928102152022518e+01 1.3505391291045266e+01 0 0 0
2336 2 9.3463785381140703e+00 5.8573282664944948e+00 2.1064410999919339e+01 0 1 0
1522 1 2.0545142203270348e+01 1.1589808605913882e+01 9.2589830712812091e+00 0 1 0
2642 2 1.5290527254244445e+01 1.0818711712823116e+01 2.3754260198263268e+01 0 0 0
2627 2 1.6648728303740103e+01 2.3852831351089822e+01 2.1696977834282666e+01 0 0 0
187 1 1.4706480658428497e+01 2.7518749580745439e+01 1.2741647034095751e+01 0 0 0
1088 2 1.9072712228355517e+01 2.4837657321659115e+01 2.1158063125906860e+01 0 0 -1
587 2 8.7427530062806831e+00 9.3604286308916329e+00 8.2941412228608193e+00 0 0 0
269 2 1.8044483346383018e+01 1.9620674792588950e+01 1.9083014895500760e+01 0 -1 -1
951 2 1.7966501226400240e+01 1.2038360440603267e+01 9.2686081724893157e+00 0 -1 0
198 2 1.6035711312837179e+01 2.6225673082549704e+01 1.2467146969572259e+01 0 -1 0
1089 2 2.0394334570539733e+01 2.4633401868637421e+01 2.0297774498694846e+01 0 0 -1
2468 2 1.6797154141411980e+01 9.2640321101618532e+00 1.8099760386023963e+01 0 0 1
2570 2 2.4349750921275664e+01 1.9884540735240403e+01 2.6411311758104883e+01 0 1 -1
1645 1 1.3700505067363636e+01 7.9678623969859164e+00 1.9474925180886743e+01 0 0 0
830 2 1.9060321926999094e+01 2.2874690925601037e+01 1.9986125871492643e+01 0 0 0
1658 2 1.9762188236751342e+01 2.6133845637964043e+01 1.8847164558700094e+01 0 -1 0
2313 2 2.4159946002514957e+01 2.7031027903100590e+01 6.6943055214779861e+00 0 0 0
124 1 2.1070995185554832e+01 2.3931659027776188e+01 5.1910056658254140e+00 0 -1 0
2616 2 2.6198691828826774e+01 1.8047693535384155e+01 1.8162024360236042e+01 0 0 0
676 1 2.4473539257198990e+01 1.1838727618304318e+01 2.2792216363578810e+01 0 1 -1
681 2 1.8160612063544267e+01 6.4076587169830601e+00 3.5615012177867209e+00 0 0 0
2590 1 2.0796226055009896e+01 2.7896838741572481e+01 7.3203621537245249e+00 0 0 1
332 2 9.4707581896464372e+00 4.6033409025640415e+00 1.5208906150886605e+01 0 1 0
1735 1 1.6966876520370143e+01 1.6906831969000955e+01 1.6019586092652499e+01 0 0 0
1102 1 2.2899114223737993e+01 1.3960044292318710e+01 1.6019322278513513e+01 0 1 -1
2413 1 2.0073299548647405e+01 1.2441314719855676e+01 1.5353717444485531e+01 0 0 1
895 1 2.1229598670112132e+01 2.5952768913356419e+01 1.9675680760838546e+01 0 0 -1
247 1 5.6819043568469496e+00 6.5522434134179282e+00 7.5983875282728714e+00 0 0 0
1777 1 1.6875654215551648e+01 1.2511705152342223e+01 3.7754258982895523e+00 0 0 0
2629 1 1.1333928010771359e+01 1.1506039896793801e+01 1.1550992165782610e+01 0 0 0
2424 2 1.2030033128477584e+01 5.6840400051147508e+00 1.1322066964284083e+01 0 1 0
789 2 2.5886427081446055e+01 2.6941502232280506e+01 1.3141049732739997e+01 0 0 0
1706 2 2.0498569300577536e+01 8.3044563446250379e+00 1.8955359698645061e+01 0 0 -1
1562 2 1.3896333819754052e+01 1.8198111149789106e+01 1.9371007915587793e+01 0 0 0
994 1 7.1940997909194326e+00 1.0568502330453981e+01 2.9324613463582971e+00 0 1 0
2641 1 1.4562385142258513e+01 1.0742222975162779e+01 2.4365536007870702e+01 0 0 0
897 2 2.1885873198634556e+01 2.6698725541876048e+01 1.9846015516045782e+01 0 0 -1
318 2 1.2025407647767242e+01 2.0622503193476192e+01 4.1737016715188782e+00 0 -1 0
725 2 5.4515125602049901e+00 1.8084546025850861e+00 9.0320955021493299e-01 0 0 1
2456 2 1.2223367242261071e+01 1.1612322701528033e+01 9.9335288210754289e+00 0 0 1
1672 1 1.9638934547039916e+01 1.4150412275774073e+01 1.0570562572887058e+01 0 -1 0
1764 2 1.6821696646261898e+01 2.5415831151893371e+01 1.5284542260991969e+01 0 -1 0
1801 1 1.9597129530299068e+01 8.6569194790217612e+00 1.4275187170552639e+01 0 -1 0
1737 2 1.7750950989924718e+01 1.7205069406910471e+01 1.6520880096115487e+01 0 0 0
1019 2 1.1057287660893103e+01 7.2426154413185637e+00 4.8982906105402844e+00 0 1 0
1682 2 1.3208385670483345e+01 2.6925699070477545e+01 1.5908234331825810e+00 0 -1 0
1258 1 3.1867376042116980e+01 3.2924375177641267e+01 2.2932361235917796e+01 0 0 0
197 2 1.5784954973297435e+01 2.4764962150905589e+01 1.2020625203818856e+01 0 -1 0
759 2 1.5650809444505819e+01 2.5787719303819504e+01 5.1049507921602997e+00 0 -1 0
2585 2 6.3836054971001719e+00 9.3584250581714183e+00 7.4974821315630544e+00 0 1 1
2217 2 2.8860518996244565e+01 2.6792278062485156e+01 2.2710413252347074e+01 0 0 0
1003 1 1.5407185238582834e+01 1.4088085394494376e+01 1.7590004799762711e+00 0 1 0
1790 2 6.7515267963446419e+00 7.0224859300863232e+00 4.7867903837702235e+00 0 0 1
1681 1 1.2813470897623230e+01 2.7787001792501819e+01 1.7801771080990496e+00 0 -1 0
2467 1 1.6528443543431791e+01 1.0091638149769324e+01 1.7672434019244772e+01 0 0 1
2786 2 2.4210229881970495e+01 2.7930884373996001e+01 2.0036319481984954e+01 0 0 0
1621 1 1.4793756568404167e+01 1.6179309821391726e+01 1.7367281588107780e+01 0 0 -1
1622 2 1.5088438851262554e+01 1.5760501998212096e+01 1.8189909344419533e+01 0 0 -1
1745 2 2.5830525859046880e+01 2.5604550745882047e+01 1.5507182857828662e+01 0 -1 1
1691 2 1.7803233323111066e+01 2.5201364557167519e+01 8.5023727121652044e+00 0 -1 1
316 1 1.2181859969640817e+01 1.9719393149162482e+01 3.8928262338957524e+00 0 -1 0
2612 2 2.2325153079562156e+01 1.8556435209321236e+01 2.4782752677702458e+01 0 0 1
2491 1 1.3251581573665399e+01 1.8385324526706246e+01 6.0036949445851899e+00 0 0 1
1059 2 1.7894658934803502e+01 1.1824584948810863e+01 5.1071008633604489e+00 0 0 0
1110 2 1.1980160000225769e+01 7.6549450720150141e+00 1.4028481561780659e+01 0 0 0
1117 1 2.2154560367064636e+01 2.6734022243441785e+01 9.5791069995426312e+00 0 0 0
2563 1 2.0039194250980103e+01 2.4767543751268200e+01 2.4057110851302060e+01 0 1 -1
2630 2 1.0620048575459451e+01 1.0773421340759123e+01 1.1474675465549764e+01 0 0 0
481 1 2.0633855569371995e+01 1.2528439738090444e+01 2.1378750288064406e+01 0 0 -1
819 2 1.5811128274141236e+01 5.8179302410848663e+00 1.8319194160800944e+01 0 1 -1
373 1 9.0384187870963189e+00 9.1978033942244348e+00 5.0619571815737219e+00 0 0 0
771 2 2.2007845419969851e+01 2.7860758357430381e+01 1.7245121521522996e+01 0 -1 -1
2286 2 1.9104847705863008e+01 2.8385158807649251e+01 4.5610088571279910e+00 0 -1 1
677 2 2.5105614733326608e+01 1.1196344803722262e+01 2.2376112337227749e+01 0 1 -1
1900 1 2.7349776426797675e+01 2.9485753121275305e+01 1.4406291643980449e+01 0 -1 1
375 2 8.4941605053750067e+00 9.8608733234371169e+00 5.5818355152550554e+00 0 0 0
1668 2 1.0047277688972557e+01 1.6384132544243702e+01 2.1991473881690000e+00 0 0 1
2439 2 1.3749357671332747e+01 6.0924917230371793e+00 8.2626768570940001e+00 0 1 0
1452 2 1.6351420423933508e+01 1.3522746161137221e+01 1.6230161604141156e+01 0 0 0
844 1 1.9499719495778876e+01 1.8918983703598549e+01 2.3074735903057061e+01 0 0 -1
443 2 1.5026328961646570e+01 3.9723649311877214e+00 2.0892608504089010e+00 0 0 0
1637 2 1.3000483622387769e+01 1.4706336120355612e+01 1.6740299656828686e+01 0 0 0
314 2 1.4891611231516981e+01 1.6808976909402588e+01 1.0942519449415865e+01 0 0 -1
2434 1 1.9266587780175918e+01 1.7192967190129423e+01 1.7370770932593143e+01 0 0 0
1548 2 2.2804095966104054e+01 1.1289542546028265e+01 2.3454657537400980e+01 0 1 0
1560 2 1.8433203245384135e+01 1.4650478111482329e+01 2.1980123982433120e+01 0 1 0
824 2 9.5211808055750584e+00 7.9462237258353809e+00 1.9767918486753981e+01 0 1 -1
271 1 1.1897898528004566e+01 1.1667536760987680e+01 1.8537325963909165e+01 0 0 0
2469 2 1.6602941208887628e+01 1.0755499345355091e+01 1.8374642508423438e+01 0 0 1
1657 1 1.8948675641170325e+01 2.6597145036133803e+01 1.8426557029493981e+01 0 -1 0
385 1 2.1231544626276175e+01 3.1072790762321674e+01 1.2936046466197434e+01 0 0 -1
154 1 1.3972096545840643e+01 2.2550599972193526e+00 4.8471368545180740e+00 0 0 0
29 2 1.5795240447629606e+01 2.0341738578501310e+01 1.2616989955167812e+01 0 0 0
1208 2 1.8000432463784829e+01 2.8676102047441230e+01 6.2230252458574649e+00 0 0 0
207 2 1.0217939796920742e+01 8.5464688108688804e+00 1.4600716172935899e+00 0 0 0
1580 2 1.6365849971644053e+01 8.8082604335977059e+00 1.3798424586789942e+01 0 0 0
2437 1 1.3302936102662601e+01 5.2387545229899430e+00 8.4592086410811991e+00 0 1 0
2069 2 2.1213552327598730e+01 2.6294249423584066e+01 1.3507931575286101e+01 0 -1 1
489 2 1.7713975518905123e+01 2.5851888012704336e+01 2.3083211015783185e+01 0 0 -1
2390 2 1.4076942217689190e+01 2.7610094936414946e+01 8.2425894239429756e+00 0 0 0
31 1 1.2204423617041060e+01 2.5774427628448215e+01 5.8734572262817739e+00 0 0 0
158 2 2.6332849385141607e+01 2.8189964784671062e+01 1.8684439688372233e+01 0 -1 -1
2377 1 1.0364349901610767e+01 2.1058334582821061e+01 1.8309654971768177e+00 0 0 0
2557 1 2.1619102340024067e+01 2.4330378480408367e+01 1.7659056562716561e+01 0 0 0
111 2 1.4402763654133235e+01 1.0607288876604256e+01 1.3088667162469873e+01 0 0 0
2492 2 1.3393848332630196e+01 1.9335758455555027e+01 6.2780109596891096e+00 0 0 1
1700 2 1.5534994710538541e+01 1.6379982676560349e+01 2.6094730783179301e+01 0 0 0
2261 2 1.8983165953468340e+01 1.8282209622946869e+01 5.8742871647322161e+00 0 -1 1
2444 2 2.2213943022639004e+01 1.3959022082659676e+01 8.6940904297457102e+00 0 1 0
2412 2 1.1462988633434158e+01 2.6834313759518853e+01 4.4777571132954810e+00 0 0 1
2503 1 2.4435240460623397e+01 1.7737541166162305e+01 2.4526375733442357e+01 0 1 -1
1087 1 1.9639813952153219e+01 2.4138654329717060e+01 2.0768873700310472e+01 0 0 -1
360 2 1.7080004524232766e+01 2.2950337021426606e+01 2.3888529652408685e+01 0 0 0
196 1 1.6464751367875820e+01 2.5444319109206507e+01 1.2175918126656789e+01 0 -1 0
777 2 1.1607120411907353e+01 2.4681557101166799e+01 3.3884173638839856e+00 0 0 0
308 2 1.6433001394628416e+01 1.4563326541534039e+01 2.0045851555787745e+01 0 1 -1
309 2 1.6713736087994025e+01 1.5966117412399523e+01 1.9852254816411076e+01 0 1 -1
150 2 2.4340846449274483e+01 2.2979313752010061e+01 6.4084470680758718e+00 0 -1 -1
1809 2 1.8491238094040305e+01 1.4308485839775217e+01 1.7142986038670223e+01 0 0 0
880 1 1.7048350148098876e+01 1.7707440978374745e+01 2.4155243693375148e+01 0 0 0
315 2 1.4440837541047260e+01 1.8160726993533792e+01 1.0285969773891209e+01 0 0 -1
1647 2 1.3431155025590112e+01 7.6088851068359418e+00 2.0326112555355142e+01 0 0 0
386 2 1.1861674654615351e+01 3.4805214608298352e+00 1.3211061318747433e+01 0 1 -1
461 2 3.1583748245467145e+01 2.6671586333374226e+01 2.4825710401294547e+01 0 0 -1
726 2 5.6197426361213543e+00 6.8513356433255157e-01 2.0125233711236303e+00 0 0 1
1451 2 1.4962921844426845e+01 1.3084264343130727e+01 1.6751500169409674e+01 0 0 0