LAMMPS data file via write_data, version 15 Apr 2020, timestep = 0

6144 atoms
2 atom types

-1.3551256038647814e+00 6.1323414735049361e+01 xlo xhi
0.0000000000000000e+00 2.8042064321032285e+01 ylo yhi
0.0000000000000000e+00 2.7103964041774049e+01 zlo zhi
1.0153987749871007e+01 1.0178129065408839e+01 7.1102044244216387e+00 xy xz yz

Masses

1 16
2 2

Atoms # atomic

1595 2 1.8681386860191079e+01 2.2257233273074537e+01 1.9141500718276053e+01 0 0 0
1604 2 1.6804841318731278e+01 1.9293487049227586e+01 2.4257742927431710e+01 0 0 0
943 1 5.2913469062409906e+00 1.3373181817866229e+01 2.2163441267971775e+00 0 1 0
987 2 1.3990494650141013e+01 9.9760130869969750e+00 2.1359711606402332e+01 0 0 0
225 2 1.2394766630068283e+01 5.7150486831764855e+00 4.8045387810528508e+00 0 0 0
52 1 1.3997461537781033e+01 2.4664971261955458e+01 1.0733427717298769e+01 0 -1 0
25 1 1.2095413234610518e+01 1.4549473368099164e+01 8.5648899538878833e+00 0 0 -1
1625 2 1.4044076030148336e+01 1.8850475540135569e+01 1.8683807125309059e+01 0 0 0
2464 1 1.3032863423284011e+01 1.6558444868765939e+01 4.2049379379696488e+00 0 1 0
886 1 1.7279907223530056e+01 2.2431207628596809e+01 2.0239506662928232e+01 0 1 -1
1633 1 1.4920154880227738e+01 1.3523489252754189e+01 2.2296026068390731e+01 0 0 0
849 2 1.6947987249161272e+01 1.7895406210141960e+01 9.3080556792847009e+00 0 0 -1
2443 1 1.2527777062431078e+01 1.6842665435040196e+01 6.8540166839455372e+00 0 1 0
358 1 1.7464893970860384e+01 2.5607682722763702e+01 2.3105778292088100e+01 0 0 0
2466 2 1.3052058721335381e+01 1.6700900744543191e+01 5.2146605593572497e+00 0 1 0
1895 2 9.7486760861841333e+00 1.2196695253263643e+01 7.1843077759591409e+00 0 0 1
1670 2 6.9858248798902789e+00 6.2982166525460617e+00 5.5112971758478038e+00 0 0 0
1634 2 1.5763075920944818e+01 1.3994572595226959e+01 2.2455652772238775e+01 0 0 0
1064 2 2.1074496323749010e+01 3.0030360410408989e+01 2.0328821708523197e+01 0 0 -1
1894 1 9.5014070656124439e+00 1.2926804284915978e+01 7.7783979230284803e+00 0 0 1
1740 2 6.8706259830618155e+00 1.5130911982267961e+01 2.8498681335272519e-01 0 0 1
1916 2 1.6360911020759662e+01 2.8027899435970582e+01 1.5744356477969070e+01 0 0 0
611 2 1.8401255231114945e+01 3.1031095669647037e+01 1.1496443879753174e+01 0 0 0
1709 2 8.8402116114671667e+00 6.3572143633569560e+00 1.7500153631377920e+01 0 0 0
487 1 1.7006362888363004e+01 2.7433100624617197e+01 2.5117479353574222e+01 0 0 -1
53 2 1.3174527367791459e+01 2.4219996079521160e+01 1.0995259284751373e+01 0 -1 0
1587 2 1.3857339274548478e+01 1.1455141787243530e+01 1.1436670450650663e+01 0 0 0
1586 2 1.3776951030433565e+01 1.1006980940493685e+01 9.9595268962543475e+00 0 0 0
1675 1 1.1545250330433426e+01 1.6175739536704853e+01 1.5003278090464249e+01 0 0 0
2564 2 8.7234571744223146e+00 1.2979459758353249e+01 8.0490270735520653e-01 0 1 0
416 2 1.2473902911347237e+01 1.6551591016126530e+01 1.8453195385840395e+01 0 0 0
1871 2 1.5578868179428024e+01 2.5848991792187881e+01 2.0273518579687586e+01 0 0 0
610 1 1.8231400228845715e+01 3.0952383213746863e+01 1.2495542513726841e+01 0 0 0
1275 2 5.6897787484987115e+00 7.1532149675485250e+00 1.3405167471981541e+00 0 0 0
2330 2 1.1017795642834054e+01 2.1435021133035910e+01 6.9182696572119076e+00 0 0 0
2450 2 1.5059080787172615e+01 2.3713731169491737e+01 2.2840579907636929e+01 0 0 0
1708 1 8.4172969231128683e+00 5.5460823967294548e+00 1.7795907404606695e+01 0 0 0
27 2 1.2389222578501435e+01 1.4693064864347345e+01 9.4518625117364525e+00 0 0 -1
907 1 2.0447350446250834e+01 2.6569701141806370e+01 2.2293478037862162e+01 0 0 -1
99 2 1.6681189484808090e+01 7.1195487470299943e+00 6.3136071291708875e+00 0 0 0
1561 1 1.1239230097803841e+01 1.7492233629310107e+01 1.7429275132645802e+01 0 0 0
1901 2 2.3736904225170150e+00 1.7259704674880916e+00 3.0273197534459656e-01 0 0 1
174 2 1.8916319853789684e+01 8.6181435119589196e+00 1.9579951944890556e+01 0 0 -1
1521 2 1.8497257417796540e+01 1.6117252331867729e+01 5.8123070463264641e+00 0 0 0
924 2 1.9339262365664119e+01 1.7414669208893798e+01 8.7382971188116141e+00 0 0 0
104 2 7.1608862505312434e+00 1.1307728607150974e+01 9.1989590586440038e+00 0 0 0
224 2 1.1140328037011749e+01 5.9086590545890321e+00 5.8274972123230278e+00 0 0 0
1781 2 1.0481989095249864e+01 1.0534808455751389e+01 1.3844874007696562e+01 0 0 0
1710 2 8.7984265800364891e+00 5.4223491558491483e+00 1.8705875473194805e+01 0 0 0
1689 2 7.7629230136227587e+00 8.8908096104357917e+00 1.2312705815808274e+01 0 0 0
1705 1 1.4677629967692805e+01 1.4430937812423483e+01 1.6934528617286897e+01 0 0 -1
1773 2 2.0315465764443161e+01 3.3111175171574224e+01 2.6095358302545595e+01 0 0 -1
101 2 6.3818698464929762e+00 8.5102189763727996e+00 8.3088087633963532e+00 0 0 0
1570 1 1.2849864246368988e+01 1.2684058435428966e+01 1.2601651677469203e+01 0 0 1
2314 1 1.8936097968167910e+01 2.0169291670203812e+01 8.6456623661471728e+00 0 0 1
1129 1 1.1756357211289892e+01 1.2222221907796548e+01 2.1528959224469915e+01 0 0 -1
2360 2 1.0376912256806683e+01 1.2495648879521418e+01 1.0077143983767668e+01 0 0 0
1635 2 1.5074359185443292e+01 1.2799058787333202e+01 2.2972841843502678e+01 0 0 0
1017 2 7.8617862894641029e+00 4.3780421113450680e+00 9.7156385309072615e+00 0 1 -1
78 2 9.8586185484486908e+00 2.5820039382875080e+01 1.9028025691407817e+00 0 -1 0
821 2 1.1044905827968226e+01 2.1659830169587028e+01 2.9778873074069758e+00 0 0 0
1059 2 1.1939362601947565e+01 2.7010134630026499e+01 1.0855352188640870e+00 0 0 0
896 2 1.7940289943403467e+01 2.8026683006042951e+01 2.0973731899790700e+01 0 0 -1
868 1 8.5316248915926387e+00 1.5430166663680117e+01 7.2581125912500033e+00 0 0 0
944 2 5.9902172085987235e+00 1.4019303918550623e+01 2.3598901576963041e+00 0 1 0
1571 2 1.2684654344101508e+01 1.2498179079419931e+01 1.3541679667893337e+01 0 0 1
1659 2 1.7669409003441594e+01 2.8774985943062209e+01 1.7746669101976995e+01 0 -1 0
894 2 1.3562847138012387e+01 1.9938701116415071e+01 1.3413248162006935e+01 0 0 0
2589 2 1.7397569089811132e+01 7.6814612104811202e+00 8.2940186589270883e+00 0 1 0
1274 2 6.1362060844767301e+00 7.3232607924884858e+00 2.8254776811538869e+00 0 0 0
1620 2 7.0793247688855949e+00 1.7993954631729970e+01 6.3258184532000712e+00 0 0 1
1669 1 6.6917155847415550e+00 7.2001568164019352e+00 5.1927310233088280e+00 0 0 0
1063 1 2.0696824336133385e+01 3.0453206906837206e+01 1.9520831529499695e+01 0 0 -1
1671 2 7.3658630633562332e+00 7.4783556651682410e+00 4.5448945477317961e+00 0 0 0
1791 2 4.8845097747701374e+00 7.2238163767663135e+00 4.9377246530102985e+00 0 0 1
1001 2 8.9003907431635270e+00 1.5647308266718024e+01 4.0796007904835196e+00 0 0 0
846 2 1.4607666651186538e+01 1.5563725354876350e+01 2.3937345825163185e+01 0 0 -1
359 2 1.7529766684481299e+01 2.6241623746378593e+01 2.3787897378268976e+01 0 0 0
1739 2 1.7292150562357328e+01 2.2261515078878393e+01 2.5810680144865842e+01 0 0 0
822 2 1.2240471727990805e+01 2.0961422012635609e+01 2.4109915264556872e+00 0 0 0
2471 2 2.0613564843206159e+01 9.4442530337959401e+00 2.0790203772265421e+01 0 1 0
114 2 1.6945327248914577e+01 3.0972136544452709e+01 2.0887258395402434e+01 0 -1 0
887 2 1.6543587990506897e+01 2.2718465942795451e+01 1.9688338013575340e+01 0 1 -1
2465 2 1.2307292281616943e+01 1.7149699377034821e+01 3.9377098601927472e+00 0 1 0
54 2 1.4769088781273371e+01 2.4056906966368857e+01 1.0629295534262001e+01 0 -1 0
102 2 6.1538444767554337e+00 7.9289255861628796e+00 6.8744202310651321e+00 0 0 0
223 1 1.2112049265225638e+01 5.8058116762128886e+00 5.7435055049451682e+00 0 0 0
1917 2 1.6434114474092915e+01 2.8075158002692010e+01 1.4229608120690131e+01 0 0 0
353 2 1.3795553472190203e+01 7.9200370503464583e+00 8.4529820454977482e+00 0 0 0
2407 1 9.5041832812201452e+00 1.6908884001459345e+01 9.3404054752511332e+00 0 0 0
1687 1 7.7577269733884009e+00 9.4095566715204875e+00 1.1446989846391492e+01 0 0 0
986 2 1.4182139818821614e+01 1.0240711268806290e+01 1.9921570407528751e+01 0 0 0
1706 2 1.4924097104957550e+01 1.5065365496406521e+01 1.6282436003953539e+01 0 0 -1
1703 2 1.0036225346611559e+01 1.3362069642884148e+01 1.4854042733768608e+01 0 0 0
1374 2 2.8477715235352360e+01 2.2742693880551538e+01 2.5726483792692878e+01 0 0 -1
1688 2 7.8753430757468976e+00 1.0384698898255021e+01 1.1680096833295167e+01 0 0 0
1002 2 1.0016873653009419e+01 1.4814229664348410e+01 4.6931783912474367e+00 0 0 0
1734 2 1.6661804925162866e+00 4.9530996451486660e+00 1.9050247191076857e+00 0 1 0
922 1 2.0183197488478822e+01 1.7263957099864307e+01 8.2385426884013668e+00 0 0 0
2409 2 1.0463533686788860e+01 1.7205178485596690e+01 9.3871344164731347e+00 0 0 0
845 2 1.3920581907556464e+01 1.6133627891319797e+01 2.5263110098077252e+01 0 0 -1
1563 2 1.1256250103117800e+01 1.7060699306888047e+01 1.6568375636552688e+01 0 0 0
908 2 2.0538478645965480e+01 2.6778522877569927e+01 2.3264191831537811e+01 0 0 -1
893 2 1.3767191937985810e+01 1.9725613949985320e+01 1.1913032812232638e+01 0 0 0
28 1 1.9415950468684290e+01 2.4275615961134463e+01 1.6645450728690715e+01 0 0 0
2652 2 2.6086027225691996e+01 2.3615364483280775e+01 2.4392389508169369e+01 0 0 0
870 2 8.8942334142270596e+00 1.5597230949679618e+01 6.3617619575117308e+00 0 0 0
300 2 1.3831810013068418e+01 1.9711085917868434e+01 7.2273996408894066e+00 0 0 0
1585 1 1.4356937150616623e+01 1.1420465745522588e+01 1.0636481486113432e+01 0 0 0
2414 2 1.4470148602489363e+01 2.0340903584111309e+01 1.5600423144477642e+01 0 0 1
2436 2 2.4004041231681914e+01 2.2832826710785142e+01 1.2016513180371760e+01 0 0 0
2441 2 1.7365910238706029e+01 1.9995545013976486e+01 1.3893771589916303e+01 0 0 1
847 1 1.7854224244564755e+01 1.7790817150227710e+01 9.6324960885928164e+00 0 0 -1
1562 2 1.0513480318886440e+01 1.6982312731361926e+01 1.7832197779978220e+01 0 0 0
1015 1 8.0791627386168621e+00 3.4394451920624380e+00 9.7002381154221151e+00 0 1 -1
1738 1 1.6550719869713934e+01 2.2150923882374862e+01 2.6489709815136326e+01 0 0 0
949 1 2.1719008748709559e+01 2.1415847525568907e+01 1.4541893108697929e+01 0 -1 0
30 2 1.8767190440237705e+01 2.4771487056368940e+01 1.7194212433942372e+01 0 0 0
2389 1 1.0982647531464586e+01 2.7578057200815966e+01 7.9978549658564617e+00 0 0 0
2388 2 4.1946832634674536e+00 3.7524079432758999e+00 1.3948219967339636e+01 0 1 0
1137 2 1.0505156989087897e+01 1.2693259926226009e+01 2.4129998723798995e+01 0 1 -1
2440 1 1.7478765728752467e+01 1.9063478561976417e+01 1.3669193351863777e+01 0 0 1
98 2 1.6111036267148460e+01 5.7792905422051133e+00 6.0358102769576183e+00 0 0 0
2408 2 9.2289137338333163e+00 1.6817258328242737e+01 8.4160822985714603e+00 0 0 0
369 2 1.5606045875582684e+01 1.3655729652773955e+01 1.2223723652496899e+01 0 0 -1
1065 2 2.1299034194309908e+01 3.1193949700928250e+01 1.9345364827492197e+01 0 0 -1
1130 2 1.1123053433258754e+01 1.1715186526638853e+01 2.0951199332727647e+01 0 0 -1
2355 2 2.1621308193836708e+01 2.9326601277748995e+01 2.2482757860463696e+01 0 0 0
962 2 2.4871732548208673e+01 2.9203829915286143e+01 2.3017154432652404e+01 0 0 -1
888 2 1.7177770553706917e+01 2.1483035287421153e+01 2.0367463737864558e+01 0 1 -1
1135 1 1.1165194875394242e+01 1.3432802965342573e+01 2.3976245116163842e+01 0 1 -1
299 2 1.3689946116215067e+01 1.8175614335559466e+01 7.3278705091470622e+00 0 0 0
626 2 1.1374161494585900e+01 7.1528618284147054e+00 3.1037254783518162e+00 0 0 0
873 2 1.2295898061915674e+01 1.2137151971648720e+01 1.5790966439932056e+01 0 0 0
105 2 7.8911738701633478e+00 1.2183402088689865e+01 1.0310672599997627e+01 0 0 0
2311 1 2.1437596995754429e+01 1.3497094068922308e+01 2.6563377379344555e+01 0 1 -1
1515 2 9.4096808904582137e+00 1.7847990560308414e+01 3.0509351869021515e+00 0 0 0
1896 2 8.9315668153950689e+00 1.2507119640710027e+01 8.5127424896647632e+00 0 0 1
1546 1 1.3080610091446273e+01 1.3282406465160946e+01 2.5842942493628374e+01 0 1 0
984 2 1.6391319765001349e+01 7.2148893537711469e+00 1.7019424420604526e+01 0 1 -1
588 2 8.9009029133830246e+00 9.1581450502986215e+00 6.5060743234348060e+00 0 0 0
909 2 1.9942069562458702e+01 2.7326678820101971e+01 2.1944074261053800e+01 0 0 -1
2668 1 2.2847570602384156e+01 2.4334820427701398e+01 1.4612648287735013e+01 0 0 0
2354 2 2.2221007862663395e+01 2.8319683400633121e+01 2.1541282115515056e+01 0 0 0
219 2 1.0623430159450482e+01 2.3788257913769819e+01 9.3769719649376206e+00 0 -1 0
435 2 1.8623884941491884e+01 1.1930742399912305e+01 1.6768283889378594e+01 0 0 -1
1273 1 5.3298900902698234e+00 7.2910313179169872e+00 2.2192465302854587e+00 0 0 0
1132 1 1.0110196940150585e+01 1.9493328084259143e+00 5.9099956302711574e+00 0 1 0
1780 1 9.9486360165517276e+00 1.1351160453566481e+01 1.4010024171365391e+01 0 0 0
898 1 1.4359756998003498e+01 2.6056804625727835e+01 1.7411894414166259e+01 0 0 0
1514 2 7.9952193825634694e+00 1.8161529925408111e+01 3.6755476899241764e+00 0 0 0
2596 1 1.3878992775228708e+01 1.8883916644275502e+01 2.3402680311548046e+01 0 0 0
352 1 1.3941422341982122e+01 7.8747513080246563e+00 9.4458115333172490e+00 0 0 0
961 1 2.4631316780822441e+01 3.0044169732914938e+01 2.2640886086830509e+01 0 0 -1
885 2 1.5024056611359949e+01 4.1739820657528783e+00 1.5115467387108518e+01 0 1 -1
206 2 2.2424167516179278e+01 1.2493847622423672e+01 1.9782145594128647e+01 0 0 -1
2316 2 1.9284606178521376e+01 2.0708941095882828e+01 7.9222181352341599e+00 0 0 1
2431 1 1.5128897013601978e+01 2.9056828825318114e+01 1.9252705909519960e+01 0 0 0
818 2 1.0051228730223194e+01 5.7072631988094269e+00 2.0588612772382248e+01 0 1 -1
775 1 1.2960032440522594e+01 2.0413356650798075e+01 5.2896310218165574e+00 0 0 0
1603 1 1.6782901527963435e+01 1.8482201902075289e+01 2.4818671839833808e+01 0 0 0
737 2 1.7718397617725241e+01 5.5888307715028152e+00 8.7805477712969395e+00 0 0 0
1605 2 1.7094229164135601e+01 1.8721743852602906e+01 2.5674320635439450e+01 0 0 0
343 1 3.3310887054193019e+00 1.1575056342430820e+01 9.2052163196785008e-01 0 0 0
752 2 1.2140019521188940e+01 2.0127511837699515e+01 1.9602427368835805e+01 0 0 0
100 1 5.6854950404364590e+00 8.1935728212885230e+00 7.7120728230489757e+00 0 0 0
1877 2 1.1792877422222665e+01 7.2258874592866515e+00 2.1147067435086445e+01 0 0 0
2669 2 2.2119907617387515e+01 2.3949138546423843e+01 1.5083914481525643e+01 0 0 0
2323 1 7.5312340583693889e+00 1.8544728181229150e+01 1.5047528184373982e-03 0 1 1
635 2 2.6225831015274050e+01 2.5978284000025219e+01 1.7970819925915155e+01 0 0 0
1016 2 9.0493346136527499e+00 3.4056155697477637e+00 9.5404352210799033e+00 0 1 -1
2283 2 9.2295022503375215e+00 1.8514130956792311e+01 5.9867017734393322e+00 0 -1 0
995 2 5.0019699054975915e+00 8.9983358282581190e+00 2.5707514268780423e+00 0 1 0
97 1 1.6009304765082984e+01 6.6881467693583847e+00 5.8024563673812928e+00 0 0 0
2361 2 1.1619224793972741e+01 1.1661092990999474e+01 9.7660408357668320e+00 0 0 0
2391 2 1.1827521714679019e+01 2.7309045774946775e+01 8.4158145837273413e+00 0 0 0
1513 1 8.4665997077297863e+00 1.7557898276345476e+01 3.0984906594743613e+00 0 0 0
1078 1 1.6766744743948177e+01 2.5442310741002906e+01 1.5831278343591862e+01 0 0 0
963 2 2.3779681704753603e+01 2.9897284966634210e+01 2.2230718861208466e+01 0 0 -1
1547 2 1.2439198382305275e+01 1.3201563226497445e+01 2.5059149329010936e+01 0 1 0
2353 1 2.2099290251385693e+01 2.9260741786680477e+01 2.1607959116981462e+01 0 0 0
917 2 5.5331322214444620e+00 4.5080943957025656e+00 1.1796707267855309e+00 0 1 0
417 2 1.3962414939161206e+01 1.6789596475744130e+01 1.8771121747953195e+01 0 0 0
985 1 1.4623399867856806e+01 9.7537522078359054e+00 2.0623872445608679e+01 0 0 0
1884 2 1.1181114194943632e+01 1.7716552243100772e+01 1.1869984893681790e+01 0 0 0
2538 2 2.5537469673212520e+01 2.6543916294631199e+01 1.3004255138370421e+01 0 0 1
298 1 1.4203239394424298e+01 1.8921007765272368e+01 7.6147271586938698e+00 0 0 0
1707 2 1.4249840225436314e+01 1.4995164602637736e+01 1.7628146075296225e+01 0 0 -1
1702 1 9.7159928211837006e+00 1.4175820382015889e+01 1.5242025481158457e+01 0 0 0
612 2 1.8559475804569786e+01 3.0111205064769447e+01 1.2780834578652890e+01 0 0 0
1493 2 2.8413056766683436e+01 3.1269354383986503e+01 1.3400439705207072e+01 0 0 0
1079 2 1.7555578119522423e+01 2.5883517524784644e+01 1.5433486610761527e+01 0 0 0
883 1 2.4696460957141053e+01 3.1526652578310003e+01 1.4588419581465734e+01 0 0 -1
2442 2 1.8026890263620839e+01 1.9108170232306158e+01 1.2850022967491919e+01 0 0 1
1915 1 1.5906271689714163e+01 2.8400061234219216e+01 1.4977415176040385e+01 0 0 0
2451 2 1.6529455562453226e+01 2.3796686102691567e+01 2.3541373241211133e+01 0 0 0
2315 2 1.8260933166127458e+01 1.9616849726145716e+01 8.2658630089041356e+00 0 0 1
1006 1 2.5946697029240603e+01 2.9331725550432417e+01 1.3983523765125197e+01 0 0 0
983 2 1.7418409675656704e+01 8.3422442882449381e+00 1.6693925459084145e+01 0 1 -1
923 2 2.0241957287592921e+01 1.6279204664201441e+01 8.1476078407351142e+00 0 0 0
2572 1 1.4476374595448620e+01 1.6507987916862380e+01 2.2269759782038296e+01 0 0 0
354 2 1.3060183296928837e+01 7.9517434215532923e+00 9.8446983074015524e+00 0 0 0
156 2 1.8473770788920969e+01 2.7924051190358824e+01 7.2710357271695472e+00 0 -1 0
1589 2 9.5927349562030440e+00 2.3535566520339355e+01 4.4471235567490623e+00 0 -1 1
1616 2 1.4964146652018332e+01 2.2085379913708792e+01 1.4144242658042048e+01 0 -1 0
1050 2 1.0741539103409284e+01 1.9444722176434443e+01 7.0358462274363607e+00 0 0 0
1081 1 2.0758842483198439e+01 1.4414146572483940e+01 2.2646401518385581e+01 0 0 -1
1594 1 1.9224634348469099e+01 2.1935415769814618e+01 1.8415711908672360e+01 0 0 0
2445 2 1.2371932328486455e+01 1.5990059183161859e+01 7.2910762701778848e+00 0 1 0
1588 1 1.0456526344944768e+01 2.3260969483385217e+01 4.2957085058318611e+00 0 -1 1
1150 1 1.8041052234471049e+01 1.7530907543497442e+01 1.8230947029012722e+01 0 0 0
1841 2 7.6549132238670872e+00 9.0184513933264174e+00 3.5256606755999078e+00 0 0 1
313 1 1.5910371196476220e+01 1.9078393751858442e+01 1.6407568678755730e+01 0 0 -1
1118 2 2.5665916454743911e+01 2.7294961067432212e+01 2.4168846905820349e+01 0 0 -1
1872 2 1.4969770737226838e+01 2.5318229590267663e+01 1.8881851092809057e+01 0 0 0
2613 2 2.0002083613923464e+01 2.4079935389599793e+01 1.3378326592738125e+01 0 0 1
1133 2 1.0677613946466241e+01 2.5626752369325212e+00 6.4704762085751319e+00 0 1 0
1762 1 1.6015019561778221e+01 9.1688649133070612e+00 1.0254561007252562e+01 0 0 0
2556 2 2.0491050017478035e+01 2.0454727389076911e+01 2.1014104258838682e+01 0 0 0
1715 2 1.0276700792732807e+01 8.1348719887128720e+00 2.3141151252202768e+01 0 0 0
1870 1 1.5439406097609485e+01 2.5044362947296630e+01 1.9692412375837719e+01 0 0 0
1662 2 7.6943351307260563e+00 1.6111332024023604e+01 2.2502248428189700e+00 0 -1 1
1136 2 1.1401540204322743e+01 1.3206937209748215e+01 2.3068903873442153e+01 0 1 -1
1736 2 1.4400125342348197e+01 1.4593424816034574e+01 1.0639230059926927e+01 0 0 0
376 1 2.1553235181816241e+01 3.2598126413201570e+01 1.7429908159125638e+01 0 -1 0
1109 2 1.1087374123923958e+01 8.8748720473431728e+00 1.1819162480670125e+01 0 0 0
372 2 1.2383664152892706e+01 8.7762377473467730e+00 2.2638461757858014e+01 0 0 0
333 2 1.6855646088524008e+01 3.1330994211663910e+01 1.3407565165688130e+01 0 0 0
2555 2 1.9604268333497604e+01 2.0967175801672546e+01 2.2047252474561898e+01 0 0 0
374 2 9.1189690561106964e+00 5.8694749678624119e+00 4.8082508248719407e+00 0 0 0
1801 1 1.7819471061763263e+01 2.0726801074474267e+01 1.6660323799513122e+01 0 -1 0
442 1 1.3542247547421626e+01 7.6818948762612740e+00 6.7821849790623059e+00 0 0 0
2601 2 2.1804318166420344e+01 2.0111447035101442e+01 9.3576812831487732e+00 0 0 0
2600 2 2.0750233088218081e+01 1.9706933780048519e+01 8.3587946865013887e+00 0 0 0
188 2 1.7234858341860427e+01 2.4510639452254392e+01 1.0522538037007472e+01 0 0 0
2444 2 1.1695946240770951e+01 1.7262762531295827e+01 6.7672638302895072e+00 0 1 0
334 1 1.4051835325419280e+01 2.0763208310106645e+01 2.1502748798514283e+01 0 0 0
2642 2 5.7766055180638833e+00 2.2910151163509944e+00 6.9339605926960859e+00 0 0 1
2307 2 2.1489886231147448e+01 2.7156117735650444e+01 4.0570007999414432e+00 0 -1 0
1119 2 2.5588931306264950e+01 2.6708040150259755e+01 2.2784248189713324e+01 0 0 -1
1088 2 2.3017851482851622e+01 2.5399391388956296e+01 2.3753309940553205e+01 0 0 -1
202 1 5.6000229744301402e+00 5.8015209504048713e+00 1.6864881326246213e+01 0 1 0
269 2 1.6936232117677378e+01 1.9333146824942684e+01 2.0677664332594052e+01 0 -1 -1
2306 2 2.1326896282435996e+01 2.5880832271404536e+01 3.1746026468383648e+00 0 -1 0
198 2 1.8156685579535939e+01 2.6498417627630953e+01 1.0152849776584546e+01 0 -1 0
1089 2 2.3598264977586499e+01 2.6868499301572431e+01 2.3923436641141276e+01 0 0 -1
2468 2 9.1355702984973917e+00 1.2612746687875820e+01 3.0076155933157676e+00 0 0 1
2570 2 1.9592769814087028e+01 2.7493712973867510e+01 9.1194972706752129e+00 0 0 0
776 2 1.3244203908902035e+01 2.1297673924992505e+01 5.6676622919145814e+00 0 0 0
830 2 1.4659377837288101e+01 2.5950776657838315e+01 1.3388983880890148e+01 0 0 0
1658 2 1.7464394882312657e+01 2.7172992652461932e+01 1.7675000584770185e+01 0 -1 0
1103 2 3.7058517497236654e+00 3.1966560989479844e+00 6.9112530235106426e-02 0 1 0
2604 2 1.7663934904095054e+01 1.7204912722051013e+01 2.4104001429719414e+01 0 1 0
2397 2 1.4801852085281570e+01 2.9924817295340862e+01 9.9513449484224950e+00 0 0 0
1134 2 1.9541007146164638e+01 2.9680798543245782e+01 6.4059932609108365e+00 0 0 0
2644 1 1.3337021393661928e+01 6.3951895322165324e+00 1.7689556555142143e+01 0 0 0
1127 2 2.8287392282210082e+01 2.2028546371678644e+01 2.2101629971774305e+01 0 0 -1
332 2 1.6117124820448229e+01 3.0329977968601344e+01 1.4471964412787582e+01 0 0 0
1735 1 1.5187237055107662e+01 1.4036262138447194e+01 1.0651580874970378e+01 0 0 0
2646 2 1.2675828075419764e+01 5.6794359822092559e+00 1.7621411467779620e+01 0 0 0
2413 1 1.4059870104363100e+01 2.0758373052614797e+01 1.4748607932796693e+01 0 0 1
895 1 1.8819733825476053e+01 2.8511285611603579e+01 2.1103205657150667e+01 0 0 -1
2603 2 1.8876432656189280e+01 1.6298967975349594e+01 2.4522516393454222e+01 0 1 0
2554 1 2.0181094470500323e+01 2.0188593888799339e+01 2.1897627016684201e+01 0 0 0
2629 1 1.1439961193295749e+01 7.6204857768315897e+00 1.0529489875062954e+01 0 0 0
2305 1 2.0961543705499018e+01 2.6760484062866894e+01 3.3040691255555541e+00 0 -1 0
443 2 1.4433963623858844e+01 7.5157681731531838e+00 6.4197283562164351e+00 0 0 0
633 2 9.0344588611537304e+00 1.4732251040115056e+01 1.3781730737633406e+01 0 0 0
2626 1 1.4061548836740998e+01 2.3771159175224518e+01 2.1592798620721265e+01 0 0 0
994 1 4.8459831141988055e+00 9.9747083435563102e+00 2.5735617041636347e+00 0 1 0
2641 1 6.5650025361948785e+00 2.6077925703416236e+00 6.4177749377369606e+00 0 0 1
897 2 1.9441195971243534e+01 2.8144330306154348e+01 2.0416466005296854e+01 0 0 -1
318 2 1.3333523045508368e+01 2.4051717659941659e+01 1.4025568018686592e+00 0 -1 0
725 2 5.5826931504724717e+00 1.1425695719541804e+00 4.2273159533778264e+00 0 0 1
2456 2 1.4681946438439763e+01 2.0176984360346093e+01 4.3708254728083142e+00 0 0 1
1672 1 1.6138368240418128e+01 2.5694908335839344e+01 4.1956539384786886e+00 0 -1 0
1617 2 1.4893322971602334e+01 2.3629683367191220e+01 1.4062863060283284e+01 0 -1 0
1117 1 2.5156556382668047e+01 2.7397687678034515e+01 2.3373356034888250e+01 0 0 -1
1737 2 1.4902566571527682e+01 1.3114144040608942e+01 1.0487763431513372e+01 0 0 0
1909 1 1.5073336063387504e+01 1.1050893117346256e+01 1.4345203062705705e+01 0 0 0
1682 2 6.9334249434239403e+00 4.1703493710483741e+00 6.6124183020886651e+00 0 0 0
368 2 1.6721366500133485e+01 1.2693886501281979e+01 1.2632360760684607e+01 0 0 -1
197 2 1.7386230925217571e+01 2.6647313030727158e+01 1.1564860169529949e+01 0 -1 0
759 2 1.9262325768794330e+01 2.6777938833527365e+01 3.7702486832376465e+00 0 -1 0
2576 2 1.3465909217569802e+01 2.9536548047827406e+01 6.9966774980167914e+00 0 0 0
444 2 1.2928432885539770e+01 6.9972244213394816e+00 6.5156694057717779e+00 0 0 0
2513 2 1.7311724712543157e+01 2.5385547088602213e+01 1.9350457510322755e+01 0 0 0
335 2 1.4008790529211733e+01 2.1708133737855189e+01 2.1723670578453675e+01 0 0 0
1681 1 7.2887453250322700e+00 5.0898636635181056e+00 6.8535385087970715e+00 0 0 0
2467 1 9.2498900524753385e+00 1.1885722434254856e+01 3.6324617604806253e+00 0 0 1
1596 2 1.8644590169945022e+01 2.1346948980426980e+01 1.7888718938338933e+01 0 0 0
1621 1 1.1444071423018244e+01 1.1052742906751131e+01 1.7030505916868769e+01 0 0 -1
1622 2 1.1910236445441209e+01 1.1227561998520951e+01 1.7832488028564214e+01 0 0 -1
1151 2 1.7558222215009994e+01 1.7515732873704248e+01 1.7359465086441539e+01 0 0 0
1691 2 1.2989449339696115e+01 2.5628137265342787e+01 3.2184211773588154e+00 0 -1 1
316 1 1.2618018328814573e+01 2.3906815646156989e+01 7.6797923378234656e-01 0 -1 0
2612 2 1.9475329711668675e+01 2.3783237227016517e+01 1.4901106042797617e+01 0 0 1
2491 1 1.1055332131096270e+01 1.8138903299874436e+01 3.1298328322458651e+00 0 0 1
2497 1 2.4753947831032473e+01 2.3930460568507186e+01 9.1557543982137961e+00 0 0 0
1110 2 1.1060661601220051e+01 1.0347434700265278e+01 1.1627283341795509e+01 0 0 0
1876 1 1.1350911492684457e+01 6.6819662987793622e+00 2.0409899595354108e+01 0 0 0
2563 1 9.1599828528900673e+00 1.3523303135791751e+01 1.5131634890587793e+00 0 1 0
2630 2 1.0587440738732109e+01 7.6594383513974886e+00 9.9074562512079716e+00 0 0 0
216 2 1.8239799125607806e+01 2.2527566240110115e+01 1.3754499079332312e+01 0 0 0
819 2 1.9185779660833887e+01 3.2451705363723519e+01 2.0808189493160668e+01 0 0 -1
373 1 9.4659667765363125e+00 6.0675641999951493e+00 5.6857249841232047e+00 0 0 0
1049 2 1.0604960110436442e+01 2.0117180100602027e+01 8.5312151328280272e+00 0 0 0
2512 1 1.8085932875808677e+01 2.5355830963445310e+01 1.8775586573909194e+01 0 0 0
214 1 1.7541462771122223e+01 2.2060905650598681e+01 1.3262651489159454e+01 0 0 0
1900 1 1.2616659706955318e+01 8.9440045275992794e+00 2.6418957088619084e+01 0 0 0
375 2 8.9487193709486910e+00 5.5170941371400595e+00 6.3351000349508162e+00 0 0 0
1668 2 6.3701055150274364e+00 1.2331186727010257e+01 9.9672823537864352e-01 0 0 1
2439 2 6.4513847117310084e+00 1.0907880301019132e+01 4.7230449129430436e+00 0 1 0
189 2 1.6933588188023421e+01 2.3063492343299750e+01 1.0094079506209559e+01 0 0 0
844 1 1.4505607432024201e+01 1.5472552345841819e+01 2.4922492424713429e+01 0 0 -1
187 1 1.6547965836709714e+01 2.3969032344301162e+01 1.0127234892332313e+01 0 0 0
1637 2 8.3489845790898372e+00 1.1883023911875519e+01 1.6924704304874076e+01 0 0 0
314 2 1.6050831134271082e+01 1.8325782999407171e+01 1.5846631622648513e+01 0 0 -1
2602 1 1.8395582269796659e+01 1.6631171483648334e+01 2.3695606208043241e+01 0 1 0
1548 2 1.3715246401440984e+01 1.3958293164843521e+01 2.5591716876795410e+01 0 1 0
1560 2 6.1116134049833590e+00 7.2973839448552746e-01 1.1695278189716263e+00 0 1 1
22 1 2.1965359074554193e+01 2.0547963884255982e+01 2.8752163138215718e+00 0 0 0
271 1 1.0100137610275620e+01 1.0772152063489711e+01 2.0157247061760721e+01 0 0 0
2469 2 9.8389129317156829e+00 1.1278830583525268e+01 3.1119792458632696e+00 0 0 1
1657 1 1.7087116077977395e+01 2.8032255862547181e+01 1.7425952256446742e+01 0 -1 0
385 1 1.1743640378857375e+01 1.4033780850457134e+01 1.0319778589431601e+00 0 0 0
154 1 1.8379531277561355e+01 2.8387237140032525e+01 6.4063147136904712e+00 0 -1 0
29 2 1.9486184101763243e+01 2.3503982184898433e+01 1.7207064371600321e+01 0 0 0
1152 2 1.7839972147072878e+01 1.6786853383130293e+01 1.8701734934480591e+01 0 0 0
625 1 1.0729647140861385e+01 7.8484678750051078e+00 3.3818802557138814e+00 0 0 0
1878 2 1.0918025478546747e+01 7.3516767023295682e+00 1.9788753334805953e+01 0 0 0
2437 1 6.9789914258253773e+00 1.0592194281418747e+01 3.9966138283904269e+00 0 1 0
1615 1 1.5119771450585212e+01 2.2824358450082762e+01 1.3510259624858966e+01 0 -1 0
920 2 2.4547039203838931e+01 2.1790142446681159e+01 2.0844881246117730e+01 0 0 -1
284 2 1.6507374091679775e+01 6.3440908310206456e+00 1.9976810988271108e+01 0 1 -1
871 1 1.2847987907598467e+01 1.2811667354440921e+01 1.5315700265161690e+01 0 0 0
820 1 1.1675037899733445e+01 2.0958145241032963e+01 3.1754520375196269e+00 0 0 0
2670 2 2.2830963892644171e+01 2.3948896117662578e+01 1.3716818604612461e+01 0 0 0
117 2 2.4773617001487647e+01 2.1285943700812759e+01 2.6767671415525225e+01 0 0 -1
2433 2 1.5809836861720196e+01 2.8515844973869957e+01 1.8809603473832372e+01 0 0 0
2492 2 1.1086428191782366e+01 1.9093304600799531e+01 3.1388528719525493e+00 0 0 1
1085 2 1.9028542513527231e+01 1.6900116502410199e+01 2.5423974782088150e+00 0 0 0
848 2 1.7818464054915424e+01 1.6807672720462318e+01 9.9701091970532136e+00 0 0 -1
273 2 9.2399382185101722e+00 1.0639938319607545e+01 2.0603309417064640e+01 0 0 0
1084 1 1.8938497458846065e+01 1.7881095522543117e+01 2.4727144653345712e+00 0 0 0
1910 2 1.5362301527430063e+01 1.1806686332562352e+01 1.3857171770648428e+01 0 0 0
1087 1 2.2996465643966022e+01 2.6237127507426838e+01 2.4296467877189546e+01 0 0 -1
360 2 1.8271339692793699e+01 2.5617677794973829e+01 2.2606694044888453e+01 0 0 0
196 1 1.8009854446814860e+01 2.6095400395238332e+01 1.1044497917945309e+01 0 -1 0
777 2 1.2434067729288330e+01 2.0580426938301486e+01 4.4834242961354960e+00 0 0 0
308 2 2.7065557577852100e+01 3.1961117652675416e+01 2.2723249035274772e+01 0 0 -1
309 2 2.5662862492652582e+01 3.1387157864887438e+01 2.2251808761069302e+01 0 0 -1
3003 2 1.1335343605140032e+01 1.9642200487904029e+00 2.1040383716161930e+00 0 1 0
1809 2 1.8730293728092104e+01 1.4599358209476277e+01 1.3353450449114950e+01 0 0 0
880 1 1.6698451083785979e+01 2.0635073822304911e+01 2.2785296595221073e+01 0 0 0
315 2 1.5470237164371387e+01 1.8746890258251444e+01 1.7211442835757403e+01 0 0 -1
283 1 1.7153101477633829e+01 5.6585444062835588e+00 2.0159546093066975e+01 0 1 -1
386 2 1.2676182854582171e+01 1.3836885584621193e+01 1.0832788228557466e+00 0 0 0
1449 2 2.1190214548581501e+01 1.7459587729072339e+01 4.5231151569222350e+00 0 1 0
726 2 5.4884303025257442e+00 2.6269168756015291e+00 3.4966414887555906e+00 0 0 1
1545 2 8.4090392274364021e+00 8.0481989970986820e+00 1.4726665226754545e+01 0 0 0
113 2 1.5651292411662855e+01 3.0451853442850805e+01 2.0214678334147255e+01 0 -1 0