LAMMPS data file via write_data, version 15 Apr 2020, timestep = 500000

3072 atoms
2 atom types

1.5417653762714778e-01 2.9986017462368942e+01 xlo xhi
1.5619310042477608e-01 2.8184272899568157e+01 ylo yhi
1.5091537842323000e-01 2.7260529621571735e+01 zlo zhi
1.0114564396904772e+01 1.0137737402220775e+01 7.0725679865029045e+00 xy xz yz

Masses

1 16
2 2

Atoms # atomic

1 1 7.3151931853366534e+00 5.0979867554320339e+00 4.3080671991800799e+00 0 0 0
2 2 6.4452763546604146e+00 4.6833588577060628e+00 4.2155529728583359e+00 0 0 0
3 2 7.1407508602696224e+00 5.9874245392137047e+00 4.6017092369351955e+00 0 0 0
4 1 9.9626359544101959e+00 7.0402273670071391e+00 1.0834684163258290e+01 0 0 0
5 2 1.0507380991059833e+01 6.8678153300820348e+00 1.1603374974172553e+01 0 0 0
6 2 9.6959766635978539e+00 7.9824730945458038e+00 1.1062293611813535e+01 0 0 0
7 1 9.9117221938827846e+00 1.2322682757057599e+01 3.9769255008934690e+00 0 0 0
8 2 1.0232685295670699e+01 1.1872261485483833e+01 4.7616597768103652e+00 0 0 0
9 2 9.7117704683378356e+00 1.3228878874293020e+01 4.2871358248229381e+00 0 0 0
10 1 1.2499293543139455e+01 1.4325703461739471e+01 1.0644247860085905e+01 0 0 0
11 2 1.3147526237671673e+01 1.4661539186181264e+01 9.9677328119511461e+00 0 0 0
12 2 1.1987570499439519e+01 1.3639425268894559e+01 1.0189825877510117e+01 0 0 0
13 1 1.5253104048962573e+01 5.3152260242786387e+00 4.1172709424198652e+00 0 0 0
14 2 1.5564130565247627e+01 4.8648815946821280e+00 4.9545575275815326e+00 0 0 0
15 2 1.4810841424518101e+01 6.1624163758832307e+00 4.3408733386977794e+00 0 0 0
16 1 1.7423287326521528e+01 6.9640450488039747e+00 1.1085356930601666e+01 0 0 0
17 2 1.7970927818576943e+01 6.4672617069669434e+00 1.1807239368010386e+01 0 0 0
18 2 1.7973291397742223e+01 7.1891895954441321e+00 1.0280112895363342e+01 0 0 0
19 1 1.7279911924742080e+01 1.2415773218148079e+01 4.1938200729645105e+00 0 0 0
20 2 1.8032627096322628e+01 1.2597939207141021e+01 3.5552803015479451e+00 0 0 0
21 2 1.7771981896806768e+01 1.1923714970404408e+01 4.8609614707727413e+00 0 0 0
22 1 2.0142905584839173e+01 1.4158445669092700e+01 1.0866200676106377e+01 0 0 0
23 2 2.1022987039571987e+01 1.4377884872437523e+01 1.0444049080460523e+01 0 0 0
24 2 1.9739933459535820e+01 1.5020387464574425e+01 1.1079600206047038e+01 0 0 0
25 1 1.1485700713269532e+01 8.1087588082175763e+00 6.4150300035704930e+00 0 0 0
26 2 1.0726699589227220e+01 8.6483738932193237e+00 6.0935846318320115e+00 0 0 0
27 2 1.1152665503929867e+01 7.3515451773801201e+00 7.0007980541312209e+00 0 0 0
28 1 1.4363177734042617e+01 1.0048903698325546e+01 1.3110471930524318e+01 0 0 0
29 2 1.4703648380977006e+01 9.4062425598206083e+00 1.2473347817698313e+01 0 0 0
30 2 1.3515364582054641e+01 1.0368486940365646e+01 1.2625650303449225e+01 0 0 0
31 1 1.4046228046551025e+01 1.5366224533244310e+01 6.1703424488604455e+00 0 0 0
32 2 1.4382848455420296e+01 1.4844516416445787e+01 5.3997931661401495e+00 0 0 0
33 2 1.3363641357731394e+01 1.5866947621274829e+01 5.7456360315137198e+00 0 0 0
34 1 1.6619064048287715e+01 1.7089953643597823e+01 1.3024750268299879e+01 0 0 0
35 2 1.5858095094889098e+01 1.7610649459998452e+01 1.2616098252348818e+01 0 0 0
191 2 2.1215908255394865e+01 1.2710533201465333e+01 1.3425418228623180e+01 0 0 0
37 1 1.9115014369336748e+01 8.1139275751828990e+00 6.2916056102222679e+00 0 0 0
38 2 1.8382163144378673e+01 8.7087701498605306e+00 6.0441461584542502e+00 0 0 0
39 2 1.8655734011366530e+01 7.5180924265146132e+00 6.9646280069100373e+00 0 0 0
40 1 2.1723250903854886e+01 1.0083002270723005e+01 1.3144391755378448e+01 0 0 0
1152 2 1.4071357853115236e+01 3.3451372562629995e+00 1.1837755955898894e+01 0 1 0
42 2 2.0907612748602762e+01 1.0590433287252935e+01 1.2900836262285253e+01 0 0 0
432 2 9.6311010632007967e+00 1.6462321364466732e+01 1.2206890033460981e+01 1 0 0
44 2 2.1039666451186129e+01 1.5724276145270739e+01 6.0403315603478136e+00 0 0 0
1146 2 2.2406594746521709e+01 2.2518582817516766e+01 1.1512090182583647e+01 0 0 0
798 2 1.8942967891077590e+01 2.3342616359075155e+01 1.3572216519779481e+01 0 0 0
47 2 2.3297438050847145e+01 1.7423717299983768e+01 1.2816857930593265e+01 0 0 0
287 2 2.3093840241164454e+01 1.5025731151745095e+01 1.0304204443712997e+01 0 0 0
49 1 5.0007287359188499e+00 3.8704826993528840e+00 2.8804828230442743e+00 0 0 0
50 2 5.2627848110250586e+00 2.9466043669829318e+00 2.5452714010781627e+00 0 0 0
51 2 4.2213056152380455e+00 3.5790685850131894e+00 3.4325452449849725e+00 0 0 0
52 1 7.8653584364267104e+00 5.4320969231626961e+00 9.8795280644848553e+00 0 0 0
53 2 7.3709183245993479e+00 5.8362448951137118e+00 9.1133073914391467e+00 0 0 0
54 2 8.6107357382265395e+00 5.9548090220303989e+00 1.0129712586816702e+01 0 0 0
55 1 7.8900356731025241e+00 1.0791309637478095e+01 2.9408717562227595e+00 0 0 0
56 2 8.3175461704545928e+00 1.0040008703787176e+01 2.4808459028135323e+00 0 0 0
57 2 8.5962704325314157e+00 1.1364098631205042e+01 3.2616680892480896e+00 0 0 0
58 1 1.0723485119654029e+01 1.2452155851133735e+01 9.4239551228197609e+00 0 0 0
59 2 1.0223337379316447e+01 1.2669271998024053e+01 8.6436512610363536e+00 0 0 0
60 2 1.0785774158736695e+01 1.1503036344731388e+01 9.4907568570772138e+00 0 0 0
61 1 1.2884493486839922e+01 3.8840262232490215e+00 3.0996917603104270e+00 0 0 0
62 2 1.3546566031463955e+01 4.5427832407475544e+00 3.4490378333581346e+00 0 0 0
63 2 1.2461073476281960e+01 4.1484816080345706e+00 2.2900047317984340e+00 0 0 0
64 1 1.5228953141951704e+01 5.4453004458736753e+00 9.6977616431147435e+00 0 0 0
65 2 1.5934734286215535e+01 5.8670021276629196e+00 1.0160652783633696e+01 0 0 0
66 2 1.5537648039520242e+01 4.5871740247876236e+00 9.2911339901183752e+00 0 0 0
67 1 1.5340621253166239e+01 1.0728097237830829e+01 2.8331106794523642e+00 0 0 0
68 2 1.6105279902758845e+01 1.1165084138063786e+01 3.2936178806124152e+00 0 0 0
69 2 1.5590118746815977e+01 9.7741922415992644e+00 2.7378166626990090e+00 0 0 0
70 1 1.7780572612116949e+01 1.2416745753059111e+01 9.6570110056835130e+00 0 0 0
71 2 1.7279548818748367e+01 1.2777375438430376e+01 8.9039895922340850e+00 0 0 0
72 2 1.8594417997474029e+01 1.2927873766609491e+01 9.6958642652546487e+00 0 0 0
73 1 1.4190519348851272e+00 6.9267030506451466e-01 5.3649291077114736e-01 0 0 0
173 2 1.2188194560168263e+01 6.7914444484149659e+00 1.3404285761389849e+01 0 0 0
1143 2 2.0627127006607754e+01 2.2281493159419956e+01 5.3775938525948490e+00 0 0 0
76 1 3.7484228867074032e+00 2.8273244354155351e+00 7.7174968914538216e+00 0 0 0
77 2 1.4552925566971176e+01 3.0206929885718967e+01 7.9969318268303660e+00 0 -1 0
978 2 2.3566977971293060e+01 1.7716440168921601e+01 8.9304439337413370e+00 0 0 0
812 2 2.7253034796891878e+01 2.9709568143423297e+01 7.0348815784711780e+00 0 0 0
119 2 1.7181819362930852e+01 1.2856088645617685e+01 1.3172847323054745e+01 0 0 0
81 2 4.6230348871475755e+00 7.3704690542336673e+00 1.1720862667641974e+00 0 0 0
82 1 6.4715763000246618e+00 9.9135361206356549e+00 7.4384341147131119e+00 0 0 0
1151 2 2.4614516188043243e+01 3.0384119414738798e+01 1.3041423716203235e+01 0 0 0
84 2 7.1423406753571035e+00 9.3835393258023529e+00 7.9491240487196144e+00 0 0 0
85 1 8.5364708402767668e+00 7.1211068554345014e-01 9.0780164322952683e-01 0 0 0
841 1 6.1607497061640526e+00 1.4949399153674539e+01 7.9516805468330631e-01 0 0 0
87 2 8.2659162152234611e+00 1.2981508389741159e+00 1.7016192291212089e+00 0 0 0
88 1 1.1092430968915171e+01 2.6052763781462325e+00 7.3033477751307494e+00 0 0 0
89 2 1.1873707695302198e+01 2.1318927330673425e+00 7.6137690708863603e+00 0 0 0
90 2 1.1511908917900683e+01 3.3026104947213346e+00 6.7330676214559499e+00 0 0 0
91 1 1.1506377891966281e+01 7.8839533448303722e+00 6.5812430635392194e-01 0 0 0
1056 2 2.7826277364636685e+01 2.9352890084147852e+01 1.0107492159500088e+01 0 0 0
93 2 1.2223752539089315e+01 7.2583870568442954e+00 8.9881786738453140e-01 0 0 0
94 1 1.3950757890675169e+01 9.4140301004748146e+00 7.3368349629097578e+00 0 0 0
95 2 1.4790029255150731e+01 9.0476930323291462e+00 7.7590450838100731e+00 0 0 0
96 2 1.3281849774565973e+01 8.7437871046252713e+00 7.1598293955469270e+00 0 0 0
97 1 5.1927961806532457e+00 4.4765530578546295e+00 6.1525046548915689e+00 0 0 0
98 2 5.6969263491074136e+00 5.0022737831358874e+00 6.7799841271624430e+00 0 0 0
99 2 4.5786451384819484e+00 3.9137587976242250e+00 6.6720615324906802e+00 0 0 0
100 1 7.8764043680730724e+00 5.9673985921046553e+00 1.2864467624221788e+01 0 0 0
101 2 7.5899799367398080e+00 6.6716185332068854e+00 1.2150771762374408e+01 0 0 0
102 2 8.7241263851668442e+00 5.5756809980229427e+00 1.2530362030091812e+01 0 0 0
103 1 7.9389139141865641e+00 1.1776982667261485e+01 5.9191450062072626e+00 0 0 0
104 2 7.3474904567521380e+00 1.2302229043342280e+01 5.2925622262052130e+00 0 0 0
105 2 7.3418247060497759e+00 1.1077949137982737e+01 6.3434574645814568e+00 0 0 0
106 1 1.0516200121319660e+01 1.3441961746991163e+01 1.2778520826206666e+01 0 0 0
206 2 1.6650683839833281e+01 2.8916889734664633e+00 3.3406010569107978e+00 0 0 0
108 2 1.1250395995033960e+01 1.2816583581253362e+01 1.2687695400183827e+01 0 0 0
109 1 1.2831070815662070e+01 4.1383730837746739e+00 5.9532424497242022e+00 0 0 0
110 2 1.3479351439973433e+01 3.5016733061922003e+00 5.5519655766543288e+00 0 0 0
111 2 1.2381664039235440e+01 4.6260408021048711e+00 5.2760402299363411e+00 0 0 0
112 1 1.5559315749579152e+01 5.9590174980198007e+00 1.2906579582947748e+01 0 0 0
1053 2 2.5305247589630714e+01 2.7346505698067361e+01 3.4423821432922352e+00 0 0 0
1132 1 1.4525791749594838e+01 2.3470395533937470e+01 1.2183790822324509e+01 0 0 0
115 1 1.5267843790476215e+01 1.1414399063576672e+01 6.2264349677009374e+00 0 0 0
116 2 1.4589856247264105e+01 1.0761400893124259e+01 6.4860727474044086e+00 0 0 0
117 2 1.5419958971200044e+01 1.2031157905841962e+01 6.9127476065403615e+00 0 0 0
118 1 1.7961137434673542e+01 1.3168284573489530e+01 1.2703438207422836e+01 0 0 0
1116 2 1.4554236084276729e+01 2.9808185245776112e+01 1.1568148464513676e+01 0 0 0
120 2 1.7616087920859076e+01 1.3765144425624042e+01 1.1999838621534797e+01 0 0 0
121 1 2.9000126590220097e+00 2.9861164388005088e+00 4.1652954912090427e+00 0 0 0
1150 1 2.4820184126008471e+01 3.0597549093054365e+01 1.2073684255068889e+01 0 0 0
123 2 3.3187120321510921e+00 2.2732442078249320e+00 4.6365641658355949e+00 0 0 0
124 1 5.7739902303568895e+00 4.4182177088622723e+00 1.1278941940192841e+01 0 0 0
125 2 6.5369131319379221e+00 4.8253518058754405e+00 1.0785650546043103e+01 0 0 0
126 2 6.1103135389814645e+00 3.4623398991504235e+00 1.1414399136693792e+01 0 0 0
127 1 5.8215255144050309e+00 1.0048734892994997e+01 4.4224720431144355e+00 0 0 0
1722 2 1.3670321315024575e+01 2.3517020127213337e+00 2.2121804403338993e-01 0 0 1
129 2 6.5853937476794560e+00 1.0489771834883449e+01 4.0054381797099001e+00 0 0 0
130 1 8.2133685615416390e+00 1.1831989944050141e+01 1.1155871802372129e+01 0 0 0
1566 2 8.4868608477101066e+00 5.9365997670363715e+00 1.5226799250528705e-01 0 0 1
132 2 8.8494712155873998e+00 1.2313025943292569e+01 1.0569895354451178e+01 0 0 0
133 1 1.0724846060445424e+01 2.7309825286472940e+00 3.9328153576958460e+00 0 0 0
134 2 1.1107060686801979e+01 1.8225379956838630e+00 4.0876885532843996e+00 0 0 0
135 2 1.1412301593668685e+01 3.2477310725893651e+00 3.4932161847364029e+00 0 0 0
136 1 1.3317579362756492e+01 4.6061567877455278e+00 1.1101780668276543e+01 0 0 0
137 2 1.3900286137825031e+01 5.0728567854954090e+00 1.0460749622837263e+01 0 0 0
138 2 1.2781233659763974e+01 5.2766654168786857e+00 1.1621967030318666e+01 0 0 0
139 1 1.3156205042697463e+01 9.8986329517692759e+00 4.2636695973655137e+00 0 0 0
140 2 1.3929590053935874e+01 1.0338414665833248e+01 3.7529940874328394e+00 0 0 0
141 2 1.3581147377655945e+01 9.1722290533384765e+00 4.7404830658558792e+00 0 0 0
142 1 1.5625601793587901e+01 1.1585188484045734e+01 1.1218767962146144e+01 0 0 0
143 2 1.6390933920250372e+01 1.1988259379550065e+01 1.0835967787850510e+01 0 0 0
144 2 1.5863443612995614e+01 1.0779920458596081e+01 1.1611956897763088e+01 0 0 0
145 1 6.7228625464776348e+00 2.2768090343509590e+00 5.3995890371574680e+00 0 0 0
146 2 7.4294040049555523e+00 1.8378593251686990e+00 5.9087273165519250e+00 0 0 0
147 2 6.4643485967604670e+00 3.0702652640523289e+00 5.9428017451485378e+00 0 0 0
148 1 9.4493712820936100e+00 4.0047886058056683e+00 1.1995098083649316e+01 0 0 0
149 2 9.9764062823017774e+00 4.1419894714174426e+00 1.1177827993002211e+01 0 0 0
150 2 1.0181810270421984e+01 3.5842997140021486e+00 1.2538789778578510e+01 0 0 0
151 1 9.2748321923979979e+00 9.2766620025870523e+00 5.0937937775463533e+00 0 0 0
152 2 8.8752385955641007e+00 1.0075177660950473e+01 5.4023135537138662e+00 0 0 0
153 2 9.6166373291892810e+00 9.3670166525883030e+00 4.1714776310648221e+00 0 0 0
154 1 1.2154190883462544e+01 1.0818013958353035e+01 1.1717313635374371e+01 0 0 0
155 2 1.1386106697824973e+01 1.0220596903657507e+01 1.1697261608908079e+01 0 0 0
156 2 1.2496065827568028e+01 1.0983497502284941e+01 1.0772390506593281e+01 0 0 0
157 1 1.4281386022034130e+01 1.9894691411919514e+00 4.9039716646507108e+00 0 0 0
158 2 1.4956828802669694e+01 1.7627390295125720e+00 5.5682219593041777e+00 0 0 0
159 2 1.4785724176080494e+01 2.3851150525549762e+00 4.1354094477761265e+00 0 0 0
160 1 1.6956118584565498e+01 3.9109059664210930e+00 1.1978595041160544e+01 0 0 0
161 2 1.6635657872368391e+01 4.7439106218287099e+00 1.2411380209971069e+01 0 0 0
162 2 1.6146330209239842e+01 3.2999696669507368e+00 1.1855185120802215e+01 0 0 0
163 1 1.6677918749687009e+01 9.0999874973547499e+00 5.3758167429838961e+00 0 0 0
164 2 1.6208580196794848e+01 9.9987075897376574e+00 5.4090929791332476e+00 0 0 0
165 2 1.7223783168310781e+01 9.1976169590015395e+00 4.5783406580808244e+00 0 0 0
166 1 1.9400471700849184e+01 1.0859974530693105e+01 1.1821178881268745e+01 0 0 0
167 2 1.8786074544420806e+01 1.1550748812052785e+01 1.2139624890040896e+01 0 0 0
168 2 1.9876509620898201e+01 1.1264922145117245e+01 1.1070837471941745e+01 0 0 0
169 1 9.0438361637428244e+00 4.1439092503150352e+00 5.9634515188533390e+00 0 0 0
170 2 9.6546387563338421e+00 3.6783981507334049e+00 5.4127529881575986e+00 0 0 0
171 2 8.3421993015514779e+00 4.5298657595458289e+00 5.4092890552405697e+00 0 0 0
172 1 1.1623699167287818e+01 6.1636912715739971e+00 1.2812392242071452e+01 0 0 0
128 2 5.1329172847422928e+00 9.9391686776481070e+00 3.6531938844387684e+00 0 0 0
36 2 1.6078892420894540e+01 1.6466544040278485e+01 1.3519368425104693e+01 0 0 0
175 1 1.1438675134847170e+01 1.1374849788567586e+01 6.2478921902559676e+00 0 0 0
176 2 1.2124484807729617e+01 1.0866576228822133e+01 5.7568831237954639e+00 0 0 0
177 2 1.1884766969370819e+01 1.2151755650202084e+01 6.5560842968878967e+00 0 0 0
178 1 1.3824952900068553e+01 1.3243852822318035e+01 1.2912600221222345e+01 0 0 0
179 2 1.3382265762621770e+01 1.3696322894658955e+01 1.2179891999781224e+01 0 0 0
180 2 1.4428378095051379e+01 1.2636568498577326e+01 1.2504710832970392e+01 0 0 0
181 1 1.6561284743479643e+01 4.2828823132177538e+00 6.0800724359133875e+00 0 0 0
182 2 1.7244370428044203e+01 3.6898263434080842e+00 5.6932586295990291e+00 0 0 0
183 2 1.6979080870842314e+01 5.1562168032037148e+00 6.3090973114205271e+00 0 0 0
184 1 1.9124908369375756e+01 6.1941017374934795e+00 1.3013701340038459e+01 0 0 0
261 2 1.7251684979819469e+01 1.1180529819087861e+01 5.1510562049874298e-01 0 0 0
79 1 3.9877396827557869e+00 8.0354227783640830e+00 7.3917810372407433e-01 0 0 0
187 1 1.8810147750407609e+01 1.1537472043935249e+01 6.0963671947378906e+00 0 0 0
188 2 1.8439802269708292e+01 1.1094771596340497e+01 6.8992562786388145e+00 0 0 0
189 2 1.9274281435740154e+01 1.2278078642280557e+01 6.5109850404349281e+00 0 0 0
190 1 2.1698152848148311e+01 1.3212141745655277e+01 1.2758616747443243e+01 0 0 0
107 2 1.0765292562073746e+01 1.3999434260325607e+01 1.3540864899932480e+01 0 0 0
192 2 2.0968139611171697e+01 1.3453088693571821e+01 1.2097367783399918e+01 0 0 0
193 1 8.1368362263384952e+00 2.3085005825524583e+00 2.9415021278739975e+00 0 0 0
194 2 7.5129251892167517e+00 2.2444453964184339e+00 3.6660742152203629e+00 0 0 0
195 2 9.0848988881538482e+00 2.4596349595943554e+00 3.2382071161807637e+00 0 0 0
196 1 1.1031203186959715e+01 4.3220464608540734e+00 9.7014899383993516e+00 0 0 0
197 2 1.1056173691753925e+01 3.6492656266366841e+00 9.0123738515732210e+00 0 0 0
198 2 1.1973273325636043e+01 4.3056758962866724e+00 1.0076768556822051e+01 0 0 0
199 1 1.0891080170232101e+01 9.5720796437987481e+00 2.8228024955166866e+00 0 0 0
200 2 1.1103104220767868e+01 8.8693322537678068e+00 2.1446571448001270e+00 0 0 0
201 2 1.1671111579173189e+01 9.7609952857207389e+00 3.4163851622043873e+00 0 0 0
202 1 1.3564584022792339e+01 1.1485462512451862e+01 9.1747304998231449e+00 0 0 0
203 2 1.4400650058005400e+01 1.1722100919465955e+01 9.5937636353972842e+00 0 0 0
204 2 1.3582652852502525e+01 1.0632170469874257e+01 8.6687272713141539e+00 0 0 0
205 1 1.5874899732383462e+01 2.7993008347684700e+00 2.6872462209059100e+00 0 0 0
1011 2 1.3403082538753605e+01 1.9194885154763384e+01 8.8674235681788671e-01 0 0 0
1022 2 1.9877536574900954e+01 1.7882642298806562e+01 5.1731587354961084e-01 0 0 0
208 1 1.8366157394119885e+01 4.5985081532601990e+00 9.5510217352195870e+00 0 0 0
209 2 1.7922789369992774e+01 4.3709780419465858e+00 1.0389454733161363e+01 0 0 0
1577 2 1.6006160322848977e+01 5.9916115506173098e+00 2.7818815774971323e-01 0 0 1
211 1 1.8698695541894153e+01 9.6531221306940580e+00 2.9780547430484980e+00 0 0 0
959 2 2.7575957050589619e+01 2.6927444472620532e+01 1.2345050569066331e+01 0 0 0
213 2 1.8729833189503925e+01 1.0501227506635143e+01 2.5433968062139609e+00 0 0 0
214 1 2.0677364401081739e+01 1.1264245164278128e+01 9.6158886681788402e+00 0 0 0
1134 2 1.4218220664812424e+01 2.3272415483516987e+01 1.3087248117620909e+01 0 0 0
843 2 6.5731873931861813e+00 1.5633474867586916e+01 2.4213375562941908e-01 0 0 0
217 1 5.6355032000598966e+00 1.3723099900318227e+00 1.7445865436432091e+00 0 0 0
218 2 4.7934091757186374e+00 7.9346080728594182e-01 1.7491811816289542e+00 0 0 0
219 2 5.6045294950734377e+00 1.6769901473673900e+00 8.1275163924256233e-01 0 0 0
220 1 8.1107660892680951e+00 3.1234512997581976e+00 8.1170593751357867e+00 0 0 0
221 2 8.2606863079736499e+00 3.9207317596968831e+00 8.6904548743893830e+00 0 0 0
222 2 8.4768211409247396e+00 3.3651532506571833e+00 7.2128231560998266e+00 0 0 0
223 1 8.2154368054554148e+00 8.1774521463391476e+00 1.8667778487983069e+00 0 0 0
224 2 8.8580645595768015e+00 7.4144405985729875e+00 2.1222790516574186e+00 0 0 0
225 2 8.5151518384930682e+00 8.4483596751835073e+00 9.5353015987651235e-01 0 0 0
226 1 1.0830699102541985e+01 9.9747049770094982e+00 8.6161586534091086e+00 0 0 0
227 2 1.1357645150672793e+01 9.2838217658305844e+00 9.1314144980201206e+00 0 0 0
228 2 1.1416441524845652e+01 1.0399227284737432e+01 8.0021679881789787e+00 0 0 0
229 1 1.3241660490701552e+01 1.4897282438579509e+00 1.9263610173830714e+00 0 0 0
230 2 1.2333639038813395e+01 1.1355827010837158e+00 1.9718177346099990e+00 0 0 0
231 2 1.3176008489034180e+01 2.3067419145858992e+00 2.5188760133716235e+00 0 0 0
232 1 1.5634218753223942e+01 3.2073201974092322e+00 8.4367216857896743e+00 0 0 0
233 2 1.6267387236730443e+01 2.5474626744910132e+00 8.8446179409612125e+00 0 0 0
234 2 1.5983613363688921e+01 3.4896954492467023e+00 7.5433481718343138e+00 0 0 0
235 1 1.5811203331466270e+01 8.2846805375539532e+00 2.0987990415978071e+00 0 0 0
236 2 1.6045129564244547e+01 8.5285245107500067e+00 1.2338139449178431e+00 0 0 0
237 2 1.6492083144992080e+01 7.6621896942249146e+00 2.3378854211376572e+00 0 0 0
238 1 1.7866655639634768e+01 1.0080673223281343e+01 8.3726426508273253e+00 0 0 0
239 2 1.8563191772183483e+01 9.4566852962976089e+00 8.5841336244600974e+00 0 0 0
240 2 1.8018617376461705e+01 1.0771811419171902e+01 9.0158042195986585e+00 0 0 0
241 1 7.5147085214604941e+00 4.5394167846352920e+00 1.3119246587712228e+00 0 0 0
242 2 7.5275255682675786e+00 3.8551349812486704e+00 1.9492275167558673e+00 0 0 0
243 2 6.8030514772231889e+00 5.1237051139556238e+00 1.6132169939969987e+00 0 0 0
244 1 1.0208210067949882e+01 6.2333673309389726e+00 7.7287907514589165e+00 0 0 0
245 2 1.0345902013554586e+01 5.6356147663662419e+00 8.4945076394701644e+00 0 0 0
246 2 9.9838030082261042e+00 5.5392189457127801e+00 7.0942714405663292e+00 0 0 0
247 1 1.0076155654041697e+01 1.1687226567380353e+01 1.0641983537563036e+00 0 0 0
248 2 9.6974002166180888e+00 1.2499513164743648e+01 1.4556266673530640e+00 0 0 0
249 2 1.0507287436979871e+01 1.1229425836756210e+01 1.7893677712885410e+00 0 0 0
250 1 1.2473553728138810e+01 1.3515737328491262e+01 7.5703431969976442e+00 0 0 0
251 2 1.2726198307046266e+01 1.2970112645038490e+01 8.3507502583486897e+00 0 0 0
252 2 1.3170896378139014e+01 1.4146160276595507e+01 7.3226675240345065e+00 0 0 0
253 1 1.5230483385077909e+01 4.8316678161705475e+00 9.5532075293428820e-01 0 0 0
254 2 1.5571747211168894e+01 4.0483099687415738e+00 1.4082650629792137e+00 0 0 0
255 2 1.4684426947932144e+01 5.3407821629705969e+00 1.5897509323906593e+00 0 0 0
256 1 1.7681003899461984e+01 6.3337533833797757e+00 7.6525408438898452e+00 0 0 0
257 2 1.7852584603511314e+01 5.6151636706132697e+00 8.2846299378703243e+00 0 0 0
258 2 1.7036433232238750e+01 6.9848157466957304e+00 8.0155205144370498e+00 0 0 0
259 1 1.7662153966979108e+01 1.1938211637209227e+01 9.6403606104003414e-01 0 0 0
260 2 1.6859366738846052e+01 1.2518332719967471e+01 1.1794631760077123e+00 0 0 0
1364 2 9.5362569407866626e+00 2.3821835389019128e+01 2.9237297808432832e+00 1 0 0
262 1 2.0154977555446781e+01 1.3412298355736462e+01 7.6091309377108667e+00 0 0 0
263 2 2.0458521562941765e+01 1.2833177808996075e+01 8.3517063929453172e+00 0 0 0
264 2 2.0915479503034963e+01 1.4005651282727221e+01 7.2777902608391818e+00 0 0 0
265 1 9.5922294721327752e+00 6.0395602373839603e+00 2.7325993444348646e+00 0 0 0
266 2 8.8229956332942177e+00 5.6553724935408116e+00 3.2433199181619590e+00 0 0 0
267 2 9.9258355677092851e+00 5.4250359715759764e+00 2.0631620362474044e+00 0 0 0
268 1 1.2357928447899660e+01 7.7524527801375882e+00 9.7450301868554163e+00 0 0 0
269 2 1.2711683938077165e+01 7.3152583094501935e+00 8.9731395591656771e+00 0 0 0
270 2 1.1487858365986551e+01 7.2246266924482452e+00 9.9218508358237028e+00 0 0 0
271 1 1.2354672891978471e+01 1.3237657751346529e+01 2.7870143481954148e+00 0 0 0
272 2 1.3144353013077025e+01 1.3352506644863324e+01 3.3335638102446525e+00 0 0 0
273 2 1.1618977258618797e+01 1.2791616820980060e+01 3.2718915942634825e+00 0 0 0
274 1 1.4644953642802935e+01 1.5116372609012659e+01 9.4980646181178248e+00 0 0 0
275 2 1.4385247246212542e+01 1.5951878835506424e+01 8.9731373622282558e+00 0 0 0
276 2 1.5421779288787700e+01 1.5540301430798710e+01 9.9568992853249210e+00 0 0 0
277 1 1.7429837944043310e+01 6.1851713927544525e+00 2.7703357916262159e+00 0 0 0
278 2 1.6640414753695246e+01 5.7308210682328999e+00 3.3182480202394604e+00 0 0 0
1149 2 2.2528123094302124e+01 2.7650788925997425e+01 4.5265011408049833e+00 0 0 0
280 1 1.9376340052830177e+01 7.9730440417199331e+00 9.4132706002362383e+00 0 0 0
1126 1 2.1958073490133284e+01 2.9285862853619172e+01 1.0979153597062123e+01 0 0 0
216 2 2.0817327932338465e+01 1.0407896552808438e+01 9.0906504368151193e+00 0 0 0
283 1 1.9529888125888029e+01 1.3138054690842257e+01 2.7358222552022107e+00 0 0 0
284 2 1.9854822983048681e+01 1.2608247223445579e+01 2.0008205808279165e+00 0 0 0
1611 2 6.9337409991003369e+00 4.8411789028146304e+00 1.3607208920071635e+01 0 0 0
286 1 2.2348664291613897e+01 1.4940112968149890e+01 9.6697577685959448e+00 0 0 0
814 1 2.9314543526308245e+01 3.1161487572612398e+01 1.2952258804112793e+01 0 0 0
288 2 2.2027598950001909e+01 1.5743551580513996e+01 9.2989549747434150e+00 0 0 0
289 1 5.9154845391865818e+00 6.6632479120552830e+00 1.8127048129490471e+00 0 0 0
290 2 5.7611782739335027e+00 6.5611858991811767e+00 2.7388876801283879e+00 0 0 0
291 2 6.7770058555451120e+00 7.2069069685999576e+00 1.7218611629052119e+00 0 0 0
292 1 8.4954750427439389e+00 8.4325089494636174e+00 8.5666205713126971e+00 0 0 0
293 2 8.7404060460527226e+00 7.6270282855185698e+00 8.0434893827369685e+00 0 0 0
294 2 9.3085753042234582e+00 9.0081977706260155e+00 8.4330490804666667e+00 0 0 0
295 1 8.3456603272530234e+00 1.3892586635808108e+01 1.9382421584944556e+00 0 0 0
296 2 7.8951332110910357e+00 1.3741718129527513e+01 2.7946173112431576e+00 0 0 0
297 2 7.5961977540165275e+00 1.4226541482939815e+01 1.4271061403844694e+00 0 0 0
298 1 1.0976283700973717e+01 1.5747975065954780e+01 8.3982286901892014e+00 0 0 0
299 2 1.1319166013514192e+01 1.4943581262292724e+01 7.9642985968629310e+00 0 0 0
300 2 1.0064024371826623e+01 1.5962260781433050e+01 8.0528781036605306e+00 0 0 0
301 1 1.3391270772051763e+01 6.4889219851008102e+00 2.1498420528449298e+00 0 0 0
302 2 1.2770921279639559e+01 6.5427321738639073e+00 2.9375199660171489e+00 0 0 0
303 2 1.3862175872979511e+01 7.3306179081252898e+00 2.3369231432018598e+00 0 0 0
304 1 1.6017570464613161e+01 8.1859599223841482e+00 8.6237326341709846e+00 0 0 0
305 2 1.5695015945417151e+01 8.1549886185440954e+00 9.5520977719149833e+00 0 0 0
306 2 1.6718032147662054e+01 8.8791155115113156e+00 8.6048555650550185e+00 0 0 0
307 1 1.6034169333406595e+01 1.3858809544905370e+01 1.9402500515872425e+00 0 0 0
308 2 1.5274328972768794e+01 1.4196828622223613e+01 1.4199874983423881e+00 0 0 0
309 2 1.6840942845366367e+01 1.4373168838361396e+01 1.7625981495484988e+00 0 0 0
310 1 1.8744091604846535e+01 1.5582042396360006e+01 8.5895220405859209e+00 0 0 0
311 2 1.9129886193205703e+01 1.4789189797405058e+01 8.1486260063720444e+00 0 0 0
312 2 1.8079222162947108e+01 1.5927298781688069e+01 7.9719014738243263e+00 0 0 0
313 1 3.6782180327784331e+00 4.8825303342564323e+00 6.7624218363330990e-01 0 0 0
1133 2 1.4406818394001011e+01 2.2666149332388901e+01 1.1646882237035930e+01 0 0 0
315 2 4.3348652678968431e+00 4.4779070812315096e+00 1.3619304119803837e+00 0 0 0
316 1 6.3851783523851449e+00 6.2336435311416567e+00 7.8382425540429388e+00 0 0 0
317 2 6.7013116255779810e+00 6.7910312880318058e+00 7.0881965792943058e+00 0 0 0
318 2 5.7695540542193182e+00 6.7926555822599681e+00 8.4047968131010311e+00 0 0 0
319 1 6.3279132469934893e+00 1.1831984574574220e+01 9.7777100396634753e-01 0 0 0
210 2 1.9293005334318707e+01 4.7424993406393590e+00 9.8575241522865262e+00 0 0 0
321 2 6.9156273209772134e+00 1.1450595570428487e+01 1.7006195453929447e+00 0 0 0
322 1 9.0562870046885706e+00 1.3593492404556821e+01 7.5251838375803120e+00 0 0 0
663 2 2.7986028520606738e+00 5.8592857408286942e+00 2.0951265214940618e+00 1 0 0
324 2 8.6552792644912468e+00 1.2750013066327362e+01 7.1750339333513278e+00 0 0 0
325 1 1.1395525954847088e+01 4.5454295170603096e+00 1.1203296255406485e+00 0 0 0
1141 1 1.9721399055467828e+01 2.1827449382307680e+01 5.4564299018845768e+00 0 0 0
1028 2 2.2665945778579729e+01 2.5125874359613448e+01 2.3348679307413339e-01 0 0 0
328 1 1.3586806100574732e+01 6.3093379413153556e+00 7.4601603598815416e+00 0 0 0
329 2 1.3384600746736499e+01 5.4457376815596641e+00 6.9621298141433279e+00 0 0 0
330 2 1.4175646917291317e+01 5.9981126498906097e+00 8.1817035586624147e+00 0 0 0
331 1 1.3799164944812357e+01 1.1801446604403573e+01 9.3006267184009594e-01 0 0 0
332 2 1.3263784543952065e+01 1.2356113487241114e+01 1.6029588460058533e+00 0 0 0
333 2 1.4495916490002760e+01 1.1402293308802536e+01 1.5267861119810833e+00 0 0 0
334 1 1.6177537483926024e+01 1.3605103490591432e+01 7.7877510226951498e+00 0 0 0
335 2 1.6517858752793092e+01 1.4048994456515111e+01 6.9597993248759069e+00 0 0 0
336 2 1.5649195046322721e+01 1.4265153257417952e+01 8.2945612712306271e+00 0 0 0
337 1 4.3623248244546815e+00 6.4743259843485168e+00 4.5920539616260765e+00 0 0 0
338 2 4.3821181921398722e+00 5.6686208147907795e+00 5.1035028614100684e+00 0 0 0
953 2 2.4141331226775808e+01 2.1070129784721807e+01 1.3252689683575140e+01 0 0 0
340 1 7.0380069366132147e+00 8.1371078397117351e+00 1.0961369111541009e+01 0 0 0
869 2 1.3047480189878133e+01 2.1042568159058323e+01 1.3636594082553742e+01 0 0 0
342 2 7.6889417109092033e+00 8.2323889846391261e+00 1.0255040421325475e+01 0 0 0
343 1 6.6625643897580229e+00 1.3674241625933254e+01 4.2878885671024296e+00 0 0 0
281 2 1.9819533210877943e+01 7.3377608597372435e+00 8.8544309745690857e+00 0 0 0
1617 2 9.3361297311989659e+00 1.1982072875442208e+01 1.3414674892337162e+01 0 0 0
346 1 9.6646230213013133e+00 1.5532747882142708e+01 1.0792810695597923e+01 0 0 0
347 2 1.0267974087254700e+01 1.5478125034156847e+01 9.9713001809635724e+00 0 0 0
348 2 1.0001357369951968e+01 1.4722576381529635e+01 1.1210580935920554e+01 0 0 0
349 1 1.1681257509113570e+01 6.2694801193836156e+00 4.4491678564579420e+00 0 0 0
350 2 1.1646338017168397e+01 7.0287307276087425e+00 5.0733733135361403e+00 0 0 0
351 2 1.0878843535654060e+01 6.2283791969248998e+00 3.8642614340565506e+00 0 0 0
352 1 1.4731422210760950e+01 8.1643286722743440e+00 1.1094547015197524e+01 0 0 0
353 2 1.5005665016242808e+01 7.4637402199245448e+00 1.1645885353169222e+01 0 0 0
354 2 1.3886276703228157e+01 7.9685889595877013e+00 1.0690364639504853e+01 0 0 0
355 1 1.4562293857581857e+01 1.3356431504117099e+01 4.3193992170506634e+00 0 0 0
356 2 1.4790979889070739e+01 1.2604832460620605e+01 4.9131526517232595e+00 0 0 0
357 2 1.5341176787518226e+01 1.3378032028656364e+01 3.7159358958805329e+00 0 0 0
358 1 1.6968276020968737e+01 1.5416984655086354e+01 1.0778668231259457e+01 0 0 0
359 2 1.7120883409059360e+01 1.6091542863682044e+01 1.1527333631618406e+01 0 0 0
360 2 1.7716720145208864e+01 1.5553110777352209e+01 1.0124270533405619e+01 0 0 0
361 1 7.0864572046370693e+00 7.5866624479740947e+00 5.4061917085046973e+00 0 0 0
362 2 6.5277434468597972e+00 8.3296124319843123e+00 5.1059038105283463e+00 0 0 0
363 2 7.9961275082103764e+00 7.9571994629060505e+00 5.1095710278088395e+00 0 0 0
364 1 9.5605424061021722e+00 9.5253211278560634e+00 1.1772822560671075e+01 0 0 0
365 2 9.0675551894268871e+00 1.0244768124135376e+01 1.1332557946771159e+01 0 0 0
366 2 9.1484191008162874e+00 9.3223215102232100e+00 1.2657013529951879e+01 0 0 0