LAMMPS data file via write_data, version 3 Mar 2020, timestep = 0

2016 atoms
2 atom types

0.0000000000000000e+00 1.7919842924009803e+01 xlo xhi
-1.3888650979394654e+00 4.6385025074855974e+01 ylo yhi
0.0000000000000000e+00 1.9059638522624081e+01 zlo zhi
4.2772520543949831e-02 -6.6506108729190352e+00 -2.2582148384856282e-02 xy xz yz

Masses

1 16
2 2

Atoms # atomic

579 2 2.5596421439824075e+00 3.5381075766665742e+00 1.2860172754044013e+01 0 0 0
223 1 -1.4100432889976124e+00 7.6031645700101329e+00 1.8713400493814575e+01 -2 0 -2
995 2 8.0770857848884674e+00 8.1690173986068135e+00 9.0719161525824745e+00 3 0 1
654 2 5.1023011229589521e-02 7.0671876990377616e+00 3.5237256877281773e+00 -1 0 0
394 1 7.3538784624985762e+00 6.2971999455913155e+00 1.7224175280772225e-01 -3 0 -3
578 2 2.4154517976230645e+00 5.0092440135955112e+00 1.2482346901584458e+01 0 0 0
929 2 1.2572637850966537e+01 4.8454326477852874e+00 6.3074407949417317e+00 0 0 0
513 2 8.1819814647765554e+00 -4.9562300672719473e-01 1.6434418579240251e+01 1 0 0
705 2 -3.3793156972433005e+00 5.9379299762831881e+00 1.3061747098845728e+01 -2 0 -1
302 2 1.1414313987829162e+01 8.6698948161789868e+00 7.5796235768814890e-01 0 0 0
299 2 1.0816981599507805e+01 7.4545862778014005e-01 1.7203095437345830e+01 -3 0 -2
670 1 -6.9773331182601028e-01 -5.7379755519758502e-01 7.8237253548320602e+00 -3 0 -1
507 2 1.5227463797870259e+01 9.4336970066561072e+00 1.9149238329258480e+00 -4 0 -2
406 1 2.2317690372885628e+00 1.4695653706860443e+00 1.0897782538558634e+01 -2 0 -2
216 2 2.6891437160900553e+00 9.7019405757667130e+00 4.8632634295730606e+00 0 0 -2
596 2 2.1253186965604005e+00 5.7850991769742981e+00 5.7450107382937317e+00 3 0 -2
686 2 7.9036506952024688e-01 -9.0306649753789103e-01 8.9998756208035768e+00 -3 0 0
548 2 8.0038943535354221e+00 9.6949296341340006e+00 1.5390175397386992e+01 -3 0 -4
881 2 1.1040901407163764e+01 1.9950311648234620e+00 7.2958513251052528e+00 -3 0 2
319 1 1.0798923881961173e+01 -3.8778038239505364e-01 1.4383827840267815e+01 -4 0 -3
53 2 9.7420500631674578e+00 3.7133775787012135e+00 1.0151688577375777e+00 2 0 0
852 2 -4.1217477641373836e+00 9.8510866666571033e+00 1.1954504132605248e+01 1 0 1
609 2 3.9184175138408892e+00 2.5374557240630260e+00 1.0640120668061377e+00 -3 0 0
1583 2 -4.4496224529061976e+00 2.2206680523275986e+00 1.4215655347486502e+01 0 1 1
122 2 1.1397805066137769e+01 2.8456252325819484e+00 1.7805892164629586e+01 -2 0 -1
295 1 2.4413155195611775e+00 9.2364760917555344e+00 3.0304722880874317e+00 2 0 3
407 2 1.4464635548395393e+00 1.5419494515376484e+00 1.1479342379592062e+01 -2 0 -2
707 2 7.1275363427388339e-01 8.5993415469177563e+00 1.5860468047805588e+01 -1 0 -1
972 2 3.5704501786238518e+00 6.3655054610348838e+00 2.0198217481314602e+00 0 0 1
448 1 5.0012998467207437e+00 8.9998014377853384e+00 7.3371822314330482e+00 -1 0 1
244 1 9.7989672232465406e+00 4.6875926123099596e+00 1.4322148905363388e+01 -4 0 -4
760 1 9.0776805091744031e+00 -2.8354175387077252e-01 1.6386459914421031e-01 -3 0 2
687 2 1.9585771814865849e+00 -2.7542699037493845e-01 9.8717450600817234e+00 -3 0 0
963 2 2.3447212628682825e+00 -8.9841094416002720e-01 1.4735570443530300e+01 -3 0 -1
530 2 6.2605023665783355e+00 -5.9704698938854961e-01 1.1624584525978099e+00 -1 0 0
301 1 4.8997121456988912e+00 8.4342520407055748e+00 1.8889587460466988e+01 0 0 -1
846 2 6.7830232519067177e+00 -9.6603895236081327e-01 1.1791864758299845e+01 1 0 1
270 2 -1.0154128346849802e+00 6.1986216063351298e+00 1.5605689807504650e+01 2 0 -1
463 1 2.3158868038948084e+00 7.1081738473502476e+00 6.7984225288250624e+00 2 0 0
449 2 4.6540035909364352e+00 8.8230593755621438e+00 6.4764558417989671e+00 -1 0 1
524 2 2.4538279108945176e+00 6.9625246846930242e+00 1.3936216890261205e+01 -2 0 -4
585 2 -3.6474937698522103e+00 8.1801787673624400e+00 1.2555891985987520e+01 -4 0 -4
523 1 1.8326786614593757e+00 6.3456666470626431e+00 1.3543793547696998e+01 -2 0 -4
658 1 5.2494890282875497e+00 4.4602911753956578e+00 1.1402550747080010e+01 -1 0 -2
206 2 3.8583172568865578e+00 1.5834577080188401e+00 1.1620463732232210e+01 3 0 0
96 2 1.5430432980784905e+01 4.7885126383137244e+00 4.0848856619838729e+00 -2 0 -1
441 2 5.4769292303791683e-01 5.5262378314883138e+00 1.4421384362522824e+01 -2 0 -1
151 1 7.9786982257268084e+00 1.6201112593077096e+00 3.3836738540664122e+00 3 0 0
781 1 2.6504748917786629e+00 3.6798371742001930e+00 7.0855626604374922e-01 -2 0 -2
880 1 1.1616483392345550e+01 1.6327435350287942e+00 6.6034290139539751e+00 -3 0 2
626 2 4.7998890848854163e+00 6.7447856547374538e+00 1.8686723169425917e+01 0 0 -1
535 1 1.1108984684971603e+01 9.8543721841180432e+00 2.2271154210986359e+00 -3 0 2
703 1 -3.4112528168887106e+00 4.9865018730347508e+00 1.3475462141841357e+01 -2 0 -1
382 1 2.3958807207574984e-01 5.0635001421006844e+00 1.4527477435179450e+00 -1 0 1
21 2 1.4083828064531327e+01 7.4087155110710778e+00 2.1550082357732099e+00 -3 0 -3
1914 2 3.7878724153138927e+00 9.5165245798009863e+00 1.7795056075454276e+01 -3 0 1
54 2 1.1290747369303393e+01 3.5961259255261009e+00 1.5164719635378692e+00 2 0 0
762 2 8.3384682480867927e+00 -2.8157331324945400e-01 7.9800232676980110e-01 -3 0 2
689 2 1.2260977826615109e+00 1.9061547058739965e+00 5.7651960777356503e+00 -2 0 0
503 2 4.9797326358223106e+00 1.8056696962165475e-01 1.0054547074173502e+01 0 0 0
392 2 4.3990442483081038e+00 7.7002076904544463e+00 1.0826376264762166e+01 -1 0 -1
652 1 9.5195597011474531e-01 6.9083118950175297e+00 3.1634244196590369e+00 -1 0 0
52 1 1.0630423679094305e+01 4.1146283534948251e+00 1.0068527195445203e+00 2 0 0
356 2 -2.9304565960133186e+00 6.0406840652876435e+00 1.6040205753596677e+01 -4 0 -3
477 2 7.2381234070045135e+00 4.2430862927940716e+00 9.1938055811753401e+00 -1 0 2
500 2 -4.1128730012872738e-01 2.3387301912226839e+00 1.2349638845994516e+01 1 0 0
954 2 1.3590405876303274e+01 9.1226347896681439e+00 4.4987125564698767e+00 -1 0 1
806 2 1.0255318772211464e+01 6.1052273710476044e+00 7.0059904284593131e+00 -4 0 1
468 2 -3.0022473019525782e+00 1.0317515727954738e+01 1.0100111622054596e+01 -1 0 2
810 2 7.5712863384953755e+00 6.9259615809477744e+00 5.8629772161742268e+00 -4 0 -1
930 2 1.3721843393025139e+01 3.9202450876256840e+00 6.5760555525342266e+00 0 0 0
702 2 4.9108070867347395e+00 7.7202531170824651e-01 1.6042828329376796e+01 -3 0 -3
501 2 -4.3503021470463832e-01 8.1777042461491911e-01 1.1816317570073750e+01 1 0 0
625 1 4.7086508706544832e+00 5.8596737074469063e+00 1.8211166523004671e+01 0 0 -1
890 2 1.1389307629742104e+01 -1.6249576450763592e-01 6.5552889785236985e+00 -1 0 0
101 2 5.0025843381748842e+00 6.3248071130284353e+00 9.3010253875568285e+00 -1 0 -1
384 2 9.0705453590117413e-01 5.7155957456122124e+00 1.5228909095835648e+00 -1 0 1
245 2 1.0090532048108752e+01 5.5968716703060855e+00 1.4433261851249210e+01 -4 0 -4
622 1 -3.0287174492901525e+00 3.0816269783854802e+00 1.6917838258489450e+01 -2 0 -2
624 2 -2.1102160047676803e+00 2.7340839678995241e+00 1.7238963877728740e+01 -2 0 -2
179 2 7.9533929211373744e+00 8.5563292123454513e+00 1.9052538157862326e+01 -3 0 -1
919 1 1.0738978114620025e+01 -4.7606522134285623e-01 9.3303064384491048e+00 0 0 -2
428 2 -5.1876970999822181e+00 9.3157691732956618e+00 1.5585134155515059e+01 0 0 -1
502 1 5.2234434237301866e+00 -5.9304248287953665e-01 9.4971949319438096e+00 0 0 -1
184 1 -8.5475095002368651e-01 -1.2597985037856199e+00 1.8435742208151218e+01 -4 0 -7
600 2 -2.6334708269326979e+00 1.8055404474260044e+00 9.2458755873608034e+00 -3 0 1
49 1 6.1310928069292761e+00 6.2923945432412109e+00 7.1065224292373879e+00 -1 0 0
183 2 1.0556601457763165e+01 4.3985154613885120e+00 5.9370636346128212e+00 -1 0 0
464 2 2.6587791175052380e+00 7.9823300397076729e+00 6.5523559436610244e+00 2 0 0
393 2 3.8226169628893647e+00 8.2647584077069585e+00 1.2248853678566386e+01 -1 0 -1
1582 1 1.0391486884502898e+01 7.3250357352114577e+00 1.5024683652814236e+01 0 0 0
634 1 8.0144481648216859e-01 1.0064692159260465e+01 8.4043133425568772e+00 1 0 -2
135 2 -4.1264931555062923e-01 4.7411432135779545e+00 7.5103704822521156e+00 1 0 -1
780 2 9.3235510732796385e+00 1.0125546938483950e+01 2.2560601546060166e+00 1 0 -1
977 2 5.0328550518523558e+00 -5.3577768934037051e-01 1.7953249624999057e+01 -3 0 -1
598 1 -2.9746507709535535e+00 9.7068271167226206e-01 8.8517752748060321e+00 -3 0 1
120 2 7.1009144974413401e+00 4.8440929015730960e+00 3.2118964048848655e+00 -2 0 -2
858 2 -7.9911594545172582e-01 7.3936697343743027e+00 8.8832071717332024e+00 -1 0 -3
640 1 1.3566919605952585e+00 7.3386528908891027e+00 1.1067894804900970e+01 4 0 -1
753 2 -5.2235136350391951e+00 5.7648672914752668e+00 1.6538180904674437e+01 0 0 2
924 2 2.9578847003995419e+00 8.7549490738343589e+00 1.4494009637359808e+01 -3 0 -3
119 2 5.5232383789467008e+00 4.7406771492671771e+00 3.5444041163843445e+00 -2 0 -2
525 2 1.4402004373961210e+00 6.8487733970511755e+00 1.2731059194651953e+01 -2 0 -4
495 2 3.5649637382956105e+00 9.5842032532327437e+00 1.0158699148970657e+01 -3 0 -2
971 2 2.6596297880255237e+00 6.6893006827030757e+00 6.9530424583115080e-01 0 0 1
559 1 8.4110512410310783e+00 -2.9467444895492023e-01 7.4795925996485302e+00 -2 0 1
212 2 8.5726499005371029e+00 4.1291662691083832e+00 7.6179159034640129e+00 -5 0 -2
701 2 4.1327897066900352e+00 1.8508631879854569e+00 1.5072622706936304e+01 -3 0 -3
5 2 7.4216170463531794e+00 8.6186458314511007e+00 5.6184158004545993e-02 1 0 0
470 2 1.6379437136357456e+01 1.8541987773845134e+00 8.5999838522000149e-01 -7 0 -2
471 2 1.6007035009165641e+01 3.3106118902188459e+00 1.4801259479457234e+00 -6 0 -2
708 2 1.8290951818755321e+00 7.5991969156537564e+00 1.6292257638616853e+01 -1 0 -1
872 2 5.7570408624323202e+00 -1.2622273373763129e+00 6.1847969873723736e+00 -2 0 -1
46 1 1.4348653538353622e+01 8.4864755514392467e+00 6.5807481788802891e+00 -3 0 0
992 2 1.3806974400128103e+01 1.7769334935144876e-03 9.8155822890039062e+00 1 0 1
856 1 -1.9825626244965200e-02 7.4482060109229966e+00 8.2743331969195015e+00 -1 0 -3
627 2 4.4081223414071742e+00 5.1413647613767930e+00 1.8884057878721464e+01 0 0 -1
111 2 1.6693495401746414e+00 3.4047041007243228e-01 1.7650325064339633e+01 1 0 -4
869 2 -2.8256926765555987e+00 6.4623600531180498e+00 9.5169744929377913e+00 2 0 0
16 1 1.6737279931091953e+00 3.1977254872178191e+00 1.6507294134918045e+01 0 0 1
178 1 7.4862013354431332e+00 8.4024033818588375e+00 1.8168541619331315e+01 -3 0 -1
974 2 9.6402819606772017e+00 5.1979365149513801e-01 1.5529758126440305e+01 -4 0 -2
118 1 6.3291447771540286e+00 4.2177759994376869e+00 3.4585213373073773e+00 -2 0 -2
214 1 2.6339699091024058e+00 9.6021022678864920e+00 5.8525098815392758e+00 0 0 -2
623 2 -3.3391255252888365e+00 2.4163671146030601e+00 1.6324063843888215e+01 -2 0 -2
1668 2 4.2896651608183722e+00 4.4635350525257156e+00 1.1703655497155538e+01 -1 1 -2
644 2 1.2462643575288714e+01 5.1799084384798078e-01 1.1472377368615465e+01 -4 0 -3
268 1 -1.5361511982251059e+00 6.9506773246610081e+00 1.5971194342782947e+01 2 0 -2
635 2 1.7228713106549054e+00 9.9867837569522599e+00 8.8360725681632672e+00 1 0 -2
239 2 7.1963668055190917e+00 5.7024405386585952e+00 1.6392443753495993e+01 0 0 0
716 2 7.4561233339949897e+00 2.8522098755186445e+00 1.6492984859217841e-01 1 0 2
717 2 7.6932398797206849e+00 3.9840158927363243e+00 1.0903888435404661e+00 1 0 2
240 2 8.1761006923587374e+00 5.9723707774614976e+00 1.5182161122523995e+01 0 0 0
85 1 1.7329553983820830e+01 -6.0915334061552640e-01 7.6418987949211081e-01 1 0 -2
17 2 1.0301424749440553e+00 3.5341579405077770e+00 1.5845739730528848e+01 0 0 1
98 2 5.0356042056945247e+00 9.8585673796114435e+00 1.2844833884202785e+01 0 0 -1
905 2 2.5555246171016277e+00 9.8292093195330779e+00 1.6968442310065381e+01 -3 0 1
645 2 1.1277591789473808e+01 1.6101361618873460e+00 1.1370074121446496e+01 -4 0 -3
613 1 -6.4543658204577703e-01 2.1188023108401799e+00 1.8246424797656093e+01 -2 0 -1
246 2 1.0639559165585307e+01 4.2749214800798416e+00 1.4009450911188338e+01 -4 0 -4
238 1 7.2544053756372966e+00 6.0245188644159509e+00 1.5427221178752989e+01 0 0 0
522 2 7.8117572224576044e+00 3.6723092836763382e-01 1.0431329515282780e+01 -5 0 -2
715 1 8.0772691328068440e+00 3.1385103321086376e+00 8.4199722445045566e-01 1 0 2
115 1 1.3956583287611762e+01 5.3318341380290128e+00 9.2427844010816163e+00 -5 0 -5
426 2 1.3381386513833919e+01 3.4481290832198193e+00 3.0566130217127516e+00 -2 0 1
494 2 4.0334235528988049e+00 9.5500375514113518e+00 8.7920291221057578e+00 -3 0 -2
308 2 -7.9719013680967965e-01 9.6002504504926964e+00 1.3551495156294123e+01 1 0 1
250 1 5.2139623268629300e+00 8.2022637499116122e+00 4.3627216929099246e+00 -3 0 2
933 2 -1.6981722469775917e+00 1.9577971111362693e+00 1.4500552100800979e+01 -2 0 -1
857 2 2.0281664861990789e-01 8.4154750109645811e+00 8.2662063195417517e+00 -1 0 -3
868 1 -2.2150617690274776e+00 7.2204149533192812e+00 9.7747155796911329e+00 2 0 0
1584 2 1.0693886563997918e+01 6.8032365775658477e+00 1.5791926261151724e+01 0 0 0
18 2 1.2630955779209838e+00 2.2881858082982598e+00 1.6591816772516996e+01 0 0 1
950 2 -3.7753885882680120e+00 -7.5643300941705227e-01 1.8485205803636692e+01 -1 0 1
87 2 6.7022871745298501e-02 -1.3021479661589095e+00 5.1252349064175096e-01 2 0 -2
785 2 3.2700641149516252e-01 2.1408617820207478e+00 2.0744943684309050e+00 -3 0 -2
870 2 -2.7075014341943242e+00 8.0276365635807050e+00 9.7295413125051393e+00 2 0 0
211 1 9.2154695126921879e+00 3.6290496052166619e+00 7.0025290295381675e+00 -5 0 -2
387 2 2.3872860934959568e+00 3.5958431778691606e+00 4.8468373433697298e+00 0 0 -2
252 2 5.1451888176770897e+00 9.0277936773896741e+00 3.8677947837535047e+00 -3 0 1
643 1 1.1841801724277422e+01 1.0559992854354494e+00 1.2004471595246283e+01 -4 0 -3
591 2 7.9182652176552715e-01 9.2275791512770962e+00 1.1493605552444365e+01 -4 0 -1
466 1 1.4134660528869631e+01 9.6590796097482290e+00 1.0256157081211821e+01 -2 0 2
297 2 2.0151500315116637e+00 1.0085815968089660e+01 2.8285204355728437e+00 2 0 3
116 2 1.3981071684140364e+01 5.2100960913623711e+00 8.2880123759545370e+00 -5 0 -5
224 2 -1.4487240771095671e+00 7.3941741080357168e+00 1.7765295268919392e+01 -2 0 -2
845 2 7.3343973958432809e+00 1.6485822847399256e-01 1.2667317906613070e+01 1 0 1
48 2 1.4971736435883214e+01 9.2510718235859493e+00 6.9362545521302721e+00 -3 0 0
117 2 1.3023546982459164e+01 5.3026145747014484e+00 9.4884409356437711e+00 -5 0 -5
931 1 -8.9340616949066032e-01 1.6168543021149198e+00 1.4892386966515240e+01 -2 0 -1
429 2 1.1577026851348606e+01 8.4411008034329935e+00 1.4926652687488994e+01 -1 0 -1
385 1 2.3992119381279506e+00 2.6384941617821251e+00 4.6434190832492623e+00 0 0 -2
951 2 -3.3226838294168002e+00 -4.5085465970357885e-01 1.6982574393761013e+01 -1 0 1
961 1 1.9802309078544118e+00 -8.0563603543313489e-02 1.4376554100847638e+01 -3 0 -1
42 2 3.3786694833204418e+00 6.1154654835413726e+00 7.7311457185286683e+00 -2 0 3
726 2 1.4901838036581985e+01 2.3157562798825801e+00 5.8897919921790916e+00 1 0 1
876 2 1.1278723599392698e+01 5.6184056008118377e+00 1.0527044641468198e+01 -3 0 1
769 1 1.1803814695358746e+01 9.0469006784486687e+00 6.8619518291370651e+00 0 0 -3
1002 2 1.1770029062189614e+01 6.7109432687400865e+00 2.9769225505360959e+00 -1 0 1
4 1 1.1200738500062899e+00 9.4529634078596558e+00 1.8852396776490796e+01 1 0 -1
714 2 -1.5544432356720912e+00 -7.7047539791177844e-01 1.0463473317197783e+01 0 0 3
41 2 4.3751166433542963e+00 5.0515699667650402e+00 7.7083303054149130e+00 -2 0 3
976 1 5.1379798530481198e+00 -7.0720854776338060e-01 1.7052269568716810e+01 -3 0 -1
812 2 1.0602982784938483e+01 3.5004128830350538e+00 9.7532636917446105e+00 -2 0 -1
932 2 -4.7960135605090404e-01 1.3680315158297476e+00 1.4080257886169873e+01 -2 0 -1
506 2 1.6227310154219445e+01 8.7548822446180328e+00 1.1254965511632387e+00 -4 0 -2
213 2 8.5940441521622084e+00 3.1208717614201538e+00 6.4249970822966773e+00 -5 0 -2
978 2 6.0976861831317706e+00 -8.5753245011296886e-01 1.6953238946179450e+01 -3 0 -1
672 2 -1.3000537814606816e+00 1.2095339097752977e-01 8.2256456954422994e+00 -3 0 -1
338 2 4.5034026274879366e+00 6.7951507930456128e+00 3.7889046908472492e+00 -1 0 -1
938 2 -1.1193112920997204e+00 8.2105284581642088e+00 4.5167177961033973e+00 2 0 1
969 2 1.9662934620092942e+00 4.3175346666060435e+00 1.0694047968003972e+01 -1 0 1
545 2 2.3389585805695461e+00 2.6800112856379119e+00 1.4988864210574889e+01 2 0 1
386 2 1.9730891559234143e+00 2.5351424385209236e+00 3.7464448241383894e+00 0 0 -2
937 1 1.6282076865850364e+01 7.4908098674379939e+00 4.0035841148828375e+00 1 0 2
40 1 3.8044384277744450e+00 5.5180138820995710e+00 8.3534184922761288e+00 -2 0 3
786 2 1.6892224451494673e+00 2.5946460148855821e+00 1.6105543598785728e+00 -3 0 -2
926 2 -3.3195394388708701e+00 -7.8832180464268586e-01 1.2471569497372464e+01 2 0 2
724 1 1.4258109692307578e+01 2.5170093280915031e+00 6.5971915387622797e+00 1 0 1
784 1 1.2444714234662673e+00 1.9718384239773581e+00 2.2740701425479171e+00 -3 0 -2
967 1 1.7976719467103730e+00 4.3843793250948355e+00 9.7362638317647150e+00 -1 0 1
553 1 8.6926070883137285e+00 3.1788323443998889e+00 1.6376350318932488e+01 -5 0 -2
681 2 5.6004870084334186e+00 3.7740401138290061e+00 1.7618694762554455e+01 -3 0 -3
649 1 7.3541406036943506e+00 1.7889809315939633e+00 5.9016369681120615e+00 -4 0 0
650 2 7.8063521645170191e+00 1.0539786798977455e+00 6.2832136621229528e+00 -4 0 0
51 2 5.9936712554678468e+00 5.3040631885603213e+00 6.8765489159878737e+00 -1 0 0
36 2 -8.1530989177581814e-01 1.6385093036927421e+00 4.8820383999505772e+00 -1 0 0
945 2 3.8812899346294145e+00 2.4015525156132060e+00 4.1376439704154064e+00 0 0 3
673 1 -5.0825359487056083e+00 7.6664837626096016e+00 1.9020365977659552e+01 0 0 -4
939 2 1.6209962125111595e+01 7.8054333921062948e+00 3.0707636927378119e+00 1 0 1
397 1 -3.9187958494708508e-01 4.2815126663845291e+00 4.0132929720429251e+00 3 0 0
127 1 7.4355353895252962e+00 5.6879172305285310e+00 1.8037014176887951e+01 -2 0 -2
128 2 6.4245401976157490e+00 5.7123321428731204e+00 1.8205645891273921e+01 -2 0 -2
1407 2 4.9844803221449108e-01 4.3279563508664891e+00 4.4537774473305962e+00 3 0 0
34 1 1.6230420739527311e+01 1.5014795679846351e+00 4.3917923325221819e+00 -2 0 0
928 1 1.3499618003514733e+01 4.8771342291636159e+00 6.6162844388874777e+00 0 0 0
922 1 3.7181544246845428e+00 8.4661883557975468e+00 1.3941992321383344e+01 -3 0 -3
152 2 7.8004687831093449e+00 6.8278058842031486e-01 3.1214698745454368e+00 3 0 0
439 1 -1.0301281181717936e-01 4.9531982440941951e+00 1.4898177500894505e+01 -2 0 -2
350 2 1.2826729756779191e+01 1.0567731095658206e+00 3.1760094006171319e-01 2 0 4
537 2 1.1500039219331246e+01 9.5793504588226952e+00 3.0204239063854832e+00 -3 0 2
176 2 4.8877331773839661e+00 -5.0130863067865461e-01 1.2340158127674352e+01 -5 0 1
783 2 -3.9423199474465549e+00 3.5568794025422257e+00 1.8814523903294532e+01 -2 0 -3
851 2 1.3022332895881298e+01 9.4902881909561891e+00 1.3380310400749019e+01 0 0 1
994 1 7.8544658152923770e+00 8.1092741765962781e+00 8.1458293714620496e+00 3 0 1
725 2 1.3551322165253364e+01 1.8926507631895921e+00 6.4062848312534255e+00 1 0 1
979 1 1.1595177943853965e+01 1.0251713381361858e+01 9.3560976396367952e+00 -2 0 0
129 2 7.8868450674503761e+00 5.2087507616423192e+00 1.8769603724483034e+01 -2 0 -2
230 2 2.0067536390092884e+00 -8.7034540434942120e-01 7.6268932910530367e+00 0 0 -2
173 2 6.7761965819464880e+00 4.7216651754031878e+00 1.4169877677625346e+01 -1 0 -2
850 1 -4.0830239900234480e+00 9.8160692466388646e+00 1.2962806503047949e+01 1 0 1
776 2 1.1790045886279966e+01 -5.3837774675553640e-01 2.1030583294512706e+00 -2 0 2
980 2 1.1419675677919869e+01 9.8364825871913784e+00 8.5201549174775302e+00 -2 0 0
462 2 9.1320335260834185e+00 5.3033217136051141e+00 1.2397123353120403e+01 -4 0 -2
651 2 7.4986010722554735e+00 1.8356797527977018e+00 4.9077274586750113e+00 -5 0 0
996 2 8.0471119740442365e+00 9.0145580864006281e+00 7.8555772624789348e+00 3 0 1
611 2 -1.2992234256820880e+00 3.6249411229643780e+00 9.3266964809403490e+00 0 0 2
275 2 1.5605038537058213e+01 -6.3367270142050169e-01 9.6276647147747774e-01 2 0 0
750 2 5.8837752454100229e+00 8.6068752791421712e+00 1.6284411294554982e+01 -3 0 1
749 2 6.3765686636831633e+00 7.5217349987759725e+00 1.5219522123065602e+01 -3 0 1
102 2 6.3032195521206047e+00 7.0638414286483506e+00 9.9087976237054267e+00 -1 0 -1
497 2 5.6857390707467701e+00 3.5501475378008305e+00 7.5285113567350397e+00 0 0 1
498 2 5.6802134176722703e+00 3.1432584432872437e+00 6.0437100841370111e+00 0 0 1
395 2 -1.2193175073446127e-01 6.6345915227669572e+00 1.8887113919311229e+01 -3 0 -4
889 1 1.0995706559692607e+01 -1.0089158422133186e+00 6.3367531569922155e+00 -1 0 0
349 1 1.3603108771925758e+01 1.6197734338509617e+00 2.1905032280507325e-01 2 0 4
679 1 6.1300215927418877e+00 3.0830374669853802e+00 1.7133568382534563e+01 -3 0 -3
398 2 -1.2735216670806127e-01 4.6067023449073972e+00 3.1106000947890764e+00 3 0 0
540 2 1.7042467920082154e+00 3.6318952996238041e-01 1.6288897483657869e+00 -4 0 -3
671 2 -3.8447909621001619e-01 -1.1639073307442338e-01 7.0548740332800728e+00 -3 0 -1
321 2 1.1102671505236064e+01 3.2891780618274824e-01 1.3759984990864320e+01 -4 0 -3
943 1 4.6844544737513365e+00 1.9865368031312460e+00 3.7386283608369082e+00 0 0 3
560 2 7.8611923819330496e+00 -1.1256529176036523e+00 7.2429944747042523e+00 -2 0 1
222 2 -2.8898747625399941e+00 1.0321337325557412e+01 1.6633208508187121e+01 -2 0 -3
313 1 -4.2694480525530158e+00 9.5877374828730808e+00 1.7154056817783133e+01 -3 0 -3
172 1 6.7845394358322002e+00 4.1848563496951217e+00 1.3390438028927383e+01 -1 0 -2
298 1 1.1501655775426547e+01 1.0740071741073001e+00 1.7881731695326025e+01 -3 0 -2
680 2 5.5585439486387793e+00 2.5810227954955605e+00 1.6513108376290472e+01 -3 0 -3
314 2 -4.2264557720283964e+00 8.7285172818133638e+00 1.7687953469180641e+01 -3 0 -3
538 1 2.3910214308949520e+00 -1.9497409942251820e-01 1.2532994856774633e+00 -4 0 -3
944 2 5.3480029720703399e+00 2.6918107652096639e+00 3.5588700877526693e+00 0 0 3
100 1 5.4725101266048561e+00 6.6603116465065124e+00 1.0079974464659847e+01 -1 0 -1
1667 2 5.4480211200744639e+00 5.3534147051613639e+00 1.0992717600712737e+01 -1 1 -2
352 1 1.0670590533198627e+01 8.8907316295274335e+00 1.1504214892572010e+01 -1 0 0
174 2 5.9637684545314853e+00 4.2523377682026107e+00 1.2909038476222689e+01 -1 0 -2
388 1 1.4049136428904623e+01 -2.2763514017182640e-01 5.4230259024883587e+00 -1 0 0
465 2 1.4876354208847085e+00 7.1658011189395765e+00 7.3711838126282991e+00 2 0 0
84 2 -1.2195787986073805e+00 6.1404714673049225e+00 5.6887968697843707e+00 0 0 -3
460 1 8.4304564144992415e+00 5.6308558905429287e+00 1.1803055221956615e+01 -4 0 -2
607 1 4.3116188172950380e+00 1.5902172699101005e+00 1.1076616623146591e+00 -3 0 0
167 2 9.3919088370471133e+00 8.2235142594914628e+00 5.1081524531487599e+00 -4 0 -4
330 2 -4.3721733647443362e-02 9.8570288354039288e+00 4.8518693577168364e+00 -1 0 0
311 2 6.9499978104215057e+00 9.4449926566620217e+00 1.0461178322991751e+01 0 0 -2
595 1 2.1131117009035023e+00 5.2801847252493221e+00 4.9108143199751666e+00 3 0 -2
528 2 4.7910175200007306e+00 6.2190514798968755e-01 4.7170276882598774e+00 -2 0 -1
109 1 1.1038140370027971e+00 6.3125597079965745e-01 1.6870852876302902e+01 1 0 -4
615 2 -2.9109706289420245e-01 1.3027550728804314e+00 1.7847028228245311e+01 -2 0 -1
251 2 6.1186071385277305e+00 7.9731919761216155e+00 4.5743258732633949e+00 -3 0 1
461 2 7.7191690671371980e+00 5.0690324208255353e+00 1.2307355166149552e+01 -4 0 -2
599 2 1.4446822279107511e+01 1.1979406604531153e+00 8.0591451587412006e+00 -4 0 1
408 2 2.1232762676382002e+00 2.2864981214996942e+00 1.0406286764412410e+01 -2 0 -2
20 2 1.3836394521744275e+01 6.0933600409996496e+00 3.1361217472467846e+00 -3 0 -3
182 2 1.0744120375883142e+01 5.5791078411355359e+00 4.8249170034983155e+00 -1 0 0
35 2 1.6322966981746717e+01 2.0590110829612907e+00 3.5173316003656296e+00 -2 0 0
904 1 3.4888082911236271e+00 1.0079531950320206e+01 1.7091434802956030e+01 -3 0 1
745 1 1.1590204135446353e+01 6.3514766357744339e+00 1.1925543172329624e+01 -3 0 0
475 1 7.7821498374811053e+00 5.0111389788709859e+00 8.8855458242859626e+00 -1 0 2
68 2 1.4838656658993317e+01 5.2210021185228275e+00 1.6738785047023306e+00 -4 0 -2
526 1 4.5903097484924444e+00 -3.0695275921923204e-01 5.0831833177151573e+00 -2 0 0
133 1 -1.9636345260492183e-01 3.8989019711091020e+00 7.9935233980820435e+00 1 0 -1
610 1 -2.1323383207132514e+00 3.5056431897768761e+00 9.8473538164375238e+00 0 0 2
675 2 -5.6122370592594306e+00 7.1010169115890722e+00 1.8390784161545248e+01 0 0 -4
82 1 -1.6194128392645584e+00 6.0273238449397848e+00 6.5888561364392260e+00 0 0 -2
300 2 -5.6147015158831346e+00 4.7985486023501989e-01 1.7755639246034370e+01 -2 0 -2
307 1 -1.5312090528530433e+00 9.3121407101491585e+00 1.4120507971516425e+01 1 0 1
782 2 3.0225496810312902e+00 4.5549317011062103e+00 9.5154465185922354e-01 -2 0 -2
690 2 2.8809104845488598e-03 2.3948831409702547e+00 6.7517916574788162e+00 -2 0 0
621 2 4.9910312128541650e+00 9.9515814495933235e+00 1.7001439710048776e+00 -3 0 0
728 2 9.0778904086248247e+00 8.4058949031395205e+00 1.0933281779983153e+01 0 0 1
113 2 7.2164085693350000e+00 2.3478474657054385e+00 1.3600939575936005e+01 -2 0 -1
515 2 -1.2369216653897288e+00 1.0233312049480546e+01 6.8203397798430272e+00 0 0 -1
529 1 6.9808131055740077e+00 -5.8189914427229761e-01 1.8205624444531494e+00 -1 0 0
459 2 -8.1218896386144945e-01 -9.8603305965798294e-01 2.5932763286186655e+00 -2 0 -2
269 2 -1.5615464377084702e+00 7.6297603737804423e+00 1.5262778458116090e+01 2 0 -1
67 1 1.5440853427883741e+01 4.7786830776417979e+00 1.0509487855921253e+00 -4 0 -2
727 1 8.2547777297675626e+00 8.0228403452129715e+00 1.0619477809541367e+01 0 0 1
114 2 6.3761771135382990e+00 1.3080909291855800e+00 1.4326918943121756e+01 -2 0 -1
425 2 1.3281030858089188e+01 2.3519442599061007e+00 1.8619644446828705e+00 -2 0 1
544 1 2.7348400011787737e+00 2.4317238190127726e+00 1.4087777659215970e+01 2 0 1
875 2 1.0995531327099302e+01 5.8474335021934314e+00 9.0341073952251811e+00 -3 0 1
1001 2 1.0521488501168371e+01 7.2798274572828525e+00 3.6859707123124870e+00 -1 0 1
496 1 5.3655787779091924e+00 3.8183713032495277e+00 6.6665545530881536e+00 0 0 1
841 1 -1.9126712580811751e+00 -6.4260522592738401e-01 1.6159187395625125e+01 -5 0 -5
337 1 4.0849506612049478e+00 5.9683828010603417e+00 3.4973874374960392e+00 -1 0 -1
457 1 -1.0516311809237298e+00 -1.0793963957621178e+00 3.5392136433323205e+00 -2 0 -2
467 2 1.3352952083309873e+01 9.9358954752891986e+00 9.7375775600987033e+00 -2 0 2
844 1 7.6060180272546694e+00 -4.6645567729266346e-01 1.1921950955678568e+01 1 0 1
583 1 -3.5573890470187255e+00 7.2642213375392579e+00 1.2262327414763208e+01 -4 0 -4
584 2 -3.2404657526821103e+00 7.2096826085800707e+00 1.1398994430987081e+01 -4 0 -4
641 2 1.1902887985820958e+00 6.9075828937810027e+00 1.0203621038637863e+01 4 0 -1
110 2 1.3198400056713515e+00 1.6716868862219059e-01 1.6048684318048778e+01 1 0 -4
389 2 1.3501178812587742e+01 -6.7530618423424427e-01 4.7827667947581229e+00 -1 0 0
47 2 1.4835042741834735e+01 7.6698744593892094e+00 6.4238245638484912e+00 -3 0 0
207 2 5.2649074829670388e+00 1.9171316918531125e+00 1.1825742743546835e+01 3 0 0
808 1 7.9956922275602382e+00 7.2657788619428398e+00 5.0547185544911297e+00 -4 0 -1
619 1 4.3756738111094879e+00 9.6748000715391687e+00 1.0058025814778839e+00 -3 0 0
577 1 2.8420395950540671e+00 4.1922499972258862e+00 1.2163978545124145e+01 0 0 0
19 1 1.3575570714811676e+01 6.5707228711660672e+00 2.3360398380286047e+00 -3 0 -3
1000 1 1.0888333503169635e+01 6.4404670245415296e+00 3.2704127249040233e+00 -1 0 1
294 2 -2.2552180659125964e+00 4.0944859462267571e+00 1.2914838091399002e+01 1 0 -3
390 2 1.4621518597165341e+01 2.5343643928072868e-01 4.8549711740118680e+00 -1 0 0
589 1 3.0413284342040914e-01 9.9129361470819521e+00 1.1993668378182727e+01 -4 0 -1
521 2 8.0346859268203623e+00 5.0152992274092645e-01 8.9154705799887282e+00 -5 0 -2
813 2 9.5417069002498636e+00 2.2313495582331844e+00 9.8626492595914161e+00 -2 0 -1
912 2 1.1225565331516163e+01 2.6579081818716981e+00 3.6798150768722291e+00 -2 0 1
458 2 -1.3005753169212559e+00 -1.8953629341946154e-01 3.8685633772176158e+00 -2 0 -2
746 2 1.2519390992650418e+01 6.5577782954269468e+00 1.1950049352361056e+01 -3 0 0
771 2 1.1378227181919000e+01 8.3338225903189382e+00 7.4027835137733158e+00 0 0 -3
527 2 3.8135368640937672e+00 -3.4476948126342055e-01 5.6426664856368269e+00 -2 0 0
809 2 7.9716344026037183e+00 6.6119668350831144e+00 4.3119204741431680e+00 -4 0 -1
866 2 3.2555271926941955e+00 5.7830930205403845e+00 1.7133903159986062e+01 -3 0 -1
94 1 1.4452522494253666e+01 4.6879055265284508e+00 4.0762248141634041e+00 -2 0 -1
225 2 4.5129820214676437e+00 7.0706540900105246e+00 1.0438623924020542e-02 -2 0 -1
770 2 1.2802951687421965e+01 8.7453191689628156e+00 6.6954322441087193e+00 0 0 -3
123 2 1.0057725351515986e+01 3.4916880408270110e+00 1.7614303341675527e+01 -2 0 -1
440 2 -5.8485468661382534e-01 4.4351406685258548e+00 1.4201194693777930e+01 -2 0 -2
383 2 5.6253287648238948e-01 4.3308954220709932e+00 9.6354529357107355e-01 -1 0 1
991 1 1.3310710594572956e+01 -6.6256274802715265e-01 1.0330804768789957e+01 1 0 1
499 1 1.0484022378435665e-01 1.4945098702550133e+00 1.2271013640176101e+01 1 0 1
910 1 1.0523251771592593e+01 2.6376934550171400e+00 4.2940728636597765e+00 -2 0 1
546 2 2.4584281569122899e+00 1.4802454785631602e+00 1.3945034627403839e+01 2 0 1
549 2 8.1459395853916678e+00 8.9664831896155430e+00 1.6680537993927018e+01 -3 0 -4
729 2 8.2845599254361790e+00 7.1821372800190524e+00 1.1131582582558382e+01 0 0 1
612 2 -2.8715039622128096e+00 4.1879696392529882e+00 9.6382133635002134e+00 0 0 1
674 2 8.8885494957995537e-01 8.3714543857267252e+00 1.7515588874438887e-01 0 0 -3
121 1 1.0935272465605671e+01 3.6896886243523683e+00 1.7993646553494305e+01 -2 0 -1
911 2 9.8043699064062650e+00 2.0626490708584631e+00 3.9176713674756267e+00 -2 0 1
424 1 1.2812828458562606e+01 2.7798056653627858e+00 2.6113755424543097e+00 -2 0 1
811 1 1.0497239663793309e+01 2.5376025451121333e+00 1.0063669851272170e+01 -2 0 -1