LAMMPS data file via write_data, version 3 Mar 2020, timestep = 6450000

2016 atoms
2 atom types

0.0000000000000000e+00 1.7919842924009803e+01 xlo xhi
-2.0643896945806262e-02 4.5016803873850023e+01 ylo yhi
0.0000000000000000e+00 1.9059638522624081e+01 zlo zhi
4.0322551775794767e-02 -6.6506108729190352e+00 -2.2582148384856282e-02 xy xz yz

Masses

1 16
2 2

Atoms # atomic

640 1 7.8876958533144172e+00 1.0467057497537425e+01 1.3673719204787890e+01 3 0 -2
223 1 2.0642727555475293e+00 9.5865832798248789e+00 1.3629826404304209e+01 -2 0 -1
133 1 1.7833036827606121e+00 1.1070381734741675e+01 7.2482953119175031e+00 1 0 -1
654 2 6.4264547688853941e+00 5.7251200007229821e+00 1.1725704235196350e+01 -1 0 0
337 1 -1.0984524566066827e+00 1.0783429138419008e+01 1.3041573644920728e+01 0 0 -1
696 2 8.4096807885030707e+00 1.0661905036227052e+01 9.4056282134847820e+00 -1 0 0
929 2 1.4507805469655080e+01 2.3814659894579973e+00 7.2614160821416340e-01 0 0 0
513 2 7.8492820319389294e+00 1.6743738296953254e+00 1.4741569777240844e+01 1 0 0
368 2 9.5509546176152984e+00 8.8427415408258199e+00 1.8457642368871230e+01 -2 0 -1
120 2 -1.5226592771290992e+00 9.7867736289433100e+00 1.7632506694131148e+01 -2 0 -3
457 1 1.7057513736746209e+01 9.5512495190310198e-01 1.9922377888680824e+00 -3 0 -2
821 2 5.6786069308352873e+00 4.6453782042540706e-03 1.3271923117952392e+01 -3 0 1
437 2 1.3981526194156338e+01 1.0268754006350022e+01 5.2875395399985203e+00 -3 0 -1
406 1 3.5670340870947497e+00 5.3279539586610438e+00 8.6953976619570348e+00 -2 0 -2
867 2 2.2076505649553191e+00 2.1389574923101007e+00 1.2578800156739348e+01 -3 0 -1
596 2 4.7423948916496945e+00 2.4060632322425897e+00 1.4510165442182471e+01 3 0 -2
1647 2 1.0682931821006900e+01 1.0121263709089297e+01 1.6662120064304521e+01 0 0 0
1580 2 6.9498880081944030e+00 8.0404653838547482e+00 1.8474994761298504e+01 -1 0 0
881 2 1.0321104146184503e+01 4.0250454953516703e+00 7.0687691414544869e+00 -3 0 2
319 1 1.0803021137837479e+01 1.8846850254198730e+00 1.3509104800783385e+01 -4 0 -3
160 1 7.6750657851815163e-01 7.4795536542817764e+00 1.1871339171022504e+01 1 0 -5
762 2 5.3859065936027051e-01 1.0110773941887035e+00 1.8206880488757946e+01 -3 0 1
609 2 -4.9271574422856554e+00 3.6899716139120224e+00 1.7749148172347073e+01 -3 0 -1
1583 2 8.6950635697395668e+00 5.9161523590757161e+00 1.9011591548310228e+01 -1 1 1
122 2 1.5318474086575838e+01 5.8283412586741479e+00 2.2350044466544992e+00 -2 0 0
685 1 1.9583664746127547e+00 1.7466486270301871e+00 8.8982984861315035e+00 -3 0 1
407 2 3.7988530931085602e+00 6.0178244329655568e+00 8.0498476934787320e+00 -2 0 -2
179 2 6.0339140168627932e+00 8.3937699242035890e+00 1.5827698570588343e+01 -3 0 -1
972 2 5.0666847274672255e-01 6.0415428987046109e+00 3.4511776497073048e+00 0 0 1
97 1 4.8666374597949407e+00 1.2914120854770057e+00 8.4410934189616338e+00 0 0 -1
244 1 5.9246714367372721e+00 6.7583329694420957e+00 1.8362490632194962e+01 -4 0 -4
282 2 3.8537672666900136e-01 6.6542726961378209e+00 8.0760629190519211e+00 -3 0 1
704 2 6.3792679194893642e+00 6.5802911799379507e+00 1.0423747604386027e+00 -2 0 0
539 2 2.3850317521708062e+00 3.9840903943283648e+00 3.5692957637079923e+00 -4 0 -3
359 2 -1.3337430315376206e+00 9.3548570764957439e+00 1.0039003462020476e+01 2 0 -1
1012 1 1.1318958946744293e+00 5.6671193500496813e+00 1.6844039477302264e+00 0 0 0
741 2 4.5787240507965699e+00 8.1403267992750354e+00 1.1680514244597033e+01 0 0 1
270 2 1.1645487561317122e+01 4.4639757875794999e+00 1.6250005755122203e+01 1 0 -1
535 1 1.3728427823325802e+00 9.1417577535744066e+00 1.4051420576888529e+00 -3 0 2
760 1 1.3644219461420466e+00 1.3346649069497452e+00 1.7865753445156990e+01 -3 0 1
524 2 5.2162792585779094e+00 3.7712143342435027e+00 6.6548670824638014e+00 -2 0 -4
915 2 8.7032874367325661e+00 6.0773861341560620e-01 1.1621916694802588e+01 0 0 2
523 1 4.6180858965547493e+00 3.1212828532070289e+00 6.1988708810389896e+00 -2 0 -4
658 1 7.9339860814821916e+00 3.0356988897223536e+00 4.2807573045071816e+00 -1 0 -2
206 2 2.1832942579865753e+00 2.5283188809859971e+00 1.0454601458936176e+01 3 0 0
229 1 2.0244605839784753e+00 8.8907251661159303e-01 5.0073342904262494e+00 0 0 -2
963 2 1.2332844497937412e+00 2.6701096717345378e+00 1.4833887307447489e+01 -3 0 -1
151 1 5.6280511692418322e-02 5.7465241373064568e+00 1.8395657422112752e+01 3 0 -1
781 1 7.6349207463316970e+00 3.6702089009277135e+00 1.6734846513590131e+01 -3 0 -3
880 1 1.1139394147051709e+01 3.5248352764424431e+00 7.1955758164332879e+00 -3 0 2
178 1 5.2108961007114774e+00 8.9481344331523633e+00 1.5771345327438688e+01 -3 0 -1
446 2 8.4897156892159966e+00 7.0682807491645150e+00 8.7630666621589199e+00 0 0 0
703 1 6.0486366827038980e+00 6.7872108375181952e+00 1.9469117333738211e+00 -2 0 0
382 1 1.7085558925028614e+01 3.7578327629867743e+00 6.8180674003192354e-01 -2 0 1
418 1 5.1513297986704707e+00 9.2808421483397474e+00 8.7666972853004577e+00 -2 0 0
1002 2 1.0489314384516359e+01 7.6271052458584032e+00 4.5866888973178961e+00 -1 0 1
225 2 2.1228084832567209e+00 1.0253265720896479e+01 1.4364041615992084e+01 -2 0 -1
993 2 1.2735384729409420e+01 1.0834697708671597e+00 8.7410980591410645e+00 1 0 1
689 2 -2.1837680059939775e+00 5.7859521870610626e+00 1.2202136367409327e+01 -2 0 0
671 2 6.4209492198919937e-01 1.2864459209128465e+00 6.0655159805083478e+00 -3 0 -1
1914 2 3.2933370053419004e+00 5.6685415462258879e+00 5.1159643260289736e+00 -3 0 2
652 1 6.8131925261074757e+00 5.2598557118427820e+00 1.0929184576620630e+01 -1 0 0
355 1 9.5284885895475657e+00 6.7202375879191294e+00 3.6030483622764549e+00 -4 0 -3
335 2 1.2192652987169959e+01 7.2501241749491410e+00 5.9324264443060919e+00 -2 0 -2
843 2 -1.3217295514367189e+00 1.3791377779567093e+00 1.4317585441610387e+01 -5 0 -5
500 2 -1.6065330404932012e+00 3.5595801085221308e+00 8.1175222179759015e+00 1 0 0
230 2 2.1934888807947148e+00 1.6390891564309047e+00 4.3964910466187668e+00 0 0 -2
776 2 1.0328233850925500e+01 1.5322857189280201e+00 4.6697379792790394e-01 -2 0 2
87 2 1.0349860650053753e+01 2.0239871298960503e+00 1.7276457973608046e+01 1 0 -3
429 2 -3.0157738218411456e+00 7.4691456437134400e+00 1.3125395951982229e+01 0 0 -1
930 2 1.5658067933630345e+01 3.2457374259268059e+00 1.2727017969522563e+00 0 0 0
702 2 9.9589527882358446e+00 5.8333636616340376e+00 1.5322374669892630e+01 -3 0 -3
501 2 -1.1653327140589189e+00 2.4141090537787919e+00 9.2737837934071710e+00 1 0 0
275 2 8.4952665983435907e+00 1.1486745012300987e+00 1.8232431828547821e+01 2 0 -1
739 1 5.2744676618438033e+00 8.4500897690749213e+00 1.2255250170419973e+01 0 0 1
101 2 -3.3026279669830072e+00 8.8467283367477467e+00 1.1401643873434928e+01 0 0 -1
384 2 1.7263792460567561e+01 2.9699041956438723e+00 1.1581868580322781e-01 -2 0 1
245 2 6.0557581371779161e+00 5.9504353856399792e+00 1.8958432976349624e+01 -4 0 -4
622 1 -3.1955870306588108e+00 5.7661345003625941e+00 1.5853475558809698e+01 -2 0 -2
624 2 -2.5220515497292908e+00 5.0359521833955343e+00 1.6147927312552028e+01 -2 0 -2
527 2 7.4406076896454343e-01 1.3807636487274557e+00 1.2243283854624452e+00 -2 0 0
1543 1 1.0759299780652494e+01 1.0657029540950408e+01 3.8092875259072794e+00 0 0 1
428 2 -2.7431595058139373e+00 6.5423839688018877e+00 1.4409483852997351e+01 0 0 -1
542 2 2.3757915214312835e+00 4.9276462052082026e+00 1.3277681461189614e+01 -1 0 1
992 2 1.3827797182383019e+01 1.6820759064351534e+00 7.7914299824808362e+00 1 0 1
600 2 -2.6552833543254510e+00 5.5757179234568079e+00 7.6833196880599033e+00 -3 0 1
462 2 1.4160785212336371e+01 1.0312422676309691e+01 9.4095762443818973e+00 -4 0 -2
183 2 1.2271215932505376e+01 5.5365933606069868e+00 4.8956632474336752e+00 -1 0 0
583 1 1.6863338311021476e+01 8.3760664277338552e+00 2.3308296192909919e+00 -5 0 -4
411 2 5.2910574162930128e+00 1.0770644141381064e+01 9.5697574751660497e+00 0 0 -2
1582 1 9.5797007076393221e+00 5.2447689770176416e+00 1.3484849100723073e+01 0 0 0
515 2 1.3118751780396192e+01 5.2004811813372305e+00 9.0652516949488291e+00 0 0 -1
606 2 6.7323290767343957e+00 5.1018423122891232e-02 1.7989306182858840e+01 0 0 1
5 2 9.3254788643802513e+00 5.8461992016635778e+00 5.2895154371442707e+00 1 0 0
516 2 1.2092175796000447e+01 6.1790266934396305e+00 9.4964925185953852e+00 0 0 -1
598 1 -2.2910311072888310e+00 4.8936429749510912e+00 7.0399966888332131e+00 -3 0 1
168 2 2.0590405767318898e+00 9.8477690324352203e+00 8.6052319602484477e+00 -3 0 -3
393 2 3.7507873461103647e+00 1.0868004762748729e+01 1.0978870033971171e+01 0 0 -1
436 1 1.3892363036944630e+01 1.0639830221976958e+01 6.1821569064139883e+00 -3 0 -1
83 2 1.0060078730373949e+01 7.9345572889534992e+00 1.2469704172556755e+01 0 0 -3
858 2 9.2498849458720276e+00 8.5991388584218278e+00 6.2963408317942058e+00 -1 0 -3
1000 1 1.0821190935453073e+01 8.2357930329783962e+00 5.2697402625560210e+00 -1 0 1
525 2 3.7394224299073748e+00 3.3587091619319955e+00 6.5014179376839172e+00 -2 0 -4
543 2 3.2582265646828557e+00 5.8700602574260961e+00 1.4034398609558096e+01 -1 0 1
971 2 -4.7318593214159022e-01 7.1700603217687755e+00 3.7248778285968669e+00 0 0 1
1014 2 8.4447127205956218e-01 6.4077198325931732e+00 1.0890667534324121e+00 0 0 0
1645 1 1.0471914656907593e+01 1.0615619265362684e+01 1.5828758813197723e+01 0 0 0
701 2 1.0912203045748436e+01 7.0039140182371273e+00 1.5629514645840104e+01 -3 0 -3
273 2 -1.8025562817168737e+00 2.4091493670297920e-01 5.7236377881540150e+00 0 0 -1
470 2 1.3234749022922925e+01 4.0647140553662160e+00 1.4334289613290561e+00 -7 0 -2
471 2 1.2272119509205506e+01 3.7297640884328769e+00 2.9611180955878447e-01 -6 0 -2
561 2 9.3232816248791170e+00 1.2766521122765477e+00 6.1106472756968815e+00 -2 0 1
712 1 -1.3269548803084996e+00 1.6914728505330858e+00 1.0804653857469011e+01 0 0 3
176 2 4.7247321770581978e+00 1.8444553119335685e+00 1.2599290870123941e+01 -5 0 1
998 2 5.1432335581924686e+00 4.9746976743223303e+00 4.1774715104284041e+00 -3 0 2
502 1 5.1489638874596544e+00 3.4919990866994213e+00 1.0027412250290109e+01 0 0 -1
190 1 1.0875352103098095e+01 9.0073581374675804e+00 8.8518716026927393e+00 -2 0 -2
111 2 -9.0499079949465422e-01 3.5601938830525817e+00 1.6184222984713127e+01 1 0 -4
221 2 -3.8743610555251542e+00 1.0995956191054560e+01 1.8741904697334650e+01 -2 0 -4
16 1 -1.1121092653083253e+00 2.9075712209646194e+00 1.3257218957341051e+01 0 0 1
584 2 1.6514333033806047e+01 9.1649782819098267e+00 2.6321682466596235e+00 -5 0 -4
767 2 3.2319369855928608e+00 7.4488907782795337e+00 6.3825053224603012e+00 -3 0 -1
1581 2 7.5033470690166402e+00 9.4680356835142465e+00 1.8011130724079575e+01 0 0 0
279 2 8.6950986433201543e+00 7.6288624798686335e+00 1.5390997450120746e+01 -4 0 -1
623 2 -4.1098920462989668e+00 5.3724380767324433e+00 1.6146990681097211e+01 -2 0 -2
1668 2 8.8510214886132665e+00 3.2331152063077813e+00 3.9586835888731340e+00 -1 1 -2
644 2 1.2288523364800206e+01 3.5091796014820131e+00 1.0893074973784895e+01 -4 0 -3
268 1 -5.5476959991473080e+00 4.8659741854814156e+00 1.6794277086669943e+01 2 0 -2
20 2 2.0080862264273400e+00 9.6830038599099471e+00 4.2697527335496517e+00 -2 0 -3
811 1 1.3577096555478441e+01 8.8681783914930801e+00 8.3145107566621732e+00 -2 0 -1
716 2 9.4478522613375411e+00 3.5759114970171098e+00 1.5950221926266781e+01 0 0 1
717 2 1.0316213190112297e+01 2.9848328591043018e+00 1.4877066883700246e+01 0 0 1
94 1 -1.1113302058508863e+00 1.0507815603327098e+01 4.0915583341486812e+00 -1 0 -1
540 2 1.9138135157423042e+00 2.8775317854605227e+00 2.3939597599732583e+00 -4 0 -3
17 2 -5.1335740712993072e-01 3.6133248150965547e+00 1.3434352067175732e+01 0 0 1
185 2 -4.2314494352635155e+00 1.7870890567013740e+00 1.6426599478643560e+01 -4 0 -7
272 2 1.4879539259419877e+01 4.2795448627824401e-01 4.6472394330846649e+00 -1 0 -2
645 2 1.1209458699544703e+01 2.4737165380477339e+00 1.0423485715930653e+01 -4 0 -3
613 1 1.9268475633545559e+00 8.5448942343892949e+00 5.6655009133683709e+00 -2 0 0
246 2 5.8432658549826808e+00 6.3639908463833823e+00 1.7424706091215640e+01 -4 0 -4
444 2 6.4743699663407117e+00 6.3153391919153545e+00 8.0172925820614811e+00 3 0 2
455 2 6.0457776646482877e+00 -1.9560397342921636e-02 8.7391318710048278e+00 -1 0 0
715 1 1.0347717171426806e+01 3.2692211025139430e+00 1.5812737990967515e+01 0 0 1
115 1 -9.3042296552375614e-01 2.9820429893878875e+00 4.0674527792764339e+00 -4 0 -5
426 2 1.0593449156378602e+01 2.6757983780770376e+00 2.6473136653155152e+00 -2 0 1
875 2 1.2434070718816621e+01 6.1892713040618910e+00 1.1624606637396459e+01 -3 0 1
844 1 8.0153563730448258e+00 2.7462553623939705e+00 8.7813069646599295e+00 1 0 1
309 2 -1.5762875106774614e+00 1.0797135482242608e+01 8.1211510208179458e+00 1 0 1
212 2 -1.3377683352651348e+00 8.2042651983543209e+00 5.9448196610244528e+00 -4 0 -2
777 2 1.1069750818038045e+01 6.1998120797509981e-01 1.5511224451623862e+00 -2 0 2
308 2 -1.0467412918469776e+00 9.5914866548114741e+00 7.6101968586426256e+00 1 0 1
1584 2 1.0521380871841139e+01 5.0583455946698423e+00 1.3327448359542503e+01 0 0 0
18 2 -8.4637078542630340e-01 2.4886349563730152e+00 1.2356431512907969e+01 0 0 1
813 2 1.3809021187760974e+01 9.4003718736638167e+00 7.5245161080177922e+00 -2 0 -1
848 2 7.1573321609493243e+00 7.9133140238115418e+00 5.7621308765911747e+00 1 0 0
694 1 7.7213742020003480e+00 1.0114838308361534e+01 8.9454645744351016e+00 -1 0 0
439 1 6.5689444840749278e-01 7.1919823866317465e+00 1.5931819206962460e+01 -2 0 -2
93 2 6.7414781988860728e+00 8.6563140020513121e+00 1.1708841913451238e+01 0 0 1
897 2 -1.4455350447356636e+00 1.0831738350525910e+01 1.5842838788504618e+01 -1 0 -1
276 2 7.5257127033614291e+00 2.2328256025874156e+00 1.7610355835356376e+01 2 0 -1
643 1 1.1490533889332777e+01 3.0132945529200894e+00 1.1203442398411482e+01 -4 0 -3
991 1 1.3684216975615351e+01 1.1853626316025254e+00 8.6159515079321149e+00 1 0 1
709 1 3.2955595802276600e+00 6.6722238106382790e+00 1.1181247405177839e+01 -3 0 -2
835 1 1.2141455909233990e+01 7.4830323294537688e+00 1.4815015977421069e+01 -2 0 1
116 2 -1.4269726344309452e-02 3.0959638383712593e+00 3.7233151974820426e+00 -4 0 -5
224 2 2.4032953133326558e+00 1.0031142720188519e+01 1.2823168176030961e+01 -2 0 -1
360 2 -5.8341314384677423e-01 8.4131054793712519e+00 1.0981558784190931e+01 2 0 -1
780 2 8.1880073886217559e+00 9.2088423528446057e+00 3.2067824058896464e+00 1 0 -1
117 2 -8.3421296814984092e-01 2.5223411168029970e+00 4.9094358920902250e+00 -4 0 -5
322 1 -5.6982166341664406e+00 7.0784854334888641e+00 1.8302652624160167e+01 2 0 -2
19 1 1.7953361658657820e+00 1.0373376046274201e+01 3.6277751301395993e+00 -2 0 -3
385 1 4.7744051680158766e+00 9.3481149600027482e+00 4.0996853062169469e+00 0 0 -2
162 2 1.0943937651982028e+00 8.1866791347119552e+00 1.2486023213885519e+01 1 0 -5
961 1 8.6869154688028516e-01 3.0285761127211064e+00 1.5679871701030388e+01 -3 0 -1
42 2 1.3111048729742367e+00 4.3567378090497222e+00 6.7373998042303533e+00 -2 0 3
726 2 1.4318164169779003e+01 2.0928923202235947e+00 5.7939938834750784e+00 1 0 1
478 1 1.0843964451411631e+01 9.1599256362798549e+00 1.3246884653002702e+01 -2 0 -5
323 2 -4.7861974288536029e+00 7.4125046583330221e+00 1.8526983898836786e+01 2 0 -2
870 2 3.8985315539907592e+00 7.1207393844484805e+00 1.8159791266413553e+01 2 0 0
876 2 1.1056915874245414e+01 6.7524098925859288e+00 1.1008371754412449e+01 -3 0 1
443 2 6.5935281084724924e+00 6.4728204105707539e+00 9.5352350147689631e+00 3 0 2
41 2 1.7140890339493762e+00 2.9786983972339565e+00 7.4896093456955262e+00 -2 0 3
560 2 8.1779449881347119e+00 2.2377791844743524e+00 5.6963069695706858e+00 -2 0 1
891 2 1.1659770317218003e+01 5.4469656599627392e-01 5.4141126753911148e+00 -1 0 0
974 2 6.5762385535618453e+00 1.3532091302878726e+00 1.1264338744134241e+01 -4 0 -2
358 1 -1.3115755898488692e+00 9.0447404349644405e+00 1.0969812667117354e+01 2 0 -1
213 2 -1.0958578597338930e+00 9.6436931797132015e+00 5.5133691868922083e+00 -4 0 -2
98 2 5.0006241157659126e+00 2.0144720959353579e+00 9.1220942209808857e+00 0 0 -1
672 2 -4.1034671371010090e-01 1.7239099703339844e+00 7.2654477908883610e+00 -3 0 -1
324 2 -6.3448152884129660e+00 7.7931702253166701e+00 1.8305612603533483e+01 2 0 -2
255 2 3.8507821186262765e+00 8.3085126712327195e+00 2.9118085202966846e+00 -2 0 -2
969 2 4.7177215103514092e+00 2.2431923292567988e+00 4.7222035002454490e+00 -1 0 1
545 2 1.2933926416710374e+01 4.5195546773265978e+00 1.3020154149519930e+01 1 0 1
1 1 1.0772706312870600e+01 9.0879850678416982e+00 1.5209971681654002e+00 0 0 0
937 1 1.5230100762317102e+01 7.2991892271846899e+00 5.0007766864100702e+00 1 0 2
40 1 2.0600126148483717e+00 3.7459426279769352e+00 6.9786133438031950e+00 -2 0 3
95 2 -2.6905443468545376e-01 1.0856309121003214e+01 3.6781945213880127e+00 -1 0 -1
954 2 1.0821169856969155e+01 4.9694385305359994e+00 1.3025606621128787e+00 -1 0 1
724 1 1.3944845455566480e+01 2.7089888595169747e+00 6.5169872496025985e+00 1 0 1
740 2 4.9621947605042571e+00 9.2852455731026655e+00 1.2631113005712539e+01 0 0 1
967 1 5.0141598354707337e+00 1.5336051970466968e+00 4.1175835457866530e+00 -1 0 1
553 1 4.4622357372694195e+00 2.8305685702947958e+00 1.8294658842991346e+01 -5 0 -2
681 2 1.5670120324694192e+00 2.9668767329133696e+00 1.8877693528611726e+01 -3 0 -3
670 1 -3.1590886620287195e-01 1.4509058885893535e+00 6.2813210635535581e+00 -3 0 -1
650 2 7.7622690807326791e+00 1.7618010746463479e+00 3.1257012104225308e+00 -4 0 0
118 1 -1.1766046383342328e+00 9.0963686868183320e+00 1.8230140365208712e+01 -2 0 -3
36 2 4.0566204931533245e-01 5.7517794790120025e+00 5.6535533745815734e+00 -1 0 0
945 2 5.1755750956567566e+00 2.6397368664260226e+00 2.7240142154434484e+00 0 0 3
391 1 2.8441923723178397e+00 1.0543093830027443e+01 1.1179044379747417e+01 0 0 -1
939 2 1.4417983426874713e+01 7.0506297586758562e+00 5.5218069837352299e+00 1 0 1
397 1 1.5275253589778620e+01 4.9083291504555842e+00 3.5856664869519319e+00 2 0 0
1579 1 7.6891889152063824e+00 8.6773654438030547e+00 1.8586581164516605e+01 -1 0 0
632 2 2.6077399530484877e+00 6.3814745595631639e-01 1.4464041283662938e+01 -3 0 -2
1407 2 1.5476690883719929e+01 5.6265599280300718e+00 4.2142015123641166e+00 2 0 0
34 1 2.8962646443571627e-01 5.6242411672712578e+00 6.6226795459833028e+00 -1 0 0
928 1 1.4774370950507777e+01 2.9731469281788394e+00 1.4694183534441694e+00 0 0 0
922 1 3.2309733915598384e+00 7.3777684127190550e+00 1.5023459871491118e+01 -3 0 -3
152 2 5.4272216373690441e-01 4.9873370900254672e+00 1.8723121077198098e+01 3 0 -1
503 2 5.8801342621913157e+00 3.9658463628189895e+00 1.0515889190619941e+01 0 0 0
350 2 8.7326351864014153e+00 3.9262342010920919e+00 1.3508286974664301e+01 2 0 3
592 1 -4.0401226169549709e+00 1.0778496341707269e+01 1.3505745288604414e+01 -2 0 0
962 2 1.1872128191137765e+00 2.4529067650163974e+00 1.6401246421881535e+01 -3 0 -1
783 2 6.8869851397261881e+00 4.1205909653096890e+00 1.6296496579027870e+01 -3 0 -3
705 2 5.0021546167490296e+00 6.7480342738286341e+00 1.9364246047925917e+00 -2 0 0
3 2 9.8719979357695582e+00 8.6307156438974459e+00 1.5308846660168505e+00 0 0 0
725 2 1.3096747579985818e+01 3.1046963339927309e+00 6.2766564427610758e+00 1 0 1
619 1 1.1265789965332150e+01 1.0416314955318516e+01 1.1046142267512520e+01 -3 0 0
192 2 1.1776488518812020e+01 8.7835379800532163e+00 8.5205547674359181e+00 -2 0 -2
161 2 1.6207835387088680e+00 7.3026841394355229e+00 1.1381485496081508e+01 1 0 -5
173 2 6.9306167863900487e+00 6.6278491162649233e+00 1.4160570879089009e+01 -1 0 -2
511 1 7.7386872101980693e+00 9.0407518932990782e-01 1.5336363720789526e+01 1 0 0
686 2 2.8821835164987153e+00 1.4017905569125004e+00 8.8440361604914699e+00 -3 0 0
480 2 1.0506697947632460e+01 9.6901691879107794e+00 1.4020211951396385e+01 -2 0 -5
785 2 -5.5820089730810007e-01 8.6594709313190723e+00 1.5492852902464907e+01 -4 0 -3
784 1 -1.3272003934225252e+00 9.0392660450852365e+00 1.5037288651313865e+01 -4 0 -3
778 1 8.2216276973652036e+00 8.5272717099739275e+00 2.5169857259490227e+00 1 0 0
611 2 1.3995410499611740e+01 3.0498238448224972e+00 9.6875762445498168e+00 -1 0 2
841 1 -1.5153929057763227e+00 6.7185598382865486e-01 1.4978660400057974e+01 -5 0 -5
750 2 2.5842338528771727e+00 5.5737716437852489e+00 1.7333603690995755e+01 -3 0 1
749 2 2.0146154816221413e+00 4.3669946156534127e+00 1.6385567845076306e+01 -3 0 1
655 1 -2.9688401256583385e+00 7.1248995348425366e+00 1.8208677601552765e+01 -2 0 0
497 2 7.1857819199651001e+00 4.0854349463283670e+00 7.9019196934367644e+00 0 0 1
498 2 7.5658585213766827e+00 4.9438705092697743e+00 6.8032652611221316e+00 0 0 1
651 2 8.6068295927591834e+00 1.1473279388906579e+00 2.0064101830829522e+00 -5 0 0
919 1 1.1039606177541845e+01 1.3379261849569422e+00 8.8989501152017034e+00 0 0 -2
349 1 8.1582175009456996e+00 3.1136320513834144e+00 1.3305316891394725e+01 2 0 3
679 1 7.9970933067731087e+00 3.6198848435943765e+00 5.0092613637151695e-01 -3 0 -2
398 2 1.5960135463412808e+01 4.2917644574998564e+00 3.7677972310005234e+00 2 0 0
336 2 1.2997867393852047e+01 6.4918847774170967e+00 7.1692082457860842e+00 -2 0 -2
779 2 7.2844933151126741e+00 8.2232264150427277e+00 2.4223053912865944e+00 1 0 0
321 2 1.1067938033021832e+01 2.4249386917930273e+00 1.2735100552179063e+01 -4 0 -3
943 1 5.2837754814207543e+00 2.9462024990190203e+00 1.7600813287500345e+00 0 0 3
367 1 1.0462867430050414e+01 9.1193881307310871e+00 1.8279630195231267e+01 -2 0 -1
66 2 -3.6722606809863123e+00 9.8168650146752690e+00 1.5497700621801584e+01 -1 0 -3
86 2 1.0935420700562181e+01 6.5636108589275954e-01 1.7898668840089307e+01 1 0 -3
172 1 6.1054950680471496e+00 6.3777085776550084e+00 1.3682674789115335e+01 -1 0 -2
386 2 5.4273092816793600e+00 8.6943340736888164e+00 4.3241868966395263e+00 0 0 -2
680 2 7.2464276084986459e+00 3.1529765087846271e+00 9.8337776441044478e-01 -3 0 -2
530 2 5.0732508101592693e+00 2.0709755650491664e+00 2.6180576257406885e-01 -1 0 0
538 1 1.8608150702852013e+00 3.1694510781273215e+00 3.3182794880372546e+00 -4 0 -3
944 2 4.7424973546574529e+00 3.7230679477925679e+00 1.5720705806655142e+00 0 0 3
100 1 -3.9160564847510257e+00 8.3705148911260903e+00 1.1999407932488429e+01 0 0 -1
1667 2 7.2723794462250595e+00 3.7207028835482450e+00 4.0608947205663242e+00 -1 1 -2
204 2 4.5165760396257486e+00 1.0178960816259206e+01 5.7474364947481176e+00 -3 0 0
174 2 5.7737796527798402e+00 7.3047263854197100e+00 1.3541463493937483e+01 -1 0 -2
388 1 1.4071137632058507e+01 1.6376063271640715e+00 3.8166930785041751e+00 -1 0 0
150 2 1.1637166417495001e+01 7.8008924320154183e+00 2.0625075385690028e+00 -3 0 0
949 1 1.5536171585006544e+00 1.1158722199022762e+01 1.5938713557467763e+01 -1 0 1
119 2 -1.8260940678046120e+00 8.3572719112155056e+00 1.8171611581659558e+01 -2 0 -3
607 1 -4.3489289332229593e+00 2.9773982366352758e+00 1.8042164727180932e+01 -3 0 -1
514 1 1.2372517694224582e+01 5.6543723775801800e+00 8.6669673461468317e+00 0 0 -1
1047 2 1.4270801307037255e+01 9.8419305801811365e+00 2.8977133747899968e+00 -1 0 0
191 2 1.0391685652821373e+01 8.1601800645310814e+00 8.6900230486901737e+00 -2 0 -2
595 1 4.9115397872918818e+00 2.9530552619547015e+00 1.3696160787259158e+01 3 0 -2
274 1 7.5548581418839218e+00 1.4311589743546727e+00 1.8266234045187961e+01 2 0 -1
109 1 -1.5204249598850783e+00 3.9576884889498705e+00 1.6866146388868707e+01 1 0 -4
615 2 1.5261195482145626e+00 7.8375420190987191e+00 5.0981887600351667e+00 -2 0 0
536 2 5.0183276779729147e-01 8.8853194196260521e+00 1.6566570113142391e+00 -3 0 2
2 2 1.0714416661020516e+01 9.7170237344162995e+00 2.2723317111175709e+00 0 0 0
599 2 1.4913462214331688e+01 4.3799465839950162e+00 6.6566025523805816e+00 -4 0 1
408 2 2.9533512132811688e+00 4.6578289957966001e+00 8.1898331838189780e+00 -2 0 -2
1001 2 1.0910265463256708e+01 9.1585162676685510e+00 4.9262155162148638e+00 -1 0 1
182 2 1.3133244142776757e+01 4.9250432864707916e+00 3.7191644199167810e+00 -1 0 0
35 2 -6.3255718725363685e-01 5.2187231521409219e+00 6.6878182234037018e+00 -1 0 0
924 2 3.9734929672101185e+00 7.8832057095702197e+00 1.5467077727992377e+01 -3 0 -3
745 1 -3.8895590845099539e+00 3.1389909378662129e+00 1.3312199675906527e+01 -2 0 0
856 1 8.3402327922873969e+00 8.9875369685196276e+00 6.4484489213135960e+00 -1 0 -3
845 2 7.7529183093781553e+00 2.0679535920333394e+00 9.4214792844984387e+00 1 0 1
6 2 9.3350365805689623e+00 5.9300157984583590e+00 6.8359031032665056e+00 1 0 0
459 2 -3.6355631158168078e-01 4.2071433728720004e-01 2.6269434513772909e+00 -2 0 -2
610 1 1.3858357922151407e+01 3.9466212255846687e+00 1.0070959593462083e+01 -1 0 2
236 2 5.5804492695379526e+00 9.8161259094302125e+00 1.0075571287175746e+00 -1 0 1
203 2 4.7004435620471261e+00 1.0090407100619005e+01 7.2537813354924756e+00 -3 0 0
307 1 -9.8765392921621031e-01 1.0091264686001210e+01 8.4441074323390719e+00 1 0 1
84 2 8.7737722932438302e+00 7.7459772891271603e+00 1.1588308596024744e+01 0 0 -3
782 2 7.9637744273595059e+00 4.4054186629817673e+00 1.7341040747926339e+01 -3 0 -3
690 2 -1.2856820380948948e+00 5.3171675457013574e+00 1.1121051118373616e+01 -2 0 0
447 2 9.5556512475221744e+00 6.0018113484366014e+00 9.2728561225812332e+00 0 0 0
728 2 2.6697923627494604e+00 5.0686627650610143e+00 1.2296593041073351e+00 1 0 2
113 2 4.3547996971882181e+00 5.2595675590418942e+00 1.6193760712591409e+01 -2 0 -1
440 2 4.9652155212491245e-01 6.6544224495265905e+00 1.6743031922069402e+01 -2 0 -2
1013 2 5.3003199462641692e-01 4.9669988940246794e+00 1.3940794217107333e+00 0 0 0
799 1 9.2699450254644304e+00 4.5229359394711253e+00 1.0220311242385032e+01 0 0 -3
269 2 -5.9520101596084825e+00 5.6655740806267092e+00 1.7212701860375152e+01 2 0 -1
280 1 2.7384534960410489e-01 7.1169748224048996e+00 8.9763917388233896e+00 -3 0 1
727 1 3.5111896365827131e+00 4.8804647674764139e+00 7.8305438805720151e-01 1 0 2
114 2 5.3453042851826655e+00 5.7199939703749472e+00 1.5119440221407727e+01 -2 0 -1
425 2 1.1138188435539142e+01 3.7867511501723712e+00 3.7189094230294120e+00 -2 0 1
544 1 1.2303478382509248e+01 5.2388469749519659e+00 1.3083724646074991e+01 1 0 1
180 2 5.2821914879156324e+00 9.5006537665519950e+00 1.4954013658851441e+01 -3 0 -1
559 1 8.4859055070869172e+00 1.6037907240943978e+00 6.4275922915376169e+00 -2 0 1
496 1 6.7217672828220589e+00 4.6870662012643765e+00 7.2544441212157880e+00 0 0 1
313 1 5.0959289119340268e+00 1.0826684279630706e+01 1.3911875197001105e+01 -3 0 -3
419 2 5.7645774769535372e+00 8.5141241551465505e+00 8.7239071458184636e+00 -2 0 1
65 2 -4.2214084166923449e+00 9.5323904881733963e+00 1.6999759561036043e+01 -1 0 -3
695 2 7.3155691296590115e+00 1.0841818561852374e+01 8.3933342898520440e+00 -1 0 0
1664 2 -2.7202268833759220e+00 6.4016248619329739e+00 1.8775077080626389e+01 -2 1 0
713 2 -6.9943130678038434e-01 9.3641213941816626e-01 1.0964203149772416e+01 0 0 3
186 2 -3.1549810388933262e+00 1.1790153569841335e+00 1.5611701826364254e+01 -4 0 -6
537 2 1.6210113171717362e+00 9.6803168833412769e+00 2.2161406630629115e+00 -3 0 2
110 2 -1.7530145948741573e+00 3.1876378822748666e+00 1.7429427880181393e+01 1 0 -4
167 2 1.5752084819577479e+00 8.4710964566180884e+00 9.0380517876841306e+00 -3 0 -4
389 2 1.3505046571443586e+01 1.0981476162157817e+00 3.1974961655121330e+00 -1 0 0
207 2 3.2416848158786866e+00 3.4053868553919835e+00 1.1094986969216885e+01 3 0 0
555 2 3.7888128916532384e+00 3.4314237011923323e+00 1.7928543328858019e+01 -5 0 -2
458 2 1.6736619698474755e+01 1.6866003131956824e+00 2.6198753170170739e+00 -3 0 -2
338 2 -1.1674520906635215e+00 1.0124570730353231e+01 1.3714381910758071e+01 0 0 -1
184 1 -4.0694864709727643e+00 1.5123953666325227e+00 1.5511117396719598e+01 -4 0 -7
925 1 -3.8157981790338833e+00 9.3374997245560365e-01 1.1702962029588839e+01 2 0 2
294 2 1.1041274106481103e-01 4.0995701607805417e+00 9.7293145820675146e+00 1 0 -3
390 2 1.4520224607178486e+01 2.2030459195734773e+00 3.1794250165303026e+00 -1 0 0
166 1 2.2730171078511665e+00 9.1199870789843906e+00 9.2109588369030782e+00 -3 0 -3
1547 2 1.6174923563731571e+01 1.1187525580005623e+01 1.3214491753402497e+00 -2 0 0
215 2 5.0993220981106582e+00 9.7952433256318852e+00 1.7612172674668393e+01 -1 0 -3
211 1 -8.4538780055322404e-01 9.0137489188699753e+00 6.2385406475243350e+00 -4 0 -2
45 2 1.3678460274388788e+00 5.0562549122413286e-02 1.1332121933536502e+01 0 0 0
746 2 -4.0324682100803280e+00 2.7610530086475431e+00 1.4206647373822239e+01 -2 0 0
904 1 3.2543631446841270e+00 5.3696068446584979e+00 4.2139805109747988e+00 -3 0 2
846 2 8.3733953984617422e+00 2.2466746210760995e+00 7.9783828358909687e+00 1 0 1
968 2 5.6816636100759492e+00 1.1414066106491190e+00 4.6885425454584819e+00 -1 0 1
99 2 4.9286625809010687e+00 1.7049612734249251e+00 7.5916412964494153e+00 0 0 -1
1170 2 7.9762306991444243e+00 1.0300487042749785e+01 5.0408837323330697e+00 0 0 0
344 2 1.1546820376488427e+01 6.1280155989770280e-01 1.4328925187396862e+01 -2 0 1
21 2 2.4740387904042720e+00 1.1133144515455458e+01 3.7955255293615608e+00 -2 0 -3
123 2 1.4223845453571881e+01 6.7519096898261459e+00 1.4505298292990063e+00 -2 0 0
742 1 1.5424632094265407e+00 9.4051255245120338e+00 1.7996419036386605e+01 1 0 0
383 2 1.6732635927441585e+01 4.5272311623377419e+00 1.2490090486023105e-01 -2 0 1
504 2 4.7807672264728627e+00 4.1861022676767394e+00 9.3959534264723441e+00 0 0 -1
499 1 -9.2485536366548038e-01 2.8558986180907517e+00 8.4052077100457829e+00 1 0 1
847 1 6.3316097042705719e+00 7.5371496254773547e+00 5.4363628835904318e+00 1 0 0
546 2 1.2464234466290803e+01 5.7757829946852723e+00 1.3808846124152462e+01 1 0 1
649 1 7.8237295554691189e+00 1.0367311021985082e+00 2.5120225212149214e+00 -4 0 0
729 2 3.2383523737800144e+00 4.2890531842750343e+00 4.5007187495792196e-02 1 0 2
612 2 -3.3064950466080574e+00 4.1211822634847906e+00 1.0692029293160685e+01 0 0 1
387 2 5.0804054577204862e+00 9.7709823109173257e+00 3.2759345344331150e+00 0 0 -2
121 1 1.5166031925083136e+01 6.4940334625088294e+00 1.5396466018334847e+00 -2 0 0
926 2 -3.9863587075462981e+00 1.7854287286279995e+00 1.2247866309928455e+01 2 0 2
424 1 1.0427275122436344e+01 3.1449610373119570e+00 3.4926546998833738e+00 -2 0 1
277 1 7.8332411083686013e+00 8.1043581181231854e+00 1.5215353972272103e+01 -4 0 -1
442 1 6.5565050534031721e+00 7.0043753875091488e+00 8.7000904593656472e+00 3 0 2