LAMMPS data file via write_data, version 3 Mar 2020, timestep = 1000000

1008 atoms
2 atom types

2.1724534180718180e-01 1.8182309658185787e+01 xlo xhi
9.2467635805814297e-02 2.2477921364184738e+01 ylo yhi
2.0487097312490476e-01 1.9300845026866863e+01 zlo zhi
9.2060335451091435e-02 -6.6686190260709024e+00 -5.5092067043540159e-02 xy xz yz

Masses

1 16
2 2

Atoms # atomic

1 1 6.7412151067837298e+00 1.3436961598162644e+00 5.2197518874182460e+00 0 0 0
106 1 9.6313428548426465e+00 2.8601464412166715e+00 9.5575282657508218e+00 0 0 0
3 2 6.6432532699095894e+00 1.9158316451643183e+00 4.4590492893791085e+00 0 0 0
4 1 3.7549173148278472e+00 1.1557238622827795e+00 5.2461800016702425e+00 0 0 0
5 2 4.7107088266459423e+00 9.3701203063612848e-01 5.1563302059688798e+00 0 0 0
6 2 3.6833387722411572e+00 1.4259337964178864e+00 6.1655714066495344e+00 0 0 0
7 1 -3.6225279659082510e-01 6.3092730213162520e+00 5.1499320047713262e+00 0 0 0
8 2 -5.8739366749405653e-01 5.7414146144610516e+00 5.9162938217033307e+00 0 0 0
9 2 -1.0614262892595392e+00 7.0113500724496012e+00 5.0680373027027752e+00 0 0 0
10 1 2.1844897572399029e+00 6.2064526440543695e+00 4.8658387770643206e+00 0 0 0
11 2 1.1991553946859237e+00 6.3737818343107104e+00 5.0008079553077343e+00 0 0 0
12 2 2.6989569886501896e+00 7.0567757881614765e+00 4.7776419848031795e+00 0 0 0
290 2 1.5929522268486053e+01 1.0789127161283881e+01 2.8732394955955942e+00 0 0 0
14 2 5.0964620570971597e+00 5.2191409758776013e+00 8.7080610009745705e+00 0 0 0
753 2 3.7995076186426591e+00 9.9561099380686784e+00 9.1874745728993776e+00 0 0 0
399 2 7.8054136792878843e+00 2.3391245344084580e-01 1.2490630867533385e+00 0 0 0
108 2 8.7127876967091353e+00 3.1230566745020680e+00 9.5611543771907321e+00 0 0 0
150 2 1.1651022772351192e+01 7.6172307049276027e+00 9.0511096083498170e+00 0 0 0
775 1 6.8625080868583499e+00 1.0450472065386901e+01 9.4582880213464513e+00 0 0 0
21 2 1.0213609898079474e+00 2.3176332858384603e+00 1.4750459315586129e+00 0 0 0
237 2 1.4979974226306995e+01 7.8348987077333039e+00 7.7960130445397438e+00 0 0 0
120 2 9.4902549296165351e+00 1.6513237569100137e+00 6.5203063835981832e+00 0 0 0
254 2 1.6448431814862257e+01 9.3140142059098494e+00 5.1137204715891498e+00 0 0 0
25 1 5.1100871215823638e+00 6.2690825580866925e+00 7.1716516739413843e+00 0 0 0
26 2 5.6286850074919244e+00 7.1072049288972901e+00 7.4915315806988563e+00 0 0 0
27 2 4.1764936995659836e+00 6.5107082180314659e+00 7.2219072274189804e+00 0 0 0
28 1 6.1380313852979942e+00 6.4520830943689971e+00 2.6336702064401418e+00 0 0 0
29 2 5.9404765468373490e+00 5.9601563585769126e+00 3.4809331998274446e+00 0 0 0
30 2 5.5397206734575484e+00 7.2239403501978732e+00 2.6018224384512214e+00 0 0 0
31 1 1.3074961807733094e+00 9.0828483839453333e-01 2.4838333489872229e+00 0 0 0
692 2 -2.5499554933147661e+00 1.1042575081954233e+01 9.6103474325233389e+00 0 0 0
33 2 1.3519583490336711e+00 1.3286966302366225e+00 3.3350110416555054e+00 0 0 0
34 1 -3.5567901803529534e-02 1.3568664615359474e+00 7.3391946331947109e+00 0 0 0
166 1 1.1629779698346754e+01 6.3865914748687809e+00 3.8284779205132857e-01 0 0 1
36 2 1.6282084345061554e-01 1.9947990856331903e+00 8.0390908275083781e+00 0 0 0
37 1 6.2585539523086355e+00 2.7206373776658812e+00 3.0184077877797328e+00 0 0 0
38 2 5.3468728422306260e+00 3.1193008979289893e+00 3.1307781597533979e+00 0 0 0
39 2 6.8760313971028726e+00 3.4675177099846812e+00 3.0702699416563366e+00 0 0 0
40 1 4.0638365980936442e+00 2.5171157043624381e+00 7.5738645096033288e+00 0 0 0
41 2 4.9431730880389750e+00 2.8008901419876673e+00 7.3606613363610442e+00 0 0 0
42 2 3.4317639311814587e+00 3.2373077836051642e+00 7.3912794759143345e+00 0 0 0
43 1 -3.6324470037373646e-01 4.6121554081436553e+00 7.1723373766820169e+00 0 0 0
44 2 -1.1059426491264284e+00 4.0452104125728727e+00 6.8379946789661226e+00 0 0 0
45 2 -6.3865564641214201e-01 4.7414796401945924e+00 8.1301862417440596e+00 0 0 0
46 1 1.6177180231438526e+00 5.0581192844648948e+00 2.5011198802071748e+00 0 0 0
47 2 7.2678026954656783e-01 4.7815573100607915e+00 2.7104469592245701e+00 0 0 0
48 2 1.9487252265218278e+00 5.5965659927171378e+00 3.2792881160542793e+00 0 0 0
49 1 6.4888302255030084e+00 3.3865720746793198e+00 6.7208157288240598e+00 0 0 0
50 2 6.1809543130007958e+00 4.0424342811402640e+00 6.1475650807203763e+00 0 0 0
51 2 6.6796164659990875e+00 2.5211548503107286e+00 6.2599092928348608e+00 0 0 0
52 1 3.6981781721178431e+00 3.4107028908519679e+00 3.6448328093032951e+00 0 0 0
53 2 2.9312217801402340e+00 3.4788686804837941e+00 3.0843097718084085e+00 0 0 0
54 2 3.5886403940444982e+00 2.7799082805104312e+00 4.3697034792533600e+00 0 0 0
55 1 1.7023070923534469e+01 4.3109067603892415e+00 3.3453989962830510e+00 -1 0 0
56 2 -9.5869975338983560e-01 5.2042774168840449e+00 3.7594433027492000e+00 0 0 0
57 2 -2.4779174024403483e-01 3.6823123501528534e+00 3.7540768428980664e+00 0 0 0
58 1 2.1687532073132085e+00 4.0365940703952976e+00 6.4563897451214514e+00 0 0 0
59 2 2.3880671829420712e+00 4.8668420978496689e+00 6.0112254326886712e+00 0 0 0
60 2 1.4666193992508587e+00 4.2052020756479216e+00 7.0444629627385460e+00 0 0 0
61 1 8.5775356603672943e+00 6.8749879540809191e+00 1.8050535244812900e+00 0 0 0
62 2 7.7698850079783721e+00 6.8095652519518852e+00 2.3255829638193655e+00 0 0 0
63 2 8.5264712444440924e+00 6.1219652930064763e+00 1.1533284060823736e+00 0 0 0
64 1 2.6151878501704582e+00 7.1823882976153852e+00 7.9971952972113822e+00 0 0 0
65 2 1.6532218229858833e+00 7.3752393759853883e+00 7.7091049031219923e+00 0 0 0
66 2 2.8384822226107618e+00 7.9944409995847225e+00 8.5346679061911281e+00 0 0 0
209 2 3.6431400214744007e+00 1.0573711031967017e+01 6.8922153583334804e+00 0 0 0
68 2 -2.7349331125528784e+00 1.1066386879163599e+00 8.8485294666892571e+00 0 0 0
776 2 7.7511947494264026e+00 1.0828111083319142e+01 9.6374828789992240e+00 0 0 0
72 2 3.7941428050918415e+00 1.5182775411435654e+00 9.7318168721538911e-01 0 0 0
73 1 5.4231354394822890e+00 5.2691470141989303e+00 4.8619699443734001e+00 0 0 0
74 2 5.3379775802465304e+00 5.8242172156383578e+00 5.6884933922180947e+00 0 0 0
75 2 4.5101160227122357e+00 5.0099145577089175e+00 4.6136365101276953e+00 0 0 0
76 1 7.5916035385124925e-01 2.5171978097416980e+00 4.5864074364764562e+00 0 0 0
77 2 1.8986496321078050e-01 2.1404763498154611e+00 5.2395599569468843e+00 0 0 0
78 2 1.3721024311535095e+00 3.0155140150319593e+00 5.1695698052669155e+00 0 0 0
80 2 6.5498661540176082e+00 2.0054144782595484e+00 7.9783361466479963e-01 0 0 0
671 2 8.4027651686317917e+00 5.9433127174817102e+00 8.8621832544293859e+00 0 0 0
16 1 5.6617237100063855e+00 4.8347744557997245e+00 5.6869531019981834e-01 0 0 0
85 1 1.5389848030443835e+01 7.3776877822586717e-01 4.9250677430407803e+00 0 0 0
87 2 1.5558986212141001e+01 1.2146632180729715e+00 4.1233379419453859e+00 0 0 0
88 1 1.2854609164056237e+01 1.0513878643606254e+00 5.3334618574064292e+00 0 0 0
89 2 1.2774042278185128e+01 1.8241294275518283e+00 4.7246798872126812e+00 0 0 0
90 2 1.3818370662673797e+01 8.0965726460179321e-01 5.2902929005301411e+00 0 0 0
91 1 8.5553118077027843e+00 6.5684949094464544e+00 5.3148023924189989e+00 0 0 0
92 2 8.4047012696610253e+00 5.9212284544763802e+00 4.6153379747000018e+00 0 0 0
93 2 9.5453691808666754e+00 6.6539732830125722e+00 5.4767919946327730e+00 0 0 0
94 1 1.1137603010443446e+01 6.3573506467484062e+00 4.8456509806065409e+00 0 0 0
95 2 1.1726018295388160e+01 7.1157184630496504e+00 4.7641026922046192e+00 0 0 0
96 2 1.1446941409353499e+01 5.6626887606764651e+00 5.4918431679954249e+00 0 0 0
165 2 1.7040915317554759e+01 6.7019420195740431e-01 7.2964000254741801e-01 0 0 0
151 1 6.7292928190572852e+00 5.2854551525955307e-01 8.3184236195215444e+00 0 0 0
187 1 1.0879908108700462e+00 1.0251761023178725e+01 4.1905768784178110e-01 0 0 0
101 2 1.4887922283949504e+01 5.1572699270816207e+00 1.1442037121000279e+00 0 0 0
219 2 6.3779342529738718e+00 1.0524164578925925e+01 7.0892659729675014e+00 0 0 0
67 1 -2.3272869531948008e+00 3.9201227385754117e-01 8.3577413199747479e+00 0 0 0
103 1 1.0045242409113509e+01 3.0083254098861310e+00 4.1422935682107742e-01 0 0 0
152 2 7.4166945204371419e+00 5.5866322497160148e-01 7.5948836432770852e+00 0 0 0
109 1 1.3732008638044357e+01 6.4321339965175950e+00 7.3897491104568775e+00 0 0 0
110 2 1.3755796285643836e+01 5.8333113458703085e+00 8.1925226965541285e+00 0 0 0
111 2 1.2824392766427856e+01 6.7720440802796160e+00 7.4038425998535171e+00 0 0 0
112 1 1.4852717332533988e+01 6.3473145503729134e+00 2.7355858345498318e+00 0 0 0
113 2 1.4219400068810081e+01 7.0405141256722104e+00 2.4299643093815311e+00 0 0 0
114 2 1.5688431440394254e+01 6.7956527634561654e+00 2.4575675248705733e+00 0 0 0
115 1 1.0371469932220421e+01 1.3419123229676650e+00 2.5043677400814892e+00 0 0 0
116 2 1.0074076757215314e+01 1.9944709023123719e+00 1.7915096613877841e+00 0 0 0
86 2 1.6101462153268891e+01 1.0011196824839125e-01 5.0912228842727094e+00 0 0 0
118 1 9.3629254380226961e+00 1.1845958686842037e+00 7.3984045013019433e+00 0 0 0
119 2 9.5436751314157959e+00 1.8255254630838349e+00 8.1051494390657535e+00 0 0 0
305 2 1.2114345756172703e+01 1.1184708287495072e+01 3.1169786405021580e+00 0 0 0
121 1 1.5393766133747045e+01 2.2969036505207976e+00 2.7576523947796878e+00 0 0 0
122 2 1.5871019926483420e+01 3.1466665458269660e+00 2.7125322785756909e+00 0 0 0
123 2 1.5553387866751203e+01 1.7622335876546076e+00 1.9542189533447394e+00 0 0 0
124 1 1.3045689262266778e+01 2.5414668886989409e+00 7.6319502041676532e+00 0 0 0
125 2 1.3948046899309357e+01 2.8374587273403149e+00 7.5383788504412426e+00 0 0 0
126 2 1.2916922985437138e+01 1.9354604877441559e+00 6.9046022663633781e+00 0 0 0
127 1 8.5740496106892223e+00 4.9199152511915951e+00 7.3509299616673136e+00 0 0 0
128 2 7.8256154190718288e+00 4.2073686970461051e+00 7.3644580476388084e+00 0 0 0
129 2 8.4145171786944992e+00 5.4566149231175789e+00 6.5528893712494849e+00 0 0 0
130 1 1.0881814925154304e+01 4.9048031782654897e+00 2.4904690968876531e+00 0 0 0
131 2 1.1440521497418404e+01 4.1398891588562874e+00 2.7280808397844005e+00 0 0 0
132 2 1.1075559140816045e+01 5.5438351609394125e+00 3.2075959657154764e+00 0 0 0
134 2 1.5047383677540152e+01 3.8003491394174831e+00 5.7430077286874326e+00 0 0 0
136 1 1.2714657316491493e+01 3.1212785944748473e+00 3.6800295758290380e+00 0 0 0
137 2 1.3089598360119808e+01 3.7554308531894862e+00 4.3156865317173434e+00 0 0 0
138 2 1.3478816656067956e+01 3.0031480327423612e+00 3.1158752112316752e+00 0 0 0
139 1 8.2816718370092808e+00 4.4709414153468137e+00 3.5399422898483017e+00 0 0 0
140 2 9.0268478521176476e+00 4.5935258242878243e+00 2.9023898298681639e+00 0 0 0
141 2 8.5803136617204139e+00 3.8402610482134096e+00 4.2153614477873704e+00 0 0 0
142 1 1.1123956935168087e+01 4.3675027159925559e+00 6.4999081561840235e+00 0 0 0
143 2 1.1810590032881915e+01 3.9964875824104578e+00 7.0732379472901101e+00 0 0 0
144 2 1.0318018085697867e+01 4.4724633019532147e+00 7.0307987778360097e+00 0 0 0
147 2 1.6872714138801150e+01 7.7792401109430704e+00 1.1318160456589279e+00 0 0 0
148 1 1.1113352879079137e+01 7.2818787459962735e+00 8.2868495287147432e+00 0 0 0
149 2 1.1069699207167613e+01 6.3506489830251667e+00 8.4197890690402097e+00 0 0 0
19 1 9.9423227281815718e-01 2.7689239501580545e+00 6.0969040357072712e-01 0 0 0
97 1 1.3984577320648077e+01 4.6571640674244286e+00 9.6684034281170792e+00 0 0 0
668 2 1.2475557405169049e+01 1.7927260905379683e+00 9.2100263050234705e+00 0 0 0
153 2 6.8544305677106934e+00 1.3742317072324157e+00 8.7653034580790372e+00 0 0 0
606 2 1.0970029491646915e+01 4.0645853565426959e+00 9.6422160354767765e+00 0 0 0
155 2 1.2927562721186197e+01 1.4234324542016552e+00 1.0384701214702488e+00 0 0 0
18 2 5.6542611527748781e+00 5.3270455479026095e+00 1.4357045871003036e+00 0 0 0
157 1 1.4267699784001184e+01 5.0614827123800596e+00 5.0356135728168265e+00 0 0 0
158 2 1.4494666525295951e+01 5.6969512898805590e+00 4.2799549822041030e+00 0 0 0
159 2 1.4082928249890291e+01 5.4685886310415519e+00 5.8957756733834135e+00 0 0 0
160 1 9.7039179905146042e+00 2.5873604542981026e+00 5.0262453629429791e+00 0 0 0
161 2 1.0482608767854305e+01 3.1130988396380204e+00 5.2556322354934029e+00 0 0 0
162 2 9.9506283587000208e+00 2.2364388658090757e+00 4.1019036955457988e+00 0 0 0
146 2 1.7241504577040946e+01 6.2475070162961943e+00 1.3623089944931137e+00 0 0 0
35 2 -8.6338759468412407e-01 8.6900455905331053e-01 7.6197267272150286e+00 0 0 0
585 2 3.9209087802868985e+00 1.7894802448896454e+00 8.9829041781542500e+00 0 0 0
169 1 6.5628888446186489e+00 8.5698632606049134e+00 4.7621398414023162e+00 0 0 0
170 2 7.2746207333269197e+00 7.8787504497932037e+00 4.9092129580484736e+00 0 0 0
171 2 6.8830909979720794e+00 9.3098515843086105e+00 5.2421695308547562e+00 0 0 0
172 1 4.0377794795217437e+00 8.2663471426744888e+00 4.9028929011642246e+00 0 0 0
173 2 3.8394108795693480e+00 9.1157287238093527e+00 4.4541212268494519e+00 0 0 0
174 2 5.0485859069342123e+00 8.1959315355618827e+00 4.7487953341189213e+00 0 0 0
331 1 1.5772668906118056e+01 8.9106255062881807e+00 2.7223023071836505e-01 0 0 0
2 2 7.5223950091448035e+00 7.4781828919668170e-01 5.1686646780123686e+00 0 0 0
302 2 1.5177742496943855e+01 1.0410070268663441e+01 6.9382769328270673e+00 0 0 0
192 2 5.1680734828623898e-01 9.6326685800132417e+00 8.7665100691244398e+00 0 0 0
199 1 1.4031012029349905e+00 8.4853231353588541e+00 2.6615133409668728e+00 0 0 0
200 2 1.2696475524614654e+00 9.1664834291868083e+00 1.9665179945530831e+00 0 0 0
201 2 5.7508140792299078e-01 7.9034160049980864e+00 2.5151700606769802e+00 0 0 0
202 1 3.3305187100698364e-01 8.5899741886312864e+00 7.3776138964974480e+00 0 0 0
203 2 -5.3396277897158817e-01 8.1926608348398258e+00 7.4558258649586282e+00 0 0 0
204 2 4.3433242014741547e-01 8.7390198592036192e+00 6.3769805914307893e+00 0 0 0
205 1 6.0743740742913621e+00 1.0468398543037734e+01 2.6029170048054637e+00 0 0 0
206 2 6.0401969350045013e+00 9.6910922219026201e+00 3.2069434602356779e+00 0 0 0
207 2 6.4582181752583017e+00 1.0152235913520885e+01 1.8038409582845738e+00 0 0 0
208 1 4.4273104547944380e+00 1.0113567868760157e+01 7.1903416214251008e+00 0 0 0
217 1 6.9321656018564948e+00 1.0902355861072246e+01 6.4236113691842327e+00 0 0 0
210 2 4.4299829202930017e+00 9.3358966309181763e+00 6.5994669012747522e+00 0 0 0
836 2 1.3197781405111069e+01 9.0660885558444129e+00 8.9444172538471953e+00 0 0 0
32 2 2.2737859646112857e+00 7.9928262743594747e-01 2.2505155305617643e+00 0 0 0
117 2 9.7026516066958024e+00 6.2249893363744857e-01 2.4234812477181302e+00 0 0 0
83 2 2.0593266106194821e+00 5.9532692829910303e+00 9.2013143447484902e-01 0 0 0
167 2 1.1310808785848028e+01 5.8313679097657118e+00 1.1389594290798943e+00 0 0 0
235 1 -2.1390730931394661e+00 8.0229143378267551e+00 8.2804997021568063e+00 0 0 0
236 2 -2.2348500940920752e+00 8.8307240864753140e+00 8.7959235199804482e+00 0 0 0
238 1 4.2499184246636776e+00 8.1659644282244539e+00 1.7149910236116803e+00 0 0 0
239 2 3.5181144637032338e+00 8.2937823272605709e+00 2.3287445863267751e+00 0 0 0
240 2 4.2026123682960366e+00 9.0480814257440993e+00 1.1596903267704204e+00 0 0 0
244 1 7.1721035069106942e-01 9.8668311675843636e+00 4.8347067805590793e+00 0 0 0
245 2 1.0961026445179056e+00 9.3565490967775045e+00 4.1032959776135680e+00 0 0 0
246 2 1.4933808386040868e+00 1.0210939471443798e+01 5.3015070409372838e+00 0 0 0
584 2 2.8709686613538308e+00 6.1317068377146711e-01 9.4178269861983370e+00 0 0 0
301 1 1.5898170245843687e+01 1.0816676460017229e+01 6.4373651023173366e+00 0 0 0
253 1 1.6048705054436354e+01 8.4963708595220648e+00 4.7570580474374236e+00 0 0 0
255 2 1.6013182828439810e+01 8.7476057086672210e+00 3.7591730668664067e+00 0 0 0
256 1 1.2897032778972768e+01 8.7066248510853832e+00 5.2537166852229547e+00 0 0 0
257 2 1.3759541637135909e+01 8.3777109763131676e+00 4.9777428157910579e+00 0 0 0
258 2 1.2750450634271242e+01 9.5090959636007923e+00 4.7012578531737352e+00 0 0 0
84 2 3.1778713101841607e+00 6.8870278441426391e+00 7.8699918702730742e-01 0 0 0
272 2 1.0150237154008970e+01 1.0076369757061517e+01 1.1221083753575483e+00 0 0 0
248 2 7.7717140484821989e+00 8.1024830956588332e+00 7.6770674851451026e-01 0 0 0
276 2 9.4873697203439615e+00 1.0099836109088653e+01 8.7308819885320492e+00 0 0 0
283 1 1.0344181275033804e+01 8.8560791274564341e+00 2.4042044231108211e+00 0 0 0
284 2 1.0225266414816950e+01 9.2186665586988692e+00 3.2833214203063328e+00 0 0 0
285 2 9.6010172576612263e+00 8.2252535331451693e+00 2.2689984130520449e+00 0 0 0
286 1 9.3398921506563326e+00 9.1611505400303930e+00 7.1964078946407701e+00 0 0 0
287 2 9.8556910226506442e+00 8.3308935320655859e+00 7.4202928612530048e+00 0 0 0
288 2 8.3939472564551423e+00 8.9541833447208283e+00 7.1206173630768843e+00 0 0 0
289 1 1.5298372968259965e+01 1.0056474956285907e+01 2.5608637161226695e+00 0 0 0
17 2 5.0216922249894722e+00 4.1512140387685301e+00 7.9680688424954071e-01 0 0 0
291 2 1.5529062185307511e+01 9.7969253322849070e+00 1.6079596532895972e+00 0 0 0
292 1 1.3262950199171332e+01 9.9843299773143048e+00 7.5226957287329999e+00 0 0 0
20 2 4.0321011416812247e-01 3.5370798019648593e+00 6.1166726762140577e-01 0 0 0
294 2 1.2931494983692474e+01 9.4864622174505957e+00 6.7644681549182666e+00 0 0 0
528 2 2.6680290968813849e+00 3.0078091164951331e+00 3.3335898031306233e-01 0 0 0
189 2 2.0414541380870821e+00 1.0354348071176585e+01 3.9481617773733502e-01 0 0 0
306 2 1.3634073677993943e+01 1.0567640408056450e+01 2.9081865687493638e+00 0 0 0
224 2 -1.1339924488233244e-01 1.1033826161401651e+01 3.9937559815404571e+00 0 0 0
319 1 6.7085416355441172e+00 8.1102047388890188e+00 8.1946559670436336e+00 0 0 0
320 2 6.5496287802511013e+00 8.9469608597036601e+00 8.7023505196122386e+00 0 0 0
321 2 7.0587840406725650e+00 7.4276767192689368e+00 8.8535809467990134e+00 0 0 0
322 1 1.3019698523180448e+01 8.0243685213497749e+00 1.7181123184717775e+00 0 0 0
323 2 1.2378437224606056e+01 8.1858679396507537e+00 2.4021302053884366e+00 0 0 0
324 2 1.2519128623617052e+01 7.4368616719564660e+00 1.0685990075672822e+00 0 0 0
328 1 1.0021239363200785e+01 1.0077411970809717e+01 4.8638399312544296e+00 0 0 0
329 2 9.8342957088147323e+00 9.6135412034082162e+00 5.6694369624519565e+00 0 0 0
330 2 9.1614756533423396e+00 1.0452181472260257e+01 4.5700330712567618e+00 0 0 0
145 1 1.7211288644924249e+01 7.0823671626723099e+00 1.8396886479960302e+00 0 0 0
220 1 3.6588804370844610e+00 1.0653804973152331e+01 3.5084389514034076e+00 0 0 0
304 1 1.2956818686981871e+01 1.0809203446968247e+01 3.5550720265000213e+00 0 0 0
133 1 1.5377532864728359e+01 3.2689574040439804e+00 6.5252756343183842e+00 0 0 0
604 1 1.1445710913031949e+01 4.8759321083181080e+00 9.6844402394722167e+00 0 0 0
293 2 1.2636933531437087e+01 1.0742144845292028e+01 7.5785406755774547e+00 0 0 0
135 2 1.5469828524867898e+01 2.3522153063519342e+00 6.1854635753322169e+00 0 0 0
70 1 3.7916747712247494e+00 6.4134606267573213e-01 1.4973555717418807e+00 0 0 0
102 2 1.4245069457630722e+01 4.0292444057905126e+00 2.9772743913276833e-01 0 0 0
154 1 1.2872533935627487e+01 7.0586415976564598e-01 1.7228007501920954e+00 0 0 0
221 2 4.5467392516054241e+00 1.0698833074997548e+01 2.9823340052324006e+00 0 0 0
156 2 1.1982452688565498e+01 7.5231442817907845e-01 2.0531643514013123e+00 0 0 0
274 1 9.4277347785274195e+00 1.0545016488680805e+01 9.6237089873618427e+00 0 0 0
518 2 7.4438251309378778e+00 4.4175956904003764e+00 3.5773448404977448e-01 0 0 0
13 1 5.1228513037425305e+00 4.8663886510711611e+00 9.6432932665805620e+00 0 0 0
163 1 1.6366586127939737e+01 1.1408297086863639e+00 2.3198910533971911e-01 0 0 0
82 1 2.6046426938314347e+00 6.3776997716313426e+00 2.2484536655166143e-01 0 0 1
587 2 -1.6251601537304916e+00 6.3001021759248896e+00 9.0462431260857468e+00 0 0 0
521 2 2.4030844811862981e+00 5.5974912096291982e+00 9.3168694375779069e+00 0 0 0
780 2 1.3292874521896710e+01 9.5898399094519711e+00 3.4191110595895702e-01 0 0 0
99 2 1.2980703283590039e+01 4.6605306251017771e+00 9.6744095130622227e+00 0 0 0
777 2 6.2463581335127003e+00 1.1207151807221971e+01 9.4522644735098460e+00 0 0 0
247 1 7.1125579056054464e+00 8.8096805037878525e+00 5.4919489134060384e-01 0 0 0
190 1 5.5510695872793514e-01 9.9762097109267458e+00 9.7018981733038121e+00 0 0 0
586 1 -8.0711793811632138e-01 5.8462601611050413e+00 9.3596471097383933e+00 0 0 0
583 1 3.5476157485546276e+00 1.2996170415449833e+00 9.7395811544115034e+00 0 0 0
81 2 -4.6573577609775541e-01 5.9260907238416971e-01 1.8953376873260289e+01 0 0 0
607 1 6.7283221175990935e+00 2.8994481700195127e+00 9.9967947229713889e+00 0 0 0
249 2 7.3119146959150871e-01 9.1129801186496611e+00 1.8760491410821565e+01 0 0 0
590 2 1.1147758878374075e+01 1.0974624574921839e+00 1.4419079270296740e+01 0 0 0
711 2 2.1708376041463842e+00 1.0260235813112542e+01 1.2297011735848855e+01 0 0 0
332 2 9.5500950001818978e+00 9.3412063034092245e+00 1.8646481883550560e+01 0 0 0
524 2 1.4778458563514700e+01 3.4125174076924991e+00 9.7958610238436581e+00 -1 0 0
608 2 6.1183877271853859e+00 3.7039153897672383e+00 9.9826333346948974e+00 0 0 0
903 2 4.9001078567489493e+00 2.6734026747700185e-01 1.0399982988744943e+01 0 0 0
807 2 1.2793973392270342e+01 1.0185348910055666e+01 1.5096495966230647e+01 0 0 0
620 2 6.6883667349613827e+00 5.2437829063948427e-01 1.2028346964515503e+01 0 0 0
573 2 1.1752577556043855e+01 1.8424824584465072e-01 1.7642124397439822e+01 0 0 0
752 2 3.2549837309554408e+00 9.5946126492846773e+00 1.0602120193999692e+01 0 0 0
98 2 1.4172275914617137e+01 5.4291978779279590e+00 1.0194077768306936e+01 0 0 0
517 1 1.6384291264135733e+00 4.8071235134688299e+00 1.9141423162886522e+01 0 0 0
837 2 1.2535187560411316e+01 9.1302719044889660e+00 1.0536941402049528e+01 0 0 0
990 2 7.3200567674141910e+00 2.0066685918324939e-01 1.7601486392017211e+01 0 1 0
23 2 7.4755012215220384e-01 3.6662091268457098e+00 1.0026118720695976e+01 0 0 0
505 1 3.3055209304269058e+00 9.3286252857880037e-01 1.4314148492688865e+01 0 0 0
506 2 3.6150057085982370e+00 1.6875204470834750e+00 1.4876202276123523e+01 0 0 0
658 1 9.4918569375940827e+00 7.0030147172494484e-01 1.1122690212925292e+01 0 0 0
508 1 6.4803278603920056e-01 1.0834094468806952e+00 1.4481163841022729e+01 0 0 0
188 2 -5.7008598692369601e+00 9.3821658194590842e+00 1.8960944506964882e+01 0 0 0
510 2 1.6273135861782695e+00 8.8829547576588863e-01 1.4491916416644806e+01 0 0 0
511 1 -3.5069817219095345e+00 6.4267391535357321e+00 1.4548880707377730e+01 0 0 0
512 2 -3.6874783333029906e+00 5.4970977745356873e+00 1.4141755988351951e+01 0 0 0
513 2 -3.5492837989977457e+00 6.2037585769255639e+00 1.5507332399592256e+01 0 0 0
514 1 -7.9406629518527527e-01 6.5738561780489926e+00 1.4407190497641036e+01 0 0 0
515 2 -7.9161789924244808e-01 5.7111859282496544e+00 1.4976924988387202e+01 0 0 0
516 2 -1.7810434713787808e+00 6.7583717387392843e+00 1.4205180179622587e+01 0 0 0
191 2 7.6201739355290687e-01 9.2848365353683668e+00 1.0381859682979353e+01 0 0 0
519 2 1.5551031849646337e+00 5.1309140759941601e+00 1.8200990053842091e+01 0 0 0
655 1 3.4386230069820920e+00 3.1821359266418098e-01 1.8023867422094497e+01 0 0 0
522 2 2.5627130057477356e+00 5.1614110317147359e+00 1.0876545110831559e+01 0 0 0
164 2 9.1517350904655999e+00 4.0923257499954818e-01 1.8894752442234612e+01 0 0 0
105 2 3.4038172743966664e+00 2.1417046491944305e+00 1.9028902307230418e+01 0 0 0
525 2 -2.4443658876212373e+00 2.2459646553827479e+00 1.0766639961099093e+01 0 0 0
824 2 2.9449935126789786e+00 7.4661564476220539e+00 1.7501347541282847e+01 0 0 0
527 2 -2.9200777248986882e+00 2.4836405340513230e+00 1.8289588338304902e+01 0 0 0
529 1 1.5471063000985721e+00 6.2320253832787191e+00 1.7086765547201246e+01 0 0 0
530 2 1.7937206637049394e+00 5.9467548561266979e+00 1.6175647214696419e+01 0 0 0
531 2 5.1609011341058597e-01 6.3757271055266278e+00 1.6994601594627618e+01 0 0 0
532 1 2.5617981254030742e+00 6.3449186318260127e+00 1.2302302200362396e+01 0 0 0
533 2 3.4435206397016662e+00 6.6767146976086940e+00 1.1997359813321298e+01 0 0 0
534 2 2.6653777268653203e+00 6.0457078461797025e+00 1.3196739048321261e+01 0 0 0
535 1 -1.9687614628170507e+00 1.2628297337309355e+00 1.2260655260592982e+01 0 0 0
574 1 6.1487823911689921e-01 5.8069703121092764e-01 1.1284302045111090e+01 0 0 0
537 2 -1.0129392994700503e+00 1.0433370876505323e+00 1.2125279006251409e+01 0 0 0
538 1 -3.0306125202420615e+00 1.2375833783553163e+00 1.7025567744450836e+01 0 0 0
539 2 -3.9628873844835555e+00 8.8689653469528473e-01 1.7123732416178431e+01 0 0 0
540 2 -2.8569111233177296e+00 1.5021921748637541e+00 1.6126625633822357e+01 0 0 0
541 1 3.3560147023911551e+00 2.5426694590688861e+00 1.2073831495848486e+01 0 0 0
542 2 3.3479875377775876e+00 1.8175002887544465e+00 1.2746396385474553e+01 0 0 0
543 2 3.4076686296254954e+00 2.1838302365797446e+00 1.1171229047784641e+01 0 0 0
544 1 5.9625079960819782e-01 2.3303158075509844e+00 1.6784573650873750e+01 0 0 0
545 2 3.6790009547322544e-01 1.8771417299838646e+00 1.7606660092112730e+01 0 0 0
546 2 4.9155992777465762e-01 1.6942834689364301e+00 1.6011728860518581e+01 0 0 0
547 1 -3.3388608986993393e+00 4.9745515768071336e+00 1.6875524401944155e+01 0 0 0
548 2 -4.0992941292290705e+00 4.3586911136225668e+00 1.6743096401905564e+01 0 0 0
549 2 -3.5989135052513386e+00 5.4451520354853065e+00 1.7659102180318069e+01 0 0 0
550 1 -1.3145813216748223e+00 4.8598403518303748e+00 1.1994656876790430e+01 0 0 0
551 2 -6.8664344555226586e-01 4.1928862885626774e+00 1.2362973892619411e+01 0 0 0
552 2 -1.1828154764397731e+00 5.5323824236881647e+00 1.2646778499783370e+01 0 0 0
553 1 3.5435051515264169e+00 3.2526701361729113e+00 1.6115299494791934e+01 0 0 0
554 2 2.8938584190869614e+00 3.1756188039647184e+00 1.6829478139399452e+01 0 0 0
555 2 4.3019469682365576e+00 3.8034711817715872e+00 1.6508999904982900e+01 0 0 0
556 1 6.4881591529017779e-01 3.3457562872173918e+00 1.3056903311416571e+01 0 0 0
557 2 1.4467011844761180e+00 3.1418818270296369e+00 1.2559198488104636e+01 0 0 0
558 2 6.7070042484551884e-01 2.5256910454323429e+00 1.3590286792467660e+01 0 0 0
559 1 -3.8693056846743303e+00 4.2814371014283177e+00 1.3270881734063241e+01 0 0 0
560 2 -3.2256262245010783e+00 4.4058153070488997e+00 1.2543583159090561e+01 0 0 0
561 2 -3.3603414699394065e+00 3.6054160048338084e+00 1.3811117693971237e+01 0 0 0
562 1 -9.0383131264925076e-01 4.3370917152322246e+00 1.5763606378608301e+01 0 0 0
563 2 -3.7795438759244604e-01 3.6086300682706787e+00 1.6124707263558030e+01 0 0 0
564 2 -1.6798315832586748e+00 4.2936024696891391e+00 1.6313522784155879e+01 0 0 0
565 1 4.9966331353931590e+00 7.3333227525908669e+00 1.1262469004424949e+01 0 0 0
566 2 4.5141698598280442e+00 8.0448225481645430e+00 1.0770968412256876e+01 0 0 0
567 2 5.2595379622685581e+00 6.6334244773283615e+00 1.0672388940513272e+01 0 0 0
568 1 -9.5083649695713746e-01 7.0155075417390078e+00 1.8110134000959018e+01 0 0 0
569 2 -1.0349704706741383e+00 6.2018475194745051e+00 1.8566269386457730e+01 0 0 0
570 2 -5.6377347883542495e-01 7.6101659495883966e+00 1.8805384337023828e+01 0 0 0
835 1 1.2968775996853655e+01 8.5687174801889050e+00 9.7767100444321144e+00 0 0 0
572 2 -5.7224199237995856e+00 1.3496430838036912e+00 1.8688609828081216e+01 0 0 0
810 2 8.8829559836535061e+00 1.1189966479351730e+01 1.2730163895629358e+01 0 0 0
588 2 -1.0560017259447920e+00 5.4659805930653107e+00 1.0235783231315452e+01 0 0 0
576 2 7.7396540203306641e-01 1.3740632269751347e+00 1.0670039342309948e+01 0 0 0
577 1 2.2272479391167046e+00 5.2102740390969764e+00 1.4643540822569243e+01 0 0 0
578 2 1.5987796506624337e+00 4.6934462501433449e+00 1.4176285355404145e+01 0 0 0
579 2 2.7679670711162698e+00 4.4778330366172678e+00 1.5062186522089560e+01 0 0 0
580 1 -2.4715493499003545e+00 2.5183849927320985e+00 1.4607464255483540e+01 0 0 0
581 2 -2.3684978567569432e+00 2.0429397712679944e+00 1.3791519055686861e+01 0 0 0
582 2 -1.6883659283994148e+00 3.0326807826580331e+00 1.4849554818513266e+01 0 0 0
694 1 -2.7862279040642255e+00 1.0157915074920721e+01 1.9275632946055978e+01 0 0 0
333 2 8.4081468746302406e+00 8.3539940217891093e+00 1.8880578524529010e+01 0 0 0
589 1 1.2120477181019307e+01 1.2172261169992082e+00 1.4281845935525972e+01 0 0 0
612 2 5.3440784244133752e+00 3.1375239617738351e+00 1.9183495180351091e+01 0 0 -1
591 2 1.2389203513770738e+01 1.9728887211388666e+00 1.4855540039849423e+01 0 0 0
592 1 9.4297972314860523e+00 1.1841770763669464e+00 1.4739883003451316e+01 0 0 0
805 1 1.2285232001412918e+01 1.0798601499411403e+01 1.5640722824106208e+01 0 0 0
594 2 9.3631057663317243e+00 1.8867117797972897e+00 1.4103345663559818e+01 0 0 0
595 1 4.8225433803268167e+00 6.4145069546297684e+00 1.4809994514400453e+01 0 0 0
596 2 4.8620432487512764e+00 6.1508801756964457e+00 1.5724507906761257e+01 0 0 0
597 2 4.7840973477794906e+00 5.5830143830360024e+00 1.4267193466270340e+01 0 0 0
598 1 7.8273724086672294e+00 6.2315349948218826e+00 1.4438283462423845e+01 0 0 0
599 2 6.9110587950751015e+00 6.4704331444960177e+00 1.4671000321228766e+01 0 0 0
600 2 7.8140185420248374e+00 6.1249559939647655e+00 1.3462708192742088e+01 0 0 0
691 1 -2.0798686261981829e+00 1.0209741345402509e+01 9.8357552745568100e+00 0 0 0
603 2 1.0947695887570827e+01 5.1517745034170339e+00 1.8248057894124916e+01 0 0 0
808 1 9.6130761296675011e+00 1.0733905799295497e+01 1.3211727265865408e+01 0 0 0
605 2 1.1278654371986592e+01 5.2814326137650172e+00 1.0529559346545524e+01 0 0 0
507 2 3.9798615998025912e+00 2.3280103927220652e-01 1.4265863249827332e+01 0 0 0
826 1 9.7148109907210820e+00 8.0987912192778850e+00 1.1271201412229118e+01 0 0 0
798 2 9.6200289715570797e+00 9.4380019923364635e+00 1.6134973896165633e+01 0 0 0
609 2 6.6733185011036351e+00 2.6090747130684129e+00 1.0875143243030930e+01 0 0 0
823 1 3.6710038291341451e+00 8.0084102344031844e+00 1.7882986055147434e+01 0 0 0
611 2 5.9565775417817166e+00 2.0563726581914246e+00 1.8269749174333079e+01 0 0 0
613 1 1.0246114445838796e+01 6.3038824984107054e+00 1.6731558936221727e+01 0 0 0
614 2 1.0848581790913439e+01 6.9743547505372323e+00 1.7145067608151841e+01 0 0 0
615 2 9.3870510241443075e+00 6.4660789413620261e+00 1.7137781452052405e+01 0 0 0