LAMMPS data file via write_data, version 15 Apr 2020, timestep = 3295000

576 atoms
2 atom types

4.7579535623095559e-01 1.7444205643746791e+01 xlo xhi
2.7079435623108061e-01 1.7239204643746916e+01 ylo yhi
6.2079535623097470e-01 1.7589205643748024e+01 zlo zhi

Masses

1 16
2 2

Atoms # atomic

94 1 1.5333125045182212e+00 2.2546583678229020e+00 3.8952313477520715e+00 1 4 -4
96 2 1.6457751778963554e+00 3.0973372116690325e+00 3.3994905600973966e+00 1 4 -4
95 2 1.9479096863424579e+00 1.5345090046107324e+00 3.3332780542548579e+00 1 4 -4
71 2 3.6304040557886497e+00 3.8327531868765252e+00 1.3769407366971695e+00 2 2 -3
145 1 2.8842852415071514e+00 3.9900749995764806e-01 2.4567510784706217e+00 3 3 4
70 1 2.7658914912207844e+00 3.5144528395635728e+00 9.3974106956925940e-01 2 2 -3
74 2 2.0438440733874614e+00 4.3146302638327461e+00 2.1219965954860487e+00 3 -2 -4
359 2 6.6496864629815917e+00 2.8039361916696586e+00 4.2065689638613648e+00 1 2 4
358 1 7.0331948240834450e+00 1.9258146502499638e+00 4.1001325761920846e+00 1 2 4
210 2 7.8454690757728027e+00 1.6013089120962758e+00 2.6426945119039296e+00 -3 2 1
360 2 7.8621706806835663e+00 1.9278037194910775e+00 4.6003449862132113e+00 1 2 4
208 1 8.4649172881578032e+00 1.1634239263661064e+00 1.9876231016874966e+00 -3 2 1
375 2 5.8093185097065190e+00 4.1125712130124625e-01 3.7810948927352217e+00 0 -1 5
209 2 8.9223780106940787e+00 1.8677253796219269e+00 1.4236505554279573e+00 -3 2 1
124 1 5.3102707893554362e+00 3.8624726152468947e+00 4.8453810470551915e+00 2 -4 4
480 2 5.0123456751342710e+00 4.2532857752056028e+00 3.1625140123195581e+00 0 -2 -1
134 2 9.0108243327144546e+00 4.4577502285802648e+00 1.8151005817018591e+00 3 -4 0
516 2 1.2056623238156224e+01 3.1782890782426616e+00 1.9832213165250523e+00 1 2 -3
515 2 1.1927658769673831e+01 3.3384198480970295e+00 3.6050697467854196e+00 1 2 -3
514 1 1.1532714406948049e+01 3.5911844666057857e+00 2.7146179972203144e+00 1 2 -3
135 2 1.0004449378894977e+01 4.3940683665292442e+00 2.9652953356058842e+00 3 -4 0
239 2 1.6895724434691601e+01 2.0336166772176023e+00 4.4414681467776642e+00 -4 -5 -2
311 2 1.5854558561686900e+01 1.7534820106511027e+00 1.1778470449137282e+00 -4 1 3
84 2 1.6011848301513901e+01 6.0562853819086704e-01 3.4863173762674293e+00 0 -2 4
312 2 1.6048518220500462e+01 3.3167417981629930e+00 1.1870248247813961e+00 -4 1 3
438 2 1.4845789881210935e+01 4.4152964153697658e+00 3.8309506129069497e+00 1 -3 0
436 1 1.4542742455870163e+01 3.9338080024099096e+00 4.6008505148285641e+00 1 -3 0
310 1 1.5782108296386209e+01 2.5844182131544442e+00 6.4126142412558529e-01 -4 1 3
476 2 2.8346121484021651e+00 8.6356837796653512e+00 2.8495302502940487e+00 0 0 -7
496 1 4.2218300524540506e+00 7.2686532971901574e+00 2.7781754004443400e+00 0 4 -1
75 2 2.2703288764597644e+00 5.2338246732056088e+00 3.3789656953366234e+00 3 -2 -4
73 1 1.6382232571599666e+00 4.6836847806704567e+00 2.9337134705855479e+00 3 -2 -4
479 2 4.6586157493741229e+00 5.5690213003743860e+00 2.4252540489852343e+00 0 -2 -1
497 2 4.6644693471553076e+00 7.7069503245699256e+00 1.9699551844089727e+00 0 4 -1
232 1 5.5460424846292913e+00 8.7408075937035026e+00 9.8996519193359589e-01 1 3 3
176 2 7.5255580348480056e+00 8.3637310233619360e+00 3.4826203633284085e+00 -1 -5 2
498 2 4.9002747678996528e+00 7.3233077138958045e+00 3.4658701919661428e+00 0 4 -1
478 1 4.9088334363992017e+00 4.6137412231847552e+00 2.2935223882295861e+00 0 -2 -1
50 2 8.6385389971633568e+00 6.1116517578754062e+00 3.4121990322124423e+00 6 3 -3
49 1 8.3178020160969108e+00 6.9224751458586340e+00 3.9118660480454004e+00 6 3 -3
228 2 6.9929593459317294e+00 6.4148433065626840e+00 4.7241160666400726e+00 1 0 2
23 2 5.9563230298143202e+00 4.5782579157983294e+00 9.7322985520246663e-01 1 -5 -1
133 1 9.1121189829188669e+00 4.7996823291509418e+00 2.7282088376142997e+00 3 -4 0
51 2 9.0812076279492615e+00 7.4131760996493172e+00 4.1925222131654083e+00 6 3 -3
168 2 1.2254666705737955e+01 5.1143970784969000e+00 2.2370202593699267e+00 -3 4 -2
167 2 1.2093442505788733e+01 6.3828655024793584e+00 3.0875208310270130e+00 -3 4 -2
166 1 1.2554451966247232e+01 6.0254686572461109e+00 2.2763589049153015e+00 -3 4 -2
411 2 1.2013477411616787e+01 7.0207876220232759e+00 1.0870232873559995e+00 0 0 0
332 2 1.6737902771612546e+01 5.1630082889110023e+00 2.5137205620295466e+00 -2 2 -6
331 1 1.5874206866177083e+01 4.6986822787903773e+00 2.3367876899846811e+00 -2 2 -6
333 2 1.5557246152210764e+01 5.2893038779653381e+00 1.6186579382943806e+00 -2 2 -6
3 2 1.5424360846061619e+01 7.4464101554411108e+00 4.1387218742555074e+00 1 1 1
44 2 1.5036130097575818e+01 7.4358575873638069e+00 1.7216927591212736e+00 5 -3 5
43 1 1.5048411053671053e+01 8.2633459774383233e+00 2.2232898672116894e+00 5 -3 5
542 2 2.8895165744739830e+00 2.3014550921864099e+00 5.1492888130022392e+00 0 1 5
347 2 1.7463926270828734e+00 6.2156563978208434e-01 8.9519750104056754e+00 -4 0 -3
372 2 2.0284237010168362e+00 3.4648053500656641e+00 8.7781595883098120e+00 6 3 -2
541 1 3.2321815672034298e+00 2.1718102609320447e+00 6.0411983188933975e+00 0 1 5
543 2 2.4888615391150397e+00 2.3876416728999512e+00 6.5854861698880711e+00 0 1 5
451 1 7.6213909763951104e-01 2.7354927465951184e+00 7.7274933057667523e+00 -1 10 0
126 2 4.7570506686745233e+00 3.3186446824762585e+00 5.4505224222807618e+00 2 -4 4
558 2 4.7339971490049058e+00 1.6026855346042523e+00 8.6263769928281668e+00 1 1 -2
189 2 4.9150532887860683e+00 1.8864023000477228e+00 6.7428192766633970e+00 2 8 -1
187 1 5.7796794753736211e+00 1.8588641773794248e+00 7.1541250265337295e+00 2 8 -1
218 2 6.5047534908919431e+00 3.4845375889717154e+00 6.8493902965490641e+00 0 0 -3
188 2 6.1732364628730467e+00 9.5974208330137056e-01 7.0665912570636396e+00 2 8 -1
217 1 6.7166935453055441e+00 4.3850201092799326e+00 7.0396086615114770e+00 0 0 -3
219 2 7.1060263506205050e+00 4.2864473682024613e+00 7.9639101817663729e+00 0 0 -3
201 2 9.5893591174785229e+00 4.5619629086423674e-01 8.4245853978174470e+00 3 -4 -2
40 1 1.2292149312003728e+01 2.4970631494931839e+00 5.2080056326199609e+00 -4 -2 2
8 2 1.0290194090795890e+01 1.7259433609410764e+00 5.0006277139801592e+00 4 3 3
7 1 9.5091811161080404e+00 1.7220193671298707e+00 5.5760240384137472e+00 4 3 3
9 2 9.7614275947166149e+00 1.1897623887303439e+00 6.3965315679752601e+00 4 3 3
207 2 9.7215007988818467e+00 3.7786481293302852e+00 6.2353296640999067e+00 -4 2 0
42 2 1.2109595319045978e+01 2.8006303748386037e+00 6.1235343240027724e+00 -4 -2 2
530 2 1.2065956277194124e+01 2.8271367118004682e+00 8.4827721458963552e+00 0 1 3
529 1 1.1858482998705455e+01 3.3754666389828900e+00 7.7429258634211466e+00 0 1 3
531 2 1.1651738276550009e+01 4.1960975567079721e+00 8.2071224857442395e+00 0 1 3
199 1 1.0316880632016288e+01 2.8584489335906266e-01 7.8110434926771024e+00 3 -4 -2
200 2 1.1152161052798325e+01 2.8186323381227690e-01 8.3646419997930312e+00 3 -4 -2
238 1 1.6072489200090040e+01 1.9079408116049876e+00 4.9840524418748915e+00 -4 -5 -2
41 2 1.3249936231110903e+01 2.6077210932848800e+00 5.0221517971758161e+00 -4 -2 2
240 2 1.5658049342057192e+01 2.7878155519582744e+00 4.9151103892108123e+00 -4 -5 -2
452 2 1.7284490859155973e+01 3.2802601397064142e+00 7.0524307372002735e+00 -2 10 0
453 2 1.7003345861335696e+01 2.2353081552434397e+00 8.1824043877616397e+00 -2 10 0
61 1 1.5327221836748773e+01 1.4273512606765293e+00 8.8476368734403259e+00 2 -2 0
62 2 1.4434139902165251e+01 1.3337620633302893e+00 8.4521649505574477e+00 2 -2 0
63 2 1.5822743760479682e+01 5.9939708363162159e-01 8.5957292118531470e+00 2 -2 0
144 2 1.6451117377414647e+01 1.0218094533133004e+00 6.4260836668402126e+00 -1 -1 2
181 1 2.6871509943975278e+00 6.0132505994450680e+00 5.3673499698012623e+00 -8 -4 -1
182 2 2.3902293264608261e+00 6.9432999847154200e+00 5.3712566220382554e+00 -8 -4 -1
46 1 1.0337783824680320e+00 8.3723526322891590e+00 5.2194704722179708e+00 2 -1 1
183 2 3.4102403165715991e+00 5.9325477357915322e+00 6.0139315308543813e+00 -8 -4 -1
317 2 6.7930196895021222e-01 6.1920883178328232e+00 7.6249326579944041e+00 2 -1 4
371 2 2.9426955307256337e+00 4.7101910349611051e+00 8.6182930763069745e+00 6 3 -2
224 2 1.1229792987827987e+00 5.3475813303419608e+00 5.4887319850330307e+00 2 3 -4
364 1 4.2915725555875301e+00 5.5476669070943121e+00 7.5881085765601979e+00 0 2 -3
365 2 4.3529569382078055e+00 6.5416081515504514e+00 7.6173164176117547e+00 0 2 -3
316 1 8.1303535830871043e-01 6.8367404003031123e+00 8.3817094455745949e+00 2 -1 4
367 1 4.1041767712866326e+00 8.3756633032034866e+00 7.6282043790611445e+00 -3 -3 -3
369 2 4.7999506033205437e+00 8.6521977085022321e+00 7.0039777443448941e+00 -3 -3 -3
125 2 5.6020718742436628e+00 4.7195733536490758e+00 5.2185211234971804e+00 2 -4 4
226 1 6.0582909119832369e+00 6.5034425808884215e+00 5.1275356496844919e+00 1 0 2
206 2 8.4859543126727406e+00 4.7107041393322975e+00 5.9409773799066894e+00 -4 2 0
366 2 5.2451623542777783e+00 5.0930433216166193e+00 7.4715460444005375e+00 0 2 -3
227 2 6.2059388845507444e+00 6.9594957103796915e+00 5.9553111871325335e+00 1 0 2
160 1 7.3344909199072550e+00 7.8785852306183397e+00 7.5628755183387932e+00 2 5 5
162 2 8.0460318170404150e+00 8.0157267185568735e+00 6.9514089906525056e+00 2 5 5
235 1 1.0432362785073865e+01 5.5288036051393439e+00 8.5271319054956649e+00 1 2 0
197 2 1.2903788234761839e+01 8.1419983508990583e+00 8.8698914728896572e+00 -1 -6 -3
205 1 9.4471085477100800e+00 4.7189124066298023e+00 6.0613361404977999e+00 -4 2 0
115 1 9.6386043182148793e+00 8.4571149897821005e+00 5.9839808221561928e+00 2 -5 -1
250 1 1.1208674758455238e+01 6.4880462765347371e+00 4.9321020228959673e+00 5 2 3
237 2 1.0149199167488888e+01 5.3582675365240400e+00 7.6362604777220620e+00 1 2 0
252 2 1.2014713702839563e+01 6.0911213532763711e+00 5.3561953203336197e+00 5 2 3
251 2 1.0481936177972342e+01 5.8837456876614587e+00 5.1953869013183267e+00 5 2 3
31 1 1.1561871908415496e+01 8.3958371013344060e+00 7.9880169745633243e+00 -7 5 6
116 2 1.0426220779344717e+01 7.9142684464147353e+00 6.1701430591994475e+00 2 -5 -1
236 2 1.0818419601105157e+01 6.4194521678042022e+00 8.4798727652764896e+00 1 2 0
2 2 1.6495429375985580e+01 7.6430527588048154e+00 5.2038958123398293e+00 1 1 1
1 1 1.5690078898245028e+01 7.0668650496636847e+00 4.9867384332383944e+00 1 1 1
446 2 1.3570597396510848e+01 5.5767321992088563e+00 7.3260832114021275e+00 -1 3 4
447 2 1.4103451646084144e+01 6.4313140624879814e+00 6.0806808154770433e+00 -1 3 4
87 2 1.5006993346315637e+01 8.6673898578751469e+00 8.5420161789238751e+00 0 3 -1
437 2 1.4055167051571473e+01 4.6126285142383328e+00 5.1178720410256293e+00 1 -3 0
225 2 1.6543209173073201e+01 5.2885495478372100e+00 5.8679070712808699e+00 1 3 -4
223 1 1.7408844212210049e+01 4.9837371766857661e+00 6.1014033287411449e+00 1 3 -4
86 2 1.6420174999037826e+01 8.3247754101642961e+00 7.9481129012194094e+00 0 3 -1
445 1 1.3435070276480964e+01 5.7520462912502905e+00 6.3916672513241100e+00 -1 3 4
557 2 4.0335521955296976e+00 1.6763886353301629e+00 1.0052201747531699e+01 1 1 -2
101 2 2.4507042814074049e+00 1.1813127928170788e+00 1.2520749452820704e+01 -1 0 3
503 2 4.2390891136853046e+00 3.6948382531054702e+00 1.0035522088303095e+01 -1 4 3
299 2 4.5132868335576992e+00 3.8069216205581586e+00 1.2182967500843633e+01 3 0 5
298 1 4.2910147544411039e+00 3.9526952005477400e+00 1.3152525456847526e+01 3 0 5
231 2 1.0264141008713152e+00 2.4980631714877557e+00 1.0905615117988228e+01 3 3 2
556 1 4.0975985179749195e+00 1.1644806820847418e+00 9.2126495238940880e+00 1 1 -2
370 1 2.6248796088221336e+00 4.0832089520993105e+00 9.2735038530670604e+00 6 3 -2
348 2 1.7993716427306892e+00 6.4019673721575421e-01 1.0496927129595647e+01 -4 0 -3
346 1 1.1616347276188175e+00 5.8579219818052997e-01 9.7083097411134656e+00 -4 0 -3
100 1 2.5498936464723454e+00 4.0802988963326581e-01 1.1898009311135350e+01 -1 0 3
502 1 4.9431899682589853e+00 3.3282247174904072e+00 1.0618463656151958e+01 -1 4 3
508 1 7.8558059480583404e+00 2.7118164876517445e+00 1.2154372259393204e+01 1 -1 -3
510 2 7.3022957290789785e+00 1.9124563542499873e+00 1.1980219290200568e+01 1 -1 -3
504 2 5.7928719132448254e+00 3.6469556908466458e+00 1.0286961484579139e+01 -1 4 3
509 2 7.4501518487488774e+00 3.1478177212420126e+00 1.2924210534961693e+01 1 -1 -3
550 1 7.4996950832301623e+00 3.8905751708613079e+00 9.8632020951307560e+00 5 -5 4
551 2 7.7697815107266637e+00 3.4610662655826627e+00 1.0686662932624190e+01 5 -5 4
547 1 7.7086061827116259e+00 7.9979850571790145e-01 9.4856314113102815e+00 -2 6 0
548 2 7.3737677181248333e+00 1.7027481138727789e+00 9.2165681703532432e+00 -2 6 0
157 1 1.2110467152792744e+01 2.0876655472526640e+00 1.0118798715124678e+01 -3 6 -7
354 2 1.0004241793667717e+01 3.3663914424726809e+00 1.2439757691172931e+01 -1 3 5
118 1 1.2514414571504002e+01 4.3005590420300424e+00 1.1523677513259871e+01 1 -3 -1
158 2 1.2446225232600025e+01 2.8722455043403357e+00 1.0613915733285120e+01 -3 6 -7
401 2 1.2382808651208261e+01 1.8789429591552391e+00 1.2883236726402028e+01 -3 6 -4
352 1 1.0522981641740438e+01 2.9631321648189322e+00 1.3197936783792342e+01 -1 3 5
159 2 1.1324610970863212e+01 1.7527930346756195e+00 1.0537314675238926e+01 -3 6 -7
400 1 1.3193390378300242e+01 1.4549517285902480e+00 1.3120688576933695e+01 -3 6 -4
417 2 1.2621294321598368e+01 6.8589758820396418e-01 9.6577685975633578e+00 2 0 -1
353 2 1.0266017131846178e+01 1.9896403234355207e+00 1.3239930895858828e+01 -1 3 5
149 2 9.1786288286856390e+00 5.9602449798015833e-01 1.0650367318687154e+01 -3 -3 -3
148 1 1.0045778791021002e+01 2.8807713283766390e-01 1.0982246560410813e+01 -3 -3 -3
229 1 1.7441504426509816e+01 3.0091441333869930e+00 1.1498100271651378e+01 2 3 2
230 2 1.6669276372711728e+01 2.3488104919228547e+00 1.1627324234330446e+01 2 3 2
540 2 1.4409086346132797e+01 1.6244258188947329e+00 1.1919853387439359e+01 6 4 0
538 1 1.5356338466647209e+01 1.6254387327524613e+00 1.1599341239980619e+01 6 4 0
539 2 1.5230678769945740e+01 1.6374393179355509e+00 1.0615186448290743e+01 6 4 0
128 2 1.6687052052410472e+01 4.2002376404794717e+00 1.0503582652496361e+01 -1 -1 0
69 2 1.3327578597611424e+01 4.4356906428302674e+00 1.3259474000540017e+01 -7 1 -5
435 2 2.1152529777569082e+00 4.9676825235611828e+00 1.0696694602364271e+01 -3 5 -1
12 2 4.2578507239917958e+00 5.9261889668800771e+00 1.1283039450901173e+01 7 0 3
513 2 1.2486762131745930e+00 7.0834109565417460e+00 1.1573544336495855e+01 0 2 -4
433 1 2.2393240228892193e+00 5.5373469547929037e+00 1.1496301997466100e+01 -3 5 -1
434 2 1.6598415927101067e+00 5.1749894268563681e+00 1.2172121351033809e+01 -3 5 -1
511 1 8.0739988538025731e-01 7.9457551732874077e+00 1.1747569554626061e+01 0 2 -4
11 2 4.4752486022787679e+00 7.4264658812546811e+00 1.0807809971854850e+01 7 0 3
114 2 6.8114887376333755e+00 8.6255113170732880e+00 1.2271866754420344e+01 -3 -1 -7
552 2 7.7248237038127545e+00 4.8660034596442987e+00 1.0005212006319841e+01 5 -5 4
10 1 4.9376386422468794e+00 6.6510866189943538e+00 1.1182932045937475e+01 7 0 3
112 1 6.5675054427050279e+00 7.8807171845429158e+00 1.2846833040131406e+01 -3 -1 -7
113 2 5.9881414393279266e+00 7.3245761518174088e+00 1.2305526706654671e+01 -3 -1 -7
259 1 7.7052277526567501e+00 6.6892333829393422e+00 1.0015926486531907e+01 -2 -1 2
468 2 8.7351727058619435e+00 7.7501000134438680e+00 1.0554010733331076e+01 3 0 -2
260 2 6.7755176785949978e+00 6.4322432406748398e+00 1.0285477637200126e+01 -2 -1 2
35 2 8.3039755269848143e+00 6.9276450851923057e+00 1.3270135361458539e+01 -3 -1 -4
261 2 7.6206092224553110e+00 7.0712792160331865e+00 9.1153266228423302e+00 -2 -1 2
119 2 1.1683238540802956e+01 4.7833039242665576e+00 1.1785057881448360e+01 1 -3 -1
120 2 1.2787645618673272e+01 4.8429757219198493e+00 1.0680220767869145e+01 1 -3 -1
192 2 9.5854550675087573e+00 5.5356375866254837e+00 1.2030973669789649e+01 -1 0 -5
190 1 9.6604165794316561e+00 4.8639770820620596e+00 1.1365293047319373e+01 -1 0 -5
191 2 9.7544602340024902e+00 5.2657746389366213e+00 1.0475486847793373e+01 -1 0 -5
439 1 1.2235875387807523e+01 7.1356401868255990e+00 1.1628934302434496e+01 4 1 1
441 2 1.1339326940283085e+01 7.4289573611296555e+00 1.1461387301693813e+01 4 1 1
466 1 9.3868199314130916e+00 8.4681571220600187e+00 1.0835429107313427e+01 3 0 -2
440 2 1.2265140957796188e+01 7.2951429627987991e+00 1.2640510273667998e+01 4 1 1
336 2 1.4040013159026065e+01 6.5589318057009969e+00 1.1705208948194038e+01 -1 2 1
334 1 1.4946629254024185e+01 6.6998515851782523e+00 1.1988954319742792e+01 -1 2 1
129 2 1.6130291288512375e+01 5.5210214731547609e+00 1.0850795681178850e+01 -1 -1 0
335 2 1.4870450467356079e+01 6.5214433240641290e+00 1.2966410351244489e+01 -1 2 1
127 1 1.6398905175899475e+01 5.0051578249161235e+00 1.0016933201174492e+01 -1 -1 0
512 2 1.6876402264876823e+01 7.7216137991033929e+00 1.2134594478492520e+01 -1 2 -4
196 1 1.3728594841093287e+01 7.8878719068158842e+00 9.3823379078673650e+00 -1 -6 -3
156 2 1.3773136702334195e+01 6.2422859147728875e+00 9.2645587679624359e+00 -3 -4 1
155 2 1.4680827505796348e+01 5.1449217660108850e+00 9.4843860321189037e+00 -3 -4 1
154 1 1.3721305387902435e+01 5.2811738448481886e+00 9.2120493104669166e+00 -3 -4 1
198 2 1.3554757528519332e+01 8.3152149862070619e+00 1.0270431748335062e+01 -1 -6 -3
318 2 1.7415545692521118e+01 6.3917076530182477e+00 9.1325496682029979e+00 1 -1 4
216 2 1.5985209315232920e+00 2.8092408336605419e+00 1.3429925835819105e+01 0 -6 2
215 2 3.1305359732471478e+00 2.8917037084687052e+00 1.3510322800609316e+01 0 -6 2
214 1 2.3324193863708631e+00 2.3113253177131949e+00 1.3711555810288409e+01 0 -6 2
72 2 2.6212672261924688e+00 4.1760153767315158e+00 1.7170942292236997e+01 2 2 -4
356 2 2.8861541141574918e+00 2.1434137862457665e+00 1.6922821599447261e+01 4 0 -5
355 1 3.1168853759832893e+00 1.5914280944052666e+00 1.6172276343223942e+01 4 0 -5
357 2 2.6562609257250620e+00 1.8892903897249578e+00 1.5359650253478234e+01 4 0 -5
399 2 4.6721260300995926e+00 1.4060356242757170e+00 1.5924808438824444e+01 2 3 2
29 2 8.0419073352267265e+00 3.7952956900957857e+00 1.7211399116052640e+01 2 0 4
28 1 8.9034096890543548e+00 3.4413569091132477e+00 1.7419048495158009e+01 2 0 4
455 2 6.2483511987076241e+00 2.4412085972049251e+00 1.4814357137450022e+01 0 0 0
454 1 6.3879265243938006e+00 3.3532585136951458e+00 1.4598226591752180e+01 0 0 0
456 2 6.3632837014390509e+00 3.8331475175343841e+00 1.5447391636010716e+01 0 0 0
300 2 5.0444959655882116e+00 3.7266088941076303e+00 1.3705552851551468e+01 3 0 5
397 1 5.5461352092241025e+00 1.0974020661504740e+00 1.5547730673799386e+01 2 3 2
398 2 5.3094256271228586e+00 4.6907950588189296e-01 1.4862378126838978e+01 2 3 2
525 2 8.8645529887529566e+00 9.6818338793979686e-01 1.3501951767471159e+01 3 0 -1
121 1 1.3033452028886273e+01 2.9446729414101602e+00 1.7371865122708591e+01 -3 -1 0
523 1 9.6771823374154415e+00 4.3882333044858224e-01 1.3578722991480030e+01 3 0 -1
13 1 1.2563700555676936e+01 1.0291105327579122e+00 1.5559307894008063e+01 -3 2 2
30 2 9.3877016696553994e+00 3.7527609865544966e+00 1.6679753409176264e+01 2 0 4
15 2 1.2783568591595333e+01 1.7256740573450744e+00 1.6263521301011288e+01 -3 2 2
245 2 1.0142481178175197e+01 3.8672586034197192e+00 1.4403843502761356e+01 -4 0 -3
402 2 1.3031796829324829e+01 1.4056440024893808e+00 1.4098242233592256e+01 -3 6 -4
244 1 9.8307978654888295e+00 4.4288745766124293e+00 1.5204926137534416e+01 -4 0 -3
123 2 1.2760121822081812e+01 3.7325477299491747e+00 1.6843293678382405e+01 -3 -1 0
14 2 1.1764699607758921e+01 5.9824376515783551e-01 1.5869926014541321e+01 -3 2 2
544 1 1.6680155387918134e+01 3.4594525688728195e-01 1.4618654278224350e+01 -1 4 2
67 1 1.3955202634518859e+01 4.4907658228077461e+00 1.4066347209118256e+01 -7 1 -5
68 2 1.4629107865284960e+01 3.7500447918379862e+00 1.4090861622620029e+01 -7 1 -5
287 2 1.6228519137438852e+01 2.8896983329043264e+00 1.5869595222069792e+01 4 -2 -1
286 1 1.6119374587673143e+01 2.8684129844075210e+00 1.4895358814643336e+01 4 -2 -1
288 2 1.6289025516037320e+01 1.8444203132536265e+00 1.4669572893733978e+01 4 -2 -1
560 2 1.7050921319837499e+01 3.9833765189681047e+00 1.4065787047003955e+01 -1 -5 -1
122 2 1.4009260610693170e+01 2.9688328657473271e+00 1.7517609060084318e+01 -3 -1 0
172 1 1.4328605624392390e+00 7.7873842027518485e+00 1.6305303771717711e+01 0 -4 3
173 2 1.7379276147324503e+00 6.8785553886181372e+00 1.6606864474538479e+01 0 -4 3
91 1 2.3818371170015689e+00 5.2908210183266391e+00 1.5920753581602195e+01 2 0 -2
93 2 1.7455390463152942e+00 4.9653380780654901e+00 1.5233943027232991e+01 2 0 -2
132 2 3.9791498592714336e+00 6.9578707248195535e+00 1.3582128236136372e+01 2 3 -8
131 2 4.1931942911227535e+00 5.4808542679985388e+00 1.3889667578099694e+01 2 3 -8
130 1 4.2949958793717267e+00 6.3298849401536073e+00 1.4280043590346295e+01 2 3 -8
92 2 3.1570961551754104e+00 5.6112415179912531e+00 1.5403979253877846e+01 2 0 -2
559 1 5.7743686669762972e-01 4.7893452708735511e+00 1.3815727995274163e+01 0 -5 -1
174 2 1.0419752742968205e+00 8.2827974772723980e+00 1.7070183790827461e+01 0 -4 3
534 2 1.9141261924185486e+00 8.6636047932205731e+00 1.4710774685097826e+01 3 3 7
234 2 6.1013690295273619e+00 8.1291688010175012e+00 1.7399355965462242e+01 1 3 2
22 1 6.4454264857555135e+00 4.5907189755548208e+00 1.7068216101066049e+01 1 -5 -2
450 2 7.1810846724017869e+00 7.9881762185735150e+00 1.5945741484524955e+01 1 2 -4
24 2 6.5902895879509247e+00 5.5284103538259055e+00 1.6924809859294392e+01 1 -5 -2
449 2 6.1209703412230718e+00 7.3026627857353423e+00 1.5217716621203119e+01 1 2 -4
448 1 6.7673700844748206e+00 7.1194308803785464e+00 1.5938504871360601e+01 1 2 -4
564 2 1.2711388296385541e+01 8.0527453897756534e+00 1.5003780959760919e+01 -5 -2 4
562 1 1.3036413949549326e+01 7.3955949184820806e+00 1.4376999079098324e+01 -5 -2 4
410 2 1.1187391204955762e+01 7.5586580439665045e+00 1.6813394235504465e+01 0 0 -1
34 1 9.1586032688117669e+00 6.4956535109049636e+00 1.3517166340343515e+01 -3 -1 -4
302 2 1.1448130396448049e+01 4.9654496988005423e+00 1.5766876316790992e+01 0 -4 4
303 2 1.2886584012206832e+01 4.8389675994187993e+00 1.5312800948163661e+01 0 -4 4
563 2 1.2947496095163302e+01 6.5294520343840281e+00 1.4804192139140625e+01 -5 -2 4
36 2 9.4963464623989537e+00 7.1356923246983426e+00 1.4283643052582434e+01 -3 -1 -4
246 2 9.3588974430103615e+00 5.1508031227678845e+00 1.4838341145689997e+01 -4 0 -3
184 1 9.9030625430121813e+00 8.1517436819065985e+00 1.5282972256166696e+01 1 1 0
301 1 1.2363769352746681e+01 5.1317846975327681e+00 1.6079025319057841e+01 0 -4 4
186 2 9.1419152302817608e+00 8.6522952269483824e+00 1.5500774841935481e+01 1 1 0
409 1 1.1841381185082360e+01 7.8327996279532419e+00 1.7467876099515475e+01 0 0 -1
66 2 1.4988781052736963e+01 6.6054799463147438e+00 1.6579212917420783e+01 -2 -1 -3
79 1 1.6166751108109640e+01 7.0868845391636421e+00 1.4705558281794662e+01 -2 0 0
65 2 1.3705308999340765e+01 6.0562291095171306e+00 1.7328144927703256e+01 -2 -1 -3
561 2 1.7010306227257367e+01 5.5521159877778468e+00 1.4077630096913907e+01 -1 -5 -1
80 2 1.5550945674692967e+01 7.8602494909737519e+00 1.4634891522135700e+01 -2 0 0
64 1 1.4668396476015527e+01 6.0736507281741918e+00 1.7390494113496452e+01 -2 -1 -3
81 2 1.6888965666746223e+01 7.3259438037209108e+00 1.5333958365785833e+01 -2 0 0
507 2 9.6370047215478993e-01 9.6459329632466684e+00 1.7354470356847582e+00 -2 -3 4
110 2 3.6970947122800482e+00 1.2408098518637757e+01 3.8477062154220709e+00 0 -3 0
475 1 2.2908761465125247e+00 9.4261744001281595e+00 2.9566722711006896e+00 0 0 -7
477 2 2.8971203587170513e+00 1.0096752427155860e+01 3.3182034195570593e+00 0 0 -7
109 1 3.6281226392113033e+00 1.1615856320521271e+01 4.4623003771910170e+00 0 -3 0
241 1 2.0823801525863641e+00 1.2192093870405404e+01 1.3138972965216142e+00 -2 6 -1
111 2 4.4965471709759131e+00 1.1300365544195483e+01 4.7169740400073730e+00 0 -3 0
47 2 1.3141238434572728e+00 8.8040544808033747e+00 4.3697607801560565e+00 2 -1 1
321 2 6.8371476707716450e-01 1.1919928000253915e+01 3.0808781576656634e+00 -5 3 -3
243 2 1.5754224808309127e+00 1.2812940714963073e+01 7.1690857505503736e-01 -2 6 -1
242 2 2.5640977267641900e+00 1.1614749658177086e+01 7.7182332678485943e-01 -2 6 -1
175 1 6.9902154782454948e+00 9.1573143592627186e+00 3.2536149469768758e+00 -1 -5 2
177 2 7.5697745640553000e+00 9.9740200777317831e+00 3.4705782465346244e+00 -1 -5 2
573 2 7.9610979149236520e+00 1.1729451963443980e+01 2.5732818545239446e+00 -2 1 -4
572 2 8.3430239841906957e+00 1.1865255716453326e+01 3.9740364121416847e+00 -2 1 -4
571 1 8.5220025784467310e+00 1.1289323415828116e+01 3.2196381787235695e+00 -2 1 -4
474 2 5.8087429129544974e+00 1.2908186813258727e+01 1.7590184245665232e+00 -1 -5 -3
472 1 6.7641064803382607e+00 1.2633149389972919e+01 1.6147874033120211e+00 -1 -5 -3
233 2 6.0654497058553094e+00 8.9395268552457825e+00 1.8396622783075300e+00 1 3 3
211 1 1.0344862180011825e+01 9.2008297017657217e+00 2.7867339486261646e+00 1 -4 0
212 2 9.7716145496627433e+00 1.0025595109503394e+01 2.7146244335393810e+00 1 -4 0
465 2 1.2078184218925427e+01 9.5356494715946720e+00 3.2276784979721733e+00 0 4 1
576 2 9.7919886781905809e+00 1.1973400320012106e+01 1.1023968346789375e+00 0 2 -1
463 1 1.2922726692073926e+01 9.6962428310614044e+00 3.6872061168648989e+00 0 4 1
104 2 1.2497690923246584e+01 1.1463966141829481e+01 3.6476012873896555e+00 -1 -1 4
103 1 1.2340402324241513e+01 1.2430625036952405e+01 3.4410939067679935e+00 -1 -1 4
105 2 1.3096339682611061e+01 1.2976613332775202e+01 3.2157842386291802e+00 -1 -1 4
213 2 1.0490991586023714e+01 8.9135657129451324e+00 1.8913703380660460e+00 1 -4 0
45 2 1.5675974989588571e+01 8.7844262493796297e+00 1.6551853113742743e+00 5 -3 5
505 1 1.7298366613430851e+01 9.4241931350350967e+00 9.6815812839908744e-01 -3 -3 4
319 1 1.6782406812852408e+01 1.1519892682266805e+01 3.3098952583547425e+00 -6 3 -3
320 2 1.6123086517144301e+01 1.1531881181645062e+01 2.6015073561382822e+00 -6 3 -3
464 2 1.3575419533968827e+01 9.2142466303937915e+00 3.1348887476138918e+00 0 4 1
283 1 1.4767519639577118e+01 1.1568366907876067e+01 1.1616736390276721e+00 2 -4 0
284 2 1.3978293056665851e+01 1.1180049798014668e+01 8.1920716987901754e-01 2 -4 0
285 2 1.4584755163707307e+01 1.2531729920066518e+01 1.1766266308929740e+00 2 -4 0
351 2 3.5923711937708553e+00 1.3002446694454575e+01 1.8848271329069934e+00 0 -5 0
146 2 3.7651289477900054e+00 1.7196160442382386e+01 2.8466306644941519e+00 3 2 4
349 1 4.2726787039025815e+00 1.3475222365889188e+01 2.3725749571007611e+00 0 -5 0
565 1 1.6226974388076698e+00 1.5155029724391987e+01 3.4049385096006377e+00 -2 2 0
566 2 2.4044042356155719e+00 1.4981402422348395e+01 3.9504372657247835e+00 -2 2 0
569 2 1.1826339785298525e+00 1.4777991473269282e+01 1.5358863260679083e+00 -1 0 -4
567 2 8.8853985873305286e-01 1.5216540453107939e+01 4.1418578920728919e+00 -2 2 0
350 2 4.3028990604092137e+00 1.4264870041248484e+01 1.8235106767899767e+00 0 -5 0
170 2 3.8540258660540645e+00 1.6294298125474228e+01 1.0977440736928479e+00 0 2 -5
147 2 2.3095759474082023e+00 1.6650516746155979e+01 2.6047477588039776e+00 3 2 4
169 1 4.2819436725780271e+00 1.5497381902014810e+01 7.4006363348770499e-01 0 2 -5
473 2 7.0769351372186300e+00 1.3085977546684971e+01 8.4008116798477550e-01 -1 -5 -3
374 2 5.9838211248927751e+00 1.5855656973167065e+01 3.4999127136000134e+00 0 -2 5
57 2 7.2783876123387481e+00 1.3926000191460504e+01 2.9149328708142810e+00 -2 -3 2
55 1 7.2404414688535352e+00 1.4719942783931215e+01 3.4918303322298341e+00 -2 -3 2
56 2 7.7935581639684157e+00 1.4655715694804842e+01 4.2570523049060665e+00 -2 -3 2
373 1 5.3492423406467902e+00 1.6583798246835016e+01 3.4650336545513825e+00 0 -2 5
419 2 7.5287905486750919e+00 1.7002490037958040e+01 1.0849059764270916e+00 3 4 2
171 2 5.1819590759234480e+00 1.5840250800753171e+01 6.5870566595703783e-01 0 2 -5
26 2 1.3072669757944094e+01 1.6519921076625629e+01 4.4397211762056248e+00 2 -5 -2
492 2 1.0699819743870515e+01 1.4198405186321231e+01 9.8068340198726889e-01 0 -1 -6
17 2 1.1008292025547295e+01 1.3168467550301575e+01 2.6983319618269794e+00 3 0 -4
16 1 1.0272097267120236e+01 1.3650133543317507e+01 2.3775777190454539e+00 3 0 -4
136 1 1.0139906809100315e+01 1.6353591871980427e+01 3.3401737234286828e+00 4 -6 1
18 2 1.0307828390021863e+01 1.4530405107706867e+01 2.8253573647294159e+00 3 0 -4
138 2 1.0964797689110949e+01 1.6777390387061963e+01 3.0315055050475150e+00 4 -6 1
137 2 9.3759315109077033e+00 1.6998885839831217e+01 2.9882578820968266e+00 4 -6 1
25 1 1.3165741841404104e+01 1.6620615256437972e+01 3.4549870886515031e+00 2 -5 -2
570 2 1.6798976981304719e+01 1.4573247460585048e+01 6.3196352743158257e-01 -2 0 -4
380 2 1.3777424635392030e+01 1.5135955240561358e+01 3.3699284320992176e+00 2 -6 4
379 1 1.4259736530875639e+01 1.4274345654406014e+01 3.2869205395370402e+00 2 -6 4
381 2 1.5024340969409526e+01 1.4457848694927346e+01 3.8669124386221863e+00 2 -6 4
471 2 1.4545448657876086e+01 1.4966221089716054e+01 1.5294979741513948e+00 -2 1 0
83 2 1.6307922821203384e+01 1.6382041727081102e+01 2.4373300006024081e+00 0 -3 4
82 1 1.5914444769985300e+01 1.7224968742024402e+01 2.5460855412408314e+00 0 -3 4
27 2 1.3995143383008028e+01 1.7073363522648812e+01 3.2333620488808008e+00 2 -5 -2
469 1 1.4896754608876797e+01 1.4627441921943056e+01 6.6790311970171168e-01 -2 1 0
501 2 1.4416612974074932e+00 9.7741962456639833e+00 7.9976139892028089e+00 0 -2 -1
500 2 1.9746004422007344e+00 1.0954140727309362e+01 7.1261261353344363e+00 0 -2 -1
406 1 2.0766755587334158e+00 1.2572807776861628e+01 6.6291957850077390e+00 3 0 -2
408 2 2.7210061533523064e+00 1.2366617431832905e+01 5.8739925144813396e+00 3 0 -2
407 2 1.2629587505889326e+00 1.2692420444632294e+01 6.1670317226144942e+00 3 0 -2
499 1 1.9752676270267746e+00 9.9114136192713982e+00 7.1799572668783025e+00 0 -2 -1
368 2 3.3325824918574192e+00 8.9391493496855645e+00 7.2817980667876618e+00 -3 -3 -3
48 2 1.3341505781884804e+00 8.9989365121560052e+00 5.9467664323415006e+00 2 -1 1
90 2 6.1984550216780292e+00 9.6166500110791571e+00 5.0029858483793443e+00 0 -4 2
161 2 7.0078079388956587e+00 8.8044898549589021e+00 7.7003157423116786e+00 2 5 5
88 1 5.8655754633647499e+00 1.0029525282689377e+01 5.8083494303323144e+00 0 -4 2