LAMMPS data file via write_data, version 15 Apr 2020, timestep = 0

1944 atoms
2 atom types

-5.2690516345137439e-03 3.9987374051638483e+01 xlo xhi
0.0000000000000000e+00 1.9709136094168194e+01 ylo yhi
0.0000000000000000e+00 2.0347057898608821e+01 zlo zhi
5.5715909682092501e-03 -1.2305972147927946e-02 2.1865614698640456e-02 xy xz yz

Masses

1 16
2 2

Atoms # atomic

474 2 7.3127588161218338e+00 8.8712675412013713e+00 2.7960650121491875e+00 0 1 0
1160 2 1.3266813903614457e+01 5.7733599214868834e+00 9.2845643532269264e+00 0 1 0
11 2 7.2977703701852024e+00 1.1305434239678083e+00 6.3681175675444548e+00 0 0 0
55 1 1.7746781976890713e+01 1.7605023985626051e+01 9.6052525105847124e+00 0 0 -1
667 1 2.4565061527938764e-01 3.2000890248727449e+00 2.5503815891008550e+00 0 1 0
1128 2 1.0462157940527387e+01 4.7202946059417172e+00 3.3180271393435876e+00 0 1 1
449 2 9.3182588318246502e+00 6.7649934184875871e-01 1.5110801661265223e+00 0 1 0
970 1 1.7982632832074795e+01 1.4447249493153224e+01 1.8351643778532141e+00 0 0 0
725 2 1.8837090305104493e+01 1.6994454578550513e+00 5.9890148684101607e+00 0 0 0
1783 1 4.2403171729833966e+00 4.3964642720964529e+00 9.3816480297522045e+00 0 1 0
1341 2 8.4839599299655326e+00 1.2728124038796901e+01 9.2128810159463903e+00 0 0 1
535 1 1.5595056804561297e+01 1.4878080357729051e+01 3.6158089758691583e+00 0 0 0
1079 2 2.6440465529481577e-01 8.0482023054543603e+00 8.7742674783315486e+00 1 0 0
704 2 5.7447897102288730e+00 1.1491398378820776e+01 6.6808095261041487e+00 0 0 -1
290 2 1.2104326503191754e+01 1.8242121337915595e+01 6.7150727937367378e+00 0 -1 -1
226 1 1.6816673754913110e+00 1.8961938378910112e+01 5.1172229621030159e+00 0 0 0
1135 1 3.9918604063327674e+00 8.9163769814925260e+00 4.1338478255124320e+00 0 1 0
1370 2 1.0930167496136569e+01 5.8249075019498751e+00 5.9034734080088089e+00 0 0 1
1804 1 7.7431471109064089e+00 6.2244029203852138e+00 5.0366005249760937e+00 0 1 1
50 2 3.6905101586666063e+00 1.6902228781358254e+01 6.6430277609575237e+00 0 -1 0
1303 1 4.6149760149861646e-01 6.6512859195920448e-01 1.4940251173682377e+00 0 0 1
437 2 7.9896458773273098e+00 9.5466249402909575e+00 5.1101103383583153e+00 0 0 0
939 2 3.7188277981005236e+00 1.1117736590187851e+01 1.5592447290253812e+00 0 0 0
488 2 7.4278161722536344e+00 1.2193377223935862e+01 6.9198772877990711e-01 0 1 -1
262 1 1.3715683180006010e+01 1.9065138096876321e+01 3.6722403606338716e+00 0 0 0
1311 2 1.6677438726200759e+01 1.9036288321801647e+00 8.9130982471191373e+00 0 1 0
1323 2 5.0465225648515419e+00 1.5365198211837493e+01 2.4520137398421396e+00 0 0 0
1798 1 1.0911847003405732e+01 1.7715789604853221e+01 7.3174001051557358e-01 0 0 1
1757 2 5.1242595625924654e+00 2.1465243864800345e+00 6.1226527356277325e+00 0 1 1
1125 2 1.9314681340473477e+01 1.9466415970564288e+01 4.6166785508422752e+00 0 0 0
8 2 1.3418140748256273e+00 1.0797654482181931e+01 4.5026411298695823e+00 0 -1 0
81 2 6.4597260731799935e+00 1.8794448827003436e+01 3.6763372744666305e+00 0 0 0
292 1 1.9221458858150275e+01 1.1384434671539285e+01 4.3622304559753520e+00 0 -1 -1
700 1 1.6215114132150514e+01 3.5355904221611918e+00 1.6379363284081958e-01 0 0 -1
1106 2 4.7965250954583266e-01 8.1608199119771463e+00 1.3046680198708194e+00 0 1 1
672 2 9.3381588335577348e+00 1.4892265260722079e+01 8.0702663250046545e+00 0 -1 0
877 1 1.1883409300575464e+01 8.3277530619929703e+00 4.5581638123598696e+00 0 1 1
748 1 1.2399749436702075e+01 8.3138837830137078e+00 7.4242659744930828e+00 0 0 1
713 2 5.5811674340647004e+00 4.1327380996273080e+00 4.6689498733114130e+00 0 0 1
1785 2 3.7427462439326247e+00 4.3932247144573378e+00 8.4793769241092836e+00 0 0 0
1098 2 1.1830000168789090e+00 9.6321898200571940e+00 7.7740208412999214e+00 0 1 0
1340 2 7.4774139456186699e+00 1.1556707860722572e+01 8.8541654176053122e+00 0 0 1
1811 2 1.8949815263686755e+01 9.4977806647125096e+00 1.1813855843944470e+00 0 0 1
919 1 1.1605730424714853e+00 1.7450848082267406e+01 8.4914066943103244e+00 0 0 0
938 2 3.6576722046561363e+00 1.1714314783124250e+01 2.9779190885575741e+00 0 0 0
80 2 5.1116257114878660e+00 1.6241897565389601e-02 3.6378068539304751e+00 0 1 0
1519 1 1.3989708174015181e+01 3.8137803423900021e+00 7.3500805901368240e+00 0 0 1
1150 1 3.5084520470820473e+00 1.9574864701711210e+01 8.6477864592742488e+00 0 0 0
47 2 6.5897784372047843e+00 7.4506682481168287e+00 5.7422687088064617e+00 0 -1 0
641 2 -1.0900840488664906e-03 1.4291053018684636e+01 5.4511677285452258e+00 0 0 0
268 1 1.9375263764361033e+01 1.5448049350213802e+01 4.4520677295423079e+00 0 0 0
691 1 1.5105467211932615e+01 1.0302478516424877e+01 9.6374897690379981e+00 0 0 0
1123 1 1.9292351364875163e+01 7.3268969790378358e-01 4.4920782191177659e+00 0 1 0
726 2 1.8204504603526821e+01 2.1460700440754312e+00 7.4760314679166502e+00 0 0 0
67 1 4.2320550486573949e-01 2.8931700210050609e-01 7.7941751155026937e+00 0 0 0
90 2 1.2398162184071127e+01 5.7034709111308866e+00 3.0225516562341741e+00 0 0 0
1606 1 1.4512751939982337e+01 6.6758392468970191e+00 8.5999234798633992e+00 0 -1 0
652 1 1.9273449845435886e+00 1.8373763323671786e+00 6.1810948164414450e+00 0 0 0
517 1 1.5346936838977834e+01 1.6711322821060623e+01 9.1487004593349557e+00 0 0 0
1560 2 1.3737933254333210e+01 1.8617975302838573e+01 1.6338349121695317e+00 0 0 1
443 2 9.4018973626753386e+00 9.8380901936665008e+00 3.2924426994180287e+00 0 1 0
1542 2 6.2211214613431585e+00 3.7171849078473427e+00 9.6761818990266413e-01 0 0 1
945 2 1.7136299764500588e+01 1.5733228668014222e+01 4.5999587549105103e-01 0 0 1
679 1 1.7424889229824334e-01 1.3015403924360173e+01 8.0529886122417587e+00 0 0 0
735 2 1.7159074769293881e+01 1.3393931694841994e+01 9.1911382924238438e+00 0 0 0
913 1 9.3603803521491322e+00 1.4377235617979689e+01 9.6641520009422113e+00 0 0 0
72 2 1.2409272289121954e+01 1.1712468013823230e+01 2.1911563290000213e+00 0 -1 0
1355 2 7.8321014854777218e+00 2.2612814394065484e+00 4.1214527233501084e+00 0 0 2
12 2 8.0358863163785372e+00 7.6323534960678874e-01 5.0816213808128969e+00 0 0 0
321 2 9.3921619160645875e+00 1.1226900201131716e+01 8.0795840929180027e+00 0 -1 1
61 1 1.2787881036258851e+01 1.9873067950396133e+00 4.3302512432802898e+00 0 0 0
33 2 1.6493280641965566e+00 1.0126062609575063e+01 9.1186514655910123e-01 0 -1 0
244 1 7.3093950342287917e+00 3.8004836413765530e+00 7.8956926339577977e+00 0 1 0
1777 1 1.1905173493789521e+01 1.4986944865435376e+01 6.0613819292418913e+00 0 0 0
1171 1 1.8807662790276535e+01 1.9077147480825957e+01 7.4384007056244386e+00 0 0 0
1332 2 1.4185422795564520e+01 2.5068841245402589e+00 9.5675357184559910e+00 0 0 0
922 1 9.6024857973999627e+00 9.1537630784462038e+00 5.2777115435976030e-01 0 -1 1
1762 1 1.0427706571888684e+00 4.1900109568392478e+00 5.1419170362481159e+00 0 1 0
1161 2 1.1831046576771087e+01 4.9818766486505313e+00 9.3988028843134650e+00 0 1 0
678 2 3.7498793522570595e-01 9.6231803597571446e+00 2.9928702396992706e+00 0 0 0
1780 1 9.0437740589742237e+00 1.2545730024544072e+01 1.8195462616875386e+00 0 0 1
1137 2 4.1751917005190631e+00 8.1819618667948806e+00 3.5622411941870755e+00 0 1 0
269 2 1.8928389006430997e+01 1.4613333101550600e+01 4.5136198301645196e+00 0 0 0
736 1 1.4569109320699910e+01 8.0225078443889757e+00 4.9626175332702349e+00 0 0 0
1164 2 8.6368472714355384e+00 3.1793684470380983e+00 1.0456843971244789e+00 0 1 1
1611 2 4.8421506408312851e+00 1.1245762561553112e+01 9.0229898940861641e+00 0 0 0
235 1 1.5051072698594680e+01 7.3533376976686977e+00 1.7740119641160061e+00 0 0 0
1586 2 1.2947719156814721e+01 1.4759377109185381e+01 2.4087953483010662e+00 0 0 1
876 2 9.4331317750192021e+00 8.1775048928651533e+00 6.3712465440354764e+00 0 0 0
1781 2 9.9950598755485345e+00 1.2298784356665308e+01 1.6791863725498186e+00 0 0 1
20 2 6.4252900075214348e-01 7.9075906528984969e+00 4.8779592581503719e+00 1 0 0
105 2 1.5438389021372172e+01 1.6612208510874680e+00 2.9416718605212733e+00 0 0 0
1322 2 6.2244353880202992e+00 1.4382606759056534e+01 2.4980280756231008e+00 0 0 1
56 2 1.8201622254074159e+01 1.8049989559300190e+01 8.8039661927146842e+00 0 0 -1
733 1 1.7036517392847575e+01 1.4343915714499239e+01 9.4785113009105917e+00 0 0 0
537 2 1.5627520747856414e+01 1.5801858378220560e+01 3.8287517286782955e+00 0 0 0
445 1 6.6043501252984287e+00 1.2080477069582029e+01 3.2706542242057948e+00 0 0 -1
1127 2 9.5899859766918141e+00 3.3591263146702022e+00 3.3784911158905278e+00 0 1 1
461 2 7.2659841552072690e-01 6.6576538492585584e+00 6.7810649352168237e+00 0 1 0
1086 2 4.2539187726508016e+00 8.5779382292154782e+00 9.4504917803746356e+00 0 0 0
1300 1 1.3187106944012688e+01 5.6955270061100407e+00 5.7021385387047410e+00 0 0 0
665 2 3.1350950344829620e+00 8.5924994586846069e+00 7.3440714248724124e+00 0 0 0
941 2 1.3856018640776680e+01 2.3247725651706350e+00 1.8393029010249959e+00 0 1 1
1810 1 1.7991370378257901e+01 9.4156519391433271e+00 1.3674504131110743e+00 0 0 1
1093 1 1.3940236354889278e+01 1.0543161975470094e+01 7.0995210165049940e+00 0 2 0
1799 2 1.1876320358178791e+01 1.7742391630338609e+01 6.9535484235956646e-01 0 0 1
1545 2 1.0646955279869323e+01 9.9333789909839183e+00 8.9230256352750459e+00 1 0 0
699 2 1.6386314203458912e+01 1.9069202720908592e+01 2.3634811283132766e+00 0 0 1
251 2 8.1887320690598298e+00 1.4210720863026863e+01 3.9272997483478309e+00 0 -1 0
1792 1 1.1990625736322999e+01 1.9404402273872881e+00 6.8919527309591331e+00 0 0 1
921 2 7.6252620586896769e-01 1.8376081381226140e+01 8.2340891841910455e+00 0 0 0
1775 2 5.8811440113715800e+00 1.5146268074614847e+01 5.6173460360503247e-01 0 0 1
703 1 6.2171488300081101e+00 1.2071521600940402e+01 5.9937580177182168e+00 0 0 -1
1395 2 1.6335647192106432e+01 1.9221880210346985e+01 6.1248547268417743e+00 0 -1 0
1806 2 8.1785535558958262e+00 6.3719829737577500e+00 4.1561225779512885e+00 0 1 1
1771 1 1.6832182200644187e+01 1.1025800163253733e+01 3.0782361530646116e+00 0 0 0
682 1 1.0924319647224801e+01 1.2045873513167921e+01 4.7518702429047810e+00 0 -1 0
1375 1 7.5574470248320695e+00 1.6365908828432168e+01 5.9222026649798414e+00 0 0 1
276 2 1.6228646418210069e+01 5.1412897712193946e+00 6.0257552139510606e+00 0 0 0
1563 2 4.0282179332664656e+00 4.8902842813537557e+00 6.3293935643830599e+00 0 1 0
742 1 1.5744360096778168e+01 1.3637817612213169e+01 6.1110785244122861e+00 0 -1 0
1731 2 1.0384140825178315e+01 1.6802352036963082e+01 2.2133220414748949e+00 0 0 0
1302 2 1.3452882282547248e+01 6.4740265776302541e+00 6.1410670862664096e+00 0 0 0
1562 2 3.2754091829982368e+00 6.0890450495381074e+00 7.0524203037643725e+00 0 1 0
54 2 9.5077976618922055e-01 1.4380961304187986e+01 2.7496030648676655e+00 0 -1 0
891 2 1.3047793930026721e+00 3.6811834319237149e+00 7.8965009714856471e+00 0 0 -1
1186 1 9.0236807765493552e+00 1.5108449339460913e+01 2.1868217559020287e-01 0 0 0
1577 2 1.6758296000504441e+01 1.0167726636021673e+01 5.9581962084651234e+00 0 0 1
949 1 3.2324439636249060e+00 1.3784437931588879e+01 6.7535088362137397e-01 0 0 0
41 2 3.4819654796648725e+00 1.3971914586251252e+01 8.2667841069535175e+00 0 -1 -1
1320 2 9.7906840032994502e+00 3.3279834984677752e+00 5.4580086733025306e+00 0 1 0
65 2 1.6405749528855932e+01 8.0641482939302040e+00 9.3117358480480643e+00 0 0 -1
889 1 4.3070551637890708e-01 3.9428360674780518e+00 8.1920619702399176e+00 0 0 -1
714 2 6.4694683772376100e+00 5.2437634335941876e+00 5.2925299329426476e+00 0 1 1
1815 2 1.9384028865161959e+01 9.5292901677791892e+00 4.0480796546319295e+00 0 1 1
229 1 1.8240956311896572e+00 1.6182915866750793e+01 3.9723611109280923e+00 0 0 0
741 2 1.4762586159390718e+01 1.2970018148925341e+01 1.3917436436807198e+00 0 0 1
750 2 1.1751872249400792e+01 8.4739317712709070e+00 8.1137202716736851e+00 0 0 1
1383 2 1.5128403033111056e+01 8.9430307629291150e-01 7.4810438155238712e+00 0 0 0
685 1 4.9098494673224069e+00 1.8545375656992817e+01 6.7126725052803735e+00 0 0 0
270 2 1.9469859635873966e+01 1.5652676979930689e+01 3.5143198811478222e+00 0 0 0
1180 1 1.9568500430177462e+01 1.7910962325312770e+01 5.3635144455360662e+00 0 0 0
264 2 1.3416040420165201e+01 2.8231777116915058e-01 3.6383976692288806e+00 0 1 0
1096 1 1.8938176121189372e+00 1.0098740330080947e+01 7.2715994986241679e+00 0 1 0
1585 1 1.2267148475591474e+01 1.4446984964183821e+01 3.0154539693299038e+00 0 0 1
483 2 1.2442694895520519e+01 1.8143568379052709e+01 4.4806006216290157e+00 0 0 0
743 2 1.5044208743909113e+01 1.3142091318184633e+01 5.6812239207499005e+00 0 -1 0
263 2 1.4620724822713980e+01 1.9203639944596880e+01 3.9754526621723731e+00 0 0 0
1749 2 1.8169926626149682e+00 1.2587419775162557e+01 3.4733902592242663e+00 0 0 1
308 2 1.9237500322891692e+00 1.7163682484852853e+01 1.5069305598432206e+00 0 0 0
1572 2 6.7366945405565026e+00 1.8982812045880937e+01 8.8616344883064020e+00 0 -1 0
1307 2 9.3317063792933173e+00 1.9487242428286752e+01 3.6708412031204509e+00 0 -1 1
52 1 1.0163024258034650e+00 1.3541818543270498e+01 2.1824633082272928e+00 0 -1 0
971 2 1.8466631397777771e+01 1.3704588431809809e+01 1.4197358452559925e+00 0 0 0
1794 2 1.2258389867082705e+01 1.9648353734778481e+00 5.9709530613380419e+00 0 0 1
70 1 1.1964464936816297e+01 1.2253239984439363e+01 1.5167634101094627e+00 0 -1 0
1366 1 1.8873294751769500e+01 1.7933080744337122e+01 9.4606710127444937e-01 0 0 1
953 2 1.2166464966318106e+01 7.8622795812830164e+00 4.0373544130326772e-01 0 0 1
442 1 1.0403225414635575e+01 9.8097510103974557e+00 3.0804158158612491e+00 0 1 0
951 2 4.0658768277317021e+00 1.3705637543686677e+01 1.1589695264771063e+00 0 0 0
681 2 4.2235218590591767e-01 1.3172493401304099e+01 8.9863497786468489e+00 0 0 0
250 1 8.0499997442756808e+00 1.5064906184905238e+01 3.5511646731915443e+00 0 -1 0
1483 1 1.7493199991192934e+00 4.9914437396050344e+00 1.1308635723056650e+00 1 0 1
676 1 2.6700476252854288e-01 9.5270789165188372e+00 2.0170352680481280e+00 0 0 0
1541 2 5.2824439776374081e+00 4.0384257656092064e+00 2.1775714235398662e+00 0 0 1
286 1 1.7411436493863121e+01 7.4243901065447711e+00 3.0451920566321999e+00 0 0 0
10 1 7.6097945942891050e+00 1.5867411552491242e+00 5.5533994085566238e+00 0 0 0
1759 1 5.1486203740854055e+00 6.7443765796483000e+00 2.1512310149847371e+00 0 0 1
1105 1 4.4127320035779871e-01 7.2972663892546317e+00 8.2810570510442905e-01 0 1 1
1485 2 1.3053821420993403e+00 5.8016298967022815e+00 8.9536987258050071e-01 1 0 1
686 2 4.5822249667412320e+00 1.9215762666042018e+01 7.3473436197692976e+00 0 0 0
940 1 1.4651850186653339e+01 2.8202727089775319e+00 2.0870213959841988e+00 0 1 1
74 2 1.6573384401357899e+01 3.7342850637368374e+00 4.5888608047915458e+00 0 0 0
744 2 1.5241265829038063e+01 1.4377863323289652e+01 6.4984214528817921e+00 0 -1 0
267 2 1.3914586388759270e+01 5.5295223862305827e+00 4.0186788980012569e+00 0 0 1
266 2 1.4441838290660103e+01 6.0147608801133110e+00 2.6479609376689579e+00 0 0 1
273 2 1.3421924830480073e+01 9.6727854272636158e+00 1.2205288064670536e+00 0 0 1
73 1 1.6319007560115221e+01 3.3740935765255928e+00 5.4361430304169218e+00 0 0 0
879 2 1.1755164099187564e+01 8.3043792395621399e+00 5.5407990870015320e+00 0 1 1
512 2 4.8153913716153465e+00 1.9406860527993089e+01 1.1030884183851710e+00 0 -1 0
288 2 1.8185755909891753e+01 7.7872180764242183e+00 3.5391177912184113e+00 0 0 0
1329 2 3.9325953462943675e+00 7.4206543605615742e+00 8.5568122804972280e-01 0 0 1
878 2 1.1205798251676734e+01 8.9028331821202755e+00 4.1709734831324914e+00 0 1 1
1764 2 1.7329605643614703e+00 4.7237945057557189e+00 5.6113200586882854e+00 0 1 0
526 1 1.8100037252278380e+01 1.9753154104644453e+00 2.1416635397790635e+00 0 1 0
933 2 1.7103470355832865e+01 1.6581025943876512e+01 5.6354172911912466e+00 0 0 0
85 1 8.1460108619813472e+00 1.1476628589862203e+00 2.9651098825311650e-01 0 0 0
320 2 1.0784742544837641e+01 1.1603274246521643e+01 7.3922934133036780e+00 0 -1 1
1121 2 1.3036470517438280e+01 1.8595188097185446e+01 8.7030846400284325e+00 0 0 0
723 2 1.3876974693504399e+01 1.0862120765504370e+01 3.4566759620106335e+00 0 0 0
972 2 1.7187887060319326e+01 1.4026025350825389e+01 2.2863381795279785e+00 0 0 0
79 1 5.6965780678958824e+00 1.9152816683637283e+01 4.2158579906475220e+00 0 0 0
1391 2 1.7744533515887397e+01 3.9921817393177368e+00 9.0108848088689300e+00 0 1 0
77 2 1.7437838059082367e+01 3.7285649698415675e+00 2.7235453268873804e+00 0 0 0
42 2 4.6144361068248552e+00 1.4726512847369129e+01 7.3155994429462492e+00 0 -1 -1
666 2 4.4257186439183585e+00 7.8830475289604998e+00 6.9728703584744034e+00 0 0 0
673 1 8.5030601243099042e+00 1.3018961397223496e+01 5.4508869972539351e+00 0 -1 0
446 2 5.8324296181700390e+00 1.1722425603702815e+01 2.8505104292482679e+00 0 0 -1
893 2 3.9563220792387743e+00 2.4213602565741033e+00 3.6245467040759207e+00 0 0 0
1377 2 7.6447422441932389e+00 1.7316758397295789e+01 5.8124802016000352e+00 0 0 1
21 2 2.1221116917638314e+00 8.0006567940883198e+00 5.1675319914756859e+00 0 0 0
96 2 7.9417170187747574e+00 8.8471431764209640e+00 1.0054471251491027e+01 0 0 0
937 1 4.2379205381371747e+00 1.1211883229162691e+01 2.3809521027202232e+00 0 0 0
1372 1 3.3604339512651205e+00 9.2779651327146784e-01 3.4058833405487778e+00 0 0 1
1318 1 9.5276195161095938e+00 2.9715206923620441e+00 6.3625646418019519e+00 0 1 0
674 2 7.7848391018153666e+00 1.2425728585619007e+01 5.8206119620863177e+00 0 -1 0
675 2 8.6597397281789394e+00 1.3771451065255439e+01 6.1598478083811639e+00 0 -1 0
237 2 1.4490987521839783e+01 8.1340191827845523e+00 1.5646976370170103e+00 0 0 0
1736 2 4.1590832252805203e+00 1.5483776751999960e+01 9.9469736475381652e+00 0 0 0
29 2 2.6459489487203172e+00 1.2152478606205714e+01 9.6713127874455900e+00 0 0 0
7 1 6.2354524956202395e-01 1.0208072370616081e+01 4.7800199423171570e+00 0 -1 0
722 2 1.2699533883455286e+01 9.8378451823030684e+00 3.4890811538669251e+00 0 0 0
1761 2 5.5246978460569629e+00 5.8783895568451543e+00 1.9404997800473274e+00 1 0 1
436 1 7.8483927230091011e+00 9.7999185548841510e+00 4.0877704442177780e+00 0 0 0
76 1 1.7597780164069892e+01 4.5631909732696512e+00 3.2074017141373901e+00 0 0 0
1812 2 1.7923929194654150e+01 8.5122271319738729e+00 1.7316887212390379e+00 0 0 1
671 2 1.0183310008651892e+01 1.5101938297386821e+01 6.7635252575635407e+00 0 -1 0
1367 2 1.8012030057603198e+01 1.8047941088845349e+01 1.3452019808053417e+00 0 0 1
1571 2 6.1391443208349248e+00 1.7920163148565006e+01 7.8800464105217420e+00 0 -1 0
536 2 1.5661171217722515e+01 1.4464612172003479e+01 4.4598878235422292e+00 0 0 0
883 1 6.4810241843623819e+00 6.1372405706811035e+00 9.0059741910971685e+00 0 0 0
466 1 1.4432177963719679e+01 1.5820856584924003e+01 6.8219993515762658e+00 0 0 0
1153 1 1.7361286062969821e+01 1.1836918419665983e+01 9.3210412624284107e+00 0 1 0
1748 2 2.4054321161163874e+00 1.2875617280532429e+01 4.8765575103382037e+00 0 -1 1
654 2 1.5326373476241777e+00 2.6591766440299449e+00 5.8177948937189088e+00 0 0 0
738 2 1.3720381432649511e+01 8.3413796944817520e+00 4.6177014810278330e+00 0 0 0
275 2 1.5465615640051256e+01 6.5152178206795162e+00 5.8193483486312960e+00 0 0 0
657 2 1.0115453825533923e+01 1.9028380408465253e+01 7.7486805603044520e+00 0 0 -1
1608 2 1.5190337383580337e+01 6.3246083590589439e+00 7.9493073908332565e+00 0 -1 0
709 1 1.9472699504705506e+01 4.4250563341664799e+00 5.1689979870198481e+00 0 0 0
721 1 1.3504131741921439e+01 1.0071154667544899e+01 3.0199964155303851e+00 0 0 0
687 2 5.1472091092046739e+00 1.9069234103496292e+01 5.8800584928793187e+00 0 0 0
737 2 1.5169365218431196e+01 8.8209994594153613e+00 5.0612696982112748e+00 0 0 0
1187 2 8.9805311280245874e+00 1.4295293598539542e+01 8.2494523203909242e-01 0 0 0
1346 2 1.0255546940146848e+01 3.8267795620546137e+00 8.3327609490874277e+00 0 0 0
228 2 2.0247739961853095e+00 1.8088912651497921e+01 5.3249784335804282e+00 0 0 0
670 1 9.2974803016281680e+00 1.5065588495917591e+01 7.1071996475705870e+00 0 -1 0
1786 1 1.7939449817132802e+00 1.4050277773716733e+01 6.0235989999849071e+00 0 0 1
1327 1 3.2994413346240865e+00 7.7993308942417601e+00 1.9027714083263408e-01 0 0 1
1793 2 1.1062721870292810e+01 2.2489442533828723e+00 6.9744014466832587e+00 0 0 1
1080 2 5.8403008338654483e-01 9.1234915452749004e+00 9.9050013737106219e+00 1 0 0
1609 1 5.7354634692006456e+00 1.1032374069802570e+01 8.7566404634999806e+00 0 0 1
1756 1 4.6302080513693014e+00 2.2818295214990507e+00 6.9097560931287036e+00 0 1 1
513 2 4.2654221258122478e+00 1.7876554790495234e+01 1.0599237337787466e+00 0 -1 0
539 2 1.4669234021333715e+01 1.5277501529993087e+01 9.0694360509240235e-01 0 0 2
1159 1 1.2635611640123443e+01 5.3256221112802891e+00 9.9309262203364579e+00 0 1 0
246 2 8.1208508832964785e+00 3.4982712679904977e+00 7.4202947295826123e+00 0 1 0
309 2 2.8905237040012648e+00 1.5927267113348227e+01 1.1577315823899990e+00 0 0 0
291 2 1.2262936134841862e+01 5.8078079087539924e-02 7.3046626901285601e+00 0 0 -1
931 1 1.6383302097044648e+01 1.7193486792043547e+01 5.2863835745061314e+00 0 0 0
293 2 1.8338859981515679e+01 1.1457070189976976e+01 3.8332652379925132e+00 0 -1 -1
1390 1 1.7419499487837388e+01 4.8998478980222941e+00 9.1618622031560992e+00 0 0 0
1559 2 1.4034999851327553e+01 1.8322497083855421e+01 1.7243544864870183e-01 0 0 1
701 2 1.5596666045871812e+01 3.1932010908557578e+00 8.7816262986882510e-01 0 0 -1
540 2 1.3200156001782414e+01 1.4990441586396340e+01 5.4178201332709031e-01 0 0 1
294 2 1.8983749363944636e+01 1.1900658649409179e+01 5.1471032656738478e+00 0 -1 -1
230 2 1.6189606585125902e+00 1.6093415271373935e+01 4.8456161999836320e+00 0 0 0
462 2 1.3338666871731264e-01 5.4918113944693809e+00 7.7215177752234521e+00 0 1 0
1617 2 6.5640843981042023e+00 7.7981922887871171e+00 8.4924596219193642e+00 0 1 0
227 2 7.4571526226309415e-01 1.8773651312648909e+01 5.0720126036290329e+00 0 0 0
959 2 1.8872193080730849e+01 7.5298487155598695e+00 5.8011627341154925e+00 0 1 0
1730 2 9.5424026028131976e+00 1.5838280244854904e+01 3.1204478037509640e+00 0 0 0
934 1 4.4817634590487625e+00 1.6451695941816027e+01 3.8931343844354496e+00 0 1 1
1112 2 6.0585392628513626e+00 1.5364307417535242e+01 6.1979137535599724e+00 0 0 0
1554 2 8.5859085278242766e+00 5.6588107574677808e+00 2.1143782335738561e+00 0 0 1
231 2 1.2771570999831543e+00 1.6907822681856977e+01 3.5141345310415790e+00 0 0 0
739 1 1.5069099603505764e+01 1.2084306513421854e+01 1.4545208184530978e+00 0 0 1
243 2 6.7077610727371866e+00 1.7700800075729333e+01 1.8793396712702961e+00 0 0 0
936 2 3.4899650420059385e+00 1.6484063528724796e+01 4.0309112811153804e+00 0 1 1
688 1 1.8502626607364498e+01 1.3031857940842668e+01 6.4641185092933870e+00 0 -1 0
698 2 1.5772726449449054e+01 1.7718865017322038e+01 1.8229722727409525e+00 0 0 1
71 2 1.1922971377956008e+01 1.3092283977110466e+01 2.0331582888494859e+00 0 -1 1
1558 1 1.3586911569452230e+01 1.7975305390561587e+01 9.3759647338835850e-01 0 0 1
1610 2 5.9619722944286337e+00 1.0084382424398042e+01 8.8695429776399664e+00 0 0 1
932 2 1.6735381280728021e+01 1.7519994841575400e+01 4.4537375776891981e+00 0 0 0
468 2 1.4682496133299100e+01 1.6095856027228894e+01 7.7327558870266637e+00 0 0 1
1345 1 1.0389041586061435e+01 4.6798821959887613e+00 8.8037774801989368e+00 0 0 0
1521 2 1.3341362106376661e+01 3.1071878018949639e+00 7.3729840550719592e+00 0 0 1
1578 2 1.6194654207441538e+01 1.0534545782360725e+01 4.4007033137252431e+00 0 0 1
1120 1 1.3765459882323546e+01 1.8772607455265529e+01 9.4077933583702578e+00 0 0 0
1321 1 5.3691435792025350e+00 1.4563599324816741e+01 2.0138967913902714e+00 0 0 1
1484 2 2.1756444518288185e+00 5.2774655147469316e+00 1.9492691263427397e+00 1 0 1
1778 2 1.2708051164806745e+01 1.5436348246885165e+01 6.3795502254844161e+00 0 -1 0
1520 2 1.4834724410362586e+01 3.3945066843228511e+00 7.1415768766601007e+00 0 0 1
1078 1 4.4375625568525603e-02 8.9310438315189078e+00 9.0478190024387253e+00 1 0 0
1111 1 5.2821091541225877e+00 1.4849839321271761e+01 5.8476643485172906e+00 0 0 0
884 2 5.6694966384333938e+00 5.6648117712338557e+00 9.1153710004858457e+00 0 0 0
518 2 1.5137044692491468e+01 1.5955527085261915e+01 9.7667236254225376e+00 0 0 0
1374 2 2.8892137503014377e+00 7.1261602276595587e-02 3.6197399035694446e+00 0 0 1
958 1 1.8643978748034968e+01 6.6834488056342627e+00 6.2870840596600814e+00 0 1 0
740 2 1.5393526827582008e+01 1.1728589824473147e+01 6.1836442229131450e-01 0 0 1
19 1 1.4214248375422098e+00 7.3423555790010360e+00 4.8689597774924582e+00 0 0 0
1304 2 1.0626325152157343e+00 8.4587418798163505e-01 7.4165747861544840e-01 0 0 1
875 2 9.4756531354913935e+00 9.6367940925765634e+00 6.9709247325124286e+00 0 0 0
271 1 1.3411580061793956e+01 9.0043220716764658e+00 5.5499902986941008e-01 0 0 1
1301 2 1.3434462704285805e+01 4.9738797928035128e+00 6.2690433331762385e+00 0 0 0
1805 2 8.5117250603819485e+00 6.0677904263090356e+00 5.6271165798431335e+00 0 1 1
894 2 3.4028049563377993e+00 3.9226140869597019e+00 3.7324199525644945e+00 0 0 0
49 1 2.7616363882225694e+00 1.6629224845667302e+01 6.5227317293636329e+00 0 -1 0
734 2 1.7328242746990497e+01 1.4844873320188505e+01 8.6858346395988768e+00 0 0 0
1373 2 3.3122017272677198e+00 1.0632348159302232e+00 2.4206828838070718e+00 0 0 1
103 1 1.6094004580756675e+01 1.0368526907145306e+00 3.3788049092882844e+00 0 0 0
100 1 1.7966432635839560e+01 1.5664639157124045e+01 7.1318561358182340e+00 0 -1 0
1760 2 5.8943363265083191e+00 7.4567604197769510e+00 2.0405783742736752e+00 0 0 1
1747 1 2.4667093971307956e+00 1.2260580474185321e+01 4.1397653826766136e+00 0 0 1
252 2 7.9588506633943847e+00 1.5628935613584423e+01 4.3354307267794718e+00 0 -1 0
1305 2 5.1515068900432259e-01 1.4513608216574383e+00 2.0805327877613364e+00 0 0 1
1314 2 2.2619588481984159e+00 6.4234116167756721e+00 3.7685989694606064e+00 0 0 1
245 2 6.5930131360438891e+00 3.8265397303722395e+00 7.2378294246516726e+00 0 1 0
705 2 5.8223261645133331e+00 1.2975643630735378e+01 6.0704433936313356e+00 0 0 -1
650 2 6.9509828285481063e+00 1.4731357991222680e+01 9.5059627682522585e+00 0 -1 0
653 2 1.7496245921647340e+00 1.2009905688699436e+00 5.4384909023692707e+00 0 0 0
1382 2 1.4456940634986102e+01 3.8608090084414204e-01 8.8066841215561968e+00 0 0 0
472 1 7.2719541034510264e+00 8.6159629361000967e+00 1.8527055335254385e+00 0 1 0
669 2 6.3367818059381242e-01 4.0163574651095111e+00 2.1406383397347732e+00 0 1 0
1604 2 1.8972105004017909e+01 5.0856962504246184e+00 6.3660379392302360e-02 0 1 1
573 2 1.9861936913826582e+01 1.6656294856365232e+01 1.4691022043680853e+00 0 0 0
1729 1 1.0359637527028076e+01 1.6326378008591917e+01 3.0616133592170902e+00 0 0 0
280 1 6.8444804703569917e-01 1.7950274783766602e+01 2.3315333290386691e+00 0 -1 0
655 1 9.2369108923576775e+00 1.9453113684146111e+01 7.5931637688442501e+00 0 0 -1
1173 2 1.7955819087737051e+01 1.9554513623409655e+01 7.1918110505674333e+00 0 0 0
48 2 5.6118331423696235e+00 8.6056951911281878e+00 5.2179648311002635e+00 0 -1 0
1782 2 8.7575652607619681e+00 1.2169153395344074e+01 2.6782598000436035e+00 0 0 1
1136 2 3.9360943982399146e+00 9.6871209692785598e+00 3.5533048609302935e+00 0 1 0
1576 1 1.5969416841080575e+01 1.0316275635940221e+01 5.4011157793097055e+00 0 0 1
942 2 1.4336135097209793e+01 3.5615994637841086e+00 2.6792633564750816e+00 0 1 1
88 1 1.1658783660161243e+01 6.3372133134757282e+00 2.9368261542527785e+00 0 0 0
46 1 5.9154483354578078e+00 8.1277485977312587e+00 6.0382733353147273e+00 0 -1 0
5 2 6.9009212929947958e+00 3.6062222344573085e+00 9.5845867688789301e+00 0 1 -1
492 2 7.0740038904185889e+00 1.6264305996044253e+00 9.2589143036949686e+00 0 1 0
450 2 1.0270789439926380e+01 1.9081985643679857e+01 1.4905686326875076e+00 0 0 0
1325 2 1.2299000669961091e+01 1.3357290712834800e+01 8.1635789553500118e+00 0 -1 0
1152 2 2.6953560712906524e+00 1.9109252867753238e+01 8.3184594448686084e+00 0 0 0
1397 2 1.9006239090479983e+01 1.0080774332422433e+01 7.3972048066946448e+00 0 0 1
1376 2 8.4225261579065709e+00 1.6041437809038605e+01 6.3245342692752153e+00 0 0 1
444 2 1.0406681316139400e+01 9.4737648295732768e+00 2.1656185654952020e+00 0 1 0
1326 2 1.2201687486821148e+01 1.3508753400820124e+01 6.6957656187610439e+00 0 0 0
1348 1 1.2354125871735183e+01 1.5369638427229562e+00 1.2039235690992576e+00 0 0 0
57 2 1.7034202424246313e+01 1.6977204643111826e+01 9.2958651486708828e+00 0 0 -1
1313 2 3.7592935259576552e+00 6.1816568743383362e+00 3.2673441069853908e+00 0 0 1
287 2 1.7490410882816818e+01 6.4544500059219532e+00 3.1084424245555669e+00 0 0 1
1607 2 1.4165290981596343e+01 7.4422795615693360e+00 8.1302991329616301e+00 0 -1 0
1308 2 9.5292690345665534e+00 1.9092294387740790e+01 5.1864648811144090e+00 0 -1 1
491 2 5.7496099379286916e+00 1.6912843684767913e+00 8.4366058197537388e+00 0 1 0
656 2 8.5725695485189899e+00 1.8836056525063881e+01 7.9871620243867394e+00 0 0 -1
776 2 1.9761496991713585e+01 6.8015636805324657e+00 7.6085881306555292e+00 0 0 0
69 2 5.4535795904349116e-01 4.9113880608355664e-01 8.7843610638071823e+00 0 0 0
935 2 4.8467699266963482e+00 1.7356428811830991e+01 4.0918118638305705e+00 0 1 1
890 2 4.4479640678188537e-01 4.0158128717918675e+00 9.1756593234571007e+00 0 0 -1
274 1 1.6173029297162046e+01 6.0852346937256234e+00 6.3754955415138497e+00 0 0 0
1615 1 6.9997883321261272e+00 8.6858071575357769e+00 8.6930664734091856e+00 0 1 0
102 2 1.8724400663216308e+01 1.6074064097240353e+01 7.6200345539466614e+00 0 0 0
527 2 1.9008522157271123e+01 1.8445175594148076e+00 2.4817238330894202e+00 0 1 0
467 2 1.5027264117119451e+01 1.6313130690681163e+01 6.1806530648509703e+00 0 0 0
455 2 9.1326599698755100e+00 1.2098563133244082e+00 8.5688196687271478e+00 0 1 0
1773 2 1.6068958107526321e+01 1.1465069578726634e+01 2.5867468800510829e+00 0 0 0
101 2 1.8180825748750081e+01 1.4962209227377457e+01 6.5506735501340394e+00 0 -1 0
68 2 8.2510782490939083e-01 9.7458473679779811e-01 7.2245448781326704e+00 0 0 0
89 2 1.1701794792856731e+01 6.9727198129830015e+00 3.6433788076156159e+00 0 0 0
689 2 1.7601088827270328e+01 1.2936166019839833e+01 6.7609216049551053e+00 0 -1 0
319 1 1.0177126928927960e+01 1.0789992094197043e+01 7.5855225905731176e+00 0 -1 1
1788 2 2.3038857472753507e+00 1.4872736968041989e+01 6.2946928054833311e+00 0 0 1
1319 2 8.9328923649972687e+00 2.2481403327074627e+00 6.0392585137648274e+00 0 1 0