LAMMPS data file via write_data, version 15 Apr 2020, timestep = 200000

972 atoms
2 atom types

8.0361357497141128e-02 1.9910691642505405e+01 xlo xhi
2.3440187883887909e-01 1.9756651121162577e+01 ylo yhi
1.8396053837642690e-01 2.0616811461624184e+01 zlo zhi
-2.4760387861562111e-01 -9.5710626273490237e-02 -1.0300581408425201e-01 xy xz yz

Masses

1 16
2 2

Atoms # atomic

4 1 4.1136164359735199e+00 1.3307093531231584e+00 3.4672120692237884e+00 0 0 0
5 2 4.0220462048651662e+00 2.2802915629540284e+00 3.5379210313058009e+00 0 0 0
6 2 3.2927011921342864e+00 8.9249146168164062e-01 3.7718994564480499e+00 0 0 0
7 1 5.9901479868330751e+00 4.4052202723187150e+00 5.5739082218875762e+00 0 0 0
8 2 6.6851607294055224e+00 4.1478496743262383e+00 4.8871502788185612e+00 0 0 0
9 2 5.1887180669984732e+00 4.3385439825134391e+00 5.0280856677620251e+00 0 0 0
10 1 1.4284919133894380e+00 4.1114018336686708e+00 3.6198071444554945e+00 0 0 0
11 2 6.7532872838212599e-01 4.1136823998463719e+00 4.2557325814606228e+00 0 0 0
12 2 1.2715367760817107e+00 4.7950663781909206e+00 2.9704475475456915e+00 0 0 0
13 1 4.4105895663011916e+00 5.7093661247568601e+00 1.6516679553574602e+00 0 0 0
14 2 4.1773921421135727e+00 6.5431720701771336e+00 2.0562478824346417e+00 0 0 0
15 2 3.6453626393560401e+00 5.5493817678515986e+00 1.0442125290641224e+00 0 0 0
16 1 4.0061193769940360e+00 4.0447614325541519e+00 3.8672096771030957e+00 0 0 0
17 2 4.2471223633009281e+00 4.6155717530962264e+00 3.1107050603060427e+00 0 0 0
18 2 3.0558236643206977e+00 4.0598239782214680e+00 4.0260405568697415e+00 0 0 0
443 2 1.1045111721994438e+00 1.0048401650493981e+01 1.0366650990501009e+01 0 0 0
20 2 5.9601606138166441e-01 6.8777491877147012e+00 2.2604105245145290e+00 0 0 0
22 1 1.7141828523212603e+00 7.8966659275534112e-01 5.0901388444870932e+00 0 0 0
23 2 7.7150614947407159e-01 9.4511965351953575e-01 5.2204366876774788e+00 0 0 0
24 2 2.1249017171526665e+00 1.4329700773829130e+00 5.7834539910460414e+00 0 0 0
25 1 2.4650968875337638e+00 5.3764778222570593e+00 6.6710720490737696e+00 0 0 0
26 2 2.3335721547237531e+00 5.9795439836122739e+00 5.9534144469898278e+00 0 0 0
27 2 3.3129606938878835e+00 5.6777236926160937e+00 7.1208839857951096e+00 0 0 0
28 1 5.9431654480782763e+00 8.7813890495704050e-01 5.3988473905339118e+00 0 0 0
29 2 5.4013072555719610e+00 1.1000088581287741e+00 4.6151662822985982e+00 0 0 0
30 2 5.6157603331613055e+00 1.9425881234226054e+01 5.5410068298186390e+00 0 0 0
31 1 8.2587346025084285e-01 2.0057378618550152e+00 2.0695960858346707e+00 0 0 0
142 1 5.3586975454725758e+00 8.9548199747643462e+00 2.1642273942567136e-01 0 0 0
33 2 1.1152792186996310e+00 2.5315331529318073e+00 2.8620723428277315e+00 0 0 0
927 2 7.9868467511529451e+00 1.8504147024954797e+01 8.3031486272849053e-01 0 0 0
35 2 5.8364829538527889e+00 2.2573718454954923e+00 1.2227067416467385e+00 0 0 0
46 1 7.5585168017961131e+00 3.9037145507848439e+00 3.4715648910293742e+00 0 0 0
47 2 8.4630938790037256e+00 4.0184895595054400e+00 3.7747019571202105e+00 0 0 0
48 2 7.3270623118342293e+00 4.7789217085023648e+00 3.0091131232241763e+00 0 0 0
55 1 6.8676109227882014e+00 5.8493910210820790e+00 2.0146394647248442e+00 0 0 0
56 2 7.1323413193242935e+00 6.8080392206610369e+00 2.0334068961470839e+00 0 0 0
57 2 5.9495827547381577e+00 5.7616529866379773e+00 1.6437678737357710e+00 0 0 0
58 1 8.9995020119388123e+00 1.2723598204108340e+00 5.1622725405923848e+00 0 0 0
891 2 3.0442938473003429e+00 1.8950113833546652e+01 7.5380821391799868e-01 0 0 0
60 2 8.0326811688317132e+00 1.2740102177283048e+00 4.9107994596257623e+00 0 0 0
61 1 9.2228802094601310e+00 5.8247328719653879e+00 6.9690451519847683e+00 0 0 0
62 2 9.1738963357049972e+00 4.8050645572447737e+00 6.9113506047935989e+00 0 0 0
63 2 8.6610854102494557e+00 6.0865571377628989e+00 7.7271077943522011e+00 0 0 0
67 1 7.6517317721250375e+00 1.8017940713289564e+00 1.9448702939968987e+00 0 0 0
68 2 7.7064030047562184e+00 2.4651823043856527e+00 2.6455115058376091e+00 0 0 0
69 2 8.2155574158025946e+00 2.0322073499833353e+00 1.1955718088622493e+00 0 0 0
59 2 9.6455389058234378e+00 1.2997501714502713e+00 4.4312662101128959e+00 0 0 0
150 2 9.8250323130731836e+00 7.7944708412808428e+00 3.6703726226938747e+00 0 0 0
111 2 1.7805064540459576e+00 9.0711176069711055e+00 9.5768619394080967e-01 0 0 0
112 1 4.0360327678234285e+00 7.7505591100925564e+00 3.4859173631020548e+00 0 0 0
113 2 4.7954786604755224e+00 7.6118797418968285e+00 4.0807409586966372e+00 0 0 0
114 2 3.9838543182924595e+00 8.7388710759013843e+00 3.4132564433899879e+00 0 0 0
115 1 6.1425232864068491e+00 1.1121527632199985e+01 5.4619271043614939e+00 0 0 0
116 2 5.9285690226711694e+00 1.2076803502579294e+01 5.5625001333758259e+00 0 0 0
117 2 6.0379513420740025e+00 1.0622905587869303e+01 6.2925508737354097e+00 0 0 0
118 1 1.2343195130442781e+00 1.0663456315627970e+01 3.5725719553175206e+00 0 0 0
235 1 4.5830887185368907e-01 1.8917086441999459e+01 1.8453356003603709e+00 0 0 0
120 2 2.0293823040622589e+00 1.0861003499438777e+01 4.0708387881184045e+00 0 0 0
121 1 4.7516762303391697e+00 1.2439060475999334e+01 1.6366473881248886e+00 0 0 0
122 2 5.6869889800068441e+00 1.2232457984217929e+01 1.5027901464821987e+00 0 0 0
123 2 4.1625288292722118e+00 1.2192513829077617e+01 9.0345714455754234e-01 0 0 0
124 1 3.9581457532161148e+00 1.0642332754103032e+01 3.5713539722000855e+00 0 0 0
125 2 4.2833824952852142e+00 1.1264898017320711e+01 2.8346435439259356e+00 0 0 0
126 2 4.6596181848864822e+00 1.0619762595620321e+01 4.2408957310346658e+00 0 0 0
127 1 5.9785726387807647e-01 1.2369925362188537e+01 1.5776762371628539e+00 0 0 0
128 2 1.3684693559924566e+00 1.2327572187344559e+01 9.7483548167631451e-01 0 0 0
129 2 8.8445573815252254e-01 1.1692935954485547e+01 2.2353499451583465e+00 0 0 0
130 1 1.8951155285352732e+00 7.7099743722696878e+00 5.1288724941357886e+00 0 0 0
131 2 2.5721720859226855e+00 7.8316866568390822e+00 4.4430166040785677e+00 0 0 0
132 2 2.1094403252525891e+00 8.3250410516190083e+00 5.8202404724624195e+00 0 0 0
133 1 2.4500875881849504e+00 1.2280106156861242e+01 7.0740064821980440e+00 0 0 0
134 2 1.7225461233026051e+00 1.2339004221785681e+01 7.7018117600218394e+00 0 0 0
135 2 2.2213183144810840e+00 1.2798258923665669e+01 6.2906992731982534e+00 0 0 0
136 1 6.0131748103546334e+00 7.2931180778541336e+00 5.2031830746130794e+00 0 0 0
137 2 5.8468704242557523e+00 6.3453775343387155e+00 5.4131460078035589e+00 0 0 0
138 2 7.0027849063981806e+00 7.3122335764415309e+00 5.0211753219625450e+00 0 0 0
139 1 6.8733398165736492e-01 8.4755802737760053e+00 2.2982440435065246e+00 0 0 0
140 2 9.7663724815885367e-01 9.1946852481664152e+00 2.9516519600763331e+00 0 0 0
210 2 4.0548028175886611e-02 7.4006152448149614e+00 5.0908819916805506e+00 0 0 0
147 2 8.7594147750034654e+00 9.0043413869124169e+00 9.5880303065877981e-01 0 0 0
218 2 3.8904036819354415e+00 1.5897848424372631e+01 3.3672965930484000e-01 0 0 0
154 1 7.9201351177163986e+00 1.0397572760166838e+01 3.8986903453387285e+00 0 0 0
155 2 7.4026408709478213e+00 1.0677349166364346e+01 4.6844134381249729e+00 0 0 0
156 2 8.8867406278126211e+00 1.0658251082868242e+01 3.9963851607190417e+00 0 0 0
163 1 7.4297658703659692e+00 1.2304404022538408e+01 1.8816388124992867e+00 0 0 0
164 2 7.4859306330203257e+00 1.1600073666110912e+01 2.5779513547943544e+00 0 0 0
165 2 8.1068553322776236e+00 1.1986545474393948e+01 1.2686583620916954e+00 0 0 0
166 1 8.5112390052134934e+00 7.4758660838319271e+00 4.9828291417775672e+00 0 0 0
167 2 8.5401852767498188e+00 8.2041095025327735e+00 5.5911910339401762e+00 0 0 0
168 2 8.6891111913863703e+00 6.6634777502195579e+00 5.5742629877487291e+00 0 0 0
169 1 9.0876980538421375e+00 1.2010155713486309e+01 6.8986249496262735e+00 0 0 0
171 2 8.9729679841040451e+00 1.2664038432028354e+01 6.1701099095416820e+00 0 0 0
175 1 7.5008819320739955e+00 8.5405213271770588e+00 1.8804293409755464e+00 0 0 0
176 2 7.4543183819408583e+00 9.0799760904506090e+00 2.7079604931050505e+00 0 0 0
177 2 6.5814919265389653e+00 8.6809843437305680e+00 1.5129811480826714e+00 0 0 0
450 2 4.1762803828534318e+00 1.1393352685190793e+01 9.8466230075802912e+00 0 0 0
3 2 2.0170717762373593e+00 2.3147855639891870e+00 9.1820145652808227e-01 0 0 0
544 1 3.7532312322729342e+00 1.4149228160395612e+01 1.0374533986178923e+01 0 0 0
609 2 7.1675120055115844e+00 1.6120961312343383e+01 9.7611000323349479e+00 0 0 0
340 1 3.7939793073864396e+00 4.0701961183811068e+00 1.0166407600838706e+01 0 0 0
220 1 4.2330710635617832e+00 1.4473460465339778e+01 3.2929462269809751e+00 0 0 0
221 2 3.9263352012161543e+00 1.5362713013667276e+01 3.1676814885698956e+00 0 0 0
222 2 4.3157409473538459e+00 1.3983418303603557e+01 2.4446293411298989e+00 0 0 0
223 1 5.3267142143298987e+00 1.7343078625402306e+01 5.8072283004908529e+00 0 0 0
224 2 6.2082924696678221e+00 1.7162285529329665e+01 5.3582047902148551e+00 0 0 0
225 2 5.3999749572845586e+00 1.6897366119183900e+01 6.6918455745416647e+00 0 0 0
226 1 9.3368593461732763e-01 1.6999755345792536e+01 3.6930772551277538e+00 0 0 0
227 2 9.0672111208028516e-01 1.7790318678699649e+01 3.0952638003475705e+00 0 0 0
228 2 8.1481982225029548e-01 1.6172992544882739e+01 3.2157531104194037e+00 0 0 0
229 1 4.5717153749172947e+00 1.8686008504954337e+01 1.7643919266075803e+00 0 0 0
230 2 4.1638336914412211e+00 1.8032439654287991e+01 2.3997396562084505e+00 0 0 0
231 2 4.4005735019725876e+00 1.9573699596093803e+01 2.1475990584046323e+00 0 -1 0
232 1 3.6385287494571386e+00 1.7120116566482452e+01 3.6617841018158108e+00 0 0 0
233 2 2.6467158205946770e+00 1.7118896272645458e+01 3.8006922950541426e+00 0 0 0
234 2 4.1250356066128759e+00 1.6888273815139151e+01 4.5438340665413710e+00 0 0 0
558 2 4.2367733000308645e+00 1.7311246800171695e+01 9.6633014925659335e+00 0 0 0
236 2 7.4442314102969842e-01 3.6945824623448587e-01 1.9669108281965955e+00 0 0 0
237 2 1.0821994399809771e+00 1.8625945441445282e+01 1.0615746613704176e+00 0 0 0
238 1 2.3117042734654243e+00 1.4017047244390646e+01 5.1155533452070694e+00 0 0 0
239 2 2.8011720618363336e+00 1.4042116339526499e+01 4.2857815407776654e+00 0 0 0
240 2 1.3719508577768764e+00 1.3890888998367585e+01 4.9473832638382600e+00 0 0 0
241 1 2.3803403245086630e+00 1.8392011277310900e+01 6.8925524071697968e+00 0 0 0
242 2 1.9723511183543811e+00 1.8842928634385757e+01 6.0202869812374242e+00 0 0 0
243 2 2.3656590266048356e+00 1.7412684577631516e+01 6.8262745372593860e+00 0 0 0
244 1 5.8761802531842182e+00 1.3653525436269023e+01 5.3439440450055429e+00 0 0 0
245 2 5.4810681659616982e+00 1.4107331709806255e+01 6.0762430206337559e+00 0 0 0
246 2 5.4850600838621810e+00 1.4172356060302816e+01 4.6160680722152199e+00 0 0 0
247 1 1.0445368736818925e+00 1.4961546392788440e+01 2.1655465534080922e+00 0 0 0
248 2 8.2110678708756279e-01 1.4046137016336351e+01 1.8665625036707325e+00 0 0 0
249 2 1.7355956357801869e+00 1.5266687441338290e+01 1.5783189182882453e+00 0 0 0
251 2 6.0583179999507877e+00 1.5544278827445625e+01 1.1786649098192519e+00 0 0 0
675 2 1.7051461278148856e+00 5.8335279956461585e+00 6.0083259899858954e-01 0 0 0
262 1 7.8851609215393301e+00 1.7020629396153566e+01 4.3382256927610729e+00 0 0 0
263 2 8.8687417506120045e+00 1.7208898188223060e+01 4.3813789925076998e+00 0 0 0
264 2 7.6580421609900258e+00 1.7667194181714223e+01 3.5932473872071995e+00 0 0 0
271 1 7.0249517810727324e+00 1.8697388146736088e+01 2.3698294777560371e+00 0 0 0
272 2 7.1222264819667274e+00 1.9649799874014001e+01 2.2743388280033616e+00 0 -1 0
273 2 6.0195828527053044e+00 1.8631917249307619e+01 2.1699313289611122e+00 0 0 0
274 1 8.5689072193327931e+00 1.3926064182751194e+01 5.1419089824485225e+00 0 0 0
275 2 8.9153833544104177e+00 1.4654472566992837e+01 5.7202201566625765e+00 0 0 0
276 2 7.5515082274439198e+00 1.3869761464124480e+01 5.1983875779829951e+00 0 0 0
277 1 8.9001734508942913e+00 1.8483017442846247e+01 6.6989650084469528e+00 0 0 0
278 2 8.8068694746040794e+00 1.9158790284042148e+01 5.9946819514401417e+00 0 0 0
279 2 8.3949800375712531e+00 1.8803680561288701e+01 7.5457975431815747e+00 0 0 0
283 1 7.4718157494314656e+00 1.5025560264274565e+01 2.1659884788713741e+00 0 0 0
284 2 7.5126490809922615e+00 1.5383992443731151e+01 2.9994163236699345e+00 0 0 0
285 2 7.6256482512737707e+00 1.4084056726855781e+01 2.3457445129157586e+00 0 0 0
818 2 9.7580032187413330e+00 1.1889368382888820e+01 3.5751959160143310e-01 0 0 0
325 1 2.8334815356161638e+00 2.5835091801735932e+00 7.0037865131950090e+00 0 0 0
326 2 2.7677788934477614e+00 3.5508057281113432e+00 6.6702824249636850e+00 0 0 0
327 2 3.8061683607684622e+00 2.5733575601192711e+00 7.2240939248376277e+00 0 0 0
329 2 4.3767597269502430e+00 9.3214142809771994e-01 9.6767395715002245e+00 0 0 0
337 1 4.7095149315789477e+00 5.8513963355979595e+00 8.2272187202944735e+00 0 0 0
338 2 4.5935639619244153e+00 5.2941148581220485e+00 9.0160359844326656e+00 0 0 0
339 2 4.6999999055704462e+00 6.7367373038726912e+00 8.5940597986690701e+00 0 0 0
343 1 7.3563613778108838e-01 6.2243083283449288e+00 8.7811934324326533e+00 0 0 0
344 2 1.0998649048911764e+00 5.6889597209135117e+00 9.4983859333447835e+00 0 0 0
345 2 1.3141537714248044e+00 6.0345889527517249e+00 8.0224111876279380e+00 0 0 0
355 1 9.1263245825813821e-01 2.2279488793978954e+00 8.8983658528077729e+00 0 0 0
356 2 9.7993411988897305e-01 1.2816787600193797e+00 8.7769452985547645e+00 0 0 0
357 2 1.7179886971410323e+00 2.4849228174694922e+00 8.3670615526316130e+00 0 0 0
358 1 5.5898532928611591e+00 2.4454053505606792e+00 7.3731362824824176e+00 0 0 0
359 2 5.8252853356542094e+00 3.2286470933706646e+00 6.7691148796620384e+00 0 0 0
360 2 5.6274400353257548e+00 1.6689863244121237e+00 6.7593630173005970e+00 0 0 0
361 1 9.1624411512413779e+00 3.2358529751752823e+00 6.9003156798686289e+00 0 0 0
362 2 8.9738567533675582e+00 2.5422933401094636e+00 6.1477656273066472e+00 0 0 0
363 2 8.7154234934482453e+00 2.9029045704237233e+00 7.6675321849231963e+00 0 0 0
254 2 8.8725682124016263e+00 1.5099523193594836e+01 9.9011953215238691e-01 0 0 0
379 1 7.4006772091086672e+00 6.2523917422254307e+00 9.0095675019221275e+00 0 0 0
380 2 7.3152159239121071e+00 7.1504580565015559e+00 9.4420649132919401e+00 0 0 0
381 2 6.5504421390927785e+00 6.0710663132011646e+00 8.5373959997774822e+00 0 0 0
391 1 7.6986848366816005e+00 2.4068537464711919e+00 9.0451901038271316e+00 0 0 0
444 2 1.1460660153270055e+00 1.1629787289781738e+01 1.0063203740379581e+01 0 0 0
393 2 6.8021665786998415e+00 2.3521384163245393e+00 8.6880617836782736e+00 0 0 0
479 2 7.9205339338390610e+00 1.1862512176832366e+01 1.0146657789869806e+01 0 0 0
433 1 2.6256938752032033e+00 9.6568319108760790e+00 6.8548435632546036e+00 0 0 0
434 2 2.5674749921863058e+00 1.0648541333906063e+01 6.6877544200674830e+00 0 0 0
435 2 2.1329136728348250e+00 9.4614799769758235e+00 7.6770956493584990e+00 0 0 0
143 2 4.3535360958862288e+00 8.9947012847909473e+00 2.6623455517139327e-01 0 0 0
445 1 4.6659121161516062e+00 1.2478585837652055e+01 8.7957997107278150e+00 0 0 0
446 2 4.2592140837613650e+00 1.3186284284725241e+01 9.3736953624773776e+00 0 0 0
447 2 4.0830420818335202e+00 1.2482688925924599e+01 8.0081081012195270e+00 0 0 0
711 2 8.0973674747652105e+00 5.5333877052770495e+00 7.5936642115283104e-01 0 0 0
451 1 5.2322693777207263e-01 1.2676451353514729e+01 8.8401463174272532e+00 0 0 0
452 2 6.5088006361754158e-01 1.3638934292611605e+01 9.0527367982763050e+00 0 0 0
463 1 4.7549170554504738e-01 9.0762633379344155e+00 8.8186025513944255e+00 0 0 0
465 2 5.1231082788792892e-01 8.1123963559049166e+00 8.8339595237443778e+00 0 0 0
466 1 5.3832850111340678e+00 9.0630978780382936e+00 7.1647003200217947e+00 0 0 0
467 2 5.5859344211360646e+00 8.3929774319998103e+00 6.4800588420048273e+00 0 0 0
468 2 4.4196439296122296e+00 9.2544650001583655e+00 7.0848580439730098e+00 0 0 0
469 1 8.9343470983739497e+00 9.2063523542166568e+00 7.2976138105756627e+00 0 0 0
470 2 8.8228081158518510e+00 1.0153126449274181e+01 7.0905771962947712e+00 0 0 0
471 2 8.5608220078730071e+00 9.1071205897084795e+00 8.1861867989853536e+00 0 0 0
573 2 6.8834425997877757e-01 1.6344263588809504e+01 9.6861392072712125e+00 0 0 0
487 1 7.4489032746483526e+00 1.2897376374154609e+01 8.8635832306280058e+00 0 0 0
488 2 8.0584040749827839e+00 1.2579737344909249e+01 8.1799798255821585e+00 0 0 0
489 2 6.5517770951627705e+00 1.2711152727397712e+01 8.5203574632546637e+00 0 0 0
499 1 7.0335841505179681e+00 8.7848902767172454e+00 9.4101437557574652e+00 0 0 0
1 1 2.6074344658839919e+00 2.8422458410996660e+00 2.3888555995821001e-01 0 0 0
501 2 6.4061692871626823e+00 9.0640214151705738e+00 8.7528423366477632e+00 0 0 0
19 1 5.6452941671814560e-01 5.9525855368225349e+00 1.7901375195450813e+00 0 0 0
608 2 7.2292180862754094e+00 1.4572312171735053e+01 9.4224067272079193e+00 0 0 0
541 1 2.3936924940697009e+00 1.5525764039557458e+01 7.5308685133962738e+00 0 0 0
542 2 1.6765991269907923e+00 1.5573621546487477e+01 8.2067583707270355e+00 0 0 0
543 2 2.1753775824180215e+00 1.5120565374381052e+01 6.6637315661546994e+00 0 0 0
553 1 4.6391515388017401e+00 1.8671634352757323e+01 8.6078693235424311e+00 0 0 0
554 2 5.5637103016381211e+00 1.8995429233263884e+01 8.4929875383824474e+00 0 0 0
555 2 4.1079523396664985e+00 1.8872402058008092e+01 7.7734098454338980e+00 0 0 0
2 2 3.5181346935322297e+00 2.6361053547190769e+00 4.6440403734956365e-01 0 0 0
559 1 5.1616054416413304e-01 1.9263620208823859e+01 8.5239010361206748e+00 0 0 0
560 2 1.2186993119929099e+00 1.8867346717923802e+01 7.9638422101600659e+00 0 0 0
561 2 6.6810747073716248e-01 1.8810293339444236e+01 9.3861120928939279e+00 0 0 0
571 1 3.9525541391023100e-01 1.5539982031768545e+01 9.2538893220833014e+00 0 0 0
574 1 5.0652566202053180e+00 1.5153341665035741e+01 7.3855175619932378e+00 0 0 0
575 2 5.7291879130239476e+00 1.5281399769382537e+01 8.0725907550182150e+00 0 0 0
576 2 4.2365580694571552e+00 1.5484547110118264e+01 7.7865978315991295e+00 0 0 0
577 1 9.0837699975721939e+00 1.5847550089819826e+01 7.0908480795795823e+00 0 0 0
578 2 8.8487809599531477e+00 1.6753120849541531e+01 6.7456255360298920e+00 0 0 0
579 2 8.4882371037952264e+00 1.5616953844477942e+01 7.8318890685108435e+00 0 0 0
119 2 5.4767759330806598e-01 1.0627753740373786e+01 4.2886281150440677e+00 0 0 0
595 1 7.4645085187438056e+00 1.9194412793728553e+01 8.8512066294324150e+00 0 0 0
596 2 7.8601855769396520e+00 5.1743274207523327e-01 9.3335298589205973e+00 0 0 0
597 2 7.6195464889656286e+00 1.8571773652550384e+01 9.5723649939686997e+00 0 0 0
607 1 6.9637373562503315e+00 1.5472849302943734e+01 9.0475215545656500e+00 0 0 0
500 2 7.3104988993839006e+00 9.6263833930464280e+00 9.7861336721254055e+00 0 0 0
217 1 2.9067207775008610e+00 1.5987286126516041e+01 2.1863819079687039e-01 0 0 0
889 1 2.3061781920984079e+00 1.8668073819846086e+01 2.1120173017516741e-01 0 0 1
34 1 5.2280473632675459e+00 2.5073068037416770e+00 5.4414518537819134e-01 0 0 0
372 2 7.6145369586905050e+00 5.0643433596319056e+00 1.0303797293472904e+01 0 0 0
392 2 7.7367948118239340e+00 3.0415166786553662e+00 9.7698370788428015e+00 0 0 0
250 1 5.5033798222537156e+00 1.5664035833774340e+01 4.1589325921517051e-01 0 0 0
925 1 8.7608071694191612e+00 1.8507990039804817e+01 1.8667318390518239e-01 0 0 1
109 1 2.3692185361461751e+00 9.4352068339331279e+00 2.3704456199145729e-01 0 0 0
557 2 3.8374647429757731e+00 1.5890756553878633e+01 1.0187643141526545e+01 0 0 0
36 2 5.5726168944434002e+00 3.3934148495705427e+00 2.1086069711435065e-01 0 0 1
342 2 3.9777154461517914e+00 3.1254290189323708e+00 9.9652548909291099e+00 0 0 0
437 2 3.9872083335976849e+00 8.8339698032837166e+00 9.8962018202369855e+00 0 0 0
436 1 3.8462705413759992e+00 7.9012294073939842e+00 9.9741471345387289e+00 0 0 0
709 1 8.8892805143267424e+00 5.3280548093928113e+00 1.9857134147596275e-01 0 0 1
253 1 9.3513834444921002e+00 1.5468842142367967e+01 2.0731667828754283e-01 0 0 0
546 2 4.5314821136805996e+00 1.4061161321466072e+01 1.1005313556225301e+01 0 0 0
384 2 9.4131451166357820e+00 9.7401511244852057e-01 1.1546058284916674e+01 0 0 0
793 1 8.8955578335233731e+00 8.9507255224419051e+00 1.3941372046241288e+01 0 0 0
144 2 5.4457314014109324e+00 9.7029260680203127e+00 2.0072999860557928e+01 0 0 0
39 2 9.0257125947886720e+00 1.9653517345432820e+00 1.9536047816944055e+01 0 0 0
781 1 2.7509023313374952e+00 1.2177284258370346e+01 2.0300565298933442e+01 0 0 0
331 1 5.4425978246486570e+00 4.5323873416064666e+00 1.2080890912517786e+01 0 0 0
332 2 6.2493135943218352e+00 4.1391770341109222e+00 1.1737594554225025e+01 0 0 0
333 2 4.7743492732649084e+00 4.3664777805617083e+00 1.1406921107686912e+01 0 0 0
371 2 8.8069309547755292e+00 4.4642302949377113e+00 1.1077149521930634e+01 0 0 0
777 2 8.7913205342926193e-01 1.3936989083279892e+01 1.5772033044864987e+01 0 0 0
330 2 4.8747318779562461e+00 1.1987971519352008e+00 1.1156209412345316e+01 0 0 0
346 1 1.9669306084470008e+00 1.3495979569752681e+00 1.2178497895991304e+01 0 0 0
370 1 7.9137713567631813e+00 4.3155967515964209e+00 1.0833622328669895e+01 0 0 0
348 2 2.0835291222604186e+00 2.0414014901131723e+00 1.2866937456062654e+01 0 0 0
349 1 2.6256456674671198e+00 5.8353219605766995e+00 1.3467473088535586e+01 0 0 0
350 2 2.2103327737363645e+00 6.3846539496219172e+00 1.2776219366343833e+01 0 0 0
351 2 2.2853258514585675e+00 4.9194266653001506e+00 1.3278406611929199e+01 0 0 0
352 1 6.0553143624509609e+00 6.1415941097743687e-01 1.2218357653781045e+01 0 0 0
353 2 6.9838041296011424e+00 7.2596191764003826e-01 1.2014372805488637e+01 0 0 0
354 2 5.7458609944891901e+00 1.9184544716924705e+01 1.2247494209391654e+01 0 0 0
347 2 2.7051423228225797e+00 1.4003784791862663e+00 1.1543777284881013e+01 0 0 0
382 1 8.7788537659581500e+00 7.5184563890950584e-01 1.2261111221942004e+01 0 0 0
383 2 8.7082771337496805e+00 1.9336498545039873e+01 1.2520573593406166e+01 0 -1 0
438 2 4.3740584387823276e+00 7.7159649405898163e+00 1.0788447625769466e+01 0 0 0
385 1 8.8175795359311611e+00 5.6857653533845465e+00 1.3514439126436280e+01 0 0 0
386 2 8.7856355126553094e+00 4.7600966999074545e+00 1.3578444679018009e+01 0 0 0
387 2 8.2457906153407592e+00 6.1737953788322697e+00 1.4205430313727797e+01 0 0 0
341 2 2.8909421230329961e+00 4.0881030216088767e+00 1.0488014760204454e+01 0 0 0
586 1 7.6625525022550383e+00 1.7259840654475227e+01 1.0869340828718132e+01 0 0 0
439 1 5.5832078105220306e+00 1.1119954995658954e+01 1.2576134387060060e+01 0 0 0
440 2 5.5328180087613807e+00 1.2059946194423937e+01 1.2518035708969707e+01 0 0 0
441 2 4.8184533059860497e+00 1.0847175487352498e+01 1.1967852436295395e+01 0 0 0
710 2 8.9310943017856790e+00 4.2432922022271518e+00 2.0416720749598859e+01 0 0 0
454 1 1.7545480776737827e+00 7.7498285873079578e+00 1.1652260978542749e+01 0 0 0
455 2 2.4002782972088652e+00 7.9122199471360748e+00 1.0926288946370409e+01 0 0 0
456 2 1.9183646444578362e+00 8.3947294963695001e+00 1.2408110808473443e+01 0 0 0
457 1 2.4599153225370087e+00 1.2028086566741484e+01 1.3536678008258036e+01 0 0 0
458 2 3.2874153055240161e+00 1.2140757167900217e+01 1.4020400642649467e+01 0 0 0
459 2 1.8445110959255742e+00 1.2269278175328528e+01 1.4261982994121318e+01 0 0 0
460 1 5.3692461074091371e+00 7.2894068625783071e+00 1.2097942584605439e+01 0 0 0
461 2 5.3777559561278467e+00 6.3572088401487701e+00 1.2335501530535034e+01 0 0 0
462 2 6.2877337917035456e+00 7.4353695175810026e+00 1.1729622119828383e+01 0 0 0
685 1 9.3349544839510923e+00 2.8008523591153169e+00 1.4161413842225210e+01 0 0 0
480 2 7.2006585503180025e+00 1.0921783113467200e+01 1.1296213440702648e+01 0 0 0
448 1 3.8239682411618485e+00 1.0717747314499999e+01 1.0564849556352376e+01 0 0 0
490 1 8.1957630556813239e+00 7.6846873448067070e+00 1.1678032506436445e+01 0 0 0
491 2 8.5087692708768863e+00 6.8307959291968920e+00 1.2143086128690898e+01 0 0 0
492 2 8.5128291974339891e+00 8.3523078394669490e+00 1.2254769512116384e+01 0 0 0
493 1 8.6517868597002590e+00 1.1655583769252507e+01 1.3751430486608456e+01 0 0 0
494 2 8.0582585983255584e+00 1.1958877168193645e+01 1.4495052004768462e+01 0 0 0
495 2 8.2768134161225611e+00 1.2064875206846173e+01 1.2915706539829840e+01 0 0 0
442 1 1.3255591321179054e+00 1.0948410564474688e+01 1.0768018554724083e+01 0 0 0
474 2 9.6868376834728398e+00 7.8324602471466012e+00 1.0455743143106300e+01 0 0 0
674 2 2.1508148220894521e+00 4.4957879442113073e+00 2.0262057653400291e+01 0 0 0
601 1 8.6946799370058727e+00 1.8073073069940257e+01 1.3673426950104060e+01 0 0 0
749 2 1.8608785924048610e-01 9.0625489047897467e-01 1.8621446899969229e+01 0 0 0
599 2 8.6943934880252520e+00 1.4072886107775881e+01 1.1155501368654964e+01 0 0 0
547 1 5.6575908569780546e+00 1.7590983720423559e+01 1.2489095662411128e+01 0 0 0
548 2 5.0812329525774098e+00 1.7348474854915303e+01 1.1713844285120603e+01 0 0 0
549 2 5.2807971731653716e+00 1.7052652607248639e+01 1.3160759357210798e+01 0 0 0
551 2 7.3654405276692536e-01 1.7681985357547816e+01 1.1385150939980750e+01 0 0 0
562 1 1.7371854222177199e+00 1.3890824356078094e+01 1.1833195946259325e+01 0 0 0
563 2 7.7705251694827138e-01 1.3751273479813673e+01 1.1870699324336996e+01 0 0 0
564 2 2.0824818547181634e+00 1.3052716158914693e+01 1.2326164660972893e+01 0 0 0
565 1 2.2710736012920152e+00 1.8565918527715567e+01 1.3557756353559236e+01 0 0 0
566 2 2.0181783720138800e+00 1.9369829762958950e+01 1.3019477460996773e+01 0 0 0
567 2 3.1909954671646057e+00 1.8609845914380479e+01 1.3852743053852699e+01 0 0 0
568 1 5.5682204286822472e+00 1.3907741230146884e+01 1.2409724384023729e+01 0 0 0
569 2 6.5541691699660003e+00 1.3907792991451183e+01 1.2271352533678519e+01 0 0 0
570 2 5.4523592193450687e+00 1.4588114622586875e+01 1.3115598940456239e+01 0 0 0
587 2 8.5968727336469524e+00 1.7162418754680814e+01 1.1109377853739971e+01 0 0 0
556 1 3.9490474373808087e+00 1.6844124146609587e+01 1.0472060708735459e+01 0 0 0
588 2 7.0979086005404248e+00 1.7340992292861216e+01 1.1639228964759198e+01 0 0 0
598 1 8.2249605812060747e+00 1.3944525930714903e+01 1.1944702032940954e+01 0 0 0
858 2 3.3377386394542430e-01 7.2287279214686864e+00 1.8869589603171534e+01 0 0 0
600 2 8.6271255285084152e+00 1.4450383848653820e+01 1.2643157040230983e+01 0 0 0
449 2 2.8607836066419416e+00 1.0869445488323358e+01 1.0833704739281208e+01 0 0 0
603 2 8.1039294173904253e+00 1.8284118989941653e+01 1.4377355229572821e+01 0 0 0
145 1 9.1860660232194320e+00 8.9858425170696652e+00 2.0548481250444659e+01 0 0 -1
110 2 2.0018616290695324e+00 8.7497563171355175e+00 1.9875906801427540e+01 0 0 0
649 1 2.4939895706109332e+00 3.0646417797029053e+00 1.4227421532268846e+01 0 0 0
650 2 3.4265734380514417e+00 2.6715545736265733e+00 1.4382702329710950e+01 0 0 0
651 2 1.9535521782679441e+00 2.6805049009308304e+00 1.4901546053519105e+01 0 0 0
652 1 4.1444625490037472e+00 1.2866736207727594e+00 1.7155030407896270e+01 0 0 0
653 2 4.1338488679193741e+00 2.2770484180497443e+00 1.7146496468086589e+01 0 0 0
654 2 4.9442320580409680e+00 1.0235956397700057e+00 1.7678396579792853e+01 0 0 0
655 1 5.5527790428053807e+00 4.4004444525491095e+00 1.9455105879903492e+01 0 0 0
656 2 5.6429654702179119e+00 5.3972953244171533e+00 1.9398844559003145e+01 0 0 0
657 2 6.2864018593837212e+00 4.1011381662883641e+00 1.8868401063909481e+01 0 0 0
658 1 1.1948002717417401e+00 4.2034473036415694e+00 1.7659207085823709e+01 0 0 0
659 2 9.2142739901578974e-01 3.4219537804083275e+00 1.7051460939475369e+01 0 0 0
660 2 9.9255910312777496e-01 4.9974463814383725e+00 1.7058747178284861e+01 0 0 0
661 1 4.6122781653972078e+00 5.5190659124296486e+00 1.5396120574682580e+01 0 0 0
662 2 4.2927843895393796e+00 4.7848580818202100e+00 1.5969590303751778e+01 0 0 0
663 2 4.1088291972015965e+00 5.6071698847889451e+00 1.4545639155225311e+01 0 0 0
664 1 3.9086718815620336e+00 3.8974637222887312e+00 1.7508123518686901e+01 0 0 0
665 2 2.9849458265943185e+00 4.2327124853201852e+00 1.7683267553113545e+01 0 0 0
666 2 4.5295214760432474e+00 4.0633070497810859e+00 1.8352377054590804e+01 0 0 0
667 1 8.6453681558329465e-01 6.0386498835764861e+00 1.5557405721766802e+01 0 0 0
668 2 8.0752479867746063e-01 7.0068830712419032e+00 1.5722608996982629e+01 0 0 0
669 2 1.5473562897009221e+00 6.0429615330225381e+00 1.4818463675662231e+01 0 0 0
670 1 2.1325948926096947e+00 8.0474949356422498e-01 1.8840544989903165e+01 0 0 0
671 2 2.2276103711830419e+00 1.7155038591255944e+00 1.9189981771465327e+01 0 0 0
672 2 2.6234720829974822e+00 8.3576688063746940e-01 1.8019045456645713e+01 0 0 0
676 1 5.9498464531241888e+00 6.3495494892822735e-01 1.9036391904042802e+01 0 0 0
677 2 5.6143261112327920e+00 1.2204236567823730e+00 1.9707855011099639e+01 0 0 0
678 2 6.8827175641963425e+00 6.8103355091849549e-01 1.8736313406316015e+01 0 0 0
679 1 7.0135765025011876e-01 2.0211120628898742e+00 1.6276522851984609e+01 0 0 0
552 2 2.1786216131300424e+00 1.7538501636397896e+01 1.0717733440283322e+01 0 0 0
681 2 9.3693499135712999e-01 1.0270644912630500e+00 1.6135728986541984e+01 0 0 0
682 1 5.2446445705331817e+00 2.5608877671917383e+00 1.4123254666785042e+01 0 0 0
683 2 5.1934929820015521e+00 3.4238323840880831e+00 1.3648185160303671e+01 0 0 0
684 2 5.6462414167009678e+00 1.8863400682224767e+00 1.3548708078351881e+01 0 0 0
426 2 2.7369667138240944e-01 1.5832272390985833e+00 1.1783209069412623e+01 0 0 0
687 2 9.0671430400179140e+00 2.1386629324069304e+00 1.3480958760785933e+01 0 0 0
694 1 7.7249685056516810e+00 3.9778067680278841e+00 1.7726279797255543e+01 0 0 0
695 2 8.6579564989253655e+00 3.9491539906185009e+00 1.7943893754231347e+01 0 0 0
696 2 7.5816539379925594e+00 3.1999126882685447e+00 1.7186061835127440e+01 0 0 0
703 1 7.1962744785469699e+00 5.8449313968753831e+00 1.5654640430290321e+01 0 0 0
704 2 7.5169751679337438e+00 5.3173151337742288e+00 1.6374890244965975e+01 0 0 0
705 2 6.2516951160739627e+00 5.5627342432796079e+00 1.5574703666370343e+01 0 0 0
706 1 8.5987198843269201e+00 5.0791536108404700e-01 1.8507058051114988e+01 0 0 0
707 2 9.2215146564087807e+00 7.4024395126592069e-01 1.7760534866093593e+01 0 0 0
708 2 8.7436247335362189e+00 1.9379460986372521e+01 1.9176779662478708e+01 0 -1 0
715 1 7.3424467108913669e+00 2.3318198019580474e+00 1.5800163346720353e+01 0 0 0