LAMMPS data file via write_data, version 8 Apr 2021, timestep = 4664000

972 atoms
2 atom types

0.09799292592709616 19.893060074060372 xlo xhi
0.06601936211350387 19.925033637897304 ylo yhi
0.17183716573003746 20.628934834284927 zlo zhi
0.19876614525003544 -0.05670481505429778 -0.003313964227839803 xy xz yz

Masses

1 16
2 2

Atoms # atomic

466 1 5.365865747344019 9.38199309205834 7.54626500394466 0 0 0
61 1 9.181782537699863 5.216372350402729 6.878394069309416 0 0 0
4 1 4.254696780878742 0.9225391181157924 3.181442184386829 0 0 0
5 2 4.236749303023078 1.8926389846733642 3.1176563495215754 0 0 0
6 2 3.4016180130622082 0.6771759192118919 3.590948235841489 0 0 0
7 1 5.788751030385733 4.5198662228917765 5.659733899291479 0 0 0
8 2 6.615434525871566 4.444431896975789 5.136722491100937 0 0 0
9 2 5.062718997723935 4.299326141068381 4.998516312680767 0 0 0
10 1 1.5576866897154147 4.141861088576576 4.007448092312792 0 0 0
12 2 1.2263009885044605 4.729764298506376 3.2995729206832145 0 0 0
13 1 4.921804908359977 5.630107279341244 2.0113951471289546 0 0 0
14 2 4.740584854081774 6.494103651034518 2.4144686122511665 0 0 0
16 1 4.157556436990192 3.656944815465301 3.656672948666598 0 0 0
17 2 4.495353643835349 4.3803530671380395 3.1216025373070244 0 0 0
18 2 3.2090780912226653 3.7914670659408403 3.8671345199023914 0 0 0
501 2 6.529327023417272 8.878465892039193 9.001978342323477 0 0 0
24 2 2.4937706562594006 1.059985581012772 5.505800201270074 0 0 0
25 1 2.900090283411025 5.004114757137425 6.107182791767747 0 0 0
26 2 2.6884917460310627 5.870292955068715 5.655467886066647 0 0 0
27 2 3.660336760189727 5.396118736695548 6.650204752793037 0 0 0
344 2 1.1951512487025244 5.156360682363842 8.899993680520105 0 0 0
143 2 4.103685221668241 8.993467870966377 0.4816270341985328 0 0 0
33 2 1.1912122757212584 2.6284836881699403 2.7598525660897444 0 0 0
35 2 6.504470189628807 2.228481046634967 1.197400510596194 0 0 0
20 2 0.8494652126066531 6.64334265372411 1.9381152437729081 0 0 0
435 2 2.115798021219637 8.845118875698091 7.935923941477307 0 0 0
46 1 7.951819896925861 4.2145606396087505 4.149286260693453 0 0 0
47 2 8.985356508106692 4.203119442424662 4.157841417441424 0 0 0
48 2 7.803497181138759 4.835529545983362 3.401610163822667 0 0 0
55 1 7.675801461978326 6.013070309365232 1.7901883285573112 0 0 0
56 2 7.782885382657266 6.952950743402934 2.127833051557043 0 0 0
57 2 6.678664076776258 5.891284736147674 1.7161074522567346 0 0 0
63 2 8.48339755833279 5.47829080787835 7.525494940252524 0 0 0
67 1 7.85845887735993 2.0579651682703495 2.630941745637169 0 0 0
68 2 7.915181140523793 2.7820064719659494 3.302638267039143 0 0 0
69 2 8.393464527205097 2.288498143665784 1.8952523174535845 0 0 0
112 1 4.419484332698296 7.930202610746852 3.410758780145343 0 0 0
113 2 5.162283542393149 7.860220855009989 4.020489555724159 0 0 0
114 2 4.351155907538565 8.852133260674306 3.2498775986058117 0 0 0
130 1 2.2951702969917744 7.5874503556207396 4.982422345509371 0 0 0
131 2 3.0526861306651245 7.6268317712851506 4.34273585948702 0 0 0
132 2 2.5814042118902805 8.066158196228335 5.816071988531884 0 0 0
136 1 6.099732832184688 7.404266456133481 5.184709259250078 0 0 0
137 2 6.016425748955714 6.60826147959901 5.7095383099737695 0 0 0
138 2 7.062044267298829 7.432377643893026 5.038614642193069 0 0 0
166 1 8.766429171922246 7.511038085723825 5.05753538292557 0 0 0
167 2 8.913350397350827 8.176208253067516 5.763415510067918 0 0 0
175 1 7.540207334117363 8.565466519639443 2.295630621931904 0 0 0
58 1 9.111941242795389 0.6470608309501996 5.0707197506522075 0 0 0
177 2 6.633762687670547 8.660178252511745 1.8791202457696654 0 0 0
28 1 6.391349705276911 0.25164934276254436 4.908783309431118 0 0 0
471 2 8.613789835526923 9.02852239573885 7.816748767424492 0 0 0
29 2 5.78491389115793 0.5493690368904965 4.178304355704214 0 0 0
325 1 2.8861568985663144 2.4764162507932737 6.88678511460572 0 0 0
326 2 2.9227155321385543 3.3447879711756676 6.437230038954614 0 0 0
327 2 3.771799920711427 2.0916633326350964 6.960770799402158 0 0 0
337 1 4.741900971785978 5.818654338319357 8.375415126481311 0 0 0
338 2 4.3298975306050105 5.036779987264771 8.79393899029671 0 0 0
339 2 4.481456617718986 6.48676295264557 9.005932085500962 0 0 0
463 1 0.7943048757290724 8.36097484206159 8.839151827685523 0 0 0
147 2 8.806621942707046 8.955482445049105 0.931256173468798 0 0 0
345 2 1.5463819945986128 5.240864159054783 7.391299278745301 0 0 0
436 1 4.257281174239858 7.663819708688238 10.335639998207466 0 0 0
450 2 4.471034962636738 10.985068042496865 9.977284474085266 0 0 0
357 2 1.8574341520273456 2.143867961735063 8.16568724736156 0 0 0
358 1 5.816262513385909 2.0247096526330606 6.924243578609135 0 0 0
359 2 5.796679119303194 2.988682151507257 6.4329125203913025 0 0 0
360 2 5.991125674823462 1.3792409273754989 6.212699347476424 0 0 0
335 2 1.083552701924227 3.368945676311017 9.91098077235614 0 0 0
451 1 1.1305658461676633 12.532740298515787 9.139826732821538 0 0 0
363 2 9.130980874323527 2.0658902831400763 7.982977057562828 0 0 0
329 2 4.22479484201609 0.4424563447569765 9.570980248466086 0 0 0
379 1 7.4823197307680624 5.894548769526723 8.865156526279565 0 0 0
380 2 7.578297467253455 6.905556354934178 8.888698073573034 0 0 0
381 2 6.524736338985111 5.721577608341275 8.614646841362493 0 0 0
391 1 7.7625379085784045 1.6503234115740386 8.927099449438185 0 0 0
393 2 6.961043320327066 1.9453941461563156 8.415630194418764 0 0 0
558 2 4.479665513224308 17.58390863313522 9.86039003852072 0 0 0
467 2 5.5260954149922386 8.705911616244938 6.8772877837100905 0 0 0
343 1 1.0095624338750309 5.68790092702031 8.08441254015096 0 0 0
499 1 7.451730129397933 8.748827099748365 9.286587827605196 0 0 0
140 2 0.9597201166971737 9.241875793702205 2.6128803532231535 0 0 0
210 2 0.49034648081306664 7.866497316500393 4.778056452263509 0 0 0
578 2 9.439657152484884 16.61074759562302 7.125361625529553 0 0 0
452 2 1.2154460016196182 13.487029966778195 9.343225103467157 0 0 0
559 1 0.6899801891623935 19.433641145162085 8.544033583790267 0 0 0
22 1 2.1695871683070638 0.2981618463728331 4.958986935691892 0 0 0
142 1 5.023002284945992 8.790472219821881 0.55772004790447 0 0 0
168 2 9.038012075521857 6.63257291855193 5.386595361798835 0 0 0
123 2 4.248189328344376 12.367230637285669 1.0451589565887827 0 0 0
255 2 10.121008166522206 16.00241462056953 0.28163552143422793 0 0 0
675 2 1.8913778692110792 5.431041868031658 0.5304538420266223 0 0 0
59 2 9.574792292306054 1.1172815872762372 4.319368250910842 0 0 0
23 2 1.2144435103586737 0.49769933562006485 4.914502408764505 0 0 0
60 2 8.238132703294944 0.659488466117461 4.646900135911868 0 0 0
120 2 2.003155732699929 10.563133568532663 3.731647869469445 0 0 0
250 1 5.3925937322352455 15.56411643943275 0.4967089677359472 0 0 0
572 2 0.2458087198966074 15.312885142628303 8.89761265210885 0 0 0
171 2 8.838056321712836 12.521715606985309 6.301434705437433 0 0 0
127 1 0.8795339334083533 12.654227832704747 1.8683085504284087 0 0 0
469 1 9.17185042324847 9.347219799285652 7.076889834404946 0 0 0
111 2 1.7818468476274196 9.027887825538608 0.7495539205336562 0 0 0
278 2 9.684707863657028 19.08444348460251 5.935492537732924 0 0 0
272 2 7.546158643255985 0.3893795211674953 2.161009144231118 0 0 0
468 2 4.389471885407395 9.446052109778034 7.583734018159593 0 0 0
433 1 2.6700347942878877 9.088959797390915 7.191046797130715 0 0 0
15 2 4.205746337534712 5.547445648908233 1.3300810855416005 0 0 0
11 2 0.9585173216630465 4.270181295108395 4.7747799327037725 0 0 0
258 2 9.86119004898738 14.515593857084456 3.976211515853075 0 0 0
470 2 9.186678053228897 10.338161406110977 7.062380933683984 0 0 0
573 2 1.1800268720697507 16.154898219080465 9.816239379899523 0 0 0
361 1 9.608782265980594 2.394720621454202 7.2164231995042645 0 0 0
608 2 7.775395227297461 14.467163800666546 9.667357501152674 0 0 0
176 2 7.552716723629156 9.273620035190277 2.9203229746385477 0 0 0
362 2 9.554825843760929 1.6996901135497624 6.574836926343899 0 0 0
231 2 4.718612072466683 19.60445269537969 1.7575191613070755 0 -1 0
596 2 7.6717789294457095 19.70494567325421 8.623851721651226 0 -1 0
356 2 0.7116020727935164 1.2200022233962746 8.816615886836361 0 0 0
129 2 0.947947698999537 11.974986287558803 2.6006974502778797 0 0 0
609 2 7.822602779750503 16.046016275886547 10.114513635099204 0 0 0
434 2 2.4532052383276755 10.007642564528059 7.050384236346423 0 0 0
247 1 0.8046963698280251 15.246508658070441 2.3706529552016495 0 0 0
119 2 0.6305604209796656 10.903661840322252 4.435786821866039 0 0 0
561 2 0.8751738892875321 18.9801355683356 9.364243887523244 0 0 0
355 1 1.077433947532818 2.1050182447196497 8.802465165859637 0 0 0
217 1 2.620842066308037 15.813732950725509 0.439881484707461 0 0 0
279 2 8.907451985703377 18.532843699254233 7.177187892233429 0 0 0
927 2 8.659998307173375 18.80589281087105 0.5348200429251336 0 0 0
607 1 7.491168585009788 15.379403893315319 9.430033104118875 0 0 0
3 2 2.794309740740323 2.2490711826486636 1.1048352469537028 0 0 0
342 2 3.826873627997334 2.8615988501752905 9.904472763646782 0 0 0
465 2 0.7759250470022103 7.4101972427655465 8.589800661141457 0 0 0
240 2 1.1491531956404375 13.794447134762972 4.9981821155043535 0 0 0
560 2 1.3977781785465084 19.20876569218497 7.910342827700973 0 0 0
126 2 4.161657523114082 11.035362649870207 4.399282774481636 0 0 0
115 1 6.081179612598565 11.377171695057651 5.537046810817714 0 0 0
116 2 5.758753679471384 12.314780136269116 5.709474978364719 0 0 0
121 1 4.844627390826625 12.363208202051526 1.803218481735139 0 0 0
122 2 5.787349201210589 12.353317050666218 1.5207635638198056 0 0 0
273 2 6.605205255967671 19.38633182353889 1.5417852007689539 0 0 0
125 2 3.9553197890501433 11.129164921885595 2.752457014750327 0 0 0
128 2 1.6918617096373563 12.482836479245588 1.2942378558047976 0 0 0
229 1 4.9707575496834915 18.777087412635996 1.2433643629086375 0 0 0
133 1 2.7710918057761647 11.77327269700886 7.196307889076864 0 0 0
134 2 2.1571004093336126 12.061883991072865 7.9383895931285 0 0 0
135 2 2.450042412151631 12.162669411742327 6.36706869430035 0 0 0
392 2 7.852284984397443 2.320982084681141 9.734379471840883 0 0 0
579 2 8.983709695757936 15.578083987944058 8.110060097558264 0 0 0
30 2 6.354439243310977 19.22564927621648 5.2422702644633095 0 0 0
251 2 6.107908917542465 15.559492397997287 1.1777219999032167 0 0 0
163 1 7.751543898503371 12.655105025478933 1.8346167758436054 0 0 0
164 2 7.801937446380064 11.9706704804934 2.5489275605063315 0 0 0
165 2 8.416139496413683 12.399233326479068 1.1422238660857171 0 0 0
254 2 8.514418931204524 15.70385887162494 0.5404439162581499 0 0 0
37 1 9.733686860605214 2.3740272702104286 0.60953092818663 0 0 0
139 1 0.6751688200709934 8.58500180183185 1.9516729909757575 0 0 0
220 1 4.089528641416938 14.249331954570849 3.562528426546457 0 0 0
221 2 4.175532521892721 15.136721879299515 3.232745685802375 0 0 0
222 2 4.396972803463133 13.581120366319437 2.8542967934724452 0 0 0
223 1 6.515974846816375 17.255957107263523 5.304561658494955 0 0 0
224 2 7.411611351121241 17.115165147808785 4.974242046282782 0 0 0
225 2 6.49775500667118 17.038939685081303 6.23186246796053 0 0 0
226 1 1.6716018929142116 17.242329608838396 4.002658787404518 0 0 0
227 2 1.603845739632223 17.904505855903587 3.3270897427457093 0 0 0
228 2 1.1891965208456239 16.430444738327804 3.647615726168067 0 0 0
248 2 1.0022634491489857 14.288676694831983 2.4789185372292435 0 0 0
230 2 4.952807352312155 18.049770975772603 1.8646211139978952 0 0 0
232 1 4.363609986396183 17.138126821415636 3.4258373826232362 0 0 0
233 2 3.4369059229116594 17.159977259141144 3.746504503855846 0 0 0
234 2 4.858602456704516 17.305794990610853 4.291043741229645 0 0 0
577 1 9.547035148637095 15.685094339991515 7.327505851700202 0 0 0
238 1 2.0018869877220773 13.613420691257405 5.390713761302595 0 0 0
239 2 2.7394544235253018 13.83232999573987 4.7484661261999355 0 0 0
236 2 1.2324115736690997 0.16615953051195953 2.3379461921438676 0 0 0
241 1 2.664185935332256 18.575405934801367 6.772939075762238 0 0 0
243 2 2.558549808498993 17.574685508065624 6.69876414928885 0 0 0
244 1 5.895587197194979 13.962200414210608 5.575104211109101 0 0 0
245 2 5.768583792051908 14.6756044889998 6.283075465674568 0 0 0
246 2 5.28746688837363 14.170279787554175 4.815031028582345 0 0 0
340 1 3.8216978394892367 3.829815032721639 9.971862881981131 0 0 0
249 2 1.4633842280738276 15.634945599113728 1.765512061791029 0 0 0
124 1 3.7610692546188815 10.643368468034792 3.6151298188914134 0 0 0
262 1 8.539868113590803 17.166915762837693 3.5202727350989993 0 0 0
263 2 9.583923801886543 17.239267102746634 3.478468687438445 0 0 0
264 2 8.119423705165724 17.941454230131406 3.061835519411965 0 0 0
554 2 5.746019678866117 18.636912232113417 8.341123520695358 0 0 0
242 2 2.465083888761223 18.954168680406518 5.873548489546833 0 0 0
274 1 8.542258487674573 13.944503613170768 5.153346774051425 0 0 0
275 2 8.686260550132928 14.631971588504344 5.871301896671366 0 0 0
276 2 7.597689588309405 14.117940531269845 5.006435691024927 0 0 0
156 2 8.791124350167314 10.68911148311567 4.030287779324997 0 0 0
283 1 7.525303106426042 15.276379038528477 1.9432229342698846 0 0 0
284 2 7.878433561257591 15.79526685885624 2.6898181266226944 0 0 0
285 2 7.71184983574969 14.344871236414553 2.1127300748881046 0 0 0
437 2 4.326016686952137 8.664345634140696 10.270631013289233 0 0 0
445 1 4.883181705439168 12.434088016114902 8.840090323785313 0 0 0
446 2 4.550501979629592 13.266252489648357 9.257825959282359 0 0 0
447 2 4.264955332388908 12.179638468527697 8.105916437778118 0 0 0
235 1 1.1346112402396071 19.101954847683842 2.088262967983668 0 0 0
487 1 7.541017116382253 12.635503271199916 9.174455337062204 0 0 0
488 2 8.146061328240597 12.654986371983519 8.398849036623968 0 0 0
489 2 6.62558580892209 12.5983688922393 8.844815526039463 0 0 0
541 1 2.86586005348808 15.80170147237722 7.226948424322253 0 0 0
542 2 2.252540299862954 15.575046539115098 7.976244759550902 0 0 0
543 2 2.611372989066357 15.221139804881112 6.472275487247271 0 0 0
154 1 7.831599620934115 10.639627291832806 3.747666739920482 0 0 0
31 1 1.2334717855628456 2.028128219980966 2.007878874257627 0 0 0
574 1 5.693393030538671 15.719559874268294 7.569284705896081 0 0 0
575 2 6.260323462587352 15.568194089270484 8.352576406866412 0 0 0
576 2 4.787016393740927 15.979131076677215 7.7497073650535295 0 0 0
597 2 8.001885966857966 18.38611370883192 9.345477233172826 0 0 0
117 2 5.8353610099836475 10.843021740055534 6.324654547339457 0 0 0
555 2 4.2619010163808895 18.51625557336254 7.702998296891766 0 0 0
155 2 7.147818568949075 10.853580201829539 4.423308783376222 0 0 0
237 2 1.7439700523630695 18.864643197433388 1.3393543075727883 0 0 0
328 1 4.0695308929977045 1.1131708413551533 10.214590485559619 0 0 0
553 1 4.7654003257644515 18.588476315053335 8.566839490489407 0 0 0
169 1 9.14421280689758 12.025721801956204 7.094882971257679 0 0 0
500 2 7.561282223069609 9.432803217252117 9.938336806994633 0 0 0
595 1 7.608649736811209 18.73631036335432 8.519264106891239 0 0 0
271 1 7.492764637435383 19.31565464897164 1.9034740694205385 0 0 0
170 2 10.025788962509322 12.40399063131424 7.414544335045368 0 0 0
19 1 0.865086827953513 5.7206291621308125 1.6048977074281556 0 0 0
118 1 1.0333363258633435 10.50724952004656 3.647739304542174 0 0 0
277 1 9.73176353784418 18.450152246717384 6.656798634287951 0 0 0
710 2 8.299628957821456 5.113492579203431 0.2970631829150336 0 0 1
34 1 6.080121006202643 2.3103573857266166 0.32549441463012757 0 0 0
571 1 1.1256296482627293 15.222664609981086 9.343680159780499 0 0 0
150 2 10.01690048790903 7.867858533828956 3.911620082047832 0 0 0
62 2 9.062741706990943 4.240813712465251 6.786499668190957 0 0 0
218 2 3.530888820678825 15.76400380530225 0.7396094616489562 0 0 0
479 2 7.892665602230331 11.499275046985884 10.246332589611832 0 0 0
32 2 0.4906309049253841 2.297310922307482 1.3458313063399172 0 0 0
145 1 9.469328982202851 9.080360944086316 0.24462736175827693 0 0 0
1 1 3.1380622744170124 2.5640312939592045 0.22350972564347785 0 0 0
2 2 4.123005207422671 2.6008318833847293 0.28671333268011634 0 0 0
372 2 7.771939023280974 4.607545013743209 10.042263724760307 0 0 0
341 2 2.9281097624836745 4.059275247791336 10.273635094040708 0 0 0
444 2 1.2277887755157095 11.366750740771781 10.326331136552351 0 0 0
144 2 5.4821994976740545 9.531596092228638 0.17721603810357764 0 0 1
672 2 2.8993122345551545 1.1271867794960568 18.047419517315994 0 0 0
883 1 0.4986809530573293 19.38776707148517 15.284140254231179 0 0 0
757 1 3.0118756282123655 9.246809921403985 13.772424276818303 0 0 0
673 1 2.7711784278274894 5.23904532062242 20.58364821027029 0 0 0
331 1 5.946937183782805 4.5618302434500935 11.682344305691677 0 0 0
332 2 6.666396057487383 4.053552741220473 11.260188048067127 0 0 0
333 2 5.134877656579065 4.384393153529018 11.150961907066677 0 0 0
879 2 4.211612194527606 0.1329524153286875 15.84638179054908 0 0 0
667 1 0.7686737145527325 5.863544483527142 15.550758232376891 0 0 0
348 2 2.416331820215176 1.2404838222753893 12.60611887471138 0 0 0
349 1 2.5130619475912983 5.280168590460357 13.428627777098859 0 0 0
350 2 2.4016328814278625 6.0582776831824106 12.871255316655034 0 0 0
351 2 2.1226775211304165 4.555873161274395 12.93350459841571 0 0 0
656 2 5.944059058446923 5.334582633685803 19.483316364983665 0 0 0
385 1 9.164259566091753 5.5032405397750495 13.79364321306677 0 0 0
387 2 8.42741324674852 5.574354757194526 14.439569568769391 0 0 0
919 1 7.283157445190868 19.500660797732163 15.397156874741077 0 0 0
758 2 3.9109375616650395 9.173432652858116 14.129800718002642 0 0 0
454 1 2.0041003769517682 7.523858963066267 11.930279522753693 0 0 0
456 2 2.4615563728060925 8.210722402480966 12.442713636440446 0 0 0
460 1 6.492052126967933 7.182120173182275 12.275034725415175 0 0 0
461 2 6.426447088979198 6.1846620181999885 12.12096654020244 0 0 0
462 2 7.364483909729808 7.467895214074102 11.914392413790356 0 0 0
670 1 2.1382278405418207 0.9413018063751761 18.645863353442685 0 0 0
490 1 9.317057512179371 7.734117006076972 12.051679161568925 0 0 0
491 2 9.286997962360134 6.813758758018243 12.494162570376842 0 0 0
749 2 0.45989936019634925 0.8310726598108839 18.6579769327519 0 0 0
649 1 2.8631202492872605 2.07069696207291 13.997657398032356 0 0 0
650 2 3.796892178932395 2.151013927852326 14.31014864471299 0 0 0
651 2 2.3203629388287093 2.2045170803331966 14.767480062712103 0 0 0
652 1 4.204815324411697 1.3909223033872804 17.017001001019917 0 0 0
653 2 4.137872391850624 2.3700332932656374 17.00396627328218 0 0 0
654 2 4.935473389852775 1.146640629410761 17.66170220954937 0 0 0
655 1 6.006131728377071 4.401488697301223 19.253322013136927 0 0 0
657 2 6.801069680285632 4.285897442620624 18.72338640435849 0 0 0
658 1 1.4345550810571124 4.118751964692432 17.773999335283015 0 0 0
659 2 1.211098469126013 3.351606613718315 17.24331464276993 0 0 0
660 2 1.1851150641092236 4.869023331267566 17.219459963465038 0 0 0
661 1 4.250069334403933 5.7944948368990925 15.328972369082006 0 0 0
662 2 4.330969432890809 4.984223609907792 15.88810926488135 0 0 0
663 2 3.7458788357087727 5.421542596677534 14.55966530458543 0 0 0
664 1 4.141430302931436 4.111875105775624 17.355743908320726 0 0 0
665 2 3.317409214297805 4.0791640182349465 17.886423432634388 0 0 0
666 2 4.814399516525433 4.12785526496538 18.08973670209613 0 0 0
566 2 2.516696671537138 19.212745661536612 13.112188913818546 0 0 0
669 2 1.3756725805280576 5.645950725819466 14.794745191441564 0 0 0
671 2 2.27356117020914 1.6897677400000846 19.326892845578595 0 0 0
495 2 8.748985262485613 12.691190704254671 13.063055418301905 0 0 0
682 1 5.538049213521147 2.967262328371303 13.876878057799379 0 0 0
683 2 5.518321000517531 3.700156826723109 13.233017586253418 0 0 0
684 2 5.599487507219299 2.1181427449715953 13.32851920686914 0 0 0
895 1 1.1346347768361014 15.353077843707078 15.82054045328462 0 0 0
694 1 7.843267681733184 4.087512007701809 17.541190510668045 0 0 0
695 2 8.737205953906855 4.055518334155505 17.82987559435553 0 0 0
696 2 7.719470551303335 3.408613789867086 16.82320623609267 0 0 0
703 1 7.080389693127173 5.9085517165175245 15.565231661539311 0 0 0
704 2 7.306348108690908 5.522173501265155 16.463935095292538 0 0 0
705 2 6.070255444293492 5.839464898415888 15.485989026729117 0 0 0
715 1 7.587841279520842 2.2506683110350996 15.575623459059205 0 0 0
716 2 6.780371651645192 2.5916632918903177 15.117012776034505 0 0 0
717 2 8.391298688096947 2.3994964995722707 15.027641541584837 0 0 0
925 1 9.324732144967337 18.589034965488683 20.39580856961613 0 0 0
789 2 1.6310712134588958 8.98643823002353 15.118367390787407 0 0 0
889 1 2.51533861982448 18.656572350260692 20.237725167295647 0 0 0
760 1 4.315766289167134 7.713189130811208 17.23077233378292 0 0 0
761 2 4.450223887396072 6.939821275649704 16.558398502818516 0 0 0
762 2 5.094703776395789 7.636319194707056 17.863034957990312 0 0 0
778 1 2.305783001300317 7.139105837093166 18.825287964651643 0 0 0
779 2 2.9432269125901476 7.326329578985596 18.17716546824001 0 0 0
780 2 2.530583726875133 6.347049901275505 19.35797570423337 0 0 0
784 1 6.139881739244447 7.093260969208475 19.221497081199104 0 0 0
678 2 7.172296743931734 0.6248536694963941 18.448331594764355 0 0 0
786 2 7.062975008993311 7.31280915568693 18.929220107949856 0 0 0
545 2 3.758609198076511 14.359339627088383 11.361531883833628 0 0 0
791 2 6.0423978369315785 8.369485995584752 13.58608585969827 0 0 0
773 2 4.110779689552182 9.617401162511761 17.182751365693818 0 0 0
814 1 9.196287446942279 7.251880933144745 18.706825254913877 0 0 0
815 2 9.319715336363311 7.831036577096291 19.497378944160427 0 0 0
816 2 9.154344708548296 6.337423540838961 19.06860357533188 0 0 0
823 1 7.294587275061148 8.547547878365277 16.238426903383253 0 0 0
824 2 7.4559742676597764 7.571340474991521 16.20880863234902 0 0 0
382 1 8.8293131514307 0.8375635405063991 11.925568961124132 0 0 0
685 1 9.571857668070555 2.743897168659512 13.610951966985747 0 0 0
347 2 2.619109338160475 0.9827189481054256 11.120221490835227 0 0 0
426 2 0.28438323981115243 0.9786279320161159 11.74913407467013 0 0 0
782 2 2.3320738406701844 11.011268862484545 20.35637104391403 0 0 0
707 2 9.736335793583994 0.803825443319414 18.070807930640413 0 0 0
817 1 9.27298124613601 11.769083945945864 20.208473476333836 0 0 0
552 2 2.4518375114098983 17.496659276356198 10.725304530306962 0 0 0
921 2 6.359697014014012 19.48546395659284 15.164077990691746 0 0 0
438 2 5.000667432800049 7.409079965346169 10.947826074707072 0 0 0
709 1 8.987465457581719 4.868435434770999 20.154798078173265 0 0 0
795 2 8.836317719340517 9.074307891941665 14.919105555114951 0 0 0
897 2 1.1046362516916581 16.128568647543318 16.411648285600243 0 0 0
706 1 9.01352639016659 0.7685407641866344 18.751941094713576 0 0 0
353 2 6.9469716677716296 1.0966268855671781 12.105279196724817 0 0 0
825 2 6.4948909357027595 8.803291076905012 15.690107267045386 0 0 0
794 2 9.143114309482899 10.264507533887562 13.915932080853525 0 0 0
599 2 9.618067228409512 14.282606910120279 11.427191729952625 0 0 0
546 2 5.315953949669045 14.314569893875593 11.315634613974446 0 0 0
486 2 9.75573665040114 10.90454498648982 10.725333441247045 0 0 0
352 1 5.988652533755213 0.8688700856102111 12.347347802728498 0 0 0
371 2 9.02628054136489 4.011413117247567 10.762655181943769 0 0 0
346 1 2.004553382507003 0.7421645798373576 11.85021454664197 0 0 0
449 2 3.2185652477739746 10.69071480307148 10.887638660253012 0 0 0
787 1 0.9781504638889419 8.672673434037195 15.810179610381576 0 0 0
455 2 2.3074181209209135 7.700947478934463 11.031927001239767 0 0 0
383 2 8.814919122481442 0.06678901247055048 12.506121457869607 0 0 0
354 2 6.130243435120772 19.78224292423726 12.302468554452782 0 0 0
602 2 9.991362105157428 18.72679872684541 14.04466952721958 0 0 0
920 2 7.221768643405662 0.5342241738201448 15.731880188603318 0 0 0
790 1 5.729302838651109 9.015267133935009 14.281905552528825 0 0 0
676 1 6.192016174194487 0.7409346912590523 18.602976288023637 0 0 0
386 2 9.154217897718564 4.574592146666856 13.477600395460286 0 0 0
836 2 0.20074827137634477 11.503907026038325 18.627937914412108 0 0 0
901 1 9.351200364293751 16.04531924981131 13.792750233008373 0 0 0
792 2 5.693063907040994 9.933917722979041 13.798629525881113 0 0 0
146 2 9.203733305109626 9.943043481571404 20.276506294961422 0 0 0
448 1 4.209006209579318 10.505829025757 10.781544459900768 0 0 0
492 2 9.263913600537402 8.431500979729847 12.83359555971456 0 0 0
336 2 0.5392137291547344 4.14800546543081 11.26840501697946 0 0 0
804 2 7.827107380703397 9.977664932417852 17.055047986742732 0 0 0
767 2 1.2253247847452917 10.098916535946373 17.04507014230696 0 0 0
772 1 4.03236892117733 10.425065252425075 17.721043342552406 0 0 0
39 2 9.59869676547657 1.8326147064585212 20.3010803127783 0 0 0
777 2 0.605858614653036 13.594452393672414 15.807461461974368 0 0 0
480 2 7.586313996431976 10.975476241765087 11.75481696728332 0 0 0
932 2 7.743747199310304 15.53496259106093 16.729608636189276 0 0 0
775 1 0.46812290996622463 12.601750283403062 15.564175959334133 0 0 0
933 2 8.30048915700264 15.1512633255142 15.391601353763539 0 0 0
551 2 0.9412754451409201 17.839023429614382 11.32123033063509 0 0 0
330 2 4.829118866738695 1.0786750963613498 10.777577095264498 0 0 0
252 2 5.613957418937787 16.377329667383343 20.438103321676774 0 0 0
677 2 6.147896333013341 1.2755639341906837 19.405904085475242 0 0 0
884 2 1.1775642022165944 19.037995861786 14.672735125323976 0 0 0
885 2 0.6457550920484043 18.84434639098024 16.044268216326955 0 0 0
439 1 5.761111932287553 11.244536139781383 12.74240035273023 0 0 0
440 2 5.921984716619193 12.188732946940647 12.776697337954017 0 0 0
441 2 5.317232000199944 11.068320769604615 11.871553091682314 0 0 0
493 1 8.683752553593365 11.848276832779275 13.579723331751039 0 0 0
457 1 2.4264530578300634 12.207077259372719 13.502383555610402 0 0 0
458 2 3.196377657882027 12.43987702272687 14.117986356653306 0 0 0
459 2 1.6391505166258828 12.204355096473595 14.03636442399241 0 0 0
494 2 7.953066639862367 11.959589639810195 14.215781130069008 0 0 0
902 2 9.171109139965422 17.042521392497466 13.817909499421559 0 0 0
931 1 7.776121917573825 14.810961024936267 16.104332198006382 0 0 0
687 2 9.2198125045113 2.1322723049863965 12.969110593120845 0 0 0
547 1 6.123224200823213 17.884037662377487 12.371514895249957 0 0 0
548 2 5.395067928304835 17.781252038016206 11.707107704146642 0 0 0
549 2 5.888737820980026 17.261687798359134 13.108030158391182 0 0 0
793 1 9.359934065117784 9.322374846131762 14.100529373416153 0 0 0
562 1 2.223105403033785 14.37082068878547 12.11603086509642 0 0 0
564 2 2.144886262588867 13.492027089432584 12.554259165277022 0 0 0
565 1 2.5888567442585027 18.600483194796496 13.865811457250667 0 0 0
567 2 3.3403060696952633 19.00399128720928 14.439952914935013 0 0 0
568 1 6.2963003733921745 13.933603336158964 12.564838216591145 0 0 0
569 2 7.177197942334296 14.068084169947689 12.088345676710764 0 0 0
570 2 6.251366399930814 14.706594147138347 13.167965699811754 0 0 0
785 2 5.897458805349294 7.556677074973002 20.037445723672924 0 0 0
588 2 8.022449748372887 17.884615409000197 11.52511666851493 0 0 0
877 1 4.704473058763863 19.2457961924084 15.301073304118512 0 0 0
598 1 9.007361943386984 14.063655082160286 12.125623320489002 0 0 0
600 2 9.182777660054564 14.7658731591646 12.789644661446566 0 0 0
384 2 9.615495476818303 0.9005353713449876 11.379749288332048 0 0 0
36 2 6.108606694137125 3.2556561430832276 20.449504313997895 0 0 0
763 1 5.759664797531623 10.928016982568069 19.511887512945727 0 0 0
764 2 5.10185683588685 10.6970328858751 18.842874609549582 0 0 0
774 2 3.0750784271757605 10.703811329092574 17.59269871140963 0 0 0
768 2 1.0334700015226743 11.714073221704755 16.77631807026879 0 0 0
769 1 4.124367530481549 12.226859225691168 15.430461981095592 0 0 0
770 2 4.269262027631313 13.008081452108787 15.992708704433031 0 0 0
771 2 4.00734073416284 11.419914252967025 15.94986359207435 0 0 0
681 2 0.8352738530503421 1.2158287092002322 16.033704583843793 0 0 0
924 2 8.082443484318969 13.749934067460691 18.550527436817404 0 0 0
783 2 2.411288559053171 12.505074644253904 19.755147852191193 0 0 0
819 2 9.180792081618065 12.413993441114572 19.44896413064089 0 0 0
803 2 7.56196359516422 11.51820941251285 17.00577182133739 0 0 0
811 1 6.865370909255993 12.318005488290138 15.6992337035657 0 0 0
812 2 5.900535996814511 12.42830233595795 15.409695286418883 0 0 0
813 2 7.006537032442656 13.225940684543229 15.917698883636032 0 0 0
680 2 0.14923537225117264 2.3928269117873326 15.652061526817478 0 0 0
911 2 8.969700690141266 17.377214700902464 17.462432303562153 0 0 0
765 2 6.600522892904638 10.835904990003575 19.01141565306101 0 0 0
865 1 3.0799842712907317 15.898858777070977 14.089923931048016 0 0 0
866 2 2.8962970499994243 16.85995029970771 13.955468317534327 0 0 0
867 2 2.652489742670073 15.461569299395741 13.29679012384924 0 0 0
868 1 4.288565364842842 14.356244823335578 17.0500404368166 0 0 0
869 2 5.00233129722634 14.096716281334139 17.720602562477044 0 0 0
870 2 3.4027007502039486 14.188312828247929 17.585166324273754 0 0 0
871 1 6.254062745935692 17.92690505200102 19.22918816841096 0 0 0
872 2 6.0985863225517845 18.902311971336346 19.091781478401533 0 0 0
873 2 6.986365799716826 17.7600054679595 18.623187073966555 0 0 0
874 1 1.269446977470795 17.727524961744933 17.318054176775465 0 0 0
875 2 2.1682327864136304 18.135864431848894 17.421229549680515 0 0 0
878 2 4.732811874339551 18.43317102864583 15.8885594684702 0 0 0
880 1 4.450369102546152 17.16748747890817 17.272949034588102 0 0 0
881 2 4.425022486588114 16.197478143988388 17.116659247260863 0 0 0
882 2 4.937803286853689 17.30081315881803 18.145494530985015 0 0 0
886 1 2.120713395751678 14.138010918741731 18.761998552488734 0 0 0
887 2 2.2281225056703944 14.68047518277089 19.554360162757163 0 0 0
888 2 1.1398537985798378 14.157546734620533 18.639852478298373 0 0 0
892 1 6.048850140355958 13.5970979198331 19.047765385331786 0 0 0