LAMMPS data file via write_data, version 8 Apr 2021, timestep = 500000

384 atoms
2 atom types

0.07094915400615798 14.999148845993599 xlo xhi
0.03176550666524488 14.138467493335401 ylo yhi
0.1127798730651731 13.592943126934006 zlo zhi
5.118993458075058 5.0884727282101965 3.5519389595493576 xy xz yz

Masses

1 16
2 2

Atoms # atomic

1 1 7.372311991832389 5.153970643070867 4.063800641666664 0 0 0
2 2 7.106982687984897 6.0655344999451195 4.353890142534554 0 0 0
3 2 6.556879531029307 4.697556626718976 3.7404366085535363 0 0 0
4 1 10.094984545679063 7.104130052851208 10.682360980579416 0 0 0
5 2 9.689323620114127 7.845216674899097 11.081245868892175 0 0 0
6 2 10.373961183115153 6.568435848535518 11.435301893845848 0 0 0
7 1 10.041632143402818 12.2075985974028 4.030070248587867 0 0 0
8 2 10.566256111441831 11.951113227796679 4.831876656987172 0 0 0
9 2 9.75452861906258 13.115311850823806 4.310981869738028 0 0 0
10 1 12.224184190789764 13.893471092915526 10.890623143417605 0 0 0
11 2 12.99764632116227 14.108687998770593 10.354374437312627 0 0 0
12 2 11.668259944708563 13.28417716202769 10.346431501752221 0 0 0
25 1 11.635408525595503 8.040687396518939 6.244122427657463 0 0 0
338 2 4.479710547974876 7.258960740834393 4.982174229039565 0 0 0
27 2 11.358740534402509 7.443527532226287 7.026717753754925 0 0 0
28 1 14.23189687536134 9.827670462002795 13.14381307689178 0 0 0
29 2 13.42156956046144 10.255400505749243 12.796068602344812 0 0 0
125 2 4.820580817301535 4.391344959620982 10.154877090861692 0 0 0
31 1 14.209798331967388 15.045951353433823 6.444221792357914 0 0 0
273 2 13.002204083656471 13.171296302102926 3.2887155612066534 0 0 0
33 2 13.424193516203093 15.58415584614656 6.249633746484324 0 0 0
34 1 16.37836278264937 16.933059303688946 13.197020640325306 0 0 0
365 2 10.631242226922707 9.70682623370812 12.07861192803867 0 0 0
372 2 12.820403902854261 16.816425098122153 11.888358973175722 0 0 0
49 1 5.17384944573798 3.6362214512610236 2.9301862265878253 0 0 0
50 2 5.646377782269925 2.7908300190814064 2.6708854565917495 0 0 0
51 2 4.807359129800509 4.050767154274715 2.118726136874546 0 0 0
52 1 7.696173802324777 5.358429567293914 9.629037862503106 0 0 0
53 2 6.978049395037287 5.169424623432604 10.271553354831518 0 0 0
54 2 8.329113473625842 6.044619422794952 9.90518481840806 0 0 0
55 1 7.7001596424414345 10.744885333860525 2.9873077035117936 0 0 0
56 2 8.183242297632585 9.948293042899984 2.7380461388323534 0 0 0
57 2 8.409555609400014 11.327197288652666 3.3367772263807987 0 0 0
58 1 10.628220888596855 12.418493250507296 9.34387768843202 0 0 0
59 2 10.257288995697936 12.817917782026786 8.513279065865753 0 0 0
60 2 10.653360788295506 11.473613320229239 9.177701471943958 0 0 0
73 1 0.9423159802635172 0.9131230192558566 0.5741357011498035 0 0 0
74 2 1.765679045431611 0.4496230731036366 0.8156980750355621 0 0 0
371 2 12.007661305172437 15.425042645850358 11.579798052509224 0 0 0
76 1 3.5374458992380253 2.6895208636404844 7.395989789913147 0 0 0
367 1 9.846592090192518 14.752501188902912 5.306022752707441 0 0 0
78 2 4.301107257404521 2.0399352888863147 7.575187170463115 0 0 0
266 2 10.456869051647484 6.3931565231539595 3.290701849529148 0 0 0
80 2 4.3415042818941085 7.292256923862495 1.0445613688166395 0 0 0
370 1 11.970762600985113 16.38003975709478 11.902273865935495 0 0 0
82 1 6.46191904571692 9.661923857233578 7.484618734965956 0 0 0
368 2 4.165367408571141 1.3493121042243423 5.038902895003813 0 1 0
77 2 2.966049142634435 2.0610682102617526 6.921339828369924 0 0 0
97 1 5.038550017740266 4.5292433090528075 6.251578129303229 0 0 0
98 2 4.389773655108877 4.948692998097047 5.67684754187715 0 0 0
99 2 4.592274866270856 3.763514509448557 6.631953048587092 0 0 0
100 1 7.677081401807184 6.119461554246191 12.648115215184909 0 0 0
101 2 8.106433587864501 6.745339515920777 13.328131625167655 0 0 0
102 2 7.0511341017578495 5.630786387811959 13.191439884134715 0 0 0
103 1 7.696850457744804 11.51261831471659 6.039195128849506 0 0 0
104 2 7.0479840092630806 10.970946465210641 6.509004512508792 0 0 0
105 2 7.267695255170613 11.995478025606536 5.325928956289956 0 0 0
106 1 10.386913989715108 13.01378495639746 12.645341960984444 0 0 0
107 2 10.879882091124978 13.717927384071745 13.078494910518765 0 0 0
108 2 9.61745111117571 12.748960882037565 13.233941638698507 0 0 0
121 1 2.9983507628239323 2.7114804314127467 4.331586893327461 0 0 0
122 2 3.669550439522218 3.267730152133065 3.8568284362769183 0 0 0
36 2 16.669343075124022 16.369780564583834 12.43909908720355 0 0 0
124 1 5.585288972645502 4.56233621168654 10.723711515324144 0 0 0
47 2 9.49863089029764 16.33251948679316 11.936078866830677 1 0 0
126 2 5.878812994934999 3.6950572880103323 11.032790953688808 0 0 0
127 1 5.699870041183396 9.714305785166916 4.344604009729366 0 0 0
128 2 6.063155809911536 8.787426132271998 4.504599381437973 0 0 0
129 2 6.345063303510712 10.10670005627866 3.7715554900110706 0 0 0
130 1 8.240530819058463 11.950212286056388 10.830694765475016 0 0 0
79 1 3.6676321775013543 7.97103849357381 0.7198644108131009 0 0 0
132 2 9.001620431639418 12.238779667511745 10.279326396256414 0 0 0
145 1 6.906828725897997 2.332760082748912 5.509421749262435 0 0 0
146 2 6.483769796264454 3.203608083244088 5.570176199547367 0 0 0
147 2 7.286852854071363 2.309569223879735 4.6517169982867745 0 0 0
148 1 9.07955414980785 3.707802776330919 11.726012390733885 0 0 0
149 2 8.797475853145572 4.56932372896273 12.021049135842997 0 0 0
150 2 9.79383193543187 3.4519250925283633 12.310218307550011 0 0 0
151 1 9.266267682011426 9.131407260691091 5.02703839150409 0 0 0
152 2 8.750616235220212 9.908649459925195 5.320030218034764 0 0 0
153 2 10.02308430811994 9.043762414091221 5.64276842636015 0 0 0
154 1 12.118328743737026 10.894260973381625 11.971096372727812 0 0 0
155 2 11.538115073993733 11.661341543267076 12.188382583596667 0 0 0
156 2 12.476890957520315 11.062574335444847 11.108053911306136 0 0 0
169 1 9.23081980843655 4.378695280222519 6.033062982227004 0 0 0
170 2 8.50951727795647 4.580101756864055 5.348471841340644 0 0 0
171 2 8.76516055546595 3.8503493907069615 6.7509779410962105 0 0 0
172 1 11.271091997999214 5.5893958587701755 13.085612612621954 0 0 0
173 2 11.799629766040402 5.194366236074789 12.38288362214329 0 0 0
174 2 11.874272266495817 6.305009392454631 13.410650057219874 0 0 0
175 1 11.476904213669497 11.439770122216494 6.144301918588816 0 0 0
176 2 11.211483894095343 10.921797281352116 6.910788778652526 0 0 0
177 2 12.160516383920006 10.889060928799934 5.729226966679571 0 0 0
178 1 14.15277637346517 13.12804480738189 12.952110600040523 0 0 0
179 2 13.378110427447035 13.367381584545656 12.364384779470647 0 0 0
180 2 14.826543530859276 12.778827224901594 12.34161077411953 0 0 0
193 1 8.35103726129826 2.443850133194746 3.0015357167691725 0 0 0
84 2 5.637402979713554 9.27122587303802 7.18316171655401 0 0 0
195 2 8.227739423506325 3.2665851242278525 2.5058271069959765 0 0 0
196 1 10.885224447475133 4.218419132156977 9.40435631192633 0 0 0
197 2 10.286367956301827 3.855074338121905 10.081676589459143 0 0 0
198 2 10.580461331522587 5.08974415536189 9.173947639216774 0 0 0
199 1 10.888226192192528 9.794448883664023 2.8556266849722873 0 0 0
200 2 10.665344191192798 10.691564969166034 2.4950548279502347 0 0 0
201 2 10.316200829389762 9.554558346121093 3.6340497169157286 0 0 0
202 1 13.401714496198135 11.157722896635255 9.58319836893087 0 0 0
203 2 13.29327689189981 11.904508832380506 8.929771872994824 0 0 0
270 2 12.982430326473214 8.152751882149246 9.994551450631954 0 0 0
217 1 5.465339658070007 1.0819095411560022 2.16271952106636 0 0 0
218 2 11.139730953366056 14.4371146305288 2.368199914938008 0 -1 0
219 2 5.724020221105818 1.417273814420252 1.2665344157105654 0 0 0
220 1 8.190852617306792 3.0448624956352934 8.276336719427846 0 0 0
221 2 8.10703101341207 3.920546659703209 8.843920182445762 0 0 0
222 2 7.299295663790514 2.6555384981625587 8.24028433365693 0 0 0
223 1 8.118442602599357 8.242871231470232 2.0628052391328313 0 0 0
224 2 8.717812280178077 7.507886971492473 2.429841179004752 0 0 0
225 2 8.412787783722093 8.495862692780324 1.1450252887534214 0 0 0
226 1 10.525647677497034 9.897419349079543 8.29468116416847 0 0 0
227 2 11.236759938018153 9.27753338931534 8.602055915120948 0 0 0
228 2 9.715702515538652 9.309502505493013 8.423347494489834 0 0 0
241 1 7.591348915177874 4.462483149248639 0.8398805261377662 0 0 0
242 2 8.29466872076133 5.039652413349816 0.6456489119782414 0 0 0
243 2 6.878098379339909 5.0478424075233255 1.1105367020139354 0 0 0
244 1 9.994444133896963 6.4425215896574635 7.799815322936258 0 0 0
245 2 9.210628003677646 6.94406403615951 8.081948838107742 0 0 0
246 2 9.7516492477874 5.752806159807411 7.15515225403585 0 0 0
247 1 9.807527790954257 11.656191573257189 1.1194484611055637 0 0 0
248 2 10.360609119524717 12.212001642495743 0.5379942369133907 0 0 0
249 2 9.604984903640077 10.892360193879396 0.49114222754132564 0 0 0
250 1 12.747270016957668 13.162079869323838 7.615979166615161 0 0 0
251 2 13.60706656799764 13.641701091080739 7.372586555678379 0 0 0
252 2 12.395628536591788 12.601385089507785 6.901706213226823 0 0 0
276 2 14.99698047290195 14.594245047998855 9.054459504655531 0 0 0
288 2 7.860881146196181 13.904634978123225 8.45477134106767 1 0 0
267 2 9.037436914586262 5.624346508523758 3.236671201199732 0 0 0
268 1 12.406045734203053 7.79575087467877 9.25041090515314 0 0 0
269 2 11.636649520804387 7.368871155386714 9.678174098815179 0 0 0
366 2 9.25032000246529 10.286870578531934 11.663478983762248 0 0 0
271 1 12.351164052537783 13.122850138114178 2.6006446016555524 0 0 0
272 2 11.6912136749149 12.6603546048636 3.083568035580743 0 0 0
194 2 8.312016132656353 1.8164038397175142 2.2700287529536998 0 0 0
274 1 14.56921071322503 15.138492823126818 9.653106972961897 0 0 0
275 2 14.082461956940444 15.801081812471987 9.117614337743415 0 0 0
369 2 10.690486182251634 15.154320401953902 5.4660470459753 0 0 0
289 1 5.84063163437856 6.537907180317858 1.6934411514738406 0 0 0
290 2 6.645929887843483 7.056217695442416 1.6465032614130175 0 0 0
291 2 5.493016316564277 6.570138374664657 2.611427040771223 0 0 0
292 1 8.336630398172051 8.284831579344704 8.7409520463916 0 0 0
293 2 7.670992420385752 8.658971352706715 8.16250437886197 0 0 0
294 2 7.825389756207367 8.345690670549228 9.602373479041264 0 0 0
295 1 8.28213203038838 13.766578569848237 1.8302858638514141 0 0 0
296 2 8.753929521193902 12.96714480136331 1.4818661906904358 0 0 0
297 2 9.099292746398845 14.365408435010059 1.9318609672341926 0 0 0
298 1 11.04077167424792 15.28466981166701 8.250549574748831 0 0 0
299 2 10.96416285546494 15.073074222831835 9.189025815958962 0 0 0
300 2 11.692825166862882 14.619834835397452 7.9031204626899765 0 0 0
313 1 3.6564272909104654 4.409853798202356 0.6455297340530515 0 0 0
314 2 8.981834095578646 8.678796771749152 13.522735500528647 0 0 -1
315 2 2.997678258165066 4.860748965799528 1.2471030082256076 0 0 0
316 1 6.163639789571849 6.645751006363398 7.648982815023327 0 0 0
317 2 5.697212660915924 5.8055379357111265 7.410131480379295 0 0 0
318 2 6.840591005846795 6.43053291287666 8.335727665236364 0 0 0
319 1 5.977589341542833 11.706916772086123 0.8638566955389672 0 0 0
320 2 6.676570582520457 11.507233745351904 1.5905998335071438 0 0 0
321 2 6.4276357349420055 12.309007079810472 0.18438625581954562 0 0 0
322 1 9.137401945295691 13.098120484538487 7.421663353436985 0 0 0
323 2 9.378782548111532 13.801179135207631 6.8041654887710425 0 0 0
324 2 8.632215457817205 12.449925306931053 6.793039799477044 0 0 0
337 1 4.443613851564961 6.550808366001866 4.273286883106199 0 0 0
265 1 9.661640131943132 6.192915160863563 2.7612799222808877 0 0 0
45 2 7.087440634166589 14.686179990388439 5.49740612225092 1 0 0
340 1 6.940364959708592 8.04772043200885 11.025467468517855 0 0 0
364 1 9.706159610573977 9.527702204070131 12.070193773621828 0 0 0
342 2 6.9664069297430125 7.360538319603643 11.684160086796199 0 0 0
343 1 6.813998262853938 13.372992839466 4.173192710768502 0 0 0
131 2 7.486445180233082 11.817123115373056 10.242557415696712 0 0 0
345 2 7.37199336467739 13.284817826129471 3.3674505799022603 0 0 0
346 1 9.450784305603378 14.939566918368206 11.021626796336237 0 0 0
347 2 9.717883443559204 14.167021918945682 11.612727777886986 0 0 0
363 2 7.915526179398011 7.889230616006087 5.262109944382719 0 0 0
361 1 7.022129459563806 7.493796207343361 5.23965688815975 0 0 0
362 2 6.774983522076267 7.1777378315087015 6.17792986845901 0 0 0
348 2 8.777238063982178 14.748224623431852 10.35298343047939 0 0 0
341 2 7.045547062667675 8.870948801459326 11.53617779963506 0 0 0
204 2 13.388940698546605 10.339134304309354 9.062824714856118 0 0 0
30 2 14.757806697582199 10.5130309470252 13.552615033128129 0 0 0
32 2 14.927220971117249 15.627809480666318 6.793877192195373 0 0 0
35 2 17.237144942805696 17.38236179652295 13.50440169379111 0 0 0
26 2 12.348703772384871 8.648894226275056 6.632444388166576 0 0 0
83 2 6.249169100325977 10.285822880262337 8.219691747660011 0 0 0
339 2 3.6040283483503215 6.718939377089384 3.8422295531986945 0 0 0
360 2 15.981611515132151 15.13371285000556 10.685423664515355 0 0 0
13 1 14.82970156860804 5.177135288888187 4.0406829824756825 0 0 0
14 2 13.90319041562964 4.847937433215309 3.932219519330547 0 0 0
15 2 15.376532022485582 4.715835774669568 4.727037578651988 0 0 0
16 1 17.13882890448404 7.167509679074381 10.853613058001491 0 0 0
17 2 16.524610576117528 6.532139302095517 10.352118528429926 0 0 0
18 2 18.00796477623395 7.227015645423112 10.408873386677005 0 0 0
19 1 17.539239130755117 12.255236207978498 4.186080360399147 0 0 0
20 2 18.328052172589363 12.534361442310683 3.5237176168652895 0 0 0
21 2 16.931287449015432 11.828509118320016 3.5682540826634273 0 0 0
22 1 20.06307089377157 14.01458252217881 10.634806054111685 0 0 0
23 2 20.85712038938779 14.058998739361535 10.030025831987906 0 0 0
24 2 20.481086305661226 13.80971784019075 11.497997098150137 0 0 0
344 2 20.853802358312393 13.481984717687236 3.794217238080315 -1 0 0
38 2 18.399983023013643 8.693340948594695 5.923505110313129 0 0 0
141 2 12.3596573328822 10.053192538932155 3.591377983260064 0 0 0
40 1 21.671688868223214 10.185179116754346 12.863533884309208 0 0 0
138 2 12.347661818256075 4.398098642788621 10.491099806730363 0 0 0
42 2 21.060998560401718 10.573202732840551 12.226152851325478 0 0 0
43 1 21.724194895015707 15.064896002742783 6.328970226138726 0 0 0
44 2 15.982546323427835 1.6231396595292287 5.993559893514639 0 1 0
384 2 19.83765502663929 15.730167742138347 11.339008493875221 0 0 0
46 1 24.132229973081856 16.995286008992544 12.655620182900556 0 0 0
383 2 19.484533330268672 16.09841555717802 12.81441058429697 0 0 0
375 2 14.65444420589748 7.330397144359687 6.005201038902169 0 0 0
61 1 12.750360763268775 3.5129474590349146 2.881826883265444 0 0 0
62 2 12.016068715763456 3.2953160888800994 3.506918323057415 0 0 0
63 2 12.316688709171013 4.0523431844944655 2.1991508511414453 0 0 0
64 1 15.138574350349572 5.484244268713709 9.624192685246463 0 0 0
65 2 14.691597039695353 5.944036311792984 8.876646870935271 0 0 0
66 2 14.422378603590976 5.509069515110077 10.316033764151996 0 0 0
67 1 15.667490183620025 11.027155059363745 2.7469145679391547 0 0 0
68 2 15.857195715029883 10.118746973245477 2.464560773036904 0 0 0
69 2 14.866597696358525 10.941523712700315 3.3505561311020493 0 0 0
70 1 17.74322413302319 12.753408928230108 9.64280246096615 0 0 0
71 2 18.67709120149567 13.073591584945206 9.966187204953458 0 0 0
72 2 17.93002712358458 11.863964332527528 9.453145608720869 0 0 0
85 1 8.704006243608879 0.6055494562266546 0.8387761007853863 0 0 0
86 2 14.669090526237584 14.340195837539834 1.1879912454339743 0 -1 0
87 2 9.04625577991586 1.2688942924024393 0.22036713371239475 0 0 0
88 1 11.276206415325719 2.5487431213710474 7.493651128080826 0 0 0
382 1 19.654462285701236 16.531555319305898 11.89697779655892 0 0 0
90 2 12.11307373681512 2.0749057327617066 7.715184832314278 0 0 0
91 1 11.135280921015454 7.994763773590276 0.7890714975248773 0 0 0
92 2 11.973101826712808 7.518919782683956 0.9848510665908232 0 0 0
381 2 17.286002545193284 13.684373218146128 4.98722311635317 0 0 0
94 1 13.652463935978204 9.489508875126047 7.2789311045437985 0 0 0
95 2 14.294195261446989 8.913848200236016 7.774616577912278 0 0 0
96 2 14.177917092459284 10.109651921904998 6.735452689035639 0 0 0
109 1 12.707641709197755 4.400536570611386 6.129038309784704 0 0 0
110 2 12.042790383998051 3.907638455786455 6.6826319618923655 0 0 0
111 2 13.426049954352791 3.7204307673297197 5.971234313016098 0 0 0
112 1 15.00458765327112 6.061883596818005 12.696009210050947 0 0 0
113 2 15.538098694513979 5.26033598584843 12.54412774208738 0 0 0
114 2 15.446040332515528 6.511891549290651 13.440469130933762 0 0 0
115 1 15.28833708425602 11.405704728677351 6.098789239164714 0 0 0
116 2 14.824698294783799 11.900070286408358 5.362107340149917 0 0 0
117 2 15.556944352127207 12.116057416933264 6.716328464729295 0 0 0
118 1 17.860890481532152 13.321964750738776 12.681085907336046 0 0 0
119 2 18.47295151925478 14.008678701593057 13.115197946556062 0 0 0
120 2 17.26806756772229 12.929445443009925 13.330662495371316 0 0 0
133 1 10.827363649979311 2.588400015011817 4.370319942462111 0 0 0
37 1 19.175677958728105 8.250960185016368 6.318090695093432 0 0 0
134 2 10.411601323536619 3.2830632689028523 5.017920568687394 0 0 0
136 1 12.974217841250718 4.4313937222062405 11.266757619951125 0 0 0
137 2 13.35737704009398 3.5328869747628855 11.36241800310608 0 0 0
75 2 15.683106199859392 1.4650099248361825 1.3941137737483007 -1 0 0
139 1 13.14821625212774 10.14512293263423 4.262809152187677 0 0 0
140 2 13.400929777310992 9.192675845084052 4.303634224791075 0 0 0
377 2 17.220156592372202 8.637241215422394 11.66657535638596 0 0 0
142 1 15.715938460851962 11.630520434409947 11.171451916194265 0 0 0
143 2 16.504203840628335 11.985508900853064 10.79739474370646 0 0 0
378 2 16.658156685088972 10.081476938149018 12.156235664893941 0 0 0
157 1 14.468055956334851 2.238915250324028 5.318595928949865 0 0 0
158 2 13.76550845779479 1.5745564185085754 5.4044388769866805 0 0 0
159 2 14.693732784228926 2.2525363932906473 4.375681587202856 0 0 0
160 1 16.635524354817843 4.048531803999318 12.015270593617112 0 0 0
161 2 15.931776578300063 3.4153458820898783 11.89084999995914 0 0 0
162 2 17.427432334992297 3.5531826334715366 12.284573131965352 0 0 0
163 1 16.87921797304684 9.359164065305894 5.081805392876846 0 0 0
164 2 16.29849152421745 8.648114188884978 5.14551134285307 0 0 0
165 2 16.54763746713276 10.086336131428043 5.624464958353561 0 0 0
166 1 19.487235458958054 11.102646620339664 11.594925031598365 0 0 0
167 2 18.830427360041075 10.4278531687747 11.883807401452954 0 0 0
168 2 19.127404374076622 11.94142317779384 11.872158214256974 0 0 0
181 1 16.232790437399377 4.1709643822625955 6.098419048995169 0 0 0
182 2 15.95036013233886 3.7265895844124257 6.928919042768626 0 0 0
183 2 16.69501670494252 4.977451143380029 6.433722626181188 0 0 0
184 1 19.18740435957294 6.217298417441553 12.378107872495903 0 0 0
185 2 19.771238612188373 5.561423335506064 11.938302675924655 0 0 0
186 2 18.302829499684776 6.169121012626962 11.973555000111721 0 0 0
187 1 19.058899154568138 11.204241195983878 6.052089324152269 0 0 0
188 2 19.786150442437517 10.74465740339197 5.576655078028507 0 0 0
189 2 18.441601609294903 11.50405677750797 5.36821496347959 0 0 0
190 1 21.565104957258256 13.325179368144402 12.670884312127143 0 0 0
191 2 22.098318724545674 12.860818034651729 11.978569733443813 0 0 0
192 2 22.14549621791251 14.01509814258476 13.077504720634902 0 0 0
205 1 15.782771291468952 2.4759249548775517 2.816156748233566 0 0 0
206 2 16.638235653170174 2.677515493795651 3.2345557886682927 0 0 0
207 2 15.350302346775191 3.3299365468606923 2.5397933396023724 0 0 0
208 1 18.056168167851666 4.588936902258498 9.4796796250193 0 0 0
39 2 18.808335113965175 7.5387077184969655 6.842430619326663 0 0 0
210 2 17.528433770374367 4.402933129616415 10.278630385543677 0 0 0
211 1 18.352893639903627 9.760088821589866 2.7625614291480862 0 0 0
356 2 14.307687459651921 13.88876414238066 5.170751117343546 0 0 0
213 2 17.611764419421746 9.683922119196588 3.4208327291000438 0 0 0
214 1 21.018449598768754 11.49784991261299 9.310056195434992 0 0 0
215 2 20.25424120491347 11.324366526355238 9.86739468392428 0 0 0
216 2 20.713833314653982 12.241717800689662 8.703558149396782 0 0 0
229 1 13.091638289930163 1.3107039960884792 1.6467965088139556 0 0 0
230 2 12.996487047797716 2.1526543655979817 2.1537783245371798 0 0 0
231 2 13.182256933912816 1.537393994605751 0.7264918921929518 0 0 0
232 1 15.616774747592698 2.9936787869899324 8.496046600856623 0 0 0
233 2 15.340188702011215 3.785781442849871 9.000969339166918 0 0 0
234 2 14.820449937107878 2.417535060564218 8.337734300016301 0 0 0
235 1 15.583077871244527 8.71591051346039 1.7371956879047696 0 0 0
236 2 15.639153047094267 8.89610003882452 0.7927309188857455 0 0 0
237 2 14.681608910093567 8.350541310205676 1.8566422203767436 0 0 0
238 1 18.220639847819488 10.153973714850585 8.683807421398472 0 0 0
239 2 18.732384652149147 9.45870976090193 9.111544549452086 0 0 0
240 2 18.669099123107955 10.211994182368302 7.7962975267212276 0 0 0
253 1 14.814611851162583 4.663249472223823 0.7199231276661606 0 0 0
254 2 15.377646560156004 5.332424143407491 0.25487788674697553 0 0 0
255 2 19.846575692641064 7.469940040293196 13.536711952845124 0 0 -1
256 1 17.516979726900185 6.417370613479638 7.604374306839782 0 0 0
257 2 16.697386832771258 6.906975459997762 7.829555998005111 0 0 0
258 2 17.721446062296216 5.92832780552002 8.432262151438035 0 0 0
259 1 17.518999295196387 11.757975527630862 0.5608293593105314 0 0 0
260 2 18.21505673063914 12.396325217778614 0.1701643495084792 0 0 0
261 2 17.98707077522622 11.360035604432694 1.2624264853186502 0 0 0
262 1 19.910488955070488 13.122844693311444 7.436132858344864 0 0 0
263 2 20.624640545502437 13.684524445260813 7.08475701303998 0 0 0
264 2 19.559215655330377 12.473827072365646 6.754741137964776 0 0 0
277 1 17.151628185925865 6.007030174140279 2.375182860605345 0 0 0
278 2 16.42755879329833 5.5711730975208065 2.8906595984604633 0 0 0
279 2 16.6813101641743 6.697446116793037 1.8514181682592792 0 0 0
280 1 19.528188802824417 7.967090195805106 9.688546627773324 0 0 0
374 2 14.77962253817283 6.773239337893277 4.56254682662852 0 0 0
41 2 22.270618826405165 10.844227786841612 13.307976793104526 0 0 0
283 1 19.338492243798417 13.184071663121204 2.463062964734337 0 0 0
284 2 19.001898348348153 14.055954357810435 2.0763418819454866 0 0 0
380 2 16.83639933589566 15.079681207456769 5.0611687947852015 0 0 0
286 1 22.45194560024396 14.508304923398928 9.169857832208091 0 0 0
287 2 22.184134000925233 15.319896504880372 8.76120420926602 0 0 0
379 1 17.45529428378565 14.485934574499625 5.5510425230534235 0 0 0
301 1 13.319754076096661 6.673198335285414 1.9206249040654282 0 0 0
302 2 13.964498058941164 6.098152480517766 1.5477263229739389 0 0 0
303 2 12.910678559612709 6.26656203042699 2.7182267819090766 0 0 0
304 1 15.833771464825979 8.62940162512011 8.434767319005934 0 0 0
305 2 15.526317693712645 8.4599660131033 9.34465869820366 0 0 0
306 2 16.479732932689824 9.356478077610518 8.47741022294643 0 0 0
307 1 16.137987163732358 13.87594494128567 2.069678906336621 0 0 0
308 2 16.864181725926027 14.57518811089879 1.8240190585529796 0 0 0
309 2 16.482850634863315 13.07567667428072 1.7324349512344814 0 0 0
310 1 18.583820038272243 15.361145079734031 8.485977068305555 0 0 0
311 2 18.841174954107025 14.571609364125356 7.967758905936857 0 0 0
312 2 18.0667266742052 15.139770983918027 9.262399344524493 0 0 0
325 1 11.14121520520416 4.629737134811528 0.9631700271491327 0 0 0
326 2 10.612002480880106 5.314961581495863 1.4074756229461682 0 0 0
327 2 11.719212433331098 5.132050309532937 0.35708534666513114 0 0 0
328 1 13.89680593138825 6.392307043954555 7.515554611603116 0 0 0
329 2 13.195567271429066 6.964987281047975 7.958998921987698 0 0 0
330 2 13.479987963278186 5.705955396111507 6.939885688806275 0 0 0
331 1 13.921994462349627 11.749382184128757 0.7364961640331674 0 0 0
332 2 13.38851081762215 12.401593779431721 1.2833031001054078 0 0 0
333 2 14.577601737799572 11.411410097658383 1.3819067016351785 0 0 0
334 1 16.125607068492126 13.403045315355982 7.851248104062726 0 0 0
335 2 16.763291806175445 13.221653025484546 8.518533614927469 0 0 0
336 2 16.614074450871026 13.964283066305946 7.2094245167084505 0 0 0
349 1 11.85107008389395 6.296350463092419 4.4454787587553515 0 0 0
209 2 17.828351418065363 3.9023927395402667 8.86476480289632 0 0 0
351 2 12.17566917240557 5.624758945094289 5.068343588163606 0 0 0
352 1 14.311264068695962 8.25370046291885 11.031515004312165 0 0 0
48 2 24.894000294676992 17.38267988893574 13.107794938158932 0 0 0
354 2 14.513099574197673 7.415232313013062 11.52477745024295 0 0 0
355 1 14.39300268260665 13.294287323277086 4.387445158436836 0 0 0
376 1 17.43459084514745 9.500667325269404 12.129340720760288 0 0 0
357 2 15.264285533697112 13.468384082047754 3.914668137895807 0 0 0
358 1 16.911662494982004 15.282919474851656 11.06983382694713 0 0 0
359 2 17.194867185765542 14.398091955468292 11.396528169857158 0 0 0
135 2 10.057356593148976 2.3559130366190475 3.820958074699241 0 0 0
373 1 14.839668130785006 7.615407055702626 5.075646925855163 0 0 0
144 2 15.249669082086815 11.122972905016374 10.46362080317608 0 0 0
353 2 14.44369795770973 8.994485715040563 11.743668628655104 0 0 0
350 2 11.762224691499588 7.158883417637199 4.974569222812934 0 0 0
281 2 20.283192936906904 8.053457042067643 10.364436804638459 0 0 0
282 2 19.818373936275815 7.565372550498775 8.8938014485495 0 0 0
285 2 20.021319984179915 12.7921378425204 1.8805975755987652 0 0 0
212 2 19.171651761256992 9.71041264999251 3.3834013273939902 0 0 0
81 2 18.280388061835932 8.476446336620759 1.5098059851835612 -1 0 0
89 2 11.083720880365231 3.059718693429395 8.277293837864086 0 0 0
123 2 17.48798310443765 3.337323690049511 5.058065085912442 -1 0 0
93 2 11.074739919195494 8.643240557341482 1.475130656763836 0 0 0

Velocities

1 4.560326477658785 0.6993897202106699 -4.092014230834226
2 -19.093345707782237 5.9040090014184194 15.102040197213114
3 4.65002807545836 -3.684285668303284 -14.500032036893009
4 -6.949702798127585 4.136805315668167 7.278785147599486
5 -15.629334431522013 -8.577174157505198 -0.905088004867385
6 -7.740662382313767 -6.975009335688148 -10.565029413365487
7 -3.3182411648394172 -1.0871650797145884 0.3770660007686768
8 7.945778819594975 9.816495124253944 2.662489232893305
9 15.600151143902071 17.94878377810323 2.46193796102274
10 -2.216255768260932 5.947738608998911 -3.963756275083484
11 -5.1526269920853105 1.7972522554643944 -10.341466206937241
12 -4.918459348109981 -16.832585528833253 8.30760763475139
25 3.641111217165106 -2.187941197404678 4.437101462191018
338 10.4132466714365 -7.728884145499981 -8.18715423808569
27 12.599635498559648 10.226771465480665 12.872585739683908
28 5.575619454605014 -2.9845394594926757 0.9837993076541042
29 3.1651868460162316 -2.4159998164624437 0.6639817802712109
125 4.819092701921873 -20.124338237180663 9.066299245368489
31 -3.916768171688905 -4.55867703040386 2.9836644490406
273 4.849366528011186 -12.93372380549846 -4.967124858338822
33 -15.678360191477223 6.2254945636055465 4.435885140376256
34 2.1284007182643836 6.111339103168989 2.798415728268163
365 12.706403632234053 3.2307844652251916 7.0101408799977305
372 17.314790072379814 -17.01719862958856 -3.490075094188573
49 -0.6622267693806895 -0.19425119947320216 -1.1539605214411903
50 -1.2687773156901776 10.8636843020022 2.149307653174306
51 2.084662254945196 -7.136319631701509 7.5595528287207685
52 0.06587878763871344 -2.1781332961479762 2.1718874213793384
53 3.4913615025388176 13.207685660261644 -11.914370613081616
54 8.219000559293494 15.471677644628699 -9.974283538183816
55 3.4524156454455976 0.8296766165897069 -5.239673000711554
56 4.705784456303377 23.72897094084094 -3.2929147565499903
57 -1.0729600005851587 6.748825489967025 5.286899575277828
58 0.5337584097015158 -3.116948866287391 1.0505016875945343
59 -12.285872845669953 -5.075432423597395 -5.919523323598786
60 -1.0171140374956709 -9.069097629022117 23.799336907232522
73 1.1530961961799044 -3.8787148493529315 0.12728005682289953
74 -15.70939522694735 -13.768510620141704 -1.3621165532988786
371 -5.480483647152889 9.740887902900074 2.166464831705372
76 4.386807911555872 -9.456099131055083 1.4027743746274748
367 0.5777765329989715 0.8346885253696712 -6.267977302050632
78 -0.6568782853084009 4.055885684484757 -31.890839038936438
266 -1.00966935594636 -13.958516009437018 15.892266141561148
80 10.370324324006017 20.330986723481498 4.843536881502825
370 -2.8093236313162975 -7.5985342763818995 -2.0806822885704954
82 0.14751963046694916 -0.2386419644406749 -2.633735327930382
368 -0.23064422047156588 16.66767445064821 -1.1969489583141677
77 -4.248867017699344 -2.459830299249706 -10.86301604500402
97 2.0574020275336755 0.4797041270065049 3.8171843590182766
98 -0.9827014082398217 -4.165875072887498 -6.828628892181639
99 -1.2565752785407698 0.9833758701324359 -18.628042806019653
100 4.88691604280185 -2.590928245842039 -2.9969813275313166
101 -6.961967255544362 3.1746833077931775 -6.327084438414038
102 -11.2272014647797 4.931137188371679 2.033063927883751
103 -1.3226811606719884 1.9908336530236954 -3.3240929327826843
104 12.460024812780839 8.645291362017355 -1.7394926359124756
105 -3.2052915390297105 6.904648553918555 5.850584335778278
106 6.535437993622559 1.7561147858762458 1.74639318985153
107 -8.663453595906839 -17.644355851369372 10.704984972197465
108 -6.407272679280573 2.7118699214397415 0.09880590173617389
121 -0.42811233616901156 -4.237468763726397 -2.484843124827679
122 3.3621999874228865 -16.827681904536497 -8.491906480541381
36 -10.976254262561207 1.8740735381692244 8.857218624097426
124 -0.08309980373592364 0.4362198495743598 -5.716153494850012