LAMMPS data file via write_data, version 8 Apr 2021, timestep = 0

768 atoms
2 atom types

-0.6205210737530513 30.563868017207994 xlo xhi
0 14.108887742609543 ylo yhi
0 13.49046075430415 zlo zhi
5.104970684392658 5.06761456864302 3.551375818530129 xy xz yz

Masses

1 16
2 2

Atoms # atomic

161 2 15.681331683797014 3.7409413835431993 11.243088234506361 0 0 0
287 2 22.356677989460746 14.448852434983802 8.675891988844187 0 0 0
295 1 7.25054982965672 4.542667465938851 5.335263105529985 0 1 -1
297 2 7.137982504026224 5.452067295213775 5.5518478046154085 0 1 -1
164 2 16.03850606994903 8.768416398427084 4.57394673591279 0 0 0
220 1 4.227918035040437 1.9179159723196808 1.065097810866596 0 -1 0
371 2 5.608563552852802 2.8994008521833403 3.331975094331022 0 1 1
374 2 4.4208469704294675 8.839173937449528 4.888626333925183 0 1 0
352 1 9.620935935161755 7.606507706253659 4.091341054007912 0 0 1
150 2 9.886417790683964 3.8726836263917175 3.2865160320067917 0 0 1
298 1 11.360217076991573 7.923602035487892 7.574323787915373 0 1 0
101 2 8.558660785559653 6.774787407323888 7.2378936111 0 0 0
60 2 7.561671258980915 1.7660206210967662 2.124668374756687 0 1 0
148 1 9.004571563057924 4.269962673252346 3.305374350000666 0 0 1
156 2 10.156288739123562 10.18423413629378 11.200009516502998 0 0 0
105 2 12.879211622045956 15.692044506220792 8.397481361418425 0 -1 -1
39 2 18.23367540160541 7.554702155795893 6.561907215788114 0 0 0
106 1 12.255660378267425 7.060039690336361 10.034124622410122 0 1 -1
162 2 17.097816817311298 3.792241849502621 11.80951222364044 0 0 0
180 2 6.944959187662828 12.137065366153823 8.360994008434519 0 -1 1
58 1 7.199610900855372 2.6099193077389504 2.2449442509889828 0 1 0
59 2 7.957648606886076 3.1192256181883677 2.5774770812741137 0 1 0
149 2 8.990303697741822 5.063712706986762 2.662268311916115 0 0 1
50 2 12.551831585920585 7.309680822420127 1.853316553098839 0 0 -1
48 2 19.1977099065506 3.5055360338269566 12.99720744872495 0 1 0
54 2 5.15812227764158 5.935240225068219 11.55939854139419 0 2 0
124 1 2.842228701434624 7.882103496211179 0.6864179742741332 0 -1 1
218 2 7.387099404632812 6.647451064203106 12.573034178044477 0 0 -1
351 2 11.832599460784134 4.950756721160633 2.0089185268661787 0 0 0
127 1 1.9301614311351547 3.900973026607828 1.3198203754686848 0 1 -1
167 2 18.829460138237092 10.431719947669084 11.388902468487938 0 0 0
170 2 4.503931745145831 3.638550683404666 6.520923516468054 0 -1 0
353 2 8.825562249184184 7.855137871892465 4.602167282724197 0 0 1
219 2 8.459728939655166 5.745436591094245 12.939318055611572 0 0 -1
61 1 9.506672109732913 3.226690132548707 7.021964988477152 0 0 0
315 2 4.313503745701954 6.345193754288582 3.0084983320563046 0 0 0
92 2 3.09066325272963 4.697286914293493 0.3680485090575968 0 0 0
324 2 12.856821228527325 16.89027477018643 13.383916024068316 0 0 -2
65 2 14.604623027987133 6.057338279617754 8.644370444744535 0 0 0
233 2 15.445396405044052 3.9486365261526846 8.752269017185467 0 0 0
217 1 7.932514597406003 5.968054894744747 12.160417624210956 0 0 -1
257 2 16.459297059800654 6.680405215970463 7.532164565723423 0 0 0
38 2 18.129966683883495 8.88832690604472 5.834386434432424 0 0 0
94 1 14.750846128216848 7.255754454502581 7.30982825352517 0 0 0
225 2 10.786760919097183 13.634435483483003 4.098038184105877 0 0 0
373 1 4.326672376296887 9.704121230537707 4.448797155899233 0 1 0
372 2 4.403161144994263 3.671088879217415 2.6719209653855476 0 1 1
274 1 2.576121142055195 1.464116689334874 3.6018280919166 0 0 1
140 2 5.351982667965684 6.94062327239144 6.1798599462542825 0 -1 1
100 1 8.64186048308227 5.925697334197107 7.709476478899764 0 0 0
63 2 9.937646119154602 2.703423397758298 6.307218887754954 0 0 0
74 2 5.294078400764441 11.930887404133774 0.24436451118597782 0 -1 0
222 2 3.9561328955767014 1.52578325526239 1.8802040434269165 0 -1 0
64 1 15.049296206726797 5.690610373045241 9.434226369384938 0 0 0
111 2 12.47488105936661 13.82325709764601 2.386994802174894 0 -1 1
13 1 14.47205357223348 7.398622597126973 4.463079297061055 0 0 0
62 2 8.760557121141105 3.7514308254675193 6.663868732293867 0 0 0
332 2 15.857107417333191 7.951652734125648 12.056782690299112 0 0 -1
275 2 6.954348773744977 14.931788639490987 3.786532177703242 0 -1 1
250 1 8.07582412912732 3.188938922663644 11.364806504631812 0 1 0
368 2 7.114529102974787 5.243175627773254 8.471063533965067 0 1 -1
102 2 9.150286831029609 6.073686488066979 8.527744549172464 0 0 0
349 1 12.02368731280617 5.449648279843607 1.186512295416324 0 0 0
81 2 13.648138390176985 9.727114439524541 10.623348358273038 0 0 -2
85 1 12.910576587586922 8.707368542812048 11.99403711282151 0 -1 0
302 2 10.891001238786775 4.62574005369579 7.169480376775682 0 0 -1
301 1 11.615144565527746 5.130461722304106 7.580498278595244 0 0 -1
103 1 13.439453629505204 16.126720788085866 9.056741691813189 0 -1 -1
6 2 12.267797053486843 3.8980985537751 3.972834962397128 0 -1 0
303 2 11.4142148315713 6.051335133478577 7.77115996323276 0 0 -1
305 2 16.241751292546343 9.94605518321515 8.3204178759482 0 0 0
239 2 18.374434266682727 9.607147136183743 8.769671911925542 0 0 0
293 2 8.185750665558691 10.603571595523832 10.419104097182673 0 0 1
333 2 11.01454450009591 4.549983263382034 0.03865579069403143 0 0 0
346 1 10.294791500160452 14.764152991667896 9.782096155927016 0 0 0
110 2 12.687305028891329 14.326540735883352 0.9818752740129177 0 -1 1
331 1 15.453169587386684 7.728924388836363 12.883302099252674 0 0 -1
9 2 12.07332291018573 4.363630750713688 8.926359419606813 0 0 -1
4 1 11.702227752994215 3.7046759811570094 3.1790670804733407 0 -1 0
8 2 12.669508038892584 2.877582307994636 8.966329456998434 0 0 -1
5 2 12.063089160188108 2.940223970042831 2.7304052142723596 0 -1 0
7 1 12.52371940833022 3.661423872334949 9.515598209648962 0 0 -1
377 2 17.2486055213718 8.992791641446239 11.089226011505497 0 0 0
112 1 13.776523650722652 5.525917198228157 12.446844497498867 0 0 0
304 1 15.336441417456262 9.672445860292493 8.141223866085848 0 0 0
367 1 6.463420692496989 4.548920949031302 8.715843347390328 0 1 -1
350 2 12.934370980292048 5.133931111536001 1.0683295246908049 0 0 0
113 2 14.245291866817762 4.741517170525337 12.702177246444721 0 0 0
376 1 17.640585482862964 9.524396782885221 11.82733840381954 0 0 0
114 2 14.239572532170893 6.239284290809297 12.908818216724352 0 0 0
66 2 14.39608920490035 5.7480943464857726 10.153462058557334 0 0 0
14 2 14.17630822938069 6.462983062750451 4.4903166732270545 0 0 0
296 2 7.80783912289367 4.468924554506719 4.534925769828919 0 1 -1
369 2 6.710700402908081 3.759136560151605 8.165981921914046 0 1 -1
280 1 19.27349278944952 8.234458696203946 9.625815211792654 0 0 0
109 1 13.214369158013776 14.163013150553166 1.8404666323452685 0 -1 1
87 2 12.742400920168006 8.06903368556684 11.232806545971743 0 -1 0
184 1 18.611900434455375 6.411027827602581 12.719538620184673 0 0 0
277 1 16.94942772627732 6.230603141955889 2.7835675372751285 0 0 0
93 2 4.628015487455848 4.84852853337288 0.10563025009355008 0 0 0
15 2 13.601926666951192 7.867919891431603 4.3720583304011225 0 0 0
299 2 11.66552662690488 8.132793172119406 6.68740867073487 0 1 0
107 2 12.40636865242985 7.470629057037358 9.148284245115562 0 1 -1
160 1 16.4550790875572 4.385514931524357 11.378265421377947 0 0 0
17 2 16.296847761052447 6.738140015125166 9.936672280608628 0 0 0
37 1 18.7922531709535 8.251491254723021 6.187471492785414 0 0 0
18 2 17.756690741391743 7.393500011724595 10.160615062934205 0 0 0
231 2 12.982691410697576 1.8987921498127935 0.6045193506995447 0 0 0
104 2 8.940922419835564 2.445519831141819 8.469718444297442 0 0 -1
205 1 15.245865733297371 3.0075615301175 2.6109477918736026 0 0 0
210 2 17.52089566118888 4.408478980763 9.928325519990564 0 0 0
186 2 17.762737296616702 6.73282315073088 12.328613490502596 0 0 0
232 1 15.737738474233987 3.1260768180890097 8.251221227132314 0 0 0
354 2 9.340160307387888 7.367849412701531 3.1768237607311867 0 0 1
2 2 5.236215782906754 10.777844685795863 1.8314891267847664 0 0 -1
183 2 16.627132663825982 5.077772555164274 6.173922643488332 0 0 0
40 1 21.08942694514147 10.290440974942232 13.136068304135302 0 0 0
207 2 15.18786578368181 3.6144704160434364 1.8445000949862005 0 0 0
208 1 18.219475267182467 4.574476504760651 9.261617251402313 0 0 0
279 2 16.36501463499485 6.982912955956359 2.7154570021520024 0 0 0
254 2 14.904589532315306 5.546605982694353 0.34539774404021045 0 0 0
181 1 16.309612655275487 4.224526349900448 5.868209886988165 0 0 0
182 2 16.370375820216385 3.811904357130285 6.785003411876109 0 0 0
256 1 17.27328734567498 6.182028244075156 7.299903938107057 0 0 0
255 2 14.208598467947908 4.067799059593769 0.031402688778882644 0 0 0
253 1 14.65245242219591 4.6818127860062955 0.6827917029758359 0 0 0
157 1 13.961230580410186 2.0175568617174857 4.495080410718904 0 0 0
185 2 19.02282623745765 5.831511155399926 12.004107070675149 0 0 0
278 2 16.38711359247206 5.6118987831327445 3.2601357863667495 0 0 0
159 2 14.4377567437297 2.404648747685248 3.703054717363223 0 0 0
16 1 16.818960280500765 7.440706992484717 10.407409251221697 0 0 0
258 2 17.60394491885334 5.717211549991948 8.098173000575141 0 0 0
370 1 4.918771456527656 3.5286309164494933 3.521438232724432 0 1 1
80 2 13.700033193181918 11.15821298638538 10.127658180321435 0 0 -2
306 2 14.967790926639676 9.742608434247288 9.066856684075058 0 0 0
79 1 14.282508506127986 10.39297578905709 10.396755673962032 0 0 -2
246 2 7.119477917646233 9.861443617124655 5.605542860978138 0 0 0
108 2 11.299775090910748 6.887955342489926 10.043383560576732 0 1 -1
300 2 10.511409901184418 8.49046180187991 7.700319885383397 0 1 0
221 2 4.974726215376725 1.3767484535691605 0.7749562532399884 0 -1 0
348 2 10.350854173478927 15.767029565299099 9.900956069584822 0 0 0
251 2 7.8797045240620704 4.1271858452621615 11.188030870212208 0 1 0
139 1 5.950263492202172 7.203802833474638 5.485280923741231 0 -1 1
276 2 2.2990913436401046 2.287377304752397 3.9966699668225214 0 0 1
313 1 5.293284447257415 6.327020200033555 2.7931458082944527 0 0 0
252 2 7.8903602728435445 2.8458275420690406 10.4451451166242 0 1 0
91 1 8.788780298486536 8.834680161403242 13.352200953259825 0 0 -1
195 2 12.834809080197507 4.773318385356681 5.976882214344778 0 0 0
229 1 12.680933924404439 1.5711599476867062 1.5262306685827645 0 0 0
194 2 14.107957064360749 4.330960150036072 5.2568224816970694 0 0 0
193 1 13.279268607241208 4.734152100283316 5.084922977618915 0 0 0
141 2 5.67782442844239 6.814646734103542 4.629835856435558 0 -1 1
234 2 14.9768033890828 2.6787917029217345 7.793153463221337 0 0 0
96 2 14.776551643345222 7.232817449362832 6.285317072562942 0 0 0
34 1 11.56440152399952 4.33836054606574 13.3974725145872 0 1 0
380 2 11.623720498369872 2.227203206459646 4.873088155692621 0 1 0
158 2 13.638967438783949 1.1429746317928682 4.2727896986951865 0 0 0
41 2 21.864046907454256 10.87037428215011 13.254973876056642 0 0 0
35 2 11.448144689067222 3.670484593278355 12.64933948926729 0 1 0
267 2 14.092987818231563 14.063293345994273 3.570152191615551 0 -1 0
266 2 15.396000839836544 13.311689638469069 4.045438589617529 0 -1 0
243 2 7.216223193580495 12.288324033248317 11.445170077530737 0 1 0
86 2 13.755374279712571 8.346137442222783 12.279305985025603 0 -1 0
226 1 11.945690701575172 8.64845344450484 5.052008156925268 0 0 1
77 2 9.193548529832581 12.297244012769038 9.309691039022583 0 0 0
227 2 12.16798531176811 9.557673229575787 4.787847483494689 0 0 1
82 1 11.103250799674948 11.68122700956516 11.91778919097292 0 -1 -1
166 1 19.409026825181826 11.280060363717217 11.401540307603828 0 0 0
228 2 11.274130293814434 8.180448077420419 4.490827496336539 0 0 1
330 2 10.57120963537443 10.467638712909618 1.8935366685436401 0 0 1
125 2 3.1258429144076656 6.962015333777939 0.6959116618823784 0 -1 1
178 1 6.709668371439204 12.760479218905497 7.611175569867484 0 -1 1
120 2 18.144169844580627 13.596503735146001 13.147839125692448 0 0 0
176 2 11.672602169175189 14.352984309274015 12.992166496649114 0 -1 -1
25 1 0.7147876986938926 1.1080500059616727 0.934349890851069 0 0 0
270 2 6.412048113384676 3.3006893927380108 5.979508698399201 0 1 -1
118 1 17.799859637970393 12.712059112077114 12.912105251079906 0 0 0
322 1 8.127550099025319 13.572822501761301 0.7367468331750561 0 0 -1
238 1 17.94579979256116 10.447991750649814 8.530951600884974 0 0 0
44 2 15.928196743999434 1.8641448813574553 5.5972083930786365 0 1 0
196 1 18.374312881155543 15.19313538789393 13.487294244529195 0 -1 -1
83 2 11.85021976603553 12.118426390589034 11.35036471471172 0 -1 -1
290 2 8.069303592766664 6.783125275596041 1.3310093086958796 0 0 0
334 1 16.023238442830124 13.676561427185636 7.40424769397417 0 0 0
285 2 18.605513385651367 14.163795480732647 2.2779005654584954 0 0 0
52 1 4.850751534279528 5.156588117660697 12.07072751577387 0 2 0
147 2 13.946304236751589 13.940179538966554 12.922685799408235 0 -1 1
364 1 6.512932954156158 7.825871432539727 1.0471413878245688 0 0 1
320 2 9.18756055417393 10.13079030822647 8.202973698228478 0 0 0
344 2 13.58401084881455 13.8753537974039 6.057021756321922 0 0 0
1 1 5.759477797363893 10.113688738067328 2.29020076405301 0 0 -1
288 2 21.742796967918427 15.921414848238953 8.805398540882239 0 0 0
212 2 19.11310677417842 9.943480839245424 2.9495155743325925 0 0 0
282 2 19.550607877314672 7.584557846112726 8.954828312188464 0 0 0
56 2 10.041621899245134 12.638814467541941 0.7015112112365764 0 0 0
168 2 18.81366033535586 11.924479804973426 11.89975118384345 0 0 0
245 2 7.041849189067909 8.3566488164463 5.3757071981430355 0 0 0
145 1 13.176825362232263 13.90640028869552 13.44969136993012 0 -1 1
57 2 11.499698891245448 11.972910111180427 0.626735388572264 0 0 0
328 1 10.59437418850137 9.625596828083147 2.3677078060593666 0 0 1
199 1 9.582055754286602 10.980161216748407 4.494903440584747 0 0 1
28 1 9.858473895240754 14.721528803324622 5.062624423244372 0 0 1
336 2 16.36962099178003 14.485913384971688 6.975963604192888 0 0 0
366 2 5.860887472355614 7.227926994344847 1.5006460435718794 0 0 1
206 2 16.121128934422643 3.046719575105113 2.99899474291153 0 0 0
224 2 10.91050703842252 12.635644956362494 2.726891986340798 0 0 0
55 1 10.68378787092228 12.000925721330681 1.1859185745192862 0 0 0
216 2 20.71332799591353 12.18613535857933 8.751491274847961 0 0 0
329 2 10.282502271532282 9.956847231957601 3.304540707489587 0 0 1
33 2 9.302187600099689 7.70809190751075 10.149989837903203 0 0 1
312 2 13.475326235744255 1.7255752470054768 6.505624808785956 0 1 0
335 2 16.58079091809407 13.471460778862546 8.16473750467952 0 0 0
97 1 13.175102971822415 11.161569592351789 4.381265813666172 0 -2 0
268 1 5.99527548938382 2.6318171272174307 6.548532229639679 0 1 -1
98 2 12.585918074624164 11.873114009193715 4.054667569187811 0 -2 0
310 1 18.76854558551782 15.761054386258266 7.421784753651309 0 0 0
273 2 13.641761629930135 13.49858226168956 10.412965571512471 0 -1 0
197 2 13.960863292627824 11.672948217100302 0.6517916361350112 0 -1 0
292 1 7.409837144066106 11.218641635056944 10.174157077271131 0 0 1
345 2 14.11780164750002 13.821603867842462 7.464871839853493 0 0 0
319 1 8.895714314870832 9.231743128580778 7.965035199576563 0 0 0
272 2 12.60669250479015 13.003066999046645 9.392810603508382 0 -1 0
264 2 19.688651968933858 12.939735020574227 6.8015014442700314 0 0 0
142 1 15.561281610215511 11.085864929139806 12.989012610393214 0 0 0
263 2 20.861673747619808 14.0113226866082 6.995384048102756 0 0 0
121 1 7.538679314797989 12.278550131492887 2.9830625788123437 0 0 -1
269 2 5.649787055728382 1.896878456300895 6.003983760035607 0 1 -1
132 2 7.357812183182208 8.892504154299896 9.024177959809125 0 0 1
215 2 20.168531117086843 11.556358312645129 10.072871834417748 0 0 0
271 1 13.065004211104405 12.73251115804206 10.182024992697661 0 -1 0
262 1 20.145079454267886 13.53261442289778 7.468299724018899 0 0 0
244 1 7.746158194855077 9.074604136806846 5.552785770694432 0 0 0
192 2 21.543156954696325 13.928158670798803 13.136090389280552 0 0 0
214 1 20.897871569394585 11.458644495574577 9.368566250264132 0 0 0
240 2 18.38011246978047 10.728416629820785 7.642344928029118 0 0 0
321 2 8.526186975530635 9.239146172210878 7.02688362678107 0 0 0
343 1 13.28016177515186 13.93640935981895 7.014364499124375 0 0 0
153 2 11.183110609419428 3.1044431858923587 10.75653742274708 0 0 -1
73 1 4.980943980518493 12.47264865050648 1.0294644951696381 0 -1 0
291 2 9.499321811631374 6.460876440092552 0.7804780043277616 0 0 0
340 1 4.47500103382894 3.299140469852094 10.341241255922604 0 0 0
51 2 11.855362395961846 8.72429707666108 2.084962511262657 0 0 -1
200 2 8.984637894527385 10.29697177598792 4.88136474266235 0 0 1
88 1 10.780798537884072 12.177858695691596 6.685193676073891 0 0 0
198 2 18.56045692577923 15.799355194103818 12.73828919484766 0 -1 -1
84 2 10.565351281888637 12.415115342785143 12.204293515366327 0 -1 -1
152 2 14.910938551740516 16.91574073990587 11.293377907300826 0 -1 -1
311 2 19.190596969083128 14.835191270252418 7.501551640753306 0 0 0
359 2 15.561979647408803 14.839323833838794 11.502581932008528 0 0 0
265 1 14.67764434996441 13.984865781674756 4.361787500360108 0 -1 0
27 2 0.3190121508849725 1.2823460483795348 0.044815156590782175 0 0 0
72 2 17.48830059378348 12.011022482059898 9.182053901737342 0 0 0
42 2 20.473625811478637 10.800447871337164 12.578037449411587 0 0 0
177 2 11.009565952242694 14.668395120410617 11.513785837804802 0 -1 -1
190 1 21.048538696665812 13.233041772226604 12.573188551069176 0 0 0
223 1 11.3755414659879 13.030834608939694 3.4875670301097004 0 0 0
191 2 21.813417161605702 12.734612212920226 12.2205991709213 0 0 0
382 1 19.247422091558967 16.80948548712574 11.464475970896949 0 0 0
19 1 16.668633195878762 12.25599856904963 3.793758530527884 0 0 0
20 2 17.451130547643025 12.490452256430132 3.2756736551173273 0 0 0
21 2 15.981665797907256 11.722079029916907 3.371743629768071 0 0 0
379 1 11.18449358213762 1.7365445392117778 5.5476221768981935 0 1 0
43 1 21.676800998906295 15.334179659551134 5.9340278273925575 0 0 0
381 2 15.68454938196715 15.28995449079952 4.989257244245638 0 0 0
67 1 14.553741094450224 11.15419482983201 2.1467381586243826 0 0 0
68 2 13.839710589003923 11.156859891995051 2.7805437458510998 0 0 0
69 2 14.89598601493604 10.248401154378179 2.1135866400480143 0 0 0
119 2 12.69450947142816 8.679939158013577 0.277932121565067 0 0 1
146 2 8.423659614392218 9.759993777615174 0.6799202494951035 0 -1 2
360 2 15.962907299746737 13.406874898183453 11.249909307454892 0 0 0
115 1 15.237068137742426 11.418542959500874 6.041296846411141 0 0 0
116 2 15.111259558650874 10.761157070063252 6.802455271247663 0 0 0
365 2 6.352164110852257 7.669662330643967 0.05250861074619422 0 0 1
136 1 6.087548611794295 4.281908102572865 0.3932528240777813 0 0 1
144 2 14.978443322034895 10.988325837917767 12.251545897946814 0 0 0
383 2 19.398453814968946 15.903873814721464 11.031787697879599 0 0 0
163 1 16.724458338148644 9.39016277906793 4.889453779939642 0 0 0
286 1 22.01650986190091 15.117453207328808 9.324441870191711 0 0 0
165 2 16.279788120729293 10.169908049087674 5.238017622289498 0 0 0
187 1 18.710282956157368 11.812976251285942 5.893000369958357 0 0 0
188 2 19.22947793971113 11.120134840957203 5.451646773256581 0 0 0
189 2 18.048875512471387 12.018383794620048 5.2175535370219555 0 0 0
30 2 9.549084845874592 14.26016962198824 5.864090940535944 0 0 1
211 1 18.224009169434357 9.950388876316385 2.5431228393335474 0 0 0
213 2 17.638456644857968 9.889935891406 3.2863357706361342 0 0 0
235 1 15.632838699829593 8.576378628561493 2.2073605795089333 0 0 0
236 2 15.567714166063313 8.319479004450868 1.2677530231828136 0 0 0
78 2 10.101248744464664 12.05254679289755 8.10121924820248 0 0 0
260 2 17.7884638265121 12.165203488915429 0.05023043723643079 0 0 0
247 1 6.19168217375997 11.327422148850047 5.386459153045196 0 0 0
259 1 17.21412428912537 11.462385868916495 0.5022212223402471 0 0 0
117 2 15.442071118505444 12.242954946961243 6.411763235182599 0 0 0
261 2 17.701604548709636 10.992162578009706 1.2390231697179226 0 0 0
283 1 18.928267015194887 13.372924313342901 2.7357239379557976 0 0 0
347 2 9.799983346803469 14.623724029164539 8.92454548506837 0 0 0
155 2 9.012672976147867 9.317419248668681 11.900074040537802 0 0 0
307 1 15.748224595180224 13.804538421736975 1.4416626080682469 0 0 0
89 2 11.539802713328568 12.730093643104162 6.72994085800952 0 0 0
309 2 16.02415042094256 12.899119662059864 1.1590343471414868 0 0 0
29 2 9.119488185224386 15.022699955042597 4.486857783109344 0 0 1
49 1 12.704143155259093 8.283410663172623 1.8699835009814196 0 0 -1
175 1 10.838370340810707 14.502680890746873 12.43833599529918 0 -1 -1
326 2 8.123761791694116 13.847287369904931 7.779940850575444 0 0 -1
358 1 15.152702813360417 13.963545210973914 11.512758227536818 0 0 0
289 1 8.93833431679442 6.461959642370705 1.580163960720387 0 0 0
22 1 19.793140017457887 14.12318608870828 10.536762697614122 0 0 0
23 2 20.631673611408555 14.443068677217221 10.030406898826625 0 0 0
24 2 20.246532756386813 13.721003289670486 11.361457403945348 0 0 0
143 2 15.861319858884054 11.997276552633055 13.040206646167322 0 0 0
46 1 23.637523735160624 17.024561798885916 12.61707524556798 0 0 0
70 1 17.36462950990709 12.8867349043186 9.608339457046581 0 0 0
71 2 18.31719697471054 13.032225700606007 9.878752973683925 0 0 0
325 1 8.841311942787682 14.470043447982281 7.550435087340809 0 0 -1
130 1 6.48742429358116 8.493108273291927 9.229092156413781 0 0 1
151 1 15.913144412430674 16.79984149873784 11.489634060273884 0 -1 -1
201 2 8.963331138197772 11.4803137798517 3.9506393600851237 0 0 1
323 2 2.617969966708549 0.30484150812829564 0.9396280654274101 0 1 -1
131 2 5.931185312740549 8.765583580818541 8.50786087727936 0 0 1
76 1 9.957856685640694 11.789591108170681 9.014370705448172 0 0 0
327 2 8.362104001829147 15.310636664994188 7.506254347208055 0 0 -1
32 2 9.143705622331888 6.317863926803494 10.811832753263973 0 0 1
467 2 20.970797717651266 10.260477879381387 8.302573624380566 0 0 0
507 2 17.223864790620972 3.753725795375037 4.472160397813528 0 0 0
154 1 9.35058529932603 9.69321592187683 10.974298807900611 0 0 0
99 2 13.694504072346405 11.54872948431445 5.068040997604841 0 -2 0
384 2 13.58721659866701 3.1452460616004854 10.801923862112487 0 1 0
75 2 5.456745338273839 13.337015985391954 0.995338977904869 0 -1 0
122 2 7.68866604292208 12.677883844509926 2.0501360740019257 0 0 -1
230 2 11.929543614626999 0.9534278464895173 1.341843047663105 0 0 0
314 2 5.384519318936151 5.403532102056549 2.7763442049336953 0 0 0
11 2 4.9826603408805 5.927199205250049 8.306693379655481 0 1 0
459 2 15.346073373140971 1.8070398681131208 1.1824284726406413 0 0 0
123 2 6.939016512171866 11.516181408751068 2.8044908093376977 0 0 -1
90 2 10.658743164094762 11.888447150896514 5.7590825734794775 0 0 0
3 2 6.066381632365616 9.359666047186513 1.8267170236862238 0 0 -1
308 2 14.752483487775367 13.734223064110546 1.4981800503091163 0 0 0
137 2 11.952144227461433 8.059418443294517 13.279614091869426 0 0 0
10 1 4.399337429464451 6.45035600958572 7.741860310084741 0 1 0
378 2 16.941158700160354 10.078263631821754 12.25367953729104 0 0 0
36 2 12.103503340675559 5.103533261574572 13.070248061378663 0 1 0
294 2 6.717220727242138 10.555376485956717 10.133052324856656 0 0 1
31 1 9.53878731237396 6.818665412204362 10.04141846864327 0 0 1
173 2 5.826693615432781 7.792547638482601 10.347906425104663 0 -1 1
138 2 6.363859244522127 3.6176269104979397 1.030322811538519 0 0 1
95 2 14.947154807047513 8.207682562070552 7.472222438417639 0 0 0
237 2 14.751416626728783 8.37687152824411 2.5274265471603052 0 0 0
209 2 18.257298886935658 3.8222365455321854 8.613912532165358 0 0 0
363 2 5.95859785968765 13.015281229569888 4.403496583959363 0 0 -1
171 2 3.9981694207985234 3.8619642423858638 5.15589121970705 0 -1 0
169 1 3.84041636813321 4.2314029910792295 6.0804899913976875 0 -1 0
128 2 1.878179716795962 2.932375585169798 1.462098986457792 0 1 -1
248 2 6.173886289796728 11.80171905682985 6.278797932418194 0 0 0
281 2 20.049007433874294 8.305077570188988 10.184616610674082 0 0 0
465 2 18.0021996300579 8.795084560035695 1.3725418900943234 0 0 0
135 2 8.63353139987909 14.937693273013855 10.382629387253521 0 -1 0
249 2 5.339066155485417 10.883440138797937 5.250159553296263 0 0 0
342 2 5.063490965727292 3.61654316122688 9.656036733253238 0 0 0
375 2 4.897321897798399 9.630116424430813 3.6731084944593833 0 1 0
284 2 19.565290462955073 13.01523763908546 2.0839876649416462 0 0 0
12 2 3.9638865233271647 5.773249188705148 7.197695093647941 0 1 0
468 2 20.18818000675951 9.323648044376531 7.190420900912503 0 0 0
728 2 20.447458519140728 13.070935282160388 4.249903679581029 0 0 0
47 2 24.04844452194345 16.59982948239351 11.832994796947338 0 0 0
341 2 3.607772008554281 3.7314943110370424 10.164001957417272 0 0 0
53 2 4.724555218651709 4.3699373141633355 11.552837350697589 0 2 0
202 1 2.831196243010003 6.427901976585967 3.7804721806440837 0 1 0
361 1 5.634738898789781 13.913647218609627 4.291900116649625 0 0 -1
725 2 21.530496137466105 9.081409462206773 11.750349929571746 0 0 0
242 2 7.558977122268507 12.323132776734878 12.892653456450642 0 1 0
338 2 2.6063379138451594 3.3784381823581957 7.106506515633325 0 0 0
385 1 22.0861425074647 5.598698504851024 3.7919461076920613 0 0 0
386 2 21.720005762713733 6.4413421758202425 4.131444034927978 0 0 0
387 2 21.30129890086369 5.042768531245053 3.5570418383999742 0 0 0
409 1 26.20101044989306 8.29169258046008 6.178796785222242 0 0 0
483 2 19.430615096539434 4.1440683694482265 6.2077607037373435 0 0 0
647 2 35.035164035583335 14.430413658832778 7.060532284954834 0 0 0
134 2 38.77426993167348 14.050807914697733 11.383577600668879 -1 -1 0
433 1 20.140216408068422 3.760164692261684 2.8321835222233607 0 0 0
434 2 20.43158694523826 2.8785262438167862 2.4257952839512122 0 0 0
435 2 19.68794605962266 4.20713284065605 2.0428630684295452 0 0 0
602 2 20.903462620931062 0.6773152747588314 1.9997965764771195 0 0 0
744 2 30.857889497623482 15.508095100332904 10.110693481846967 0 0 0
677 2 22.402079433784696 8.896186852653077 8.108412789561301 0 0 0
481 1 20.11434031563052 4.77968881056231 5.96795768213718 0 0 0
482 2 19.816713386520046 5.14808627173132 5.145863689207658 0 0 0
650 2 24.89230539159365 6.462050500370531 3.2479636172014557 0 0 0
505 1 17.463297741655225 3.1713771587459667 3.715946182997864 0 0 0
506 2 18.313904075188653 3.46611210817164 3.3049363617733034 0 0 0
529 1 21.63424730654092 2.1441487828273083 5.125805624612922 0 0 0
530 2 21.35034989036203 3.068005410314609 5.360575226249089 0 0 0
531 2 22.134533980383825 2.3483820854289075 4.3025649991646455 0 0 0
553 1 23.878224657759127 4.989537068219684 6.026493838009015 0 0 0
554 2 23.170442298910995 5.333442216340182 5.376783281945469 0 0 0
745 1 21.8045332276231 7.839374243637381 5.203970089911072 0 0 0
577 1 23.002414794500293 2.5708975598775177 2.8019221733333435 0 0 0
579 2 22.562604709495634 3.299179702880065 2.3376588448492233 0 0 0
601 1 20.366502156417592 1.4270127848580387 1.7028495935288783 0 0 0
666 2 34.70010919681978 8.09770560310271 10.215410496979393 0 0 0
603 2 20.62862736457909 1.7127658157276016 0.8384185406312235 0 0 0
410 2 26.85251529877453 8.623650441515414 6.80821274966125 0 0 0
625 1 22.234261624820263 4.642818206649883 0.8514506370346981 0 0 0
627 2 21.54357458586592 5.356641677636289 0.947599301887973 0 0 0
649 1 24.328193904500864 6.386814984254182 2.3946362309544758 0 0 0
578 2 23.028927501733516 1.939870024712386 2.0158966865889694 0 0 0
651 2 23.5062624330179 5.919448490227967 2.61742588773655 0 0 0
673 1 20.586586189673216 6.967504591375944 1.391122451734808 0 0 0
504 2 31.942230654736026 12.838837274973143 13.024318598999562 0 0 0
675 2 20.315051931764835 6.904801096291155 2.3548215263096557 0 0 0
697 1 18.54220532257092 5.038719450451045 0.8395794741481353 0 0 0
593 2 32.467162671460464 4.326303311251579 10.365958837901788 0 0 0
129 2 32.359344614563156 4.322242386661904 1.6847095376218983 -1 1 -1
746 2 21.433203316161183 7.486418160804044 6.038491608343503 0 0 0
721 1 19.28894033123916 6.490471066603491 3.9262823060515863 0 0 0
626 2 22.975886057045226 5.223636206663723 0.502080471480422 0 0 0
241 1 38.225659600631275 12.854183706161072 12.215568367515791 -1 1 0
411 2 25.85711846955401 7.555129003730498 6.769192504918503 0 0 0
678 2 22.738198985290758 8.514092419198347 9.590221027237769 0 0 0
388 1 24.74122168835637 7.105435095835567 10.786336159514935 0 0 0
389 2 24.467254796907113 8.012320801710668 11.115692317473574 0 0 0
390 2 25.449426172876304 6.878034558636774 11.464673266372932 0 0 0
412 1 28.727303056129305 10.17488865159491 12.897514327711496 0 0 0
514 1 22.872865954075863 11.77071966288858 11.229697883177689 0 0 0
436 1 22.514159012598963 5.956344284641109 9.641207356778907 0 0 0
437 2 21.687027280728156 5.679068283849812 10.182485725524444 0 0 0
438 2 23.228767354141855 6.379613847492129 10.270133945255301 0 0 0
756 2 27.51065698528726 17.157143053041104 11.990703313718509 0 0 0
654 2 27.60824072105334 8.270552740477505 10.164734222553856 0 0 0
748 1 24.57604268706228 9.547415201064851 11.877516241927752 0 0 0
485 2 23.01457584073711 7.030031486909186 13.346480308398174 0 0 0
484 1 22.502115833085217 6.4842781170065305 12.696607808120584 0 0 0
508 1 20.303897607508176 4.965651955923352 10.952118381628559 0 0 0
510 2 20.620178519878582 4.193668214261636 11.493078924767165 0 0 0
558 2 26.714718729654425 7.092156345558485 13.185738794436936 0 0 0
532 1 23.80815622519922 4.195023796950204 11.65762614927482 0 0 0
533 2 23.629054805654004 5.12575993628504 11.879261410423013 0 0 0
692 2 31.30861973836774 14.517674144953745 1.657884339369158 0 0 0
556 1 26.328386569545565 6.349194579642385 12.698735626684073 0 0 0
557 2 27.05906781072546 5.931707005097129 12.165320856047533 0 0 0
580 1 25.56212532976496 4.469277034638306 9.580672548816414 0 0 0
581 2 24.898371762826272 4.3715613414260845 10.298838509942378 0 0 0
582 2 25.504345756473846 5.359399371436143 9.18503641943569 0 0 0