LAMMPS data file via write_data, version 8 Apr 2021, timestep = 0

768 atoms
2 atom types

-0.7804941048074302 30.72384104826235 xlo xhi
0 14.147670341653809 ylo yhi
0 13.533566276660023 zlo zhi
5.101449400306144 5.061814214313876 3.552753962968252 xy xz yz

Masses

1 16
2 2

Atoms # atomic

161 2 15.725366845884919 3.467306189518832 11.778630866696703 0 0 0
338 2 3.5492168107632187 3.6767928631497555 6.169052005096551 0 0 0
295 1 8.360644375707462 5.033123259748648 6.584042803286004 0 1 -1
297 2 7.931002086216446 4.9805590593811395 5.695757276016897 0 1 -1
164 2 15.527906448922296 8.661444036097517 5.15410192738425 0 0 0
220 1 5.051011999656385 1.7299597415100503 1.2836169625800053 0 -1 0
371 2 6.861426828028628 3.210939630996907 4.20723498284016 0 1 1
172 1 6.949388278530557 9.22462689418361 9.24733031836193 0 -1 1
352 1 10.421460494493166 6.546075551725015 6.191890598098673 0 0 1
150 2 9.944620504811988 4.6677830175864425 1.325558530096144 0 0 1
298 1 11.687405875649144 8.345720111084066 9.637869839233534 0 1 0
101 2 6.049750250061615 6.1651421237047614 8.272173837196846 0 0 0
60 2 5.86938769176173 1.6033845773609892 5.976983819449442 0 1 0
148 1 9.024396758538947 4.925565721203953 1.7331474597453866 0 0 1
2 2 6.671700912008842 11.945250048473 1.4489172083949968 0 0 -1
105 2 9.224166368517531 4.037950148472924 7.437314096896331 0 0 -1
39 2 18.4095997804219 7.508161111762787 6.85626638868952 0 0 0
106 1 8.547718389310527 9.485200691477663 11.546824207045132 0 1 -1
162 2 17.18085480613938 3.774711511810695 12.157149479365216 0 0 0
337 1 2.976811091483343 3.1073248240648317 6.647199850851479 0 0 0
58 1 10.71298934089794 15.135335176169681 6.743206615079925 0 0 0
59 2 10.8255267100759 15.549917263430931 7.653939960693628 0 0 0
149 2 8.674104116506257 5.441167136746122 1.0255645438435235 0 0 1
50 2 13.415984513624247 6.482578732284081 1.436790233014919 0 0 -1
127 1 7.773565180735086 5.1334273189592174 13.453075256767887 0 1 -2
373 1 4.033826511041757 10.514843647924648 2.4775825939682656 0 1 0
92 2 3.3170724264315936 4.5709000946897556 0.8522395906847439 0 0 0
218 2 7.127288544925828 7.152665303495496 11.505206936576581 0 0 -1
351 2 12.96412372291078 4.713458167587997 3.8485063672316 0 0 0
179 2 7.272547150835153 11.26494148109619 7.9421883628527885 0 -1 1
171 2 3.5989088563140914 5.615143375247068 4.8725764021920055 0 -1 0
170 2 5.096044632437746 5.192071821470057 5.264675443444939 0 -1 0
353 2 11.190231318615723 5.896773280503005 6.462861994696828 0 0 1
219 2 7.511482978112277 6.333764614034271 10.191249172214647 0 0 -1
61 1 8.303719380909952 2.668937835690416 2.672416422500284 0 0 0
315 2 3.7923244951331334 7.438198577844821 3.0997316740854544 0 0 0
243 2 10.210430355815914 14.333067014358544 12.29042774029469 0 1 0
324 2 8.231892486830171 13.353199216665613 1.250138892860349 0 0 -1
65 2 14.765578739913998 6.126303564790083 9.24101122737377 0 0 0
233 2 15.22143143896029 3.7744739751169085 9.022102857388319 0 0 0
217 1 7.831440064889125 6.542651226365884 11.12421881034409 0 0 -1
257 2 16.92427071376647 6.429103323068446 8.13355266695243 0 0 0
38 2 17.86087359410175 8.621688786421359 5.849419421850257 0 0 0
94 1 13.706284025937487 8.019921292042202 5.390604661443554 0 0 0
276 2 4.397242789183406 2.839471869574311 4.092507376432102 0 0 1
128 2 8.144189198083978 5.558063255683541 12.682997827637367 0 1 -2
372 2 6.10596519376154 1.833087927383545 4.122009833328167 0 1 1
274 1 3.778891916460025 2.492892125809047 3.377961223188068 0 0 1
140 2 6.79385194266329 5.379030520669722 3.4739999494264535 0 -1 1
100 1 6.8023562202649694 5.631096049838539 8.692123001430767 0 0 0
63 2 9.249990990282486 2.3039977273439147 2.810634107306478 0 0 0
129 2 2.449994000798108 2.303502954876082 0.5149096608065077 0 1 -1
222 2 4.184083767487547 1.5244247945933418 0.788548780252436 0 -1 0
64 1 15.47854088835392 6.714811525937502 8.94222919241211 0 0 0
111 2 8.180615857203406 1.6401603825542475 1.4330542821504686 0 0 1
13 1 14.495551611567693 5.66893028691157 4.523038397828227 0 0 0
62 2 8.47470532390574 3.5598752207528137 2.2595400622085964 0 0 0
332 2 11.06769969888319 3.427331998727527 0.10969335618115869 0 0 0
275 2 4.364180413291193 2.2654850022693735 2.6289780508929637 0 0 1
250 1 10.42157975789317 4.284183719973779 10.382858156855654 0 1 0
368 2 5.206963367336728 3.0005358165390916 9.561994008598964 0 1 -1
102 2 7.277961814336806 5.440664121995909 7.888309913173888 0 0 0
349 1 12.164639269571964 4.549850785478648 3.346717825884423 0 0 0
81 2 6.509516634210645 6.384081537870301 1.0664974630260162 0 0 -1
85 1 11.818573175474151 7.356771224165875 13.461821163009345 0 -1 0
302 2 13.859196289615413 8.949443491942956 12.082225836694926 0 0 -1
301 1 13.743778897645841 8.124658788298957 11.54190227951119 0 0 -1
103 1 9.829026562687606 3.31297538251157 7.880245653527285 0 0 -1
6 2 10.980983140184541 3.1431962430467495 3.7026005491941727 0 -1 0
303 2 13.113701736967075 8.439280941429853 10.748399594648856 0 0 -1
305 2 14.708828595602451 9.517113601498574 7.491904906874357 0 0 0
239 2 18.183221703589588 9.580815149259653 8.756467496203046 0 0 0
31 1 11.059172382229171 11.026616838228536 11.443050418625587 0 0 1
333 2 11.668223454940096 4.810308116948729 0.021354771823989233 0 0 0
346 1 9.65878815494778 15.49144484891421 9.624103860651804 0 0 0
110 2 13.8004248332863 4.960975593376616 13.483890577944337 0 0 0
331 1 11.376640566277764 4.145292874384632 0.6850483795099817 0 0 0
9 2 10.801066024218493 6.818977601251709 12.182326622844743 0 0 -1
4 1 10.772190093703962 2.2384093838998056 3.491029539940702 0 -1 0
8 2 9.411352017212991 6.802966553294428 11.270762590337918 0 0 -1
5 2 11.471589838038673 2.0289574612373515 2.8374805758071875 0 -1 0
7 1 10.385562929991968 6.706981414614771 11.323023550734892 0 0 -1
377 2 16.805604345791178 8.916020569312987 11.280021866986257 0 0 0
112 1 14.946682540527268 6.066070828637512 12.636015488132708 0 0 0
304 1 14.202803251107719 8.746650382093364 7.934297282109977 0 0 0
367 1 5.629642518735692 3.7782445675171696 10.05695233143734 0 1 -1
350 2 12.305660344787938 4.4095100967991705 2.412151304881377 0 0 0
113 2 14.580610281274588 6.753571300687685 11.993517751042996 0 0 0
376 1 16.84291328936833 9.66737208333234 11.935418141151777 0 0 0
114 2 15.488326425225134 5.466263913112467 12.030768859491364 0 0 0
66 2 15.048535576062811 7.478437708934088 8.539850233036578 0 0 0
14 2 15.2772709445429 5.341281240391461 5.061556698159242 0 0 0
296 2 9.095739907061942 5.680335444128039 6.443857619187707 0 1 -1
369 2 6.105262952095926 4.393507735024345 9.444562106323014 0 1 -1
280 1 19.3582652072285 7.906989990416742 9.550059418362569 0 0 0
109 1 8.293405058116875 0.9809805345806943 0.686922345862875 0 0 1
87 2 12.647277380974815 7.512114525716407 13.081384538819224 0 -1 0
184 1 18.638402474141266 6.187490278751814 13.142987985650779 0 0 0
277 1 16.729269517461617 6.172103709600283 2.827427974914007 0 0 0
93 2 8.690768363890529 8.74915020886895 12.892421091136253 0 0 -1
15 2 14.341480367941342 6.535786340649653 4.8773256652964125 0 0 0
299 2 10.998437387847877 7.796866441053235 10.19248135235627 0 1 0
107 2 9.305017289111152 10.04760988841492 11.390997007277239 0 1 -1
160 1 16.497854936119293 4.024378109700329 11.514926960672598 0 0 0
17 2 16.59405897806745 6.996318712047531 10.336632483971687 0 0 0
37 1 18.717272955784345 8.122144244568506 6.148707095904144 0 0 0
18 2 18.074744484707487 7.462988657384051 10.31593603690834 0 0 0
231 2 13.062008517021537 1.661063457273606 1.2494865951369674 0 0 0
104 2 9.82085697394097 3.65745278901871 8.78801254625937 0 0 -1
205 1 15.19882093043868 2.6295565977759616 3.0017324234641376 0 0 0
210 2 17.727743380978403 4.247267704349122 10.084746883713345 0 0 0
186 2 18.289455477303047 6.709699915368301 12.418812184967575 0 0 0
232 1 15.444216700614946 3.0922223574299106 8.364422032905242 0 0 0
354 2 10.516867875419793 6.740151653049576 5.239427594541277 0 0 1
465 2 18.211190106062237 8.527094534381233 1.465435758700956 0 0 0
183 2 17.022063401920146 5.157960322941283 6.478586749038397 0 0 0
40 1 21.19932023925979 10.0325264366364 13.352046202251142 0 0 0
207 2 14.752305525885147 3.3813616027011655 2.6076163366406155 0 0 0
208 1 18.406564935143066 4.388120341307953 9.388765202218888 0 0 0
279 2 16.46576600060534 7.1235142782816805 2.5694616248937727 0 0 0
254 2 15.204477663409312 5.219191497726496 0.9616293744314821 0 0 0
181 1 16.33255990740814 4.613896306979976 6.104598132914075 0 0 0
182 2 16.034801650901997 3.991471241531391 6.725395116468959 0 0 0
256 1 17.762864848306158 6.265633348658429 7.683971087483799 0 0 0
255 2 13.99684166506058 4.190497734083007 0.7553543675766514 0 0 0
253 1 14.338454770774248 4.918981954142023 1.3331427253161041 0 0 0
157 1 13.9086471450924 2.4653828683854453 5.389292043824454 0 0 0
185 2 19.394329077446155 5.71262948965166 12.86832712684685 0 0 0
278 2 15.942264621906988 5.826286100572668 3.2807215345298473 0 0 0
159 2 14.36760576672067 2.5835409997001055 4.4999654095068715 0 0 0
16 1 17.33959396795262 7.230135360490993 10.943612666460355 0 0 0
258 2 18.241422646457355 5.695903827939629 8.34554369948061 0 0 0
370 1 6.262812236560453 2.631064386627324 4.730871234178014 0 1 1
80 2 5.235695032787293 5.602833596879435 1.1666921932942358 0 0 -1
306 2 13.537000583060404 9.25842972062279 8.48053960571408 0 0 0
79 1 5.988865029097669 5.865834932553703 1.7342359781713936 0 0 -1
246 2 9.615698812045723 7.680093357019077 7.2287334257451175 0 0 0
108 2 8.164279727574737 9.364197897288626 10.711940823157414 0 1 -1
300 2 11.285306072595972 9.128602361601535 9.25351638235356 0 1 0
221 2 5.36785739762239 2.503224601914498 0.8099667702214537 0 -1 0
348 2 9.351358496677056 15.237147697196358 10.47656431435404 0 0 0
251 2 10.405420455422464 5.271875091262913 10.551164558559314 0 1 0
139 1 6.672695250309751 5.4135896232930945 4.4929260511126365 0 -1 1
467 2 20.599193623677813 10.135352647416415 8.156237255914046 0 0 0
313 1 4.463727993764903 7.962208814532937 2.588095025911405 0 0 0
252 2 10.878051272617554 3.9890436051816796 11.202315004759424 0 1 0
91 1 3.9982578657884096 4.739241819416396 0.21265894337727123 0 0 0
195 2 12.677727372465755 4.0466601781847915 6.141178220205654 0 0 0
229 1 12.776578929466696 1.2079340206142593 2.0869383785047684 0 0 0
194 2 11.438952353060388 3.8012072719131997 7.097995349681898 0 0 0
193 1 12.103727741180842 4.4782750197052 6.794502087896196 0 0 0
141 2 6.795897181247769 6.398477969192494 4.534217048376056 0 -1 1
234 2 14.638107897922175 2.656034683534681 8.101572862149602 0 0 0
96 2 13.628128235438297 8.289791627764426 6.352785353216996 0 0 0
34 1 16.511431212736657 17.2314815982627 12.656135985529446 0 0 0
380 2 11.283422993310602 1.4234936682123667 4.861786383756077 0 1 0
158 2 13.195958458093495 1.8044287395515792 5.186906473749026 0 0 0
242 2 8.695205240891246 13.803926791554531 12.230362253149604 0 1 0
35 2 12.088204199443407 3.503418845180946 13.307223019911355 0 1 0
267 2 9.106142380206917 2.0447631351224618 6.605052828572158 0 0 0
266 2 7.88213162228146 2.009362442582757 5.668237117942188 0 0 0
48 2 24.22425837740549 17.63230653722591 13.344306108542208 0 0 0
86 2 6.567060264758325 4.428090653284373 0.5947668240383606 0 -1 1
226 1 12.912975338782415 11.455225464115617 5.039486831840062 0 0 1
77 2 9.861374820510525 9.93366531347314 7.816123274367739 0 0 0
227 2 12.40945881194085 10.871868192271 4.414807939416418 0 0 1
82 1 8.058740125568876 14.572480117233956 7.574977059810807 0 -1 -1
166 1 19.177552314136385 11.091395673076667 11.621526437982578 0 0 0
228 2 13.25868025697627 12.167147342253708 4.472928361095296 0 0 1
330 2 10.21939280413944 6.678853925585384 2.6879214163952985 0 0 1
44 2 20.41388182740158 15.561327854807892 5.985473485096726 0 0 0
347 2 8.918711229447846 15.265655099223547 8.989613041506614 0 0 0
120 2 13.176879424940406 9.908023765861511 0.03463333510487413 0 0 1
176 2 8.732777135413103 3.6350247199783143 10.995557598928265 0 0 -1
294 2 8.849823801975921 11.849183384446698 8.925201465104049 0 0 1
270 2 10.885744342388966 13.282721425085787 6.5681802995425675 0 0 -1
118 1 17.79399528753237 12.682099394684187 13.309176954829562 0 0 0
322 1 7.41281713391654 13.297982574336164 1.702246582108168 0 0 -1
238 1 17.677874375327384 10.36762612853986 8.534826120655756 0 0 0
284 2 19.701321542762475 12.720841526252174 2.042915915903983 0 0 0
196 1 13.646728026064538 11.688254084702704 0.5848124507301379 0 -1 0
83 2 8.720921942989257 14.32577358382532 6.918856136427424 0 -1 -1
290 2 8.710640815590528 8.543656477085552 1.9317635157132873 0 0 0
334 1 15.78241516080424 13.296786171993077 7.624829237278573 0 0 0
285 2 19.057504681767085 14.094274184601904 2.5788069359602854 0 0 0
41 2 16.76781341724874 7.116732721079888 0.16667262222207543 0 0 1
147 2 12.427710684420553 13.727215608944045 11.731700631943164 0 -1 1
364 1 8.038285861215751 9.797426640881689 3.11554650407127 0 0 1
320 2 10.91215327745865 10.297815767505753 3.1280833850116005 0 0 0
344 2 12.939299669091788 14.621668399756588 7.648432549120952 0 0 0
173 2 6.542257887133062 8.455493913612289 9.63756776762264 0 -1 1
244 1 9.086447373609351 8.440971134394323 7.394054903413637 0 0 0
341 2 4.831544545258607 4.741909893374213 11.187167083480274 0 0 0
132 2 12.63189995181458 4.629398695596414 9.949102594264883 0 0 1
56 2 14.863781880410752 14.49136485789871 13.249586846509677 0 0 -1
168 2 18.7382423605421 11.909709230834126 12.004342507645507 0 0 0
245 2 8.611705618732932 8.62778597279569 6.540460019059037 0 0 0
145 1 11.771592405029716 13.430310269897255 12.399006439813634 0 -1 1
57 2 16.067034324355173 13.470472338894027 13.189988097708738 0 0 -1
328 1 10.8488476418721 6.83932300945876 3.4184126006105586 0 0 1
199 1 7.391001134149868 8.08335911782274 5.050830289917908 0 0 1
28 1 11.134250392530653 11.8396620070948 1.828781496255826 0 0 1
336 2 16.273157409992145 13.725909517531747 6.954579522162871 0 0 0
366 2 8.217959919958435 10.480905949133673 3.79072937727384 0 0 1
287 2 21.312606046306072 15.683160714436909 8.92937723241083 0 0 0
224 2 11.115098477236996 14.725597386752678 2.4082705414559165 0 0 0
55 1 15.08156406701755 13.5327460597973 13.291077693882622 0 0 -1
216 2 20.345149600707273 11.985243121068253 8.793403445556299 0 0 0
329 2 11.406334482009054 6.0458938414789065 3.376865462241883 0 0 1
33 2 11.22300930134678 11.912798260208065 11.771214720064297 0 0 1
312 2 17.726204477131894 15.772511873322863 7.506502647914922 0 0 0
335 2 16.40591771702995 13.195840321107 8.393516760805754 0 0 0
97 1 14.023282097123374 13.785200230497118 3.9599556932285624 0 -2 0
268 1 10.85255520353629 12.385410190224505 6.198794613815259 0 0 -1
98 2 14.67487145310515 13.825639520981177 3.2330260530535817 0 -2 0
310 1 18.107083340817674 15.492217963196438 8.357966601974761 0 0 0
273 2 13.369839312602464 15.509390417738272 10.796060865885423 0 -1 0
197 2 14.003672275042838 11.479384333273822 1.4973239223502286 0 -1 0
154 1 7.321491190517377 12.293528733145378 11.862736484914217 0 0 0
345 2 14.127617887109187 13.631298871946827 7.865087449826523 0 0 0
319 1 11.491965999419417 9.776846772023475 3.657797334968741 0 0 0
272 2 13.226223169892732 14.364796245937727 9.945166675357367 0 -1 0
264 2 19.35940529294599 12.871110672589113 6.817668705098518 0 0 0
142 1 15.129628020876996 11.59730817347146 11.282593786989663 0 0 0
263 2 20.34498428613101 13.858463476199205 7.229241322064836 0 0 0
121 1 7.512587328372335 14.295779751189515 4.116157611893064 0 0 -1
269 2 11.645601561328043 12.065389332772403 5.825789796486771 0 0 -1
241 1 9.265470306796232 14.620963837068505 12.1551714890796 0 1 0
215 2 20.14530305749775 11.172930311994298 10.174964705731108 0 0 0
271 1 13.442724834480511 14.53297587827716 10.849096896176857 0 -1 0
262 1 19.791950900449805 13.21474704648816 7.60975792277544 0 0 0
178 1 6.770077714141775 11.2379681705305 7.042141621334343 0 -1 1
192 2 21.53525817238391 13.933750456448113 13.189558173136788 0 0 0
214 1 20.703042773862283 11.254229015142544 9.345452593128103 0 0 0
240 2 18.09604080168074 10.758769142882144 7.758710210918153 0 0 0
321 2 11.045730785236323 8.9414434740841 3.794323601286325 0 0 0
343 1 13.19902082406202 13.850950445829259 8.16593959757369 0 0 0
153 2 15.218596674020452 16.55957722231005 13.315794138080989 0 -1 -1
316 1 1.9380967848158872 3.717615017765241 1.8672705155354448 0 0 0
291 2 9.697520397742442 8.897695582047737 0.8643260414672369 0 0 0
318 2 2.5313029454407783 3.322603730323227 2.5722273965337723 0 0 0
51 2 12.305289664267892 7.38087001076113 2.1181466418955273 0 0 -1
200 2 7.494848578686027 8.533548186997047 4.192473498649007 0 0 1
88 1 13.13065674603602 11.024582680068276 9.375367156266698 0 0 0
198 2 12.698160924021005 11.918181103299224 0.8527056345050952 0 -1 0
357 2 4.850050153896108 8.553390744118571 6.539174087240547 0 1 -1
152 2 13.803976857446456 16.524274544656237 12.780268665641312 0 -1 -1
311 2 18.807253544388654 14.811970792651922 8.232944654373858 0 0 0
359 2 16.097671849020543 14.508620215137524 10.797799371517874 0 0 0
265 1 13.733371480322573 15.649936717059276 5.973752205229959 0 -1 0
1 1 6.362766118849307 11.0167095821755 1.23233411837404 0 0 -1
72 2 17.520488846529375 11.797957710976018 9.376562316788105 0 0 0
42 2 20.479482677755204 10.480312514103325 12.851580991255776 0 0 0
177 2 7.101635716107386 3.281157492002188 10.882198748578181 0 0 -1
190 1 21.169692082442175 13.151560190412358 12.711270114482657 0 0 0
223 1 11.330243520325464 14.22426282421406 3.196970683162834 0 0 0
191 2 21.881944915901485 12.808781337256715 12.0764377875669 0 0 0
382 1 19.4266823963505 16.767737235033525 11.959949073989623 0 0 0
19 1 17.14344630374255 12.557013054766443 4.224030696854215 0 0 0
20 2 17.85524322750826 12.58898639973017 3.5858545601343823 0 0 0
21 2 16.334328581937406 12.218457276018038 3.773213586813413 0 0 0
379 1 16.89147598720268 14.987800650429781 5.488612288403287 0 0 0
43 1 21.304900352213124 15.384033967742896 6.337174957273983 0 0 0
381 2 17.146357899195372 14.225599842459653 4.946156398058112 0 0 0
67 1 14.952299566924852 11.060476462898203 3.030711101556362 0 0 0
68 2 14.578800901304797 10.706202543645887 3.827293639847757 0 0 0
69 2 15.34276456831694 10.306941356676639 2.6310585090562384 0 0 0
119 2 12.812035962506883 8.402510181303544 0.47797609908672156 0 0 1
146 2 11.851659166532247 13.880601843623834 13.255796111946033 0 -1 1
360 2 17.11101468310532 15.259724659378792 10.003698885911419 0 0 0
115 1 15.240860523583676 10.953028469315951 6.459401648168834 0 0 0
116 2 14.443967274609605 11.244577403156176 5.993899164572965 0 0 0
365 2 7.376950181413183 10.13642663164292 2.5057123585578727 0 0 1
136 1 12.67480650928209 10.138076595172203 13.291339812775849 0 0 0
144 2 14.919048501261532 12.43541502539217 11.78611758315122 0 0 0
383 2 19.707855270868713 16.011938474963912 11.379872241769487 0 0 0
163 1 16.358632934528064 9.148107803276408 4.922197057818718 0 0 0
286 1 21.59508280363146 14.77974169214147 9.197860208891253 0 0 0
165 2 16.211437946365894 10.026998355121734 5.356786355690038 0 0 0
187 1 18.47822491188521 11.442112564987152 6.189973674305426 0 0 0
188 2 19.097336848250308 10.830422570281922 5.713089223973551 0 0 0
189 2 17.88898714363765 11.825441496012399 5.523817703493623 0 0 0
30 2 10.199124617634238 11.962284162207874 1.6015477033711745 0 0 1
211 1 17.97744832613775 10.129401085440877 2.698847912287189 0 0 0
213 2 17.34234556056925 9.939929084989423 3.4449565897388683 0 0 0
235 1 15.561244145999838 8.660848585298504 1.9047079454302585 0 0 0
236 2 15.768420215872544 8.751030841213472 0.9561942763272828 0 0 0
78 2 10.581504197897951 11.314814623886742 7.611942591653193 0 0 0
260 2 17.74490849550115 12.16089818416839 0.23356730779864077 0 0 0
288 2 22.178837074298762 14.477742601652551 8.483781122459606 0 0 0
259 1 17.061302729055758 11.575150143092658 0.5377524637222674 0 0 0
117 2 15.60633057231461 11.635064126612152 7.034514012483966 0 0 0
261 2 17.452219285059147 11.006138580618646 1.2503475184737065 0 0 0
283 1 19.363314260507956 13.191475972267002 2.853887158504167 0 0 0
282 2 19.723827098311943 7.263278264839914 8.879439184973036 0 0 0
84 2 7.89161243345266 15.46884675449391 7.290611063680188 0 -1 -1
307 1 15.748384412820881 13.792841641469083 1.6860017814955632 0 0 0
89 2 12.84103572015912 11.782394629851511 8.842998897448636 0 0 0
309 2 16.01455897584645 12.917531124866994 1.2605164540604468 0 0 0
29 2 11.331829191957075 12.653747573117249 2.3273092633981483 0 0 1
49 1 13.128941641201765 7.421418769887391 1.6272404249250696 0 0 -1
175 1 7.982837702486342 3.06741452038059 11.285535785139526 0 0 -1
326 2 8.32034934792976 12.699413662978024 4.619131596703758 0 0 -1
358 1 16.479147616718187 15.38310779714328 10.716708921337917 0 0 0
289 1 9.167976824400787 8.09369390366693 1.1839885459618364 0 0 0
22 1 19.593458862108843 13.919339875717135 10.61044798453605 0 0 0
23 2 20.361758593863886 14.054068596257336 10.0120766135941 0 0 0
24 2 19.940532208370954 13.771437292758106 11.491826184066065 0 0 0
143 2 15.87380553460318 11.90297539559009 10.752919620170543 0 0 0
46 1 23.515674330772338 17.068743450514162 12.962323980543463 0 0 0
70 1 17.16174679334797 12.628244112836045 9.73674975200626 0 0 0
71 2 17.96219552367236 13.025257619927665 10.07977015981613 0 0 0
325 1 8.571337863594996 11.79980840492833 5.0285810414580405 0 0 -1
130 1 13.313567662597588 4.993132468244083 9.353876979514322 0 0 1
151 1 9.26722423205002 12.71268956640238 0.07259791532367021 0 -1 0
201 2 6.573810213744458 8.478115344434881 5.396122537967025 0 0 1
323 2 7.524848022651047 13.6640985289317 2.6201087325533403 0 0 -1
131 2 12.887646239062335 4.837543271930148 8.484115084363484 0 0 1
76 1 10.128490768116416 10.719786366836699 8.293950916816124 0 0 0
327 2 9.501393495465903 12.012908386673137 5.386840642269382 0 0 -1
32 2 11.654360661382492 10.855449363496641 10.674960423408358 0 0 1
293 2 7.7820834232124225 12.962726670575881 8.8115649844982 0 0 1
374 2 4.3247306897707185 9.594735125101257 2.6540612699571544 0 1 0
206 2 16.11286097942922 2.8343812076691717 3.2646874740270677 0 0 0
99 2 14.134821330132262 14.492912646631156 4.58588939469414 0 -2 0
384 2 19.20614148431214 16.2840811138644 12.798314663145899 0 0 0
212 2 18.845601362405592 10.070151733546384 3.1718784795266255 0 0 0
122 2 6.611082857882676 14.162877194885317 4.3991206610483 0 0 -1
167 2 18.432208189796746 10.501126310397755 11.733514015965154 0 0 0
314 2 5.180203758243046 7.281510543382461 2.3195701780814195 0 0 0
292 1 8.023017137634085 12.200335262944371 9.295670484232593 0 0 1
180 2 7.437529062676071 11.343070444918702 6.321818883616628 0 -1 1
123 2 2.7991527950055497 1.0681004201280409 4.034455738053981 0 1 -1
90 2 13.76681396023269 11.326877830594018 10.078266000003264 0 0 0
174 2 7.635450652810369 8.824514304513075 8.676826776331323 0 -1 1
308 2 14.926352785428612 14.100495772485635 1.2669191779422835 0 0 0
137 2 12.228019440248847 10.429397388586098 12.460882073718189 0 0 0
45 2 21.539054837146963 14.637875211450096 5.706395742955759 0 0 0
378 2 16.084616772125724 10.1812011336733 11.687840533852317 0 0 0
36 2 16.91740004406943 16.57728881787243 12.07961880312127 0 0 0
3 2 5.393781336883587 10.850317166719295 1.506227445933292 0 0 -1
230 2 12.042440255208952 0.5731589236606154 1.8195984300201475 0 0 0
225 2 12.289343870514504 14.376319679513388 3.3012326621273953 0 0 0
138 2 8.180985751065913 7.282553855208377 0.16364554921117774 0 0 1
95 2 13.006691285242482 8.516346860655776 4.962656579994547 0 0 0
237 2 14.755882547242482 8.179856257495056 2.066329155193814 0 0 0
27 2 6.030705171509205 14.430741376348262 1.2513454743695374 0 -1 0
169 1 4.134377983329527 5.122249842721718 5.537593703275955 0 -1 0
459 2 15.265484336485224 1.5878756517583241 1.3143742088809895 0 0 0
11 2 4.231082744329097 5.988725133575483 6.867945207310202 0 1 0
125 2 2.4558482288022825 7.240973716130175 1.1579202112057796 0 -1 1
52 1 5.255156582800608 7.978105053355798 10.911750893499097 0 2 0
281 2 20.157525792871127 8.18535305994403 10.097625985467651 0 0 0
25 1 0.043265983538238406 0.5893494886017094 1.0423317885133825 0 0 0
10 1 4.3084955365778335 6.51486650682597 7.735593134477333 0 1 0
356 2 5.876674475852971 9.752600558748904 6.785935285213234 0 1 -1
155 2 7.436578062666887 11.376410382359017 12.269320773942692 0 0 0
209 2 18.146297321843583 3.639841874519285 8.68261775281516 0 0 0
156 2 7.697411620905586 12.092146176607976 10.949384298081265 0 0 0
732 2 23.095504541978105 14.88467471976765 10.463149851488813 0 0 0
339 2 2.259689832045449 2.7717103166228227 6.073955060191496 0 0 0
507 2 17.602307821614534 3.4680563939158544 5.019949970585984 0 0 0
355 1 5.3102884892358855 9.275824220302793 6.111630421272546 0 1 -1
461 2 17.690038043390654 2.2393187807865558 7.128847711604627 0 0 0
47 2 23.981635560064248 16.45112374669264 12.392043059794176 0 0 0
725 2 21.542201134999512 9.072383883492135 12.033127214250731 0 0 0
342 2 4.90237219032943 4.865181492424193 12.618116499378313 0 0 0
468 2 19.981901679671033 9.129220413538961 7.085452608347076 0 0 0
457 1 15.42019724036444 0.9582559700107455 0.5800488797828993 0 0 0
12 2 3.783671471940549 5.865321877870297 8.284918640201134 0 1 0
340 1 4.52808068851694 5.374555969939494 11.8528828855919 0 0 0
54 2 5.149504134993634 7.0327766120274715 11.215722757313884 0 2 0
723 2 18.353223392937345 6.2377359830167975 4.074563897209148 0 0 0
728 2 20.76059240401313 12.99651657204849 4.061136975282598 0 0 0
385 1 22.116348179359235 5.402044987764325 3.9200398712563427 0 0 0
386 2 21.68996097678967 6.14275143690393 4.574658822415499 0 0 0
387 2 21.369865506019966 4.924153549090329 3.5450123074225033 0 0 0
409 1 26.329342865189222 8.012343119041061 6.118905552730325 0 0 0
483 2 19.363203421941314 4.054995732985261 6.686305491354032 0 0 0
425 2 37.09637092721167 10.237260368112247 13.424077074645643 0 0 0
134 2 37.6638445849481 15.177789796878148 9.001227079670354 -1 -1 0
433 1 19.84936224344834 3.938453796258044 2.7840193998146847 0 0 0
434 2 19.998532994751866 2.9974826021630334 2.553714135777193 0 0 0
435 2 19.24866588946757 4.2311993194120046 2.0639459504186055 0 0 0
602 2 20.832512982851103 0.6796793500077362 1.7420698368311542 0 0 0
249 2 34.5877961644493 11.582370444635872 5.528257564858409 -1 0 0
677 2 22.05785417207332 8.809488309167442 7.944747096285508 0 0 0
481 1 20.095889665563387 4.548196732118584 6.291325336434612 0 0 0
482 2 19.800635772441357 5.059095993540182 5.518465494825238 0 0 0
650 2 24.9731566689122 6.550454013926514 3.3800070019687274 0 0 0
505 1 17.876505263547116 2.856765561314046 4.313604176508233 0 0 0
506 2 18.57494269369613 3.3374916701332036 3.7918614524788 0 0 0
529 1 21.33757821092135 2.178373224963901 4.992293817888043 0 0 0
530 2 20.917571663423352 2.9600969034611992 5.412161523101016 0 0 0
531 2 21.734232773268396 2.376174697850464 4.135723456567109 0 0 0
553 1 23.66601377544172 4.564874430235631 5.932602030999316 0 0 0
554 2 23.11738318370328 4.858042220455903 5.165344672721664 0 0 0
745 1 21.727003767586908 7.553247076176285 5.292430834346708 0 0 0
577 1 22.859367210602823 2.7004100852711432 2.8089987040954942 0 0 0
579 2 22.677110146341594 3.488029456603483 2.2631781460908553 0 0 0
601 1 20.149491845952507 1.4608608902428977 1.5942515008919962 0 0 0
666 2 35.00449142652595 8.414303158424445 9.868504087624217 0 0 0
603 2 20.401263134235926 1.8890890517051628 0.743977999973656 0 0 0
410 2 26.873143575865246 8.580197977364131 6.722658341561576 0 0 0
625 1 22.052216778311468 4.603141174121636 0.6698634624407579 0 0 0
627 2 21.437787930982708 5.1088169084235675 1.2721742557745048 0 0 0
649 1 24.33629063820024 6.409848168399222 2.684694421758064 0 0 0
578 2 22.853196253581547 2.0454378747440742 2.023557749674949 0 0 0
651 2 23.620705632309672 5.85287343147215 3.067919690288189 0 0 0
673 1 20.39241682954548 6.826977344650027 1.6765872959717143 0 0 0
126 2 32.982277660127 8.358311902076409 1.1062756125011126 -1 -1 1
675 2 20.21125651836566 6.59270600536956 2.587866966067687 0 0 0
697 1 18.11201544805648 4.6941167607446905 0.8695273167661429 0 0 0
593 2 33.98794176586624 4.5195667101908015 9.658745431091397 0 0 0
514 1 22.914787543341088 11.626945891335296 10.951033180105785 0 0 0
746 2 21.454438172369873 7.206675021833823 6.182572148922107 0 0 0
721 1 19.308872392272903 6.227656370728628 4.3520465859455575 0 0 0
626 2 22.68374188163944 5.252061084927217 0.335218750550203 0 0 0
753 2 24.889052703146614 15.21251865489793 5.018401429230231 0 0 0
411 2 25.8905691479464 7.3557562921913044 6.684201506047816 0 0 0
678 2 22.492842548735833 8.287235350555104 9.43143395231697 0 0 0
388 1 24.561224518507995 7.171430772058397 10.824239447657641 0 0 0
389 2 24.442176366880904 8.077147916044723 11.192118759594463 0 0 0
390 2 25.115387817895513 6.670875624164071 11.498276598685946 0 0 0
412 1 28.782999285789572 9.930299446613702 13.022608967411255 0 0 0
722 2 19.31392008084856 7.026525064868008 4.974357368981386 0 0 0
436 1 22.60764746560235 5.731733812064848 9.618519218336472 0 0 0
437 2 21.891057879164336 5.475593032455303 10.291592695598293 0 0 0
438 2 23.202586738141655 6.351174806885249 10.09128019277228 0 0 0
431 2 34.005511468906185 3.592291513864205 11.863628192949934 0 1 0
654 2 27.779562758773093 8.213206616290199 10.238029310062382 0 0 0
748 1 24.276184417823092 9.661152785182782 12.16008815513113 0 0 0
485 2 22.55322045855402 6.63093881529996 13.469281915742307 0 0 0
484 1 22.42438923467719 6.041405314068793 12.697485611532462 0 0 0
671 2 36.95480404424303 12.690252483616037 7.709457396967475 0 0 0
510 2 20.861672004000805 3.7090764122905457 11.28099658287597 0 0 0
558 2 26.576942767905027 6.972674619802731 13.301581043985847 0 0 0
532 1 23.979779072268798 4.048393858412398 11.745908079553002 0 0 0
533 2 23.555385563537012 4.705448031577519 12.35338597877391 0 0 0
476 2 26.669977335122223 7.346767325279615 0.6426835009120753 0 0 0
556 1 26.14000213531167 6.210772400854337 12.839012154267678 0 0 0
557 2 26.8843787105613 5.7833267411525 12.405090667131503 0 0 0