LAMMPS data file via write_data, version 8 Apr 2021, timestep = 500000

384 atoms
2 atom types

0.06561746883206478 15.004480531168246 xlo xhi
-0.02703137259720051 14.197264372596814 ylo yhi
0.06721661973279648 13.638506380267765 zlo zhi
5.111480166174985 5.06359164122778 3.545528331863437 xy xz yz

Masses

1 16
2 2

Atoms # atomic

1 1 7.592241670058245 5.0598141232756335 4.166261151640055 0 0 0
2 2 7.250241682557643 5.938270201278502 4.484191397253403 0 0 0
3 2 6.815786456809062 4.570148718483697 3.788033607588754 0 0 0
4 1 9.871416822616274 6.798153371413348 10.62710707799618 0 0 0
5 2 9.447655696875524 7.680511915456959 10.915459117188083 0 0 0
6 2 10.239786030933182 6.358725990938438 11.434038530300318 0 0 0
7 1 9.847159451810718 12.31976251511963 4.142579302949822 0 0 0
8 2 10.256849713677964 11.790214608147847 4.900736381948974 0 0 0
9 2 9.82085383341514 13.26211033274345 4.34545489440084 0 0 0
10 1 12.420334593208013 13.979852216282632 10.797704590807843 0 0 0
11 2 13.19998923826842 14.151441979199856 10.233930866477138 0 0 0
12 2 11.669061037953204 13.564851694195248 10.266471668421598 0 0 0
25 1 11.438166649215423 8.177106042800864 6.137673405057886 0 0 0
270 2 12.644640704304575 7.996872117048559 10.01442477212472 0 0 0
27 2 10.947360137606696 7.6310525488389604 6.774685153876182 0 0 0
28 1 13.972239007927858 9.777296162396354 13.023573918076083 0 0 0
29 2 13.267593172442687 10.354044076583614 12.710741258695027 0 0 0
84 2 5.542417709111111 9.123487055231891 7.083740126690795 0 0 0
31 1 14.041646373733048 15.147576616944916 6.229181625245633 0 0 0
348 2 8.58495572687946 15.076388768319138 10.709358497516426 0 0 0
33 2 8.293157304489567 1.5377709858651045 5.846232254058713 0 1 0
34 1 16.606432813774916 16.965747097334603 12.841082317700202 0 0 0
276 2 14.754562314010364 14.198229060265506 8.803593958768568 0 0 0
367 1 9.774776449525918 14.774031544321236 5.386485944708637 0 0 0
49 1 5.474487856066618 3.6977576419741016 2.947338481815557 0 0 0
50 2 5.941051262829704 2.880420430778124 2.684332927996066 0 0 0
51 2 5.074271012055603 4.052586034894502 2.1490341850589587 0 0 0
52 1 7.732605205399901 5.439938066584079 9.423314037663769 0 0 0
53 2 7.0986315105554105 5.230263960131689 10.135703169202896 0 0 0
54 2 8.37277959010287 6.106391310990891 9.849964440279718 0 0 0
55 1 7.593757818777355 10.972290869165741 2.854795218044052 0 0 0
56 2 7.885456179879428 10.069159776858784 2.6083767810767364 0 0 0
57 2 8.365155454006935 11.414072051143648 3.2704894020397273 0 0 0
58 1 10.219504567854854 12.438308430412855 9.68349294551193 0 0 0
59 2 9.78570211907501 12.81980759962567 8.902469520198382 0 0 0
60 2 10.421026498689514 11.517409077292841 9.383640227725111 0 0 0
73 1 1.303550133536452 0.5629673971663334 0.5497180700022627 0 0 0
74 2 6.886839734104309 14.104461533550957 1.0543325930632228 0 -1 0
372 2 13.116242046657243 17.151359085722095 11.743421406542115 0 0 0
76 1 3.5586523707150244 2.6522257865284553 7.439002257483334 0 0 0
365 2 10.49856414064023 9.4273989158853 12.074412797394425 0 0 0
78 2 4.256098990948628 1.9780734240464704 7.714903517651814 0 0 0
79 1 3.8652994336292616 7.844937639662894 0.5360268976787824 0 0 0
80 2 4.548607236727381 7.452930939330578 1.0863365424992435 0 0 0
77 2 2.8898874969787003 2.049880727389353 7.11218306232474 0 0 0
82 1 6.201461194311783 9.68658554144391 7.547839303281802 0 0 0
366 2 8.97522573778313 9.746179697479255 11.737460347907867 0 0 0
268 1 12.029915093304327 7.808967699640461 9.328198519459688 0 0 0
97 1 5.2838150701018485 4.223711276059543 6.196975199321519 0 0 0
98 2 4.98195037991866 4.77355278412727 5.444222614311011 0 0 0
99 2 4.413269807001257 3.7635257096068515 6.515630123727512 0 0 0
100 1 7.963714017596881 5.7305155364901035 12.738741168570936 0 0 0
101 2 8.286284192244189 6.364625333582012 13.39500368311271 0 0 0
102 2 7.3655652712695 5.008464526567662 13.166584674056603 0 0 0
103 1 7.629181263228271 11.420230078628348 6.096968354003569 0 0 0
104 2 6.743325549379051 11.008829238845765 6.3578180641186055 0 0 0
105 2 7.514553674922233 12.011733350066748 5.315806677550628 0 0 0
106 1 10.45585923166554 13.06103991638774 12.607978144571868 0 0 0
107 2 10.690077652085172 13.765214909510318 13.275721585610256 0 0 0
108 2 9.640074418542289 12.575372561684432 12.96333294496987 0 0 0
121 1 3.0962763409899043 2.584791502147682 4.069921025967494 0 0 0
122 2 3.937831997563417 3.037332067792216 3.959861866368781 0 0 0
371 2 12.338539884011535 15.746828111053679 11.201897299661514 0 0 0
124 1 5.760521138929551 4.4821083351357744 11.119890240025445 0 0 0
204 2 13.265494763478543 10.721695820600234 9.110225457448035 0 0 0
126 2 6.198341575542146 3.583240367723341 11.21565681629367 0 0 0
127 1 5.562032980766692 9.870049346862862 4.347410878621791 0 0 0
128 2 5.852482464367753 8.95962845813524 4.64857378447251 0 0 0
129 2 6.398589208214515 10.299032721538088 4.07002318546378 0 0 0
130 1 7.959316772036558 11.582728877366169 11.305807604866155 0 0 0
30 2 14.708264112578327 10.365412537192807 13.334240975588296 0 0 0
132 2 8.741123417729485 11.922734832776522 10.78795098488779 0 0 0
145 1 6.834396245473636 2.221064745271179 4.945378405850368 0 0 0
146 2 6.366912278384987 3.0348556384686107 5.27621539535573 0 0 0
147 2 7.290160499449846 2.434688170993342 4.118501898449603 0 0 0
148 1 9.31941461667292 3.818491588099842 11.616350165891483 0 0 0
149 2 9.10066965459634 4.626916088320919 12.129828634711744 0 0 0
150 2 10.068407234278443 3.3413242866403086 12.08123233011077 0 0 0
151 1 9.058453184449718 9.315360646491852 4.873876301748046 0 0 0
152 2 8.747271985024378 10.101431067455575 5.351664304930453 0 0 0
153 2 9.834097416527854 8.993251762645803 5.370885845170774 0 0 0
154 1 11.69167886498095 10.76281388557444 11.949192873481365 0 0 0
155 2 11.195605079400458 11.591837102589448 12.225484139224085 0 0 0
156 2 12.000231241512406 10.934173035254545 11.066321483340747 0 0 0
169 1 9.075712860478026 4.451203003355926 6.247991626257895 0 0 0
170 2 8.421392255081084 4.788057468018304 5.606823943974703 0 0 0
171 2 8.568775477596452 3.8646927599515304 6.89149421238631 0 0 0
172 1 11.462879238823263 5.959101265737524 12.81956853498462 0 0 0
173 2 12.230483299456813 5.685338944964809 12.240973499409494 0 0 0
174 2 11.838678553342026 6.67139321141651 13.406407123931965 0 0 0
175 1 11.347102672289315 11.375264043810441 6.291428297032336 0 0 0
176 2 11.033653115885311 10.753296899672186 6.9724506973661375 0 0 0
177 2 12.037503353249985 10.92667127919391 5.7914408559878 0 0 0
178 1 14.142081528477043 13.278968048903728 13.069553108822605 0 0 0
179 2 13.391536804298312 13.442448591892068 12.443860885983392 0 0 0
180 2 14.810625107804267 12.776823103740835 12.52294679334565 0 0 0
193 1 8.340708190529082 2.9142786549047335 2.593587097265008 0 0 0
363 2 7.737915165713036 8.204152604747103 5.213018299220423 0 0 0
195 2 8.07776143196812 3.68146372857975 2.0094564272027484 0 0 0
196 1 10.925765392904797 4.33908682451185 9.552554263432896 0 0 0
197 2 10.173336580532837 4.2897471205307385 10.26443634019741 0 0 0
198 2 10.8070233400296 5.1694541273929 9.030525259276043 0 0 0
199 1 10.934706156656468 9.56695420574973 2.7439383457869777 0 0 0
200 2 10.8086466873417 10.383535693768694 2.144541158881977 0 0 0
201 2 10.253471083412386 9.548707697259491 3.469837040652427 0 0 0
202 1 13.109457268919169 11.414927493826799 9.78571048405847 0 0 0
203 2 12.825057608991521 12.168725535239876 9.267881336655234 0 0 0
123 2 2.6185657598626926 3.24193439688367 4.568640651793104 0 0 0
217 1 5.787157818631841 1.1025774316872634 1.6760430998345495 0 0 0
218 2 11.298147367319624 14.528623869919372 1.9760137885794087 0 -1 0
219 2 6.029655872275186 1.3305387491553637 0.7823267374016122 0 0 0
220 1 8.289220300163805 2.8725658496186384 8.440524484972046 0 0 0
221 2 8.15528772377557 3.6991041776188514 9.01143471296157 0 0 0
222 2 7.423308240420419 2.435810193898564 8.49736872767375 0 0 0
223 1 8.120439283866185 8.416296121643617 1.9017043529395516 0 0 0
224 2 8.859718707674132 7.930958530324921 2.2388292443442634 0 0 0
225 2 8.414091978504805 8.776942631181688 1.0388824660904672 0 0 0
226 1 10.540207084754595 9.873676589893643 8.323784891709337 0 0 0
227 2 11.125345446063918 9.062116098304116 8.487366912605518 0 0 0
228 2 9.6345873982695 9.528853137898675 8.39019832676605 0 0 0
241 1 7.164346182421662 4.694744655794968 0.7907541041509962 0 0 0
242 2 7.840435235100762 5.244400400694223 0.3060704583506576 0 0 0
243 2 6.666331436943494 5.387974096205376 1.3303389930623406 0 0 0
244 1 10.220569105811913 6.424795164558974 7.692137381919653 0 0 0
245 2 9.538207018235958 6.723001342824055 8.277673721994669 0 0 0
246 2 9.849396201485664 5.800416189151203 7.084381540552649 0 0 0
247 1 10.10855360476143 11.64620304939226 0.9553815087576055 0 0 0
248 2 10.716323023446533 12.2931493064372 0.49811349289727697 0 0 0
249 2 9.843112080996217 10.902481763930721 0.2969978628000822 0 0 0
250 1 12.385912192335361 13.632934342179263 7.533679728539665 0 0 0
251 2 12.95907233036209 13.90681777332061 6.841409167575595 0 0 0
252 2 11.885316115295865 12.862086965102753 7.163556796519332 0 0 0
265 1 9.748614845305633 6.148996475604128 2.715585763226116 0 0 0
339 2 3.4729483984023317 6.105190415112607 3.8409667064923574 0 0 0
267 2 8.994039540129169 5.755639014929139 3.1962111279408827 0 0 0
194 2 8.391810282281249 2.1861490471321283 1.9632645982732 0 0 0
269 2 11.285550441209423 7.36496307823389 9.73145062799021 0 0 0
364 1 9.551129643838383 9.0885505594156 12.111747386483687 0 0 0
271 1 12.218466862956834 13.015540335709234 2.4672032096302545 0 0 0
272 2 11.356458424594253 12.813500445571227 2.864791526917979 0 0 0
26 2 12.078137380982879 8.713603799802456 6.686909168395133 0 0 0
274 1 14.6369755719423 14.860530842674486 9.466108556109123 0 0 0
275 2 14.262191478858568 15.691187577040912 9.014271623060043 0 0 0
370 1 12.228912219911983 16.63124091411439 11.653429042782022 0 0 0
289 1 5.864651979025792 6.744816144081087 2.074217810954739 0 0 0
290 2 6.67889765063436 7.290339774039842 2.2274244271159436 0 0 0
291 2 5.460214867283297 6.493085832034952 2.9404025698565412 0 0 0
292 1 8.292330440739143 8.574459896121956 8.635207300639411 0 0 0
293 2 7.559458645547821 9.008700543277106 8.139302227501345 0 0 0
294 2 7.816349531120758 8.210613415851093 9.47095430578222 0 0 0
295 1 8.64202870862259 13.75651668337712 1.8823119434871074 0 0 0
296 2 9.096646220447404 12.944430695871592 1.6226351561079189 0 0 0
297 2 9.277975084518582 14.509358253010868 1.8989604654095609 0 0 0
298 1 10.756539338649457 15.602541040171827 8.498820942346358 0 0 0
299 2 10.530421319998021 15.405685458827742 9.435916792015206 0 0 0
300 2 11.084146703522233 14.74949747167834 8.150847572666216 0 0 0
313 1 3.8562146081019706 4.414787169207767 0.9261619651919492 0 0 0
314 2 4.100052197678 4.9032608737997965 0.1075377853235629 0 0 0
315 2 3.041825387562294 4.821953050966103 1.3366191059961914 0 0 0
316 1 6.120339952896985 6.523569245762969 7.484206198006444 0 0 0
317 2 5.767055481092678 5.644099190818421 7.125131345564519 0 0 0
318 2 6.7860187827468055 6.263915527619519 8.215500681256366 0 0 0
319 1 6.264984545066375 11.843797729552094 0.5647850025888668 0 0 0
320 2 6.8416951969643875 11.569116382423434 1.3166136486678632 0 0 0
321 2 11.931808739738834 15.576957244307973 13.39821789428688 0 0 -1
322 1 8.770378503065134 13.412941087432223 7.724987175694903 0 0 0
323 2 9.10062739529 13.929976237825496 6.979307333602304 0 0 0
324 2 8.236951680709238 12.678830257301795 7.351347668169502 0 0 0
337 1 4.369338066873863 6.206212044337729 4.246347509528914 0 0 0
362 2 6.767422910225199 7.349144089297408 6.10090509928446 0 0 0
368 2 9.266397317582562 15.43009148181181 4.855958250763788 0 0 0
340 1 6.890800204457268 7.881558707881616 11.308122854164537 0 0 0
338 2 4.358997802277547 7.009444970039817 4.80737745936263 0 0 0
342 2 7.143472275142319 7.136066175359956 11.823291345264286 0 0 0
343 1 7.2205201216228145 13.382806260478588 4.293909251950805 0 0 0
369 2 10.68740930435513 15.192768008928734 5.217228328764712 0 0 0
345 2 7.752770204470647 13.701465801376548 3.5393728989589475 0 0 0
346 1 9.467008715342297 15.057409228472338 11.171014006645803 0 0 0
347 2 9.59882194313193 14.149731200022376 11.547900562602212 0 0 0
32 2 14.541933335427151 15.805461237645517 6.782210039745237 0 0 0
361 1 6.9653490521941155 7.592016486887754 5.199161338220708 0 0 0
341 2 6.777949449308679 8.691415254326152 11.89952336091586 0 0 0
344 2 6.285712631665327 13.30213309237638 4.008273372358029 0 0 0
266 2 10.449843231200418 6.290067012766377 3.3157271955306666 0 0 0
89 2 10.853760745911057 3.1375192134655125 8.149812337522816 0 0 0
131 2 7.297704661537331 11.399546364598697 10.578563769030183 0 0 0
125 2 5.059829984289427 4.274237544646307 10.487907562074664 0 0 0
75 2 1.0802732558356039 1.1929682943146487 1.3194758693942668 0 0 0
47 2 9.551683793427989 16.147090663443777 12.429884410077836 1 0 0
35 2 12.06048454932334 3.443758747665959 13.137530374799255 0 1 0
273 2 12.867400557769837 13.256637317675299 3.1710776097464906 0 0 0
134 2 10.107986071207606 3.540016941993286 5.00050151353628 0 0 0
288 2 7.799635327535213 14.570682174851163 8.773311289491765 1 0 0
45 2 7.063991264820898 14.641496046627282 5.452230919379723 1 0 0
13 1 14.894718313432303 4.98196518388028 4.0190344046136355 0 0 0
14 2 14.041784690739865 4.604540002224585 3.736049155339082 0 0 0
15 2 15.24144085023665 4.527372280770382 4.841018516261381 0 0 0
16 1 17.313659728661154 7.101346858539058 10.711232878538683 0 0 0
17 2 16.572469212848695 6.481549059131176 10.461438406987313 0 0 0
18 2 17.916995977074173 7.287531815605096 9.981980999998893 0 0 0
19 1 17.421303612263014 12.529674849555967 4.258445028333565 0 0 0
20 2 18.235009684595244 12.516156896537792 3.6351216669635487 0 0 0
21 2 16.643329379900266 12.126479210642742 3.9401601168298943 0 0 0
22 1 19.878017735207656 13.973439633451498 10.866258105891106 0 0 0
23 2 20.597380440945045 14.062928004010558 10.230161419951285 0 0 0
24 2 20.434040627313347 13.686712537975431 11.69767822861863 0 0 0
37 1 19.020186944892398 7.983815063076591 6.209492676166059 0 0 0
38 2 18.32142981202628 8.480968730814338 5.75627522235779 0 0 0
39 2 18.526127386155732 7.37472672961434 6.7976128095075925 0 0 0
40 1 21.449763066383408 9.937638267470506 13.334470227304708 0 0 0
377 2 17.182873168147083 8.768744034571295 11.117761827357235 0 0 0
42 2 20.969468049482405 10.65241418154602 12.831040984170826 0 0 0
135 2 9.76077962845909 2.977271051416106 3.5229477029296805 0 0 0
44 2 15.837971584568736 1.6243797822087185 5.833419224127824 0 1 0
384 2 19.673521935554266 15.620581216644721 11.323207907444381 0 0 0
46 1 24.125686984060195 16.895333238192627 13.020904602327994 0 0 0
383 2 19.532282994242728 16.424994539683464 12.58736928235934 0 0 0
138 2 12.39835595903422 4.4355998085888135 10.382795843583063 0 0 0
61 1 12.73989436346077 3.6079940078655164 3.0956012309012064 0 0 0
62 2 11.932982602791915 3.5603463269203504 3.6399913922301828 0 0 0
63 2 12.429457247902805 4.102321744376957 2.2939803080643184 0 0 0
64 1 15.23080957181972 5.478497683634951 9.66184499994009 0 0 0
65 2 14.806278597131435 5.918414786443812 8.862259335401411 0 0 0
66 2 14.491850493372 5.095468684272751 10.181856512574793 0 0 0
67 1 15.328776954909626 11.093723824517578 2.777764454898364 0 0 0
68 2 15.56424254954497 10.256877265018115 2.365338390484943 0 0 0
69 2 14.567512695240742 10.860796169536254 3.3831802419217953 0 0 0
70 1 17.756548965383057 12.522397778074941 9.727146595183495 0 0 0
71 2 18.563713557232887 13.013121701912192 9.915951281309981 0 0 0
72 2 17.94495042207112 11.558789359302777 9.555047714009259 0 0 0
85 1 8.635583269359705 0.9758637252068767 0.7317981806389123 0 0 0
86 2 9.301680819084375 0.4216331630843582 1.0796320882959147 0 0 0
87 2 14.143193208744869 5.066225660897631 13.58744873116189 0 0 -1
88 1 11.101059371504721 2.569492265220041 7.418307483137833 0 0 0
382 1 19.652775120094933 16.547053569731684 11.615915881791928 0 0 0
90 2 11.87828227243421 2.047176194324679 7.7368638275023764 0 0 0
91 1 11.351697097524477 7.9266865609701656 0.6136799928745547 0 0 0
92 2 12.286633469601774 7.705280865160939 0.724837032705626 0 0 0
376 1 17.212382992219393 9.466550157168493 11.811288562108391 0 0 0
94 1 13.431579067258458 9.747150544110669 7.6211472220752245 0 0 0
95 2 14.14813191686111 9.22196569116987 7.9006471100893085 0 0 0
96 2 13.802760385314665 10.281488600735647 6.912440289953727 0 0 0
109 1 12.645205987906573 4.1651982521941875 6.137702416251292 0 0 0
110 2 11.873196023304606 3.5862342509654903 6.539732856775703 0 0 0
111 2 13.261517223353556 3.493077614545789 5.76609612137928 0 0 0
112 1 15.358456485211832 6.033962564169941 12.736073775939907 0 0 0
113 2 16.00885713786705 5.468417013965689 12.36607767062391 0 0 0
114 2 15.808736963026563 6.6564234616142315 13.299715997606192 0 0 0
115 1 15.4293738429288 11.142020242620836 6.080460666732815 0 0 0
116 2 15.10031727259925 11.7569067905075 5.375479108290306 0 0 0
117 2 15.645274732242454 11.716365769637422 6.846966541871187 0 0 0
118 1 18.08929681050004 13.271023139352073 12.953867272285192 0 0 0
119 2 18.413850700934567 13.960288096253828 13.603787523419212 0 0 0
120 2 17.30710351332924 12.773152498454753 13.38378781258308 0 0 0
133 1 10.504834222995092 2.9736375322795423 4.244188548864236 0 0 0
281 2 20.230678589098588 7.806220305600968 10.22616645080254 0 0 0
350 2 12.070209786092883 6.978449139412451 4.998437370648455 0 0 0
136 1 13.245719292262232 4.350023476380402 10.906435713204427 0 0 0
137 2 13.463118309910922 3.404315178751855 11.104948032625128 0 0 0
360 2 16.09281190124836 14.720415190675801 10.571996330207142 0 0 0
139 1 13.055341922609038 10.089048867414718 4.270703091503497 0 0 0
140 2 13.43065533208129 9.249358421468582 4.556165036046398 0 0 0
43 1 21.487970188192964 15.094795430614635 6.238380206917829 0 0 0
142 1 15.706776805293604 12.008169683108656 11.283403691210056 0 0 0
143 2 16.573343346432818 12.178798340416819 10.78027267147246 0 0 0
212 2 19.14829173370924 10.037575876873595 3.155803924354047 0 0 0
157 1 14.53298047178865 2.228193235562512 5.13652160334122 0 0 0
158 2 13.669739781622859 1.7375437977640755 5.265631512630156 0 0 0
159 2 14.709684377822255 2.2061888667000757 4.22238183216183 0 0 0
160 1 16.89394779352901 3.911866252687366 11.748268882033853 0 0 0
161 2 16.30116870309424 3.1727422638664775 11.541073026960138 0 0 0
162 2 17.662576134212298 3.5543699335305923 12.245592085588443 0 0 0
163 1 16.929270484045137 9.213935808826465 4.971368853853804 0 0 0
164 2 16.21524896275028 8.502889561833438 5.067933577491639 0 0 0
165 2 16.494913182101094 9.998049251796118 5.35860423664989 0 0 0
166 1 19.330573903702454 11.189750439515004 11.93071460708547 0 0 0
167 2 18.687855132983827 10.430374254469816 11.781058558611674 0 0 0
168 2 18.815827684789724 11.958607966818535 12.284298694326196 0 0 0
181 1 16.567257189008004 4.232152156656625 5.929664320431816 0 0 0
182 2 16.253850497822423 3.8445248970819317 6.714284662474623 0 0 0
183 2 16.793029332319975 5.141644327128795 6.2093407238744724 0 0 0
184 1 19.11717535814016 6.065927878338063 12.699739643298413 0 0 0
185 2 19.85618169383828 5.541717187056468 12.26635525021134 0 0 0
186 2 18.488827171417803 6.272112511672609 11.987397618306863 0 0 0
187 1 18.938637740371544 11.483681868080254 6.245729864054557 0 0 0
188 2 19.55780428400857 11.012311183223181 5.5809257338208385 0 0 0
189 2 18.26815521573324 11.821764508447751 5.580014374905042 0 0 0
190 1 21.41228121547997 13.116112313609424 12.910021724321824 0 0 0
191 2 22.024359200257276 12.599185126140942 12.33813789505536 0 0 0
192 2 21.89164437458244 13.956752596335809 13.240028061383295 0 0 0
205 1 15.57865344535754 2.225591304284083 2.526531427244593 0 0 0
206 2 16.506045870898546 2.351091046420386 2.783451824925099 0 0 0
207 2 15.31814405410801 3.0663130470057207 2.0373226600452927 0 0 0
208 1 18.26597809801464 4.405060718340767 9.517419939012813 0 0 0
375 2 14.405748130891315 7.489837608219551 6.124884981030454 0 0 0
210 2 17.676105049588493 4.196324920449323 10.270048292552689 0 0 0
211 1 18.311422686175728 9.953081505630585 2.578177547921313 0 0 0
378 2 16.487838395997805 10.166214676277807 11.691784675584135 0 0 0
213 2 17.660585037639635 9.617194398127534 3.198060039458071 0 0 0
214 1 20.88102216377097 11.107158597622078 9.676744443234886 0 0 0
215 2 20.213749339352365 11.226752834895786 10.409896589553862 0 0 0
216 2 20.645786042551556 11.882801782081065 9.083128213603155 0 0 0
229 1 13.030179150681274 1.1497417120028488 1.636348435296382 0 0 0
230 2 13.124070621427487 1.975851707819966 2.1346323290666858 0 0 0
231 2 13.44577273814243 1.355118193385794 0.77611017515477 0 0 0
232 1 15.600507923975771 2.8119151717859054 8.45944456031594 0 0 0
233 2 15.581567248951629 3.6928263179514023 8.90286182075262 0 0 0
234 2 14.706860735019319 2.481362466142875 8.56355304042833 0 0 0
235 1 15.819926426194636 8.530523319623976 1.8263012002105752 0 0 0
236 2 15.708333602326352 8.666167294474864 0.8419235712859616 0 0 0
237 2 15.112670190570073 7.927365197770994 2.027928308513072 0 0 0
238 1 17.88121407790579 9.940650198193422 8.640187934052586 0 0 0
239 2 18.580928539484574 9.315571170882425 8.960545471035454 0 0 0
240 2 18.317658518300014 10.302844556359478 7.776896664749398 0 0 0
253 1 14.978565944352715 4.415543560033727 0.966011161374188 0 0 0
254 2 15.680467159780555 5.0717513994767796 0.7025839691123209 0 0 0
255 2 14.65400205582853 3.854320977112107 0.20390907715592485 0 0 0
256 1 17.38752235044868 6.436403107619247 7.646840619787694 0 0 0
257 2 16.75638446637692 7.130131001385811 8.017779122561338 0 0 0
258 2 17.905158778221693 6.035132048387403 8.30854681497059 0 0 0
259 1 17.452901400045768 11.581696189052812 0.6587707000106167 0 0 0
260 2 18.122972249377984 12.10678126509522 0.13795766551501726 0 0 0
261 2 17.921941088975462 11.052712381215544 1.4162615686513433 0 0 0
262 1 20.21070878314068 13.2934721673858 7.893679246865596 0 0 0
263 2 20.759551822692064 13.975173929786381 7.414959367685796 0 0 0
264 2 19.69406296902383 12.792166135879578 7.241028056740161 0 0 0
277 1 17.17913865978503 5.872501232311446 2.637798283889967 0 0 0
278 2 16.41885522336422 5.442253806210772 3.128794208722568 0 0 0
279 2 16.863565114102478 6.690577956515142 2.27981983878206 0 0 0
280 1 19.58145861743992 7.821812527795547 9.496287949239825 0 0 0
284 2 19.288782114752884 14.031446420005498 2.4422997350187092 0 0 0
141 2 12.275525525573789 9.882762767704188 3.703946737400984 0 0 0
283 1 19.68508070944255 13.185998621486139 2.842227901326475 0 0 0
209 2 18.150347634788467 3.708922999313233 8.839930523250466 0 0 0
381 2 17.217099599463317 14.145607879562393 5.141560008937467 0 0 0
286 1 22.287749972540425 15.027373131754958 9.515135680978343 0 0 0
287 2 21.85144602908927 15.849727688719868 9.180457369674581 0 0 0
380 2 16.408149873875633 15.386893759476646 5.636620741514366 0 0 0
301 1 13.52267355349211 6.799415578674529 1.7363403428499289 0 0 0
302 2 13.90313677162478 5.951321372221964 1.431811538590412 0 0 0
303 2 13.24382124446496 6.5916941323221465 2.613278149008794 0 0 0
304 1 15.66972342156631 8.458813063836743 8.480949659948225 0 0 0
305 2 15.37414558234719 8.254422579033266 9.361434471933368 0 0 0
306 2 16.357391418842287 9.177531318205336 8.578496090187318 0 0 0
307 1 15.872105059343586 13.757266184282498 1.6775462551536973 0 0 0
308 2 16.53529947560433 14.513186935035645 1.7049044757438752 0 0 0
309 2 16.383316898365624 13.01212374874305 1.4155850515332675 0 0 0
310 1 18.178359802609524 15.388833287265538 8.596494469797394 0 0 0
311 2 18.782465283057576 14.69681098862926 8.334341227103181 0 0 0
312 2 18.03830093197682 15.201129755386864 9.574353484295662 0 0 0
325 1 11.35168549104889 4.651347406687965 0.7614300197797925 0 0 0
326 2 10.702923425734792 5.152404489196346 1.2649227997513959 0 0 0
327 2 11.741324821677 5.2181913342761055 0.08324281847626898 0 0 0
328 1 13.833450166455208 6.407966389237596 7.5974631800423715 0 0 0
329 2 13.133037025429177 6.904483811590603 8.083829234268135 0 0 0
330 2 13.41573026897152 5.549935063730133 7.124611575987079 0 0 0
331 1 13.96087825030314 12.031365599952743 0.588485513219236 0 0 0
332 2 13.188228840482358 12.458219640843552 1.0443347772995286 0 0 0
333 2 14.498713307689624 11.772564071056017 1.3643443268877655 0 0 0
334 1 16.154635852050674 13.32682847192205 7.720842832283212 0 0 0
335 2 16.870089535232864 13.284228931695827 8.389400993300223 0 0 0
336 2 16.412728173476392 14.066239013631577 7.138195813435214 0 0 0
349 1 12.033216440331111 6.167163325959107 4.383558140636392 0 0 0
356 2 14.336443468966648 14.035008464681933 4.695032771461887 0 0 0
351 2 12.271077563065921 5.419982728239542 4.966952979965963 0 0 0
352 1 14.295026283430959 8.059332556932723 10.931028499640835 0 0 0
285 2 19.96784603898695 12.65492921685375 2.076773026649193 0 0 0
354 2 14.394511440647634 7.123500128093659 11.281208189907327 0 0 0
355 1 14.298655742937482 13.441281091139734 3.9092252426221266 0 0 0
83 2 20.796704346787365 10.059050450136583 8.359879020819836 -1 0 0
357 2 15.087512658815236 13.590996583812657 3.3566092352432855 0 0 0
358 1 16.963494917119476 14.934791395368054 10.972006372721726 0 0 0
359 2 17.35570091972682 14.199666934484759 11.559982711590372 0 0 0
379 1 17.241715135893482 14.959558680701074 5.668257819220338 0 0 0
373 1 14.516250542452939 7.806447047744446 5.226038676538371 0 0 0
374 2 14.533982328079173 7.02788135877528 4.682453742362166 0 0 0
41 2 22.335031868915102 10.273741524321682 13.568188985701548 0 0 0
282 2 20.105561525538747 7.514885572687714 8.724917635961614 0 0 0
353 2 14.212905603795232 8.621868089167883 11.737589095169541 0 0 0
36 2 16.930259982191842 16.230636326012306 12.20313803978575 0 0 0
144 2 14.925294727677443 11.966605845369601 10.628653287836144 0 0 0
93 2 11.07518413084718 8.532753590464713 1.286152677702087 0 0 0
48 2 24.886256628808674 17.28224311899396 13.465500800507154 0 0 0
81 2 18.360846038431717 8.533396584376256 1.1757180343461684 -1 0 0

Velocities

1 3.096146509738725 0.9157949832655017 -2.4739192699895853
2 3.823237262866658 8.843475269718223 -19.75659952829428
3 -3.480089332125317 -0.24296649836471038 15.15595983265417
4 -1.665194073080835 -2.912586436099161 2.517425469101665
5 -10.159394357110541 19.578760624807174 7.047762116115528
6 0.9686765014434087 -7.3757739516375125 9.299236335992294
7 0.6166486267835032 1.8735410217151818 1.8345494425663345
8 6.656546979545274 -3.1869916384400967 -15.376159862107903
9 -4.602308914482772 8.144926166606812 9.432277799768567
10 -0.8597007747910581 0.17202971584835283 -2.9434319728012723
11 19.899283553637076 -2.570254203401398 -10.123476098805964
12 7.138056322122665 14.40469001959545 -0.2065522496262887
25 -3.1617767953804616 3.570425056294664 -0.35754897437124017
270 7.9177502087790534 -10.83997865421825 -7.688220791119647
27 9.947988912135957 -9.177467465635802 -12.831075469805457
28 -3.2780666441912256 -1.5024325506018845 1.0479749650370562
29 2.824930048280649 -6.970932197484678 -13.30685033739406
84 -25.31666773729833 -2.6622886862814337 0.21573296334016706
31 -6.834104938606172 2.5492969784040187 4.508465374516673
348 5.6358368774220295 2.8412390013198157 -17.44882875614738
33 2.6372087442064336 7.255004735836822 -23.16701747546022
34 -2.1078549571028917 5.230903761549309 -5.086004524425816
276 8.374311100369434 -10.233833984891922 -3.436148401370338
367 2.4539683964498096 2.1490285769834565 2.0052339402208776
49 0.6355218008246322 3.3686710680950274 2.451834597007882
50 1.1513097145260602 -13.094175353345927 4.713822122387384
51 -6.592124803055797 0.5973026497751106 -3.488242646091426
52 4.236024967520698 -0.23351681743744274 -7.1545048954490404
53 12.100343563181747 -2.88370911858179 2.809706731956781
54 3.0362022867401564 -5.550554254567559 -12.873435391048961
55 -2.6246833310376676 -0.6419192739535649 6.926650147663255
56 9.298309749741273 12.747395728271568 12.157438187446324
57 3.0584737962900057 -13.60629122733298 7.180452204535072
58 5.895456828386722 -5.71017246862837 3.7051889285809962
59 -22.901320357855486 -11.627025178135607 0.3255456878248202
60 -12.969999490418777 7.153997051137898 -9.571187156625482
73 -1.420600475514326 -0.19699425817796362 -4.093532946432554
74 -3.664914149382154 12.938308426333402 -4.948229020575533
372 0.7829394623354331 11.396521438154751 9.714592804579445
76 1.162613542678018 -4.50390782376191 -1.439637171605727
365 6.113640919305768 -6.5353621793189465 -3.916797647329278
78 -18.312051007448357 -5.042755743822515 -18.727300727090878
79 5.403289335926798 1.8387426621655152 -3.5632281655320526
80 -3.1501027975644904 -13.95031127699396 4.084446647543572
77 -8.3817129291533 5.451316455250654 -10.15062857107721
82 3.5424502200439374 -10.081579311744404 2.1382762996387017
366 -13.12923586962944 -6.912799256643956 -7.887323638521165
268 7.465485782960369 1.668697232343574 0.11627247987845736
97 -4.64898680244921 2.2378136622213156 -1.9045059046234407
98 -5.26593950577892 -4.451529021847672 12.848756571300415
99 -9.242319516953419 -13.565399376436302 24.13628775625149
100 -5.116332806527394 6.198064016931946 -1.8530059961796832
101 5.293417155064756 11.68917197292051 5.979711570065463
102 17.84748505904008 0.40741085991615705 2.4230011120481656
103 0.685547786931532 -1.0362689134339886 -0.9193018675173674
104 -2.8244878877594806 -25.51780004294884 1.6829356308565677
105 12.083456213764276 9.634582233431127 -21.80798609336636
106 -3.9527666932526087 1.7179901059747231 -6.358707448022739
107 -21.24479216184108 4.150394160315559 -0.28675456724408577
108 10.888308512549674 15.265897060446699 -12.113171976984415
121 0.7977816827089235 3.318132573491701 3.0132575108774864
122 2.5958295210058004 1.5506842468077782 -12.913786348478881
371 4.944589338068167 3.517196951717633 6.583980819764715
124 -3.945760837262273 1.01925850879379 2.7189406371096543
204 8.157523740260647 3.2560236789833494 -11.84396050374416