LAMMPS data file via write_data, version 15 Apr 2020, timestep = 1163000

1920 atoms
2 atom types

6.0921712546509355e-02 2.4663483287456220e+01 xlo xhi
6.4538633275436297e-02 2.4659866366727499e+01 ylo yhi
-1.6258680872716980e-02 2.2808630680872177e+01 zlo zhi
4.0260949991399786e-02 1.1865851797936540e-01 1.2061365334145126e-01 xy xz yz

Masses

1 16
2 2

Atoms # atomic

1 1 4.6410316704806887e+00 1.4811097371014361e+00 4.1422591495650938e+00 0 0 0
2 2 5.4718005731115316e+00 1.4315311603445451e+00 3.6270906973071955e+00 0 0 0
3 2 4.6887905635107323e+00 6.9084557977759276e-01 4.8076529853344097e+00 0 0 0
4 1 2.9714183789743780e+00 1.3021332113644992e+00 2.2629543269958945e+00 0 0 0
1347 2 5.4695030555235133e+00 7.1653403180718644e-01 1.2652020647945122e+01 0 0 0
6 2 3.5632734738486547e+00 1.2874893341825344e+00 3.0452205365135199e+00 0 0 0
7 1 6.2194344448024346e+00 4.8403452508514206e+00 3.4903101114786823e+00 0 0 0
8 2 5.2872647954333694e+00 4.5214888603837338e+00 3.2435601662520073e+00 0 0 0
9 2 6.5802826433546553e+00 4.1287730237039391e+00 4.0286061981602215e+00 0 0 0
10 1 3.4933970687489460e+00 4.6293012179943007e+00 3.5373441155831458e+00 0 0 0
11 2 3.1453362362054498e+00 3.7469504235485065e+00 3.8946319130166471e+00 0 0 0
12 2 2.9656019196403620e+00 5.2655173405272011e+00 4.0593039299751563e+00 0 0 0
13 1 1.5769464106545654e+00 2.7643326610995120e+00 4.8416913067635416e+00 0 0 0
14 2 1.5608392544282985e+00 1.7359123469294711e+00 4.8477635597491213e+00 0 0 0
15 2 1.7366612787134887e+00 3.1732122745788049e+00 5.7131690542438340e+00 0 0 0
678 2 1.2083679406595245e+01 6.9306548916665305e+00 7.2617861696637958e+00 0 0 0
17 2 1.1014530567827372e+00 1.4571699781317795e+00 2.1814106386991177e+00 0 0 0
19 1 4.6020269277936627e+00 3.3537688406669850e+00 9.2593777939998068e-01 0 0 0
20 2 3.8427532163675573e+00 2.8771593115715768e+00 1.3621454801578623e+00 0 0 0
21 2 4.3503985891863506e+00 4.3260364033060670e+00 9.2347823580233268e-01 0 0 0
22 1 1.4831433864348549e+00 4.4670890803788463e+00 1.4784515866754713e+00 0 0 0
23 2 2.3514815262979121e+00 4.4945314060184129e+00 1.9546110530486320e+00 0 0 0
24 2 1.6174543659889988e+00 3.6937764731299563e+00 8.1142648053660060e-01 0 0 0
25 1 4.3775654830792066e+00 6.1314597313978654e+00 1.0008861114653544e+00 0 0 0
26 2 3.7190109270458920e+00 6.6581466288265103e+00 1.5265338296402016e+00 0 0 0
27 2 4.3160020020724792e+00 6.5335982297612283e+00 5.9832738148732342e-02 0 0 1
578 2 6.4178514942965348e-01 5.2905998512647709e+00 9.7080208864888125e+00 0 0 0
31 1 1.1057286007505713e+01 1.9571195489399396e+00 4.2622499697225287e+00 0 0 0
32 2 1.1059214500871599e+01 2.6381702887220158e+00 4.9398404292562192e+00 0 0 0
1856 2 1.0304419707345112e+01 6.7966609811889700e-01 1.8061150827381091e+01 0 0 0
34 1 9.4043660936423255e+00 1.8066938155619856e+00 1.9748512862473377e+00 0 0 0
58 1 7.5982853055399735e+00 3.2257520428009950e-01 5.0916365741716278e+00 0 0 0
36 2 9.8651789843350119e+00 2.5135911335843599e+00 1.5128694280626194e+00 0 0 0
1576 1 4.3552668134602457e-01 7.9438880061467643e+00 1.9071898465754593e+01 0 0 0
39 2 1.1192576122480000e+01 4.9327257497172665e+00 3.5093491746553616e+00 0 0 0
40 1 9.5527157586539193e+00 4.9265509200855755e+00 3.5286292838488906e+00 0 0 0
41 2 9.2096026772537662e+00 4.9675731149723754e+00 2.5836298682596732e+00 0 0 0
42 2 9.0639226746087065e+00 4.0812074291944347e+00 3.9159254690054333e+00 0 0 0
43 1 7.6556983578734066e+00 3.0768550265730554e+00 4.9764144810064606e+00 0 0 0
44 2 7.8773880485302987e+00 3.4744765369343273e+00 5.7952249845120258e+00 0 0 0
45 2 7.6580298222226268e+00 2.0884599813150571e+00 5.0633647149685359e+00 0 0 0
46 1 6.5828197329212310e+00 1.5891393468177897e+00 2.1010513442075545e+00 0 0 0
47 2 7.5360622369499639e+00 1.6748347739333105e+00 1.9787617336419858e+00 0 0 0
48 2 5.9859792180091214e+00 2.2790049626693256e+00 1.7434906008846081e+00 0 0 0
49 1 1.1015874657415065e+01 3.2852881177566160e+00 4.4504055428162081e-01 0 0 0
50 2 1.1821318798368949e+01 2.9022382148114816e+00 8.7943926984810505e-01 0 0 0
51 2 1.1005540234900231e+01 2.9384785114234702e+00 2.2408716996600170e+01 0 0 0
52 1 7.8807925589782117e+00 5.0521227351296343e+00 1.4150624011145954e+00 0 0 0
53 2 7.6740139019057478e+00 4.2104405756784047e+00 9.3831084861697422e-01 0 0 0
54 2 7.1853864032931938e+00 4.9241177337851942e+00 2.2161906510349851e+00 0 0 0
55 1 1.0767131232384378e+01 5.9975538135864674e+00 4.5020499844544937e-01 0 0 0
56 2 9.8715606517567256e+00 6.2580514842541222e+00 8.1315948913470582e-01 0 0 0
57 2 1.0735111601682922e+01 5.0279439933583427e+00 3.6373077107724466e-01 0 0 0
197 2 1.1923310373228295e+01 8.4493010036730531e+00 1.4484835382082553e+00 0 0 0
614 2 8.8408310525843903e-01 9.4494754544156923e+00 1.0427191353743895e+01 0 0 0
1608 2 7.3309753326563003e+00 7.9186846426203052e+00 1.9452386786524670e+01 0 0 0
531 2 1.0754142143281403e+01 4.3488094464177545e+00 6.6174060494980038e+00 0 0 0
121 1 4.6117464406503279e+00 7.6136055627534143e+00 4.1433939517985827e+00 0 0 0
122 2 5.2365442860233653e+00 7.6475168836615417e+00 3.3430538115338004e+00 0 0 0
123 2 3.7771442330218523e+00 7.4437368802848276e+00 3.7138041049182480e+00 0 0 0
124 1 2.9169262020508251e+00 8.0168848350743076e+00 2.0054623899572794e+00 0 0 0
125 2 3.3084871395620858e+00 8.5714456015581195e+00 1.3292974366780121e+00 0 0 0
126 2 1.9423901510667645e+00 7.9726225011164100e+00 1.8322880359005544e+00 0 0 0
127 1 6.1115273780848316e+00 1.0786829229855062e+01 3.2795918901724113e+00 0 0 0
128 2 6.4749854887597795e+00 1.0185031605935556e+01 3.9823146918945573e+00 0 0 0
129 2 5.1503396221833571e+00 1.0602323515862329e+01 3.4438203158262914e+00 0 0 0
130 1 3.3336738605285379e+00 1.0614610032808239e+01 3.3836674833989124e+00 0 0 0
131 2 2.9581445699847482e+00 9.8211797238267593e+00 3.7757838463474589e+00 0 0 0
132 2 2.9413990235213934e+00 1.0643202864532935e+01 2.4850490587292970e+00 0 0 0
133 1 1.4744133106323603e+00 9.0082955872950130e+00 4.7823575085727388e+00 0 0 0
134 2 1.5696294068430241e+00 9.2205515785790180e+00 5.7369932406705217e+00 0 0 0
135 2 7.8968991578235437e-01 9.6525901176145048e+00 4.4989128789092705e+00 0 0 0
558 2 1.2314666209617910e+01 2.0250240596120515e+00 7.3525228594337744e+00 0 0 0
139 1 4.9119613304898415e+00 9.5694730543882773e+00 5.9173328843013673e-01 0 0 0
140 2 4.8786046485912573e+00 1.0535301427282944e+01 6.3874412226194199e-01 0 0 0
141 2 5.6138783844226063e+00 9.2442529657330734e+00 1.1288740828139145e+00 0 0 0
142 1 1.4818698772621310e+00 1.0961492785603385e+01 1.4779662221602574e+00 0 0 0
143 2 1.4998471810806240e+00 1.0245823133661480e+01 8.7164525067628196e-01 0 0 0
144 2 1.5483961457744440e+00 1.1808879595153313e+01 8.8045380289421771e-01 0 0 0
538 1 7.7150425755193295e+00 1.4889274549868636e-01 1.0629075785671297e+01 0 0 0
148 1 1.7852913504268255e+00 6.1959809262616137e+00 4.7722655543693273e+00 0 0 0
98 2 2.2211708757354254e-01 4.4040946779539754e+00 2.7173574047726379e+00 0 0 0
150 2 1.5302906775538343e+00 7.0879458366138177e+00 4.6796592932950052e+00 0 0 0
151 1 1.0888928293920872e+01 7.7106845717154950e+00 4.0775025771115763e+00 0 0 0
779 2 8.6745569532827425e+00 1.2326701266520960e+01 1.0256444921156660e+01 0 0 0
153 2 1.0736011692080915e+01 8.5167784342688861e+00 4.6355094104924861e+00 0 0 0
154 1 9.1050635403826643e+00 7.7164097952154709e+00 2.0118689474648406e+00 0 0 0
155 2 9.5784125757811225e+00 8.3387075489424536e+00 1.4036640707454362e+00 0 0 0
156 2 9.7914849449751618e+00 7.6841422533481385e+00 2.8019399103891485e+00 0 0 0
1615 1 1.0946230323532392e+01 1.2165009194911452e+01 1.8124315418811520e+01 0 0 0
158 2 1.1197931713909956e+01 1.0551567814830776e+01 3.6678076485662019e+00 0 0 0
160 1 9.4706487627342391e+00 1.0664209489854279e+01 3.4536431154010212e+00 0 0 0
161 2 9.0061090431187250e+00 1.0698319120352402e+01 2.5498942090214034e+00 0 0 0
162 2 9.1362190354080184e+00 1.1459784324587705e+01 3.8757357107734483e+00 0 0 0
163 1 7.5918565136196987e+00 9.1375645799366616e+00 5.1469903667012948e+00 0 0 0
164 2 7.7842717365949268e+00 8.2044322777876886e+00 5.1782882340451142e+00 0 0 0
165 2 8.1358140525870155e+00 9.4720562341801369e+00 4.4193265471050545e+00 0 0 0
166 1 6.3244241524044806e+00 7.6778496653700783e+00 2.1018474801859224e+00 0 0 0
167 2 5.9178228143650857e+00 6.9393666552434992e+00 1.6722156495895102e+00 0 0 0
168 2 7.2707630053141585e+00 7.5794730634362173e+00 2.3350111783173539e+00 0 0 0
169 1 1.0839333343528910e+01 9.4721231801323729e+00 6.1858022431881909e-01 0 0 0
170 2 1.0719388693306390e+01 1.0443554286426021e+01 7.5782171231252737e-01 0 0 0
171 2 1.1038720307013870e+01 9.4916352833396243e+00 2.2469536833516703e+01 0 0 0
172 1 7.9448013797944954e+00 1.1038893006692922e+01 1.1983154950504422e+00 0 0 0
173 2 7.1929154115391238e+00 1.0944535707694975e+01 1.7878855791446444e+00 0 0 0
174 2 7.8519871727422998e+00 1.0396976004274869e+01 4.4371397359060183e-01 0 0 0
699 2 4.2167064260102738e-01 1.1674801583866287e+01 9.5517542087080862e+00 0 0 0
178 1 7.9038996691189203e+00 6.3383305814086057e+00 5.1772749219433827e+00 0 0 0
179 2 7.1157695731804704e+00 6.0444732310437965e+00 4.6541338635185436e+00 0 0 0
180 2 8.5813890779318989e+00 5.9230426622983678e+00 4.6345416861380446e+00 0 0 0
579 2 4.7987714601122589e-01 4.6449043882123897e+00 8.2625974980725374e+00 0 0 0
145 1 5.1388904910431243e+00 1.2085246171836166e+01 6.0288963596810496e-01 0 0 0
1477 1 1.2088974685307676e+01 5.0915124419735314e+00 2.0403690918071629e+01 0 0 0
1589 2 1.0386946856232242e+00 5.8191329172528725e+00 2.1572573733391256e+01 0 0 0
1619 2 7.9714236566929175e+00 6.2923148770602344e+00 3.0265154512418957e-01 0 0 1
495 2 9.8475936237120143e-01 3.2992313738603882e+00 9.9550253652982370e+00 0 0 0
1618 1 8.1336375303929209e+00 6.7140167959801786e+00 2.2182649683280186e+01 0 0 0
1117 1 1.2077070019154650e+01 1.0701906126720392e+01 1.5094825110572064e+01 0 0 0
1136 2 1.0753962909116938e+01 1.2014364418314985e+01 1.2804383010788486e+01 0 0 0
481 1 4.5877746363943448e+00 1.7596039087399828e+00 9.6594797653548969e+00 0 0 0
482 2 4.5746397998518340e+00 1.1782408770742514e+00 1.0465170115910517e+01 0 0 0
483 2 5.3248497941706852e+00 1.4985330955048697e+00 9.1358629604538724e+00 0 0 0
484 1 2.7623324376821818e+00 1.4863464720098079e+00 7.4435967043171107e+00 0 0 0
485 2 3.0362419822462265e+00 1.6601401072496731e+00 8.3496027183915835e+00 0 0 0
486 2 1.7708982145938525e+00 1.2898902895265181e+00 7.4740061535846154e+00 0 0 0
487 1 5.9917630405448357e+00 4.7173986084319397e+00 9.1303221251934819e+00 0 0 0
488 2 5.0878367229767045e+00 4.9971045585050771e+00 9.0043264562066767e+00 0 0 0
489 2 6.0571446695764317e+00 3.8944262001706331e+00 9.6246139185218116e+00 0 0 0
490 1 3.4277730909489885e+00 4.7750861634472059e+00 9.2455865749590451e+00 0 0 0
491 2 2.7548959384496645e+00 4.2014734609918172e+00 9.5908923797390422e+00 0 0 0
492 2 3.0941594320416810e+00 5.6326073857294903e+00 9.6374533813444891e+00 0 0 0
493 1 1.8264172040710116e+00 2.9867259952650298e+00 1.0359358843256100e+01 0 0 0
494 2 1.9034791845266725e+00 3.3659809542928327e+00 1.1214307133175378e+01 0 0 0
1605 2 7.1248248473976830e+00 9.7720511734554893e+00 2.1663755915618690e+01 0 0 0
1613 2 7.5728547397643986e+00 1.1803151806431808e+01 1.7693369665763342e+01 0 0 0
499 1 4.9583495359964624e+00 3.2510436820847661e+00 6.0270934828794172e+00 0 0 0
500 2 4.1813806466153602e+00 3.1641843289837528e+00 6.5995298859226086e+00 0 0 0
501 2 4.8373377364266075e+00 2.7257002367775680e+00 5.2252399661363489e+00 0 0 0
502 1 1.6149842339511133e+00 4.4993005180765193e+00 6.9607543649771264e+00 0 0 0
503 2 2.4404846047977045e+00 4.4096209901332708e+00 7.5123402998140625e+00 0 0 0
504 2 1.7458647206243849e+00 5.3521945288247119e+00 6.5719640669095911e+00 0 0 0
505 1 4.7878992035247139e+00 6.0021314356427977e+00 6.2989558497807261e+00 0 0 0
506 2 4.9872068905253588e+00 5.0555065525019129e+00 6.1242476852427927e+00 0 0 0
507 2 4.7121150001672225e+00 6.4733672120645611e+00 5.4280345895210340e+00 0 0 0
5 2 3.4635387260465746e+00 7.7905606973258490e-01 1.5960504548788856e+00 0 0 0
509 2 1.6819298654772565e+00 1.0847583725142460e+00 1.0664847729364007e+01 0 0 0
511 1 1.0725768056106201e+01 1.2772309057663949e+00 9.8956999357971913e+00 0 0 0
512 2 1.0607483757342241e+01 6.5834973834947608e-01 1.0643517456744963e+01 0 0 0
513 2 9.8998560488337439e+00 1.4543473334458765e+00 9.3991108585981493e+00 0 0 0
514 1 9.0448314068168685e+00 1.5424017913161694e+00 7.7259041697196045e+00 0 0 0
515 2 8.0904517816939912e+00 1.3711535670608828e+00 7.6974227920374316e+00 0 0 0
1571 2 3.0563995926139587e+00 1.1715213809144283e+01 2.1332488127029514e+01 0 0 0
269 2 2.4245352613270659e+00 1.2006397224883059e+01 4.2227830709254324e+00 0 0 0
520 1 9.4120590621546008e+00 4.4868321095565937e+00 9.7999653908245055e+00 0 0 0
521 2 1.0403965226359542e+01 4.7084163151928005e+00 9.6221017952012797e+00 0 0 0
522 2 9.0444781928298337e+00 4.5978654726122397e+00 8.9525917262690182e+00 0 0 0
523 1 7.3837580279361656e+00 3.1137255701301667e+00 1.0986444785664386e+01 0 0 0
524 2 7.4783839216609689e+00 2.1380767131404665e+00 1.0968260104844122e+01 0 0 0
525 2 8.0801747549273042e+00 3.4175536591182571e+00 1.0387551173383930e+01 0 0 0
526 1 6.2856068751954011e+00 1.3401260762052596e+00 7.7593339717050256e+00 0 0 0
527 2 6.0488186036756764e+00 2.0988487439325061e+00 7.1770772249336909e+00 0 0 0
300 2 7.2605341356716915e+00 1.2146767490819913e+01 4.6473357923177225e+00 0 0 0
529 1 1.0978591283959595e+01 3.4137373532258732e+00 6.6144947638638225e+00 0 0 0
530 2 1.0194346166883868e+01 3.0114757552293430e+00 6.9728785505987165e+00 0 0 0
1018 1 7.8013585530848388e+00 3.4110591264871382e-01 1.6631411329796649e+01 0 0 0
532 1 7.9592362916890673e+00 4.4613477377451947e+00 7.3487117680731178e+00 0 0 0
533 2 7.9919006065469160e+00 5.1497733530368599e+00 6.5626046355894925e+00 0 0 0
534 2 7.0938536084045811e+00 4.7129206226624767e+00 7.8198119270779438e+00 0 0 0
535 1 1.0797230403837569e+01 6.1427584881062502e+00 6.4159601790892893e+00 0 0 0
536 2 1.0073332530246764e+01 6.7585952290343965e+00 6.9219308108957103e+00 0 0 0
537 2 1.0802504383674000e+01 6.6393206164862768e+00 5.5458814709744448e+00 0 0 0
1607 2 6.1458519944454988e+00 7.6314219014728355e+00 2.0322318077980352e+01 0 0 0
749 2 1.6839530418926858e+00 1.2058550735776398e+01 1.1456174644880049e+01 0 0 0
1472 2 1.1612157479488330e+01 1.8648488604307085e+00 2.0615828370648643e+01 0 0 0
508 1 1.7393587581209844e+00 1.3045391185671620e-01 1.0851381043799700e+01 0 0 0
1612 1 7.5578593125324378e+00 1.1260847138385911e+01 1.8546804160791837e+01 0 0 0
601 1 4.7527051570012722e+00 7.7862165056105868e+00 9.9115901774015729e+00 0 0 0
602 2 5.4462393034709606e+00 7.8536348128866891e+00 9.2180491695942610e+00 0 0 0
603 2 4.7297388991640759e+00 8.7192020396633172e+00 1.0192795205762010e+01 0 0 0
604 1 3.0294209792600282e+00 7.7034256011370124e+00 7.8430000100275929e+00 0 0 0
605 2 3.3942089995952620e+00 7.7663015819822272e+00 8.7013092806489762e+00 0 0 0
606 2 3.3312731063028185e+00 6.9750460636324600e+00 7.3217261545108014e+00 0 0 0
607 1 6.0621258050149240e+00 1.1016553348815419e+01 9.3802353450411431e+00 0 0 0
608 2 6.4605072339057124e+00 1.0938652552047463e+01 8.5056713552525736e+00 0 0 0
609 2 6.4281570936117731e+00 1.0384542654628383e+01 1.0036475241284487e+01 0 0 0
610 1 3.4564466805812768e+00 1.0728085047630982e+01 9.3223350257645023e+00 0 0 0
611 2 3.0526689834706313e+00 1.0678989545836178e+01 8.4651291058211182e+00 0 0 0
612 2 4.4071549923778699e+00 1.0954007662476002e+01 9.2452299908542130e+00 0 0 0
613 1 1.6459987247010555e+00 9.0685311196777505e+00 1.0825841057482377e+01 0 0 0
415 1 1.0802765514436610e+01 1.3064162486424125e-01 5.3265615610489303e-01 0 1 0
615 2 2.3626090618064364e+00 9.4461088969603999e+00 1.0247841880793894e+01 0 0 0
37 1 1.2185603804041783e+01 4.7906292931837005e+00 3.3593992452837904e+00 0 0 0
618 2 1.2271983495025360e+00 7.5722180258876959e+00 7.5713973713007530e+00 0 0 0
619 1 4.9021336218469784e+00 9.6101731907504924e+00 6.1620948090150618e+00 0 0 0
620 2 4.8044499058596939e+00 9.1047454577308073e+00 5.2911048340553908e+00 0 0 0
621 2 4.2776009253082812e+00 9.1859426130341522e+00 6.7685469502177673e+00 0 0 0
622 1 1.5471312092634215e+00 1.0711989460800051e+01 6.8975316397518407e+00 0 0 0
623 2 7.8329289728762830e-01 1.1013590333305853e+01 7.4047843581143802e+00 0 0 0
624 2 1.6710033966940614e+00 1.1455285967259476e+01 6.2722848635749804e+00 0 0 0
386 2 5.3868046130575120e+00 2.5506019953983050e-01 1.2788627422152559e+00 0 0 0
626 2 4.9076236273929874e+00 1.1362401976939827e+01 6.2047490406207730e+00 0 0 0
628 1 1.6375826443576194e+00 6.2714973271067516e+00 1.0640801813360788e+01 0 0 0
629 2 1.7640872662797122e+00 5.7794247195160056e+00 1.1508713462996273e+01 0 0 0
630 2 1.4193586848779278e+00 7.1943361962034107e+00 1.0853187171904970e+01 0 0 0
631 1 1.0864757007570699e+01 7.8181246305694909e+00 9.9834066655685270e+00 0 0 0
632 2 1.0606354549785484e+01 6.9369552576179752e+00 1.0334820331303021e+01 0 0 0
633 2 1.1702134938263393e+01 7.7122318099126019e+00 9.4900626740604217e+00 0 0 0
634 1 9.0418460317303779e+00 7.7893846252886165e+00 7.8239811362357079e+00 0 0 0
635 2 9.5509371510598822e+00 7.9646917510802444e+00 8.6243212081724909e+00 0 0 0
636 2 8.0441562590265168e+00 7.8977098957051304e+00 7.8622855139787813e+00 0 0 0
654 2 7.8489513605687149e+00 1.1591284587829712e+01 6.9022217438416602e+00 0 0 0
639 2 1.1513529327195487e+01 1.0817608734630259e+01 9.2023672187086323e+00 0 0 0
640 1 9.7027170498449831e+00 1.0910681453067806e+01 9.4613411545453356e+00 0 0 0
641 2 9.1481987217563354e+00 1.1087630227787729e+01 8.6720222189979914e+00 0 0 0
642 2 9.2675055625671341e+00 1.0056789199018432e+01 9.7856362311115443e+00 0 0 0
643 1 7.9711466327065601e+00 9.1684109741087099e+00 1.0527623790500664e+01 0 0 0
644 2 7.7285636453836446e+00 8.2436955752738221e+00 1.0633279477145873e+01 0 0 0
645 2 7.8144735381275163e+00 9.6540299288919584e+00 1.1363825328664362e+01 0 0 0
646 1 6.3509224098999715e+00 7.8458882398374774e+00 7.6158086127632343e+00 0 0 0
647 2 6.1654776251682311e+00 7.0882847841363708e+00 7.0072209191311368e+00 0 0 0
648 2 6.0653620968807038e+00 8.5935894809672977e+00 7.0099535528299128e+00 0 0 0
649 1 1.0648427827379880e+01 9.4082118003567174e+00 6.3567543222519767e+00 0 0 0
650 2 1.0686284675831081e+01 1.0374889890436192e+01 6.4267116437780878e+00 0 0 0
651 2 9.8275976157989522e+00 9.1230549173238238e+00 6.8117429313945772e+00 0 0 0
652 1 7.7709159891381479e+00 1.0757534833590755e+01 7.3277094202024555e+00 0 0 0
653 2 7.7362124247320700e+00 1.0137764595707859e+01 6.5876224168902482e+00 0 0 0
1178 2 4.3984893977774564e-01 1.1906131449660535e+01 1.5135324428015030e+01 0 0 0
1089 2 5.1936435405506440e+00 1.0978626810535232e+01 1.4933201472436114e+01 0 0 0
658 1 7.6842733112174173e+00 6.4359245594437064e+00 1.0634277474076313e+01 0 0 0
659 2 6.9709935064310384e+00 5.8107498289620416e+00 1.0495795479230507e+01 0 0 0
660 2 8.3977779352269870e+00 5.9265461841686520e+00 1.0243483469657482e+01 0 0 0
1610 2 1.0973200095659232e+01 9.4123201006800574e+00 1.7100858844476480e+01 0 0 0
1604 2 8.6667393000388149e+00 9.8166978593049699e+00 2.1657218795692117e+01 0 0 0
175 1 1.0800906531066648e+01 1.2237807022030690e+01 6.1867122653493956e-01 0 0 0
988 1 1.8993387517743410e+00 4.5968046992798978e-01 1.6673502050346659e+01 0 0 0
1614 2 8.3841526188135642e+00 1.1286198863281914e+01 1.9015282391143288e+01 0 0 0
1611 2 1.1787669521854600e+01 9.0315626326865530e+00 1.8393539911550150e+01 0 0 0
1058 2 1.8869931353927188e-01 3.9905135369031584e+00 1.4964620383196728e+01 1 0 0
1616 2 1.0774984039629018e+01 1.1187713185867525e+01 1.7996756331743317e+01 0 0 0
1133 2 7.6726937270326179e+00 1.1574290780796925e+01 1.2072339124081360e+01 0 0 0
625 1 5.1792652970162871e+00 1.2304596332486112e+01 6.3621898395594245e+00 0 0 0
961 1 4.6153733093490557e+00 1.7796392117225994e+00 1.5697956477869042e+01 0 0 0
962 2 4.7276819966356936e+00 2.6514791926892327e+00 1.6193855155859058e+01 0 0 0
750 2 2.4604019064114899e+00 1.2064223548548350e+01 1.0102001149457505e+01 0 0 0
964 1 2.8691651714495916e+00 1.7681851841305352e+00 1.3704184526771233e+01 0 0 0
965 2 3.3784594758249100e+00 1.7666858463223665e+00 1.4546136524421597e+01 0 0 0
966 2 3.2788924497220520e+00 2.4977257935153996e+00 1.3252600055994211e+01 0 0 0
967 1 6.0067870503584428e+00 4.7682602766922324e+00 1.5206237032676352e+01 0 0 0
968 2 6.4816694910192938e+00 5.4898709887176516e+00 1.5669329840820495e+01 0 0 0
969 2 6.4682905550229250e+00 4.8132001070641053e+00 1.4335071550013907e+01 0 0 0
970 1 3.2839439642034458e+00 5.0673814595822586e+00 1.4993244964460624e+01 0 0 0
971 2 4.2777796132187520e+00 5.0660011866139953e+00 1.5086667208697945e+01 0 0 0
972 2 2.8723420446310159e+00 5.8502030755105876e+00 1.5362239257854554e+01 0 0 0
973 1 1.6384090315875000e+00 3.3174925134098951e+00 1.6422623394480190e+01 0 0 0
974 2 2.3803866336671167e+00 3.8512244363118859e+00 1.6039335919511426e+01 0 0 0
975 2 1.4151954351393967e+00 3.7953127949631464e+00 1.7215230273581820e+01 0 0 0
99 2 3.4799699211728591e-01 3.6662216716813689e+00 4.1106389003095600e+00 0 0 0
977 2 9.0965057286051032e-01 1.6347524208574211e+00 1.3424380354509603e+01 0 0 0
979 1 4.4785858794682305e+00 3.4751373160118924e+00 1.1943416798116635e+01 0 0 0
980 2 4.4897774099059493e+00 2.9949575453625061e+00 1.1079637388819572e+01 0 0 0
981 2 5.2365059549499726e+00 3.0576430247006261e+00 1.2462548895042582e+01 0 0 0
982 1 1.8243648467416314e+00 4.4641472782715468e+00 1.2722326884179495e+01 0 0 0
983 2 2.5614285115505879e+00 4.8076268958355151e+00 1.3154050584444555e+01 0 0 0
984 2 1.1121867854378051e+00 4.6777167818964438e+00 1.3394874399165095e+01 0 0 0
985 1 4.5411255160717570e+00 6.2419289146038075e+00 1.2084136686965792e+01 0 0 0
986 2 4.5389080308289911e+00 6.7143942384884490e+00 1.1227437586734744e+01 0 0 0
987 2 4.7349489692256874e+00 5.2806615844261042e+00 1.1938785711269285e+01 0 0 0
1597 1 1.2429886755061705e+01 1.0814774817944453e+01 2.0675862107650904e+01 0 0 0
989 2 1.8444096595841000e+00 1.4180211371720710e+00 1.6408064554991640e+01 0 0 0
991 1 1.0732956463057272e+01 1.8768791318879239e+00 1.5557125342218223e+01 0 0 0
992 2 1.0837794412354210e+01 1.1319487974932936e+00 1.6159618047180803e+01 0 0 0
993 2 9.9423721795077498e+00 1.6011693669368132e+00 1.5023992314491727e+01 0 0 0
994 1 8.9779150410725350e+00 1.5450932787609952e+00 1.3424604509778302e+01 0 0 0
995 2 9.4142563739580165e+00 7.1194191834531295e-01 1.3100436501678535e+01 0 0 0
996 2 9.4906717708592474e+00 2.2180344233909763e+00 1.2947448420674318e+01 0 0 0
1602 2 9.2433180500796936e+00 1.1680724167913512e+01 2.1167989551811324e+01 0 0 0
998 2 1.1400957811664128e+01 4.7682290592380294e+00 1.4705566139458609e+01 0 0 0
1000 1 9.5704909166670973e+00 5.0315505644191534e+00 1.5111805109080244e+01 0 0 0
1001 2 9.2630550253330597e+00 4.2613142072438484e+00 1.5650875457839819e+01 0 0 0
1002 2 9.0122728201902138e+00 4.9859955267166995e+00 1.4314699390804360e+01 0 0 0
1003 1 7.9096710647905919e+00 3.0156540255008051e+00 1.6467499173453181e+01 0 0 0
1004 2 7.2239356964769383e+00 3.5451363209283078e+00 1.5967940889511128e+01 0 0 0
1005 2 7.8138547914253547e+00 3.2885336769946258e+00 1.7380630273458511e+01 0 0 0
1006 1 6.3188597567777922e+00 2.0662541183849634e+00 1.3434601120204654e+01 0 0 0
1007 2 6.0045080346904207e+00 1.8419660509779954e+00 1.4306880567449875e+01 0 0 0
1008 2 7.3070400419875261e+00 1.9642355614885569e+00 1.3429910020271942e+01 0 0 0
1009 1 1.0804510492031255e+01 3.1523167536002745e+00 1.2109706421521622e+01 0 0 0
1010 2 1.1591059761465971e+01 2.6078564080693329e+00 1.2313883439261144e+01 0 0 0
1011 2 1.0698953433830422e+01 2.8244501406687101e+00 1.1133123041394425e+01 0 0 0
1012 1 7.6790538205585799e+00 4.8752868528082933e+00 1.3123630639401128e+01 0 0 0
1013 2 7.6937439887344503e+00 4.1736795285474750e+00 1.2468389389574092e+01 0 0 0
1014 2 7.8657560872975427e+00 5.7060889792632654e+00 1.2658415145640165e+01 0 0 0
1015 1 1.0612763086254244e+01 6.0173239642333733e+00 1.2292068184739509e+01 0 0 0
1016 2 1.0615003079287337e+01 5.0252316089971094e+00 1.2189131376703866e+01 0 0 0
1017 2 1.1505483051303072e+01 6.3193997923275189e+00 1.2444157379825873e+01 0 0 0
35 2 9.8690103464362124e+00 1.7629003755097918e+00 2.7886654771963455e+00 0 0 0
1019 2 7.8640674100702705e+00 1.3053984698781906e+00 1.6577677167168662e+01 0 0 0
1109 2 7.6223960554382209e-01 6.1980306516978567e+00 1.5779211066688875e+01 0 0 0
1826 2 5.5094012298532373e+00 1.6340388063646999e-01 1.8331359595738878e+01 0 0 0
1081 1 4.3997343755022538e+00 7.7461928423234347e+00 1.5637504290101141e+01 0 0 0
1082 2 5.1472432611232115e+00 7.4441106097233050e+00 1.5048942385903930e+01 0 0 0
1083 2 4.4171088725714558e+00 7.1700071128676717e+00 1.6451132290151609e+01 0 0 0
1084 1 2.7888234357132844e+00 7.8989382325388950e+00 1.3398762758088196e+01 0 0 0
1085 2 3.1790087852364022e+00 7.9654171270162859e+00 1.4288051958706571e+01 0 0 0
1086 2 3.3337089733365524e+00 7.1895495382426367e+00 1.2963471372172428e+01 0 0 0
1087 1 6.1702808000802438e+00 1.1153895112390281e+01 1.4756390471510731e+01 0 0 0
1088 2 6.5819260517058291e+00 1.0542331413220477e+01 1.5404893285449361e+01 0 0 0
1638 2 1.1938467091164414e+01 8.0076441694173113e+00 2.0175186978643843e+01 0 0 0
1090 1 3.5180089906489624e+00 1.0970714528286200e+01 1.5092074353902595e+01 0 0 0
1091 2 3.0801838397617578e+00 1.0219546108042817e+01 1.5503048515064497e+01 0 0 0
1092 2 3.1922679565736995e+00 1.0916063435211480e+01 1.4167396579800855e+01 0 0 0
1093 1 1.7232467303185193e+00 9.3402014945398992e+00 1.6243781082203871e+01 0 0 0
1094 2 1.6316610516491132e+00 8.3389107093286334e+00 1.6296978581661545e+01 0 0 0
1095 2 9.2008285301795167e-01 9.7136982153246407e+00 1.5816352468381000e+01 0 0 0
1230 2 2.3397909587895089e+00 1.2265576212211590e+01 1.5845256930671692e+01 0 0 0
1097 2 1.1689153543959212e+00 7.6321543024567386e+00 1.3511604461846842e+01 0 0 0
1099 1 4.6196342449346108e+00 9.7872317174638486e+00 1.1931256150469677e+01 0 0 0
1100 2 4.0519747490789477e+00 9.5334434974700706e+00 1.2618192558337714e+01 0 0 0
1101 2 4.6467461583850200e+00 1.0753849045796811e+01 1.2026489081506105e+01 0 0 0
1102 1 1.9323036809095930e+00 1.1041264298422741e+01 1.2736478488123691e+01 0 0 0
1103 2 1.8389624173796024e+00 1.0222103062338988e+01 1.2091517371664903e+01 0 0 0
1104 2 1.1797027203337278e+00 1.0996289678382754e+01 1.3384710088805431e+01 0 0 0
157 1 1.2205118208246983e+01 1.0433006769054142e+01 3.7287723885230908e+00 0 0 0
1108 1 1.5347094652923940e+00 6.6400838449092419e+00 1.6179530831833517e+01 0 0 0
1105 1 4.6530439080438830e+00 1.2350546765242484e+01 1.2169548281220568e+01 0 0 0
1110 2 1.6693905981081145e+00 6.2904277608795134e+00 1.7099020432089393e+01 0 0 0
1111 1 1.0967818978994377e+01 7.9593912014780415e+00 1.5662432295458769e+01 0 0 0
1112 2 1.1703211483920860e+01 7.7222279927512254e+00 1.5119434408912051e+01 0 0 0
1113 2 1.0193739316505559e+01 8.0221611506546786e+00 1.5068944814326672e+01 0 0 0
1114 1 9.1279051124090067e+00 8.1583403498636589e+00 1.3422079394746191e+01 0 0 0
1115 2 9.4524671496622386e+00 7.3182663888044939e+00 1.2952174523701478e+01 0 0 0
1116 2 8.1919699316976615e+00 8.0290904639309986e+00 1.3511467917189391e+01 0 0 0
33 2 1.1585274867998969e+01 2.1231641213441694e+00 3.4281911197407431e+00 0 0 0
1120 1 9.3448910996244603e+00 1.0877434520872526e+01 1.5175786371693279e+01 0 0 0
1121 2 9.0054062791068930e+00 1.0747328699479723e+01 1.4287769574795105e+01 0 0 0
1122 2 1.0369030140648732e+01 1.0833810729585236e+01 1.5079293179717880e+01 0 0 0
1123 1 7.5426031058905458e+00 9.2932665428696843e+00 1.6594352117644434e+01 0 0 0
1124 2 8.3589462160848953e+00 9.7125791583030399e+00 1.6277401363961957e+01 0 0 0
1125 2 7.4967652864137815e+00 9.5475798772300919e+00 1.7539464260321491e+01 0 0 0
1126 1 6.2003766257813009e+00 7.9735863149423150e+00 1.3405311652447359e+01 0 0 0
1127 2 5.8022163896418064e+00 7.1691801446270755e+00 1.3017283861290501e+01 0 0 0
1128 2 5.8380376559425953e+00 8.6850159833318692e+00 1.2809288161313127e+01 0 0 0
1129 1 1.1173658787233705e+01 9.7736087722030831e+00 1.2076942592567239e+01 0 0 0
1130 2 1.0481301986397757e+01 9.3519279335406846e+00 1.2628168869921438e+01 0 0 0
1131 2 1.1035428189453018e+01 9.3637142444200272e+00 1.1237118609843755e+01 0 0 0
1132 1 7.7534447114858365e+00 1.0776728067067054e+01 1.2634740458936230e+01 0 0 0
417 2 1.0179778907470803e+01 6.5294788597904052e-01 1.1004887980091649e+00 0 0 0
1134 2 7.1295041913763928e+00 1.0933820562676020e+01 1.3369055098410788e+01 0 0 0
516 2 9.4179310032652275e+00 9.2837494798782116e-01 7.1072487863201648e+00 0 0 0
1137 2 1.0900835488611616e+01 1.1313247618362201e+01 1.1543393963433912e+01 0 0 0
1138 1 7.7323812178995128e+00 6.6239426842766145e+00 1.6473056240425688e+01 0 0 0
1139 2 7.5632094728245622e+00 7.5991872810731449e+00 1.6328049966696078e+01 0 0 0
1140 2 8.4814920637691547e+00 6.4394267172119308e+00 1.5903741359277479e+01 0 0 0
1658 2 6.3359159257199560e-01 1.0921039202304724e+01 1.9998226542893967e+01 0 0 0
219 2 3.5745896689587042e-01 1.1794071932179357e+01 3.7435032933024179e+00 0 0 0
1857 2 1.1725928872254805e+01 7.0362051421942118e-01 1.8243436833358679e+01 0 0 0
152 2 1.1626463507531717e+01 7.9280829819381351e+00 3.4628248168471143e+00 0 0 0
1118 2 1.2167980410678174e+01 1.0432618402277946e+01 1.4148739578602882e+01 0 0 0
677 2 1.2342326009381464e+01 8.4231169822346477e+00 7.3666854579936256e+00 0 0 0
1606 1 6.4370306008869278e+00 7.5064595828968574e+00 1.9408350449232977e+01 0 0 0
897 2 1.1442910863713671e+01 2.7779962343050368e-01 6.7800692381003760e+00 0 0 0
1096 1 2.6362671825645634e-01 7.6760882827905510e+00 1.3497992586763425e+01 0 0 0
1441 1 4.7554399896231390e+00 1.9421544327434481e+00 2.1490565708520812e+01 0 0 0
218 2 2.6388860986896723e-01 1.0678593649654976e+01 2.6954639748891398e+00 0 0 0
1443 2 4.8487301704550401e+00 2.7203231613773440e+00 2.2122825806101751e+01 0 0 0