LAMMPS data file via write_data, version 3 Mar 2020, timestep = 0

2016 atoms
2 atom types

0.0000000000000000e+00 1.7946949226357710e+01 xlo xhi
-1.7225740513819403e+00 4.6718734028298435e+01 ylo yhi
0.0000000000000000e+00 1.9086320944664912e+01 zlo zhi
4.6256404620545741e-02 -6.6857744495773055e+00 -2.3842158147765247e-02 xy xz yz

Masses

1 16
2 2

Atoms # atomic

579 2 2.4233549111781727e+00 4.3000638173253547e+00 1.6814327813027724e+01 0 0 0
223 1 -1.7590589747593901e+00 6.6118120814721166e+00 1.7828470310329131e+01 -2 0 -2
995 2 8.7931398839783892e+00 4.0685964112644850e+00 9.3295001354387086e+00 3 0 1
654 2 1.5423802770730219e+01 4.6828631553764879e+00 5.9770477277610530e+00 -2 0 0
394 1 9.2596703719513656e+00 4.4993251581567026e+00 3.4450837948684656e+00 -3 0 -3
578 2 2.8160558892332377e+00 4.5881570237592886e+00 1.5354264362854327e+01 0 0 0
929 2 1.3368303126985076e+01 4.2556795394636495e+00 6.3681165210115012e+00 0 0 0
513 2 7.6314507220519987e+00 -1.0445496273366235e+00 1.5453407969614908e+01 1 0 0
705 2 -3.2075801140583549e+00 5.5046013323700729e+00 1.3108467417989194e+01 -2 0 -1
302 2 8.5309905658911109e+00 6.1463907257092609e+00 3.3637405339418347e-01 0 0 0
299 2 1.2104508710431428e+01 1.2129661196969597e+00 1.6662626233412638e+01 -3 0 -2
527 2 3.6122642973718144e+00 -1.3432441291324493e+00 5.6078354682049518e+00 -2 0 0
950 2 -3.8027188806053291e+00 -6.0783930232328331e-01 1.8676961819373993e+01 -1 0 1
406 1 6.2052886329807189e-01 1.1479692307264862e+00 9.8217790487777847e+00 -2 0 -2
1584 2 6.0738009097976171e+00 1.0181959887060687e+01 1.3910540925357171e+01 0 0 0
596 2 1.7675044989101611e+00 4.7685346383326275e+00 5.2816887947866054e+00 3 0 -2
923 2 2.5583255019960660e+00 8.0469408022147757e+00 1.4727095942696389e+01 -3 0 -3
230 2 1.7884696920649099e+00 -1.6178629572011152e+00 7.3709282845674382e+00 0 0 -2
881 2 1.1484225271496189e+01 1.4918376736250618e+00 9.1003564614392012e+00 -3 0 2
319 1 1.0824484667355728e+01 -6.5082788978325667e-01 1.4634504483442791e+01 -4 0 -3
53 2 1.1240020296514404e+01 3.3180548232893683e+00 1.0337278377000769e+00 2 0 0
494 2 3.2137700140922409e+00 9.4774993620497234e+00 7.6468695561656546e+00 -3 0 -2
609 2 4.7177078756803752e+00 4.5396307661182389e-01 1.2760284721250537e+00 -3 0 0
1583 2 -4.0765616133462590e+00 1.5538122118246123e+00 1.5054306158114290e+01 0 1 1
122 2 7.7523590839783267e+00 7.4588497439171491e+00 1.2954452169916818e+01 -2 0 -1
295 1 -1.2660793499073930e-01 6.8022865981992737e+00 1.9665639003470734e+00 2 0 3
407 2 -5.7922883497162569e-02 9.0178011767703836e-01 1.0517235278652658e+01 -2 0 -2
707 2 9.0635996179036837e-01 7.7411247671520762e+00 1.5972626576875046e+01 -1 0 -1
972 2 3.9118741947995899e+00 6.3560458198480791e+00 1.6211967994718333e+00 0 0 1
448 1 4.0700614860242377e+00 5.8967340959726355e+00 1.0398257672000776e+01 -1 0 1
244 1 1.0689081177931172e+01 8.6706705794167185e+00 1.3450217338824705e+01 -4 0 -4
762 2 1.0110549475716784e+01 -6.8895636404751159e-01 7.1289182978229770e-01 -3 0 2
687 2 1.6066583188494699e+00 -4.3102908355123359e-01 9.3834815889129981e+00 -3 0 0
977 2 5.5966437187171616e+00 -5.7982938992145705e-01 1.8455649331675843e+01 -3 0 -1
672 2 -6.1513828862957576e-01 -2.6355533395448849e-01 7.2570629648105616e+00 -3 0 -1
301 1 8.8287434351731129e+00 5.2057585647916200e+00 5.0647605994785017e-01 0 0 0
85 1 1.7066045430062175e+01 -1.1875268230859610e+00 2.1057143978602852e-01 1 0 -2
270 2 -3.0689683124646261e+00 7.4335867918757366e+00 1.4474330337679568e+01 2 0 -1
463 1 2.4796843908247319e+00 5.5000544098278663e+00 6.6658531740560871e+00 2 0 0
449 2 3.2052356533350030e+00 6.3913801724231121e+00 1.0439517980591882e+01 -1 0 1
524 2 3.5040241760427531e+00 3.3271170383791420e+00 1.3439345882972955e+01 -2 0 -4
585 2 1.4005028296362628e+01 5.7473756604958606e+00 1.0896374593750545e+01 -5 0 -4
523 1 3.0555024858415196e+00 4.0991398967430088e+00 1.3822224668252543e+01 -2 0 -4
658 1 6.2530634132320877e+00 2.3235910023657418e+00 1.4300236035353461e+01 -1 0 -2
206 2 3.5937577098622224e+00 1.7162747917918995e+00 1.2463391890383043e+01 3 0 0
96 2 -9.5656463227488331e-02 2.4944046991919295e+00 8.7064918739355708e+00 -1 0 -1
441 2 -4.9115135247503083e-01 6.2886171922346001e+00 1.2054423242719647e+01 -2 0 -1
151 1 7.2515713541610536e+00 2.0448354285937786e-01 3.2710989695211472e+00 3 0 0
781 1 1.4966077470379866e+00 3.7886135017165810e+00 7.8249945215632777e-01 -2 0 -2
880 1 1.0861349653985041e+01 8.1802795186114885e-01 8.7141207668094296e+00 -3 0 2
626 2 2.1267944863612032e+00 1.8611081636137810e+00 1.7514645355724905e+01 0 0 -1
459 2 -5.8070449730239893e-01 -1.3734207275071235e+00 2.2187470120551112e+00 -2 0 -2
703 1 -2.7655371920017640e+00 5.7292562281429449e+00 1.3963090316725559e+01 -2 0 -1
382 1 -8.8447999579069136e-01 4.6358447164846206e+00 3.3562108625563414e+00 -1 0 1
21 2 9.5600902999089552e+00 8.7091109655338297e+00 1.1427765665108034e+00 -3 0 -3
992 2 1.4277439696520439e+01 -6.4748191668965349e-01 1.0458370425622295e+01 1 0 1
54 2 1.0431570923970561e+01 2.3127305189829519e+00 1.8464587389343050e+00 2 0 0
698 2 1.2025895352120193e+01 9.4949365439475581e+00 5.8762418217819756e-01 2 0 4
689 2 9.2918966230968048e-01 9.6584471088942880e-01 5.8374065481119866e+00 -2 0 0
621 2 2.2292185095917239e+00 9.6778620645052857e+00 1.1041452492134318e+00 -3 0 0
392 2 3.0625984280788612e+00 8.5897053558983369e+00 9.7856924106594274e+00 -1 0 -1
652 1 -1.8786068779053895e+00 5.3829904746388921e+00 5.7150180084434137e+00 -1 0 0
52 1 1.0716839480667650e+01 2.5352210770952581e+00 9.2071928994919283e-01 2 0 0
356 2 -2.8465710776532944e+00 5.8131668035022512e+00 1.6954944108956646e+01 -4 0 -3
477 2 7.1437179380792699e+00 3.4227706425999580e+00 1.0402354399253390e+01 -1 0 2
500 2 3.0425299101147996e-01 3.2284389077123103e+00 1.4027113226331277e+01 1 0 0
671 2 -1.5932419846098802e+00 -5.8152638969430326e-01 8.4486557068916959e+00 -3 0 -1
806 2 1.0173351786573953e+01 8.7138884300556256e+00 7.6101915775144446e+00 -4 0 1
789 2 5.8459960228928054e+00 9.6764236795478578e+00 1.9988544589426476e+00 -2 0 0
810 2 6.8300172646560648e+00 6.2890355088785590e+00 8.1533166059830986e+00 -4 0 -1
930 2 1.3461212673978364e+01 3.1054557172300221e+00 5.3058669089446928e+00 0 0 0
702 2 5.0756166785868091e+00 1.1793379902514207e+00 1.6864349830074609e+01 -3 0 -3
501 2 -9.6168011441554846e-02 2.2244575105283277e+00 1.2842190579472021e+01 1 0 0
625 1 2.6647846347432145e+00 2.6742220788845996e+00 1.7681452214671516e+01 0 0 -1
776 2 1.1843469063519928e+01 -7.7203546675498536e-01 1.9933181852101800e+00 -2 0 2
101 2 4.3783747741273524e+00 6.3935064635420193e+00 1.1854043751497086e+01 -1 0 -1
384 2 -7.8422421124752351e-01 5.4877082079328234e+00 2.8076802642784160e+00 -1 0 1
245 2 1.0961973129574268e+01 8.7396963617612471e+00 1.4397414399396032e+01 -4 0 -4
622 1 -3.5362149054163035e+00 3.2183211501340123e+00 1.7902498207509886e+01 -2 0 -2
624 2 -2.6492059464368731e+00 2.7722400335054713e+00 1.7943618158641190e+01 -2 0 -2
179 2 5.1369216304015355e+00 5.9517091586287210e+00 1.8167094191655099e+01 -3 0 -1
246 2 9.7982610430141506e+00 8.5146612816606577e+00 1.3520497596014051e+01 -4 0 -4
573 2 1.3055368531949361e+01 -1.4071530291515255e+00 3.8148627024241391e+00 2 0 4
841 1 -1.3030032153049396e+00 -1.3794872614541738e+00 1.6558804072386959e+01 -5 0 -5
290 2 8.1668573517914744e+00 8.8693353615082415e+00 5.7451910671949387e+00 0 0 3
600 2 -2.6589614069377756e+00 1.3963459774515319e+00 9.9012632669681722e+00 -3 0 1
49 1 9.4095011671885516e+00 2.5119535505019384e+00 1.2174105982976849e+01 -1 0 0
183 2 1.0193314562069983e+01 5.2993583294182987e+00 4.6407737772345268e+00 -1 0 0
464 2 2.7469028342980999e+00 6.3643227140469794e+00 6.3144503910924996e+00 2 0 0
748 1 6.4350517158518956e+00 9.8798502239321238e+00 9.5891081806086724e+00 -3 0 1
150 2 1.5047374641716420e+01 8.6389810647366918e+00 2.0266176945651608e+00 -4 0 0
830 2 9.0208657516167956e-01 9.2851082973940748e+00 4.0945701143909314e+00 -3 0 0
135 2 2.5434459503733375e-01 4.4211983862131206e+00 1.0580438582066396e+01 1 0 -1
778 1 5.9697335273778513e+00 7.4591271458016006e+00 4.3251768872189382e+00 1 0 0
949 1 -3.8359379510221436e+00 -7.3309595119305615e-01 1.7684021749858452e+01 -1 0 1
598 1 -2.8594953355164909e+00 5.4573018019734798e-01 9.4968451823993671e+00 -3 0 1
120 2 6.0811166296699302e+00 3.3370743191043806e+00 2.4925898326890028e+00 -2 0 -2
858 2 -2.3980658434503255e-01 5.6782119383222049e+00 8.6804867450797047e+00 -1 0 -3
640 1 1.8635069956613166e+00 7.3424244625635318e+00 1.0577342870325138e+01 4 0 -1
753 2 -4.9737888339131535e+00 6.2932389734895970e+00 1.6807403106317356e+01 0 0 2
149 2 1.5597366794094505e+01 8.9335403755761575e+00 4.6640083213901229e-01 -4 0 0
119 2 4.6336242958059497e+00 3.9446464889611521e+00 2.8748489494477454e+00 -2 0 -2
525 2 3.5559710635577355e+00 4.8729137790193890e+00 1.3393964311632677e+01 -2 0 -4
30 2 -1.8245397909618535e+00 8.8908523224594038e+00 1.3210572086737891e+01 -2 0 -4
971 2 3.3232948030300142e+00 7.5962945548379377e+00 9.8435141406036253e-01 0 0 1
559 1 8.7055388969005421e+00 -1.1275630816844160e+00 7.2415172832450052e+00 -2 0 1
212 2 9.2650826043954275e+00 2.9733852844749808e+00 7.0311052596589434e+00 -5 0 -2
701 2 4.1732876999928079e+00 2.3776921006441283e+00 1.6836014048288202e+01 -3 0 -3
5 2 3.7991144404409933e+00 7.9594326596829745e+00 4.6492722754203006e+00 1 0 0
470 2 1.6689576641259759e+01 3.2645051871007160e+00 2.4981512864600841e+00 -7 0 -2
471 2 1.5719297786452723e+01 2.1738254991633799e+00 1.8826034157472689e+00 -6 0 -2
708 2 1.9935955127727736e+00 6.5630553146716100e+00 1.6099852389198059e+01 -1 0 -1
636 2 -7.9054668371817827e-01 9.6331903686582567e+00 6.7096862698583637e+00 1 0 -2
46 1 9.1791074284318910e+00 7.8236350300083899e+00 6.5897130715654315e+00 -3 0 0
279 2 6.3157804675301081e+00 8.2597999916554521e+00 9.4186618753269578e+00 -4 0 -1
856 1 9.3090836912509189e-02 5.4621176079007974e+00 7.8098460241214216e+00 -1 0 -3
627 2 3.0783520312829173e+00 2.5946331902647684e+00 1.8557271905917375e+01 0 0 -1
111 2 1.7142612671778705e+00 -2.5406803506252196e-01 1.8131855992599064e+01 1 0 -4
869 2 1.2743149903342031e+01 6.7316680183733943e+00 6.9997957585702544e+00 1 0 0
16 1 -3.4982848477105577e-01 4.9828224587142760e+00 1.4753001430264840e+01 0 0 1
178 1 4.6196857188499578e+00 5.1720080399574977e+00 1.8247681310998210e+01 -3 0 -1
974 2 1.0150650612713603e+01 1.6498025568397523e-01 1.6407631417797205e+01 -4 0 -2
118 1 5.4182218249223517e+00 3.5367639366118402e+00 3.2177287521851379e+00 -2 0 -2
922 1 3.1662306486750742e+00 8.2088314071591295e+00 1.3971087429312121e+01 -3 0 -3
623 2 -4.1604145549439373e+00 2.5235604838096091e+00 1.7552040282626404e+01 -2 0 -2
1668 2 6.2555895782720095e+00 3.1886789136985927e+00 1.3888516846426795e+01 -1 1 -2
644 2 1.0879880066924425e+01 -4.8187227488545092e-02 1.1465823212863333e+01 -4 0 -3
274 1 1.4380105338912117e+01 -8.5266087857334993e-01 4.2735136211363356e-01 2 0 0
83 2 1.3939479369983067e+01 8.3959149904468138e+00 7.2722850819798026e+00 -1 0 -3
239 2 6.9315038251078294e+00 4.7165827032696042e+00 1.2602174605859750e+01 0 0 0
716 2 6.9467710351499798e+00 2.3518586074124190e+00 7.5156262288548192e-01 1 0 2
717 2 7.7755945985425043e+00 3.6401196713806687e+00 9.1538505003097081e-01 1 0 2
240 2 5.9565517078203882e+00 5.5343570775575737e+00 1.3459011643298179e+01 0 0 0
904 1 8.3830282746898153e+00 7.9001726783918453e+00 8.9247689605600047e-02 -3 0 2
17 2 -3.0278561724881747e-01 4.9656520126539423e+00 1.5687682680264540e+01 0 0 1
779 2 6.4413279495790654e+00 7.6585863230301499e+00 3.5519597060797565e+00 1 0 0
875 2 1.1776035498216672e+01 8.4783793317689398e+00 1.0863813268031491e+01 -3 0 1
645 2 1.2103405199968257e+01 7.7833877381626548e-01 1.1808320712116387e+01 -4 0 -3
613 1 -1.1316602740869675e+00 2.2027888298017539e+00 1.7975059127513052e+01 -2 0 -1
434 2 8.6776706479015910e+00 9.2661185319505446e+00 1.7487932009934518e+01 -2 0 0
238 1 6.6618550870865985e+00 4.8511695798744601e+00 1.3525511267981445e+01 0 0 0
522 2 7.6350536475307855e+00 -7.1999421483215365e-02 9.9920286444054405e+00 -5 0 -2
715 1 7.2756593209904858e+00 2.9511070707859259e+00 1.4164615336872428e+00 1 0 2
115 1 1.3567963448060556e+01 2.5665057907946451e+00 1.2103702546471824e+01 -5 0 -5
426 2 1.3188868995456822e+01 2.2904494677320404e+00 3.0927938533748911e+00 -2 0 1
344 2 1.1918361618689051e+01 -1.6491352844231004e+00 1.5717374923928279e+01 -2 0 1
760 1 9.1952945846015890e+00 -1.0330484445797419e+00 4.4769432123679559e-01 -3 0 2
978 2 6.2250722236804874e+00 -7.6618093415415767e-01 1.7055653567237211e+01 -3 0 -1
933 2 -1.9175155820767484e+00 1.0453747752346607e+00 1.5019407931664801e+01 -2 0 -1
857 2 -7.1000638474090638e-01 5.4805158553046081e+00 7.2654731580222389e+00 -1 0 -3
868 1 1.2466655695394465e+01 5.8301465549927611e+00 7.0593364355525114e+00 1 0 0
29 2 -5.4789517252804520e-01 8.1330299508335333e+00 1.2842882185854572e+01 -2 0 -4
18 2 -1.2202197799601202e+00 5.2198932319604019e+00 1.4408329635506608e+01 0 0 1
539 2 3.2587359201338582e+00 -1.1755653216220159e+00 1.7546320681788778e+00 -4 0 -3
391 1 3.6851100889820629e+00 9.0583235859725626e+00 9.1598192002293271e+00 -1 0 -1
785 2 1.2966366409084973e-01 1.1817050680465999e+00 1.4459077433484175e+00 -3 0 -2
870 2 1.2029554433861547e+01 5.7020356692240961e+00 7.9781230429934205e+00 1 0 0
211 1 9.2623382588152054e+00 2.1891725829549609e+00 6.4394871935056237e+00 -5 0 -2
387 2 1.6743730803475290e+00 2.9723907403858707e+00 4.1555399225762883e+00 0 0 -2
320 2 1.0275611650228811e+01 -1.3609847492869562e+00 1.4357788151019005e+01 -4 0 -3
643 1 1.1225826392046882e+01 5.2688790748493508e-01 1.2157802781351288e+01 -4 0 -3
28 1 -9.4791255468880831e-01 9.0283289613640445e+00 1.2824408112339809e+01 -2 0 -4
148 1 1.5658930318010571e+01 8.3229053616339996e+00 1.2725257374964345e+00 -4 0 0
214 1 -4.8252153028492550e-01 7.7057842891178669e+00 9.2464764228669978e+00 0 0 -2
116 2 -4.1428413204732255e+00 2.1392208344062662e+00 1.3007463631489847e+01 -4 0 -5
224 2 -1.0612769735016734e+00 5.8831446870740969e+00 1.7836484258364198e+01 -2 0 -2
845 2 7.8251456399480324e+00 -4.2239086413584226e-01 1.2494500348376254e+01 1 0 1
48 2 8.4630137845852484e+00 7.3387711544518908e+00 6.9843879212622921e+00 -3 0 0
117 2 -4.1343448638530811e+00 3.4862054611958362e+00 1.2160404334302378e+01 -4 0 -5
931 1 -1.0617355752434978e+00 1.0956491899913483e+00 1.5479579947993262e+01 -2 0 -1
429 2 1.1698052440878714e+01 8.3781766854114572e+00 1.6612657465939257e+01 -1 0 -1
385 1 1.6769756517721097e+00 2.0044796892666210e+00 4.1554539456197279e+00 0 0 -2
634 1 -8.6009346554728672e-01 8.6435398478727681e+00 6.5345371423746492e+00 1 0 -2
961 1 1.9205220654067148e+00 -6.3281607287514108e-01 1.5158847491741982e+01 -3 0 -1
42 2 3.1504761124612561e+00 4.2535196593942564e+00 7.7249182127467479e+00 -2 0 3
726 2 1.2355996126048369e+01 7.1099668673300398e-01 7.2580143495976648e+00 1 0 1
876 2 1.1021200944831195e+01 7.5503752231662560e+00 1.1825905076072617e+01 -3 0 1
769 1 -2.7871623313947058e+00 3.8369893084857880e+00 9.2554919630646673e+00 1 0 -3
1002 2 8.4897295999984053e+00 1.3349997127156472e+00 2.8473675207107956e+00 -1 0 1
4 1 3.1212401189565853e+00 7.7668146610653661e+00 5.2650369257183876e+00 1 0 0
905 2 1.9620735755219965e+00 8.2501160179638173e+00 1.8313039389320931e+01 -3 0 1
41 2 4.0263646882248807e+00 3.2743557041395208e+00 8.6053027803125204e+00 -2 0 3
976 1 5.4166410674696959e+00 -4.0697890952067595e-01 1.7536235592485887e+01 -3 0 -1
812 2 1.0773287750713928e+01 6.9501737008171798e+00 1.3734197502842630e+01 -2 0 -1
932 2 -4.7556231001790472e-01 1.6418960949424091e+00 1.4877847797359101e+01 -2 0 -1
846 2 6.5732442203370525e+00 -1.2003683003567720e+00 1.2011313693309509e+01 1 0 1
213 2 8.3662812850117270e+00 1.7592804535106636e+00 6.5166413633361087e+00 -5 0 -2
269 2 -2.2485625869119121e+00 8.4407593965245677e+00 1.5285092008571379e+01 2 0 -1
747 2 -5.3418898693174368e+00 1.0002629175089941e+01 1.5455655166944471e+01 -2 0 0
338 2 2.4961370095764881e+00 5.0016353193841141e+00 3.1442977940527022e+00 -1 0 -1
938 2 1.1043212066485390e+01 6.8875202805586522e+00 3.5677184070318964e+00 1 0 1
969 2 2.2598536421507616e+00 3.4299472689632342e+00 1.1694334590127220e+01 -1 0 1
545 2 1.8387234529712302e+00 1.6396262226857621e+00 1.3263087953054750e+01 2 0 1
386 2 1.2111394899442078e+00 1.6852104518547288e+00 3.3651418594440243e+00 0 0 -2
937 1 1.1585356533517382e+01 7.1708237538915682e+00 2.7566006838757224e+00 1 0 2
40 1 3.3103938280577507e+00 3.9023696572446243e+00 8.6292608634214520e+00 -2 0 3
786 2 1.3549173254046183e+00 2.0787292639108532e+00 1.2008548033228235e+00 -3 0 -2
979 1 1.2177560384592791e+01 9.9995946054147193e+00 1.0548573736571219e+01 -2 0 0
724 1 1.3268015396728062e+01 9.0544922873191114e-01 7.1215653016704117e+00 1 0 1
784 1 1.1131855416782490e+00 1.1647089271634115e+00 1.4830974548995439e+00 -3 0 -2
967 1 1.8149702352589410e+00 3.3381685775152370e+00 1.0827962820301494e+01 -1 0 1
553 1 9.3091892056911085e+00 3.2697695721013318e+00 1.7206105045142181e+01 -5 0 -2
681 2 6.2590177925830623e+00 3.9972144629953599e+00 1.8431780263694581e+01 -3 0 -3
649 1 7.2496227394184096e+00 7.4302585803835131e-01 5.9746586385687568e+00 -4 0 0
650 2 6.3882733359032304e+00 7.4364799359793832e-01 6.4551505662746118e+00 -4 0 0
51 2 1.0201142879574967e+01 1.9580688443612599e+00 1.2062075168365373e+01 -1 0 0
36 2 -1.0909322707375768e+00 9.3775182448695427e-01 5.0159688173856818e+00 -1 0 0
945 2 3.3578259009038001e+00 1.5747650223838705e+00 4.0577580571440626e+00 0 0 3
673 1 1.8046505249906108e+00 8.0450971333987855e+00 4.2045795532865499e-01 0 0 -3
939 2 1.0940814396936318e+01 7.8926008305153399e+00 2.4351434031649757e+00 1 0 1
397 1 1.4786424975647719e+01 7.7832005143851308e+00 5.5610408210264035e+00 2 0 0
127 1 1.2947988890391532e+01 4.7517214347919081e+00 2.1082782755642220e+00 -2 0 -1
128 2 1.2734047780280502e+01 4.1477126546843834e+00 2.8299192785794958e+00 -2 0 -1
1407 2 1.4442039145001248e+01 8.0523679793319403e+00 4.7098108498581270e+00 2 0 0
34 1 1.6167361111517806e+01 8.3595792195171148e-01 4.3462869192195219e+00 -2 0 0
928 1 1.3871995600829276e+01 3.4425786360754138e+00 6.1421548356119811e+00 0 0 0
777 2 1.1534265390005624e+01 6.8390731854272868e-01 1.4924705422743225e+00 -2 0 2
152 2 6.4959661541537654e+00 3.2346564574511572e-01 2.6904482018558862e+00 3 0 0
439 1 2.1431987852740519e-01 6.6888758536284101e+00 1.2676325168563041e+01 -2 0 -2
350 2 1.3973154649656591e+01 8.6856910785752461e-01 9.9202336910458100e-01 2 0 4
712 1 -1.2077360617906256e+00 -6.7013123279802511e-01 1.2841888219308277e+01 0 0 3
749 2 7.3733042354686056e+00 9.7089466483630247e+00 9.7956331829742744e+00 -3 0 1
783 2 -4.7183437986181103e+00 3.4456703395735264e+00 1.9014041058417057e+01 -2 0 -3
457 1 -9.2642771572626970e-01 -1.4904458929549023e+00 3.1100899921034100e+00 -2 0 -2
994 1 9.2861855391308357e+00 4.3059813060567587e+00 8.5173646250934549e+00 3 0 1
725 2 1.3360511348360042e+01 1.9062664993541705e+00 6.9330552972164172e+00 1 0 1
160 1 -3.1527464669610423e+00 6.5394512022250701e+00 9.5695739432705054e+00 1 0 -5
129 2 1.2493300386906233e+01 5.6242283086754465e+00 2.3130671190881107e+00 -2 0 -1
844 1 7.5457149166511703e+00 -1.2052891537110439e+00 1.1955955599023069e+01 1 0 1
173 2 8.3405675160533903e+00 4.4910440186246836e+00 1.4063102870870706e+01 -1 0 -2
1664 2 6.7070016899109977e+00 7.6868820616297704e+00 1.8663324840344021e+01 -3 1 -1
354 2 9.7448765616620960e+00 8.7740608586973448e+00 9.7303595249227541e+00 -1 0 0
896 2 1.3426789960979404e+01 9.6598460728152347e+00 3.0983820151438284e+00 -1 0 0
462 2 1.0493549252340209e+01 4.9596365528576705e+00 9.0229739349438809e+00 -4 0 -2
651 2 7.1476265264884669e+00 6.3377171738547444e-01 4.9822448421789876e+00 -5 0 0
996 2 8.6552882813780823e+00 4.9416186865167226e+00 8.0509199664116657e+00 3 0 1
611 2 1.1956494928098506e+01 3.6317050505680877e+00 9.5007405933488887e+00 -1 0 2
216 2 -4.0138990021438881e-01 7.9744855695974355e+00 8.3043391574646339e+00 0 0 -2
511 1 7.2374957917624680e+00 -1.7163379362804174e+00 1.6033242861906345e+01 1 0 0
962 2 1.3418768272274963e+00 -1.1596261183737808e+00 1.4605051288663450e+01 -3 0 -1
102 2 4.1515079263071284e+00 6.9081841121595904e+00 1.3359524093712395e+01 -1 0 -1
497 2 4.9932218036279332e+00 1.0951328906862257e-01 8.2462844807830624e+00 0 0 1
498 2 4.0467293716078157e+00 7.4331044711880789e-01 7.2450192037858097e+00 0 0 1
395 2 9.0765231865745974e+00 4.8096941683949703e+00 2.5337920485927237e+00 -3 0 -3
924 2 2.8862094141619234e+00 9.0797030623133121e+00 1.3671024161616996e+01 -3 0 -3
349 1 1.4096860316123191e+01 1.7761050940917844e+00 1.4145906221712161e+00 2 0 4
679 1 6.8481458615194066e+00 3.2288499643248825e+00 1.8237117259571033e+01 -3 0 -3
398 2 1.5536897194678016e+01 8.3666847356860572e+00 5.6723599309297246e+00 2 0 0
540 2 2.3479306150647643e+00 1.1077914594309068e-01 1.3925507337582084e+00 -4 0 -3
433 1 8.6341378885401205e+00 9.8934892270666737e+00 1.8259186608868625e+01 -2 0 0
321 2 1.1136984173607946e+01 -1.6808881730590541e-01 1.3829365098320778e+01 -4 0 -3
943 1 4.3154211827426572e+00 1.2557363602493425e+00 4.1425907173036798e+00 0 0 3
493 1 2.8942561468567511e+00 9.7549043261527189e+00 6.7607293528295473e+00 -3 0 -2
542 2 4.9919553734326465e+00 1.0359505372701403e+01 1.6738040340569224e+01 -1 0 1
220 1 -9.3290907015032776e-01 8.4963045260373118e+00 1.6391943423681177e+01 -2 0 -3
172 1 9.2079433005070470e+00 4.1052063093806552e+00 1.4301444905733511e+01 -1 0 -2
298 1 -4.9169776750931771e+00 1.4002202593720683e+00 1.6493514207095767e+01 -2 0 -2
680 2 6.2343444544114508e+00 2.6991217498841449e+00 1.7638420373920944e+01 -3 0 -3
831 2 1.6539483712789824e+00 8.0258561431173181e+00 4.7407623551356224e+00 -3 0 0
538 1 3.1414675685277182e+00 -4.6407359232423029e-01 1.1227790122757624e+00 -4 0 -3
944 2 4.8739409267210112e+00 2.0165105957696978e+00 3.9041493046694580e+00 0 0 3
100 1 4.5919237625080793e+00 6.2434269099075319e+00 1.2807264178867024e+01 -1 0 -1
1667 2 5.8691443452641323e+00 2.3685889878577253e+00 1.5213340569935600e+01 -1 1 -2
352 1 9.0046363821624968e+00 8.8321707047572549e+00 1.0343272045398466e+01 -1 0 0
174 2 9.8716356321860097e+00 4.8448139804642407e+00 1.4398335864625340e+01 -1 0 -2
388 1 1.4018482164217172e+01 -4.9573125900444315e-01 4.8256722230627096e+00 -1 0 0
465 2 1.6367637692698294e+00 5.5803027907570826e+00 7.1959430784963141e+00 2 0 0
84 2 1.3792662930109415e+01 7.9003534751602036e+00 8.7227999740385105e+00 -1 0 -3
460 1 1.1462172815515205e+01 5.2576665203386490e+00 9.2486044686874465e+00 -4 0 -2
607 1 5.6710044697049558e+00 5.6775061690950679e-01 1.0399044082682172e+00 -3 0 0
251 2 4.6025911912881918e+00 8.8033750772956889e+00 1.4904170908518715e+01 -3 0 1
291 2 6.8366490563614848e+00 8.5349275948955796e+00 5.1867335705715334e+00 0 0 3
746 2 -4.0265253610784386e+00 9.7723479595849128e+00 1.4752340916284092e+01 -2 0 0
595 1 1.5571310642731175e+00 4.6269602071270848e+00 4.3016486848471613e+00 3 0 -2
528 2 4.3683679418436654e+00 -1.5725412995389765e-01 4.7797873262470736e+00 -2 0 -1
109 1 1.2738770806927748e+00 3.2677682541341069e-01 1.7461503357317195e+01 1 0 -4
615 2 -1.0443307750452062e+00 1.7178420980612334e+00 1.7117417881954371e+01 -2 0 -1
993 2 1.2873221582416388e+01 -1.3708850315107293e+00 1.0504937575160895e+01 1 0 1
461 2 1.1366100614587507e+01 5.9815775249764265e+00 9.8757205109889981e+00 -4 0 -2
599 2 1.4498292984947035e+01 6.3071912674038355e-01 8.7429203815877337e+00 -4 0 1
408 2 1.2491473533043642e+00 1.8103019382187435e+00 1.0298188626070202e+01 -2 0 -2
250 1 5.3082937129495482e+00 9.4335017738484979e+00 1.5174696545147849e+01 -3 0 2
182 2 1.1299639319161844e+01 5.7557974932030351e+00 5.7264246457673247e+00 -1 0 0
35 2 1.6309567618592695e+01 1.4780556908809106e+00 3.6362412062192249e+00 -2 0 0
428 2 1.0980134306326898e+01 9.8224977117375847e+00 1.6770418473213574e+01 -1 0 -1
65 2 5.9986552831617299e+00 1.9187363216470796e+00 9.5143393517118255e+00 -2 0 -3
475 1 8.0281675470002423e+00 3.8784741196193373e+00 1.0611608980745400e+01 -1 0 2
68 2 1.4452536743836529e+01 5.3397500324279612e+00 1.3069300520247058e+00 -4 0 -2
526 1 4.3848046642011118e+00 -1.1042645257824439e+00 4.9907192819274604e+00 -2 0 0
133 1 -5.2576540156114060e-01 5.0070779267183108e+00 1.0508618383698755e+01 1 0 -1
610 1 1.2502251105286673e+01 2.8432756309784262e+00 9.6711376952876282e+00 -1 0 2
675 2 -4.8694360175922000e+00 7.7570521189677191e+00 1.8604795144022404e+01 0 0 -4
82 1 1.3346121258512245e+01 8.4582956842729935e+00 8.0465164531208799e+00 -1 0 -2
300 2 -4.5561737516448408e+00 4.7609608715206475e-01 1.6814583509121995e+01 -2 0 -2
919 1 1.1025909222296246e+01 -1.2783210860565704e+00 1.0146378823419843e+01 0 0 -2
782 2 7.3980528627207420e-01 4.3114024659569932e+00 4.1066210066504155e-01 -2 0 -2
690 2 -1.1730907517998546e-01 1.6548318677891656e+00 6.8306803425940128e+00 -2 0 0
561 2 8.3053577091064508e+00 -4.2164886831820736e-01 6.6381739587087951e+00 -2 0 1
728 2 8.3615454710657957e+00 5.5008218851698629e+00 1.1119473246435703e+01 0 0 1
113 2 8.9270976236043253e+00 6.9790929746595198e-01 1.4518909769319183e+01 -2 0 -1
829 1 7.8541997069107716e-01 8.3709541839146304e+00 4.4390494384979169e+00 -3 0 0
685 1 2.0245899889890961e+00 -1.2487969258562803e+00 9.0149083239818353e+00 -3 0 1
222 2 -5.9051888108002082e-01 9.2731053699690325e+00 1.7000839992456321e+01 -2 0 -3
289 1 7.3569061114187004e+00 9.2714237528044876e+00 5.3915071410148334e+00 0 0 3
67 1 1.5027739265748304e+01 5.7909563101469397e+00 7.2505613264486724e-01 -4 0 -2
727 1 8.1502890347476225e+00 6.4589131708447116e+00 1.1265470278272337e+01 0 0 1
114 2 7.3395451359938368e+00 1.1777665835151327e+00 1.4631227289207908e+01 -2 0 -1
425 2 1.2099569534500835e+01 1.8029242272069652e+00 4.1315826577991031e+00 -2 0 1
544 1 2.4821612992159885e+00 9.6392611782211945e-01 1.3022781120200845e+01 2 0 1
167 2 7.8347500697542900e+00 1.0093059545958829e+01 3.5311961772743894e+00 -4 0 -4
1001 2 9.8796428812531865e+00 1.2991635130928327e+00 3.7474404868398032e+00 -1 0 1
496 1 4.9470540953563580e+00 7.7944069084533485e-01 7.5478071382028453e+00 0 0 1
655 1 6.6491124430212842e+00 6.8490784980982209e+00 1.8151061431780285e+01 -3 0 -1
337 1 3.1064640419235556e+00 5.0540768669406635e+00 2.3744761818851146e+00 -1 0 -1
277 1 6.2143652073624347e+00 7.2920168484014347e+00 9.5391336773185671e+00 -4 0 -1
221 2 -1.2367157987931954e+00 7.7758291424101600e+00 1.7005044560150935e+01 -2 0 -3
750 2 6.4692057839170332e+00 1.0240742419055813e+01 8.7139077913949414e+00 -3 0 1
583 1 1.3652071350228933e+01 5.4454230868447997e+00 1.1769842014954783e+01 -5 0 -4
584 2 1.2815384402949487e+01 5.9337275577040902e+00 1.1793536092771763e+01 -5 0 -4
641 2 1.2812733103404779e+00 7.1608780244767249e+00 1.1401154994352508e+01 4 0 -1
110 2 1.3545778233612422e+00 -8.8253771136637127e-03 1.6571177275417124e+01 1 0 -4
389 2 1.3616648396271081e+01 -6.9444802950495710e-02 5.6072685206835962e+00 -1 0 0
47 2 9.5872807036915564e+00 7.0416685944889608e+00 6.1346756855120566e+00 -3 0 0
207 2 5.1755757294680320e+00 1.8500848376680556e+00 1.2945903718762496e+01 3 0 0
808 1 7.4680902790155157e+00 5.9219810858728463e+00 7.5360266855166271e+00 -4 0 -1
175 1 4.7072406722463320e+00 -1.0673285925553511e+00 1.2152692750342110e+01 -5 0 1
577 1 2.7996463521092396e+00 5.0018593454966949e+00 1.6259325726726534e+01 0 0 0
19 1 1.0176165259600999e+01 9.1009938174847864e+00 1.7683079900624412e+00 -3 0 -3
1000 1 9.3789990405016539e+00 1.7303813361330636e+00 2.9671676684271837e+00 -1 0 1
294 2 -2.3267554566774562e+00 2.4107639582877995e+00 1.1982292492305048e+01 1 0 -3
390 2 1.4759860331856791e+01 5.2362813330335545e-03 4.5648535068672800e+00 -1 0 0
297 2 1.7051126782112750e+01 7.4068272960838879e+00 1.6603382621004312e+00 1 0 3
521 2 8.1688293164314079e+00 -2.2963803089271817e-01 8.6055357266615342e+00 -5 0 -2
813 2 1.1441223864769693e+01 6.4166838548277454e+00 1.4897919390553135e+01 -2 0 -1
912 2 1.1134260990322190e+01 -2.2128910780994859e-01 5.2148233289040178e+00 -2 0 1
549 2 7.8684715793478057e+00 8.0318627221783263e+00 1.5267901727513481e+01 -3 0 -4
991 1 1.3759986436792101e+01 -1.3764134917349273e+00 1.0886060003866595e+01 1 0 1
771 2 -2.3061547312015325e+00 3.3981263205249812e+00 8.5400770215779165e+00 1 0 -3
161 2 -2.9804687848541622e+00 5.5860680932605806e+00 9.3681113635385316e+00 1 0 -5
809 2 7.0349178327240276e+00 5.6925088625367541e+00 6.6985088723573769e+00 -4 0 -1
866 2 -4.1758163958286065e-01 4.0639572342816734e+00 1.7885217704631657e+01 -3 0 -1
94 1 -5.9341824800295528e-01 2.8632757802611044e+00 7.9523868942160076e+00 -1 0 -1
225 2 -1.9684091957428524e+00 6.8449547502255133e+00 1.8799311012845525e+01 -2 0 -2
770 2 1.4206942003639147e+01 3.4563727756315759e+00 9.3296934729443901e+00 0 0 -3
123 2 7.4841763130312664e+00 8.9045607664851119e+00 1.3435344417538673e+01 -2 0 -1
440 2 2.5559109066403529e-01 6.1548031164292816e+00 1.3483545246201714e+01 -2 0 -2
383 2 -1.3576526757225151e+00 4.8907183823835796e+00 4.1413249322739976e+00 -1 0 1
6 2 3.0444723419917521e+00 8.5551179399516446e+00 5.8648223194139915e+00 1 0 0
499 1 3.9011483457206442e-01 2.3429167816457150e+00 1.3670379657996165e+01 1 0 1
910 1 1.0940780210108565e+01 7.2417021355622424e-01 4.9399715078908981e+00 -2 0 1
546 2 2.3202707780093421e+00 2.6363093358188672e-01 1.3708976740021068e+01 2 0 1
980 2 1.3079724823805931e+01 1.0100217081849054e+01 1.0249893869430572e+01 -2 0 0
729 2 7.3246893276210603e+00 6.5611815114286269e+00 1.0746829668595403e+01 0 0 1
612 2 1.2734682913039817e+01 2.7868430710349017e+00 1.0659526324673525e+01 -1 0 1
674 2 1.2109347114984170e+00 7.3501571639957852e+00 8.0658494235168499e-01 0 0 -3
121 1 8.0457627609088966e+00 8.1227279323803270e+00 1.3573124281825729e+01 -2 0 -1
911 2 1.0547472099275836e+01 1.3076471782244403e+00 5.6536517085409956e+00 -2 0 1
424 1 1.2659245992099798e+01 2.5504093799661876e+00 3.8484514104724079e+00 -2 0 1
811 1 1.0969544839984701e+01 6.1380541225874659e+00 1.4149424170850414e+01 -2 0 -1