LAMMPS data file via write_data, version 3 Mar 2020, timestep = 1000000

1008 atoms
2 atom types

2.0858379431372853e-01 1.8190971205676757e+01 xlo xhi
2.5410904523626598e-02 2.2544978095473276e+01 ylo yhi
1.7261591759701744e-01 1.9333100082398516e+01 zlo zhi
3.9669121959806812e-02 -6.7081895100420299e+00 3.5565402660516169e-03 xy xz yz

Masses

1 16
2 2

Atoms # atomic

1 1 6.8418942158182707e+00 1.2504605499137036e+00 4.9606196671530025e+00 0 0 0
835 1 1.2728463086365476e+01 8.7148778145604737e+00 9.6121358722716934e+00 0 0 0
3 2 6.5469737687353735e+00 1.5836907767884918e+00 4.1295133730970797e+00 0 0 0
4 1 3.9902755226706716e+00 1.2039243898202041e+00 5.0600012228970552e+00 0 0 0
5 2 4.9718113981035001e+00 1.1852068620707934e+00 5.0439005558618826e+00 0 0 0
6 2 3.7087821884190397e+00 1.6177786543554380e+00 5.9049248981607256e+00 0 0 0
7 1 -4.9480474976211175e-01 6.2602652702249362e+00 5.1411687803857156e+00 0 0 0
8 2 -5.3569690749037324e-01 5.9172256989028433e+00 6.0463916341103348e+00 0 0 0
9 2 -1.0896267786638696e+00 7.0332418919945967e+00 5.0789066681602870e+00 0 0 0
10 1 2.2303980974673308e+00 6.1942812812753454e+00 4.8652999357850382e+00 0 0 0
11 2 1.2652160631476377e+00 6.3615521415391854e+00 4.8736176205252759e+00 0 0 0
12 2 2.6757288993755148e+00 7.0422743265554102e+00 5.0775553018445052e+00 0 0 0
80 2 6.5957456149808245e+00 1.8781941134438924e+00 1.1108026709254988e+00 0 0 0
14 2 4.9715171559071170e+00 5.3787372072758073e+00 8.6303826497987277e+00 0 0 0
585 2 3.8137114425421892e+00 1.7891922142962564e+00 9.1031656600593731e+00 0 0 0
154 1 1.2858582200557661e+01 4.9762503692347360e-01 1.7031642952409274e+00 0 0 0
18 2 5.8787169247598650e+00 5.2766235826255246e+00 1.1184018511748866e+00 0 0 0
135 2 1.5780555797770560e+01 2.5526543942867823e+00 6.1531723991957987e+00 0 0 0
146 2 1.7377539795015455e+01 6.1582099297381419e+00 1.4997704327946397e+00 0 0 0
21 2 8.3159949881017736e-01 2.2092637330397289e+00 1.2264994975554795e+00 0 0 0
23 2 8.3777442873933472e-01 3.3636543871011813e+00 9.6510448946603802e+00 0 0 0
217 1 6.7826194124546255e+00 1.0740227525518947e+01 6.4211027557454559e+00 0 0 0
152 2 7.7965367535412380e+00 5.9947176818245307e-01 7.8314635828156440e+00 0 0 0
25 1 4.9145225897756548e+00 6.4961602675499588e+00 7.1745381016801151e+00 0 0 0
26 2 5.4626520114297739e+00 7.3146999871382370e+00 7.4137137637411286e+00 0 0 0
27 2 3.9854776845880862e+00 6.7207955938575790e+00 7.4733555735421699e+00 0 0 0
28 1 6.1350264946562101e+00 6.3970917413676318e+00 2.5255261356282199e+00 0 0 0
29 2 5.8962171768616294e+00 5.9584798817116464e+00 3.4038369700158841e+00 0 0 0
30 2 5.3867203275338076e+00 7.0929220848742371e+00 2.3620577802581137e+00 0 0 0
31 1 1.2458163226282926e+00 9.1684277751867016e-01 2.7662534123484819e+00 0 0 0
32 2 2.1097259111065654e+00 5.9470434742135192e-01 2.4505894360765805e+00 0 0 0
33 2 1.4831806099161509e+00 1.4557450749665619e+00 3.5607534722118559e+00 0 0 0
34 1 5.7807603713076805e-02 1.1116736730621373e+00 7.3450891747075273e+00 0 0 0
187 1 1.1108235343202786e+00 9.8515867634024517e+00 3.1802761878506342e-01 0 0 0
36 2 3.0418060759105003e-01 1.6127333957955299e+00 8.1294466548335791e+00 0 0 0
37 1 6.0018614940947153e+00 2.5188235792806180e+00 2.5968401328487838e+00 0 0 0
38 2 5.1896957616533612e+00 2.9704424933863698e+00 2.8842736572539982e+00 0 0 0
39 2 6.7595601817443995e+00 3.1753530629189077e+00 2.6197578635487915e+00 0 0 0
40 1 4.1964809069815239e+00 2.5246495553265724e+00 7.5973399998766968e+00 0 0 0
41 2 5.1110731771663316e+00 2.7942213555686224e+00 7.3193370327312692e+00 0 0 0
42 2 3.5629047965030800e+00 3.2173352438340577e+00 7.3530467637668524e+00 0 0 0
43 1 -4.8589763833283173e-01 5.0876763041075641e+00 7.4594860822802236e+00 0 0 0
44 2 -1.0429904031987842e+00 4.3258606717456773e+00 7.2842332085438484e+00 0 0 0
45 2 -6.0640640547545965e-01 5.5116535492903314e+00 8.3221182782221952e+00 0 0 0
46 1 1.8274462381108618e+00 4.9770084511206836e+00 2.4137934390666027e+00 0 0 0
47 2 9.8481183613252898e-01 4.5384164311938822e+00 2.6518229808216067e+00 0 0 0
48 2 1.9460242351050634e+00 5.5962241716476937e+00 3.1705753239713226e+00 0 0 0
49 1 6.6134029568405586e+00 3.4684899695335831e+00 6.5115971891360038e+00 0 0 0
50 2 6.4240351167840917e+00 4.0317695035904446e+00 5.7675335177445550e+00 0 0 0
51 2 6.9946483455037800e+00 2.6084691174320578e+00 6.2568614470383057e+00 0 0 0
52 1 3.7991545498348231e+00 3.5285328277020014e+00 3.4349733962545161e+00 0 0 0
53 2 3.0652161306987278e+00 3.8599777003346758e+00 2.9017924078127377e+00 0 0 0
54 2 3.5335386849673722e+00 2.8629748496977765e+00 4.1008615239416848e+00 0 0 0
55 1 -7.2921347562439620e-01 4.0241500042639089e+00 3.5864791381884014e+00 0 0 0
56 2 -8.2884493651756697e-01 4.8385213563677896e+00 4.1130526004304624e+00 0 0 0
57 2 -3.9760551429812596e-01 3.4727636141402156e+00 4.2641025886543300e+00 0 0 0
58 1 2.1323607624056438e+00 4.1153466569138573e+00 6.9931082626578833e+00 0 0 0
59 2 2.2892025081473921e+00 4.9189415727481673e+00 6.5073477403420013e+00 0 0 0
60 2 1.2797909233876910e+00 4.2891594785865887e+00 7.4109139670542845e+00 0 0 0
61 1 8.5993824389824578e+00 7.2040403225782814e+00 1.7040900990181009e+00 0 0 0
62 2 7.7295937302625184e+00 6.7699264739551648e+00 1.9628550865069501e+00 0 0 0
63 2 8.9441102046947751e+00 6.5433287061385776e+00 1.0598910215026032e+00 0 0 0
64 1 2.3942037095549513e+00 7.0347273892609392e+00 8.4678914983231728e+00 0 0 0
65 2 1.6210884758715181e+00 7.5121677707768040e+00 8.0095320210950476e+00 0 0 0
66 2 2.6558607976749462e+00 7.7177855504874842e+00 9.1474468061325798e+00 0 0 0
219 2 5.9192167643272544e+00 1.0684404449029737e+01 6.8968356405856568e+00 0 0 0
68 2 -2.4792021659399679e+00 1.1731186312078863e+00 8.9921530558893732e+00 0 0 0
218 2 7.4755342746075879e+00 1.1269867874916855e+01 6.8811872208392639e+00 0 0 0
72 2 4.1691665426978730e+00 1.2855934794733481e+00 1.1905264538935207e+00 0 0 0
73 1 5.5002210310032371e+00 5.1540422493940437e+00 4.7988859168277367e+00 0 0 0
74 2 5.0589565376879397e+00 5.7068965632449924e+00 5.5404722459603644e+00 0 0 0
75 2 4.6979407454390145e+00 4.7205219330613328e+00 4.3889896005670943e+00 0 0 0
76 1 9.8093301482613837e-01 2.4652961879821875e+00 5.1597901156303125e+00 0 0 0
77 2 4.8760312401459149e-01 1.9700304714575980e+00 5.8287476942897012e+00 0 0 0
78 2 1.4095176024451597e+00 3.1511116689787384e+00 5.7564656742774805e+00 0 0 0
84 2 3.4700701523465152e+00 6.6494258280227241e+00 6.5322423964271437e-01 0 0 0
69 2 1.4771894836478118e+01 3.0255194561933757e-01 7.8953802845020906e+00 0 0 0
670 1 7.8548398743704038e+00 6.5267746502953523e+00 9.7121785870941046e+00 0 0 0
85 1 1.5536962392359847e+01 9.4480764778000226e-01 5.1249206060140251e+00 0 0 0
87 2 1.5405309124861002e+01 1.3135783226072142e+00 4.2120141179730934e+00 0 0 0
88 1 1.2906760535475044e+01 1.1796003849032919e+00 5.2699740772113222e+00 0 0 0
89 2 1.2954594617502062e+01 1.8580433099130227e+00 4.6074468631083549e+00 0 0 0
302 2 1.5144999979667560e+01 1.0393152449974227e+01 6.7178605838649901e+00 0 0 0
91 1 8.4781929573263071e+00 6.7481372381208606e+00 5.0699227817286134e+00 0 0 0
92 2 8.1349698901965262e+00 6.1585974264187291e+00 4.4378768980879233e+00 0 0 0
93 2 9.4494220727461204e+00 6.8529210262327585e+00 4.9166998720943660e+00 0 0 0
94 1 1.1103235858703538e+01 6.5504350871241401e+00 4.8409529947025254e+00 0 0 0
95 2 1.1602236564812566e+01 7.3723120597776823e+00 5.0099528905667574e+00 0 0 0
96 2 1.1220467233094782e+01 5.9979541030386248e+00 5.5898576541765523e+00 0 0 0
304 1 1.2959059250503126e+01 1.0510688460473242e+01 3.4979285386325620e+00 0 0 0
692 2 -2.7684933803464462e+00 1.1063403964842379e+01 9.4955661149295878e+00 0 0 0
156 2 1.1976814920590918e+01 6.6233544263718103e-01 2.2750003714109881e+00 0 0 0
101 2 1.4535784797328860e+01 4.9108058275557438e+00 1.0509811524212467e+00 0 0 0
671 2 8.1688829982668825e+00 6.0009574235194156e+00 8.9774843639766058e+00 0 0 0
151 1 6.9738224806745670e+00 4.1000033401546437e-01 8.3476617172910164e+00 0 0 0
602 2 1.6649248451691868e+01 4.4297156914413724e+00 2.3798027869977451e-01 0 0 0
2 2 7.5888851685940288e+00 6.4851946414396255e-01 4.7492984764185859e+00 0 0 0
109 1 1.3592042964512775e+01 6.6017428199316832e+00 7.1857959711348158e+00 0 0 0
110 2 1.3876588096689785e+01 5.9998033064715370e+00 7.8991072783825969e+00 0 0 0
111 2 1.2689540707187334e+01 6.8993366773746532e+00 7.1980379164462267e+00 0 0 0
112 1 1.4839500161768550e+01 6.0603269902991110e+00 2.6201502746021226e+00 0 0 0
113 2 1.4347729514080658e+01 6.8014070911619386e+00 2.2798541345788181e+00 0 0 0
114 2 1.5819550219204304e+01 6.2911842756236531e+00 2.6792220170920049e+00 0 0 0
115 1 1.0377367986224732e+01 1.2971947395771926e+00 2.5634732050559537e+00 0 0 0
116 2 1.0549113484534708e+01 1.8925099531137040e+00 1.8191704606564576e+00 0 0 0
696 2 4.1705222729101816e+00 1.1029486261059404e+01 5.8360896096789383e-01 0 0 1
118 1 9.1444539161206926e+00 1.6418949058193513e+00 7.3100046686468234e+00 0 0 0
119 2 9.3636318180315552e+00 2.3642394599952059e+00 7.9581998669572371e+00 0 0 0
120 2 9.3275502131890704e+00 2.0349390058373427e+00 6.4338885253222466e+00 0 0 0
121 1 1.5275425116322007e+01 2.5336950052980427e+00 2.8012048193028103e+00 0 0 0
122 2 1.6031623428721648e+01 3.1628329251784657e+00 2.8898335094226351e+00 0 0 0
123 2 1.5336652698830399e+01 2.0605337800473937e+00 1.9519138841785524e+00 0 0 0
124 1 1.3227617887568890e+01 2.8142407818503150e+00 7.4759410481854998e+00 0 0 0
125 2 1.4002487674850904e+01 3.2945871723302909e+00 7.2196974866458277e+00 0 0 0
126 2 1.3160863472340600e+01 2.1897701760661366e+00 6.7354613445427267e+00 0 0 0
127 1 8.5521164283704412e+00 5.1829676894195975e+00 7.5209903641152849e+00 0 0 0
128 2 7.8043452421904611e+00 4.5796500358330894e+00 7.3078529766024243e+00 0 0 0
129 2 8.6469532496015713e+00 5.7269569952742501e+00 6.7359951813880752e+00 0 0 0
130 1 1.0830644569069126e+01 5.2115961767273467e+00 2.3206570273525449e+00 0 0 0
131 2 1.1463621185978454e+01 4.4910523661486934e+00 2.5293129814204915e+00 0 0 0
132 2 1.0661644298986486e+01 5.6985916945680639e+00 3.1513011461925835e+00 0 0 0
134 2 1.5449871488403620e+01 4.0306306976352637e+00 5.8791374306325430e+00 0 0 0
136 1 1.2656465104054529e+01 3.4010918041476135e+00 3.5238456202937174e+00 0 0 0
137 2 1.3017721786709338e+01 3.9150327292908651e+00 4.2559862352222719e+00 0 0 0
138 2 1.3433461979127355e+01 3.0842270375002272e+00 3.0390918737569805e+00 0 0 0
139 1 8.0407115490133716e+00 4.3398864769894869e+00 3.3120858777164011e+00 0 0 0
140 2 8.8396920541455479e+00 4.2089513522618169e+00 2.8241303132867519e+00 0 0 0
141 2 8.2319842387757056e+00 3.7667808034153301e+00 4.0727321001964629e+00 0 0 0
142 1 1.1117766975607021e+01 4.3140548750105951e+00 6.6464631591706453e+00 0 0 0
143 2 1.1874900963334133e+01 3.7616828959240167e+00 6.9409858886572948e+00 0 0 0
144 2 1.0445585246599327e+01 4.3823380396908949e+00 7.3427238915523860e+00 0 0 0
147 2 1.7018741572444977e+01 7.7354771752118516e+00 1.5755320738726095e+00 0 0 0
148 1 1.1068101236296549e+01 7.2284455502559259e+00 8.1070662804812912e+00 0 0 0
149 2 1.1001709951416800e+01 6.5503122898804627e+00 8.8135861901435426e+00 0 0 0
150 2 1.1577062078656017e+01 7.9117581353190598e+00 8.6569837602118849e+00 0 0 0
165 2 1.6482209495569371e+01 7.5804738739037458e-01 5.9680347253900967e-01 0 0 0
691 1 -2.4175575829971176e+00 1.0136949707130665e+01 9.7178145457414242e+00 0 0 0
153 2 6.7267145759322613e+00 1.2443341987152232e+00 8.8354411091849929e+00 0 0 0
305 2 1.2348092528421521e+01 1.0918236752420993e+01 2.8193932052582449e+00 0 0 0
155 2 1.2962375610027969e+01 1.3471056089611699e+00 1.2892267917355786e+00 0 0 0
220 1 3.6967336602742691e+00 1.0821219722784921e+01 3.6157110838746527e+00 0 0 0
157 1 1.4475995396075303e+01 4.9994587029537501e+00 5.0134832736707970e+00 0 0 0
158 2 1.4486574990470420e+01 5.4035627881668304e+00 4.1226500492277962e+00 0 0 0
159 2 1.4335802900314947e+01 5.7004150871746369e+00 5.6791631331477870e+00 0 0 0
160 1 9.6937085768407094e+00 2.6876721135460886e+00 4.7699547160894262e+00 0 0 0
161 2 1.0418205978270493e+01 3.2546640009685488e+00 5.1059030590670842e+00 0 0 0
162 2 1.0040000770808806e+01 2.1002655770896248e+00 4.0138971233636198e+00 0 0 0
254 2 1.5763600090550060e+01 9.3620330403632757e+00 4.9812569113525766e+00 0 0 0
189 2 2.0298340064706162e+00 1.0235716807741131e+01 2.1465390467433967e-01 0 0 0
668 2 1.2889731821668590e+01 1.9898761307882447e+00 8.9946460278663665e+00 0 0 0
169 1 6.5602235781386389e+00 8.6328413328743370e+00 4.9319299600197750e+00 0 0 0
170 2 7.1628866812684659e+00 7.8616958655970430e+00 5.0087810622907583e+00 0 0 0
171 2 6.9451770713838901e+00 9.2652731721306676e+00 5.5602566548839469e+00 0 0 0
172 1 3.8196628456046997e+00 8.4513667219333062e+00 5.1635174588372692e+00 0 0 0
173 2 3.5879127749029891e+00 9.1475555239483537e+00 4.4845189192225119e+00 0 0 0
174 2 4.8051334033410313e+00 8.3260700274371953e+00 5.0913768606407199e+00 0 0 0
330 2 9.5877116901739257e+00 1.0452424511534563e+01 4.3011668814339759e+00 0 0 0
70 1 3.8067933448806923e+00 4.9951698003383832e-01 1.5887933386893638e+00 0 0 0
192 2 7.2163363175361628e-01 9.7801546738647112e+00 8.9448662571522259e+00 0 0 0
199 1 1.2517636833211347e+00 8.6482210422460764e+00 3.0678804330117289e+00 0 0 0
200 2 1.1227232881655416e+00 9.1423477634092940e+00 2.2266328155231334e+00 0 0 0
201 2 6.7376982221864490e-01 7.8672741348509545e+00 2.9711159979761543e+00 0 0 0
202 1 3.8985010687806732e-01 8.3265865231886593e+00 7.4580212746661836e+00 0 0 0
203 2 -5.8853707873969419e-01 8.1886459410697992e+00 7.4909587372889357e+00 0 0 0
204 2 4.7184788006059142e-01 8.8408552416269313e+00 6.6460916894571129e+00 0 0 0
205 1 6.1257679784222754e+00 1.0179487133645029e+01 2.7374820708323004e+00 0 0 0
206 2 6.3172571495537913e+00 9.4412273524985544e+00 3.3730152540210145e+00 0 0 0
207 2 6.4652950453663109e+00 9.7809810477826193e+00 1.8599616269504036e+00 0 0 0
208 1 4.2712368369780105e+00 1.0257931423789593e+01 7.3716760062141482e+00 0 0 0
290 2 1.6070911413887224e+01 1.0683137843603790e+01 2.9041562200807425e+00 0 0 0
210 2 4.0606440381809374e+00 9.5895348145066119e+00 6.5782267668564591e+00 0 0 0
301 1 1.5889958940774770e+01 1.0710245841340564e+01 6.0909754755838037e+00 0 0 0
399 2 7.9301574547350233e+00 3.2637228194150858e-01 1.1402262184122254e+00 0 0 0
836 2 1.3202734838424067e+01 9.2611871070140666e+00 8.9760636869703898e+00 0 0 0
90 2 1.3922499356556278e+01 9.0480695377508136e-01 5.3413254428083858e+00 0 0 0
521 2 2.2284303665162071e+00 5.4451776993189434e+00 9.6050050864206700e+00 0 0 0
235 1 -2.5001740082805144e+00 8.0268823827041604e+00 8.2801814051009206e+00 0 0 0
236 2 -2.7839142162630268e+00 8.7996713955422603e+00 8.8279562709612271e+00 0 0 0
238 1 3.7506557073544915e+00 7.9993548415569204e+00 1.9383790912195322e+00 0 0 0
239 2 2.9800503168418158e+00 8.2603215862461443e+00 2.5290316488544686e+00 0 0 0
240 2 3.8523464799342331e+00 8.7432345415820194e+00 1.3144357254834691e+00 0 0 0
244 1 5.6927310986983803e-01 1.0040908421567362e+01 5.3231106573361728e+00 0 0 0
245 2 8.8692721418002707e-01 9.5440761860786409e+00 4.5275852572646986e+00 0 0 0
246 2 1.3751738673634635e+00 1.0630964344335036e+01 5.6451002804405706e+00 0 0 0
97 1 1.3838863629788529e+01 4.9227470863926905e+00 9.1802664829732770e+00 0 0 0
167 2 1.1264507805769869e+01 6.1223294973591340e+00 9.4743997342460606e-01 0 0 0
253 1 1.5809058510914145e+01 8.4543291824171298e+00 4.5354650922786330e+00 0 0 0
255 2 1.5799276751239045e+01 8.5545002631205822e+00 3.5703736006887485e+00 0 0 0
256 1 1.2910233647176325e+01 8.6688140996012333e+00 5.2474127722049344e+00 0 0 0
257 2 1.3826602375155495e+01 8.3298334958904121e+00 5.0759385498733582e+00 0 0 0
258 2 1.2792671627192277e+01 9.3594162689164584e+00 4.5496320486900874e+00 0 0 0
274 1 9.8059183510388905e+00 1.0318497447301489e+01 9.4976758949110529e+00 0 0 0
272 2 1.0207994957192152e+01 9.4771014297065612e+00 1.2124290801224740e+00 0 0 0
83 2 2.3100443540685789e+00 5.6236028793810071e+00 9.2432714233493485e-01 0 0 0
276 2 9.7202386896790909e+00 1.0134850577253191e+01 8.5141967718891411e+00 0 0 0
283 1 1.0767050148689743e+01 8.4790357208127425e+00 2.6179105539447844e+00 0 0 0
284 2 1.0619429318644848e+01 8.8509882094932912e+00 3.5300691882163395e+00 0 0 0
285 2 1.0028610023922580e+01 7.8494162222928887e+00 2.4427277295675904e+00 0 0 0
286 1 9.1075355847555350e+00 9.0661496536850219e+00 7.1591477498144984e+00 0 0 0
287 2 9.7021845601337304e+00 8.2776809198515497e+00 7.3526241830366601e+00 0 0 0
288 2 8.1828205890195722e+00 8.7700382505816261e+00 7.4160754407619809e+00 0 0 0
289 1 1.5345191986188413e+01 1.0212028334062499e+01 2.4694817489339393e+00 0 0 0
584 2 2.8280232739401168e+00 6.3854932170851419e-01 9.2474826921858586e+00 0 0 0
291 2 1.5661496795686329e+01 9.8827678818658864e+00 1.6169736463658344e+00 0 0 0
292 1 1.3391451875327133e+01 1.0000491574946533e+01 7.3554738216292366e+00 0 0 0
694 1 3.7169131366955535e+00 1.0164820964328591e+01 3.7692097728335283e-01 0 0 1
294 2 1.3135055592047923e+01 9.3643216528399140e+00 6.6026167244327434e+00 0 0 0
486 2 1.1635319236398324e+01 5.5344656344811657e-02 9.0145276931416447e+00 0 0 0
16 1 5.8377217052144523e+00 4.8457594799583159e+00 2.4789750252785081e-01 0 0 0
306 2 1.3777413035362978e+01 1.0311731383450093e+01 3.0414494239299610e+00 0 0 0
67 1 -2.3337132794399444e+00 4.0729291757838332e-01 8.3371594798807411e+00 0 0 0
319 1 6.6768611882507241e+00 8.4178224429376751e+00 8.2616170498531414e+00 0 0 0
320 2 6.6507668975850898e+00 9.2323419015845634e+00 8.7929922245430507e+00 0 0 0
321 2 7.0934967188916342e+00 7.7178690680200042e+00 8.8726841590076031e+00 0 0 0
322 1 1.3338795740803382e+01 8.0958121373923078e+00 1.6525440396870257e+00 0 0 0
323 2 1.2612146694278861e+01 8.2106440774653944e+00 2.2682099453060696e+00 0 0 0
324 2 1.2837710574776972e+01 7.6947024876550438e+00 8.5369212716573240e-01 0 0 0
328 1 1.0182976443438209e+01 9.8256625733322736e+00 4.8476881228985302e+00 0 0 0
329 2 9.6254279674365666e+00 9.5752795827388901e+00 5.6375189675908013e+00 0 0 0
106 1 9.5590085900150346e+00 2.7979507146284774e+00 9.5797980367710469e+00 0 0 0
482 2 5.3495011946677384e-02 1.8592297112768472e-01 2.0876743554162895e+00 0 0 0
221 2 4.4873282944616388e+00 1.0650493150683383e+01 3.0751956374498564e+00 0 0 0
17 2 5.2852968787497234e+00 3.9844702093046758e+00 3.5852381720687121e-01 0 0 0
145 1 1.7267993025298914e+01 6.9301882191644193e+00 2.0758148033671380e+00 0 0 0
133 1 1.5773731704671771e+01 3.4331490769112341e+00 6.5814446822620374e+00 0 0 0
237 2 1.4634433571705554e+01 7.7140023602224330e+00 7.8935562219062909e+00 0 0 0
117 2 9.7772995423825559e+00 5.8043396084221643e-01 2.2536275697703685e+00 0 0 0
209 2 3.5207369289512207e+00 1.0874459961656914e+01 7.2928802427317700e+00 0 0 0
22 1 2.7111692404232901e-01 2.5648147624102973e+00 9.5551163578009852e+00 0 0 0
35 2 -8.4741738450384330e-01 8.2947510591280138e-01 7.5070142043832773e+00 0 0 0
86 2 1.5952787672536141e+01 3.7973061655929854e-02 5.0552868138254619e+00 0 0 0
248 2 7.5371706037497610e+00 8.3416953055121414e+00 7.9114365090240113e-01 0 0 0
780 2 1.3097551477553672e+01 9.5302011835518705e+00 7.3239041193515886e-01 0 0 0
753 2 4.0370901538604631e+00 9.6293572233510769e+00 9.1521658357696936e+00 0 0 0
19 1 1.0852122083424600e+00 2.4232743955508331e+00 3.1133233998337495e-01 0 0 0
273 2 1.1046445331578070e+01 1.0272556693185365e+01 2.6161257772831692e-01 0 0 1
587 2 -1.6865367529592739e+00 6.8342578104429936e+00 9.2278761387148069e+00 0 0 0
311 2 1.1103243199727419e+01 1.1113757092247017e+01 5.7365821098751129e+00 0 0 0
293 2 1.2706635039043054e+01 1.0666313087116892e+01 7.2714417359097849e+00 0 0 0
271 1 1.0127358530624946e+01 9.9514640426360916e+00 3.9714315638691799e-01 0 0 0
586 1 -9.8899169439016088e-01 6.2995302131264959e+00 9.6205457364536606e+00 0 0 0
99 2 1.2829545227766284e+01 4.7207003354612356e+00 9.1170153507068878e+00 0 0 0
528 2 3.3562962020657094e+00 2.8473938698673988e+00 3.6960713174191884e-01 0 0 0
604 1 1.1332859403343271e+01 4.7698831431596052e+00 9.7009204875734838e+00 0 0 0
15 2 4.2285016394634365e+00 4.5018987376350328e+00 9.6267513053341744e+00 0 0 0
79 1 7.0911594297334490e+00 1.4918495459305849e+00 3.4436075701988389e-01 0 0 1
247 1 6.7907943202511598e+00 8.9285081157524555e+00 4.8413025268785270e-01 0 0 0
224 2 -1.5328034766800736e-01 1.1064174555934043e+01 4.2922518170771653e+00 0 0 0
13 1 5.0692661778746402e+00 4.9282615396327314e+00 9.4775663861056731e+00 0 0 0
309 2 7.7703458128046332e+00 1.1099432246007094e+01 3.0417028261348906e+00 0 0 0
485 2 1.0442243581063453e+01 2.6532451032918802e-01 7.9763478343366581e+00 0 0 0
693 2 -1.4441844671909545e+00 1.0322785106246007e+01 9.6935867779055709e+00 0 0 0
606 2 1.0720132015252512e+01 3.9932362043294711e+00 9.6570316310928153e+00 0 0 0
190 1 8.1637015904135968e-01 1.0292673784948999e+01 9.7410788726401716e+00 0 0 0
82 1 2.8072560047337691e+00 6.1199926071181405e+00 1.9171249553466022e-01 0 0 1
164 2 8.7081671962078069e+00 4.2086716029920385e-01 1.8725774664763986e+01 0 0 0
749 2 -2.0747454134463252e+00 1.0404474946407658e+01 1.5007954510425705e+01 0 0 0
249 2 4.2584407709905037e-01 9.3764349587794449e+00 1.8825055796850584e+01 0 0 0
837 2 1.2296464689206182e+01 9.2347379324652579e+00 1.0281897632576230e+01 0 0 0
168 2 4.1293407872939252e+00 7.0961277321520901e+00 1.8890988567279301e+01 0 0 0
834 2 5.5560860996065822e+00 1.0570972760382395e+01 1.4162211355653875e+01 0 0 0
105 2 3.2629910663043784e+00 1.7117582118974533e+00 1.8780008558707063e+01 0 0 0
588 2 -1.2799401300784510e+00 5.9791973478497704e+00 1.0536531001701757e+01 0 0 0
191 2 7.6204703354822323e-01 9.6814367392060596e+00 1.0485937779845722e+01 0 0 0
612 2 5.1113679728139170e+00 2.9025425332935164e+00 1.8989396595882084e+01 0 0 -1
906 2 -2.0957863072818586e+00 8.1939570351716590e-02 1.7478361688769873e+01 0 0 0
526 1 -2.4859396607187447e+00 2.7349190532231002e+00 1.9127373062311836e+01 0 0 0
574 1 4.8877117466339293e-01 3.7437117121091462e-01 1.1267148229855902e+01 0 0 0
672 2 8.6098195240477970e+00 7.0650151757338886e+00 1.0129922421809100e+01 0 0 0
667 1 1.2718257301976877e+01 1.5252637386256327e+00 9.8475675195036043e+00 0 0 0
607 1 7.0424114507673865e+00 2.8955938882563763e+00 9.9020233844554220e+00 0 0 0
724 1 2.2070551487788492e-01 1.1060950574099715e+01 1.3009824497926907e+01 0 0 0
107 2 9.8300496576325358e+00 2.1507670253640918e+00 1.0253874368987590e+01 0 0 0
505 1 3.0231652886266440e+00 1.0298928184284537e+00 1.4399458786733147e+01 0 0 0
506 2 3.2965649127061036e+00 1.7756449981652671e+00 1.5013584594368924e+01 0 0 0
536 2 -2.5504549125622149e+00 7.2085075763310713e-01 1.1961828908767059e+01 0 0 0
508 1 3.8112205725414405e-01 1.3427563834632583e+00 1.4695305719857910e+01 0 0 0
593 2 8.8104659158429683e+00 4.7436793409486316e-01 1.4617868725351732e+01 0 0 0
510 2 1.3131552274022029e+00 1.0526576836522137e+00 1.4456102584079758e+01 0 0 0
511 1 -3.7702074572109998e+00 6.5556033157705578e+00 1.4671710227806086e+01 0 0 0
512 2 -4.1609355743663361e+00 5.8481234809200942e+00 1.4084436973918622e+01 0 0 0
513 2 -3.7674667615477535e+00 6.2210476150312317e+00 1.5578299576685788e+01 0 0 0
514 1 -1.1747844990490401e+00 6.8328044089146243e+00 1.4378629975392329e+01 0 0 0
515 2 -9.2062325341046414e-01 6.0574516865727057e+00 1.4935446585871317e+01 0 0 0
516 2 -2.1463731808710218e+00 6.9053344189299768e+00 1.4499377183097815e+01 0 0 0
655 1 3.4415525804423277e+00 1.2371914719927384e-01 1.7631257443541450e+01 0 0 0
519 2 1.7300977511758298e+00 5.4577699612098982e+00 1.8168866463930062e+01 0 0 0
794 2 1.2892874364717702e+01 1.0796305431138274e+01 1.2067830768762155e+01 0 0 0
522 2 2.1641583409410612e+00 4.7486352872649693e+00 1.0943835614004879e+01 0 0 0
827 2 1.0380871955689880e+01 7.5604005829228678e+00 1.1468307507170360e+01 0 0 0
332 2 9.6183723672489272e+00 9.1801841040185259e+00 1.8480774728712351e+01 0 0 0
525 2 -2.5792390644082612e+00 2.8278946060095098e+00 1.0982100590374941e+01 0 0 0
20 2 -5.9323445692358128e+00 3.3430697801347375e+00 1.9307155549920488e+01 0 0 -1
527 2 -2.6780069933593604e+00 2.4797563969386323e+00 1.8245608860490965e+01 0 0 0
529 1 1.2871344722846834e+00 6.2946180321230125e+00 1.6831717725569764e+01 0 0 0
530 2 1.1429912391795618e+00 6.0109666484394566e+00 1.5861129401075015e+01 0 0 0
531 2 4.6391763136572894e-01 6.6898218583926319e+00 1.7115238342281213e+01 0 0 0
532 1 2.1878541255553854e+00 6.5146685799559290e+00 1.2164976296401782e+01 0 0 0
533 2 3.0491380321244632e+00 6.8404549580925194e+00 1.2072794566034830e+01 0 0 0
534 2 2.0469639308916134e+00 6.1670793963454145e+00 1.3068873879047565e+01 0 0 0
535 1 -1.9618184743168374e+00 1.3752151659352951e+00 1.2329614822044645e+01 0 0 0
805 1 1.2580316875705373e+01 1.0792943834312899e+01 1.5842459206574114e+01 0 0 0
620 2 6.1676933473442590e+00 5.3462325029925517e-01 1.1765955710341427e+01 0 0 0
538 1 -3.1363856620121888e+00 1.3575270959266210e+00 1.6848303796096307e+01 0 0 0
539 2 -4.0928746721421678e+00 1.1427286110830857e+00 1.6863800124493967e+01 0 0 0
540 2 -2.8355991057932446e+00 1.5614435342466235e+00 1.5922159917663871e+01 0 0 0
541 1 2.6066425967570526e+00 2.8046462701984329e+00 1.2168479606201720e+01 0 0 0
542 2 2.6284526031781379e+00 2.0303883355815895e+00 1.2704917729201050e+01 0 0 0
543 2 2.6524611882048950e+00 2.4521465027668907e+00 1.1267164871087267e+01 0 0 0
544 1 8.0028621171189940e-01 2.6719977637333967e+00 1.6973742409227594e+01 0 0 0
545 2 6.4443544097647898e-01 2.2877006301264231e+00 1.7834408734372797e+01 0 0 0
546 2 5.9091124788836691e-01 2.0697550986021689e+00 1.6233659883055690e+01 0 0 0
547 1 -3.5401820531141168e+00 5.0930403160532265e+00 1.6841333540482637e+01 0 0 0
548 2 -4.2916408128056762e+00 4.4618979240693601e+00 1.6850589901809141e+01 0 0 0
549 2 -3.5212617654136782e+00 5.4848152915439048e+00 1.7783752217245375e+01 0 0 0
550 1 -1.4824912384186786e+00 5.2740079914723577e+00 1.2168758264890068e+01 0 0 0
551 2 -9.9959635363844956e-01 4.5072241043269621e+00 1.2480695961236975e+01 0 0 0
552 2 -1.2452418048907954e+00 6.0001092111669179e+00 1.2792884565352844e+01 0 0 0
553 1 3.0274659639904149e+00 3.6063286218481361e+00 1.5815475302046689e+01 0 0 0
554 2 2.2566011108962121e+00 3.4755910340399940e+00 1.6428677543397640e+01 0 0 0
555 2 3.7959325684335266e+00 4.0189614077356470e+00 1.6382979256214398e+01 0 0 0
556 1 5.9514391816509082e-02 3.3253377985791621e+00 1.3171388024186998e+01 0 0 0
557 2 8.5762439930801726e-01 3.1172099953668302e+00 1.2627684667582789e+01 0 0 0
558 2 -1.1748187610100658e-01 2.5898174286404854e+00 1.3768137090230224e+01 0 0 0
559 1 -4.0707841213833591e+00 4.4018409722236136e+00 1.2930370011165017e+01 0 0 0
560 2 -3.1486590230109246e+00 4.7464711896889238e+00 1.2610403383953418e+01 0 0 0
561 2 -3.7734230887346873e+00 3.8109192165189825e+00 1.3628560324989124e+01 0 0 0
562 1 -1.2488157558498090e+00 4.4110894132629328e+00 1.5723812654792010e+01 0 0 0
563 2 -5.6116251843699150e-01 4.0199014600771168e+00 1.6338656165516451e+01 0 0 0
564 2 -2.0335137915318522e+00 4.4676971642947798e+00 1.6308917455994095e+01 0 0 0
565 1 4.9703949644338152e+00 6.8612686798365763e+00 1.1264110261593476e+01 0 0 0
566 2 4.6953241768104128e+00 7.6039366321493578e+00 1.0744703379822186e+01 0 0 0
567 2 5.0249372379993371e+00 6.2220806518216305e+00 1.0489780448948622e+01 0 0 0
568 1 -1.1974862770327634e+00 7.2470340083815206e+00 1.7898656649240735e+01 0 0 0
569 2 -1.3988675755106490e+00 6.3896310806996919e+00 1.8263119494419900e+01 0 0 0
570 2 -9.4882419712498578e-01 7.8266529004363843e+00 1.8651834864198392e+01 0 0 0
108 2 8.5920623998044281e+00 2.9687989964313219e+00 9.7767265456420773e+00 0 0 0
572 2 -5.9012290794677620e+00 1.1831054504041829e+00 1.8135638617474022e+01 0 0 0
776 2 7.9404047041221002e+00 1.0609867751828071e+01 1.0033199717749158e+01 0 0 0
24 2 -6.1671032134301607e-01 2.8333729721163814e+00 9.8742633402195157e+00 0 0 0
576 2 7.0217780023594401e-01 1.1402545991476449e+00 1.0655485839600829e+01 0 0 0
577 1 1.3750443219224238e+00 5.1912052455913242e+00 1.4326679048387343e+01 0 0 0
578 2 8.0657072424789522e-01 4.4482129626733276e+00 1.4039078563566823e+01 0 0 0
579 2 2.1739107916322764e+00 4.7227183533980464e+00 1.4736445669541382e+01 0 0 0
580 1 -2.6489025884879762e+00 2.5845857434199102e+00 1.4639714823762255e+01 0 0 0
581 2 -2.3051086542016930e+00 2.0674900366837816e+00 1.3879253956493843e+01 0 0 0
582 2 -1.9663256322947760e+00 3.2164424918445809e+00 1.5007254619382923e+01 0 0 0
824 2 2.4956246604191215e+00 7.4389503208370096e+00 1.7243096186511664e+01 0 0 0
658 1 9.5926704262256646e+00 5.3773209302385194e-01 1.1550664307976932e+01 0 0 0
589 1 1.2220010623475460e+01 1.3054963601067087e+00 1.4377771551293515e+01 0 0 0
590 2 1.1310293533796440e+01 8.7252497560546327e-01 1.4522622843405530e+01 0 0 0
591 2 1.2222974329970929e+01 2.0055823413114751e+00 1.5013540847245256e+01 0 0 0
592 1 9.4123301732061222e+00 1.2838001737542064e+00 1.4767604934129928e+01 0 0 0
573 2 1.1180028566852698e+01 7.0063715330544285e-02 1.7357331568029494e+01 0 0 0
594 2 9.1295535208470611e+00 1.9289409708111236e+00 1.4052797707966125e+01 0 0 0
595 1 4.6731912558754241e+00 6.4230870134899236e+00 1.4351689726374989e+01 0 0 0
596 2 4.7444027431151383e+00 6.0279722787118013e+00 1.5255270790204177e+01 0 0 0
597 2 4.6757055070062457e+00 5.6337872466339975e+00 1.3730160521820784e+01 0 0 0
598 1 7.5281959955178834e+00 6.2749848407062734e+00 1.4452859281034439e+01 0 0 0
599 2 6.5524564935762957e+00 6.4083404413786820e+00 1.4335354488741570e+01 0 0 0
600 2 7.7059091943237936e+00 6.0596505665904026e+00 1.3514902256344632e+01 0 0 0
833 2 6.5022454689448459e+00 9.2696200305429084e+00 1.3998211391654321e+01 0 0 0
603 2 1.0922719501630848e+01 5.0678604301887491e+00 1.8366956133828889e+01 0 0 0
728 2 -3.5296528550750703e+00 1.1232771759936785e+01 1.3698371424200641e+01 0 0 0
605 2 1.1232225402646991e+01 5.2236884582301499e+00 1.0527536826797448e+01 0 0 0
816 2 7.1680547637813516e+00 1.1036056603046768e+01 1.5333967988900815e+01 0 0 0