LAMMPS data file via write_data, version 3 Mar 2020, timestep = 98750000

2016 atoms
2 atom types

0.0000000000000000e+00 1.7946949226357710e+01 xlo xhi
9.8188233970581962e-03 4.4986341153456983e+01 ylo yhi
0.0000000000000000e+00 1.9086320944664912e+01 zlo zhi
4.2947895046643564e-02 -6.6857744495773055e+00 -2.3842158147765247e-02 xy xz yz

Masses

1 16
2 2

Atoms # atomic

564 2 -2.0840010827464268e+00 8.4353876989560739e+00 1.3171380624225476e+01 -2 0 -1
1436 2 9.7246724843198606e+00 8.2126827793245543e+00 1.6111902565270537e+01 -1 1 0
1515 2 7.7478342199750063e+00 2.1103302870008376e+00 1.7012995255576506e+00 1 0 0
434 2 3.9407422231342082e-01 6.2767620389978216e+00 1.8629933853659729e+01 -2 0 0
1151 2 1.0736995555992587e+01 9.9973465862770350e-01 4.3976162394691070e+00 1 0 0
745 1 2.9913782498215893e+00 5.5002380280063283e+00 1.6967695192859054e+01 -2 0 -1
1673 2 -3.1610863782940077e+00 1.0947990142919920e+01 1.0122990036348172e+01 1 0 0
1034 2 4.0906278101699973e+00 1.1233127157289933e+00 1.6704686280002701e+01 1 0 1
1528 1 1.1300545101868643e+01 8.6083722302397847e-01 1.2948104086165506e+01 0 0 -1
551 2 -1.3271089802068730e+00 3.0905601368765492e+00 1.5774767066137498e+01 2 0 1
937 1 2.3448764852849595e+00 8.9441336783151080e+00 9.4863734816042005e+00 1 0 1
599 2 -5.2678226361501679e-01 5.6825063547395080e+00 2.4486379324724967e+00 -4 0 0
282 2 1.3647578467160756e+01 2.9626927698860789e-01 3.0194672078292268e+00 -5 0 0
707 2 1.2507120325446387e+01 1.2738358958754619e+00 1.1157869834364992e-01 -2 0 0
258 2 3.1318534954711277e+00 6.0550375893797801e+00 1.5327373653834693e+01 -2 0 -1
837 2 4.7884053296405895e+00 9.5314635622782262e+00 1.2671318267646413e+01 0 0 1
767 2 7.0978831194866876e+00 5.8058375430776410e+00 3.9037853543122689e+00 -5 0 0
888 2 6.9827405171999706e+00 4.4303962296023043e+00 7.3159979732684866e+00 0 0 0
541 1 9.1124108286254959e+00 6.3429574943390570e+00 1.2087456639774445e+01 -1 0 1
1494 2 2.8397712205625414e-01 6.8372773168960492e+00 1.5484291564106432e+01 7 0 4
855 2 4.0222614581557306e+00 5.5156406953346409e+00 1.1302726198250328e+01 -1 0 -2
241 1 5.5330109645749737e+00 3.7781301463694459e+00 1.4496947116580727e+00 3 0 2
222 2 9.4115106981191765e+00 5.9123313265713957e+00 1.0427699896261407e+01 -3 0 -3
134 2 6.7133173061030416e+00 6.1998131206443610e+00 9.9877849830955103e+00 1 0 -1
233 2 6.5715400664553378e+00 1.2885427188620222e+00 7.3448299220773183e+00 0 0 0
144 2 -1.7752417156935993e+00 1.0410777747416246e+01 1.5958166004926456e+01 3 0 0
483 2 6.9409950406657224e+00 9.0901054380594282e+00 7.1316546942126724e+00 -2 0 -1
312 2 1.5237824991205128e+01 3.9457374743504805e+00 1.6648424021120607e+00 -1 0 -3
793 1 1.3430460975372114e+01 5.2016898650416952e+00 1.1916048637885359e+01 -2 0 0
1518 2 6.2044641052415530e+00 9.8793176434491514e-01 3.0516201179908178e+00 0 0 1
916 1 1.1270925263085708e+01 1.4376548528776394e+00 9.4738893180067443e+00 0 0 3
544 1 -4.5638321471361243e-01 9.2244926956287756e+00 9.6664923094547071e+00 1 0 1
1564 1 1.4806295797658205e+01 9.1402761882454158e+00 7.2154558104344186e+00 0 0 0
488 2 -1.0020959469254187e+00 7.9077946618457773e+00 5.7169288936858669e+00 -2 0 2
994 1 7.4968587123982902e+00 2.8607481815885496e+00 1.6894758719293552e+01 3 0 1
857 2 9.4770839785343974e-01 5.7451974126534608e+00 9.6347797058538875e-01 -1 0 -3
1021 1 1.1331566193366148e+01 3.8821398689593756e+00 1.1054028052487348e+01 0 0 0
419 2 1.5512045140944295e+01 6.3931267530532780e+00 5.6707591131470405e+00 -3 0 1
873 2 1.2087895359442157e+01 9.6571225532114990e+00 6.4361659202284649e-01 -3 0 -1
375 2 -7.8495365898554903e-01 7.1405678900141440e+00 1.2107379842441999e+01 1 0 1
404 2 1.4999414792271391e+01 5.3206303926794329e-01 2.2653323074489726e-01 4 0 3
754 1 -4.5577069002944475e+00 8.3442816804187707e+00 1.5737292278698233e+01 1 0 2
242 2 4.7654155484766614e+00 3.5335194437142596e+00 2.0160570456897537e+00 3 0 2
1162 1 1.1406796727523554e+01 9.4175352204244867e+00 4.7093180053961339e+00 2 0 -1
828 2 3.6732003948180090e+00 5.9159843784348967e+00 5.1925210671034749e+00 -1 0 1
825 2 1.4644845734535368e+01 1.8140943176713167e+00 6.6269091955499126e+00 1 0 0
995 2 6.6445907974253782e+00 3.3181402940524705e+00 1.6964916878308657e+01 3 0 1
858 2 3.6056000884454770e-01 4.2350387295469556e+00 9.4966617263674635e-01 -1 0 -3
1374 2 5.8750299399913395e+00 6.7421549935807146e-01 6.6748274662333323e-02 0 1 0
519 2 9.1402652108609459e+00 7.3259619893630203e+00 1.6615667521780945e-02 -4 0 -3
1959 2 1.1197326156104619e+01 4.8110860182844828e+00 5.1031343854432327e+00 0 1 0
732 2 1.3337043148016942e+01 9.3433308144950864e+00 1.0909130876350241e+01 1 0 0
311 2 1.3935307247099004e+01 4.1970432315719313e+00 8.7388552307938827e-01 -1 0 -3
319 1 8.5750715515562810e+00 2.9043750486598756e+00 1.1921098755727918e+01 -3 0 -2
245 2 7.7666214526282449e+00 1.1009684807150325e+01 4.7117701288537068e+00 -5 0 -4
780 2 1.2177808354549617e+00 6.4875246621371181e+00 4.0608104040607840e+00 2 0 0
1516 1 5.3433892872772022e+00 8.3290878516221800e-01 3.5410477937759905e+00 0 0 1
1591 1 8.0227120678858803e+00 1.9728968872932313e+00 1.4273664866181761e+01 0 0 0
310 1 1.4400654150804552e+01 3.5262611633230709e+00 1.4210540387950441e+00 -1 0 -3
861 2 8.9131731509469958e-01 4.7694664713858836e+00 1.4323895946437894e+01 1 0 2
487 1 -6.5695530660547674e-01 8.5713266589919730e+00 6.3815420798448947e+00 -2 0 2
821 2 1.0097580770169960e+00 3.4902239531627632e+00 7.1690842099288705e+00 -3 0 1
569 2 8.8887127363242655e+00 3.8724431331771605e+00 4.8886275703324493e+00 -2 0 2
405 2 1.4465291866868920e+01 1.9744548909509090e+00 5.6223769844000371e-01 4 0 3
1593 2 8.7200380228679677e+00 1.2659287573816815e+00 1.4529934893249791e+01 0 0 0
2 2 6.4895462057362012e+00 3.2557401087090541e+00 4.8050956529002997e+00 0 0 -1
367 1 1.5465949477187841e+00 7.0986971808694870e+00 7.3163689664203080e+00 -1 0 -1
1856 2 -5.5096137629969510e-01 9.7083502973125544e+00 3.3230911586507048e+00 0 1 1
631 1 -2.0787510876015949e+00 6.8787631099462896e+00 9.3145186098882888e+00 -2 0 0
1674 2 1.3640809644836356e+01 1.1029642770924276e+01 9.1594274527348922e+00 0 0 0
629 2 5.5909254152575727e+00 3.5865240956595317e+00 1.4318742576026038e+01 0 0 3
653 2 6.1794828226344682e+00 4.8324366704518589e+00 1.8461259028909662e+01 -2 0 -2
1410 2 6.5969146584303902e+00 6.2363904379020496e-01 1.3384833437315343e+01 -1 1 -1
1006 1 4.5320091326078913e+00 8.2855622362037966e+00 1.6052020952125474e+01 -2 0 -3
980 2 4.6633608603849641e+00 1.0816782817651726e+01 9.3566036042922107e+00 -1 0 0
1088 2 1.4574526533962095e+01 4.9128541139325428e+00 6.9769181853642177e+00 2 0 1
820 1 1.8276876044178088e+00 2.9627205123560443e+00 7.1392142462699750e+00 -3 0 1
835 1 4.5891792737099752e+00 8.9693075219615608e+00 1.1889870488953409e+01 0 0 1
936 2 1.2881175931491345e+01 5.5204183134606053e+00 3.8850940498033126e+00 -3 0 -1
308 2 -5.6001247261649789e+00 4.9512402324417844e+00 1.7107300316113861e+01 2 0 -1
635 2 1.9174845200030837e+00 4.9336757458481362e+00 5.0023703825627743e+00 0 0 -2
1493 2 -6.6320194130180443e-01 7.2685333238814058e+00 1.6538258690729013e+01 7 0 4
827 2 4.4339752344243966e+00 4.6126823409441329e+00 4.6591061764042951e+00 -1 0 1
69 2 1.3318321388482319e+00 3.1087001435131927e+00 1.1657232399034740e+01 -3 0 -3
1584 2 2.0773474629413489e+00 9.6704980496298614e+00 1.7795991157050814e+01 -2 0 0
435 2 6.5729850507335472e+00 7.7237509146319665e+00 1.4542903763880560e-01 -2 0 1
556 1 1.2776568132523224e+01 7.2983797340845840e+00 6.4096751830111396e+00 -1 0 -1
473 2 2.7503516783578643e+00 9.7598635033996466e+00 1.3653158697910568e+00 0 0 2
938 2 2.9202888772612283e+00 8.1341183477716221e+00 9.6037972695815395e+00 1 0 0
802 1 3.9059091912815722e+00 6.6160011539300561e+00 9.7931262786250741e+00 -1 0 -2
882 2 1.2510371915871030e+01 7.4497522413167463e+00 9.2729656951562394e+00 -2 0 3
760 1 1.7780151485677216e+01 1.0157750911001772e+01 4.1826212290111697e-01 -4 0 0
1957 1 1.0245773384831853e+01 5.0298855743754887e+00 5.0113432736494756e+00 0 1 0
1619 2 4.6807796503081427e+00 8.0723135932410823e+00 6.6145577900794210e+00 2 0 1
737 2 1.1906719849046841e+01 6.7981260393564060e+00 1.3916762354828425e+01 0 0 1
1035 2 4.7769774840965660e+00 1.6593050049762519e+00 1.5369576601300881e+01 1 0 1
256 1 3.1745377468078351e+00 6.4266406765921182e+00 1.4406354365228223e+01 -2 0 -1
1876 1 2.4296081402994423e+00 1.9623332879669773e+00 4.6414179432137352e+00 0 1 1
6 2 -7.4802181841428661e-01 2.7268816511573020e+00 1.2966450484160493e+01 2 0 1
932 2 1.0923355814652270e+01 1.0033640494779782e+01 6.3055074804629978e+00 -2 0 -1
1406 2 -3.1392728081926209e+00 1.2205870227359306e+00 1.9068363945903915e+01 0 1 -1
715 1 -5.7878708254125177e-01 1.2523003075309946e+00 9.8110654117614455e+00 0 0 1
1089 2 -2.2448245887573344e+00 5.8466416461094193e+00 7.7137407727684559e+00 3 0 2
655 1 4.5151139566968785e+00 1.5144236090656849e+00 1.1973049550002582e+01 -4 0 0
762 2 -2.4438356602981742e-01 9.6507018072890478e+00 1.2817348640114710e+00 -3 0 0
1148 2 9.0400574040718809e+00 3.3965852099503629e-01 3.0733768164639801e+00 -2 0 0
148 1 4.1187396361796509e+00 5.6032010370579126e+00 5.2958984982053169e-02 -4 0 -2
563 2 -2.6126365798352240e+00 6.9992583050010673e+00 1.3295103453562163e+01 -2 0 -1
8 2 3.1185983236054078e+00 3.5085316387473209e+00 1.4712450694426339e+01 -1 0 -1
286 1 1.1476495256266027e+01 1.4846211294053706e+00 1.6701648896645487e+01 0 0 -4
273 2 2.8985758250818199e+00 3.0064789072463434e+00 3.1573911840448998e+00 -1 0 -2
956 2 -1.5997016489364562e+00 9.8190333123458429e-01 1.3711874889703770e+01 -1 0 -3
636 2 8.9879324312963194e-01 5.7023269759645974e+00 5.9634154561959170e+00 0 0 -2
1002 2 8.1366190907861995e+00 9.7545563812979132e+00 2.9957880891420730e+00 -1 0 1
296 2 -3.5981087164676895e+00 1.4962367931272207e+00 1.5582994152881959e+01 1 0 2
708 2 1.1557864762434017e+01 1.8695151621447419e+00 1.0938140079480672e+00 -2 0 0
591 2 -6.2906731262630169e+00 7.3443259611192424e+00 1.9018013852652743e+01 -4 0 -2
644 2 1.3250043331000660e+01 7.0908374893297728e+00 2.5254903006137939e+00 -4 0 -3
349 1 4.9944201005475737e+00 3.8275833017773313e+00 1.7570193583507095e+01 3 0 4
689 2 2.8671239665591628e+00 9.9986694516685692e-01 1.2291307736031319e+01 -3 0 0
1644 2 8.3262857862332353e+00 9.7099058488935839e+00 9.6990378824801993e-01 0 0 -2
570 2 8.3053581345011125e+00 2.5164044993071508e+00 5.3588610020329721e+00 -2 0 2
871 1 5.2826525185906137e+00 9.0622554091003096e+00 1.8923044365153263e+01 -3 0 -2
518 2 3.9936269433365030e+00 7.9456720688247184e+00 1.8997128289668311e+01 -4 0 -5
189 2 2.6946018189374144e-01 5.8973279842489061e+00 1.0064415622608120e+01 -3 0 -4
94 1 -4.2042369947853704e+00 3.7645886369489139e+00 1.7423234206086331e+01 -2 0 -1
558 2 1.3537303900863577e+01 7.8338534929488883e+00 6.7850499710059324e+00 -1 0 -1
243 2 6.2479392986077160e+00 4.1438272657195823e+00 1.9844504392928370e+00 3 0 2
775 1 6.7563082548984292e+00 4.6543929077717996e+00 1.0996024312237930e+01 -1 0 1
1912 1 2.2822110401803872e+00 1.5654573689883033e+00 1.7054180609836695e+01 0 1 1
756 2 -4.6990201773645177e+00 7.6344544465082569e+00 1.5097905941914927e+01 1 0 2
1529 2 1.1265918106972318e+01 1.6371601702565692e+00 1.3470885797050906e+01 0 0 -1
658 1 8.3836868723863276e+00 1.2780894085141208e+00 9.7626476600094687e+00 -1 0 -1
887 2 6.6574060348743611e+00 5.4216523230049853e+00 6.1818589789844030e+00 0 0 0
455 2 1.0131442640294157e+01 6.3674361838782341e+00 3.7878004731210355e+00 -1 0 1
955 1 -1.2463748492988533e+00 1.7108566500562190e+00 1.4307276402426169e+01 -1 0 -3
954 2 2.3101282217390682e+00 2.2824529024075018e+00 9.9823875418581700e+00 -1 0 1
630 2 4.7551479691915706e+00 2.5800244879330800e+00 1.3430884028132102e+01 0 0 3
99 2 7.9684713813765740e+00 9.6128988676205633e+00 1.7583909621582833e+01 1 0 -1
935 2 1.3634793153586806e+01 4.3541160027722245e+00 4.6058106778592025e+00 -3 0 -1
98 2 1.4650602796537598e+01 9.8746162822524646e+00 4.2453917815516232e-02 1 0 0
917 2 1.0302971857513645e+01 1.2720025288225330e+00 9.6080238907747102e+00 0 0 3
433 1 7.1836104240691832e+00 6.9587965277788451e+00 2.9580915096989047e-01 -2 0 1
1000 1 7.8214345739962940e+00 9.0163854153813734e+00 2.3417031893562648e+00 -1 0 1
1405 1 2.5937937325524643e+00 1.3526625641765673e+00 1.8448568032980966e-01 0 1 0
948 2 -5.1601406859999752e+00 -9.9385827757428394e-03 1.8973213349511376e+01 0 0 3
1061 2 5.6928570546624186e+00 1.0219317670961386e+01 4.3104553834821218e+00 1 0 -1
1163 2 1.0928910194421318e+01 8.6314856567042746e+00 4.3633375452239997e+00 2 0 -1
1638 2 2.0124802717067167e+00 9.4293833640960933e+00 1.3672742205081128e+01 0 0 -1
172 1 9.4826870193069439e+00 5.2950568297787743e+00 1.4432995865614867e+01 -2 0 -2
1164 2 1.2243600709819505e+01 8.9422362512031679e+00 5.0258429547213455e+00 2 0 -1
589 1 1.2660713401619412e+00 7.1495980231536853e+00 1.9535859026636784e-01 -4 0 -1
1561 1 -8.3888662750880139e-01 3.6071817545240763e+00 8.3371185603737121e+00 1 0 0
1940 2 1.0163052482764575e+01 6.5546148968492082e+00 8.0817060786973283e+00 0 1 0
159 2 5.9619232959920723e+00 7.4703508807256158e+00 1.6717342132491346e+01 -1 0 -1
64 1 1.0851600347398742e+01 2.9579481374999346e+00 1.9055440518892219e+01 -1 0 -4
1618 1 4.0071816678272922e+00 7.5536272902628827e+00 6.2032793574749379e+00 2 0 1
428 2 -2.9369902771524936e+00 4.8175090868971875e+00 1.1572809326403984e+01 -1 0 -1
368 2 1.3040458338901066e+00 6.7654863403546681e+00 8.2104378883736135e+00 -1 0 -1
886 1 6.4169966320756631e+00 5.1954333700368620e+00 7.0485713243275665e+00 0 0 0
1455 2 1.1043492547765203e+01 9.7260651996831857e+00 1.7583377697813624e+01 -2 1 -1
926 2 1.2082800467796101e+01 3.9948095210847945e+00 7.6900015471124563e+00 2 0 1
795 2 1.3187219677658511e+01 5.5143645997066422e+00 1.2810399776585626e+01 -2 0 0
1664 2 4.7104247050918913e+00 2.0368361798945722e+00 1.1148971414126994e+01 -4 1 0
626 2 8.5007029328907535e+00 4.3432219124417992e+00 1.7413025187243374e+01 0 0 -2
976 1 -4.2337797321571156e+00 1.8404428112119853e+00 1.2100668623590277e+01 -3 0 -1
1877 2 3.1550590836134811e+00 1.4639744868393614e+00 5.0657429294622682e+00 0 1 1
1007 2 4.0821689397616323e+00 7.6521613820220429e+00 1.5449718730618210e+01 -2 0 -3
723 2 1.1569102569348351e+01 2.6414474786918847e+00 3.4572241672431425e+00 -7 0 -3
361 1 6.6239482721710292e+00 7.2353670609323961e+00 1.2652235637263731e+01 -1 0 -1
662 2 9.7203252334859727e+00 6.2509278859539119e+00 1.8696639611275927e+01 -1 0 1
822 2 1.8553005320556544e+00 2.3306088383754822e+00 7.8917382667988445e+00 -3 0 1
321 2 9.4424184930435029e+00 3.2939547337366104e+00 1.1899337279617306e+01 -3 0 -2
826 1 3.5663424645287343e+00 5.1445331645071937e+00 4.5984047535603665e+00 -1 0 1
778 1 1.2597239989856217e+00 7.2383052453853978e+00 3.4245749697787784e+00 2 0 1
1490 2 5.7371216210037970e+00 9.4153485545486841e+00 8.1379608074536431e+00 -3 0 -1
643 1 1.2619694327414656e+01 6.3962895523291081e+00 2.3236392155560446e+00 -4 0 -3
823 1 1.4850054244619860e+01 1.0605339621491086e+00 7.2435425438164094e+00 1 0 0
1023 2 1.0758291182159049e+01 4.4726834366166548e+00 1.0465970316464833e+01 0 0 0
1174 1 9.0042231634633403e+00 1.0153964149785887e+01 1.1922929501603072e+01 0 0 1
682 1 8.4579022912616750e+00 3.6105232062271804e+00 8.0898831057195668e+00 2 0 3
922 1 8.1596721545671436e+00 1.0548919736326814e+00 6.5746318069741685e+00 -3 0 -3
722 2 1.2660959286865197e+01 3.2507519339847253e+00 2.4230811679790958e+00 -7 0 -3
309 2 -6.0548225090044383e+00 6.4214287461581900e+00 1.7369530026697905e+01 2 0 -1
374 2 6.8731359056381969e-01 7.6207041614208206e+00 1.2157930624661429e+01 1 0 1
575 2 1.5707330975840987e+00 8.7210239438431643e+00 1.6833751984745653e+01 -2 0 0
116 2 1.1825024337807687e+01 8.0397102106130252e+00 1.2184429020425371e+01 -5 0 -6
730 1 1.3179694748163747e+01 8.8291284638464749e+00 1.1676296576522168e+01 1 0 0
779 2 2.1338416613617461e+00 7.1493792215903778e+00 2.9565903140938299e+00 2 0 1
1454 2 1.1159964365596487e+01 9.9779106243445508e+00 1.6030529405082394e+01 -2 1 -1
561 2 1.6160017001652305e-01 3.6280548255247197e-01 6.1009591740053439e+00 -2 0 1
755 2 -5.4258443224809119e+00 8.5809842421013816e+00 1.6125936875171369e+01 1 0 2
1943 2 1.2265905478924036e+01 3.2928707698473256e+00 1.4312681997583510e+01 -2 1 -2
1437 2 9.1528136320785389e+00 6.7497326144440404e+00 1.5695866942495215e+01 -1 1 0
853 1 4.2459444126494583e+00 5.1053673581174799e+00 1.2196131145991201e+01 -1 0 -1
1513 1 7.7942135500868313e+00 1.6292138170503820e+00 2.5867097444910128e+00 1 0 0
1146 2 1.4908441602223530e+01 7.9587427677162319e+00 3.7324261537790520e+00 2 0 -1
150 2 4.9251498786734480e+00 5.1112010976032503e+00 4.0147894116656169e-01 -4 0 -2
735 2 7.7694629038321583e+00 8.2846845022358249e+00 9.3754242011124642e+00 -3 0 -1
1435 1 8.9432860669457526e+00 7.7102464284970287e+00 1.5788263652108785e+01 -1 1 0
1567 1 5.5814437387192228e-01 4.8661074738039476e+00 1.7770531280211493e+01 2 0 0
880 1 1.3071309827497776e+01 6.6645037821081452e+00 9.3832397620820398e+00 -2 0 3
684 2 9.2535619686904020e+00 3.2935084802379917e+00 7.6845873892283061e+00 2 0 3
1562 2 -1.5692863583782297e+00 3.5602970354966970e+00 7.7366326159365899e+00 1 0 0
388 1 -8.2378082764170180e-01 3.0595861624910525e+00 4.7661069462431955e+00 0 0 0
688 1 2.1567749936474376e+00 8.7470860105065296e-01 1.2920964023278881e+01 -3 0 0
977 2 -3.5450317969368590e+00 1.1328195492889903e+00 1.2066750849682579e+01 -3 0 -1
661 1 1.6558580465182082e+01 7.1376683212696177e+00 1.1169860953268149e-02 -1 0 2
557 2 1.3162264043874460e+01 6.5541289144483512e+00 5.9267624222515582e+00 -1 0 -1
1152 2 1.2085529671224519e+01 1.1137797539179957e+00 5.2080013439142654e+00 1 0 0
1941 2 1.1230194104624147e+01 7.0578540408573547e+00 6.9294426025059233e+00 0 1 0
716 2 -1.2640833036292585e+00 5.6434879863257037e-01 9.6279382734262757e+00 0 0 1
836 2 3.6746251269634076e+00 8.5662418794145108e+00 1.2002089951283843e+01 0 0 1
1855 1 -8.2437207025579529e-01 9.0483208885214896e+00 2.6814905686375421e+00 0 1 1
717 2 -6.6489870152487196e-01 1.4219724071234958e+00 1.0744694577298395e+01 0 0 1
960 2 1.6488778383026568e+00 7.0084438028819052e-01 3.6048156470570802e+00 2 0 0
1145 2 1.5095600733773955e+01 8.9264741397957739e+00 2.5569478274086661e+00 2 0 -1
1569 2 -2.0230943608447927e-01 4.4567689473292438e+00 1.7385002957940245e+01 2 0 0
170 2 1.0413107774611355e+01 1.0596385613767166e-01 9.5297164561365999e-02 -5 0 3
407 2 -4.0362299090493048e+00 2.8164452651289538e+00 1.3488758976966436e+01 -3 0 -3
690 2 1.3786434820722082e+00 5.3212636998563478e-01 1.2408700241010399e+01 -3 0 0
1944 2 1.0769227311536310e+01 3.8521973133719309e+00 1.4391308473307729e+01 -2 1 -2
552 2 -1.3295591180216775e+00 2.4405880136429507e+00 1.7119051982606745e+01 2 0 1
350 2 4.6094902877793391e+00 3.1543617406347013e+00 1.8113352804137055e+01 3 0 4
929 2 6.2996395897348325e+00 8.4502916262668855e+00 2.8841504552591291e+00 1 0 0
4 1 -4.8150626641187078e-01 2.8051755256219297e+00 1.2013607472475259e+01 2 0 1
412 1 5.4593364308937664e+00 9.0454828610850431e+00 2.7836027618313530e-01 1 0 0
287 2 1.1477072493381712e+01 2.2566573797336100e+00 1.6040066211995310e+01 0 0 -4
390 2 -3.1041629068889942e-01 3.8694804687209055e+00 4.8102155267984958e+00 0 0 0
625 1 9.2798822389260813e+00 4.8754134712194608e+00 1.7805970827801101e+01 0 0 -2
1568 2 7.0681303081731262e-01 4.2399942877676144e+00 1.8585777171488978e+01 2 0 0
103 1 6.6726862651931071e+00 5.0478860800246323e+00 1.4636911040782609e+01 0 0 0
804 2 4.8337395064627007e+00 6.8196954136039256e+00 9.5509999428005905e+00 -1 0 -2
1620 2 3.4643294106380900e+00 8.2101802544340092e+00 5.6623150091680774e+00 2 0 0
1639 1 3.6052665015933587e+00 6.8998064322641035e+00 2.2813299188030558e+00 1 0 0
543 2 8.2239859783711431e+00 6.7529280124937356e+00 1.2183246999165004e+01 -1 0 1
418 1 1.5793505690617511e+01 6.9557736181109542e+00 4.8927823722647128e+00 -3 0 0
965 2 -2.3622901349557552e+00 5.8818093324237202e+00 1.5540712473086344e+01 0 0 0
1637 2 2.3419217870741642e+00 7.8191181079651493e+00 1.3866911041388240e+01 0 0 -1
957 2 -8.3893598148361193e-01 1.1344623184177345e+00 1.4993510093033251e+01 -1 0 -3
930 2 4.7555873966542270e+00 8.0913530879143902e+00 3.0937484345302440e+00 1 0 0
746 2 2.9828083177737046e+00 6.2569696211069514e+00 1.7546003160644620e+01 -2 0 -1
326 2 9.0039018042916474e+00 7.8654636139970577e+00 6.5158578037334980e+00 0 0 -2
542 2 9.8524108402971997e+00 7.0129495716168035e+00 1.2234862974025091e+01 -1 0 1
68 2 1.6562688782037269e+00 4.4210375116553671e+00 1.0794410657210388e+01 -4 0 -3
1582 1 2.2884083776738864e+00 9.3969877793326173e+00 1.6922194585229349e+01 -2 0 0
634 1 9.8729968965255055e-01 5.2595797128013899e+00 5.0872672282238520e+00 0 0 -2
202 1 1.4496049137063689e+01 2.6658428840187756e+00 9.5875750360890795e+00 -3 0 0
421 1 7.4731560129335479e+00 9.1959067735121884e+00 1.4041375019896405e+01 0 0 0
1062 2 5.7420985882008964e+00 1.0447368231376139e+01 5.8566037954549595e+00 1 0 -1
906 2 1.9489916400618137e+00 2.1812375575211935e+00 1.6330792138486956e+01 0 0 1
928 1 5.5567617972190240e+00 8.4837398067974448e+00 3.5529262266367194e+00 1 0 0
663 2 9.1637449393708081e+00 7.7234964726059925e+00 1.8784271821493924e+01 -1 0 1
105 2 6.6664134132859658e+00 5.6331550775464114e+00 1.5400802832482874e+01 0 0 1
385 1 -4.1922586023981134e-01 1.0346159492972120e+01 1.1955414760352896e+01 0 0 -5
1601 2 2.1697442323997218e+00 9.8262328726371564e+00 5.4224824877491358e+00 1 0 1
93 2 1.5273322591404160e+01 3.1758963347112292e+00 5.1596171625454854e+00 0 0 1
396 2 -2.4449313625567011e+00 6.5360571918582160e+00 1.7765968999013360e+01 -3 0 -5
183 2 4.7421418433297369e+00 4.7510249546867431e+00 7.5171113090454522e+00 0 0 1
92 2 1.4328219823708285e+01 2.1685249117895453e+00 4.3445121327589593e+00 0 0 1
748 1 8.2170654790875179e+00 3.0172138836802542e+00 3.1237915045736375e-01 -2 0 1
422 2 8.0941506398012049e+00 9.6675721587836989e+00 1.3437499920410735e+01 0 0 0
479 2 1.1572336738930961e+01 1.0091400532443652e+01 2.7663986390938837e+00 -2 0 -6
1514 2 7.9999976561693540e+00 2.3736005426074569e+00 3.2246500128826798e+00 1 0 0
187 1 8.5640791121431770e-01 5.4790019662045877e+00 9.4680452533631314e+00 -3 0 -4
1636 1 2.0578430029734696e+00 8.5413747813667058e+00 1.3241610573635072e+01 0 0 -1
734 2 9.3009637523196478e+00 8.6451109396135735e+00 9.3403229289765761e+00 -3 0 -1
517 1 1.0117541980093232e+01 7.1101888600589724e+00 5.1705927688103165e-03 -4 0 -3
406 1 -4.1197321674562328e+00 3.2232505301605623e+00 1.4389864659953385e+01 -3 0 -3
934 1 1.3104953850761117e+01 5.1713125675120235e+00 4.7698765557720835e+00 -3 0 -1
881 2 1.3082964991466632e+01 6.4986621409471423e+00 1.0324391512706967e+01 -2 0 3
67 1 2.0881802012181803e+00 3.6391999350126079e+00 1.1195088658621389e+01 -4 0 -3
859 1 1.1661044846211333e-01 5.4085424174909322e+00 1.4248724914627944e+01 1 0 2
993 2 1.0342338940521767e+01 5.4514477886890127e+00 8.0340396599429031e-01 0 0 1
149 2 -3.0989270609362420e+00 4.7964859888650269e+00 1.8793433458696551e+01 -4 0 -3
645 2 1.2804206725848132e+01 6.1377235343977770e+00 1.3372157918959866e+00 -4 0 -3
1 1 5.5131033875938078e+00 3.1738134869619268e+00 4.9175269037185982e+00 0 0 -1
204 2 1.4571324114126753e+01 2.0689452945100713e+00 8.8146672712570364e+00 -3 0 0
1033 1 4.7249768727793269e+00 8.5887368532990427e-01 1.5997870999959156e+01 1 0 1
750 2 9.0013219858972935e+00 3.4991249026180831e+00 7.2831190110981470e-01 -2 0 1
481 1 5.9579539736641527e+00 9.2839653887723994e+00 7.1822549197594538e+00 -2 0 -1
65 2 1.7201652729169659e+01 2.3829411499769502e+00 6.1519954619034023e-01 -1 0 -3
933 2 9.8121998903752683e+00 1.0444711935368030e+01 7.3801350538736541e+00 -2 0 -1
700 1 2.0774915242745040e+00 1.0798718989908281e+01 1.4597783675748001e+01 -3 0 -3
597 2 1.0167594620177312e+01 1.8193108162106511e-01 1.5778717431740127e+01 2 0 -4
104 2 6.5200858091866394e+00 5.6381164772674159e+00 1.3874914509788344e+01 0 0 1
738 2 1.2111811020964831e+01 5.8187650177042700e+00 1.5062290782018708e+01 0 0 1
152 2 -5.0229860847065622e-01 1.0077774285761890e+01 5.5050753096076344e+00 2 0 0
176 2 4.6301745023152137e+00 9.7827106982227505e+00 1.4764241231850232e+01 -6 0 1
856 1 1.0185962516511331e+00 4.8058253878809118e+00 1.3037493694962863e+00 -1 0 -3
555 2 1.6186506708739081e+01 1.3082582220909456e+00 2.4637382808500319e+00 -7 0 -1
652 1 6.7213380336578883e+00 5.3703131976473459e+00 1.9021536162448516e+01 -2 0 -2
978 2 1.3848755220501678e+01 2.4056688501879151e+00 1.1324818897254987e+01 -4 0 -1
454 1 1.0102890532035060e+01 7.2036893992729008e+00 3.2534791739323023e+00 -1 0 1
553 1 1.7017176685766223e+01 1.7810668895218147e+00 2.2920935398133615e+00 -7 0 -1
925 1 1.2912062643891113e+01 4.2997198899868838e+00 8.1130044415218894e+00 2 0 1
117 2 1.0700629099951076e+01 8.7170905413576509e+00 1.2963398789656475e+01 -5 0 -6
373 1 1.3514592349926957e-01 6.8551646793423489e+00 1.1844197808538750e+01 1 0 1
1144 1 1.4399708109555556e+01 8.5548284376101620e+00 3.1043133296479444e+00 2 0 -1
429 2 -2.2357161391526601e+00 3.9756978447205218e+00 1.0406165177814708e+01 -1 0 -1
484 1 1.6753767355903904e-01 7.5339251614403198e+00 1.6140723057875896e+01 7 0 4
351 2 4.1809910011003266e+00 4.3424700951180890e+00 1.7266103257059573e+01 3 0 4
1665 2 5.1100997499793683e+00 7.1897493762557529e-01 1.1893281961027661e+01 -4 1 0
991 1 1.0041015599971411e+01 4.6740180826101803e+00 1.3794211288795470e+00 0 0 1
133 1 6.6432448913260718e+00 6.9119330080090302e+00 9.2895454808024880e+00 1 0 -1
530 2 7.2736599850758088e+00 1.0322251748914960e+01 1.5603582558537829e+01 -1 0 0
9 2 2.0320127025967398e+00 2.6088722436429252e+00 1.4030226052112599e+01 -1 0 -1
295 1 -3.9230643599676567e+00 7.1505687749391444e-01 1.6031794688634218e+01 1 0 2
927 2 1.2825621793162366e+01 5.1477068406235409e+00 8.5721161348557633e+00 2 0 1
865 1 1.1371245589314965e+01 8.7100281245146114e+00 9.4307204172147170e+00 -2 0 -1
1592 2 7.7234791289536515e+00 2.3517637567430203e+00 1.5143841688539442e+01 0 0 0
768 2 6.1361302321308804e+00 6.9185518040731289e+00 4.4438744648540762e+00 -5 0 0
408 2 -3.4018486975562814e+00 3.8950755401656694e+00 1.4528740107111034e+01 -3 0 -3
872 2 6.1530311845210468e+00 8.8518561910462239e+00 1.8555411853055229e+01 -3 0 -2
413 2 4.4201384793579805e+00 8.9738782254975682e+00 2.0993086947485326e-01 1 0 0
1939 1 1.0267216773792747e+01 6.9144913888844632e+00 7.1907168505697605e+00 0 1 0
939 2 2.3139417367312554e+00 9.1773893920558880e+00 8.5560777243699579e+00 1 0 0
867 2 1.1207912484378049e+01 9.1597772372779183e+00 8.5538460700095342e+00 -2 0 -1
7 1 2.1666518379287432e+00 3.3556195070264634e+00 1.4649706581753730e+01 -1 0 -1
554 2 -2.1814323316922724e-01 1.1196532189241593e+00 2.5161864681738417e+00 -6 0 -1
456 2 1.0831813230695817e+01 7.0701359536310777e+00 2.6034796920017045e+00 -1 0 1
704 2 -6.4132285240822640e-01 9.6451015530788613e+00 1.3553486339261450e+01 -2 0 -1
329 2 5.7910432723563536e+00 3.5047061750116333e+00 1.0085556470710795e+01 0 0 1
777 2 7.5255851095809358e+00 4.1733739307251119e+00 1.1350088665382277e+01 -1 0 1
3 2 5.3644550578751904e+00 2.8160037204280846e+00 5.7570996791215068e+00 0 0 -1
369 2 2.4989239498380917e+00 7.1993120337567751e+00 7.1589751564702633e+00 -1 0 -1
135 2 6.6500474159255205e+00 6.3630519929044214e+00 8.4535240445088302e+00 1 0 -1
188 2 2.8352242898531266e-01 4.8951382203746165e+00 8.9957053444099628e+00 -3 0 -3
627 2 1.0082153287654240e+01 4.8661189535902256e+00 1.7223805506871962e+01 0 0 -2
1958 2 1.0055568698043558e+01 5.5412084396099974e+00 5.7868286408489338e+00 0 1 0
427 1 -2.0313269601266093e+00 4.7221908833809350e+00 1.1047374976992765e+01 -1 0 -1
964 1 -2.4974693010995832e+00 5.4038411881699435e+00 1.4672665682908901e+01 0 0 0
703 1 -1.0425817643059743e+00 9.3637268719379598e+00 1.4392311624168634e+01 -2 0 -1
736 1 1.2590753483585310e+01 6.2343533370499937e+00 1.4309805704057529e+01 0 0 1
749 2 1.9310145863118908e+00 2.5049208702919472e+00 1.8653566466937061e+01 -2 0 0
803 2 3.6950901980613047e+00 5.8782706083875764e+00 9.1542304127883565e+00 -1 0 -2
1087 1 1.5490815435327036e+01 5.2219430872128392e+00 6.9797443558518921e+00 2 0 2
996 2 7.3596439093656842e+00 2.0462503915642243e+00 1.7396599381466586e+01 3 0 1
182 2 3.2551491078101584e+00 4.2516941157512376e+00 7.3702639890357444e+00 0 0 1
257 2 3.6300711939762120e+00 5.7768079919061988e+00 1.3862926237952841e+01 -2 0 -1
143 2 -1.6389748368169847e+00 9.8311945361906243e+00 1.7423765464238251e+01 3 0 0
776 2 6.1699166760017654e+00 4.8405722763156858e+00 1.1733960445736926e+01 -1 0 1
1453 1 1.1155801027553466e+01 9.2866731861948253e+00 1.6701431085954972e+01 -2 1 -1
181 1 3.8842120707159471e+00 4.6510768264400575e+00 8.0035463163605858e+00 0 0 1
1150 1 1.1293648720717934e+01 1.6081703569123975e+00 4.8992178450659027e+00 1 0 0
97 1 8.1765196514472720e+00 9.1474893573687872e+00 1.8478265171843081e+01 1 0 -1
157 1 6.6779557377736065e+00 6.8104554576948848e+00 1.6847281509391159e+01 -1 0 -1
1878 2 2.1513813349599893e+00 2.3600266549581388e+00 5.5514774805162697e+00 0 1 1
766 1 6.8865550931584369e+00 6.3076576470731549e+00 4.7341448487689375e+00 -5 0 0
423 2 8.0672172417007992e+00 8.5527101076618077e+00 1.4495685736926957e+01 0 0 0
992 2 1.0752026264123195e+01 4.2517327172778652e+00 1.9507799554706253e+00 0 0 1
307 1 1.1677637882927844e+01 5.6362900018955768e+00 1.6812507049630852e+01 1 0 -1
466 1 1.1444447013530414e+01 1.1201859412118598e+01 1.0804968688496244e+01 -1 0 1
1566 2 -2.1819224712487895e+00 8.9096246789800091e+00 7.1437272790347963e+00 1 0 0
414 2 5.6631398608191486e+00 9.8308618714091729e+00 8.4039689204135226e-01 1 0 0
801 2 -4.5898922113339058e-01 1.0390605684601901e+01 8.5223150453884262e+00 1 0 -3
860 2 2.2879209971578085e-01 5.7673253202972248e+00 1.3365077741453213e+01 1 0 2
111 2 1.4378762503647836e+01 1.0399908998440646e+01 5.6637997883403690e+00 0 0 -4
271 1 3.0765673412960690e+00 3.0879340824380850e+00 2.2387734949531342e+00 -1 0 -3
1942 1 1.1343368395119509e+01 3.0933012064639764e+00 1.4618649586170868e+01 -2 1 -2