LAMMPS data file via write_data, version 8 Apr 2021, timestep = 1655000

3072 atoms
2 atom types

0.15515146027487353 29.98504253971929 xlo xhi
0.14721495630962528 28.193251043688637 ylo yhi
0.09814159216628181 27.313303407825096 zlo zhi
10.303494415345597 10.333301570763052 7.1871440444619665 xy xz yz

Masses

1 16
2 2

Atoms # atomic

1 1 7.62782151850035 5.512919068704041 4.113419520191371 0 0 0
2 2 6.802983100321069 5.057386559890005 3.9328100125018377 0 0 0
3 2 7.372035314838509 6.406428840597605 4.376616011142694 0 0 0
4 1 10.379424266946483 7.061131914879786 10.95192214704337 0 0 0
5 2 10.693717170826377 6.638331236648305 11.79683740885215 0 0 0
6 2 10.04211202485933 7.905668322953996 11.333371242167825 0 0 0
7 1 10.002979225858383 12.365510503437797 4.089770193424149 0 0 0
8 2 10.478973858165391 12.054907906635806 4.8971698978577844 0 0 0
9 2 9.591432877540118 13.195497232959186 4.416123607721245 0 0 0
10 1 12.554473829019964 14.198475062681535 10.914274759749853 0 0 0
11 2 13.280183733978644 14.182249631279257 10.280893237029085 0 0 0
12 2 11.821780885214757 13.720876395602888 10.507022783029118 0 0 0
13 1 15.02313697298923 5.359302658508229 3.904869865878415 0 0 0
14 2 15.44881222126711 4.803578527590637 4.570599646922065 0 0 0
15 2 14.70842228920487 6.234410404703535 4.387187702855838 0 0 0
16 1 17.62008117408054 7.250103851465322 11.065891644921937 0 0 0
17 2 18.114968760242597 6.7551782176428 11.77748987046526 0 0 0
18 2 18.336000970289774 7.387162165355359 10.367739000168347 0 0 0
19 1 17.62947225501468 12.331695974677324 3.844735855478985 0 0 0
20 2 18.412293396361697 12.45807444773878 3.2672390078048004 0 0 0
21 2 17.997270858977615 11.927680966218317 4.660952332865921 0 0 0
22 1 20.1326439746123 13.93214680480858 10.918666864108319 0 0 0
23 2 20.953082912716457 14.23803557780328 10.48603016693774 0 0 0
24 2 19.68944987935679 14.833512184571024 10.978462421309645 0 0 0
25 1 11.784778528064583 8.467860162060976 6.190993941558182 0 0 0
26 2 10.98264978711395 8.906727509006078 5.863946442794552 0 0 0
27 2 11.451481442391017 7.721421878569222 6.784131949764477 0 0 0
383 2 20.674192446931183 16.98423104900522 11.850456445892695 0 0 0
29 2 14.61611754883861 9.490007633548242 12.319381184533544 0 0 0
81 2 4.4193169683266165 7.501451392672236 1.2089371282455919 0 0 0
182 2 17.412796875623588 4.219311982546976 5.943397979548553 0 0 0
802 1 21.984858691691908 31.112218345652817 13.265826755857566 0 0 0
173 2 11.995605361271032 6.8465465540386266 13.354761146326773 0 0 0
32 2 14.365210963392517 14.80695173381728 5.281742131321738 0 0 0
38 2 18.367802406633537 8.724049709470936 6.319211234810298 0 0 0
87 2 8.394448958786311 1.3303577082464657 1.6896409426760088 0 0 0
275 2 14.583703572156267 15.696205453911794 9.104492656387812 0 0 0
172 1 11.675869112254802 6.016015363064257 12.903799472434239 0 0 0
49 1 5.383548256020477 4.138939967530329 3.008529022112395 0 0 0
50 2 5.549220501412191 3.18330116700113 2.7540914820695086 0 0 0
51 2 4.652610639714204 3.9808912712054214 3.6476073901853376 0 0 0
52 1 8.121115162960193 5.6266639880870635 9.643155755321084 0 0 0
53 2 7.746784207251244 6.0536592213590765 8.821139290304613 0 0 0
54 2 8.953026590432744 6.09234520178045 9.933021802899267 0 0 0
55 1 7.853975053169128 10.936736854093233 3.0373123440550733 0 0 0
56 2 8.124328921434163 10.134309722949798 2.510427068341367 0 0 0
57 2 8.682467426932364 11.313769308404835 3.400544266546779 0 0 0
58 1 10.45016366651193 12.717135731274153 9.828437209286543 0 0 0
59 2 9.997189558348735 13.040582449021757 9.036909940266753 0 0 0
60 2 10.733481210162177 11.816120779933884 9.599547365804023 0 0 0
61 1 12.936182813235355 3.902171543550705 2.8731823854180525 0 0 0
62 2 13.71607515972489 4.417358651125441 3.1886539747640175 0 0 0
63 2 12.589872488160188 4.24784504238299 2.0468128247956647 0 0 0
64 1 15.416752829124945 5.474710943387621 10.015250074747836 0 0 0
65 2 16.10777922900171 6.007310789956753 10.430662724689546 0 0 0
66 2 15.848518016335055 4.575918181163211 9.908092554171647 0 0 0
67 1 15.319312482662355 10.765268826976465 2.5943492770772236 0 0 0
68 2 16.12940426981515 11.235883910864464 2.8312169323934415 0 0 0
69 2 15.606243954223153 9.9047030232483 2.1593185759762674 0 0 0
70 1 17.939262848907706 12.66115525664168 9.70295107777585 0 0 0
71 2 17.485252965081976 13.004161834199227 8.906982418010934 0 0 0
72 2 18.73307478236678 13.249410506057625 9.854313464859915 0 0 0
121 1 3.216236044336357 2.915890760727108 4.355979626669338 0 0 0
229 1 13.16967115714869 1.52239505456028 1.5186048177360243 0 0 0
84 2 7.1479721999181685 9.363910504302911 7.761529703814637 0 0 0
338 2 4.584760377443464 5.7709386338463755 4.809182176215601 0 0 0
370 1 12.465717941605838 16.551504760305296 12.104287897660125 0 0 0
90 2 11.675667096430535 3.447743893584397 6.876492266523206 0 0 0
2378 2 12.090342845203962 18.91988738522502 13.429656219125313 0 0 0
94 1 13.913791473561885 9.875126086194026 7.472558580363098 0 0 0
95 2 14.496241267115932 9.218590068035457 7.873118668486542 0 0 0
96 2 13.245722209585495 9.380902975838517 7.007810520845885 0 0 0
97 1 5.370778240186178 4.264042513096101 6.086372810730358 0 0 0
98 2 5.87352938038018 4.782749950591956 6.7782821940253735 0 0 0
100 1 8.17057381028012 6.34115472132124 12.865267412288436 0 0 0
101 2 7.855952571814833 6.924595006669251 12.16984234114768 0 0 0
102 2 8.684106629097029 5.593168788665979 12.550197979481784 0 0 0
103 1 7.739010891192367 11.735186502205327 6.153920799269993 0 0 0
104 2 7.594156265333906 12.183260866515083 5.334101151864059 0 0 0
105 2 7.100710186135563 11.016315250595484 6.37074057907456 0 0 0
108 2 10.848792060112832 12.61202132432967 12.2255319159488 0 0 0
109 1 13.069774039370687 4.598460530820845 6.18715297487527 0 0 0
110 2 13.5821550592268 3.9344090087418073 5.685532539036629 0 0 0
111 2 12.486690637013565 5.100019393688834 5.5844323275469065 0 0 0
318 2 5.8389221541772445 6.782486323603626 8.170401480857526 0 0 0
115 1 15.399628966751749 11.490674984230463 5.727768917826659 0 0 0
116 2 14.950697541312804 10.848007959977343 6.368539714911317 0 0 0
117 2 15.747470642009512 12.181105763113111 6.295045679635524 0 0 0
118 1 17.945872090869173 13.344264268691013 13.012204898130568 0 0 0
120 2 17.560960745943895 13.980033665968843 12.425208373787427 0 0 0
367 1 9.74412548812692 14.81131585713916 5.344573840101673 0 0 0
124 1 5.754682025992264 4.911220138883981 11.18575390878868 0 0 0
125 2 6.488042539343666 5.463088275024214 10.878797920567493 0 0 0
208 1 18.573350163522317 4.447250280667696 9.824573940444221 0 0 0
327 2 10.885163209039765 3.945093936842503 0.4285485825666999 0 0 0
129 2 6.3251973957511645 10.728731147626617 4.050747750961536 0 0 0
132 2 8.786963699755423 12.20024763016849 10.743601543423559 0 0 0
133 1 10.839944171132753 3.1404858919285146 4.228832869423872 0 0 0
900 2 12.937072844166009 26.02095720781995 10.387831362627042 0 0 0
135 2 11.557052673908883 3.53787817054415 3.6957585411564833 0 0 0
136 1 13.216415116673124 4.535797312426924 11.184168425687817 0 0 0
137 2 14.035103018375368 4.9312049605502075 10.815637970034654 0 0 0
138 2 12.777543937925318 5.223027689998767 11.787291713768498 0 0 0
139 1 13.088476736699675 10.112334479057813 4.17306681701004 0 0 0
140 2 13.907319218333424 10.518612539242035 3.8345668347566626 0 0 0
141 2 13.34034635921013 9.227667033986654 4.475734329995245 0 0 0
142 1 15.827929598772307 11.956519093997548 11.275781352740585 0 0 0
143 2 16.651477084610704 12.204779422534974 10.804231560082968 0 0 0
144 2 16.074281781536254 11.092015804244053 11.678525790925349 0 0 0
940 1 16.911194773765224 20.1980406102034 13.293037423191354 0 0 0
147 2 6.724108005449156 3.14720201142499 5.532439867755719 0 0 0
379 1 17.284029760601097 14.686747654160538 5.278095887508972 0 0 0
149 2 9.895113211158055 4.220633906999454 10.896928351703213 0 0 0
805 1 24.134165592276286 22.294397655714743 6.238538364369155 0 0 0
151 1 9.34480343323898 9.363971389918936 5.213355012103719 0 0 0
152 2 9.036263975472853 10.247721477119477 5.50282868994795 0 0 0
153 2 9.582416864370009 9.467922920922822 4.216858950728827 0 0 0
154 1 12.001387429745778 10.944977180890469 11.78536632228446 0 0 0
155 2 11.422991644348107 10.182720100720728 11.638750284102521 0 0 0
156 2 12.52862764952921 10.953280040906357 10.965169366446313 0 0 0
157 1 14.579341174913278 2.3638725577842745 5.042287202539269 0 0 0
123 2 3.736401280645021 2.1962765339763903 4.726858241449177 0 0 0
159 2 14.970424359699877 2.468741235506428 4.19201770134138 0 0 0
160 1 17.141477048598393 4.278855146295873 12.056491082292263 0 0 0
161 2 16.739888892428237 4.9981800874091915 12.596485554029933 0 0 0
163 1 16.97875067100705 9.380875905101306 5.062495082721808 0 0 0
164 2 16.525078041374268 10.2936063061647 5.1395861333749036 0 0 0
165 2 17.524531710808755 9.361687552126192 4.280143723736291 0 0 0
166 1 19.705025941998247 11.13407335651334 11.927402163382855 0 0 0
167 2 19.272231849154362 11.948416480660992 12.29054886821019 0 0 0
168 2 20.10081006130672 11.326080773113917 11.101775757919201 0 0 0
169 1 9.150272656968312 4.471629139424426 6.097127470251595 0 0 0
170 2 9.785001263737882 4.14965918708915 5.448108913616891 0 0 0
171 2 8.38357843699516 4.753769697243161 5.531885546623016 0 0 0
1095 2 15.871547358388034 17.977744865922123 0.3173212351521873 0 0 0
127 1 5.548920323438322 10.335725148831218 4.4352660967458375 0 0 0
175 1 11.414634529639912 11.563914703264233 6.29100154665314 0 0 0
176 2 12.045363018283211 11.112852184547183 5.68244811642717 0 0 0
177 2 12.003715790993947 12.223868731152479 6.7764492787228034 0 0 0
178 1 14.131139418301252 13.157337179811092 13.06367927182058 0 0 0
179 2 13.362655935599298 13.343576097972358 12.4681909127241 0 0 0
180 2 14.808032682772215 12.749150142666506 12.475650134177979 0 0 0
181 1 16.694134185871313 4.63718760134566 6.420997496041663 0 0 0
131 2 7.46806204045614 11.568271795982533 10.47525437356142 0 0 0
183 2 17.11269276695756 5.292004898747881 6.977782892957511 0 0 0
184 1 19.351414151709502 6.052604381006078 12.869448300888145 0 0 0
187 1 19.292624693919315 11.592528177808726 6.159115397916197 0 0 0
188 2 19.08178520754406 11.09727133709554 6.978800190955256 0 0 0
189 2 19.70045257005099 12.421714285592774 6.48319149151424 0 0 0
241 1 7.7390406538898295 4.549186785867028 1.0472343884229967 0 0 0
192 2 21.1321103609303 13.56468597843188 12.583561190105131 0 0 0
193 1 8.367212993422793 2.74005387193441 2.82045857577631 0 0 0
194 2 7.78087700632517 2.4917477180515792 3.578462800577647 0 0 0
195 2 9.279641672904358 2.8174571416597134 3.231344488342073 0 0 0
196 1 10.948508853203338 4.379693652057069 9.713952826812319 0 0 0
197 2 11.014651058238172 3.7183338556551373 8.99511460045416 0 0 0
198 2 11.830791758401984 4.286589163483327 10.12580743518906 0 0 0
199 1 10.708333499975646 9.866213069583102 2.911555678254291 0 0 0
200 2 10.869778611625728 9.042242794768674 2.3712740813388953 0 0 0
201 2 11.577449208736077 10.070677434091381 3.2781418941270752 0 0 0
202 1 13.851040769795599 11.910588122217986 9.288460407645275 0 0 0
203 2 14.534957042811131 12.142166108271066 9.925543462688546 0 0 0
204 2 14.143762686038329 11.128681961079987 8.793326977564822 0 0 0
205 1 15.868813583944627 2.8565496185516706 2.7102776066372583 0 0 0
209 2 18.10173254511349 4.306169044664804 10.659741711294549 0 0 0
722 2 18.43358571815697 6.634006352545936 3.6652676873316272 0 0 0
213 2 18.44926456625451 10.342772835789974 2.233859482895166 0 0 0
214 1 20.950843328005384 11.500808606163968 9.476430728960718 0 0 0
122 2 2.7835938855303133 3.4260585666399637 5.106616343341131 0 0 0
30 2 13.360300251444654 10.29976950713271 12.788989791694139 0 0 0
319 1 6.399359268948966 11.777689003786104 0.9946916669025251 0 0 0
221 2 8.407354881344668 4.278059428002744 8.961014493528033 0 0 0
222 2 8.77899354775805 3.460848542788156 7.643119793449047 0 0 0
223 1 8.03327611329387 8.441308845981212 1.7652865447056205 0 0 0
224 2 8.68271902979104 7.760738489735121 2.124189687286604 0 0 0
225 2 8.437649986485031 8.603154040615715 0.8980762098668287 0 0 0
226 1 10.898397652960734 10.225277316914811 8.759371451660487 0 0 0
227 2 11.54591794415298 9.526867418572685 8.93797343443582 0 0 0
228 2 11.061381360743958 10.477958016550161 7.80509336931835 0 0 0
231 2 13.179825979223533 2.3349691401644943 2.0473786555258937 0 0 0
1116 2 14.895401842313738 29.910936983253418 11.828300594320051 0 0 0
234 2 16.11995491091707 3.516744543856172 7.964264357442858 0 0 0
235 1 15.783126927272324 8.369036262911735 1.4472277619697769 0 0 0
882 2 20.168207585552828 19.581204705514292 13.139570272052143 0 0 0
237 2 16.383916163273256 7.65022198525885 1.7958769551881637 0 0 0
238 1 18.40583951118837 10.082237160513369 8.731956576933243 0 0 0
239 2 19.042997687188745 9.538709921095329 9.15490026124389 0 0 0
240 2 18.358726993925735 10.942776421253338 9.114951734227272 0 0 0
242 2 7.867713980512845 3.8945649571504637 1.7289885472009934 0 0 0
243 2 7.174076867842274 5.233235825766887 1.4655837947517623 0 0 0
244 1 10.185848708972648 6.332347869176775 7.751684077745255 0 0 0
245 2 10.568034445075355 5.9064425697991165 8.475652573187588 0 0 0
246 2 9.886906247669835 5.600768363443057 7.171367122745305 0 0 0
247 1 10.100111586490966 11.90644362181082 0.8204667405012509 0 0 0
248 2 9.362453533378524 12.516356062523528 0.9932131195629781 0 0 0
249 2 10.241302793155045 11.480167276735704 1.7301689910908253 0 0 0
250 1 12.51111926294376 13.580353998145576 7.7270940521281 0 0 0
251 2 13.04563547836382 13.109066763405346 8.406101888164796 0 0 0
252 2 13.183567174559975 14.144705400054761 7.20494132415313 0 0 0
253 1 15.087543999921895 4.7275004319178064 0.7250778008209057 0 0 0
254 2 15.514042495547447 4.190715926683931 1.4454027931683033 0 0 0
255 2 14.422737630859462 5.244972521816895 1.2329139575575223 0 0 0
256 1 17.925252430871097 6.45444991740143 8.213572848846226 0 0 0
257 2 18.012036637639266 5.854665089626652 8.974001650445272 0 0 0
258 2 17.251015272615575 7.128312039794857 8.414702531709079 0 0 0
259 1 17.774428192473295 11.571641602233399 0.9796941085282409 0 0 0
260 2 16.949093343997287 12.05649208126158 1.0894571682266845 0 0 0
262 1 20.19973797011231 13.810203013593428 7.654719860198832 0 0 0
263 2 20.43511692255043 13.162757828622997 8.343905373901176 0 0 0
264 2 21.00903696624975 14.3294937034217 7.409327492428175 0 0 0
265 1 9.857613019367593 6.211332102815926 2.6380556499530203 0 0 0
266 2 9.133972931879123 5.710980624524678 2.99993122783758 0 0 0
267 2 10.29762911542431 5.563468910994385 2.0809039369163926 0 0 0
268 1 12.444912790095696 8.121488693467665 9.721640855979627 0 0 0
269 2 12.767623699752045 7.578344875681975 8.928720163866497 0 0 0
270 2 11.786772544251672 7.526334744420963 10.14405176637776 0 0 0
271 1 12.052042074160005 13.574625734217664 2.7758392387367885 0 0 0
272 2 12.85633461631642 13.480373934173258 3.3946714133068583 0 0 0
273 2 11.303190429689698 13.051790823030894 3.1810912610786333 0 0 0
274 1 14.752149935876094 14.862807834253163 9.50851056422912 0 0 0
99 2 4.74692478580992 3.6107930866420115 6.612958956995104 0 0 0
276 2 15.618981130808008 14.910941365692226 10.020995303526696 0 0 0
278 2 16.40834087274644 5.881356357036811 2.9580331397528634 0 0 0
280 1 19.980362506823596 8.102878571003334 9.368162103091233 0 0 0
283 1 19.809200499764366 12.945939723255385 2.4323124509972534 0 0 0
289 1 5.841578923964486 6.684848006965772 1.6044140915102336 0 0 0
290 2 5.511465120712308 6.64356474608275 2.5665636875325344 0 0 0
291 2 6.5312419889749815 7.360200152888956 1.6126763442594438 0 0 0
292 1 8.608106106410302 8.629887945950157 8.384562008715921 0 0 0
293 2 9.245712172310947 7.836320779002172 8.237706074896252 0 0 0
294 2 9.311036952285416 9.29810604076913 8.547986533124526 0 0 0
295 1 8.409747644489306 13.828525544881789 1.714459039664993 0 0 0
296 2 7.907582551405675 13.868695184655577 2.5827844134734272 0 0 0
298 1 11.099267738706404 15.737684258037353 8.866584902545902 0 0 0
299 2 11.471621778275336 14.941729925868746 8.445226921667674 0 0 0
1081 1 8.779075184638677 18.651214861311146 0.8268281734104982 0 0 0
301 1 13.321517538440595 6.826491909019828 1.8394481970516692 0 0 0
302 2 13.269019455254666 6.916500386133636 2.794571593022313 0 0 0
303 2 14.1294992264577 7.390273721626885 1.7043586269346713 0 0 0
304 1 16.13740964640045 8.428246765103001 8.6824265854978 0 0 0
305 2 15.721660894934004 8.224543395242872 9.575534457540876 0 0 0
306 2 16.793296793164902 9.14770426119555 8.984252277549567 0 0 0
307 1 16.023645306743116 13.815989079356909 1.5250420908581221 0 0 0
93 2 11.986646420784211 7.4900566330645635 1.1485184920428788 0 0 0
310 1 18.478566567581037 15.558908814283603 8.860648960952897 0 0 0
311 2 19.241182889911016 15.061967644433256 8.545870766396177 0 0 0
859 1 16.46082812646816 21.665763757602672 0.9145530514645607 0 0 0
315 2 4.268047479038952 4.498569174513241 1.7305381286708794 0 0 0
316 1 6.599116567389067 6.356393949021788 7.685708168603546 0 0 0
317 2 6.839277820122416 6.950829339310222 6.970005166093886 0 0 0
321 2 7.100059997141698 11.68478211025409 1.67804763223482 0 0 0
322 1 8.939389167652841 13.419501061082308 7.642908667708926 0 0 0
323 2 8.347906143885602 13.86088298060427 8.267558300526142 0 0 0
324 2 8.407690592905846 12.714689870034144 7.230792126993173 0 0 0
325 1 11.400826641895815 4.608697621193903 0.9130674690381919 0 0 0
328 1 14.012932123760349 6.668423574310805 7.810828024346928 0 0 0
329 2 13.644782207110405 5.912053404387835 7.291404739521897 0 0 0
330 2 14.756205667583178 6.275587551502993 8.364911511357304 0 0 0
331 1 13.63280095418785 11.571043543421812 0.7677900421172877 0 0 0
332 2 12.940465013155245 12.039523055412495 1.2187341133305596 0 0 0
333 2 14.296699001167903 11.443658542716655 1.469198296393556 0 0 0
334 1 16.455689844439238 13.35891044368637 7.552696935604019 0 0 0
335 2 16.805311098753773 13.772325965778375 6.738993521226605 0 0 0
336 2 15.71514117527408 13.866649262635397 7.979669737704338 0 0 0
340 1 7.135681764841808 7.994188061339319 10.937109184256684 0 0 0
342 2 7.690370494956683 8.267598675175503 10.205347818449802 0 0 0
343 1 7.053534744119234 13.658501468810883 3.9383060100103315 0 0 0
337 1 4.604027437141153 6.6269970535947 4.291299003375357 0 0 0
346 1 9.635404346825513 15.213421170493527 11.125975448422047 0 0 0
347 2 10.344003651019227 15.273443269149029 10.405337244352767 0 0 0
348 2 9.786691279035376 14.389809579565679 11.627317903597863 0 0 0
349 1 12.27826741651571 6.469291315196437 4.365373285513275 0 0 0
350 2 12.262529316912326 7.264076124102111 4.9755984941301445 0 0 0
351 2 11.393939531491936 6.439767905859394 3.9129581799767656 0 0 0
352 1 14.794352953424184 8.181387537916427 11.039616991556585 0 0 0
353 2 14.997445733571595 7.534571218165865 11.773852817861252 0 0 0
354 2 13.905136337852207 8.15654510509021 10.665755338917224 0 0 0
355 1 14.486825757568095 13.708623560333148 3.879894389659756 0 0 0
356 2 14.791179963193366 12.911132693347556 4.3013358803158965 0 0 0
357 2 15.065892968287976 13.732908134568866 3.0504065404140124 0 0 0
358 1 16.89377063960875 15.256226708983975 10.995411514825967 0 0 0
359 2 16.966132056101223 16.081842514776813 11.56000445278806 0 0 0
360 2 17.51643158945992 15.452502656036252 10.293292131744145 0 0 0
361 1 7.025801285802755 7.865992392713376 5.290163219459678 0 0 0
362 2 6.382579374261977 8.567089161250165 4.995721716590528 0 0 0
363 2 7.830878232662258 8.433604372875754 5.188050683126303 0 0 0
364 1 9.94373488380279 9.41020952547932 12.121954595482343 0 0 0
365 2 9.3410506399222 10.095673226194997 11.830559152061394 0 0 0
366 2 9.646634573828164 9.075751880047456 12.975766441774937 0 0 0
211 1 18.74437531379513 9.547302918037804 2.7123554915097614 0 0 0
369 2 9.646964164261968 14.370752506671748 6.2336408860432355 0 0 0
215 2 21.854182149886537 11.66025373063521 9.720713279321005 0 0 0
126 2 6.206226835082667 4.061333249203123 11.418516174042505 0 0 0
372 2 12.666976701779754 15.651229574665201 11.710981682091706 0 0 0
373 1 14.708695691598317 7.7474212229888915 5.2012433829629305 0 0 0
374 2 15.605791119265374 8.086801306645828 5.163008013499489 0 0 0
375 2 14.722721861131916 7.474580386463177 6.172613112094777 0 0 0
376 1 17.186899024786445 9.556522351589456 12.527434207768577 0 0 0
377 2 18.069709102233897 9.946948427174352 12.48612160114745 0 0 0
378 2 17.26259843313338 8.708158830885631 11.960233474581019 0 0 0
130 1 8.0811393782264 11.696010121705706 11.198578403828838 0 0 0
381 2 17.24317645819366 13.992511498202301 4.578459507351415 0 0 0
382 1 19.70959755359394 16.65672107660976 11.752246278658523 0 0 0
974 2 21.899151401362843 16.708663542647756 3.029429263680674 0 0 0
300 2 10.445735248671356 16.102023898442006 8.189566681634366 0 0 0
1584 2 19.038259459588037 12.837581793462858 0.19895727804759633 0 0 1
314 2 3.4084123678559597 3.9146913814113273 0.6252394097333623 0 0 0
220 1 8.411176669144638 3.369237380211354 8.533166206655856 0 0 0
1053 2 25.702889313841066 27.352316188587018 3.2960313087454014 0 0 0
813 2 26.485029710972164 28.587365006352865 7.067796362679296 0 0 0
2384 2 15.091481842902216 25.931501381531817 13.495733002659804 0 0 0
112 1 15.39604862515473 6.329060372218286 12.950446110917103 0 0 0
40 1 21.8394121647703 10.033106622484379 13.184092189516235 0 0 0
232 1 15.71399697683037 2.9599462541234103 8.706513673616994 0 0 0
1151 2 25.22334155040454 30.37028312516973 13.051229925203417 0 0 0
1054 1 27.630833334263155 28.959673342626782 9.59491051809765 0 0 0
212 2 18.27361074767652 8.828304964231174 2.285492559640678 0 0 0
286 1 22.48947270544926 14.745956076576206 9.703838437874472 0 0 0
2630 2 21.77969777077337 22.922227101504202 13.528913306645425 0 0 0
219 2 5.885467748573772 2.014118731232616 0.930622476309671 0 0 0
1022 2 19.610659248898454 17.892082275736442 0.15674373933778385 0 0 0
1089 2 11.045505537630232 24.995729321493396 0.43474141778303377 0 0 0
78 2 3.7969695377530632 3.4331296480878297 8.38004516716602 0 0 0
313 1 3.6144919558724244 4.749204404008439 1.0479738935206588 0 0 0
320 2 6.109313225280498 11.003779410415829 0.4788973915771661 0 0 0
986 2 11.189128493932603 14.80039908016698 2.001750730290322 0 0 0
285 2 20.457144608114135 13.31239123783519 3.0612831621892305 0 0 0
218 2 4.770134271859502 1.2114914155631265 1.8148713509247851 0 0 0
148 1 9.62638773158188 4.298537267102597 11.8208358533862 0 0 0
384 2 19.468910042506867 16.390632409639338 12.659285529661133 0 0 0
217 1 5.558663374064974 1.7875065654697901 1.8700752244687924 0 0 0
915 2 11.314575373790495 15.760014283519853 5.003422034352236 0 0 0
31 1 14.11858444723487 15.182935068763959 6.144359453840186 0 0 0
28 1 14.279835859969593 10.093729617713086 13.023793094465226 0 0 0
855 2 13.012713453400265 14.663012810675857 0.17932090672113982 0 0 0
1437 2 10.524146340340103 26.841412518663734 2.0824832956541126 1 0 0
806 2 24.85262024054347 22.895344972960174 6.555544449247178 0 0 0
85 1 8.567432800691725 0.9220150150121782 0.7988556563092595 0 0 0
798 2 19.074775350802987 23.483505251082974 13.69437164910719 0 0 0
185 2 19.874550442877755 6.779416115606055 13.227565592758397 0 0 0
1152 2 14.489730661056441 3.264204254082565 11.872875474915014 0 1 0
983 2 26.300587763470094 24.997968364108598 8.99995804565263 0 0 0
158 2 15.303964139223101 2.2167953609244733 5.6560696157987085 0 0 0
88 1 11.382322527269078 2.5775777556693753 7.330571800975886 0 0 0
36 2 16.230861135782547 16.461359331501537 13.373816993927665 0 0 0
230 2 12.415075575723833 0.9253008346738869 1.783987377055582 0 0 0
1011 2 13.3464029143375 19.164919291620006 0.5699261427730667 0 0 0
1087 1 11.434918807575427 25.82659963450615 0.9601654547465514 0 0 0
134 2 11.238514139751544 2.321195365512746 4.63020546077893 0 0 0
860 2 15.600735131278885 21.410815048574513 0.5155813507297649 0 0 0
869 2 13.371254309018056 20.69175476080612 13.183825268614203 0 0 0
206 2 16.70213026477686 2.794562542320187 3.1554130510106155 0 0 0
297 2 7.770953115517067 14.30825249276919 1.1308975460997879 0 0 0
145 1 7.1261351179492465 2.3144652345843366 5.1912251965527645 0 0 0
1134 2 14.880654519378743 23.18883749485411 12.703333621510081 0 0 0
368 2 9.031164974559104 15.495664070738322 5.307367763480971 0 0 0
312 2 17.84738576361467 15.742731115346054 8.121730652487965 0 0 0
1056 2 28.408767446566525 29.15885884010893 10.194331281079204 0 0 0
1109 2 12.25936911756137 23.160231754038175 11.541696981944813 0 0 0
850 1 11.50244621153263 23.898782576690742 7.554674545054556 0 0 0
341 2 7.063268717121988 8.757709232504627 11.585062047333045 0 0 0
1280 2 25.315174966538706 24.637244462460938 4.687683495015166 0 0 0
288 2 22.18015423352271 15.619347289493653 9.407998276517707 0 0 0
261 2 17.591068372308534 10.862701340406192 0.2920486221948788 0 0 0
1079 2 24.56052718950775 30.20674848769365 8.40914915527838 0 0 0
42 2 21.085644180570412 10.621174328116773 12.861031420625851 0 0 0
309 2 16.782710953456952 14.406268266615982 1.7511810993617545 0 0 0
114 2 14.668200161798476 5.790166130417534 13.312364584050007 0 0 0
308 2 15.33754937408768 14.374666699154018 1.1189409350521953 0 0 0
808 1 26.862538876703987 23.84492835615723 13.141944427338778 0 0 0
380 2 16.624658535981887 15.329831755687902 5.011562828440413 0 0 0
804 2 22.736259847295432 31.53201083357648 13.678611664641593 0 0 0
47 2 23.521625460557697 17.647977247889465 12.667106165589155 0 0 0
146 2 7.869198673527037 2.0009971274581053 5.790943759191942 0 0 0
1148 2 23.321312094572068 29.292177102496595 5.213011071113625 0 0 0
371 2 13.210879551305617 17.12021822823456 11.956025981444492 0 0 0
89 2 12.156665182957338 2.2549240174114855 7.897448314152335 0 0 0
77 2 4.756633860738914 2.3343670054006247 7.906537565457702 0 0 0
33 2 13.394427330933926 15.876476379053186 5.855101493960718 0 0 0
44 2 20.878889928374367 15.682997497642544 5.7626162399943475 0 0 0
1137 2 15.971988436608672 29.327602616896193 5.12829309250519 0 0 0
2483 2 14.538752858148328 24.255407755527514 0.10146213747697501 0 0 1
814 1 29.526389801648158 30.803099397570886 13.163948285242844 0 0 0
881 2 21.158201820290902 20.809524537620113 13.545359032230472 0 0 0
1140 2 18.57763939773155 31.234646990812852 12.20502739948142 0 0 0
952 1 24.368385714615737 20.377917363192644 13.161855758508029 0 0 0
119 2 17.17047798545518 12.805979868919215 13.314625194647348 0 0 0
1093 1 16.25128140633311 18.714094883037422 0.9120265266059732 0 0 0
847 1 8.737550353102366 21.986821596183027 0.5508309905830766 0 0 0
233 2 26.69394757462222 30.31000228246682 8.963646503169603 0 -1 0
853 1 13.703490014308255 15.160965719639995 0.6387664178008332 0 0 0
999 2 18.887502115034387 14.370774392680605 1.970424346306932 0 0 0
854 2 13.351127831453582 15.399899592157283 1.510989071172536 0 0 0
993 2 13.584758259250798 22.74627362293585 1.0157032295391184 0 0 0
1052 2 24.70457237395545 27.906459345192516 2.2579128172751917 0 0 0
326 2 11.700215613888338 5.2074448580805415 0.16560334614378688 0 0 0
1491 2 23.376986192555428 20.517056962910942 3.5759526301477558 0 0 0
1229 2 22.838804970855488 16.056134384930218 7.124362401669634 0 0 0
959 2 27.946789921992174 26.828057436328567 12.50664745634919 0 0 0
79 1 3.797392355975616 8.019308243240076 0.6756957415772702 0 0 0
1048 1 25.034924978257543 22.31738075951996 9.394197260444145 0 0 0
1023 2 20.551730446554867 19.15661672790363 0.40977131686078 0 0 0
1063 1 13.846045564505285 27.89306204709993 2.0733810473639283 0 0 0
1150 1 25.426914462740953 30.573241579796605 12.123618174584353 0 0 0
106 1 10.177333642533693 13.0345262772563 12.715439981271661 0 0 0
889 1 8.199080912070736 16.957199497753408 4.27900896619608 0 0 0
1149 2 22.594018065052524 27.90556204970009 4.797263273960463 0 0 0
1092 2 13.794277405884271 28.13621051359377 8.278949838046934 0 0 0
1124 2 20.306438103881682 27.882790039626293 3.452641965859243 0 0 0
946 1 19.3059662015206 27.472316657838405 13.305321483578355 0 0 0
896 2 11.38442262114932 23.33787111110309 4.392581264292585 0 0 0
953 2 24.640787325105837 21.268355599297717 13.443458228704461 0 0 0
1133 2 15.267694872351004 22.707564613413 11.408474675824115 0 0 0
1144 1 22.654184394278776 23.64816521943801 12.263446730314362 0 0 0
1142 2 19.54601792367432 22.55476056904635 4.712518196592623 0 0 0
1143 2 20.952302877401987 22.069584439048114 4.6016357365948375 0 0 0
1139 2 17.431177074745587 30.440787814132335 13.025707139135568 0 0 0
1132 1 15.246844259357747 23.49778892163155 11.917396854114473 0 0 0
816 2 28.779553122069704 31.5531024056306 13.032980245085934 0 0 0
1131 2 12.373624294256514 20.99847933852109 4.953754639274342 0 0 0
769 1 12.69319179876778 19.42938247070615 4.274134661236197 0 0 0
770 2 13.387998986518292 19.45872303928032 3.626272441972852 0 0 0
771 2 12.011410520977574 18.86752485462277 3.9113934384572255 0 0 0
772 1 15.671680930886435 21.173778393538516 10.63512529962829 0 0 0
773 2 14.948390893196878 20.726643391971955 10.181072662520135 0 0 0
774 2 16.432289369379696 21.167614262018375 9.996949106893778 0 0 0
775 1 15.468593520663452 26.29971699840977 4.183779878437521 0 0 0
776 2 15.305410543423294 27.166559048302222 4.574439514478674 0 0 0
777 2 14.534089603340272 25.90688225668506 3.893951435431104 0 0 0
778 1 18.019851288214944 28.140204302915045 10.947328313397142 0 0 0
779 2 17.19999381643152 27.701320243799444 10.747621219171817 0 0 0
780 2 17.868793018871436 29.07953757859477 11.150163725525815 0 0 0
781 1 20.09619358595238 19.24205876202671 4.033380314091874 0 0 0
782 2 19.98511730106682 20.17741033027192 4.124451042178474 0 0 0
783 2 20.525926878949647 18.972213962412773 4.864530772465282 0 0 0
784 1 22.78254693415791 21.259909822225527 10.858886104506114 0 0 0
785 2 22.160000655983392 20.67245583881812 10.405027219735345 0 0 0
786 2 23.2286849640082 20.806415753299095 11.651155898693439 0 0 0
787 1 23.0969512001448 26.375817869083907 4.116412106041252 0 0 0
788 2 22.409747499727647 25.95574386507053 3.562786329113453 0 0 0