LAMMPS data file via write_data, version 15 Apr 2020, timestep = 0

1944 atoms
2 atom types

-2.7556806591262273e-01 4.0257673065911263e+01 xlo xhi
0.0000000000000000e+00 1.9748496155970408e+01 ylo yhi
0.0000000000000000e+00 2.0441926589560104e+01 zlo zhi
-2.6620490249484874e-03 -1.2355068406087355e-02 1.7676798897081625e-02 xy xz yz

Masses

1 16
2 2

Atoms # atomic

491 2 7.4790284817295056e+00 1.5695635702920401e+00 5.6060138251566540e+00 0 1 0
1160 2 1.7322106785336455e+01 1.9623228835051005e+01 4.2264560105486657e+00 0 0 0
90 2 1.2534781518343774e+01 1.2161704993731457e+01 6.2672601079999657e+00 0 0 0
1113 2 7.4128650220720838e+00 1.5626238605247117e+01 9.0969232450241009e+00 0 0 0
1748 2 1.2805190936396478e+00 1.1774555856240307e+01 4.0945281099284845e+00 0 -1 1
466 1 9.5268285207745436e+00 1.9964101482123335e+00 8.0394714703360268e+00 0 1 0
27 2 3.6005029405110638e+00 1.2056230098257403e+01 9.6745603573915382e+00 0 0 0
267 2 1.4044836155832792e+01 1.6289496564840211e+00 9.9090750051985506e+00 0 0 0
23 2 5.9452401717982628e-01 1.2222277101616410e+01 1.0051863627958600e+01 0 -1 -1
1107 2 1.7117040044707521e+00 5.8577743663720101e+00 1.4967353850633245e+00 0 1 1
108 2 1.6302823144983904e+01 1.3453134380369372e+01 9.5342297077254461e+00 0 0 1
535 1 1.4896669979123230e+01 1.1487970716414194e+01 8.4278292278687328e+00 0 0 0
79 1 7.1705226877620412e+00 1.9667627433863171e+01 4.3534779600945104e+00 0 0 0
25 1 3.6152221204443795e+00 1.2673106823587842e+01 8.8865011136633854e+00 0 0 0
723 2 1.1616823994415714e+01 1.6232488041172925e+01 1.7648792651861676e+00 0 0 0
1314 2 7.9985585323825314e-01 3.9926509212496155e+00 3.3424094227839989e+00 0 0 1
1135 1 2.5543208454232915e+00 9.4197980457573482e+00 5.8752668356231097e-01 0 1 0
956 2 1.8278678533919329e+01 1.5462236225377730e+01 8.4541900860619581e+00 0 0 0
1804 1 6.0082831727318489e+00 1.8331446969870150e+01 7.5224921661481359e+00 0 0 1
1312 1 7.8379616306421784e-01 4.6867456557106157e+00 4.0205827777495040e+00 0 0 1
1559 2 1.8137032354778771e+01 1.6396047826614144e+01 4.9097597292874600e+00 0 0 1
457 1 1.6308588526619825e+01 4.9672169760335914e+00 7.1701448137970090e+00 0 1 0
1527 2 6.6863096509428921e+00 1.5424569095817422e+01 5.4035251673604794e+00 0 0 1
1352 2 9.4684173015268893e+00 9.7576822222867126e+00 2.1870959010755029e+00 0 0 1
1136 2 2.3310945133520655e+00 8.4847034247497728e+00 4.0182550692411340e-01 0 1 0
1831 1 9.9960142265637106e+00 4.4448224681345092e+00 2.0826624486461300e+00 0 0 0
1323 2 1.7851319233253728e+00 1.7682291446777494e+01 7.3440810875911486e+00 0 0 0
1158 2 1.0952223333391485e+01 1.3184495414605458e+01 3.7403807579623880e+00 0 0 0
939 2 5.6432742535792695e+00 7.3649685519255348e+00 3.8650466786903959e+00 0 0 0
749 2 1.8915702068157564e+01 4.3675382030382215e+00 4.2041565628677491e+00 0 0 1
1812 2 1.8696286215355126e+01 8.8506062070298750e+00 1.4192207448333698e+00 0 0 1
1599 2 1.3852555884138145e+01 1.2798550239041248e+01 8.3933025076745977e+00 0 0 0
1786 1 3.5306920028712314e+00 1.7902230698816414e+01 3.3508525506045044e+00 0 0 1
1761 2 5.5195176195392097e+00 1.0404283963953834e+01 2.1891135829615944e+00 1 0 1
517 1 1.9449032928700685e+01 1.6953884272898375e+01 5.6876199514541144e+00 0 0 0
1760 2 5.3955569198528659e+00 1.1918372747804822e+01 2.5670651141792753e+00 0 0 1
1330 1 1.4188619044293752e+01 1.0090536888047113e+01 3.7321284807513369e+00 0 0 0
266 2 1.4571265932851272e+01 2.3289814257402677e+00 8.7403450612334215e+00 0 0 0
1620 2 1.4944518661568317e+01 1.5941425389989718e+01 6.1014581197604816e+00 0 -1 0
1359 2 1.0397898237431486e+01 1.1728378532417940e+01 9.2544850994892531e+00 0 0 0
1098 2 1.2114842310181730e+01 6.2717872150589224e+00 1.2777044842963350e+00 0 1 0
1087 1 9.1963588731686641e-03 9.2719672847324333e+00 9.0994855306572244e+00 0 1 0
100 1 1.9770202860516346e+01 2.4456000642550860e-01 5.6874936522451582e+00 0 0 0
106 1 1.5884549679258406e+01 1.4083555906262887e+01 1.0053484103176737e+01 0 0 0
713 2 8.5336489282558503e+00 1.6171206083850890e+01 5.7316445606694302e+00 0 -1 1
1306 1 7.6938397763728839e+00 5.3851141938424520e+00 3.4445480540487603e+00 0 0 1
486 2 7.5069239121791345e+00 1.4716861829953331e+01 2.9212804513816577e+00 0 0 0
1133 2 1.8212368013166522e+01 3.0416704283608906e+00 2.6104608309888033e+00 0 1 0
47 2 5.3167086164197048e+00 1.5466398604144173e+01 7.7122841595569476e+00 0 -1 0
73 1 1.9761709700179118e+01 4.4224589603614133e+00 5.8561543420552313e+00 0 0 0
1803 2 1.2606877096861997e+01 7.8309067174897207e-01 2.3501275504541215e+00 0 1 1
507 2 8.0557687924815120e+00 7.4472541318211549e+00 9.3257442538016253e+00 0 0 1
898 1 4.8598464160742338e+00 1.0444982802981906e+01 6.0072641644500360e+00 0 0 0
662 2 4.9568611493608994e-01 1.6453273424422508e+00 2.6767608445844369e+00 0 0 1
722 2 1.0438092001071736e+01 1.6865508219241200e+01 2.5881122975095323e+00 0 0 0
536 2 1.4962677892573529e+01 1.0684797914083987e+01 7.9364802880130565e+00 0 0 0
1774 1 4.0570946597697608e+00 4.3920222365967015e-01 1.7327042020126024e+00 0 1 1
1561 1 4.6959818129888982e+00 4.1847707249525516e+00 7.2385464628753065e+00 0 1 0
471 2 1.1677337496217316e+01 1.0957787419165609e+01 7.9120602865767635e+00 0 0 -1
1560 2 1.7137920108100687e+01 1.5429594716280304e+01 4.1244322913705167e+00 0 0 1
276 2 1.5473094991006608e+01 9.0786090035377018e+00 1.1644057441894247e+00 0 0 0
680 2 1.1362735487839730e+00 9.5647890241697002e+00 7.6600211310524449e+00 0 0 0
60 2 7.1811272740453025e-01 6.5902472227256652e+00 8.3693272827034733e+00 0 0 -1
50 2 6.8082387277467875e+00 2.0306117069593972e+00 1.8182693772563869e+00 0 0 0
712 1 7.8805648715908561e+00 1.6816134447415301e+01 5.3342579056569077e+00 0 -1 1
1756 1 1.2277333090242559e+01 9.8761205354221797e+00 5.0011304332024731e-01 0 0 1
1543 1 1.7014216744828168e+00 1.2419377165450690e+01 7.0237175423767741e+00 0 0 0
438 2 3.9366217565645547e+00 6.4981795195149239e+00 1.5368420817594108e+00 0 0 0
506 2 7.3714323279444969e+00 7.1083965579970041e+00 7.9638631411559961e+00 0 0 0
1592 2 1.7592412976005356e+01 9.9704484061536611e+00 3.0881127559932380e+00 0 0 1
1537 1 6.7693158528546016e-01 1.6067387186532876e+01 2.2060259779823124e+00 0 0 1
913 1 1.6065805262549084e+01 1.3708570490668288e+01 4.4083014531075895e+00 0 0 0
311 2 1.9374536960629406e+01 7.4680742130825912e+00 6.0647361932498622e+00 0 0 0
11 2 6.6747148020849312e-01 1.9420240570684488e+01 1.8443243076051479e+00 0 -1 0
1326 2 1.5288398064999464e+01 1.7871352645333360e+01 9.4639213289401827e+00 0 0 0
1357 1 9.5691114082605075e+00 1.2237581447286964e+01 9.2456533755075512e+00 0 0 0
1354 1 1.3402508918386840e+00 1.9244537624448707e+01 3.0102570606504442e-01 0 -1 2
1138 1 5.3570489167270603e+00 4.1394305772548190e+00 2.4677234948109676e+00 0 0 1
896 2 1.1873949605493962e+01 7.4733277714914710e+00 3.3252767804801575e+00 0 0 0
710 2 1.8183963325331799e+01 1.9927545890841176e+00 7.6846982760727807e+00 0 0 0
750 2 1.7628930900591932e+01 4.8789498734982084e+00 3.5186918162886709e+00 0 0 1
1137 2 2.9689799833359323e+00 9.4591275900665632e+00 1.4218284140498294e+00 0 1 0
88 1 1.1759496852598501e+01 1.1660997961636118e+01 6.5273699815202075e+00 0 0 0
736 1 1.6575312777942557e+01 1.3212259006459162e+01 7.0032393546101144e+00 0 0 0
1576 1 1.9231333978802052e+01 7.9014697291527449e+00 4.3607055105699493e+00 0 0 1
9 2 2.5696346527278424e-02 1.4206011435889362e+01 9.0839048501907005e+00 0 -1 0
715 1 1.4354720378057220e+01 1.6741940415707170e+01 4.7039964372600185e+00 0 -1 1
726 2 1.3633251833899513e+01 2.7761943603527426e+00 6.9171185022697141e+00 0 0 0
1778 2 1.0015778924695592e+01 7.9263470934865055e-01 4.3155728279469088e+00 0 0 0
873 2 5.2172603481551194e+00 8.4755638580478063e+00 8.2920628200922908e-01 0 0 0
1316 2 1.0400128534006046e+00 1.6299792935316070e+01 8.7335234378930071e+00 0 -1 0
12 2 5.4876599582088026e-01 1.8942814674962491e+01 3.3205157151294826e+00 0 -1 0
1322 2 2.9226829637177802e+00 1.6605534979296124e+01 7.7599591532901071e+00 0 0 1
1591 1 1.7088966962782298e+01 9.9167688092476958e+00 3.9382649647582273e+00 0 0 1
641 2 7.4485881926421305e-02 1.4665683965660126e+01 5.6261888003783911e+00 0 0 0
537 2 1.4894554320462312e+01 1.1228403309711203e+01 9.3787823424466552e+00 0 0 0
709 1 1.8432564586747315e+01 2.2647293069291425e+00 6.7920269743920736e+00 0 0 0
714 2 7.5373496485712064e+00 1.7455180955311928e+01 5.9689121028039294e+00 0 0 1
717 2 1.5124644036686229e+01 1.7347368657395840e+01 4.5703467124837411e+00 0 -1 1
721 1 1.1424974694702826e+01 1.6803859018226163e+01 2.5163238638128722e+00 0 0 0
284 2 1.1344000113307375e+01 3.0577789527355610e+00 5.6910936366256859e+00 0 0 0
665 2 1.7123212417702363e+00 6.5579912776841001e+00 6.1396196884264524e+00 0 0 0
941 2 1.3839496861995052e+01 1.5374834191478332e+01 1.7593644756277331e+00 0 0 1
1139 2 6.0900936751815768e+00 4.7083705300336307e+00 2.7455828689509163e+00 0 0 1
1093 1 1.4889136630513301e+01 5.0913854568314081e+00 1.9732807170643625e+00 0 2 0
58 1 1.7316192754309090e-01 6.6186518546805351e+00 9.1838464745621735e+00 0 0 -1
683 2 3.7835354016973248e+00 1.6184725454502185e+01 3.7661289010752683e+00 0 -1 0
667 1 1.1069017691187084e+00 1.7646733133432612e+01 4.4345016677950122e+00 0 0 0
251 2 8.2788107711828882e+00 1.6608384181605750e+01 3.4278515355021830e+00 0 -1 0
944 2 1.6223447223280946e+01 1.3949348100474952e+01 6.8121949703404835e-02 0 0 1
1111 1 6.9096231797467231e+00 1.5047760320807255e+01 9.7407303617043528e+00 0 0 0
1324 1 1.4622665457019867e+01 1.7723592602844676e+01 8.7887181019537906e+00 0 -1 0
1833 2 1.0773918832912717e+01 5.0813717518138688e+00 2.1069678542621184e+00 0 0 0
1315 1 3.9875669450748064e-01 1.5946057617339079e+01 9.4255532551711987e+00 0 -1 0
1806 2 5.5341912300217215e+00 1.7451483210499951e+01 7.7049333149247010e+00 0 0 1
1345 1 7.4544367921586341e+00 2.9346618119375352e+00 2.2811865894932906e-01 0 0 1
492 2 7.5342150056359962e+00 3.0886242899342204e+00 6.2195398822260612e+00 0 1 0
31 1 2.5386657285651770e+00 1.6818882252355504e+01 2.6356967570254602e-01 0 -1 0
531 2 1.3044686969405090e+01 1.0568252943452691e+01 9.9543479993463713e+00 0 1 -1
59 2 8.1971500749514647e-02 7.5513841222212230e+00 9.3863473988722621e+00 0 0 -1
742 1 9.3083180734188904e+00 1.8939045122235346e+01 7.0756259558369319e+00 0 -1 0
1826 2 1.7695848817588562e+01 1.7610039367972487e+01 1.4680492130731928e+00 0 0 1
1747 1 3.6255750583451640e-01 1.1482467865871476e+01 3.9399863183421227e+00 0 0 1
1562 2 5.0332340793698611e+00 3.2775630954288912e+00 7.5016152975004875e+00 0 1 0
483 2 1.1718918605585028e+01 1.4068960508554103e+01 8.4711552630641176e+00 0 0 0
1525 1 6.0034053152646658e+00 1.4710425160396648e+01 5.3627574221737042e+00 0 0 1
64 1 1.6590854384266510e+01 6.6282924924263282e+00 3.1138695841907298e+00 0 0 -1
900 2 5.6234437502715409e+00 1.0321753669833337e+01 5.3785062160222106e+00 0 0 0
485 2 6.5887503975910038e+00 1.3653842831770231e+01 3.5022724573919493e+00 0 0 0
443 2 4.3520586032018898e+00 4.5332748729764036e+00 3.8109350230155083e+00 0 1 0
971 2 8.8517885321157497e+00 1.1755658742304135e+01 7.4313275707383903e+00 0 0 0
920 2 1.1138444719472024e-01 1.5917719853144137e+00 5.2502117848599736e+00 0 1 0
292 1 1.8958201903985486e+01 1.1203221497976250e+01 5.4014352897000535e+00 0 -1 -1
436 1 4.7075271621107406e+00 7.1595124057760913e+00 1.5046941240636567e+00 0 0 0
274 1 1.5028956525621211e+01 8.2220970786676784e+00 1.0795324989097359e+00 0 0 0
229 1 1.7948279628370516e+00 1.4730842220692891e+01 5.7733724761825069e+00 0 0 0
446 2 7.1056973393324832e+00 5.1583032139673044e+00 4.9404844136500642e-01 0 0 -1
26 2 2.9148266916356111e+00 1.2281348404410897e+01 8.2841377804393090e+00 0 0 0
1551 2 1.7592477172338899e+01 1.3491902383843541e+01 1.7314943296612775e+00 0 0 1
685 1 3.2091333999893248e+00 9.1178413815011208e+00 3.2304196912691356e+00 0 1 0
75 2 1.9630357512276838e+01 5.2425004774435884e+00 6.3946951972151469e+00 0 0 0
269 2 1.8824597592316227e+01 1.3881277285415988e+01 3.8043414833945968e+00 0 0 0
1764 2 2.0843176276405134e-01 7.4471307934748951e+00 2.2403962638100596e+00 0 1 0
1096 1 1.2176757475888220e+01 6.1578533115513867e+00 2.2414179843076898e+00 0 1 0
1185 2 4.9520743450453910e+00 1.3492024930450683e+00 8.2457155786597234e+00 0 0 0
753 2 1.1992434176922169e+01 1.8184229311300982e+01 2.1619721481081347e+00 0 0 0
743 2 9.4333168308436779e+00 1.9304598527372598e+01 6.1920503204710764e+00 0 -1 0
684 2 3.0549757650460267e+00 1.5079695011454628e+01 4.6925054652448139e+00 0 -1 0
1809 2 1.9194761012689852e+01 1.6415675408457275e+01 2.9610463456700825e-01 0 0 1
1540 1 2.7012303179330655e+00 2.5645649267834902e+00 7.2440101546118629e-01 0 0 1
748 1 1.8462450583697066e+01 4.4465011658226574e+00 3.3426237203888527e+00 0 0 1
7 1 -1.5671237732914234e-01 1.3317572882940544e+01 8.7413395467814450e+00 0 -1 0
1100 2 9.3174646660707907e+00 2.8800532232656546e+00 9.5273947954115261e+00 0 0 0
225 2 3.8501830308485223e+00 1.0708094407879138e+00 4.6242703447788562e+00 0 1 0
1396 1 1.8565555703660252e+01 1.0355090815055878e+01 8.0711943325562157e+00 0 -1 1
484 1 7.0600937619634516e+00 1.3893114734326875e+01 2.7199002087971418e+00 0 0 0
1759 1 5.9271701721040264e+00 1.1081651881501195e+01 2.7557097744528547e+00 0 0 1
258 2 8.1129551220814875e+00 1.3071624508964215e+01 1.8209063023163554e+00 0 0 1
442 1 3.8931258330710099e+00 4.8967175204216185e+00 4.6522355168236018e+00 0 1 0
217 1 1.0693997534075471e+01 7.9409167319164977e+00 8.6184223676279110e+00 0 0 -1
1807 1 1.9014338030799930e+01 1.5609148038689195e+01 8.1503125150112465e-01 0 0 1
250 1 8.6811900132356641e+00 1.6139307470215105e+01 2.6971020965759669e+00 0 -1 0
1556 2 6.0397310819627172e+00 1.4236972360831070e+01 7.7211621358186411e-01 0 0 1
293 2 1.8185984658355089e+01 1.0819524356424154e+01 4.9259659559652409e+00 0 -1 -1
716 2 1.4285931865529497e+01 1.6272653678216592e+01 3.7993331168807742e+00 0 -1 1
468 2 1.0389710510067921e+01 2.1996481370256840e+00 7.5924879372856173e+00 0 1 1
891 2 3.9253852277606107e+00 1.4137761539004670e+01 2.7801893936309177e+00 0 0 0
1755 2 2.2082417692015699e-01 3.0889756226443983e+00 8.9700865424529148e+00 0 1 -1
1159 1 1.8057685608594014e+01 1.0999669376323071e-01 3.6126851511802540e+00 0 1 0
1526 2 5.2244578197367382e+00 1.5151730505382746e+01 4.9958391667260873e+00 0 0 1
686 2 3.3481125156731388e+00 1.0046481669853826e+01 3.6157823248516157e+00 0 1 0
940 1 1.4198202564874350e+01 1.5023127597841363e+01 2.5644730620482377e+00 0 0 1
481 1 1.0900483963661349e+01 1.4623957684800539e+01 8.5011532011672521e+00 0 0 0
744 2 9.1650664396528096e+00 1.9749374235932301e+01 7.6219837561240338e+00 0 -1 0
1825 1 1.7118595547802393e+01 1.7796392729002534e+01 2.1996070570510278e+00 0 0 1
912 2 7.6811548263727794e+00 1.1091711193279368e+01 5.5128838771512889e+00 0 0 0
1121 2 1.0887996572522185e+01 6.5156385705833486e-02 7.1071989509835576e-01 0 1 0
291 2 1.0851646457756278e+01 1.2461013759698409e+00 9.7763094911875594e+00 0 0 -1
922 1 1.2569912358561405e+01 7.2619761338150832e+00 6.3644752091608607e+00 0 -1 0
302 2 1.8086996700096151e+01 1.6044022557885709e+00 1.0040600039348641e+01 0 0 -1
304 1 9.5376606096324554e+00 1.4678259418062513e+01 6.2213712640766579e+00 0 0 1
234 2 1.1469520513361948e+01 1.8058189939998009e+01 6.2156529792880084e+00 0 0 -1
94 1 3.0836128594568395e+00 1.1656911621493528e+01 4.4037740863077053e+00 0 0 0
919 1 1.0454436414602830e+00 1.7095835207921097e+00 5.4943921582172468e+00 0 1 0
526 1 1.3603690476441988e+01 1.2148345476119809e+01 2.1145039379765964e+00 0 0 0
933 2 1.4385524781446939e+01 1.3733775055428081e+01 5.1568110040992750e+00 0 0 0
1309 1 1.9025579240922916e+01 1.4199243470094173e+01 7.2503048919709512e+00 0 0 0
669 2 3.3254995569486834e-01 1.7800413717482240e+01 5.1238721354521886e+00 0 0 0
230 2 1.8092331625487890e+00 1.3870339462408207e+01 6.2179582669725955e+00 0 0 0
141 2 1.9925745266124437e+01 2.1963276458028274e+00 1.9833724795528898e+00 0 0 0
437 2 5.5247161623555732e+00 6.6069248027839995e+00 1.2826911777826457e+00 0 0 0
10 1 2.0807091100308589e-01 1.9619029758853280e+01 2.6825425552883533e+00 0 -1 0
1776 2 3.6025581703541936e+00 1.9396238559332545e+01 1.9923956306921227e+00 0 0 1
1310 2 1.9665733854260953e+01 1.3681128758368844e+01 7.8514564711645489e+00 0 0 0
455 2 1.2346110468924998e+00 1.3443970168047803e-01 6.4370156966927503e+00 0 1 0
666 2 2.7999062406982262e+00 6.1853762472766007e+00 7.2135469762264268e+00 0 0 0
290 2 1.2077344233507850e+01 2.2128001276187268e+00 9.9339948642612175e+00 0 0 -1
1303 1 4.9243673049797314e+00 1.6416922151706487e+01 1.3426937610230232e+00 0 -1 1
893 2 1.3977485706450405e+00 4.2373312163334855e+00 7.1624596423507576e+00 0 0 0
1519 1 1.0594660811379994e+01 5.3735013446911699e+00 7.6052430448818926e+00 0 0 1
19 1 1.5127591216101808e+00 7.9901091132424176e+00 4.8820927666350293e+00 0 0 0
952 1 1.2473294684263195e+01 1.5322014147552325e+01 3.5263837405650372e-01 0 0 1
496 1 1.2370461938195943e+01 4.1465434774579126e+00 9.7498160217604095e+00 0 0 -1
456 2 7.8194421597933195e-01 1.9626936193964543e+01 7.9724252037434455e+00 0 0 0
467 2 8.8403430018070335e+00 2.0756237632098045e+00 7.3578913616952768e+00 0 1 0
970 1 8.2312643364178246e+00 1.2016135357708919e+01 6.7566521732599520e+00 0 0 0
1383 2 1.6801254942257330e+01 7.5672221662315735e+00 9.2540313512112586e+00 0 0 0
489 2 1.5552012524149056e+01 2.6600083822988072e+00 3.5830982403323151e+00 0 1 -1
1134 2 1.8217427519867059e+01 1.4468199702442042e+00 2.4952956230251053e+00 0 1 0
1598 2 1.3814262920294839e+01 1.4165293073061441e+01 7.7765583436950907e+00 0 0 0
661 1 5.5031496170786975e-01 2.5344079006452152e+00 2.2709203601956145e+00 0 0 1
80 2 8.0537229907903622e+00 1.9269023226628160e+01 4.2941683935341723e+00 0 0 0
283 1 1.1780883041479832e+01 3.1787202075876055e+00 6.5254562187218959e+00 0 0 0
895 1 1.1943293164906160e+01 8.2125463019672775e+00 3.9761270825162436e+00 0 0 0
76 1 1.6414019984000966e+01 2.8525854932314609e+00 5.2281853006912469e+00 0 0 0
1351 1 8.9127632634243827e+00 9.6894232426893758e+00 1.3604368804978895e+00 0 0 1
445 1 6.9054261151544560e+00 6.0679930049859916e+00 2.6569818943279266e-01 0 0 -1
1539 2 4.9463933044678632e-01 1.5113728240132867e+01 2.2923624110517498e+00 0 0 0
458 2 1.6980155680646124e+01 4.9398460544875258e+00 7.8568409476334269e+00 0 1 0
874 1 6.2251176340127286e+00 9.9789424019487392e+00 8.3053968689678364e+00 0 0 0
914 2 1.6331061747628336e+01 1.3476458694047016e+01 5.3136073209879626e+00 0 0 0
223 1 3.2040677231677472e+00 1.5144567835089919e+00 4.0448210411131624e+00 0 1 0
699 2 1.5458163971190480e+01 1.8006113462774543e+01 1.3301334430002147e+00 0 0 1
1184 2 6.3879150517072008e+00 1.9131853756778323e+00 7.5572626352660324e+00 0 0 0
257 2 9.6171830310114306e+00 1.2745494417735912e+01 1.6653871318608977e+00 0 0 1
738 2 1.7447356653056858e+01 1.3273603202085539e+01 7.4049344495061922e+00 0 0 0
682 1 3.7520579528404641e+00 1.5242230946814114e+01 4.0286745326633211e+00 0 -1 0
1353 2 8.7080220456208650e+00 1.0593196583844923e+01 1.2032751475754890e+00 0 0 1
1549 1 1.7951233122186213e+01 1.2732121711279371e+01 2.3397453843635296e+00 0 0 1
51 2 5.6042593977102007e+00 1.1009176033158277e+00 2.1007034723663285e+00 0 0 0
728 2 1.7573520605519928e+01 1.8890483512720557e+01 9.7392083359387094e+00 0 -1 0
687 2 3.9697642370655783e+00 8.5516992970024450e+00 3.5399914934753087e+00 0 1 0
737 2 1.5971719766441218e+01 1.2667907776482171e+01 7.5234468202474662e+00 0 0 0
102 2 1.9097824429377223e+01 1.7629947411978739e-01 4.9721827390993303e+00 0 1 0
673 1 3.1702762060409144e+00 4.6368129006292307e+00 9.6273753236031450e+00 0 -1 0
1520 2 1.0372799868590915e+01 6.2172624480547825e+00 8.1786374586339221e+00 0 0 1
1127 2 5.9979336072333123e+00 6.9434180840637474e+00 6.4017170936919356e+00 0 1 1
751 1 1.2319778152695639e+01 1.9060413112637050e+01 1.7746786580205163e+00 0 0 0
752 2 1.3228167643212906e+01 1.8855803697158002e+01 1.3765235732343852e+00 0 0 0
472 1 7.5048836314997507e+00 8.0797161987009130e+00 3.3198494619869470e+00 0 1 0
871 1 5.5581796218654311e+00 9.3830292634334711e+00 6.2322590226039476e-01 0 0 0
1366 1 1.5988490958573113e+01 1.0862746455356048e+01 9.5269376243198800e-01 0 0 1
1732 1 1.3896976155849311e+01 5.6100386323686360e+00 7.9446510075996262e+00 0 1 0
668 2 8.8705567909818694e-01 1.6877605334847871e+01 3.8552438713491952e+00 0 0 0
1155 2 1.8222742260109534e+01 1.1839179979504053e+01 8.9759293350778258e+00 0 1 0
268 1 1.9283283675792628e+01 1.3703687852535547e+01 4.6495779964100370e+00 0 0 0
306 2 1.0031194327362346e+01 1.4766233422905071e+01 7.0911064296075459e+00 0 0 1
1208 2 1.9966659190622870e+01 1.9455324997343013e+01 8.3230310246039103e+00 0 0 0
1544 2 1.5437080347419614e+00 1.1517033766598441e+01 6.6848111640293144e+00 0 0 0
931 1 1.3491371253098579e+01 1.3507112794403431e+01 5.4972588886949474e+00 0 0 0
497 2 1.1485695521552874e+01 4.5400946605449759e+00 9.6940140914642434e+00 0 0 -1
677 2 1.7192915132039549e-01 1.0069701224261442e+01 2.9701525007383931e+00 0 0 0
1332 2 1.3477990926418721e+01 9.4183629828302493e+00 3.6910103529272442e+00 0 0 0
52 1 1.9759584018583047e+00 1.3020955697977023e+01 2.3105781734661937e-01 0 -1 0
1125 2 1.5489174094632174e+01 1.9283397489504715e+01 6.0269844579676972e+00 0 0 0
488 2 1.4220689847630053e+01 2.2325332143690950e+00 2.8128300883584769e+00 0 1 -1
1183 1 5.7081048488923001e+00 2.0304106242224322e+00 8.3046171526298735e+00 0 0 0
462 2 3.5357296085335417e+00 1.9381347136727197e+01 9.2593485048132980e+00 0 0 0
77 2 1.7260188675351813e+01 2.5871842498776174e+00 5.6193180127847269e+00 0 0 0
270 2 1.9115668350915399e+01 1.2746346689656249e+01 4.7916945316381829e+00 0 0 0
959 2 1.6523895109560506e+01 6.4633379641353850e+00 6.1576618496898172e+00 0 1 0
890 2 3.2208006203027657e+00 1.3032022632284853e+01 1.7394673901057445e+00 0 0 0
1733 2 1.4676519842287748e+01 5.0594128042639142e+00 7.7396514005771744e+00 0 1 0
1325 2 1.4954681831542588e+01 1.6934962174121125e+01 8.2134522433574730e+00 0 -1 0
1554 2 1.0735740773349237e+01 9.2899192400222503e+00 4.1184601047993290e+00 0 0 1
231 2 1.8862290596301778e+00 1.5430105724270668e+01 6.4700679846568017e+00 0 0 0
1811 2 1.9706052675810369e+01 9.8551218858547056e+00 1.9311070194185915e+00 0 0 1
1832 2 9.8238861156125008e+00 4.2870533528244303e+00 1.1244676357991239e+00 0 0 0
1161 2 1.8052589623909089e+01 1.9168296627174229e+01 2.9577772540345539e+00 0 0 0
955 1 1.7882274840196878e+01 1.6093039753678053e+01 9.1201818497934788e+00 0 0 0
1815 2 1.8222145000711567e+01 6.6012927044210548e+00 6.3902527892291949e-01 0 1 1
1577 2 1.8419703054273114e+01 8.4385917482254431e+00 4.4097185476675866e+00 0 0 1
1558 1 1.7402797567668657e+01 1.6310074128514110e+01 4.2409455847865738e+00 0 0 1
943 1 1.6544058918920946e+01 1.4295949589905083e+01 8.9473457736139272e-01 0 0 1
932 2 1.2831764834973503e+01 1.3819941253285922e+01 4.8016757879795691e+00 0 0 0
1535 2 7.7627959346249078e+00 5.4077377773536721e+00 6.4345644663841686e+00 0 -1 0
1181 2 1.9206338849012035e+01 4.6892517688962174e+00 8.9232675991147268e+00 0 1 0
1827 2 1.7209418020326339e+01 1.7118785662328413e+01 2.9300210199742511e+00 0 0 0
473 2 7.5300789460386213e+00 8.6808573027341289e+00 2.5745053591355456e+00 0 1 0
452 2 4.6335669902040006e+00 9.3895227430903798e+00 8.8930566440004721e+00 0 0 -1
1321 1 1.9899459878808043e+00 1.6735614158419516e+01 7.5624739958974523e+00 0 0 1
1350 2 5.1409216892335197e+00 1.9182191885475802e+01 6.2908418664770034e+00 0 -1 0
301 1 1.7492168210973119e+01 1.9245906081050919e+00 9.3611816286059870e+00 0 0 -1
1521 2 9.7641682467219137e+00 5.1515940888756990e+00 7.1525561454289770e+00 0 0 1
1313 2 5.1275324466954975e-01 5.4865781007628955e+00 3.5295143746704420e+00 0 0 1
1584 2 8.1179036555810633e+00 1.1728147963327235e+01 9.9430308909771714e+00 0 0 0
96 2 3.4758995457731388e+00 1.1572082967677781e+01 5.2560000139847824e+00 0 0 0
1536 2 8.2789427880506814e+00 4.7630693003522850e+00 5.1161025184462181e+00 0 -1 0
921 2 1.6425078946706591e+00 1.7735537353349073e+00 4.7029447135957794e+00 0 1 0
958 1 1.6570280748802766e+01 7.2116498247410696e+00 5.6034974118295287e+00 0 1 0
490 1 7.6088027236871207e+00 2.1235348204169684e+00 6.4084657965633181e+00 0 1 0
81 2 6.9889524079062886e+00 5.0172050275381519e-01 3.5412852929551057e+00 0 1 0
698 2 1.5320968730615636e+01 1.9400430202658367e+01 6.6240558833106977e-01 0 0 1
897 2 1.2071563156473074e+01 7.8849370827916614e+00 4.8831825604476702e+00 1 0 0
454 1 1.3620680269753120e+00 1.9316733359230575e+01 7.2201420459971057e+00 0 0 0
734 2 1.8827939598295629e+01 1.8051142255454376e+01 7.0440076222439876e+00 0 0 0
1805 2 6.2786374746993339e+00 1.8679382751980203e+01 8.3599118953753635e+00 0 0 1
894 2 1.4572644189609627e+00 2.7263987637968645e+00 6.8279000152890532e+00 0 0 0
1813 1 1.8524271016431634e+01 6.8969563887121046e+00 1.5347101287479863e+00 0 1 1
294 2 1.8945561135050951e+01 1.0954265013706738e+01 6.3632671836864265e+00 0 -1 -1
55 1 1.1982743949594855e+01 1.6706953731333645e+01 9.9281973515420798e+00 0 0 -1
1734 2 1.3295657864735558e+01 5.0498490129572673e+00 8.5179662780115457e+00 0 1 0
1578 2 1.9025186367430603e+01 7.0608026853843677e+00 3.9442462300080425e+00 0 0 1
1801 1 1.2735274945341851e+01 1.7190851611183104e+00 2.6806479118563304e+00 0 1 1
1829 2 1.3303967712481262e+01 1.9024837088431834e+01 6.4189335051636567e+00 0 -1 0
1106 2 2.7066036679560113e+00 4.6332022156465982e+00 1.4722771640461847e+00 0 1 1
469 1 1.1523880235379911e+01 1.0522379336419656e+01 8.8176868122005221e+00 0 0 -1
482 2 1.1139322777340700e+01 1.5388805797275111e+01 8.9969743654412948e+00 0 0 0
78 2 1.5674973930794891e+01 2.6057305053818722e+00 5.8796999884870917e+00 0 0 0
1777 1 9.8426741796064778e+00 1.9599890651057400e+01 4.3770943693845386e+00 0 0 0
66 2 1.5891807148938184e+01 6.0958548578102665e+00 2.6591758515776789e+00 0 0 -1
1830 2 1.4243231163652540e+01 1.8780576909923198e+01 7.6537196625545221e+00 0 -1 0
236 2 1.1502480239408390e+01 1.5557101946424563e+01 3.8111847304502611e+00 0 0 0
314 2 5.8476856869422171e+00 1.3716709098127751e+01 6.7723162290389221e+00 0 0 0
233 2 1.2582581844144313e+01 1.7654602446774376e+01 5.1474717265247145e+00 0 0 -1
1398 2 1.8090655081826100e+01 9.5322856071718043e+00 8.3683925533721091e+00 0 -1 1
1140 2 5.6445002015729626e+00 3.2621072035196725e+00 2.3977987994092280e+00 0 0 1
1153 1 1.7986479290239163e+01 1.2455888648242512e+01 9.6769330730035037e+00 0 1 0
1545 2 1.0202385330793775e+00 1.2733448437201488e+01 7.6322491090222755e+00 1 0 0
733 1 1.8093045954141108e+01 1.8291603206571619e+01 7.6498719324538715e+00 0 0 0
1331 2 1.3920369830952987e+01 1.0858116611065975e+01 3.2033906314368537e+00 0 0 0
48 2 4.3012979010396162e+00 1.5659249936828743e+01 8.8904621323432131e+00 0 -1 0
232 1 1.2036743811592508e+01 1.8365732570867721e+01 5.5038401576946825e+00 0 0 -1
226 1 5.6134317968652425e-03 1.3163094390367046e+01 1.9930829917163901e+00 0 0 0
1180 1 1.8260994125480583e+01 4.6345812566799598e+00 9.0549606994343641e+00 0 1 0
942 2 1.5098913608265196e+01 1.5034323391498534e+01 2.3556331848046645e+00 0 0 1
889 1 3.9928409148771022e+00 1.3231589097102555e+01 2.2854402483971739e+00 0 0 0
46 1 4.6396777229246604e+00 1.6042135894004520e+01 8.0266439342771090e+00 0 -1 0
89 2 1.1187483270912033e+01 1.1480867628029340e+01 5.7550229260502865e+00 0 0 0
1123 1 1.6301572867348202e+01 1.9264980844438913e+01 5.4945611238849770e+00 0 0 0
1305 2 5.7372356504820177e+00 1.6617238674107746e+01 8.5927693389629867e-01 0 -1 1
1617 2 3.0799769030706075e+00 1.5520894636254527e+00 9.7523669699089250e+00 0 1 0
21 2 5.7440002780420540e-01 7.8509841069772390e+00 4.8350682956471207e+00 0 0 0
1534 1 8.2878748464266874e+00 4.6189680057476092e+00 6.1102550287211876e+00 0 -1 0
681 2 1.7298487497999679e+00 8.9124836773663052e+00 6.3972407899046022e+00 0 0 0
444 2 2.9464027927338581e+00 4.8806141436283488e+00 4.4721877928575555e+00 0 1 0
875 2 6.5026686417131705e+00 1.0556430529461881e+01 9.0680253266644133e+00 0 0 0
305 2 9.1341242610784885e+00 1.3815751950075327e+01 6.3781146515056912e+00 0 0 1
1112 2 6.4667454669345341e+00 1.4265004695006640e+01 9.2608341187251657e+00 0 0 0
303 2 1.6555667723887794e+01 1.9620672239902370e+00 9.7038423303306960e+00 0 0 -1
1618 1 1.5214793308841081e+01 1.5726899785240800e+01 7.0891699073331411e+00 0 -1 0
972 2 7.3793139453163308e+00 1.2316946358372753e+01 7.2442064656025895e+00 0 0 0
739 1 7.2518426036222454e+00 1.7127734694634366e+01 3.0393788406968553e-01 0 0 1
938 2 4.4468223172635604e+00 6.7244411649891269e+00 4.5564680358985354e+00 0 0 0
1775 2 3.3351863019302814e+00 8.4270700102897611e-01 1.2069321269864715e+00 0 1 1
911 2 6.9897338976094989e+00 1.0868715189491134e+01 4.0853061765696808e+00 0 0 0
1758 2 1.2600862515684561e+01 8.9724170416473132e+00 6.3887272161242836e-01 0 0 1
453 2 3.2714568376443780e+00 9.2267224552326077e+00 8.0629193507939991e+00 0 -1 -1
1157 2 1.0781532112557494e+01 1.1656075321927220e+01 3.2920936772842322e+00 0 0 0
724 1 1.4460674980710285e+01 2.2839947084182057e+00 7.0907787886020115e+00 0 0 0
65 2 1.6280231569406176e+01 6.8684926992722923e+00 4.0402133501284618e+00 0 0 -1
1128 2 5.5627703892509670e+00 5.6571829211870375e+00 7.1459619762851823e+00 0 1 1
527 2 1.2777535999206686e+01 1.2510257290226420e+01 2.5670434084769549e+00 0 0 0
924 2 1.3010717456220458e+01 6.4034108183991298e+00 6.5971468946874934e+00 0 -1 0
1395 2 1.0380007767364456e+01 3.1929459844287305e+00 3.6849110900847988e+00 0 0 0
30 2 3.4354625385084461e+00 1.4260753027177104e+01 9.7583503862863505e+00 0 -1 0
312 2 1.8594147519617433e+01 7.2660386052794372e+00 7.3825091261440123e+00 0 0 0
1563 2 4.4858062847065323e+00 4.1979937442613924e+00 6.2964405602364630e+00 0 1 0
315 2 5.1463308410767308e+00 1.2914851268033026e+01 7.8658702324673353e+00 0 0 0
1828 1 1.4077720709588098e+01 1.9394326800354580e+01 6.8927868721216257e+00 0 -1 0
697 1 1.4829357870090172e+01 1.8517012613091445e+01 8.1428437766400918e-01 0 0 1
49 1 6.3291674338262691e+00 1.6313537359137793e+00 2.5157343649555419e+00 0 0 0
1749 2 -2.1121134883036180e-01 1.1555090648080206e+01 4.7290780059019308e+00 0 0 1