LAMMPS data file via write_data, version 15 Apr 2020, timestep = 200000

972 atoms
2 atom types

1.2807817901951069e-01 1.9862974820981240e+01 xlo xhi
5.7547674409581973e-02 1.9933505325591977e+01 ylo yhi
2.5173370061843414e-01 2.0549038299381543e+01 zlo zhi
2.8670197122350011e-01 -1.0275378808069321e-01 1.7577860020203986e-01 xy xz yz

Masses

1 16
2 2

Atoms # atomic

4 1 3.9119387995450294e+00 1.0545588367488756e+00 3.7424083234226861e+00 0 0 0
5 2 3.9746861932586910e+00 2.0605647344495832e+00 3.5434166281227299e+00 0 0 0
6 2 3.0857658386079438e+00 9.1784374707358896e-01 4.2767352245555745e+00 0 0 0
7 1 6.1280979434869751e+00 4.5923251460946011e+00 6.0111876097901007e+00 0 0 0
8 2 6.9091156384270551e+00 4.3444391164217437e+00 5.4329371149800396e+00 0 0 0
9 2 5.4335794072634949e+00 4.4427517020102920e+00 5.3477681441087555e+00 0 0 0
10 1 1.4804736014848539e+00 3.9597342879072031e+00 4.1901454440480723e+00 0 0 0
141 2 4.0112914862422211e-01 8.5875472175518368e+00 1.8994524171837555e+00 0 0 0
12 2 1.1987435647604840e+00 4.5367145149260200e+00 3.4482670209633643e+00 0 0 0
13 1 4.6780171395385102e+00 6.1798618815864916e+00 1.6630663858744286e+00 0 0 0
14 2 4.4506240085707711e+00 6.9026039860219575e+00 2.3249440751547423e+00 0 0 0
15 2 3.8760123808570879e+00 5.9731004187880732e+00 1.1650936674606207e+00 0 0 0
16 1 4.0469370749276639e+00 3.7578268451233661e+00 3.7460700281154597e+00 0 0 0
17 2 4.3511057465726344e+00 4.3482005504997261e+00 3.0115388021372844e+00 0 0 0
18 2 3.1342947853827905e+00 3.9836656625274700e+00 4.0603220042063768e+00 0 0 0
1 1 2.7622561323543251e+00 2.2913776813076754e+00 2.8194125070059317e-01 0 0 0
20 2 1.0764877464871405e+00 6.4700823164891643e+00 2.3007046298955944e+00 0 0 0
22 1 1.9890383338465121e+00 7.0667226757134560e-01 5.4481865227555604e+00 0 0 0
23 2 1.0455310402983788e+00 6.1523439595349350e-01 5.3832428352689581e+00 0 0 0
24 2 2.1902131569699490e+00 1.4619955789669008e+00 6.0290394689387572e+00 0 0 0
25 1 2.9910818820587450e+00 5.3536981350412365e+00 6.7331244336595875e+00 0 0 0
26 2 2.7228261270711225e+00 6.0682762852941527e+00 6.0494727438330340e+00 0 0 0
27 2 3.8916512324010042e+00 5.6423144644166037e+00 7.0120547694993194e+00 0 0 0
28 1 6.1247637148632466e+00 4.6802762620588995e-01 5.5017053028074701e+00 0 0 0
29 2 5.4364823050403421e+00 6.2168368440099830e-01 4.8274589816811924e+00 0 0 0
30 2 6.3432503067136707e+00 1.9386677098716611e+01 5.6799229094897274e+00 0 0 0
31 1 9.2244929302241863e-01 2.0269853230420960e+00 2.3467663299904662e+00 0 0 0
210 2 4.9454311021787328e-01 7.6930420072461212e+00 5.3446785622293120e+00 0 0 0
33 2 1.0078360097246719e+00 2.3835988738922089e+00 3.2227486573835527e+00 0 0 0
544 1 4.4361418939727590e+00 1.4495133221994680e+01 1.0397966962378362e+01 0 0 0
35 2 6.0367706651218702e+00 2.5652433320854700e+00 1.4420211490281176e+00 0 0 0
46 1 7.9736784325598515e+00 3.8692968905977292e+00 3.9004486995334484e+00 0 0 0
47 2 8.9019254131272039e+00 3.9129768281894788e+00 4.2653697639107611e+00 0 0 0
48 2 7.7511531378570995e+00 4.7762059599639253e+00 3.4485552252654221e+00 0 0 0
55 1 7.2260719988121878e+00 5.9198442763687167e+00 2.3857549788422450e+00 0 0 0
56 2 7.3835025398605580e+00 6.8463913809067565e+00 2.6119768314785690e+00 0 0 0
57 2 6.2915222229460745e+00 5.9832834232099961e+00 2.1469289701553143e+00 0 0 0
58 1 8.7561491980029604e+00 9.1356129704330136e-01 5.3770634778335786e+00 0 0 0
59 2 9.1269441374912006e+00 1.1332562299800362e+00 4.4799011299546869e+00 0 0 0
60 2 7.7827388093728382e+00 8.0624614485995516e-01 5.2500703109700604e+00 0 0 0
61 1 9.1598649702340964e+00 5.3520863456374927e+00 6.7753016170070115e+00 0 0 0
62 2 9.2599807627574524e+00 4.3822929656960667e+00 6.5304734042025023e+00 0 0 0
63 2 8.5244767916259327e+00 5.3411952143237897e+00 7.5366850679025115e+00 0 0 0
67 1 7.3636620760780609e+00 1.7873950286986338e+00 2.3323525276247392e+00 0 0 0
68 2 7.7049272187049258e+00 2.2842385188587184e+00 3.1038792310011907e+00 0 0 0
69 2 8.1590370677875832e+00 1.7880288781430214e+00 1.7293863663768363e+00 0 0 0
111 2 2.5895167462695965e+00 8.7933664383388521e+00 1.2480379244098598e+00 0 0 0
11 2 9.1169047482659282e-01 4.1232429448657211e+00 4.9535164707822208e+00 0 0 0
711 2 7.9468371384839314e+00 5.6068288517500617e+00 7.3052934442353679e-01 0 0 0
112 1 4.1725371517619267e+00 8.1484835163924920e+00 3.3318658553277420e+00 0 0 0
113 2 4.8957052445438132e+00 7.8853143015684202e+00 3.9371798654512515e+00 0 0 0
114 2 4.1240660002530563e+00 9.1081548120117954e+00 3.4831909486851051e+00 0 0 0
115 1 6.4113314075936074e+00 1.1423914052488360e+01 5.6207158249712794e+00 0 0 0
116 2 6.3395497014719409e+00 1.2398172834275632e+01 5.7991365824678240e+00 0 0 0
117 2 6.1559260351570471e+00 1.0937615698149477e+01 6.4073526822650066e+00 0 0 0
118 1 1.6884638191052455e+00 1.0507417474811978e+01 4.1298220976810125e+00 0 0 0
328 1 4.0956204603358106e+00 1.1081014076394597e+00 1.0049008432016205e+01 0 0 0
120 2 2.5455508779040326e+00 1.0953272191310267e+01 4.2410896565370919e+00 0 0 0
121 1 4.8366376076980515e+00 1.2503184745321693e+01 1.8438636477149923e+00 0 0 0
122 2 5.7458136606212431e+00 1.2304675730333260e+01 1.6595591653653210e+00 0 0 0
123 2 4.3003528864624050e+00 1.2047747383952979e+01 1.1483127336042163e+00 0 0 0
124 1 4.2966546137074628e+00 1.0722228719049802e+01 3.9240294435777971e+00 0 0 0
125 2 4.4281234505204576e+00 1.1356712140684104e+01 3.1486843524946511e+00 0 0 0
126 2 4.9554016678966857e+00 1.1013471465113192e+01 4.6034079726346802e+00 0 0 0
127 1 7.8847472145467601e-01 1.2265841140178495e+01 2.0572294552195993e+00 0 0 0
128 2 1.4173716108128060e+00 1.1899820790472271e+01 1.4067009398795796e+00 0 0 0
129 2 8.0687004054569433e-01 1.1611252211973268e+01 2.7607208052658887e+00 0 0 0
130 1 2.3182498983802868e+00 7.8261841074549316e+00 5.6193350401654261e+00 0 0 0
131 2 2.7657729102529429e+00 8.0206860128953608e+00 4.8454944305790626e+00 0 0 0
132 2 2.4193871076110902e+00 8.6433113286093111e+00 6.1429141300555736e+00 0 0 0
133 1 2.5705161022032543e+00 1.2291465032130825e+01 7.0726684052372635e+00 0 0 0
134 2 1.7320425986199708e+00 1.2516401006893211e+01 7.4383718593732526e+00 0 0 0
135 2 2.5654822817526148e+00 1.2761167319742865e+01 6.1848383887979974e+00 0 0 0
136 1 6.0396131464205078e+00 7.4841314705274149e+00 5.5038784918707684e+00 0 0 0
137 2 6.0341539002179880e+00 6.5389535002631360e+00 5.7755797108551796e+00 0 0 0
138 2 6.9716046303276729e+00 7.6053186989790635e+00 5.2928703169548728e+00 0 0 0
139 1 1.2259044630305278e+00 8.5225814085429814e+00 2.3847273018812913e+00 0 0 0
140 2 1.2064230876674209e+00 9.2311666421815826e+00 3.1157479415440461e+00 0 0 0
342 2 4.2205679240098402e+00 2.9406039577403158e+00 1.0260658642376022e+01 0 0 0
147 2 9.0128790200007529e+00 8.8546619106859890e+00 1.1552977874455390e+00 0 0 0
578 2 9.2606607945043677e+00 1.6948838985968059e+01 6.9720072791164629e+00 0 0 0
154 1 8.1513654492052687e+00 1.0710682198999773e+01 3.8373165110759344e+00 0 0 0
155 2 7.6542058033498961e+00 1.0920298435634917e+01 4.6637918020619473e+00 0 0 0
156 2 9.1025242201788199e+00 1.0974347242165214e+01 3.9356385165474856e+00 0 0 0
163 1 7.4978672494733116e+00 1.2614824380475909e+01 1.8307401711935689e+00 0 0 0
164 2 7.9272775355816556e+00 1.2165191055976244e+01 2.5820518917017417e+00 0 0 0
165 2 8.0958474908433367e+00 1.2471572723286025e+01 1.0535410640239915e+00 0 0 0
166 1 8.5878339030076969e+00 7.6694006273912967e+00 5.2045947646484221e+00 0 0 0
167 2 8.6510786119289893e+00 8.4834988629948995e+00 5.8645559897363144e+00 0 0 0
168 2 8.9528541823645860e+00 6.9131022613317699e+00 5.7634510795926888e+00 0 0 0
169 1 9.4084287163902580e+00 1.2215250514763587e+01 6.8996005051255969e+00 0 0 0
171 2 9.5769570900391550e+00 1.3026022571751819e+01 6.3934211409371411e+00 0 0 0
175 1 7.9575538945980782e+00 8.4954472299570920e+00 2.3174518475223698e+00 0 0 0
176 2 8.1204437033256998e+00 9.1420023224886968e+00 3.0523283870687701e+00 0 0 0
177 2 7.2493512307479149e+00 8.9373577864709901e+00 1.7772711469015734e+00 0 0 0
450 2 4.3213186892590052e+00 1.1546874419488176e+01 9.7367106248509661e+00 0 0 0
3 2 2.2218762850738623e+00 2.2852663262484736e+00 1.0551542998389061e+00 0 0 0
818 2 1.0146009344770274e+01 1.2073529137052253e+01 4.7016930120941658e-01 0 0 0
927 2 8.8474558926338869e+00 1.8754323370430093e+01 7.1442885273941448e-01 0 0 0
392 2 7.4239512717463816e+00 2.5368632878947159e+00 9.8437867184520620e+00 0 0 0
220 1 4.3441274192208095e+00 1.4315155695438543e+01 3.5659114182434797e+00 0 0 0
221 2 4.3032034039844183e+00 1.5202298453372475e+01 3.2102088533381670e+00 0 0 0
222 2 4.5096184760145670e+00 1.3647769640505839e+01 2.8159396327998798e+00 0 0 0
223 1 6.2079608684044532e+00 1.7621502454260856e+01 5.5114413140471461e+00 0 0 0
224 2 7.0109102111169186e+00 1.7165792888235643e+01 5.1656162757116926e+00 0 0 0
225 2 6.0119714362085146e+00 1.7067736489809974e+01 6.2886687393792489e+00 0 0 0
226 1 1.3516127295737448e+00 1.7317837011498298e+01 3.6720403888724764e+00 0 0 0
227 2 1.3881442966353319e+00 1.7912185256056347e+01 2.8914311616530375e+00 0 0 0
228 2 1.2717328850420639e+00 1.6413071874095550e+01 3.3021331746293110e+00 0 0 0
229 1 4.8476171988097088e+00 1.8903627713829039e+01 2.0274396548641045e+00 0 0 0
230 2 4.6825122031856159e+00 1.8138787350826931e+01 2.6671419023539680e+00 0 0 0
231 2 4.6092128143501769e+00 1.9721868458155136e+01 2.5588919876380949e+00 0 -1 0
232 1 4.3100170288700212e+00 1.7134448242380465e+01 3.7164876338507420e+00 0 0 0
233 2 3.4299992058390849e+00 1.7386675515621228e+01 3.9194452705459715e+00 0 0 0
234 2 4.8997053551189689e+00 1.7304642779551187e+01 4.4602545683982333e+00 0 0 0
235 1 8.6198761519747269e-01 1.9341571977995862e+01 2.0982102161343597e+00 0 0 0
236 2 7.6396271390614034e-01 4.3116089866717455e-01 2.2900281223952272e+00 0 0 0
237 2 1.2343777795633457e+00 1.9159673299261350e+01 1.1966608772027874e+00 0 0 0
238 1 2.3788189196662239e+00 1.3730219557156323e+01 4.9571521143108690e+00 0 0 0
239 2 3.0510913227719496e+00 1.4098376031294418e+01 4.3318091051516490e+00 0 0 0
240 2 1.5389612922155831e+00 1.4048362601587154e+01 4.6671914936993595e+00 0 0 0
241 1 3.0158602544453847e+00 1.8524486105512615e+01 6.9446811669829316e+00 0 0 0
242 2 2.8029855516274309e+00 1.9237669183129917e+01 6.2225675093856090e+00 0 0 0
243 2 2.7959039854083692e+00 1.7590018376339302e+01 6.6230930866318873e+00 0 0 0
244 1 6.4042348758507330e+00 1.4160467693162312e+01 5.2461127374607832e+00 0 0 0
245 2 6.2826447112912662e+00 1.4898236617558029e+01 5.9087731336210556e+00 0 0 0
246 2 5.6307960877067895e+00 1.4177257992111949e+01 4.6045921088279513e+00 0 0 0
247 1 1.0703506250389307e+00 1.4958974309269422e+01 2.3600076428081840e+00 0 0 0
248 2 1.1756399709673064e+00 1.3964934471840882e+01 2.4016862463252986e+00 0 0 0
249 2 1.6804835868638059e+00 1.5283654368667566e+01 1.6729775604068282e+00 0 0 0
251 2 6.3249012554803574e+00 1.5875394252219946e+01 1.5299049223759509e+00 0 0 0
51 2 1.0033663665569422e+01 5.8559628198633948e+00 1.3502969087138290e+00 0 0 0
262 1 8.3669978196694341e+00 1.7065604510809841e+01 3.9282369373014507e+00 0 0 0
263 2 9.3474861634369333e+00 1.7135408973068500e+01 3.9593920324311158e+00 0 0 0
264 2 8.1022187126821770e+00 1.7833011835464823e+01 3.3412328986988000e+00 0 0 0
271 1 7.8231795541010127e+00 1.9098712604956106e+01 2.1196016613589888e+00 0 0 0
272 2 7.3178105031306249e+00 1.9678543744627985e-01 2.1159208015467277e+00 0 0 0
273 2 6.8569896991290298e+00 1.8810648007144593e+01 1.9442955008683254e+00 0 0 0
274 1 9.0999373259544640e+00 1.4195906406012822e+01 5.1026022672797362e+00 0 0 0
275 2 9.2721031984561151e+00 1.4984443042420541e+01 5.5888024255783257e+00 0 0 0
276 2 8.1083421507262372e+00 1.4169321544390648e+01 5.1264160767850662e+00 0 0 0
277 1 9.8858277721416510e+00 1.8483085411487195e+01 6.6449205924620500e+00 0 0 0
278 2 9.6995000428475020e+00 1.9070486604527403e+01 5.9002561802090083e+00 0 0 0
279 2 9.1531565457365218e+00 1.8746044260272456e+01 7.2692465857279007e+00 0 0 0
283 1 8.0013970931946314e+00 1.5378708881603650e+01 2.0596575845185887e+00 0 0 0
284 2 8.0761872750234573e+00 1.5856319899108422e+01 2.9171430718459601e+00 0 0 0
285 2 7.9342829925081855e+00 1.4422294995176394e+01 2.2148286886651256e+00 0 0 0
119 2 1.1091720695644263e+00 1.0960907986531526e+01 4.8648855281378154e+00 0 0 0
325 1 2.6909393724601798e+00 2.6608502944668464e+00 6.9733954740132384e+00 0 0 0
326 2 2.7113663671790929e+00 3.6207399714610009e+00 6.6747051306410334e+00 0 0 0
327 2 3.6263808537639899e+00 2.4774938488219402e+00 7.2290640103737216e+00 0 0 0
329 2 4.4156700326729297e+00 6.1567178991766613e-01 9.2545640879591549e+00 0 0 0
337 1 4.9924933041722728e+00 5.9356922904267186e+00 8.7472056998546179e+00 0 0 0
338 2 4.7462781165901564e+00 5.1243759761665144e+00 9.2190831097618879e+00 0 0 0
339 2 4.5400480370807861e+00 6.7486140371639847e+00 9.0353779421805420e+00 0 0 0
343 1 1.1583756322153678e+00 6.4763896978971287e+00 8.6073739344346833e+00 0 0 0
344 2 1.5984703966005911e+00 5.9281686012669343e+00 9.2991363785659047e+00 0 0 0
345 2 1.6940122084589531e+00 6.3603002490820764e+00 7.8066068390282881e+00 0 0 0
355 1 5.8666811757030324e-01 2.2358449488723622e+00 8.8710115368606459e+00 0 0 0
356 2 7.3521747755163291e-01 1.2919466946375453e+00 8.9621580413922377e+00 0 0 0
357 2 1.1298952171043526e+00 2.4695405869411089e+00 8.0717102533345670e+00 0 0 0
358 1 5.3030035270128701e+00 2.2753001776158381e+00 7.3594002274055406e+00 0 0 0
359 2 5.5774842306322796e+00 3.1011016656757779e+00 6.8102452713291930e+00 0 0 0
360 2 5.5932257429965739e+00 1.5820231165571654e+00 6.6945079376670833e+00 0 0 0
361 1 9.5068933282018815e+00 2.4375124644196142e+00 7.2643020334526840e+00 0 0 0
362 2 9.1918455439011062e+00 1.9098497995289943e+00 6.5436458762892737e+00 0 0 0
363 2 8.7740655123261444e+00 2.4606687394263709e+00 7.9446565149987167e+00 0 0 0
254 2 9.0796111810964035e+00 1.5701510310939639e+01 8.2407845529119672e-01 0 0 0
379 1 7.5821250810390595e+00 5.8460521670812016e+00 8.7569393784750336e+00 0 0 0
380 2 7.6772060671998119e+00 6.7894997506881136e+00 8.9899836177199752e+00 0 0 0
381 2 6.6402263601557179e+00 5.8284470291966617e+00 8.6158846770060684e+00 0 0 0
391 1 7.2223624481873214e+00 1.7954161084222040e+00 9.2306587652656837e+00 0 0 0
2 2 3.7296118617337259e+00 2.4158293625042999e+00 5.2230305423630230e-01 0 0 0
393 2 6.4705615666287413e+00 2.0090810812484396e+00 8.7140881593905668e+00 0 0 0
571 1 1.0416993678745810e+00 1.5737177815972894e+01 8.9189718299963712e+00 0 0 0
433 1 2.9376450047704878e+00 9.8221968354003941e+00 7.5894473092473804e+00 0 0 0
434 2 2.6242180030909985e+00 1.0707827927847296e+01 7.3361199899155949e+00 0 0 0
435 2 2.3505618783211424e+00 9.4542730654112219e+00 8.2921868232073539e+00 0 0 0
143 2 4.7984592921643419e+00 9.1937871375104265e+00 9.1172557345928751e-01 0 0 0
445 1 4.7688874151096874e+00 1.2604052332621269e+01 8.5144671104312515e+00 0 0 0
446 2 4.7001889136892885e+00 1.3458218933920927e+01 8.9448049487142001e+00 0 0 0
447 2 4.1525238401773095e+00 1.2716555680467165e+01 7.8043020834739352e+00 0 0 0
891 2 3.5446641249966571e+00 1.8963856725979191e+01 8.6675730262757544e-01 0 0 0
451 1 4.8594586956554048e-01 1.3128434022814812e+01 8.9199116562713918e+00 0 0 0
452 2 6.5686020098791786e-01 1.4089070862775349e+01 9.0224311237585049e+00 0 0 0
463 1 9.3287124121398535e-01 8.9840124473342673e+00 9.1709640177743985e+00 0 0 0
465 2 9.1212987563625425e-01 8.0037627311035209e+00 9.0955097054119189e+00 0 0 0
466 1 5.6102616833615402e+00 9.5209562911034773e+00 7.3314246812434147e+00 0 0 0
467 2 5.6850414884138276e+00 8.8834833812132779e+00 6.5795888320855065e+00 0 0 0
468 2 4.6069701298375687e+00 9.6904422547090920e+00 7.3112755203190751e+00 0 0 0
469 1 8.8978878437342654e+00 9.6997315007932610e+00 7.0922110009048067e+00 0 0 0
470 2 8.9228163740374775e+00 1.0657028948033281e+01 6.8628102717953539e+00 0 0 0
471 2 8.3333729017765510e+00 9.5834906470308958e+00 7.8867131945551625e+00 0 0 0
573 2 1.2293352359998273e+00 1.6298829289049245e+01 9.7094716916368000e+00 0 0 0
487 1 7.4963145931773383e+00 1.2871341658278080e+01 8.6656560517353789e+00 0 0 0
488 2 8.0101982976976736e+00 1.2569942545651454e+01 7.8978740288741225e+00 0 0 0
489 2 6.5773742622558027e+00 1.2431425142251392e+01 8.5723328700462691e+00 0 0 0
499 1 7.3122167166452536e+00 8.7223722402398884e+00 9.1439989177726684e+00 0 0 0
500 2 7.4392791048606366e+00 9.4826007498578697e+00 9.7554774733873426e+00 0 0 0
501 2 6.6185670341666780e+00 9.0860460132376684e+00 8.5644091354305125e+00 0 0 0
19 1 9.1699255152040748e-01 5.5498330582024753e+00 1.9964671953536168e+00 0 0 0
609 2 7.6091243906603170e+00 1.6009801782753030e+01 9.9415306808282029e+00 0 0 0
541 1 2.8425138796031186e+00 1.5863747347438800e+01 7.0808188506215384e+00 0 0 0
542 2 2.2117637766786293e+00 1.5695794414993159e+01 7.8472254425752803e+00 0 0 0
543 2 2.5565656032523312e+00 1.5320787361669945e+01 6.3204710078136257e+00 0 0 0
553 1 5.1888203456828048e+00 1.8816073004497490e+01 8.4507341939693337e+00 0 0 0
554 2 6.0902397241132666e+00 1.8900276301456451e+01 8.0363353479817832e+00 0 0 0
555 2 4.4931322439539390e+00 1.8617457605819361e+01 7.6506446394223016e+00 0 0 0
335 2 1.0522990503113516e+00 3.6413477048760243e+00 9.9432893230802719e+00 0 0 0
559 1 1.1044846275242144e+00 1.9286186025305085e+01 8.9469527542150065e+00 0 0 0
560 2 1.7827784517973355e+00 1.9109723970420397e+01 8.2883145274328331e+00 0 0 0
561 2 1.3192174276789461e+00 1.8702085711948392e+01 9.7282081735396151e+00 0 0 0
217 1 2.9850711178709171e+00 1.5943299107941751e+01 5.7996910720697636e-01 0 0 0
574 1 5.6992218858248602e+00 1.5815325720680187e+01 7.2963012903193434e+00 0 0 0
575 2 6.2629663690132027e+00 1.5779295815032469e+01 8.0230068824185246e+00 0 0 0
576 2 4.7625017506455860e+00 1.5816779292764481e+01 7.4393159702109291e+00 0 0 0
577 1 9.2109222280860692e+00 1.5984563263358151e+01 7.0683200099143830e+00 0 0 0
675 2 1.9788977048914569e+00 5.1942019237414847e+00 4.8100645314950474e-01 0 0 0
579 2 8.7586462316935414e+00 1.5840977792347605e+01 7.9670536684738282e+00 0 0 0
558 2 4.8631519954116174e+00 1.7660079386463202e+01 9.8216664529006881e+00 0 0 0
595 1 7.9068402507275737e+00 1.8933276386845208e+01 8.3720007477169158e+00 0 0 0
596 2 7.8888969879682378e+00 1.9844962493250712e+01 8.6862208685585856e+00 0 -1 0
597 2 7.9996574612162465e+00 1.8354633864858762e+01 9.1521913091627063e+00 0 0 0
607 1 7.5397983759128966e+00 1.5523384927028047e+01 9.1041552825913517e+00 0 0 0
608 2 7.6185695892935126e+00 1.4597838152767956e+01 9.2440512838548141e+00 0 0 0
142 1 5.7683424744353342e+00 9.2778189427288069e+00 8.1888326876615247e-01 0 0 0
340 1 4.1397656773273832e+00 3.9248944715181686e+00 1.0349553133439901e+01 0 0 0
250 1 5.7185902693639097e+00 1.5955653627665544e+01 7.2261328365046340e-01 0 0 0
150 2 9.9915326716047215e+00 8.1129415109951033e+00 4.0102518171148152e+00 0 0 0
372 2 7.9181236339157435e+00 4.4919878278372591e+00 9.9329164985785532e+00 0 0 0
479 2 7.6703172754920850e+00 1.1719115866056134e+01 1.0000702087365616e+01 0 0 0
34 1 5.5210347123555970e+00 2.7119640653339370e+00 6.2916151281108290e-01 0 0 0
437 2 4.3232576519368378e+00 9.2347414721305476e+00 1.0172635115070047e+01 0 0 0
37 1 9.1336782631958915e+00 2.4613974160507488e+00 3.0937640477967315e-01 0 0 0
218 2 3.9851572664108712e+00 1.5800669261098250e+01 3.6746107240175241e-01 0 0 0
436 1 4.1633187045531566e+00 8.2481941164034200e+00 1.0135458606266344e+01 0 0 0
109 1 3.1441692357229001e+00 9.1816450405336347e+00 5.2455432258453805e-01 0 0 0
32 2 2.4070334116863662e-01 2.4069019769329452e+00 1.7669151009003781e+00 0 0 0
889 1 2.7107480078688146e+00 1.8683461587784123e+01 3.3649745870235143e-01 0 0 1
443 2 1.2355662619458956e+00 1.0371611698964564e+01 1.0183502738077346e+01 0 0 0
219 2 2.8113096344294983e+00 1.6915859221383720e+01 4.3384598503549676e-01 0 0 0
145 1 9.5709718278927127e+00 8.9405105809346086e+00 3.4793372781454063e-01 0 0 0
444 2 1.2039543798737962e+00 1.1968668566637179e+01 1.0076983781284818e+01 0 0 0
749 2 1.0432768338510624e-01 1.0960278907184018e+00 1.8751831761385549e+01 0 0 0
710 2 8.7380630174491110e+00 4.7192545348660708e+00 2.0289401611873178e+01 0 0 0
341 2 3.1840550443457620e+00 4.1137126456484019e+00 1.0434262148707417e+01 0 0 0
442 1 1.3762893621123449e+00 1.1194916716358248e+01 1.0700716449629644e+01 0 0 0
39 2 9.1225447090126597e+00 1.9945682675327669e+00 1.9891452324105327e+01 0 0 0
546 2 5.1508278868227730e+00 1.4398702952029188e+01 1.1064813948008579e+01 0 0 0
331 1 6.1710810932533215e+00 4.6359286612865711e+00 1.2443428337844644e+01 0 0 0
332 2 6.9815294874618719e+00 4.5129233344446860e+00 1.1908239826162234e+01 0 0 0
333 2 5.4622315335834362e+00 4.3881285778063344e+00 1.1803915264779365e+01 0 0 0
146 2 9.2194123512616795e+00 1.0045644799944526e+01 2.0393916329732257e+01 0 0 0
556 1 4.5604756272904456e+00 1.7312382633383869e+01 1.0700508746649161e+01 0 0 0
673 1 2.6554489005982687e+00 5.4229439936197048e+00 2.0180766187133631e+01 0 0 0
346 1 2.1471205816987555e+00 6.9827862203665547e-01 1.1922315687377223e+01 0 0 0
347 2 2.8227672145966940e+00 8.3000992651918537e-01 1.1205202183835404e+01 0 0 0
348 2 2.3803711826831155e+00 1.4548666916905413e+00 1.2484411528503184e+01 0 0 0
349 1 2.4718482246235833e+00 5.7119123646778220e+00 1.3482723434085193e+01 0 0 0
350 2 2.3586296713440431e+00 6.4337816445286347e+00 1.2857428201346643e+01 0 0 0
351 2 2.6528212396240543e+00 4.9520131625418689e+00 1.2941147060468673e+01 0 0 0
352 1 5.8964336933124706e+00 1.1591870777327715e+00 1.1978851863259791e+01 0 0 0
353 2 6.8416948073706330e+00 9.8973910869074722e-01 1.1781015341649608e+01 0 0 0
354 2 5.7206004830718973e+00 2.3955740843191098e-01 1.2252881036797858e+01 0 1 0
533 2 4.1502941798212134e-01 7.9794797719114969e+00 1.1654498988091692e+01 0 0 0
382 1 8.6681458932885622e+00 9.8714936028208200e-01 1.1861157404165692e+01 0 0 0
383 2 9.0393326549028128e+00 2.7054606951427740e-01 1.2361561399566082e+01 0 0 0
448 1 4.0671025840229342e+00 1.0913882840306380e+01 1.0443626845194016e+01 0 0 0
385 1 9.0678201997670325e+00 5.5733055729902148e+00 1.3600610607480668e+01 0 0 0
386 2 9.0444113598189428e+00 4.5901648711836058e+00 1.3606008939409421e+01 0 0 0
387 2 8.3908309839498525e+00 5.7750164420982149e+00 1.4270230063142220e+01 0 0 0
486 2 9.8877190933680268e+00 1.0935548942348516e+01 1.0468407576862232e+01 0 0 0
552 2 2.7352858479259643e+00 1.7476132065660337e+01 1.0866991922555110e+01 0 0 0
439 1 5.8236764516128430e+00 1.1525634529821509e+01 1.2491991827420613e+01 0 0 0
440 2 6.0364805637565517e+00 1.2506728791854837e+01 1.2473897210846946e+01 0 0 0
441 2 5.2107975795823691e+00 1.1323277495296061e+01 1.1764642761075134e+01 0 0 0
426 2 3.3443089080733157e-01 1.1474219084244839e+00 1.1629879910016566e+01 0 0 0
454 1 2.2189876795647536e+00 7.8524835507231003e+00 1.1974368825178262e+01 0 0 0
455 2 2.8023260595552846e+00 8.0055498025586083e+00 1.1214758291441155e+01 0 0 0
456 2 2.4922323279088880e+00 8.5845974148883233e+00 1.2553542333452096e+01 0 0 0
457 1 2.6651804808561632e+00 1.2269528899616677e+01 1.4007219637011968e+01 0 0 0
458 2 3.4769701889284690e+00 1.2643655467963672e+01 1.4338456967307167e+01 0 0 0
459 2 2.0018983229549834e+00 1.2429249019644278e+01 1.4679764130897937e+01 0 0 0
460 1 6.0054181760024736e+00 7.5042566237726076e+00 1.2080931307785592e+01 0 0 0
461 2 5.7716487831842302e+00 6.6144214792843892e+00 1.2376581668123997e+01 0 0 0
462 2 6.8339778807753344e+00 7.4700372186472226e+00 1.1557434209004287e+01 0 0 0
602 2 1.0108829801780750e+01 1.9104624889958423e+01 1.4180781061844465e+01 0 0 0
480 2 7.2931425962194059e+00 1.1209740898854665e+01 1.1348837298079628e+01 0 0 0
599 2 9.9011380191847191e+00 1.4337973040635495e+01 1.1595213604059220e+01 0 0 0
490 1 8.7938409401804503e+00 7.4227198372047303e+00 1.1772679281522816e+01 0 0 0
491 2 8.8479016281882377e+00 6.6507717838672882e+00 1.2384656604816085e+01 0 0 0
492 2 8.7800775753376801e+00 8.1306616238078622e+00 1.2384179032629490e+01 0 0 0
493 1 9.3656636027039575e+00 1.1587239719658397e+01 1.3636157614719647e+01 0 0 0
494 2 8.8501263097401406e+00 1.2057145022342601e+01 1.4334081985273247e+01 0 0 0
495 2 9.5142496430669912e+00 1.2369365550275299e+01 1.2972932293374400e+01 0 0 0
781 1 2.7729841883363697e+00 1.1989545494210381e+01 2.0460018373336819e+01 0 0 0
474 2 1.0025775208794181e+01 7.5527483204134782e+00 1.0578272018231335e+01 0 0 0
810 2 9.8326976796407379e+00 1.0725246768371122e+01 1.7667687327062861e+01 0 0 0
478 1 7.7940211626859197e+00 1.0942428389542561e+01 1.0541807337572068e+01 0 0 0
931 1 8.0210166666613283e+00 1.5443317109751341e+01 1.5893405405083168e+01 0 0 0
586 1 8.3612130141784462e+00 1.7547446273411758e+01 1.0653284815410817e+01 0 0 0
547 1 6.2843100720757361e+00 1.8360610092635682e+01 1.2567216822700402e+01 0 0 0
548 2 5.7516611611633781e+00 1.7989648546213687e+01 1.1876945121934263e+01 0 0 0
549 2 6.2152254728231604e+00 1.7651792104550609e+01 1.3222475140248168e+01 0 0 0
551 2 1.3033016635151415e+00 1.7744977459645156e+01 1.1642123872758193e+01 0 0 0
562 1 2.2057192209165053e+00 1.4186345338803392e+01 1.2132755542096355e+01 0 0 0
563 2 1.2348121873493862e+00 1.4287832185815910e+01 1.2174854034148302e+01 0 0 0
564 2 2.3695362260958204e+00 1.3377305274792535e+01 1.2723868795603906e+01 0 0 0
565 1 3.1184557115301930e+00 1.8363979017340242e+01 1.3290675605237659e+01 0 0 0
566 2 2.8139135998120675e+00 1.9110967003885861e+01 1.2733417747616059e+01 0 0 0
567 2 3.6415994626210200e+00 1.8921281849364235e+01 1.3944137030474629e+01 0 0 0
568 1 6.6030320858229352e+00 1.4304157403304337e+01 1.1934067781700639e+01 0 0 0
569 2 7.6162969369670206e+00 1.4241845580389622e+01 1.1915634374320629e+01 0 0 0
570 2 6.4027904111123748e+00 1.4837107803946925e+01 1.2707062340970024e+01 0 0 0
924 2 7.8213092032846721e+00 1.4135697379929271e+01 1.8404230870961481e+01 0 0 0
925 1 9.3909002181011623e+00 1.8685215326401782e+01 2.0342534322629078e+01 0 0 0
588 2 7.8421307456049147e+00 1.7929632204399411e+01 1.1426291186539599e+01 0 0 0
598 1 9.4096029735457396e+00 1.4011029735430146e+01 1.2390734496090133e+01 0 0 0
858 2 7.6939070438938606e-01 7.9175185184165207e+00 1.8586438629182947e+01 0 0 0
600 2 9.4052866022654378e+00 1.4706659651325122e+01 1.3090337384372345e+01 0 0 0
601 1 9.3796137104385373e+00 1.8838423488719577e+01 1.3486930609599865e+01 0 0 0
603 2 8.5950680234847763e+00 1.9052768106322809e+01 1.4039283979543713e+01 0 0 0
371 2 9.0945262478019018e+00 4.0327795124620369e+00 1.0779698714766653e+01 0 0 0
557 2 4.6379227631758955e+00 1.6293885790054397e+01 1.0674176957047898e+01 0 0 0
649 1 2.6199470519467072e+00 2.5338683272469567e+00 1.3866196142378474e+01 0 0 0
650 2 3.3869530901981140e+00 2.5264498643347459e+00 1.4393534198912034e+01 0 0 0
651 2 1.8378215838371434e+00 2.5464669600925922e+00 1.4441288757831495e+01 0 0 0
652 1 4.0110331770251353e+00 1.5746802422041499e+00 1.7334763216722848e+01 0 0 0
653 2 3.8840183397978860e+00 2.5488063041396347e+00 1.7373356590299579e+01 0 0 0
654 2 4.7998746674116832e+00 1.3292677211063935e+00 1.7892201019354772e+01 0 0 0
655 1 5.8079033008290013e+00 4.9610941120730825e+00 1.9298991700633099e+01 0 0 0
656 2 6.1200982001744402e+00 5.9108723340559148e+00 1.9277409308893741e+01 0 0 0
657 2 6.4462617839685574e+00 4.5258160474131106e+00 1.8702363320458325e+01 0 0 0
658 1 9.5344628677751142e-01 4.3126544898624557e+00 1.7023086859091144e+01 0 0 0
659 2 8.8887669392479807e-01 3.4452716200354527e+00 1.6619567898145608e+01 0 0 0
660 2 8.3345887834050247e-01 4.9940939757692933e+00 1.6358883957707530e+01 0 0 0
661 1 4.6561799569353761e+00 5.9029764187747142e+00 1.5211112962598449e+01 0 0 0
662 2 4.4158409036272666e+00 5.2464272105075063e+00 1.5897473020092693e+01 0 0 0
663 2 3.8401482594029583e+00 6.0147371863725443e+00 1.4647528455725043e+01 0 0 0
664 1 3.6973061041808486e+00 4.3934255274673442e+00 1.7414400304953169e+01 0 0 0
665 2 2.7307891285558052e+00 4.4868096160351527e+00 1.7440032546533661e+01 0 0 0
666 2 4.1088307955934038e+00 4.7443760557770149e+00 1.8217096803813309e+01 0 0 0
667 1 6.9796704584572122e-01 6.3345786637365373e+00 1.5348664175752299e+01 0 0 0
668 2 7.8186395449349455e-01 7.2628973817469067e+00 1.5671957068877067e+01 0 0 0
669 2 1.2661420650644843e+00 6.3040132887977753e+00 1.4552282173127136e+01 0 0 0
670 1 1.7148566598460500e+00 9.0104777171460337e-01 1.8592113002007210e+01 0 0 0
671 2 2.0254524238771907e+00 1.4989026234777514e+00 1.9315351388440586e+01 0 0 0
672 2 2.3955525458604354e+00 1.0208253630410644e+00 1.7915747665916111e+01 0 0 0
676 1 5.8555192262609692e+00 9.5248651739130974e-01 1.8870847092705262e+01 0 0 0
677 2 5.7627089672288854e+00 1.6074913027722950e+00 1.9619778373208877e+01 0 0 0
678 2 6.7978275641456190e+00 9.3683895107723170e-01 1.8654591432966171e+01 0 0 0
679 1 5.5727501357033016e-01 2.2809085462920398e+00 1.5383112538225260e+01 0 0 0
926 2 9.2844916706164629e+00 1.7734629544676160e+01 2.0198187697885913e+01 0 0 0
681 2 3.7215800760055218e-01 1.3226384753752765e+00 1.5389529844032792e+01 0 0 0
682 1 5.4155043587326883e+00 2.6626640412665790e+00 1.4321298533593389e+01 0 0 0
683 2 5.7803958764316663e+00 3.4697403470974919e+00 1.3914712142864269e+01 0 0 0
684 2 5.6280187382663485e+00 1.9067063220927221e+00 1.3659669271101926e+01 0 0 0
685 1 9.1218532594013162e+00 2.8279192459722728e+00 1.3907612497081100e+01 0 0 0
687 2 8.9397872073410838e+00 2.2379333095217704e+00 1.3135027023232777e+01 0 0 0
694 1 7.8559183425904981e+00 4.1522284686264053e+00 1.7454188021147715e+01 0 0 0
695 2 8.7861693198844737e+00 4.2836186710318964e+00 1.7508480578461935e+01 0 0 0
696 2 7.8146669588807693e+00 3.2554684131769513e+00 1.6937571830422723e+01 0 0 0
703 1 7.2768307678275646e+00 6.2158388975892152e+00 1.5496692660712887e+01 0 0 0
704 2 7.3863561926409158e+00 5.6056150388049302e+00 1.6216229275090065e+01 0 0 0
705 2 6.3506742672608611e+00 6.0709807720649458e+00 1.5224661758057218e+01 0 0 0
706 1 8.8287472615602933e+00 9.8744907900528467e-01 1.8645278900836725e+01 0 0 0