LAMMPS data file via write_data, version 15 Apr 2020, timestep = 1152000

1920 atoms
2 atom types

3.8833387149303178e-02 2.4685571612854272e+01 xlo xhi
5.9299359052076284e-03 2.4718475064087418e+01 ylo yhi
2.2899845693540755e-02 2.2769472154312396e+01 zlo zhi
2.9264928774900608e-02 4.3542753358117841e-03 2.6360338281063800e-01 xy xz yz

Masses

1 16
2 2

Atoms # atomic

1 1 4.5176391839045316e+00 1.7909575118872345e+00 4.1959475891422047e+00 0 0 0
2 2 5.2398820610586681e+00 1.6670675113635480e+00 3.5659284486386964e+00 0 0 0
3 2 4.6428720660450749e+00 1.0555328880262440e+00 4.8611907608319331e+00 0 0 0
4 1 3.0708777758259851e+00 1.6229174012100063e+00 1.8650459444902865e+00 0 0 0
654 2 7.8466871253287893e+00 1.1506729139595048e+01 6.5679944537625987e+00 0 0 0
6 2 3.2405693351199747e+00 1.4584554474233637e+00 2.8013395992642565e+00 0 0 0
7 1 6.2565173551670288e+00 4.8101257062446674e+00 3.5628237177399971e+00 0 0 0
8 2 5.2936801305677692e+00 4.8007495153700850e+00 3.4354071290535821e+00 0 0 0
9 2 6.5757820695279747e+00 3.9442080906597869e+00 3.8415951508576320e+00 0 0 0
10 1 3.4447559679385193e+00 5.0471861848708333e+00 3.4927720405763028e+00 0 0 0
11 2 2.7804059318001966e+00 4.3667438606652187e+00 3.6582154992379499e+00 0 0 0
12 2 3.0632743604394488e+00 5.7088470653506320e+00 4.0931967190723118e+00 0 0 0
13 1 1.5395627937213483e+00 3.0867161035100854e+00 4.6680977093756217e+00 0 0 0
14 2 1.6581944850709585e+00 2.0861080225592947e+00 4.7252161080518942e+00 0 0 0
15 2 1.9352037079091289e+00 3.3847459439692407e+00 5.5524712033795804e+00 0 0 0
616 1 2.8619862567307186e-01 7.8950153303779897e+00 7.4504679327608256e+00 0 0 0
17 2 1.3570237357526505e+00 1.5284964447763172e+00 1.9135199936304041e+00 0 0 0
19 1 4.8638399827267635e+00 3.2332688360365993e+00 7.3180634079548268e-01 0 0 0
20 2 4.2236355428089984e+00 2.9246515338612196e+00 1.4336632620803249e+00 0 0 0
21 2 4.7653403192734594e+00 4.2213560675140958e+00 7.0260975330960518e-01 0 0 0
22 1 1.3650780155201412e+00 4.8096832237810796e+00 9.7827381319381324e-01 0 0 0
23 2 2.1305290794381651e+00 4.9724674688252408e+00 1.5062488666135205e+00 0 0 0
24 2 1.4154769574272286e+00 3.8724890198748891e+00 5.8567520382654803e-01 0 0 0
25 1 4.7250300929472129e+00 6.0858917312550034e+00 7.5167405880473093e-01 0 0 0
26 2 4.0605445674991527e+00 6.5701659771376706e+00 1.2883356444164049e+00 0 0 0
27 2 4.8179648228728604e+00 6.8241039071148002e+00 2.2640228239157757e+01 0 0 0
578 2 1.5608005070782471e-01 5.6410130023096325e+00 9.7290581350845180e+00 0 0 0
31 1 1.0593171550704861e+01 1.3141723357170048e+00 4.2223864150168389e+00 0 0 0
32 2 1.0476057937376563e+01 1.9793067649414040e+00 4.8851709000210688e+00 0 0 0
778 1 7.7699334273548883e+00 1.2370070807785606e+01 1.0691135832480940e+01 0 0 0
34 1 9.0796839794963766e+00 1.1748827980921768e+00 1.9612128492786149e+00 0 0 0
157 1 1.2265633895558400e+01 1.0946554676474342e+01 3.6672887142676545e+00 0 0 0
36 2 9.2862155480727644e+00 2.0612035590335380e+00 1.5507103636978066e+00 0 0 0
1477 1 1.2182097205021718e+01 4.8336811302857399e+00 2.0729866200054925e+01 0 0 0
39 2 1.1507131582425782e+01 4.6966918330937455e+00 3.6024519133811723e+00 0 0 0
40 1 9.6568219816689194e+00 4.9893140112127075e+00 3.6748011360896178e+00 0 0 0
41 2 9.3236949973874168e+00 4.9467622969294203e+00 2.7725364514498314e+00 0 0 0
42 2 9.1255702837202435e+00 4.2866164443963513e+00 4.1297432242742635e+00 0 0 0
43 1 7.8684962630509148e+00 3.1774332243354886e+00 4.7328042327387658e+00 0 0 0
44 2 7.9062151182672036e+00 3.4189109695236080e+00 5.7259789963976893e+00 0 0 0
45 2 7.5199867804348237e+00 2.2347389324969305e+00 4.7461990018952074e+00 0 0 0
46 1 6.4370974184261485e+00 1.6426666250345563e+00 2.2254716113736244e+00 0 0 0
47 2 7.4497903124230280e+00 1.4635178407051501e+00 2.3040193905886501e+00 0 0 0
48 2 6.1768767667450302e+00 2.3419477752700097e+00 1.6077552423066954e+00 0 0 0
49 1 1.0584498600983181e+01 3.1737817041486078e+00 8.6028276795240655e-01 0 0 0
50 2 1.1332932327791982e+01 2.7447707361759095e+00 1.3380557106899424e+00 0 0 0
51 2 1.0624983547148076e+01 3.0313861634564083e+00 2.2724709762030415e+01 0 0 0
52 1 7.9848379807329684e+00 4.7051670904848359e+00 1.4652500316714210e+00 0 0 0
53 2 7.7246502359168199e+00 4.0213886667049046e+00 8.5127190139566156e-01 0 0 0
54 2 7.2543801935971040e+00 4.9701706214309462e+00 2.0715443636795174e+00 0 0 0
55 1 1.0674601206979036e+01 6.1853812828233234e+00 5.6329842959001686e-01 0 0 0
56 2 1.0133436407606483e+01 6.7346281355391167e+00 1.1903697278507190e+00 0 0 0
57 2 1.0502044058101420e+01 5.2609676019347855e+00 8.4857174722920248e-01 0 0 0
147 2 5.3869675942817397e+00 1.2276551249988350e+01 1.5547912918468771e+00 0 0 0
1638 2 1.2110944197208788e+01 8.1590953591437803e+00 2.0343953613904336e+01 0 0 0
1608 2 7.3382384836962702e+00 8.1613988342157935e+00 1.9311585956590228e+01 0 0 0
531 2 1.0908836087137356e+01 4.1352782861678152e+00 6.3728554392746908e+00 0 0 0
121 1 4.8511929070379010e+00 7.9467517876694762e+00 4.2492115495214557e+00 0 0 0
122 2 5.4859935460327200e+00 8.0196493772215405e+00 3.5074440696627445e+00 0 0 0
123 2 4.0169891234046986e+00 8.0981391527324629e+00 3.8085177952361082e+00 0 0 0
124 1 2.9793737840446153e+00 7.8111956292939260e+00 2.2096457192066179e+00 0 0 0
125 2 3.2239131738125013e+00 8.4515084903879725e+00 1.5532877986177727e+00 0 0 0
126 2 2.0266224828476513e+00 7.9190976587895774e+00 2.3221738261091889e+00 0 0 0
127 1 6.0346752370733565e+00 1.1038660062908081e+01 3.9381912583197103e+00 0 0 0
128 2 6.3561749890247237e+00 1.0393450749307123e+01 4.5889804722010439e+00 0 0 0
1468 1 1.3857129499823526e+00 3.1138866090649264e-01 2.2225402265102883e+01 0 0 0
130 1 3.3366885076223851e+00 1.0992575408060837e+01 3.6002810600843103e+00 0 0 0
131 2 2.8616628823469155e+00 1.0346444804946600e+01 4.1499923534355911e+00 0 0 0
132 2 2.7162770540671417e+00 1.1245217120192205e+01 2.8779461898618521e+00 0 0 0
133 1 1.5615085380274722e+00 9.2719541906080210e+00 4.8701606817335144e+00 0 0 0
134 2 1.5221788177331017e+00 9.7654023641853982e+00 5.7521109109018642e+00 0 0 0
135 2 7.5071724976212573e-01 9.5662052973628526e+00 4.4559499706807228e+00 0 0 0
625 1 4.8303946133445477e+00 1.2252633059141210e+01 6.3582633202542524e+00 0 0 0
139 1 4.5093843946975021e+00 9.4440978361207080e+00 5.3188776269796645e-01 0 0 0
140 2 4.5332687045971323e+00 1.0459826417139402e+01 7.2776287231804826e-01 0 0 0
141 2 5.2942069178938738e+00 9.0313546111147236e+00 8.5122172362693327e-01 0 0 0
142 1 1.5753673595743112e+00 1.1344399283061922e+01 1.5551696300326414e+00 0 0 0
143 2 1.6680570635596954e+00 1.0444248224274926e+01 1.1620263029502427e+00 0 0 0
144 2 1.3076733700197880e+00 1.1894139355488463e+01 7.8421742062316602e-01 0 0 0
1158 2 1.2230672114265666e+01 8.4515639015453434e+00 1.3018364235862784e+01 0 0 0
148 1 1.5498748617502598e+00 6.3970272292039487e+00 5.2463131024608787e+00 0 0 0
579 2 3.1318010579310701e-01 4.9638556575173887e+00 8.4558096087512702e+00 0 0 0
150 2 1.5223923463800839e+00 7.3901147560032445e+00 5.1568854740504584e+00 0 0 0
151 1 1.0700409759042392e+01 7.8266573570704514e+00 4.3391704740022670e+00 0 0 0
129 2 5.1184162231620807e+00 1.0861860512842929e+01 3.7877926316352690e+00 0 0 0
153 2 1.0863819091623336e+01 8.6922433669996710e+00 4.7605456626742004e+00 0 0 0
154 1 9.0615170282217523e+00 7.7518748392655743e+00 2.1376975404909309e+00 0 0 0
155 2 9.5453742359065910e+00 8.5070800090788570e+00 1.7248299654351562e+00 0 0 0
156 2 9.4645603765607813e+00 7.7683639244455218e+00 3.0873922625555439e+00 0 0 0
1018 1 7.7314309760247664e+00 3.5627627155361802e-01 1.6059981153506762e+01 0 0 0
158 2 1.1292452994752667e+01 1.1013940472290399e+01 3.5899030389667792e+00 0 0 0
160 1 9.6546649665299107e+00 1.0834423598591941e+01 3.7413598263505325e+00 0 0 0
161 2 9.1322599893607670e+00 1.0989416122330999e+01 2.9167005221034481e+00 0 0 0
1038 2 1.2338035358294402e+01 1.6100382331284460e+00 1.4514699767722149e+01 0 0 0
163 1 7.6265536428046756e+00 9.0814049816868714e+00 5.1241368838213726e+00 0 0 0
164 2 7.6228814863933101e+00 8.0811574186705553e+00 5.2356245521376197e+00 0 0 0
165 2 8.4393211054325477e+00 9.2771371843043671e+00 4.6242024313249699e+00 0 0 0
166 1 6.4445395100148763e+00 7.9070746777135366e+00 2.2333537056837720e+00 0 0 0
167 2 5.9289873408123501e+00 7.2076186760121219e+00 1.7542510962835978e+00 0 0 0
168 2 7.4472568416753750e+00 7.7589720805577587e+00 2.1089796260150000e+00 0 0 0
169 1 1.0822967431227546e+01 9.5010969521810598e+00 7.4954059430096120e-01 0 0 0
170 2 1.0857705228324690e+01 1.0483316315127720e+01 8.6202793112693243e-01 0 0 0
171 2 1.0633832348719979e+01 9.5756594528793215e+00 2.2563719744375998e+01 0 0 0
172 1 7.7501307025589181e+00 1.1003513912860546e+01 1.7651392829797268e+00 0 0 0
173 2 7.1191250646356021e+00 1.0774810563279022e+01 2.4775447543346143e+00 0 0 0
174 2 7.5380916273152199e+00 1.0258785740338064e+01 1.1545907776636182e+00 0 0 0
780 2 7.1141407148343490e+00 1.1999096553143600e+01 1.0049942753834006e+01 0 0 0
178 1 7.7592618114503393e+00 6.4229111286878524e+00 5.2103770590045455e+00 0 0 0
179 2 7.0257119590047745e+00 5.8512754143384687e+00 4.8945249922711609e+00 0 0 0
180 2 8.5816487459873247e+00 6.1323168572777735e+00 4.7290471223005488e+00 0 0 0
779 2 8.5792487082551219e+00 1.2199529082022817e+01 1.0228817106895196e+01 0 0 0
699 2 4.3132609292849178e-01 1.1313648085752920e+01 9.6207517236342088e+00 0 0 0
98 2 1.7638673733390065e-01 4.9347867562195145e+00 2.4894326218151606e+00 0 0 0
1589 2 1.1887028746553259e+00 6.4285458308194467e+00 2.0950865025648287e+01 0 0 0
1619 2 7.8610177179634135e+00 5.9330031305361048e+00 2.7501773113780287e-01 0 0 1
495 2 7.6048560979321467e-01 3.7274406645244627e+00 1.0404857779413893e+01 0 0 0
1618 1 7.6339694459399912e+00 6.6337286737651757e+00 2.2160063912795788e+01 0 0 0
988 1 1.5333499476027115e+00 4.6354836843933844e-01 1.6700096130729861e+01 0 0 0
749 2 1.6098320816069285e+00 1.1862413274870059e+01 1.1317335872410110e+01 0 0 0
481 1 4.7096041899083358e+00 1.7678588787559788e+00 9.9211634468091745e+00 0 0 0
482 2 4.6639907600206723e+00 8.8414446359735033e-01 1.0313111819458445e+01 0 0 0
483 2 5.4429291906246409e+00 1.8107756077707198e+00 9.3052336219511691e+00 0 0 0
484 1 3.1409403265974718e+00 1.7446928417621541e+00 7.7848071355876050e+00 0 0 0
485 2 3.6702127132829476e+00 1.9049800679124096e+00 8.6094500871387520e+00 0 0 0
486 2 2.1819690851704983e+00 1.8547432014918472e+00 7.9756849194668948e+00 0 0 0
487 1 6.1869198568241996e+00 4.7985117252515748e+00 9.3343361613743205e+00 0 0 0
488 2 5.2811006586342799e+00 4.8424679715251999e+00 9.3023367118593150e+00 0 0 0
489 2 6.4747049855019174e+00 4.0181241506974965e+00 9.8601800261033823e+00 0 0 0
490 1 3.3871587745474265e+00 4.6162211132067759e+00 9.1804148602582778e+00 0 0 0
491 2 2.9537847557167130e+00 3.8976005170174419e+00 9.6811974043750713e+00 0 0 0
492 2 3.0157152038050588e+00 5.3855132536269590e+00 9.6882026150369214e+00 0 0 0
493 1 1.4814588201567223e+00 3.3294600830923637e+00 1.0950760444398501e+01 0 0 0
494 2 1.6884734954126326e+00 3.9609356404803395e+00 1.1749310428478219e+01 0 0 0
1605 2 6.7940259506325198e+00 1.0074125185373711e+01 2.1584626833149731e+01 0 0 0
1613 2 7.8151082791558544e+00 1.1853017497182549e+01 1.7931884223974258e+01 0 0 0
499 1 4.7186257549262258e+00 3.4227811164607722e+00 6.3802439413106562e+00 0 0 0
500 2 3.9327199524396410e+00 3.3237931320890293e+00 6.9317418374762223e+00 0 0 0
501 2 4.4261417152640288e+00 2.8770485244324471e+00 5.6385934312098858e+00 0 0 0
502 1 1.4508490090935344e+00 4.7094873222724196e+00 7.1367349643234634e+00 0 0 0
503 2 2.1879315897759479e+00 4.7649473059648146e+00 7.7823175804525135e+00 0 0 0
504 2 1.4914401914321362e+00 5.4862222025167586e+00 6.5441448299043126e+00 0 0 0
505 1 5.0495133104539374e+00 6.1442041975493673e+00 6.2491788198408349e+00 0 0 0
506 2 4.9083298453918900e+00 5.2214218729982207e+00 6.0228444678671531e+00 0 0 0
507 2 4.7869161293066798e+00 6.6332408416856223e+00 5.4778258330823197e+00 0 0 0
5 2 3.6020842463955951e+00 8.2947501595670692e-01 1.4587794847047793e+00 0 0 0
509 2 1.2835245355268654e+00 1.5605848006713057e+00 1.1005480487929690e+01 0 0 0
511 1 1.0872951212115151e+01 1.6522998268433584e+00 9.9992579113820153e+00 0 0 0
512 2 1.0702888525810527e+01 8.9924494847035275e-01 1.0658417194605970e+01 0 0 0
513 2 1.0132926391466919e+01 1.7054581300541700e+00 9.3718515580372692e+00 0 0 0
514 1 9.0169715717802905e+00 1.6015190039634342e+00 7.9873467320159106e+00 0 0 0
515 2 8.0362091757653040e+00 1.7332656834201048e+00 7.8052288793583902e+00 0 0 0
1571 2 2.6894825453813342e+00 1.1740212426826035e+01 2.1329178299595018e+01 0 0 0
218 2 2.9800048945265034e-01 1.0702659214066886e+01 2.8898835954660749e+00 0 0 0
520 1 9.7688368865797006e+00 4.6711404135259285e+00 9.4691021081188165e+00 0 0 0
521 2 1.0672629644920132e+01 4.8458451037322350e+00 9.3718280282949102e+00 0 0 0
522 2 9.3648671612268437e+00 4.6691349894651317e+00 8.5804991195246814e+00 0 0 0
523 1 7.5660532009490504e+00 2.8974379633824006e+00 1.0331412731011456e+01 0 0 0
524 2 7.6111280778525758e+00 1.9030504195115148e+00 1.0410680665641124e+01 0 0 0
525 2 8.3644427033212718e+00 3.1021550473378232e+00 9.8830787474976560e+00 0 0 0
526 1 6.2687069375399131e+00 1.6823586525969541e+00 7.7182398949664197e+00 0 0 0
527 2 5.8763667616184598e+00 9.1971728202369851e-01 7.2402330557799699e+00 0 0 0
1827 2 4.1110007263843729e+00 8.3727395434107088e-01 1.8359905390674037e+01 0 0 0
529 1 1.0666410223973154e+01 3.2055972042020540e+00 6.3978146839605516e+00 0 0 0
530 2 9.9323599334008641e+00 3.1498243879234389e+00 7.0669920095168282e+00 0 0 0
58 1 7.4034255413127728e+00 2.7817202100442595e-01 5.0498399979696122e+00 0 0 0
532 1 7.9937484340797154e+00 4.3405788376787182e+00 7.1597945041113835e+00 0 0 0
533 2 7.7969382836071812e+00 5.1994784626731514e+00 6.6723015755873423e+00 0 0 0
534 2 7.3632278033886056e+00 4.3422012541602113e+00 7.8990759336781347e+00 0 0 0
535 1 1.1040453748575752e+01 6.0856355462806535e+00 6.4635073139525208e+00 0 0 0
536 2 1.0239416696804174e+01 6.5447142059606671e+00 6.7663330306430396e+00 0 0 0
300 2 7.1953692530381153e+00 1.2325561139872246e+01 4.4783558499465181e+00 0 0 0
1607 2 6.0721912280440451e+00 7.5216123204975061e+00 2.0021849211666339e+01 0 0 0
614 2 1.1626361071212084e+00 9.4050727077167764e+00 1.0244567704097301e+01 0 0 0
1472 2 1.1627884178642084e+01 1.7805878364973602e+00 2.0866897540598028e+01 0 0 0
1135 1 1.0789580116837879e+01 1.2344100556378175e+01 1.2174432589672808e+01 0 0 0
1612 1 7.6793676088202307e+00 1.1076828383632922e+01 1.8519617740389783e+01 0 0 0
601 1 4.7599017559236252e+00 7.3961566577037905e+00 9.8804209787056703e+00 0 0 0
602 2 5.5635215717223589e+00 7.5945010877799124e+00 9.3302746893637991e+00 0 0 0
603 2 4.6832659693979650e+00 8.2908332610117927e+00 1.0338299506021475e+01 0 0 0
604 1 3.0896497118966013e+00 7.4480189740137952e+00 7.6523191312173520e+00 0 0 0
605 2 3.2650400107986441e+00 7.2792489100171016e+00 8.5822315410023791e+00 0 0 0
606 2 3.7622308158655793e+00 6.9104657941286467e+00 7.1954736085395270e+00 0 0 0
607 1 6.2436854001526161e+00 1.0645687246159293e+01 9.3434208246314174e+00 0 0 0
608 2 6.7108860106174015e+00 1.0645795673015598e+01 8.4805308058967928e+00 0 0 0
609 2 6.7819960334170721e+00 1.0008370394307541e+01 9.8932812054650068e+00 0 0 0
610 1 3.6053311121459366e+00 1.0820534489752969e+01 9.1280989590306145e+00 0 0 0
611 2 3.4619420962234924e+00 1.1041167468181206e+01 8.2028381601377678e+00 0 0 0
612 2 4.5977374390498147e+00 1.0842785030605725e+01 9.2803828085149362e+00 0 0 0
613 1 1.9623496859421798e+00 8.9909629326795049e+00 1.0447346402171542e+01 0 0 0
1096 1 2.1293051499921012e-01 7.9730305267361912e+00 1.3525831088161608e+01 0 0 0
615 2 2.6627907105733297e+00 9.4846361381653281e+00 9.9277267736153583e+00 0 0 0
1092 2 2.6643212547895367e+00 1.1082040238604018e+01 1.4483681822425529e+01 0 0 0
618 2 1.1818140713602139e+00 7.6641646633429312e+00 7.6962591155692044e+00 0 0 0
619 1 4.6802035138792260e+00 9.6248571088182651e+00 6.3586042901845774e+00 0 0 0
620 2 4.9004549901538601e+00 9.1248824974235987e+00 5.5499084654031776e+00 0 0 0
621 2 4.0016786698519677e+00 9.1798512442013678e+00 6.8559432663800495e+00 0 0 0
622 1 2.0633040156247269e+00 1.0896108554959637e+01 6.9321277376487744e+00 0 0 0
623 2 1.3557998107540981e+00 1.0871739243154389e+01 7.5511848002491035e+00 0 0 0
624 2 1.8752831695397214e+00 1.1617629834274315e+01 6.2713632414847167e+00 0 0 0
897 2 1.1365245493261357e+01 1.6596296979023464e-01 6.8820397726487279e+00 0 0 0
626 2 4.7383073646857072e+00 1.1291602276720353e+01 6.1869080280713789e+00 0 0 0
628 1 1.8219253595110523e+00 6.4061266260485237e+00 1.0375093954675421e+01 0 0 0
629 2 1.7974623922321389e+00 5.9685581744756444e+00 1.1315291718988252e+01 0 0 0
630 2 1.9467869236333617e+00 7.3645511553537863e+00 1.0475207881801104e+01 0 0 0
631 1 1.0970617342749099e+01 7.9775691385321128e+00 1.0007333734639955e+01 0 0 0
632 2 1.0955322023340900e+01 7.2377629448935181e+00 1.0748917726010651e+01 0 0 0
633 2 1.1504803992868714e+01 7.6254240540135028e+00 9.2119050288502677e+00 0 0 0
634 1 9.2388176640698827e+00 7.6932403326969672e+00 7.6751021599467375e+00 0 0 0
635 2 9.5250153802436213e+00 7.8027659715393884e+00 8.6079913774307020e+00 0 0 0
636 2 8.2617328871032587e+00 7.9246873495842616e+00 7.6739796046492872e+00 0 0 0
748 1 1.5112962285938032e+00 1.2308234350136093e+01 1.0415248739236931e+01 0 0 0
639 2 1.1279117395164974e+01 1.0889212728366681e+01 9.3281278938304109e+00 0 0 0
640 1 9.5757414491933019e+00 1.0877375885863410e+01 9.2752498721500913e+00 0 0 0
641 2 9.0724473494540465e+00 1.0844472376536654e+01 8.4651934894486995e+00 0 0 0
642 2 9.1368293804936282e+00 1.0204053710645978e+01 9.8955646761954110e+00 0 0 0
643 1 8.1180060295819931e+00 9.2105419911272381e+00 1.0757272671171423e+01 0 0 0
644 2 8.2229750077028800e+00 8.2799761757798684e+00 1.0753443031568555e+01 0 0 0
645 2 8.1736781659260860e+00 9.6876161566645518e+00 1.1652007057513700e+01 0 0 0
646 1 6.4571493480082491e+00 7.7877571355384907e+00 7.8960850394677893e+00 0 0 0
647 2 6.1999642915600237e+00 7.0808881918465749e+00 7.2724079353312874e+00 0 0 0
648 2 5.9032779733596303e+00 8.5189097867048087e+00 7.5964746338814813e+00 0 0 0
649 1 1.0855429266183632e+01 9.6298782081287655e+00 6.3819417019305380e+00 0 0 0
650 2 1.0603854286539024e+01 1.0560512040570286e+01 6.4279400729246783e+00 0 0 0
651 2 1.0121999150136107e+01 9.0957890029445707e+00 6.7459121162431153e+00 0 0 0
652 1 7.8782543504637381e+00 1.0728535993673908e+01 7.1441428924583992e+00 0 0 0
653 2 7.7468271869162590e+00 9.8983772938125121e+00 6.5479923105709537e+00 0 0 0
867 2 3.9264194078328467e+00 5.7227811656970951e-01 6.8811419666030069e+00 0 0 0
1089 2 5.2170361205503415e+00 1.0778096280065649e+01 1.4812849063947363e+01 0 0 0
658 1 8.0281654145096581e+00 6.4544818018716983e+00 1.0565791081682542e+01 0 0 0
659 2 7.2105193779868415e+00 6.0461525532776292e+00 1.0219489336229973e+01 0 0 0
660 2 8.7619720267481167e+00 5.8811474858899375e+00 1.0195790704253001e+01 0 0 0
1610 2 1.0626206716498034e+01 9.2928065491589411e+00 1.7068976093185235e+01 0 0 0
1604 2 8.2534495972399178e+00 9.8851407404100744e+00 2.1832253792686313e+01 0 0 0
496 1 2.7044205228518703e-01 1.8603542725148920e+00 7.8634589153340810e+00 0 0 0
1376 2 1.1514275318783056e+01 2.7586110994459712e-01 1.2601606821054013e+01 0 0 0
1614 2 8.3137623821597710e+00 1.1114585551552095e+01 1.9248285693417653e+01 0 0 0
1611 2 1.1751733937612672e+01 9.1773925558404770e+00 1.8216815890352617e+01 0 0 0
1464 2 9.5973041193976205e-01 4.9246837176660909e+00 1.8954507532582753e+01 0 0 0
1616 2 1.0980703938732765e+01 1.1541062223482708e+01 1.7735639140591839e+01 0 0 0
1133 2 7.8321793557593198e+00 1.1354335315167544e+01 1.2162286215223910e+01 0 0 0
1456 1 1.0084392691716430e-01 1.7882367980817708e+00 1.9144792862707245e+01 0 0 0
961 1 4.5727123154365961e+00 1.6726175696011927e+00 1.5494861955156354e+01 0 0 0
962 2 4.5540979725919062e+00 2.4356691039295133e+00 1.6055232598291067e+01 0 0 0
1178 2 2.8889005827375874e-01 1.1507049986503960e+01 1.5620007921899754e+01 0 0 0
964 1 2.8756705628316772e+00 1.6602746232145478e+00 1.3412801959069787e+01 0 0 0
965 2 3.3069810765388308e+00 1.6141871947836894e+00 1.4303363997704421e+01 0 0 0
966 2 3.4526616063579563e+00 2.3294759976345394e+00 1.2961781340416596e+01 0 0 0
967 1 5.9469599402590321e+00 4.7778864840242790e+00 1.4894540986124357e+01 0 0 0
968 2 6.4435977459794529e+00 5.4772053317991869e+00 1.5417338671016557e+01 0 0 0
969 2 6.4972661554181830e+00 4.6442710301254051e+00 1.4022111090226627e+01 0 0 0
970 1 3.3332867470760759e+00 4.8752979228080546e+00 1.4998533087212593e+01 0 0 0
971 2 4.3133643747783612e+00 5.0397959277002951e+00 1.5062046078572255e+01 0 0 0
972 2 2.8665339004939892e+00 5.4682275701701704e+00 1.5633394075695151e+01 0 0 0
973 1 1.5305832926552596e+00 3.1358162960782199e+00 1.6262789928312383e+01 0 0 0
974 2 2.2455958979812936e+00 3.5351918057817238e+00 1.5761417885653064e+01 0 0 0
975 2 1.6124682865080235e+00 3.5371186124655156e+00 1.7142668372152244e+01 0 0 0
416 2 1.0812106036465055e+01 2.7217237896465124e-01 2.2492254917499078e+01 0 0 0
977 2 1.1198673117343656e+00 1.5385278123595092e+00 1.3436950419267562e+01 0 0 0
979 1 4.8416046663138781e+00 3.6206644647811452e+00 1.2109947627846331e+01 0 0 0
980 2 4.6484615443834407e+00 3.0407509817665508e+00 1.1362274850376334e+01 0 0 0
981 2 5.4941916178591024e+00 3.1325332235654790e+00 1.2656550679227827e+01 0 0 0
982 1 1.7178598255053752e+00 4.9275255619746492e+00 1.2909701172916566e+01 0 0 0
983 2 2.4742936406344804e+00 4.9966904045181293e+00 1.3619574709983429e+01 0 0 0
984 2 9.4358664799124137e-01 4.9009388288057885e+00 1.3518005678009349e+01 0 0 0
985 1 4.6198413357168766e+00 6.1370981544510670e+00 1.2315241629331856e+01 0 0 0
986 2 4.7646508941872199e+00 6.5584358442041566e+00 1.1406269557386670e+01 0 0 0
987 2 4.5801707723327230e+00 5.1010338591888971e+00 1.2207188628847621e+01 0 0 0
1117 1 1.2188101401687591e+01 1.1151752523383815e+01 1.5059794800519475e+01 0 0 0
989 2 1.5123722608420240e+00 1.4877611039696279e+00 1.6566462645275866e+01 0 0 0
991 1 1.0887307505488359e+01 2.0802757468682818e+00 1.5591118605668170e+01 0 0 0
992 2 1.0785047087811611e+01 1.3119946417457753e+00 1.6169762867690743e+01 0 0 0
993 2 1.0090962474687595e+01 2.1249163107822882e+00 1.5039507926315853e+01 0 0 0
994 1 8.9318194785002234e+00 1.8133161361047103e+00 1.3260723261743284e+01 0 0 0
995 2 9.4133120682211349e+00 1.0675652705428362e+00 1.2839600617134908e+01 0 0 0
996 2 9.4393763367701222e+00 2.5440804704071316e+00 1.2787754880417992e+01 0 0 0
1518 2 1.2021613345694320e+01 2.4523170686228610e+00 1.8884503600172785e+01 0 0 0
998 2 1.1332512948396502e+01 4.7413096487184152e+00 1.4953267363581913e+01 0 0 0
1000 1 9.4947207567786993e+00 4.7710956662069455e+00 1.4892269220672436e+01 0 0 0
1001 2 8.8752978525079858e+00 4.1646216006003378e+00 1.5328110079880092e+01 0 0 0
1002 2 8.8963145317103951e+00 5.0620454861329875e+00 1.4219955524513880e+01 0 0 0
1003 1 7.9234095484296585e+00 3.1322865000865838e+00 1.6218664172632067e+01 0 0 0
1004 2 6.9992762665322568e+00 3.4889150997519813e+00 1.6014493920750382e+01 0 0 0
1005 2 7.9758485790189857e+00 3.5146622341968468e+00 1.7132175837735339e+01 0 0 0
1006 1 6.2897770605924386e+00 1.9852965624793013e+00 1.3430592805385604e+01 0 0 0
1007 2 5.7898137874884288e+00 1.8847430599057962e+00 1.4237467678451011e+01 0 0 0
1008 2 7.2740795394213063e+00 1.8800765087060938e+00 1.3639540038542670e+01 0 0 0
1009 1 1.0891242663503443e+01 3.5560258267300395e+00 1.2046743340191906e+01 0 0 0
1010 2 1.1545688313811077e+01 3.0700557254192815e+00 1.2631366051360475e+01 0 0 0
1011 2 1.0835395617707311e+01 3.1229037365505707e+00 1.1158929006180326e+01 0 0 0
1012 1 7.7147853472416443e+00 4.8614669590159005e+00 1.2766407648680033e+01 0 0 0
1013 2 7.7169248487001667e+00 4.0108306089466099e+00 1.2201702287479920e+01 0 0 0
1014 2 7.9858030205363999e+00 5.4990303539332892e+00 1.2050486344483412e+01 0 0 0
1015 1 1.0910252820794932e+01 6.2212963462969402e+00 1.2020042131766203e+01 0 0 0
1016 2 1.0831022719783816e+01 5.2152322850452109e+00 1.1991504123104177e+01 0 0 0
1017 2 1.1612388087538733e+01 6.3438918604109755e+00 1.2676781343351525e+01 0 0 0
35 2 9.7295130199435906e+00 1.2166566100063829e+00 2.7216838306242384e+00 0 0 0
1019 2 7.7800998534269077e+00 1.3439115690776406e+00 1.6299151978200356e+01 0 0 0
1109 2 9.7790991282913586e-01 6.1891568235696539e+00 1.6028522723277014e+01 0 0 0
1602 2 9.0657905821482530e+00 1.2062366521852207e+01 2.1235783337647902e+01 0 0 0
1081 1 4.6864849510586044e+00 7.9979055701200368e+00 1.5418410887203910e+01 0 0 0
1082 2 5.4463989918495814e+00 7.7501011104420554e+00 1.4863368802519666e+01 0 0 0
1083 2 4.5802346032877139e+00 7.2222589717679933e+00 1.6086718454962032e+01 0 0 0
1084 1 2.9154646767435928e+00 7.8608536161535216e+00 1.3442900319272452e+01 0 0 0
1085 2 3.4409668232570207e+00 7.9598962873316470e+00 1.4271940903145426e+01 0 0 0
1086 2 3.3161820189361451e+00 7.0888773692624811e+00 1.2937702706585991e+01 0 0 0
1087 1 6.1863937813688974e+00 1.0834116082741016e+01 1.4768985235925081e+01 0 0 0
1088 2 6.5974275269802636e+00 1.0143439354466866e+01 1.5403393864188400e+01 0 0 0
1710 2 5.6453149644514133e-01 1.2031414377211725e+01 2.1611855795306344e+01 0 0 0
1090 1 3.3409727302440912e+00 1.1088537919428660e+01 1.5228694076834612e+01 0 0 0
1091 2 3.0359831354252904e+00 1.0355023146801932e+01 1.5798774529928943e+01 0 0 0
1260 2 7.2760261438229978e+00 1.2391514483644125e+01 1.5603475645159371e+01 0 0 0
1093 1 1.5851878701865150e+00 9.1936749460319689e+00 1.6784203354818967e+01 0 0 0
1094 2 1.5361269717259713e+00 8.1835264719491008e+00 1.6748092426616989e+01 0 0 0
1095 2 1.0150517437368294e+00 9.4704771612413605e+00 1.6006230901703837e+01 0 0 0
269 2 2.2500652721155205e+00 1.2206479770313058e+01 4.3763747390095924e+00 0 0 0
1097 2 1.1697223103652157e+00 8.1049591027493690e+00 1.3351343395688877e+01 0 0 0
1099 1 4.8125858768860370e+00 9.2517439825305559e+00 1.2123901061452012e+01 0 0 0
1100 2 3.9813950793875539e+00 8.8542776955859299e+00 1.2369371772560637e+01 0 0 0
1101 2 4.7872614245283520e+00 1.0184630904433611e+01 1.1977810275091596e+01 0 0 0
1102 1 1.6029521753256897e+00 1.0996666185903596e+01 1.2753422583893853e+01 0 0 0
1103 2 1.7995716618321818e+00 1.0060215891038439e+01 1.2502963521639460e+01 0 0 0
1104 2 9.5678793717106536e-01 1.0878626041810719e+01 1.3497827802101929e+01 0 0 0
219 2 1.1650677074601697e-01 1.1570393469163584e+01 4.0470940015346697e+00 0 0 0
1108 1 1.7232186871290545e+00 6.6040275252830138e+00 1.6459674331077991e+01 0 0 0
1598 2 1.2182573310331003e+01 1.0950860707730735e+01 2.0265766176675228e+01 0 0 0
1110 2 1.7112779888599607e+00 6.1227304499033997e+00 1.7336610046672739e+01 0 0 0
1111 1 1.0739483035149441e+01 7.9030074395145835e+00 1.5504458716603271e+01 0 0 0
1112 2 1.1550300913550139e+01 7.8676368144027000e+00 1.4959835721127238e+01 0 0 0
1113 2 1.0046568846213010e+01 8.0940874090942092e+00 1.4854113949729669e+01 0 0 0
1114 1 9.1391502202517927e+00 7.9205757894101154e+00 1.3445158617914819e+01 0 0 0
1115 2 9.5885986841495363e+00 7.2388904197766628e+00 1.2883095207190964e+01 0 0 0
1116 2 8.2080486841152531e+00 7.6174807724823159e+00 1.3526720875599416e+01 0 0 0
33 2 1.1505010234328465e+01 1.3911839631492082e+00 4.0409367385530466e+00 0 0 0
1120 1 9.5854687302481683e+00 1.0862588720783927e+01 1.5107317840156508e+01 0 0 0
1121 2 9.2430899905410815e+00 1.0738396331758489e+01 1.4213199298889307e+01 0 0 0
1122 2 1.0564674606854263e+01 1.0926664106082612e+01 1.5095632443904810e+01 0 0 0
1123 1 7.7716341977743113e+00 9.2301162314046437e+00 1.6444720901684246e+01 0 0 0
1124 2 8.4361215072892488e+00 9.8110685279171594e+00 1.5925968292184365e+01 0 0 0
1125 2 7.7017222782644144e+00 9.7078112216637962e+00 1.7370036044981227e+01 0 0 0
1126 1 6.5163531008503925e+00 7.6297276869926893e+00 1.3509436103477116e+01 0 0 0
1127 2 6.0432222539323845e+00 6.8633930844285693e+00 1.3177987051140590e+01 0 0 0
1128 2 6.0509074831978529e+00 8.3963666838615154e+00 1.3148085634965609e+01 0 0 0
1129 1 1.0914794165253314e+01 9.6137269256207709e+00 1.2110900501884391e+01 0 0 0
1130 2 1.0200990715196800e+01 9.2098828509196267e+00 1.2634570957281493e+01 0 0 0
1131 2 1.0961820741910982e+01 9.2127476797867160e+00 1.1178828811030142e+01 0 0 0
1132 1 8.0806283703156598e+00 1.0636483171135888e+01 1.2802926928542174e+01 0 0 0
976 1 1.4153404683467508e-01 1.6349246801710722e+00 1.3502214542332295e+01 0 0 0
1134 2 7.2638988940625806e+00 1.0665611857850962e+01 1.3382260693969958e+01 0 0 0
516 2 9.2623943543035807e+00 8.2975094550719386e-01 7.5407300650910640e+00 0 0 0
1137 2 1.0843488063615402e+01 1.1332175860104362e+01 1.2196762604708459e+01 0 0 0
1138 1 7.6415202855945825e+00 6.4484093191922280e+00 1.6389678073498104e+01 0 0 0
1139 2 7.6138926748920586e+00 7.4532570670198570e+00 1.6363869867778693e+01 0 0 0
1140 2 8.5075775725251255e+00 6.2050090611772113e+00 1.6043275842996973e+01 0 0 0
1105 1 4.5622794310209596e+00 1.2067442131783016e+01 1.2275556936148476e+01 0 0 0
386 2 5.5959788704717752e+00 2.0903358876668784e-01 1.5049546312489654e+00 0 0 0
77 2 1.1994207193656182e+01 6.8340964108550384e-01 1.5566015714220902e+00 0 0 0
152 2 1.1520399064866258e+01 7.6556556990030584e+00 3.8677964414953645e+00 0 0 0
162 2 9.1250739165780956e+00 1.1474943256200815e+01 4.2990211115794876e+00 0 0 0
136 1 1.6800898611715440e-01 7.7971743923905779e+00 2.1922432531102256e+00 0 0 0
1606 1 6.4446661252574540e+00 7.7984801018643433e+00 1.9131713038495530e+01 0 0 0
1739 2 6.9218811961136906e+00 1.2261596418819344e+01 2.1846704322744529e+01 0 0 0
537 2 1.1014420811632933e+01 6.3198463240379859e+00 5.5093024309082974e+00 0 0 0
1441 1 4.7981543272102654e+00 1.5738460383795874e+00 2.1485488520666358e+01 0 0 0
16 1 4.1315680594783782e-01 1.5477905203199451e+00 1.9234434986514213e+00 0 0 0
1443 2 4.9153560956908109e+00 2.3727320770672016e+00 2.1976744548242955e+01 0 0 0