LAMMPS data file via write_data, version 15 Apr 2020, timestep = 500000

3072 atoms
2 atom types

1.4737463045914012e-01 2.9992819369536754e+01 xlo xhi
1.1850770504730335e-01 2.8221958294950348e+01 ylo yhi
1.0962046139824722e-01 2.7301824538598204e+01 zlo zhi
1.0132229861005888e+01 1.0191348724211750e+01 7.0998681576510396e+00 xy xz yz

Masses

1 16
2 2

Atoms # atomic

1 1 7.5563791363143178e+00 5.4941420182109475e+00 4.1082125535808665e+00 0 0 0
2 2 6.6779077076210189e+00 5.1319422627044249e+00 3.9398452647036910e+00 0 0 0
3 2 7.3770896684831992e+00 6.3233629392271942e+00 4.6924646889087001e+00 0 0 0
4 1 1.0233209296081686e+01 6.9508813381679246e+00 1.0847170272306533e+01 0 0 0
5 2 1.0596006088021930e+01 6.7142316749477429e+00 1.1724521859846014e+01 0 0 0
6 2 9.8491218106631457e+00 7.8554392939195825e+00 1.0995509342233312e+01 0 0 0
7 1 9.7386651623672051e+00 1.2233380890356960e+01 3.9658700688629862e+00 0 0 0
8 2 1.0313009454550986e+01 1.1779713531419876e+01 4.5722886562850675e+00 0 0 0
9 2 9.5139221391467750e+00 1.3031958389184629e+01 4.4469432288930406e+00 0 0 0
10 1 1.2456135401213858e+01 1.3922441518940127e+01 1.0978820561860889e+01 0 0 0
11 2 1.3189774928190698e+01 1.3971605673241058e+01 1.0307568815233049e+01 0 0 0
12 2 1.1767640388357473e+01 1.3357900075683641e+01 1.0451596032675543e+01 0 0 0
13 1 1.5037915171599760e+01 5.2018424343165259e+00 4.0933360423429264e+00 0 0 0
14 2 1.5410740504718031e+01 4.5721098671965903e+00 4.7015497020678074e+00 0 0 0
15 2 1.4808979137567663e+01 5.8775682427390201e+00 4.7649417883775778e+00 0 0 0
16 1 1.7883027912259379e+01 6.8394090094045747e+00 1.0863464518485097e+01 0 0 0
17 2 1.8283412310540484e+01 6.2601295569659836e+00 1.1543158313375898e+01 0 0 0
18 2 1.8660835859591529e+01 7.0988175502595805e+00 1.0391421139757213e+01 0 0 0
19 1 1.7601005164526960e+01 1.2439269436281013e+01 4.0624947706455732e+00 0 0 0
20 2 1.8388428078769298e+01 1.2673446187764961e+01 3.5395489063473620e+00 0 0 0
21 2 1.7900308789636121e+01 1.2175918708559387e+01 4.9681372701239352e+00 0 0 0
22 1 1.9988531581996341e+01 1.3809550457227136e+01 1.1032081735682429e+01 0 0 0
23 2 2.0694738908317142e+01 1.4217324970690500e+01 1.0443955751863660e+01 0 0 0
24 2 1.9467832329823228e+01 1.4622784079024568e+01 1.1221124392737506e+01 0 0 0
25 1 1.1848708640361409e+01 8.1028453095218449e+00 6.4286812491748151e+00 0 0 0
26 2 1.1119842541540811e+01 8.7083810806819137e+00 6.1253273756311124e+00 0 0 0
27 2 1.1411259605017834e+01 7.4377003925689813e+00 6.9758797669452557e+00 0 0 0
28 1 1.4059956598050599e+01 9.9636496458839297e+00 1.3004779822737000e+01 0 0 0
29 2 1.4421931885599960e+01 9.4453766715522285e+00 1.2245696790205011e+01 0 0 0
30 2 1.3305065120342721e+01 1.0464073331722641e+01 1.2654426855893348e+01 0 0 0
31 1 1.4302768291883918e+01 1.5151502030856710e+01 6.3872451287326717e+00 0 0 0
32 2 1.4602022607486887e+01 1.4438065400228684e+01 5.7872595493663308e+00 0 0 0
33 2 1.3510333015626674e+01 1.5573383881260838e+01 6.0338168617224355e+00 0 0 0
73 1 1.1255216091913298e+00 1.0423122614325968e+00 5.6954222532851229e-01 0 0 0
35 2 1.5945280934813097e+01 1.7229414930460905e+01 1.3089705937079547e+01 0 0 0
1141 1 1.9683809839589493e+01 2.1572459596931868e+01 5.0966921148477562e+00 0 0 0
37 1 1.9098838566283344e+01 8.1540870666799972e+00 6.3244330432418945e+00 0 0 0
38 2 1.8243534383734790e+01 8.5453660812191607e+00 6.1006952128899252e+00 0 0 0
39 2 1.8764926212260413e+01 7.4440713707348340e+00 6.9453191304513178e+00 0 0 0
323 2 8.1854012426357432e+00 1.3882594690627613e+01 8.2594870470472745e+00 0 0 0
978 2 2.3515890731229902e+01 1.7626648031991468e+01 9.1572784550032953e+00 0 0 0
42 2 2.0719287452013937e+01 1.0375556050855147e+01 1.2938946300930670e+01 0 0 0
804 2 2.2262009538380315e+01 3.1398582358973979e+01 1.3411968954677475e+01 0 0 0
44 2 2.0898962056016440e+01 1.5549623684525216e+01 6.0074050828557297e+00 0 0 0
1152 2 1.3912836400614374e+01 3.3153748777385994e+00 1.1675697341194821e+01 0 1 0
46 1 2.4293122994934595e+01 1.7115539436930860e+01 1.2992034188306130e+01 0 0 0
47 2 2.3606056544056493e+01 1.7737766340632113e+01 1.2684321540799184e+01 0 0 0
860 2 1.5630683983588012e+01 2.1514480763640400e+01 2.8770395652281661e-01 0 0 0
49 1 5.3741953531766553e+00 4.0834125109570802e+00 3.0281190460946972e+00 0 0 0
50 2 5.5713468792350280e+00 3.1043823125139323e+00 2.8252104931051267e+00 0 0 0
51 2 4.5466498187851112e+00 3.8603116329393843e+00 3.5768106933686310e+00 0 0 0
52 1 7.8623931329704195e+00 5.2506656567042693e+00 9.8443479243322471e+00 0 0 0
53 2 7.5781172397762830e+00 5.8453683076256873e+00 9.1146339342194871e+00 0 0 0
54 2 8.6679683021555647e+00 5.6959551879017054e+00 1.0130314405734332e+01 0 0 0
55 1 7.7828665489807065e+00 1.0754807023523252e+01 3.0459072970127203e+00 0 0 0
56 2 8.3144988868908616e+00 9.9557896283607175e+00 2.7380203453084606e+00 0 0 0
57 2 8.5036446248923259e+00 1.1419355651257847e+01 3.4761670026918137e+00 0 0 0
58 1 1.0244563630320592e+01 1.2498153020363631e+01 9.7726376308083189e+00 0 0 0
59 2 9.9139234257321114e+00 1.2884218917486352e+01 8.8979334114971689e+00 0 0 0
60 2 1.0505753345533860e+01 1.1568992749114100e+01 9.4822118864565006e+00 0 0 0
61 1 1.2964431878332782e+01 3.6379579258195625e+00 2.7732464224327442e+00 0 0 0
62 2 1.3678715421831152e+01 4.2036209372434090e+00 3.1988262942545669e+00 0 0 0
63 2 1.2439270560954240e+01 4.1726346433989931e+00 2.0851634387476770e+00 0 0 0
64 1 1.5213634720219101e+01 5.4384499182512602e+00 9.6065936294418623e+00 0 0 0
65 2 1.6005806733588003e+01 5.8175396559734009e+00 9.9388097149918462e+00 0 0 0
66 2 1.5356526437665183e+01 4.5616857765008145e+00 9.2457848887985215e+00 0 0 0
67 1 1.5396841263567470e+01 1.0666341383229469e+01 3.0617227338214534e+00 0 0 0
68 2 1.6202823556192289e+01 1.1207326668144601e+01 3.1439936775458475e+00 0 0 0
69 2 1.5596230063435836e+01 9.7168953468464814e+00 2.9083754674083755e+00 0 0 0
70 1 1.7844510528434700e+01 1.2430226431992963e+01 9.4478299664026046e+00 0 0 0
71 2 1.7640707262120848e+01 1.2804845791990783e+01 8.5951126017008566e+00 0 0 0
72 2 1.8428894439822940e+01 1.3022134946108817e+01 9.9427012622622701e+00 0 0 0
1226 2 2.0927643993965816e+01 1.5406035765986500e+01 1.4177920177441465e+00 0 0 0
279 2 1.7392142040654445e+01 5.6521598228867411e+00 2.0178445837809429e+00 0 0 0
1131 2 1.2366663910547937e+01 2.1045911018107553e+01 4.4921112579982481e+00 0 0 0
107 2 1.0436624798093654e+01 1.3949410405258831e+01 1.3447818998625353e+01 0 0 0
77 2 4.4656932928412250e+00 2.1921802869245557e+00 7.5859158548932450e+00 0 0 0
1151 2 2.4463662934980825e+01 3.0366676063553747e+01 1.2745912901116508e+01 0 0 0
953 2 2.4567147507322062e+01 2.1126438719512020e+01 1.3567251826257079e+01 0 0 0
1089 2 1.1376601497517790e+01 2.5172563573560300e+01 3.5709566086836497e-01 0 0 0
81 2 4.4723172760171090e+00 7.4339972195604576e+00 6.2602467740646295e-01 0 0 0
82 1 6.4315157503211893e+00 9.6733600264827917e+00 7.5734474467672692e+00 0 0 0
1142 2 1.9062918313678441e+01 2.2153661838183805e+01 4.6768356336690848e+00 0 0 0
84 2 7.0921281388247657e+00 9.1099715294977877e+00 7.9187648306338003e+00 0 0 0
85 1 8.4800030154366581e+00 1.1313579314677282e+00 6.1508262601629837e-01 0 0 0
40 1 2.1599929579676491e+01 9.9540014872336862e+00 1.3167430733267524e+01 0 0 0
87 2 8.4125836240366088e+00 1.6939643983121544e+00 1.4327337957499464e+00 0 0 0
88 1 1.1102599515180103e+01 2.7967109049726449e+00 7.4141869002433225e+00 0 0 0
89 2 1.1844421899763734e+01 2.2556225757274762e+00 7.7119669775965365e+00 0 0 0
90 2 1.1584511626922094e+01 3.4112052574162952e+00 6.9083663570215830e+00 0 0 0
114 2 1.4575901812937802e+01 5.6342739449041783e+00 1.3216716066713371e+01 0 0 0
215 2 2.1797455806582157e+01 1.1724976090025269e+01 1.0121715096722919e+01 0 0 0
93 2 1.2048093911354414e+01 7.7611178070962019e+00 8.8893560269602834e-01 0 0 0
94 1 1.3702888907111696e+01 9.6750923561601159e+00 7.5754312463497042e+00 0 0 0
95 2 1.4484578331887072e+01 9.2371196951129235e+00 7.9589379549802439e+00 0 0 0
96 2 1.3067523789034464e+01 8.9273202901273443e+00 7.3102085894829916e+00 0 0 0
97 1 5.4921328987990687e+00 4.6190936374855163e+00 6.2081014157444470e+00 0 0 0
98 2 6.0100401750873917e+00 5.1740725906251983e+00 6.7989610736408270e+00 0 0 0
99 2 4.8326696016175656e+00 4.1577282045281896e+00 6.6770827990661310e+00 0 0 0
100 1 8.0647482021324315e+00 6.2261582961677240e+00 1.3041091743514947e+01 0 0 0
101 2 7.7746622418105655e+00 6.7141885995464197e+00 1.2271337129894246e+01 0 0 0
102 2 8.6426000586155887e+00 5.4574348692128689e+00 1.2732716875945838e+01 0 0 0
103 1 8.0635066610368433e+00 1.1226557468729389e+01 6.4095073629424721e+00 0 0 0
104 2 7.6262006788195933e+00 1.1559180493947107e+01 5.6299432365608952e+00 0 0 0
105 2 7.2623420258018694e+00 1.0799403661939953e+01 6.8362743133187873e+00 0 0 0
106 1 9.9990178214182244e+00 1.3226323841038186e+01 1.2939155042796653e+01 0 0 0
1140 2 1.8359215017658638e+01 3.1019706901627853e+01 1.2411910993208348e+01 0 0 0
108 2 1.0791899406686849e+01 1.2659745757125295e+01 1.2748269685708772e+01 0 0 0
109 1 1.2719315108678913e+01 4.5363679589020212e+00 6.1673259495328754e+00 0 0 0
110 2 1.3244327444061144e+01 3.8636534352732141e+00 5.6617873867114579e+00 0 0 0
111 2 1.2444404923044790e+01 5.1319143019649065e+00 5.3950249223702293e+00 0 0 0
112 1 1.5309133610035060e+01 6.2180612952476650e+00 1.2834031288358787e+01 0 0 0
796 1 1.9059539567432374e+01 2.3999888325128165e+01 1.3168941436362264e+01 0 0 0
212 2 1.8592849034850332e+01 8.8639668721734211e+00 2.0457650509980101e+00 0 0 0
115 1 1.5643814858195446e+01 1.1292582718821286e+01 5.9212976527806163e+00 0 0 0
116 2 1.4887013737537274e+01 1.0932983103752647e+01 6.3749260110136374e+00 0 0 0
117 2 1.5940432957833758e+01 1.2114146401599625e+01 6.4366666272179183e+00 0 0 0
118 1 1.7869850987757346e+01 1.3244911725387171e+01 1.3089751811871269e+01 0 0 0
842 2 5.5303812554416627e+00 1.4476919152566095e+01 2.2205073723651805e-01 0 0 0
120 2 1.7299223185960898e+01 1.3529929999746138e+01 1.2373665122718133e+01 0 0 0
121 1 3.1289015997492422e+00 3.1138949470889172e+00 4.2271770913362881e+00 0 0 0
1150 1 2.4617804283699353e+01 3.0685643445075467e+01 1.1871898395717114e+01 0 0 0
123 2 3.4480926431672092e+00 2.3016188738904768e+00 4.6092864705134282e+00 0 0 0
124 1 5.8771913401505005e+00 4.5421479307539068e+00 1.1204584515788794e+01 0 0 0
125 2 6.6960259515489380e+00 4.8628245880881531e+00 1.0775167942735642e+01 0 0 0
126 2 6.1194003661416243e+00 3.7626991051972514e+00 1.1724934301434676e+01 0 0 0
127 1 5.8410812131349656e+00 9.7900347866959709e+00 4.4538538924007955e+00 0 0 0
1134 2 1.4600604811239634e+01 2.3097990173168832e+01 1.2945524124481064e+01 0 0 0
129 2 6.3848185455348982e+00 1.0331905780159188e+01 3.8146014662798176e+00 0 0 0
130 1 7.9393720450538119e+00 1.1692571747442658e+01 1.1275507251949676e+01 0 0 0
1022 2 1.9757371093151100e+01 1.7877182817535132e+01 2.7765140233059693e-01 0 0 0
132 2 8.7809072422554131e+00 1.1961675652419700e+01 1.0822627048397214e+01 0 0 0
133 1 1.0671943900075972e+01 2.9207618801553106e+00 4.0385166188408110e+00 0 0 0
134 2 1.0857948412318750e+01 1.9959382534856762e+00 4.3101503044117679e+00 0 0 0
135 2 1.1589202247925671e+01 3.1124821749609439e+00 3.6697260554247468e+00 0 0 0
136 1 1.2776235041381664e+01 5.0170918112491503e+00 1.1304772686631988e+01 0 0 0
137 2 1.3651443929589473e+01 5.3145249070216209e+00 1.1009587246819871e+01 0 0 0
138 2 1.2627059299343060e+01 5.5811450406087610e+00 1.2106462217203251e+01 0 0 0
139 1 1.3027150992849027e+01 9.9041914959392869e+00 4.4413820084596045e+00 0 0 0
140 2 1.3735859156658192e+01 1.0216709510127959e+01 3.8029571757770650e+00 0 0 0
141 2 1.3388056595510175e+01 9.0611954487555657e+00 4.8546069732187371e+00 0 0 0
142 1 1.5728981620886811e+01 1.1373466504592850e+01 1.0969082697997747e+01 0 0 0
143 2 1.6473972044735252e+01 1.1771239762007262e+01 1.0472490066231940e+01 0 0 0
144 2 1.6046536675359857e+01 1.0505708649682269e+01 1.1154884334865020e+01 0 0 0
145 1 6.8091440763880549e+00 2.4226648943863198e+00 5.2460075292863921e+00 0 0 0
146 2 7.6445416189765130e+00 2.1511061059463055e+00 5.7655989038601305e+00 0 0 0
147 2 6.4364725995865211e+00 3.2317002881911745e+00 5.6763322638886153e+00 0 0 0
148 1 9.4160730215430881e+00 4.2604280604705185e+00 1.2124868406985174e+01 0 0 0
149 2 9.8168497567514663e+00 4.2644158875784939e+00 1.1211029190080453e+01 0 0 0
150 2 1.0250989057577216e+01 3.9189047249679008e+00 1.2623936414321570e+01 0 0 0
151 1 9.3664002111589255e+00 8.9615017103719978e+00 5.4419059590486416e+00 0 0 0
152 2 8.9675325809587143e+00 9.7817114900155229e+00 5.8775178303831641e+00 0 0 0
153 2 9.6352655782973464e+00 9.2432116594130900e+00 4.5615427995830506e+00 0 0 0
154 1 1.1981668853411946e+01 1.1102982153076912e+01 1.1985483954391061e+01 0 0 0
155 2 1.1130764943890753e+01 1.0695060911252485e+01 1.2196570765509273e+01 0 0 0
156 2 1.2094546417709868e+01 1.1064760574280122e+01 1.1006521908550589e+01 0 0 0
157 1 1.4602959086736698e+01 2.3229908756359725e+00 5.0582920317197910e+00 0 0 0
158 2 1.5366735822612046e+01 1.9777788620742585e+00 5.5498150418128587e+00 0 0 0
159 2 1.4978456049234872e+01 2.4665740881343234e+00 4.1288891695993915e+00 0 0 0
160 1 1.7051128298452852e+01 4.0262419538957985e+00 1.2015596748837785e+01 0 0 0
161 2 1.6761025224590092e+01 4.7774552921037516e+00 1.2535497945871645e+01 0 0 0
162 2 1.6256139589827008e+01 3.4868126435330105e+00 1.1993383899003462e+01 0 0 0
163 1 1.7045887924346157e+01 9.1286582826524914e+00 4.9661762713746125e+00 0 0 0
164 2 1.6836345801265299e+01 1.0082848297276673e+01 5.0076325496366048e+00 0 0 0
165 2 1.7683897716861477e+01 9.1197188274410905e+00 4.2309933263945103e+00 0 0 0
166 1 1.9538083505663202e+01 1.1036795408259863e+01 1.1899272107364760e+01 0 0 0
167 2 1.9049974039188026e+01 1.1767240136389077e+01 1.2324556331497437e+01 0 0 0
168 2 1.9968584359907673e+01 1.1326865528011918e+01 1.1102743783956321e+01 0 0 0
169 1 9.1127282525610571e+00 4.4832243482387053e+00 5.9352597170724692e+00 0 0 0
170 2 9.7712446734708287e+00 3.9586091161492285e+00 5.4223849473443533e+00 0 0 0
171 2 8.4886033410831772e+00 4.8310885748113357e+00 5.2224461804667772e+00 0 0 0
172 1 1.1523496883366246e+01 6.1758590007677903e+00 1.3325960654584973e+01 0 0 0
422 2 4.6336936710354211e+00 7.5556488648454003e+00 5.5821452224535326e+00 1 0 0
940 1 1.6340705267023388e+01 2.0246448024780349e+01 1.2911816787911894e+01 0 0 0
175 1 1.1373036464913131e+01 1.1425174128954499e+01 6.3532058054469340e+00 0 0 0
176 2 1.2184624065414553e+01 1.1155543860628576e+01 5.8970977222887617e+00 0 0 0
177 2 1.1663088201605198e+01 1.2317656865633614e+01 6.6367384351014271e+00 0 0 0
178 1 1.4142462066037563e+01 1.3098680511494512e+01 1.2890413966932433e+01 0 0 0
179 2 1.3508453561548839e+01 1.3334109732301538e+01 1.2200449416268864e+01 0 0 0
180 2 1.4728835234873443e+01 1.2425644279012223e+01 1.2500816087587379e+01 0 0 0
181 1 1.6864555820256353e+01 4.5590433138563924e+00 6.2191449770345404e+00 0 0 0
182 2 1.7572330036477538e+01 4.0982530597482931e+00 5.7214087597640111e+00 0 0 0
183 2 1.7201636555634739e+01 5.3010773122305146e+00 6.6995124630760543e+00 0 0 0
184 1 1.9026640795215950e+01 5.8691049821389143e+00 1.2974101989081824e+01 0 0 0
1577 2 1.6256131232749510e+01 5.8119297565228853e+00 1.8636351849332367e-01 0 0 1
327 2 1.0590388310069519e+01 4.1366890435752719e+00 2.5207626726482202e-01 0 0 0
187 1 1.9084619517639183e+01 1.1361810696187291e+01 6.1420306281828481e+00 0 0 0
188 2 1.8802650937495418e+01 1.0845994225356193e+01 6.9159188031779886e+00 0 0 0
189 2 1.9585705837608828e+01 1.2106721102607464e+01 6.4762391316551851e+00 0 0 0
190 1 2.1499602678707863e+01 1.3316029880778853e+01 1.3151963796010746e+01 0 0 0
1127 2 2.0978467587634494e+01 2.9221274742611506e+01 9.9437070160307925e+00 0 0 0
192 2 2.0830501998719981e+01 1.3506385079592160e+01 1.2392673707817842e+01 0 0 0
193 1 8.3353103876981987e+00 2.7570961796820912e+00 2.7944144793167944e+00 0 0 0
194 2 7.5748153255902153e+00 2.6019485605744133e+00 3.3858284190859860e+00 0 0 0
195 2 9.1615814410425855e+00 2.9125389668039778e+00 3.3940518681584315e+00 0 0 0
196 1 1.0822876563985844e+01 4.2492165884830140e+00 9.7027397880461432e+00 0 0 0
197 2 1.1031643108956622e+01 3.5372402783257657e+00 9.0158228945245877e+00 0 0 0
198 2 1.1658794142187539e+01 4.3406389417708233e+00 1.0151892270095205e+01 0 0 0
199 1 1.0790374739880320e+01 9.7336077641533603e+00 2.7759847113501106e+00 0 0 0
200 2 1.0881595854498954e+01 9.0699005194719984e+00 2.0145093451718648e+00 0 0 0
201 2 1.1642405787003693e+01 9.6692855877805499e+00 3.2322325260902676e+00 0 0 0
202 1 1.3324123630062150e+01 1.1507909305465049e+01 9.5205428911493080e+00 0 0 0
203 2 1.4225184017081226e+01 1.1381302393456062e+01 9.9419313418184476e+00 0 0 0
204 2 1.3333433122345866e+01 1.0987010176246256e+01 8.6941314188960241e+00 0 0 0
205 1 1.5817986498760517e+01 2.8017708551561147e+00 2.5172537747290389e+00 0 0 0
113 2 1.5683200598495912e+01 6.7862867559878852e+00 1.3538893045746185e+01 0 0 0
1130 2 1.3040502566864584e+01 2.2319983438312217e+01 4.9210108524449172e+00 0 0 0
208 1 1.8892307472577706e+01 4.3079744478453614e+00 9.5199501135427056e+00 0 0 0
209 2 1.8335598943879994e+01 4.5370614760341370e+00 1.0276710292345467e+01 0 0 0
1101 2 1.9196463496554909e+01 2.6496106839158351e+01 2.0062173817139298e-01 0 0 0
211 1 1.8723535621838593e+01 9.5556477981463139e+00 2.7097927052504160e+00 0 0 0
320 2 5.8721676306482813e+00 1.1333279346467055e+01 3.2210025348843868e-01 0 0 0
213 2 1.8528947634343020e+01 1.0397728234700777e+01 2.2274955903150278e+00 0 0 0
214 1 2.1066666191278081e+01 1.1723423427159556e+01 9.4729808842416343e+00 0 0 0
79 1 3.7136430611920570e+00 8.0856715962084529e+00 5.2019075952721283e-01 0 0 0
886 1 2.2586148836179987e+01 2.7404869808551197e+01 1.2746782412154415e+01 0 0 0
217 1 5.7432985494448339e+00 1.5790752701771860e+00 2.1670590569756323e+00 0 0 0
218 2 4.9097279548695854e+00 1.0784358831402781e+00 2.0774621089490513e+00 0 0 0
219 2 5.8485313909644923e+00 1.8612179668547468e+00 1.2262408766383637e+00 0 0 0
220 1 8.0981005997768456e+00 3.1613455592926227e+00 8.3529911832659050e+00 0 0 0
221 2 8.1692551304372163e+00 3.9578927364643346e+00 8.9273623961654138e+00 0 0 0
222 2 8.4833264501122567e+00 3.5525442314566709e+00 7.5088286758309719e+00 0 0 0
223 1 8.2861096842309152e+00 8.5172379805061347e+00 1.8433830358557339e+00 0 0 0
224 2 8.8343806625180079e+00 7.6922107502220545e+00 2.0173550748079165e+00 0 0 0
225 2 8.5270085522517256e+00 8.7383170712334106e+00 9.1990261619092584e-01 0 0 0
226 1 1.0884159515697839e+01 9.8564290646690722e+00 8.8014208015134781e+00 0 0 0
227 2 1.1664584461650151e+01 9.2629158786483856e+00 9.1793337064652984e+00 0 0 0
228 2 1.1190788000468221e+01 1.0265761815736377e+01 7.9283835803674734e+00 0 0 0
229 1 1.3496908732141749e+01 1.2688713485233802e+00 1.6305747979128900e+00 0 0 0
230 2 1.2570649671025434e+01 1.0077882039799118e+00 1.6777701080735437e+00 0 0 0
231 2 1.3476297647109526e+01 2.1185957306055645e+00 2.1960513216059647e+00 0 0 0
232 1 1.5815758859650733e+01 3.1512802830840334e+00 8.3788212088659257e+00 0 0 0
233 2 1.6346484913298639e+01 2.5558553804320199e+00 8.9258670999439662e+00 0 0 0
234 2 1.6254884626031288e+01 3.4409666171005582e+00 7.5863428679299671e+00 0 0 0
235 1 1.5703154945920602e+01 8.3323427713209224e+00 1.8500846525104269e+00 0 0 0
236 2 1.5958613698902228e+01 8.8206697337755386e+00 1.0550467485493407e+00 0 0 0
237 2 1.6311109943391870e+01 7.5330130171456240e+00 2.0208579468877641e+00 0 0 0
238 1 1.8283004969776833e+01 1.0036675727188561e+01 8.5129738107313990e+00 0 0 0
239 2 1.9121796799214565e+01 9.6585217601027775e+00 8.8058325169013649e+00 0 0 0
240 2 1.8323467636206704e+01 1.0914351889809234e+01 8.9836157018921003e+00 0 0 0
241 1 7.5145395226357499e+00 4.6841536889180100e+00 7.2612217493517628e-01 0 0 0
242 2 7.7401279290379286e+00 4.1504051646733435e+00 1.5350780531214474e+00 0 0 0
243 2 6.8522573448904494e+00 5.3596194565432755e+00 9.2150939571811064e-01 0 0 0
244 1 9.8929955042762678e+00 6.2600445597249381e+00 7.7425683944215677e+00 0 0 0
245 2 1.0218810241340705e+01 5.6767279318174779e+00 8.4818178998744891e+00 0 0 0
246 2 9.6278975617495366e+00 5.7549202378973661e+00 6.9622903253240089e+00 0 0 0
247 1 1.0069679042993263e+01 1.1639383990314499e+01 8.0936273996877584e-01 0 0 0
248 2 9.3658941336356989e+00 1.2210726160468081e+01 1.2475120563856410e+00 0 0 0
249 2 1.0405967761732267e+01 1.1121610021559476e+01 1.6469405430427262e+00 0 0 0
250 1 1.2402900977820901e+01 1.3473483624803702e+01 7.8197801317538689e+00 0 0 0
251 2 1.2813594648255792e+01 1.2979813071934464e+01 8.5152987914149456e+00 0 0 0
252 2 1.3092191798631891e+01 1.4089804396070800e+01 7.5491406837611645e+00 0 0 0
253 1 1.5001980508132887e+01 4.8868019803794276e+00 1.0267469789132999e+00 0 0 0
254 2 1.5267756525792432e+01 4.2418785616694521e+00 1.7234657983600934e+00 0 0 0
255 2 1.4295054928027447e+01 5.4402756532987055e+00 1.4182269946615289e+00 0 0 0
256 1 1.7759710796459540e+01 6.4048949430583519e+00 7.8050343448711121e+00 0 0 0
257 2 1.8199045466152121e+01 5.8399499763167544e+00 8.4316047001589389e+00 0 0 0
258 2 1.7242980070142703e+01 7.1251331654556278e+00 8.3179878040507589e+00 0 0 0
259 1 1.7758913509844646e+01 1.1681267742188540e+01 1.0681138973330406e+00 0 0 0
260 2 1.7102485997564958e+01 1.2259158299925907e+01 1.4135812732557691e+00 0 0 0
34 1 1.6735290543628828e+01 1.6784663811709681e+01 1.3366751124971049e+01 0 0 0
262 1 2.0148801733190759e+01 1.3658363891061468e+01 7.7733123036694778e+00 0 0 0
263 2 2.0455650949793625e+01 1.3022902696735043e+01 8.4756467358523118e+00 0 0 0
264 2 2.0906690111593868e+01 1.4033752467489331e+01 7.2786898349228260e+00 0 0 0
265 1 9.9122214434410321e+00 6.1273785703891095e+00 2.7262008956195820e+00 0 0 0
266 2 9.2833500439466192e+00 5.6616321964205687e+00 3.3601570233405922e+00 0 0 0
267 2 1.0398161995653906e+01 5.5243732376860004e+00 2.0862195799756185e+00 0 0 0
268 1 1.2344649760941898e+01 7.7187593914241770e+00 9.6599090796924578e+00 0 0 0
269 2 1.2749642580005094e+01 7.1417776313384254e+00 8.9867287133709635e+00 0 0 0
270 2 1.1508613273609088e+01 7.2993710974027515e+00 1.0096622447895088e+01 0 0 0
271 1 1.2229126002200402e+01 1.3497669092579711e+01 3.0955570641033896e+00 0 0 0
272 2 1.2962953717107579e+01 1.3354669779752827e+01 3.7071104710833676e+00 0 0 0
273 2 1.1593099537426252e+01 1.2844586873010195e+01 3.3367158524461642e+00 0 0 0
274 1 1.4546229751374597e+01 1.4785119527974667e+01 9.3788731447887308e+00 0 0 0
275 2 1.4163567055361961e+01 1.5629934991853041e+01 9.1625785148416004e+00 0 0 0
276 2 1.5244926306575820e+01 1.4974520194574273e+01 1.0121349265065724e+01 0 0 0
1116 2 1.4734941110715262e+01 2.9785441023723539e+01 1.1481100657709909e+01 0 0 0
278 2 1.6455742334765187e+01 5.8245317803684271e+00 3.2474685850808700e+00 0 0 0
952 1 2.4161002432333600e+01 2.0288045428999542e+01 1.3051530083778310e+01 0 0 0
280 1 1.9842794320842444e+01 7.7464252509018436e+00 9.4805693997579628e+00 0 0 0
1133 2 1.4892563497417530e+01 2.2441894772319348e+01 1.1589252050446406e+01 0 0 0
128 2 5.1519077994787406e+00 9.4429519624873226e+00 3.8482171909778877e+00 0 0 0
283 1 1.9891483803694427e+01 1.3274372086224629e+01 2.7553948604871317e+00 0 0 0
206 2 1.6700759017760742e+01 2.9390919881872772e+00 2.8536763628958051e+00 0 0 0
1126 1 2.1744602616162918e+01 2.9235458246003311e+01 1.0591747271236818e+01 0 0 0
286 1 2.1989035234806977e+01 1.4990473281573260e+01 9.5907673129609687e+00 0 0 0
847 1 8.6341447597225578e+00 2.1944290175814849e+01 5.4987215764986264e-01 0 0 0
288 2 2.1572175345985805e+01 1.5869915874609607e+01 9.4281928579350023e+00 0 0 0
289 1 6.1606029839944219e+00 6.7756631454286573e+00 1.6084996763845514e+00 0 0 0
290 2 5.7957166899612096e+00 6.7152018312947437e+00 2.4464495851606620e+00 0 0 0
291 2 6.9601867730101787e+00 7.4180180697038862e+00 1.6810640302009343e+00 0 0 0
292 1 8.6366739670918058e+00 8.4388149435255482e+00 9.0832654066069338e+00 0 0 0
293 2 9.1449978578707203e+00 7.7841823583861123e+00 8.5465254111677176e+00 0 0 0
294 2 9.2877835108384907e+00 9.1883290876138961e+00 9.1415647880419844e+00 0 0 0
295 1 8.3063010040988328e+00 1.3997303716412365e+01 1.9032072889445912e+00 0 0 0
296 2 7.8622926695351820e+00 1.3798943470189750e+01 2.7633800969035418e+00 0 0 0
297 2 7.5891027230488950e+00 1.4211377291390136e+01 1.2792049751688166e+00 0 0 0
298 1 1.0969716925314543e+01 1.5657706222114104e+01 8.6613849978632604e+00 0 0 0
299 2 1.1320675832115631e+01 1.4818415023597499e+01 8.3891940180534714e+00 0 0 0
300 2 1.0171898696988809e+01 1.5820261834072349e+01 8.0874922355064669e+00 0 0 0
301 1 1.3406798573188210e+01 6.8383534286756555e+00 1.7889517860359609e+00 0 0 0
302 2 1.3252125407905407e+01 6.6891429625235812e+00 2.7848217227536045e+00 0 0 0
303 2 1.4146085454135491e+01 7.4477174034852176e+00 1.6380374095257035e+00 0 0 0
304 1 1.6188893861934808e+01 8.5538514606662623e+00 8.6327894384836910e+00 0 0 0
305 2 1.5750903643688726e+01 8.5229684594708495e+00 9.5121624681798504e+00 0 0 0
306 2 1.6882877489217108e+01 9.2181428557652687e+00 8.6079817714915610e+00 0 0 0
307 1 1.6062652653798562e+01 1.3768413795649314e+01 2.0401872546085933e+00 0 0 0
308 2 1.5325943935003110e+01 1.4209738815056451e+01 1.5789466126020510e+00 0 0 0
309 2 1.6804669517783534e+01 1.4393453271703690e+01 1.9327188805363702e+00 0 0 0
310 1 1.8426532893245291e+01 1.5406736213893275e+01 8.9284179864468545e+00 0 0 0
311 2 1.8923524859989577e+01 1.4729485000497636e+01 8.4818089546115534e+00 0 0 0
312 2 1.7777394832970291e+01 1.5830231133081725e+01 8.3303038582901436e+00 0 0 0
313 1 3.6597889594302626e+00 4.5365513797854407e+00 1.0546112094282938e+00 0 0 0
1863 2 1.6421353596511878e+01 8.6054708928479311e+00 1.3615474291386024e+01 0 0 0
315 2 4.3995532396103387e+00 4.2139921460575813e+00 1.6579784649948528e+00 0 0 0
316 1 6.6557665296737429e+00 6.2938132161381670e+00 7.9412705481594932e+00 0 0 0
317 2 6.7454714572689625e+00 6.8257042635006160e+00 7.1136590199533911e+00 0 0 0
318 2 5.9101619910712300e+00 6.7263283504476696e+00 8.4594190005322325e+00 0 0 0
319 1 6.4322046230738907e+00 1.1989446436934250e+01 8.5648273098358119e-01 0 0 0
814 1 2.9539743705716621e+01 3.0964264906505239e+01 1.2914509132387252e+01 0 0 0
321 2 6.7959321873315934e+00 1.1492661533643750e+01 1.6146695237238373e+00 0 0 0
322 1 8.9540163489768929e+00 1.3566435716343618e+01 7.6874790629797678e+00 0 0 0
974 2 2.1734767236958596e+01 1.6410511691476206e+01 3.0696670133063408e+00 0 0 0
324 2 8.5605892198071931e+00 1.2748199612598423e+01 7.2862721019154204e+00 0 0 0
325 1 1.1196508839327313e+01 4.5999778270254010e+00 8.7903020609136939e-01 0 0 0
1106 2 8.5561236376147285e+00 2.0465931025789310e+01 3.8725741062259216e+00 0 0 0
1011 2 1.3368783060884152e+01 1.9365395819043336e+01 6.8698804399457736e-01 0 0 0
328 1 1.3696840890249192e+01 6.5513009289728181e+00 7.8283743133018380e+00 0 0 0
329 2 1.3388736501382857e+01 5.7709509747355270e+00 7.2503618550186122e+00 0 0 0
330 2 1.4272097101894980e+01 6.0467969264003445e+00 8.4723933724500178e+00 0 0 0
331 1 1.3838010923078340e+01 1.1975412055373088e+01 1.1561787981767766e+00 0 0 0
332 2 1.3371934574673414e+01 1.2686050493072777e+01 1.6165004852918274e+00 0 0 0
333 2 1.4464709815521429e+01 1.1569599412996208e+01 1.7968710422712386e+00 0 0 0
334 1 1.6150026891810874e+01 1.3330287234398785e+01 7.5553251445678278e+00 0 0 0
335 2 1.6504860259681099e+01 1.4031697753720803e+01 6.9586175220106474e+00 0 0 0
336 2 1.5511078303526306e+01 1.3825342738603570e+01 8.1441134721058610e+00 0 0 0
337 1 4.4023541366906445e+00 6.5996135489713295e+00 4.1575132117770943e+00 0 0 0
338 2 4.4902763356087743e+00 5.8097379176554105e+00 4.6663950510799355e+00 0 0 0
802 1 2.1478454499395220e+01 3.0973029961964411e+01 1.3058831224353160e+01 0 0 0
340 1 6.7141493674161969e+00 8.1379741397103036e+00 1.1265918163218767e+01 0 0 0
216 2 2.1232619003431058e+01 1.0986361999361939e+01 8.7919489346670350e+00 0 0 0
342 2 7.3493269885059567e+00 8.4249799934381233e+00 1.0530124694841334e+01 0 0 0
343 1 6.8599072409066135e+00 1.3021168684428829e+01 4.3329718618470086e+00 0 0 0
277 1 1.7144735471572542e+01 6.2670895292585103e+00 2.7000888995906793e+00 0 0 0
959 2 2.7215750670180270e+01 2.6891706356777476e+01 1.2313568345571598e+01 0 0 0
346 1 9.5644573922540488e+00 1.5289358666069834e+01 1.0845175634208781e+01 0 0 0
347 2 1.0224799766179917e+01 1.5430023973087136e+01 1.0128532986057563e+01 0 0 0
348 2 9.7155141855428369e+00 1.4386192234937539e+01 1.1136397737052059e+01 0 0 0
349 1 1.1986851293112053e+01 6.2951148910907548e+00 4.3447358741832396e+00 0 0 0
350 2 1.1931619825413119e+01 7.1156165313964328e+00 4.8384687401568343e+00 0 0 0
351 2 1.1244797250635553e+01 6.2004280757257844e+00 3.7436099194198644e+00 0 0 0
352 1 1.4688853158826877e+01 8.2773345355376282e+00 1.1182664835357542e+01 0 0 0
353 2 1.4918389064252178e+01 7.4547759245850713e+00 1.1722683450336994e+01 0 0 0
354 2 1.3840737151394176e+01 8.1529775157230269e+00 1.0791791664008800e+01 0 0 0
355 1 1.4682107955584684e+01 1.3205823132397136e+01 4.2815600065047139e+00 0 0 0
356 2 1.4948408709844257e+01 1.2349840365203859e+01 4.6216536214284289e+00 0 0 0
357 2 1.5196605219775599e+01 1.3321397043003653e+01 3.4983393847836051e+00 0 0 0
358 1 1.6728387665148389e+01 1.4880123379521372e+01 1.1243594440353318e+01 0 0 0
359 2 1.6932790148511085e+01 1.5677871639103342e+01 1.1772467958702615e+01 0 0 0
360 2 1.7334661105630961e+01 1.4966563178010450e+01 1.0515762238041695e+01 0 0 0
361 1 7.1890566887588712e+00 7.5738699265519998e+00 5.3770284559798114e+00 0 0 0
362 2 6.6396992937613959e+00 8.3033574674444175e+00 5.0037116051318620e+00 0 0 0
363 2 8.1937564107151335e+00 7.9716345220439955e+00 5.4176315622525255e+00 0 0 0
364 1 9.6271156730255214e+00 9.6860842475985827e+00 1.2143567718375078e+01 0 0 0
365 2 8.8361327494905311e+00 9.9884653898067572e+00 1.1718906583923443e+01 0 0 0
366 2 9.2752438298705773e+00 9.1636481940247076e+00 1.2914573904817610e+01 0 0 0