LAMMPS data file via write_data, version 15 Apr 2020, timestep = 0

6144 atoms
2 atom types

-1.4931282580702820e+00 6.1461417389255978e+01 xlo xhi
0.0000000000000000e+00 2.8121764122983155e+01 ylo yhi
0.0000000000000000e+00 2.7181664446879921e+01 zlo zhi
1.0167339819050731e+01 1.0192210922112423e+01 7.1228342698539073e+00 xy xz yz

Masses

1 16
2 2

Atoms # atomic

1595 2 1.9644822782954186e+01 2.0887309892603717e+01 2.0375310960029982e+01 0 0 0
1604 2 1.8218830855179913e+01 2.3839233932660605e+01 2.6341623945227617e+01 0 0 0
2673 2 3.6509318056045226e+00 5.3482564921971854e+00 1.0542865262976962e+01 0 1 0
987 2 2.0191028129081605e+01 1.3579710254563659e+01 1.5711188310124863e+01 0 0 0
225 2 1.6196919550947495e+01 2.6031790217124335e+01 1.6922073733096836e+00 0 -1 0
52 1 1.6355739418702282e+01 3.0422429350115941e+01 1.1584468533181745e+01 0 -1 0
25 1 8.1029595458390578e+00 1.1976732075518662e+01 5.7168900685797297e+00 0 0 -1
1625 2 1.7345826315984514e+01 2.0854199958021518e+01 1.7350796727063020e+01 0 0 0
2464 1 1.4737110086964584e+01 1.5157967709298756e+01 3.2330295207101929e+00 0 1 0
886 1 1.7996629566922483e+01 2.3829709654458114e+01 2.0126856244989884e+01 0 1 -1
1633 1 1.7386402917015076e+01 1.7485878171388197e+01 1.9688995827614971e+01 0 0 0
849 2 1.5025289669962934e+01 1.9644513601576765e+01 1.3221054598053739e+01 0 0 -1
2443 1 1.1185403514267493e+01 1.2508747342130304e+01 3.8552750776601852e+00 0 1 0
358 1 1.6292446742490679e+01 2.4437897697163020e+01 2.3605846972860537e+01 0 0 0
2466 2 1.4232155324542333e+01 1.4866565882686039e+01 3.9866189927299009e+00 0 1 0
1895 2 8.7795218494092051e+00 8.7527794503140104e+00 6.1808221642027013e+00 0 0 1
1670 2 1.5981225198701392e+01 1.6246870128267595e+01 2.6515112683352022e+01 0 0 -1
1634 2 1.7746233488365554e+01 1.8207460512190902e+01 1.9052657885322645e+01 0 0 0
1064 2 2.0705459237169713e+01 2.8486521726530782e+01 1.6645890151071143e+01 0 0 -1
1894 1 9.6907706518774805e+00 8.6626612098189479e+00 5.7891124742965854e+00 0 0 1
1740 2 2.0299694607879982e+01 2.4154684644345885e+01 2.6035348317064170e+01 0 0 0
31 1 9.5370901425990766e+00 2.5335170953078002e+01 6.1047277375320412e+00 0 0 0
486 2 2.1239436298509776e+01 7.4260492503549811e+00 1.9035405978900894e+01 0 0 0
1709 2 2.1519188156642141e+01 3.1219651815433721e+01 1.4254821651558901e+01 0 -1 0
487 1 1.6410585111005361e+01 2.7080984406041146e+01 2.3947966039742713e+01 0 0 -1
53 2 1.6278960597146767e+01 3.1221048147856237e+01 1.2047114582051028e+01 0 -1 0
1587 2 1.3105004507214687e+01 1.9393471791927404e+01 1.4487270253592941e+01 0 0 0
1586 2 1.2647950316372210e+01 1.9691028028039952e+01 1.2971961263279006e+01 0 0 0
1916 2 1.2221701852168461e+01 2.6118210364197239e+01 1.2928661212863314e+01 0 0 0
2564 2 2.5135324533229259e+01 2.1003586652921477e+01 2.2168172245831375e+01 0 1 -1
416 2 1.2081263537673543e+01 1.6189460542164170e+01 1.4408817668737647e+01 0 0 0
1871 2 1.5627419361111155e+01 2.6110271132736642e+01 2.0760148583330331e+01 0 0 0
3055 1 3.1170435091647366e+01 3.3213917930643156e+01 2.0218197319061023e+01 0 0 0
1275 2 3.8037315086096299e+00 6.9155797950241436e+00 2.4707887578233212e+00 0 0 0
2321 2 1.2125527487165231e+01 1.8823059215642665e+01 1.8900753768496418e+01 0 0 0
2450 2 1.6525148593032032e+01 1.8429517521752903e+01 2.1080691146460854e+01 0 0 0
1708 1 2.2157045647063430e+01 3.1837142443518882e+01 1.4610210682620862e+01 0 -1 0
27 2 9.0721032590346766e+00 1.1781227752705925e+01 5.8086599080953691e+00 0 0 -1
907 1 2.4446334730247191e+01 2.8676365573718087e+01 2.2265812947748490e+01 0 0 -1
99 2 1.3349502488340161e+01 8.0275799693704073e+00 6.5443185340830858e+00 0 0 0
1561 1 1.2432093972795849e+01 1.5520940764794744e+01 1.0501150608776733e+01 0 0 0
1901 2 1.3142833127274470e+01 9.4397842696186096e+00 2.6996951370389294e+01 0 0 0
174 2 1.0400036249280715e+01 8.6632093755421664e+00 1.9869678345608509e+01 0 0 -1
1521 2 1.4130187270933734e+01 1.0955734879843433e+01 1.4839942459102826e+00 0 0 0
924 2 2.0221457320798720e+01 1.9338199286127271e+01 1.6050446117435058e+01 0 0 0
149 2 1.3003844415943327e+01 1.4685802828249169e+01 2.4163104449027973e+01 0 0 -1
224 2 1.5602449021912683e+01 2.6328163289862854e+01 3.1505857451683870e+00 0 -1 0
1781 2 1.0090779177442727e+01 1.3680600303577327e+01 1.0829379594171041e+01 0 0 0
1710 2 1.1488969704319688e+01 4.5591044953205442e+00 1.4577152005970126e+01 0 0 0
1689 2 9.2276002220170081e+00 8.2983161841293054e+00 1.2566872249147927e+01 0 0 0
1653 2 3.7271423207076539e+00 1.3631706022103652e+01 8.9512831340105226e-01 0 0 1
1773 2 2.3772387703934037e+01 2.9609276569277938e+01 2.6070266244522951e+01 0 0 -1
213 2 2.8601536803247523e+01 2.7345314320451731e+01 1.8953866769379296e+01 0 -1 0
1570 1 7.8878540359189877e+00 1.1798401461280159e+01 1.1905961173376443e+01 0 0 1
2314 1 2.0159757036340338e+01 2.4770290810544534e+01 1.0186088473560080e+01 0 0 1
1129 1 1.1833598464629285e+01 1.2226406989255683e+01 1.9800980234124275e+01 0 0 -1
2360 2 9.1260939304198558e+00 1.3704876519433098e+01 8.8529104649125738e+00 0 0 0
1635 2 1.6656681305471100e+01 1.6954296639805978e+01 1.9268616857837159e+01 0 0 0
1017 2 1.8962735003684369e+01 3.0604335622667854e+01 9.8810586035868635e+00 0 0 -1
2257 1 2.8113781930824747e+01 2.1566162210698138e+01 2.3826300276848286e+01 0 0 0
821 2 1.6897823979264555e+01 2.5302345555698750e+01 2.5363348292795752e+01 0 0 -1
1656 2 8.9335226930141829e+00 2.5386158300078158e+01 1.7147958623274797e+00 0 0 2
896 2 1.7734272107622207e+01 3.1102466614719720e+01 2.2878888443866632e+01 0 0 -1
868 1 7.1041075270596288e+00 1.4359511757023158e+01 6.9548759679605929e+00 0 0 0
944 2 6.4436124451930841e+00 1.3177604557648548e+01 1.0714958741747857e-01 0 1 0
1571 2 8.8442165188415913e+00 1.2018842590205418e+01 1.1701728049486436e+01 0 0 1
1659 2 1.6576259358650859e+01 2.8986774129470092e+01 1.6830202647264837e+01 0 -1 0
1914 2 9.4246035697967230e+00 6.9636106352184211e+00 2.4019401246880413e+01 0 1 0
1848 2 1.6530959671942014e+01 5.8849920568557588e+00 3.1436695836880117e+00 0 0 1
1274 2 3.8978268514947949e+00 5.2719075476089836e+00 2.7680160690177007e+00 0 0 0
1113 2 1.5711407162130701e+01 2.0634362604299373e+01 7.0832503578644692e+00 0 0 0
1669 1 1.5006147087224143e+01 1.6127974810808738e+01 2.6408103695781477e+01 0 0 -1
1063 1 2.0076976338409001e+01 2.8772195446924670e+01 1.7363602304928875e+01 0 0 -1
1671 2 1.4732940282557756e+01 1.6893192513634098e+01 2.5764419432725543e+01 0 0 -1
2001 2 2.1824816893189762e+01 1.2584261043464258e+01 1.6966810173898683e+01 0 0 0
2638 1 3.0781525282643290e+01 2.9382898339752874e+01 2.6672924526307344e+01 0 1 -1
846 2 1.6206968793615122e+01 2.2922526748841442e+01 2.2606645403004919e+01 0 0 -1
1256 2 2.4139072872575365e+01 2.5355723831761335e+01 1.2478793128923646e+01 0 0 0
1739 2 2.1446589510333897e+01 2.4208524268826846e+01 2.4974656014116686e+01 0 0 0
822 2 1.6902523748506969e+01 2.5408501516148615e+01 2.6860570476422989e+01 0 0 -1
2471 2 1.9460963689280700e+01 7.0274475027926844e+00 2.2392506615042343e+01 0 1 0
1112 2 1.7227866483413727e+01 2.0727808518607137e+01 7.6953001794719302e+00 0 0 0
887 2 1.7205219902023526e+01 2.4283917238234395e+01 2.0491000460184733e+01 0 1 -1
2465 2 1.3987598352482847e+01 1.5356204239840856e+01 2.5571062487927407e+00 0 1 0
54 2 1.6970708590753457e+01 3.0620795391793429e+01 1.0863977159764802e+01 0 -1 0
102 2 1.5090299952809595e+01 2.7668021606794682e+01 1.0242003337168565e+01 0 -1 0
223 1 1.5369827267329345e+01 2.6012460335704692e+01 2.2075196583385455e+00 0 -1 0
227 2 1.3038919787457402e+01 2.9059893303600731e+01 4.4681638266425345e+00 0 0 0
353 2 7.8326041513413323e+00 9.0976499502709771e+00 8.8567859752960469e+00 0 0 0
2407 1 1.0380377679688561e+01 1.5233292644443997e+01 6.2155100570258215e+00 0 0 0
1687 1 1.0171093389899490e+01 8.0546678664844968e+00 1.2433119756744309e+01 0 0 0
986 2 1.8946480793647414e+01 1.2627255163269995e+01 1.6133443563695103e+01 0 0 0
755 2 1.3281442636696244e+01 2.7518901791294592e+01 1.2411016844851172e+01 0 0 0
1703 2 1.0425105776266356e+01 1.7601155257508257e+01 1.4864217048730547e+01 0 0 0
1374 2 1.8557992518598994e+01 2.0866416355261684e+01 1.7874739016470842e+00 0 0 0
1688 2 1.0502121864309656e+01 8.5757899748869040e+00 1.1746462387671935e+01 0 0 0
1103 2 3.0942115390810745e+00 8.7685726892765299e+00 1.7402723764487054e+00 0 1 0
1610 2 1.0120445499141912e+01 1.7084042475359624e+01 1.9649717132893982e+00 0 -1 0
922 1 2.0355155517532214e+01 1.9116871858277996e+01 1.6942151215001790e+01 0 0 0
2409 2 1.0167502380216138e+01 1.4677444732879049e+01 7.0441337038741025e+00 0 0 0
845 2 1.6069773932674497e+01 2.1765516392222661e+01 2.1497996707471962e+01 0 0 -1
1563 2 1.2954768028305637e+01 1.5931773762932867e+01 1.1172454564619022e+01 0 0 0
908 2 2.3589161871847814e+01 2.8952874549076839e+01 2.1877252350912116e+01 0 0 -1
893 2 1.2651800710928731e+01 2.3913101770247472e+01 1.2117135898569808e+01 0 0 0
28 1 1.9865928631343053e+01 2.3655274090661337e+01 1.3348408303417203e+01 0 0 0
287 2 2.1788112468991454e+01 2.0424323845233545e+01 4.3551840764044911e+00 0 0 0
870 2 8.0068056409047834e+00 1.3981135758695386e+01 7.2408360962152791e+00 0 0 0
300 2 1.4209862745408460e+01 1.9996862873962236e+01 5.9760561240593555e+00 0 0 0
1585 1 1.2794794039566504e+01 1.8984382331831629e+01 1.3655791700967578e+01 0 0 0
2480 2 2.2651269398179405e+01 6.3472807951547869e+00 2.2414359310306832e+01 0 1 -1
2436 2 2.2781319000321115e+01 2.2186130296300416e+01 1.1079203198642794e+01 0 0 0
2441 2 1.7442289837050492e+01 2.1956278858617306e+01 9.6809874126582489e+00 0 0 1
847 1 1.5704623063227775e+01 1.9127355782112968e+01 1.2796801326897226e+01 0 0 -1
1562 2 1.2136511085719798e+01 1.6269144453930746e+01 1.0007615854092675e+01 0 0 0
1015 1 1.8066036800703934e+01 3.0516804731482377e+01 9.6310631282479022e+00 0 0 -1
1738 1 2.0901474301843056e+01 2.4801389234869813e+01 2.5605376236259310e+01 0 0 0
949 1 2.4369403396565428e+01 2.4499423523639777e+01 1.8678710928611128e+01 0 -1 0
30 2 1.9321844468589379e+01 2.3532576390794439e+01 1.4193355646248849e+01 0 0 0
1685 2 5.3660746917532016e+00 1.6867694760442728e+01 2.5969962085239945e-01 0 -1 1
60 2 1.5900313512540524e+01 2.7647280952626264e+01 2.2087131453211999e+01 0 0 -1
150 2 1.2532947473346663e+01 1.3621969976065454e+01 2.5269862280493111e+01 0 0 -1
2440 1 1.8243462140239366e+01 2.2169571136685104e+01 1.0145735249803620e+01 0 0 1
98 2 1.4495040600847346e+01 8.9773688915280356e+00 6.3057254470491753e+00 0 0 0
2408 2 1.0343527159701555e+01 1.6179179719557446e+01 6.4307483016912892e+00 0 0 0
369 2 1.4157040916142101e+01 1.3096125031683153e+01 1.2661103240787545e+01 0 0 -1
1065 2 1.9579341444733952e+01 2.7939516764313062e+01 1.7734895329529319e+01 0 0 -1
1130 2 1.1483140707162507e+01 1.2067685604148654e+01 2.0684148021286553e+01 0 0 -1
2355 2 1.8427321204336433e+01 2.3963788756636397e+01 1.8574539698416014e+01 0 0 0
962 2 2.5408315782400180e+01 3.2959502746919448e+01 2.5745722916791927e+01 0 0 -1
888 2 1.8135382589844912e+01 2.2964622029322094e+01 2.0582274570116073e+01 0 1 -1
1135 1 1.3064888514233731e+01 1.7872170453569272e+01 2.0029352376643875e+01 0 1 -1
299 2 1.3964876041413849e+01 1.9489999430423630e+01 7.4759929706138335e+00 0 0 0
626 2 1.9213896576260797e+01 1.0770146477581520e+01 2.4171735317348986e+01 0 0 -1
873 2 1.0770061623071433e+01 1.5444791899132536e+01 1.6625910150113697e+01 0 0 0
2397 2 1.2520082462830619e+01 2.9429371655494581e+01 7.4131573804021871e+00 0 0 0
2311 1 1.9756565736918379e+01 1.6347145348427837e+01 2.0114729895550166e+01 0 1 -1
1515 2 1.1552327864381898e+01 2.1236516426642645e+01 7.6692419436947412e-01 0 0 0
1896 2 1.0154233396391394e+01 9.5389908999862758e+00 5.9969631953289095e+00 0 0 1
1546 1 1.5117005524975770e+01 1.7196889790552707e+01 1.6254922021806184e+01 0 1 0
984 2 1.5941167676273263e+01 6.5920919931557895e+00 2.5140846445752462e+01 0 1 -1
588 2 6.5428974463478013e+00 9.0899222617529922e+00 5.0158332765926881e+00 0 0 0
909 2 2.4318314229242205e+01 2.8631264908214810e+01 2.3213144253378353e+01 0 0 -1
2668 1 2.3763507770676107e+01 2.4090608264370925e+01 1.4553280226546663e+01 0 0 0
2354 2 1.9631234272428514e+01 2.3663068783488487e+01 1.7560627771475218e+01 0 0 0
335 2 1.2201015170184139e+01 2.1315056088181962e+01 2.0231822101209712e+01 0 0 0
1569 2 1.7966681746974590e+01 3.3161085474046708e+01 2.1784210351671835e+01 0 0 0
1273 1 3.6782400305588023e+00 6.1533493609992558e+00 3.0772043165070539e+00 0 0 0
1132 1 6.5591115757467513e+00 4.3989736315865544e+00 8.2104932787382356e+00 0 1 0
1780 1 9.4043160907486900e+00 1.4329931427138741e+01 1.0494373777743743e+01 0 0 0
898 1 1.5490116143797607e+01 2.5212176884271713e+01 1.7544720207356121e+01 0 0 0
1514 2 1.2272210050645755e+01 2.1195362729029473e+01 2.1297180628292476e+00 0 0 0
62 2 2.8358401672682664e+01 2.8848326074072936e+01 2.2311163929902477e+01 0 -1 -1
352 1 8.5197086914919709e+00 8.4237546899603402e+00 8.9648207445632888e+00 0 0 0
961 1 2.5215218310032913e+01 3.2019383698327701e+01 2.6082312162466145e+01 0 0 -1
885 2 1.3516004845016864e+01 6.0073764308352988e+00 1.8241026835184840e+01 0 1 -1
2414 2 1.3383210252460515e+01 1.9782999520755464e+01 1.6606382770126036e+01 0 0 1
2316 2 2.0379590305932954e+01 2.3820118380992408e+01 1.0075464413748453e+01 0 0 1
975 2 1.2222236402263249e+01 2.2614276293027100e+01 7.5609183038040575e+00 0 0 0
818 2 1.0702861992499688e+01 6.3921675386558183e+00 2.0212094115475768e+01 0 1 -1
775 1 1.1803998066410042e+01 2.4184923188174341e+01 4.9520017768938693e+00 0 0 0
1603 1 1.8686265100303814e+01 2.2991053140683164e+01 2.6512934209381267e+01 0 0 0
931 1 1.5365442556085814e+01 5.2192653600588717e+00 1.1897397410853563e+01 0 1 0
1605 2 1.8753755993732188e+01 2.2533413639029355e+01 2.5681654848609522e+01 0 0 0
2532 2 1.3967031125642867e+01 2.3004913805089707e+01 1.5606482160214457e+01 0 0 0
823 1 7.7876682843378262e+00 7.4788308031403616e+00 1.9233817479928714e+01 0 1 -1
100 1 1.5730653993532901e+01 2.6909369624216691e+01 1.0303722637952388e+01 0 -1 0
1877 2 2.2515691815873840e+01 3.1480318438840726e+01 1.6454330084691708e+01 0 -1 0
2669 2 2.3268802265193028e+01 2.4909108817257334e+01 1.4760118100565490e+01 0 0 0
2323 1 8.1840917133300906e+00 2.0797313960217014e+01 1.8163294737017153e+00 0 1 1
2348 2 2.2594969839805881e+01 6.6544653536681047e+00 2.4388024890363852e+01 0 1 0
1016 2 1.7962660442088694e+01 2.9588848928088815e+01 9.2664324342371813e+00 0 0 -1
2283 2 1.8289200211433705e+01 1.8787221157095505e+01 7.8439160166070119e+00 0 -1 0
995 2 5.7626550238901348e+00 9.8996142238866813e+00 1.3733746031916203e+00 0 1 0
97 1 1.4223498292284059e+01 8.0725644953420517e+00 6.2040948400359754e+00 0 0 0
2361 2 9.6612750492037520e+00 1.2535922497592550e+01 7.9730592063116301e+00 0 0 0
783 2 1.4944662923649265e+01 2.8972238775994217e+01 1.4183257528302587e+01 0 0 0
1513 1 1.1847175782097963e+01 2.0599523413339533e+01 1.4902113461474185e+00 0 0 0
1078 1 1.7738285200888203e+01 2.4352890077497847e+01 1.5290044663448942e+01 0 0 0
963 2 2.4924170064638197e+01 3.2063844630034090e+01 2.6987921921230505e+01 0 0 -1
1547 2 1.6073292338301492e+01 1.7271868996166440e+01 1.6388956390813124e+01 0 1 0
2353 1 1.8775159724440588e+01 2.4160723239889414e+01 1.7665735611386939e+01 0 0 0
917 2 1.4667129271248111e+01 1.8684387054154570e+01 2.4188143038443879e+01 0 1 -1
417 2 1.3372863139624705e+01 1.6321699043657990e+01 1.5311090969179613e+01 0 0 0
985 1 1.9442344904617929e+01 1.3097617850858862e+01 1.5390248692106326e+01 0 0 0
1686 2 1.6049787306380658e+01 2.3496461454219428e+01 2.5961195764972491e+01 0 -1 0
76 1 1.0612374244085508e+01 2.8300716007902523e+01 2.1235346312157874e+00 0 -1 0
298 1 1.4101500405552535e+01 2.0315072621242162e+01 6.9553825928082302e+00 0 0 0
167 2 2.9135712918253201e+01 2.5158835420826218e+01 2.4600752874524311e+01 0 0 -1
1970 2 1.7331078739188776e+01 1.4241724210582808e+01 9.3626211025380659e+00 0 0 0
240 2 2.9479389290011110e+01 2.3333218726647900e+01 2.5964690149795004e+01 0 0 -1
2623 1 1.1834068982260437e+01 1.5947896322230235e+01 2.1872531216740040e+01 0 0 0
1079 2 1.6971200544540498e+01 2.4865185452765417e+01 1.5204340889065890e+01 0 0 0
883 1 1.3144321363493876e+01 6.3304665836930187e+00 1.7379984305797876e+01 0 1 -1
2442 2 1.8320704695742911e+01 2.1595274278467684e+01 1.0908266859538202e+01 0 0 1
334 1 1.2861337218792389e+01 2.2059684246232610e+01 1.9909955348710408e+01 0 0 0
2451 2 1.5478178433286235e+01 1.9318065999628935e+01 2.1790048538191567e+01 0 0 0
2315 2 2.0902037322498582e+01 2.5188837588184455e+01 1.0714633367488025e+01 0 0 1
460 1 1.8299275817401430e+01 1.6062027394112494e+01 2.3660600499632967e+00 0 0 0
983 2 1.4468606211822895e+01 6.7170383644553482e+00 2.4613962160767265e+01 0 1 -1
923 2 2.1240871889839550e+01 1.9500831361795463e+01 1.7174006723021154e+01 0 0 0
2572 1 1.8466028918558930e+01 2.0288674177371359e+01 1.2201259268070995e+01 0 0 0
354 2 8.3004270279453127e+00 7.9058960532571412e+00 9.7782725965767856e+00 0 0 0
156 2 6.8647078293979948e+00 2.1089435174446649e+00 3.0958185760166388e+00 0 0 0
1589 2 1.1385745943201863e+01 2.4617507778222063e+01 2.0745349516210285e+00 0 -1 1
84 2 1.2510759850544812e+01 1.9701226664261334e+01 2.3673581482686846e+01 0 0 -1
1050 2 9.8263871969099394e+00 2.1812424544217119e+01 4.7463080697614402e+00 0 0 0
1081 1 1.3598148870961666e+01 8.8227637833401733e+00 2.0801616383744093e+01 0 0 -1
1594 1 1.8693564744010008e+01 2.0942049085194462e+01 2.0549154176791198e+01 0 0 0
2445 2 1.1880851806727243e+01 1.3104110731155197e+01 4.1322782885688154e+00 0 1 0
1588 1 1.0705933877969414e+01 2.5003212341988789e+01 2.6301277501215501e+00 0 -1 1
286 1 2.2078295803984890e+01 1.9610924965266179e+01 4.8401017631251246e+00 0 0 0
1841 2 2.1480319170470732e+01 1.1371073159263869e+01 2.1101164287313797e+01 0 0 0
313 1 1.0473612448011480e+01 1.4427619487585924e+01 1.3733213587227052e+01 0 0 -1
1118 2 2.4333014734293872e+01 2.5595482685864020e+01 1.9897238821387639e+01 0 0 -1
1872 2 1.4934009829544419e+01 2.4682146190032412e+01 2.0809566032953740e+01 0 0 0
2613 2 1.4315572013513510e+01 2.9338733110252644e+01 1.1957422071733841e+01 0 0 1
1133 2 7.0466615910659947e+00 3.7205605648768909e+00 8.7172337411864351e+00 0 1 0
1762 1 1.2418192970594969e+01 1.1398080944630467e+01 8.0846193596174203e+00 0 0 0
2556 2 1.2897427885026648e+01 1.4437913650656629e+01 5.9469650817049735e-01 0 0 1
2548 1 2.1916430442775663e+01 9.7276508192827364e+00 2.5607036605175054e+01 0 1 0
1870 1 1.5697362854567285e+01 2.5204191619866716e+01 2.0333238434144423e+01 0 0 0
1662 2 8.1625987050936697e+00 1.4501929104112042e+01 2.7733481214926020e-01 0 -1 1
1136 2 1.3881877234925888e+01 1.7448862075602570e+01 1.9741103949667149e+01 0 1 -1
1736 2 1.0051564621119782e+01 9.3174485905373707e+00 9.6528665175030444e+00 0 0 0
376 1 2.1705926603767043e+01 2.8780317089479134e+01 1.5141611925446361e+01 0 -1 0
1109 2 1.3500826426781273e+01 8.6002958351740162e+00 1.4443717130971644e+01 0 0 0
372 2 1.2714961119780298e+01 1.1466338931608689e+01 2.3483733045882843e+01 0 0 0
333 2 1.8016565167028514e+01 3.2130794212220991e+01 1.9196219544865532e+01 0 0 0
2555 2 2.2510235223737304e+01 2.0423495583005668e+01 2.6769732991383087e+01 0 0 0
374 2 3.9481508191370889e+00 2.9257057843029477e+00 4.0098664592643951e+00 0 0 0
1801 1 1.9191204081161377e+01 2.1428267111337579e+01 1.5041093613524486e+01 0 -1 0
442 1 5.9254602174661191e+00 5.6809800282314127e+00 4.1294935397347204e-01 0 0 0
2601 2 2.0836361514325741e+01 1.9555552691520916e+01 9.1607731268925647e+00 0 0 0
2600 2 2.0538977272871325e+01 2.1032383358563994e+01 9.4272349073331139e+00 0 0 0
188 2 1.6601037722973512e+01 2.2822535621275701e+01 7.2073919351578022e+00 0 0 0
2444 2 1.0363496327777701e+01 1.2994041568057529e+01 3.7996139819522341e+00 0 1 0
348 2 7.3829638534870305e+00 1.4936213551515735e+01 1.0778651538150974e+01 0 0 0
2642 2 1.5774336357783742e+01 2.7147480010890611e+01 5.1106542657278728e+00 0 -1 1
2307 2 1.0068110228283011e+01 3.4783465381166039e+00 4.1971833367214231e+00 0 0 0
1119 2 2.4551235984402361e+01 2.7136737940302638e+01 2.0060096430559408e+01 0 0 -1
1088 2 1.9992086375834948e+01 2.7203323492312034e+01 2.6065135264129982e+01 0 0 -1
1810 1 3.3102559941923779e+00 5.7353941673250137e+00 7.9804238334834547e+00 0 1 0
269 2 1.8152310799916151e+01 2.1904410334055576e+01 2.3300212202754860e+01 0 -1 -1
2306 2 1.0967871286831837e+01 3.1653670180461870e+00 3.0896873544675603e+00 0 0 0
198 2 1.0829623149068322e+01 3.0505829258578037e+00 9.2731802648973822e+00 0 0 0
1089 2 1.8598626018559095e+01 2.6610195207813252e+01 2.6415004657377946e+01 0 0 -1
2468 2 1.0104456189132721e+01 1.1325050018221370e+01 4.6695935864828914e-01 0 0 1
2570 2 1.9896030883409523e+01 2.7792792193294499e+01 1.0167368417367580e+01 0 0 0
776 2 1.2000893085666034e+01 2.3214371716221581e+01 4.6466948101923844e+00 0 0 0
830 2 1.3419298866754012e+01 2.4190337514398639e+01 8.7949118915270184e+00 0 0 0
1658 2 1.5416065448179140e+01 2.8580236774383067e+01 1.7938831581253872e+01 0 -1 0
1874 2 1.1651618676257010e+01 2.3831698970780181e+01 1.0049204952432662e+01 0 -1 0
708 2 1.9477888363948974e+01 8.8267799252208867e+00 1.4899010677566222e+01 0 0 0
838 1 2.6265848255689107e+01 2.7469971465129614e+01 1.3824125717078006e+01 0 0 0
1134 2 6.1952521147908639e+00 4.9587937670771680e+00 8.9574094724902764e+00 0 1 0
2644 1 1.3536582323660458e+01 1.0289352751103230e+01 1.8600717539023762e+01 0 0 0
3026 2 1.5693106923635749e+01 4.4021048641136362e+00 1.5377046571318731e+01 0 1 0
332 2 7.9376828668020920e+00 5.5450712645471887e+00 1.9060814809438707e+01 0 1 0
1735 1 1.0945473614888474e+01 9.7881402902834740e+00 9.9064922201119803e+00 0 0 0
2646 2 1.3460666059881707e+01 9.5668328310689752e+00 1.9253297327463063e+01 0 0 0
2413 1 1.4026683799784182e+01 1.9802774595041029e+01 1.5886220023813099e+01 0 0 1
895 1 1.7533247090833225e+01 3.0859681984035557e+01 2.3805013746973383e+01 0 0 -1
2603 2 1.3197051783340083e+01 1.9098568203211940e+01 2.1322323184792658e+01 0 1 0
2554 1 1.3129574193581124e+01 1.3572367443490567e+01 1.0886080171166336e-01 0 0 1
2629 1 1.0470936789946929e+01 5.0544222803700851e+00 1.2375262665256392e+01 0 0 0
2305 1 1.0062874614309958e+01 2.9622811519300694e+00 3.4394873982742094e+00 0 0 0
443 2 6.1011209417158270e+00 6.5698015596409505e+00 2.8964159099927261e-01 0 0 0
2534 2 1.9200549497563490e+01 5.4790505689977236e+00 1.9757788375007827e+01 0 1 -1
2535 2 1.7859019089354547e+01 5.0641237614854653e+00 1.8997770495469243e+01 0 1 -1
994 1 5.2882212249008518e+00 1.0324372770750811e+01 2.1074939548724401e+00 0 1 0
2641 1 1.5109424389910998e+01 2.6643530902427514e+01 4.6009801372349202e+00 0 -1 1
1684 1 1.5347627058760306e+01 2.3415293025155911e+01 2.6689540751528227e+01 0 -1 0
318 2 2.6671683240084281e+01 3.0519757032299104e+01 2.4133241024504173e+01 0 -1 -1
725 2 8.9219559314381467e+00 1.0597014314107271e+00 3.8602889827756770e+00 0 0 1
2456 2 1.5172920113236565e+01 2.3903205051402253e+01 6.0451316337032566e+00 0 0 1
1672 1 1.6579884752672182e+01 2.8329849759950434e+01 5.9721127817706092e+00 0 -1 0
113 2 1.5979851725878486e+01 3.0678029435068591e+01 2.0839226871374255e+01 0 -1 0
1117 1 2.4158371657807216e+01 2.6360511474887197e+01 2.0539982193390443e+01 0 0 -1
1737 2 1.1553023458066946e+01 9.1244544377155492e+00 1.0233489744832502e+01 0 0 0
1909 1 1.8619551365427693e+01 9.6182113713456232e+00 1.3656686385902335e+01 0 0 0
1682 2 5.6538268237566944e+00 6.9410480157338714e+00 9.8576096232743531e+00 0 0 0
368 2 1.4082966368111160e+01 1.2716416397283236e+01 1.1061436113972270e+01 0 0 -1
197 2 2.1477296307173326e+01 3.0819815246759262e+01 1.0656198997640285e+01 0 -1 0
759 2 2.1091560945682033e+01 2.6551214476367068e+01 8.6421485962333797e+00 0 -1 0
2576 2 4.8600124608832225e+00 3.5727927978093703e+00 8.1770483147941739e+00 0 1 0
444 2 1.5784982600506826e+01 1.2411091076140440e+01 2.6692681045054435e+01 0 0 -1
2513 2 1.8264625718549258e+01 2.6088452825748348e+01 1.8343954044277865e+01 0 0 0
2529 2 1.7874907192029294e+01 3.0241574228135608e+01 2.5458215192299750e+01 0 0 -1
1681 1 5.2256421047048729e+00 6.0823916166997583e+00 9.6491393152833105e+00 0 0 0
2467 1 1.9744395284742797e+01 1.8893781944759510e+01 2.6919796532481673e+01 0 0 0
1596 2 1.8665423304180376e+01 2.0382303851844313e+01 2.1382321459888924e+01 0 0 0
1621 1 9.0963442066903379e+00 1.0954725461659045e+01 2.0841774119899963e+01 0 0 -1
1622 2 9.8714377012823604e+00 1.0572284411893524e+01 2.1435071779049792e+01 0 0 -1
251 2 7.5978594466900979e+00 6.0036293188231351e+00 1.1418951776588537e+01 0 0 0
1691 2 1.3904052767639623e+01 2.5013750834197324e+01 1.6340278474935792e+00 0 -1 1
316 1 2.6959169958686019e+01 3.0334409391931327e+01 2.5026567557682522e+01 0 -1 -1
2612 2 1.3297166666241429e+01 2.9657532973231120e+01 1.3198865594395606e+01 0 0 1
2491 1 1.0043191568723591e+01 1.8636941657145730e+01 2.1100938353045984e+00 0 0 1
2389 1 1.0996331825885761e+01 2.6763734100039610e+01 7.9238577817508435e+00 0 0 0
1110 2 1.2909751234917056e+01 7.2467784630157812e+00 1.4869206542324360e+01 0 0 0
1876 1 2.2996979572485660e+01 3.1207586975812220e+01 1.7237959153587887e+01 0 -1 0
2563 1 2.4783586602928924e+01 2.0166631635459844e+01 2.2504265404319579e+01 0 1 -1
2630 2 1.0522114439661722e+01 4.4569161321444586e+00 1.1581797072741656e+01 0 0 0
216 2 1.4345506842197709e+01 1.8247700435441338e+01 9.2397583805073040e+00 0 0 0
819 2 2.0115836692147905e+01 3.3281609351830078e+01 2.0776215988451970e+01 0 0 -1
373 1 3.8532802083542217e+00 2.4659749857791375e+00 4.8858802021914469e+00 0 0 0
1049 2 1.0319252186377465e+01 2.1621341534901546e+01 6.2409650872265914e+00 0 0 0
2512 1 1.8291553905574620e+01 2.7009118560865460e+01 1.8461506708495641e+01 0 0 0
214 1 1.3822598323520959e+01 1.7969880305457412e+01 8.4095907624074737e+00 0 0 0
1900 1 3.6823013288236224e+00 2.2391262310001951e+00 4.4620570522010061e-01 0 0 1
375 2 4.7461899768120848e+00 2.0768584007240531e+00 5.1268468213138272e+00 0 0 0
1668 2 1.7335813144007535e+01 1.7766963800900477e+01 2.5227573286034822e+01 0 0 0
2439 2 7.5901340554963088e+00 1.4599642758404160e+01 4.0773036177918458e+00 0 1 0
189 2 1.7179955041640014e+01 2.4273386376412393e+01 7.4579876336542839e+00 0 0 0
844 1 1.6402927003857851e+01 2.1997913997598829e+01 2.2368713400870568e+01 0 0 -1
187 1 1.6403428017655891e+01 2.3772551939906418e+01 7.1858682120998392e+00 0 0 0
1611 2 9.3561602773787982e+00 1.6080700234418462e+01 1.0525498170234124e+00 0 -1 0
314 2 1.0482635700982652e+01 1.4461263780006814e+01 1.2797810931552133e+01 0 0 -1
2602 1 1.3728674834671132e+01 1.9526407251133296e+01 2.2027723103833509e+01 0 1 0
1548 2 1.4780653421587484e+01 1.8140103573085234e+01 1.6099257213587087e+01 0 1 0
1560 2 2.1548304337614173e+01 3.0108868080811430e+01 2.6503797562908250e+01 0 0 0
1059 2 1.9109480414294342e+01 3.2848911102550090e+01 2.7023376984899361e+01 0 0 -1
271 1 1.1134569215980617e+01 1.2349943930735559e+01 2.2599077582788389e+01 0 0 0
2469 2 2.0259397956587009e+01 1.9076559648768860e+01 2.6115046805449406e+01 0 0 0
1657 1 1.6366357473544511e+01 2.8790177980166483e+01 1.7784295428564178e+01 0 -1 0
385 1 2.1127050209994703e+01 2.1310084191334102e+01 2.3078181623073760e+01 0 0 -1
154 1 6.7888824894763591e+00 2.8865125623854837e+00 3.7039729840673226e+00 0 0 0
29 2 1.9207855934687394e+01 2.3976268876423930e+01 1.2730254211224844e+01 0 0 0
345 2 3.8616869055913288e+00 1.1043046160382550e+01 1.6296385256090853e+00 0 0 0
625 1 1.9432533265818588e+01 1.0783534492288124e+01 2.5099787119452326e+01 0 0 -1
1878 2 2.2288087824061620e+01 3.1186761185296891e+01 1.7884902260076291e+01 0 -1 0
2437 1 6.6015734770213008e+00 1.4797601383243688e+01 4.1004894371990535e+00 0 1 0
1615 1 1.2271974484555464e+01 2.3721687160771740e+01 1.5417436571789834e+01 0 -1 0
920 2 2.1800512737316364e+01 2.4000163315676133e+01 2.0921334075762879e+01 0 0 -1
284 2 2.4222382258220005e+01 3.0759848023092438e+01 1.8433596609628896e+01 0 0 -1
871 1 1.0440216179808916e+01 1.4680368303704862e+01 1.7051290376006218e+01 0 0 0
820 1 1.7470962758955825e+01 2.5301508124041227e+01 2.6146276636419831e+01 0 0 -1
2670 2 2.4729033180488909e+01 2.4137874827816216e+01 1.4657355321034734e+01 0 0 0
117 2 1.0513272652982600e+01 1.1263605597680948e+01 2.5191375308133948e+00 0 0 0
2433 2 1.7929507310993866e+01 2.9989338051364232e+01 2.0011848005446151e+01 0 0 0
2492 2 9.1909762259649757e+00 1.9038453872692955e+01 2.0326889977446623e+00 0 0 1
1085 2 1.4926114430634438e+01 1.7216510673415566e+01 7.4751244437108628e+00 0 0 0
848 2 1.6252301725043264e+01 1.8851184284662594e+01 1.3583311184490805e+01 0 0 -1
1618 1 7.5284795928392079e+00 1.8908273108464751e+01 6.4397663447256051e+00 0 0 1
1084 1 1.5678578113964452e+01 1.6687347913133173e+01 6.9853918437312208e+00 0 0 0
1910 2 1.7687837803104070e+01 9.7221263640482807e+00 1.3408660077777471e+01 0 0 0
1087 1 1.9212090187114743e+01 2.7309683685690974e+01 2.6646795771919393e+01 0 0 -1
360 2 1.6930343792991419e+01 2.5054894199016566e+01 2.3319005865311770e+01 0 0 0
196 1 1.0615276274330936e+01 3.1855175589569908e+00 1.0216666922070342e+01 0 0 0
777 2 1.2788732836046925e+01 2.4328868215478128e+01 5.1310613455411644e+00 0 0 0
308 2 2.1354671354949414e+01 2.9305761028558877e+01 2.1991030801968389e+01 0 0 -1
309 2 2.1859736609801107e+01 3.0111316975987933e+01 2.0708166145857859e+01 0 0 -1
3003 2 1.1577292117286889e+01 7.0409886123681957e+00 7.8759647543114975e+00 0 1 0
1809 2 1.3887314721439896e+01 1.6311822788691622e+01 1.3121994341368598e+01 0 0 0
880 1 1.7661968997878169e+01 1.8879922512093568e+01 1.4968491749227923e+01 0 0 0
315 2 9.6000887036886340e+00 1.4781148553784577e+01 1.4005530568037987e+01 0 0 -1
283 1 2.4749155952484909e+01 3.0639640773230745e+01 1.9226351431559888e+01 0 0 -1
386 2 2.1810562001462205e+01 2.1972435277048426e+01 2.3348011235766801e+01 0 0 -1
801 2 1.7340726582845097e+01 9.9412279297187016e+00 1.9062155073708476e+00 0 0 1
726 2 1.8289048391964435e+01 2.8413341974036012e+01 2.8524129068708088e+00 0 -1 1
2628 2 1.3274767757550567e+01 2.3245985186473074e+01 2.0960284065624581e+01 0 0 0