LAMMPS data file via write_data, version 15 Apr 2020, timestep = 6295000

6144 atoms
2 atom types

-2.7658264258602259e+00 6.2734115572020130e+01 xlo xhi
0.0000000000000000e+00 2.8121764122983155e+01 ylo yhi
0.0000000000000000e+00 2.7181664446879921e+01 zlo zhi
1.0167339819050731e+01 1.0192210922112423e+01 7.1228342698539073e+00 xy xz yz

Masses

1 16
2 2

Atoms # atomic

232 1 1.2539858437054114e+01 5.5672120116324093e+00 1.2926131081613039e+00 0 0 0
3600 2 8.2025691642303880e+00 8.1866789641402118e+00 1.8517303650909927e+01 1 0 0
1278 2 2.2636245081118151e+01 1.2992421727289887e+01 2.3310969744382110e+01 0 1 0
282 2 5.4247655452271299e+00 6.7053265714756751e+00 1.1312417033545396e+01 0 0 0
1026 2 6.1404194717700040e+00 1.3906606922852248e+01 1.2863805555935146e+00 0 -1 0
3646 1 9.2084423315379702e+00 9.0177800466790856e+00 2.1688924844983820e+01 1 0 0
3028 1 1.0308556555757828e+01 7.4148757995018331e+00 3.9968879570221278e+00 0 0 1
4552 1 1.1275900042414428e+01 1.8804268741802883e+01 1.7981506996757954e+01 1 0 0
59 2 1.8053509284947225e+01 3.2021938669363628e+01 2.2465706847002849e+01 0 -1 0
987 2 2.2991406325164988e+01 2.3475909359455571e+01 2.0739838559615400e+01 0 0 -1
2431 1 1.4877198103997937e+01 1.8454180315066314e+01 1.5024834579026090e+00 0 0 2
1323 2 1.4797659182817579e+01 2.2507778049407293e+01 2.1321244053121085e+01 0 -1 -1
460 1 4.7131173823375745e+00 1.1847791666107423e+01 9.0228308610533308e+00 0 0 0
2614 1 6.3862989712084808e+00 2.2820078557563509e+01 1.6488316970583780e-01 0 0 1
37 1 2.1224746351831264e+01 7.1063126692316949e+00 2.0502263330130958e+01 0 0 -1
5870 2 1.2083971819662590e+01 1.2691130855454290e+01 1.4490194294734160e+01 1 0 0
198 2 8.5746346384963985e+00 1.3108704746640219e+01 7.5850845798784210e+00 0 0 0
2090 2 1.0275363885431421e+01 1.4053094133629818e+01 1.4495930006077053e+01 0 0 0
3488 2 1.1580645238167499e+01 1.8412739704893458e+01 2.6573395760714604e+01 1 0 -1
6133 1 1.9415919999599861e+01 2.3161059975579043e+01 1.3093619382150870e+01 1 0 0
1374 2 7.6389228825641045e+00 9.3838077909135595e+00 5.6816965157136234e+00 0 0 0
60 2 1.7294939314275872e+01 3.2989890216535578e+01 2.3456590579137067e+01 0 -1 0
628 1 1.3217351775019949e+01 1.5194884659896070e+01 1.5021451086573796e+01 0 0 0
1025 2 6.9499344122530307e+00 1.5016361967465736e+01 2.0242411600801673e+00 0 -1 0
77 2 1.0240656660362365e+01 1.9885085998423062e+01 1.1923705659845158e+01 0 -1 0
4526 2 1.2954786901239308e+01 1.9796626022728933e+01 2.1444848406145166e+01 1 0 -1
817 1 2.0101960200135842e+01 2.5261424151283201e+01 1.6983901999832586e+01 0 0 -1
5923 1 8.2809031119540677e+00 1.3126854080507449e+01 3.2927389607914983e+00 1 0 1
1615 1 8.4328980991118598e+00 1.8712614062116067e+01 3.6978099461201746e+00 0 -1 0
1180 1 2.5589933235109253e+01 2.8860015124872664e+01 2.3631663129584219e+01 0 0 0
1032 2 4.6498602765983010e+00 7.8821575935572206e+00 1.3462358383240611e+01 0 1 -1
3046 1 2.1633472098268896e+01 1.5870034477658031e+01 1.3163713522731260e+01 0 0 1
1137 2 1.4937416406596693e+01 2.5681969844825424e+01 2.0552637421868805e+01 0 1 0
2451 2 2.7697994340534542e+01 2.2977789201466223e+01 2.2129464634238580e+01 0 0 0
6134 2 1.9615398123354435e+01 2.3073404543530906e+01 1.2083612224111429e+01 1 0 0
2271 2 1.4597156691874773e+01 2.1863601711532414e+01 9.4133787152003752e+00 0 -1 1
1744 1 1.8854608178078916e+01 1.0632525800959069e+01 1.9284023020022065e+01 0 0 -1
872 2 1.3204156372063974e+01 2.4496529807727942e+01 9.5713982471931249e+00 0 0 0
4554 2 1.1470266990308398e+01 1.9243149194743282e+01 1.7132799346039185e+01 1 0 0
1737 2 1.0330828527717129e+01 6.7208483877647964e+00 2.3298121601688976e+01 0 0 0
2247 2 1.2319690935091982e+01 1.5652444214492181e+01 1.7909670603627543e+01 0 0 0
2494 1 1.7573359503567971e+01 2.2439687728780534e+01 2.2351701796586870e+01 0 0 0
78 2 9.8386296578470969e+00 2.0155109794570553e+01 1.3394971717701162e+01 0 -1 0
975 2 7.5022894552140027e+00 5.4699042204102852e+00 8.0630917823917105e+00 0 0 0
318 2 1.2512736292423453e+01 6.3219039183301442e+00 3.8706749659081980e+00 0 0 -1
578 2 6.5332783666382817e+00 1.0659702481169990e+01 1.4888745751365914e+01 0 1 -1
5175 2 2.2270520760609102e+01 2.6624983715140822e+01 1.9010993209559075e+01 1 -1 0
3494 2 1.5820887082408387e+01 5.8168633132768566e+00 1.8503679360988805e+01 1 0 -1
2671 1 1.7122394100530030e+01 2.8000667356759720e+01 1.6449228848985729e+01 0 0 -1
904 1 1.9858081202173260e+01 6.3082445452138121e+00 1.7034410794162156e+01 0 -1 0
2573 2 1.0156240073242117e+01 1.3983659273465330e+01 4.3501740465935983e+00 0 0 0
312 2 8.2071793613673307e+00 3.4818199615374037e+00 1.0708465940767223e+01 0 1 -1
892 1 6.5475927853099876e+00 1.0889498897269588e+01 1.3185154861098090e+01 0 0 1
1646 2 1.6738424484709519e+01 1.9453556889891601e+01 1.5834976369151677e+01 0 0 0
776 2 2.6587204204281228e+01 2.8258790351000346e+01 1.3309613511030564e+01 0 0 0
2885 2 2.3728556962962269e+01 2.3315949465187312e+01 1.6614843084589555e+01 0 0 1
119 2 2.5151924703161868e+01 2.8929552353025059e+01 1.8530073102022168e+01 0 -1 0
2363 2 1.6044377145606539e+01 2.1636721033199638e+01 2.5069337368630819e+01 0 1 0
1827 2 1.4015024338613738e+01 2.6352510314929482e+01 1.8796763575815973e+00 0 -1 0
355 1 1.6484812544819828e+01 1.6403223482371402e+01 3.7401654038878012e+00 0 0 0
2616 2 1.6550533784056931e+01 2.9164059099429309e+01 2.6808110961760324e+01 0 0 0
1842 2 1.3776040643293406e+01 2.2517293560799342e+01 7.5923242700572597e+00 0 -1 1
2384 2 1.8000525079961022e+01 1.4469331142598300e+01 5.1300595971006970e+00 0 0 1
1682 2 1.3203272706618572e+01 2.1772769305237592e+01 1.3555479564933430e+01 0 -1 0
87 2 1.6592290356196575e+01 1.9870760045365333e+01 4.9288858186017821e+00 0 0 -1
2500 1 1.4325970774637057e+01 2.7467753604995210e+01 7.0533726906299679e+00 0 0 1
2752 1 1.9609615566652295e+01 2.6388337429123080e+01 7.3182250948485077e+00 0 -1 1
46 1 3.1393631234202699e+00 1.0424183668512873e+01 3.4421546078521916e+00 0 1 0
1802 2 1.0822564412230037e+01 7.3554113139049928e+00 1.4918588079746462e+01 0 -1 0
5902 1 6.1007404383157624e+00 2.0815259325787920e+01 4.7351613537029715e+00 1 0 1
3833 2 1.6476265265182029e+01 1.6390858830102808e+01 7.0430907181687852e+00 1 0 0
1276 1 2.3098887099194712e+01 1.2535502443595178e+01 2.2585684790400396e+01 0 1 0
946 1 1.2862407168849490e+01 1.2424731126101918e+01 2.1811485539318589e+01 0 -1 0
1735 1 9.5267185706072048e+00 6.6127439854184100e+00 2.2826545630077394e+01 0 0 0
251 2 3.2655824655898762e+00 1.5674052679251134e+00 4.8738505263174341e+00 0 1 0
33 2 9.2934671978719070e+00 1.2016950953826083e+01 2.6059634547172394e+01 0 0 0
4435 1 1.8531519392899369e+01 8.6292539082042499e+00 2.2836202383193974e+01 1 0 0
2073 2 1.1705429014423819e+01 5.6057369678955427e+00 2.0285255711641383e+01 0 1 0
1084 1 1.8251887432264454e+01 2.8956250738771175e+01 5.4516845884871117e+00 0 -1 1
2322 2 -8.3842031693854047e-01 2.2784134697324414e+00 2.7653568616073948e-01 0 0 1
3647 2 9.7516494291598796e+00 9.6803086203632596e+00 2.1166514648204288e+01 1 0 0
1265 2 2.5208950316666410e+01 3.1879272393885095e+01 1.8286689240759035e+01 0 0 0
124 1 5.5237169390259684e+00 1.1446873152258123e+01 6.6033172464393601e+00 0 -1 1
2093 2 5.0187236523001566e+00 3.3835886595231535e+00 3.3462881228187396e+00 0 0 1
3003 2 1.3730084912379553e+01 1.8070274145257748e+01 2.5691848748269521e+01 0 0 -1
1715 2 8.8789409469467326e+00 2.1524157444887020e+01 1.1980716858626744e+01 0 -2 1
6045 2 2.1680406398685481e+01 2.8257182557257959e+01 2.5493563725440005e+00 1 -1 1
3548 2 1.6099879946744217e+01 2.5783413465742044e+01 2.6226688531788565e+01 1 -1 -1
619 1 1.1850434615124474e+01 8.3640679465532521e+00 9.5566078589407635e+00 0 0 0
5948 2 1.2289583699855095e+01 1.6556331086574495e+01 2.7126756774343811e+01 1 1 -1
1507 1 1.0404636064339327e+01 1.1465759594523897e+01 2.7178223506491687e+01 0 1 -1
168 2 2.1898354067017394e+01 1.5093662449359272e+01 2.3469190714628965e+01 0 0 0
2419 1 1.5303887703234327e+01 2.1966519774155508e+01 1.6633118418106520e+01 0 0 0
873 2 1.3135328485307426e+01 2.6016508519661080e+01 8.9116479706448803e+00 0 0 0
1345 1 1.3123913086006054e+01 2.3652654520632364e+01 1.0953243717659335e+01 0 1 0
1372 1 7.3091517460547060e+00 9.0502625409997837e+00 6.5398064273117340e+00 0 0 0
2357 2 1.0666238801667452e+01 2.7141387663966821e+01 5.0548157853269631e+00 0 0 0
2744 2 1.7888239661520519e+01 8.5828459849489818e+00 1.3226828084290833e+01 0 0 1
868 1 2.1490966906021331e+01 1.1557520183952018e+01 1.9386731559495349e+01 0 0 0
2412 2 7.7608359410556247e+00 9.5426568761987056e+00 2.8871392271099898e+00 0 1 1
1087 1 1.6526687941428673e+01 1.0545694585107633e+01 1.7689837907496138e+01 0 1 -1
945 2 1.0266206166996303e+01 2.2290497081801686e+01 4.4703436523356279e+00 0 1 0
1578 2 1.0427110800584868e+01 2.9387939015745552e+01 8.3998599650194592e+00 0 -2 1
5079 2 6.8134275021522548e+00 5.9664606139922141e+00 1.2814218038939714e+01 1 0 0
5152 1 1.9672866119970962e+01 2.6892435051063124e+01 2.6996214442353747e+01 1 -1 0
5365 1 2.0135154431536073e+01 3.0039462344788134e+01 2.4769401324304717e+01 1 -1 0
2014 1 2.1880710570136721e+01 8.8754715356534533e+00 2.3618746906791586e+01 0 1 -1
392 2 2.7947104270023132e+01 2.8032951334775113e+01 2.1355129917942257e+01 0 0 -1
2233 1 1.5945860976471195e+01 1.8629924342806206e+01 2.0123823866453222e+01 0 -1 0
5033 2 1.4514547148506427e+01 2.8661771249721689e+01 8.8065431883608287e+00 1 0 1
1616 2 7.5333729939713461e+00 1.8472116544437139e+01 3.8894542949186652e+00 0 -1 0
1917 2 1.0019366722941518e+01 1.6199027188518727e+01 2.4369781061683322e+00 0 1 0
238 1 2.7734586884247541e+01 2.8202612829087236e+01 2.6544456049971672e+01 0 0 -1
466 1 1.8681664452465611e+01 2.2317680562716859e+01 3.5936237938721232e+00 0 -1 0
2018 2 2.6017198489748814e+01 3.2097289720226712e+01 2.5044386456169580e+01 0 0 -1
2358 2 1.0442331251057658e+01 2.6480166375595410e+01 6.3543159323236793e+00 0 0 0
304 1 1.9637373339381803e+01 2.0311621947179301e+01 1.3224430432030669e+01 0 0 -1
3686 2 1.6565814919280879e+01 1.5870426438544280e+01 2.1482852734376301e+01 1 -1 -1
122 2 8.0275864041720872e+00 9.6115891698010039e+00 8.1000489101494413e+00 0 0 -1
629 2 1.2750004915290024e+01 1.5605332856823546e+01 1.5790486957026658e+01 0 0 0
174 2 1.5796798299078027e+01 1.5710706914316159e+01 2.6641582069551731e+01 0 0 -1
5943 2 2.0520169414281924e+01 3.2449561427237569e+01 2.2628755934913759e+01 1 0 0
4259 2 1.1326873450923451e+01 2.5175198764115020e+01 4.2793490739316384e+00 1 0 0
184 1 1.7836783009796548e+01 1.9511950890404385e+01 2.2001438915389489e+01 0 1 0
2743 1 1.7506666932719138e+01 8.9865790592916941e+00 1.2372557431962782e+01 0 0 1
2826 2 1.6126339066366207e+01 2.7757885922280312e+01 2.5074501321208412e+01 0 0 0
491 2 1.7669150187721335e+01 2.2849707656202433e+01 8.3532345637621863e-01 0 0 0
2459 2 1.8151994609468819e+01 1.2354553890088962e+01 1.0100494654839025e+01 0 0 1
1775 2 2.5065709103310390e+00 8.8514548459057405e+00 3.0860813238102773e+00 0 0 1
521 2 1.2705665529120143e+01 1.4696995280698541e+01 2.0405036224326722e+01 0 0 0
1042 1 1.2562030663437604e+01 1.1474537449294456e+01 1.5777288877747935e+01 0 2 -1
1266 2 1.4928086081020339e+01 4.8792876146803863e+00 1.7158935592542488e+01 0 1 0
2864 2 2.5656446910453433e+01 2.0337398113650199e+01 2.4429581930604257e+01 0 0 0
1869 2 2.3177039208432237e+01 1.7188619037132952e+01 2.2600777291235492e+01 0 0 0
1693 1 1.6823534301986946e+01 2.4292213724667050e+01 1.0638390022849052e+01 0 0 0
1103 2 1.8847703505284073e+01 1.8215901529464787e+01 2.2287549363731141e+01 0 0 -1
234 2 1.1608970517602190e+01 5.5867535028190183e+00 1.0702706066526817e+00 0 0 0
88 1 1.2224830519968775e+01 2.1092808153530598e+01 9.9344410218192696e+00 0 -1 -1
1856 2 1.3610230872453474e+01 1.8207272455359050e+01 1.5161139530005290e+01 0 1 0
1686 2 6.6793989170139270e+00 1.3625597598175906e+01 1.1355537929696506e+01 0 -2 1
1468 1 1.4516233185478026e+01 2.3097999332734787e+01 2.4216725193194106e+00 0 0 1
4386 2 7.1427093085636510e+00 5.1542614355394640e+00 5.4574198383513064e+00 1 0 0
5807 2 1.7325661147486219e+01 2.8558942846620138e+01 1.9291434592508268e+00 1 0 1
5178 2 2.7607063812746112e+01 1.9205888809915891e+01 2.5757046318360480e+01 1 -1 1
2601 2 2.0508231444988354e+01 3.1034485783606652e+01 1.1205388651198676e+01 0 0 0
1470 2 1.4277238847709825e+01 2.4066392476504596e+01 2.4107451469033543e+00 0 0 1
3737 2 1.3723205682711225e+01 1.7656187526776407e+01 1.7611160883747203e+01 1 0 0
57 2 1.1899176657709337e+01 2.1914751563055340e+01 1.5818213875288341e+01 0 -1 0
189 2 1.3734542027599606e+01 1.9372443839454451e+01 6.8536612015708558e+00 0 0 1
1801 1 1.1090821744612750e+01 7.1243532595832590e+00 1.4050974819438098e+01 0 -1 0
1549 1 1.0343650615527524e+01 5.9432444203677246e+00 1.0394269754552615e+01 0 0 0
305 2 1.9600850171421587e+01 2.1205159526731833e+01 1.2923918378310395e+01 0 0 -1
3495 2 1.6713435393127696e+01 6.9816858844092753e+00 1.8142696105643594e+01 1 0 -1
5326 1 2.4505342517010945e+01 3.3331310740756521e+01 2.2383807092567185e+01 1 -1 0
5232 2 2.4662093525283449e+01 3.1613570363867762e+01 2.6226841809741483e+01 1 -1 0
5951 2 8.8510120025872983e+00 1.2233293133911822e+01 6.8024214986649151e-02 1 0 1
5782 1 5.9685088367371169e+00 6.9497698970377275e+00 2.1560075220862203e+01 1 1 0
1206 2 1.5342330007190746e+01 2.4975227052996082e+01 1.8426064464279364e+01 0 1 0
2613 2 1.4706017514671831e+01 1.0098251623741103e+01 4.7945173181479772e+00 0 0 1
313 1 1.3894569561488197e+01 3.0966404853996920e+01 1.5736879926739032e+01 0 0 -1
4243 1 2.4404554626099866e+01 3.1168712091196344e+01 1.5586652070153681e+01 1 0 -1
72 2 1.4187588802211376e+01 1.3061089192519848e+01 2.4644541306153801e+01 0 0 -1
2812 1 3.6741920941185056e+00 7.5462443384455042e+00 1.2129009749089036e+01 0 2 0
4458 2 1.3040325605368052e+01 1.7831552053480081e+01 4.3731133770052288e+00 1 0 0
6111 2 1.0764095509891369e+01 2.4358805770218964e+01 1.5111770123750574e+01 1 0 0
1248 2 2.3381797825768416e+01 1.5129133059910131e+01 1.9165017003836606e+01 0 1 -1
4556 2 1.0705346865835253e+01 1.3043573834072536e+01 8.0187215312075804e+00 1 0 0
4391 2 1.0572951937178320e+01 2.0604565797336669e+01 1.9098172470291750e+01 1 0 0
1696 1 1.4536170120708263e+01 1.3465724972026726e+01 1.2411653753273587e+01 0 0 1
766 1 1.9312532210634821e+01 2.9846627252805810e+01 8.7216203237625756e+00 0 0 0
1685 2 7.6194343927135826e+00 1.2862320664323299e+01 1.0313279143816708e+01 0 -2 1
4368 2 1.4254487367993427e+01 2.1030530961782951e+01 2.3685363106051486e+01 1 0 0
3717 2 1.7951569341927382e+01 2.2183962578046852e+01 1.8423814478407987e+01 1 0 -1
2071 1 1.1797459090708504e+01 6.0797261780514340e+00 2.1115672274807864e+01 0 1 0
5011 1 8.0548918552967201e+00 7.4647565360983315e+00 1.9876403290333563e+01 1 0 0
1067 2 2.2991770900009556e+01 2.6348642904348743e+01 1.0177538586517006e+01 0 2 -1
2827 1 2.7666231158916503e+01 3.2048386633415745e+01 2.2017771397577214e+01 0 0 -1
802 1 1.3438139077681104e+01 2.7237903078335307e+01 1.5959211346432989e+01 0 -1 0
2119 1 1.0569730503845710e+01 8.4918208559996238e+00 1.1828763912132947e+01 0 0 1
1076 2 5.8553420880044769e+00 1.8239383593469707e+01 5.7687996383446025e+00 0 1 0
6143 2 1.3889676784311487e+01 1.0333246466096085e+01 1.1260801198654006e+01 1 1 0
1569 2 3.2138788092160677e+00 9.2846012042484496e+00 5.2336321453672570e+00 0 1 0
4343 2 2.1023486189103885e+01 1.6636560462354243e+01 6.3258846703737746e+00 1 0 0
4576 1 1.0847792103266702e+01 2.3721586760709446e+01 1.1931318578312553e+01 1 0 0
2091 2 9.7249145181578172e+00 1.5454168295615828e+01 1.4765274938904742e+01 0 0 0
2310 2 1.5331035810869317e+01 1.4494475439661898e+01 2.0561988148114118e+01 0 0 0
5801 2 4.3108745515473421e+00 7.5930650705910256e+00 2.9000117944180253e+00 1 0 1
6061 1 1.3976994059399885e+01 2.2404036284128683e+01 2.2660353509224770e+01 1 0 0
5328 2 2.3543139407884311e+01 3.3473675574418358e+01 2.2592977370975131e+01 1 -1 0
2495 2 1.7261184241599622e+01 2.2301108100505903e+01 2.3314412761055504e+01 0 0 0
1995 2 7.6311953185053270e+00 5.7633765298868296e+00 1.6813449926851636e+01 0 0 0
1681 1 1.3116294832074466e+01 2.0847502533437169e+01 1.3237185010487131e+01 0 -1 0
2258 2 1.5053749575469936e+01 2.5275231582643791e+01 2.3149248999322204e+01 0 0 0
1290 2 1.4929040503485652e+01 6.4278806978839569e+00 1.5135009628144720e+01 0 1 0
3572 2 2.0929595076200023e+01 1.8561037901026381e+01 2.5212669412623235e+01 1 0 -1
6109 1 1.0196797412251058e+01 2.3971061279229758e+01 1.4453664059449414e+01 1 0 0
1119 2 3.6069746428646932e+00 5.7279875788899881e+00 3.4181833997874449e+00 0 1 0
3547 1 1.6059871126661434e+01 2.4810894580439957e+01 2.6145298269763291e+01 1 -1 -1
1657 1 1.5763308500757454e+01 2.5765093941493515e+01 1.5456504213711813e+01 0 -1 0
1164 2 1.0744928162774524e+01 1.4501291031177832e+01 1.9168480553136600e+01 0 1 0
3832 1 1.6048965095289763e+01 1.6938205064746423e+01 6.3893386307436044e+00 1 0 0
310 1 7.3737703648071324e+00 3.7820965121220880e+00 1.0332995338570111e+01 0 1 -1
2564 2 1.3407745991395245e+01 1.0154905862870589e+01 1.8051575339812594e+01 0 1 0
2697 2 1.3355841108387164e+01 2.8377044994528969e+01 1.4640987541843048e+01 0 1 0
5966 2 2.0505061884200948e+01 8.9006484708982381e+00 2.6606431377796032e+01 1 1 -1
699 2 1.9339202147793317e+00 7.3162203465072277e+00 5.7218187840528474e+00 0 0 0
1867 1 2.3104128602032542e+01 1.6225402852592040e+01 2.2435417229944182e+01 0 0 0
984 2 1.6174715965180795e+01 1.1559394105052309e+01 1.4360739188545004e+01 0 0 0
2600 2 1.0018062738925661e+01 4.4934863041158248e+00 1.0974174888702215e+01 0 1 0
2350 1 7.6641257425142193e+00 1.0077194665224805e+01 2.3980439280330103e+01 0 1 0
1244 2 7.4722204797339487e-01 1.3579594634465533e+00 3.0763502396932036e+00 0 1 0
6016 1 1.0031213856841939e+01 1.2101919946007852e+01 2.3168443806779056e+01 1 0 0
5154 2 1.9295940618758415e+01 2.5967084203107166e+01 2.6924698004440355e+01 1 -1 0
2428 1 1.6600520462861418e+01 2.8004619605534852e+01 2.3721399259820018e+01 0 0 1
2313 2 1.7052652430821283e+01 1.5128163321645522e+01 1.5517082204508936e+01 0 0 0
1825 1 1.3386893745025148e+01 2.5668981659862762e+01 1.9956623780333560e+00 0 -1 0
2448 2 1.0677287936933908e+01 9.5462902334336288e+00 2.5083790434029012e+01 0 1 -1
3838 1 1.6220340049261715e+01 2.5337754588902257e+01 2.1736387111965204e+01 1 0 0
1118 2 3.6815177340452321e+00 4.5310206006330400e+00 4.5048446798146031e+00 0 1 0
361 1 1.3047070641403350e+01 8.3842452718106095e+00 2.0612059949072751e+01 0 0 0
6018 2 1.0624187355507416e+01 1.1364012746889216e+01 2.3387406685927679e+01 1 0 0
4366 1 1.4375820222863204e+01 2.0444771767377034e+01 2.4522712554295570e+01 1 0 0
859 1 1.9802585395836839e+01 1.4894177999077097e+01 9.3956431615913250e+00 0 0 0
2908 1 7.6859164246705003e+00 2.6377373193270170e+01 2.4836285871523758e-01 0 -1 1
974 2 8.5692676336027134e+00 6.0204484295546656e+00 8.9729448304691939e+00 0 0 0
2007 2 1.4134958846157900e+01 2.2906290097308833e+01 1.5576910620953644e+01 0 -1 0
1720 1 4.1162632112887607e+00 4.2128037157966389e+00 9.3062518783963952e+00 0 0 1
2700 2 1.2302091074019524e+01 1.3277216954097538e+01 1.1547355408425144e+00 0 1 2
3648 2 8.6778609047245379e+00 9.5823930303419580e+00 2.2274033032195078e+01 1 0 0
2170 1 4.7506242472114195e+00 1.7066697513690595e+01 1.2497987947138367e+00 0 0 1
1051 1 1.0977433338628144e+01 1.4762170184299590e+01 2.3114329275014931e+01 0 2 -2
3030 2 1.0267803028137671e+01 6.8042519070466696e+00 4.7578314713945753e+00 0 0 1
4480 1 7.9911319514503916e+00 1.1831829965281607e+01 2.1341675435644149e+01 1 1 0
2328 2 7.8236977612313936e+00 1.3879340543372715e+01 1.3447809926182542e+01 0 1 1
888 2 2.2120565673019946e+01 2.1958101565179540e+01 1.7563438430961202e+01 0 1 -1
2695 1 1.3165698302453716e+01 2.8979394074195316e+01 1.3878638467949640e+01 0 1 0
5035 1 1.6904987396998123e+01 1.8124861369865641e+01 9.8283004663175380e+00 1 -1 1
3839 2 1.6423249126447679e+01 2.4425036341419450e+01 2.1522669222530460e+01 1 0 0
4486 1 7.9906906648485432e+00 1.6397009393659513e+01 2.2034198195465198e+00 1 0 0
5272 1 7.8979416885907199e+00 1.2982487721614286e+01 1.6617543179266100e+01 1 0 0
4455 2 1.0041874828984707e+01 2.4501326548401110e+01 8.3936322265830903e+00 1 0 0
2884 1 2.3259115831364571e+01 2.2466920595537907e+01 1.6398910754998575e+01 0 0 1
1659 2 1.6559799705399282e+01 2.5565425384952103e+01 1.4919868179429416e+01 0 -1 0
4506 2 1.6296346951565013e+01 2.1740642835024854e+01 1.2593064425591159e+01 1 0 1
1749 2 2.5718440610641316e+01 2.2530819040857978e+01 2.2479809464594961e+01 0 0 0
1932 2 1.2427260792579780e+01 1.1181724054543338e+01 2.4360504083960521e+01 0 1 0
1182 2 2.5409722687485726e+01 2.8534067675490867e+01 2.4542665915122733e+01 0 0 0
5831 2 2.3490194764194946e+01 2.3680974352674561e+01 1.2933492136385397e+01 1 0 0
1347 2 1.2302214247991882e+01 2.3927794319963454e+01 1.1460475524828414e+01 0 1 0
27 2 1.7084176075982846e+01 7.9573522823112768e+00 2.5502099493197729e+01 0 0 -1
894 2 5.7862117810864397e+00 1.0717339055402839e+01 1.2573260440977682e+01 0 0 1
3497 2 1.6224384296425956e+01 2.3576595341619221e+01 5.4555371372029660e+00 1 -1 1
5255 2 1.0291682165399880e+01 8.8010661081489694e+00 2.5314135445390900e+00 1 0 1
317 2 1.2629926151025380e+01 5.6848213522889868e+00 5.1996053691968553e+00 0 0 -1
12 2 1.0580988167149187e+01 2.0502337365316738e+01 6.9360225924518142e+00 0 0 -1
1690 1 1.0492896946645821e+01 1.1173109476171929e+01 1.2789791188471627e+01 0 0 0
5201 2 8.1660959801908373e+00 1.6143688840023952e+01 1.7867851411921745e+01 1 -1 0
1143 2 2.3588124518225630e+01 2.8575279928846548e+01 2.6576566989301991e+01 0 -1 -1
5371 1 1.6059552337475406e+01 1.8350443911933858e+01 2.3758921595691824e+01 1 -1 0
635 2 1.5052201430207226e+01 1.4799409112361293e+01 2.4898111882736387e+01 0 1 0
2742 2 1.4835689421837365e+01 1.7308995972580213e+01 1.3434675766082654e+01 0 1 0
481 1 1.5987458359671756e+01 2.6109375011181172e+01 8.9138293597383953e+00 0 0 -1
2955 2 1.9787115587553366e+01 1.5689812624951045e+01 4.3193116535686906e+00 0 0 0
5374 1 2.0286246254564407e+01 3.4671483271927492e+01 2.6332663349192039e+01 1 0 0
2499 2 2.2866174922471664e+01 2.2404997856602286e+01 5.6012951659965822e+00 0 1 0
4528 1 1.5717232520634653e+01 1.0966844341572635e+01 9.2797784357612230e+00 1 0 0
3517 1 1.1565161530005525e+01 2.2850437374598595e+01 2.1571972525534001e+01 1 -1 0
994 1 1.3115602835906438e+01 9.2703819760551056e+00 4.5310703325325852e+00 0 1 0
11 2 9.6287857871217035e+00 2.1445356610091796e+01 7.5925031687098050e+00 0 0 -1
2930 2 2.1988890718025868e+01 2.3169627814607317e+01 9.1639361759110187e+00 0 0 1
4525 1 1.2428686807210667e+01 1.9289836290630454e+01 2.2079286355045131e+01 1 0 -1
3792 2 4.7626145752354869e+00 1.0118906979521714e+01 9.9578616576411321e+00 1 0 0
773 2 2.4421408461796204e+01 2.1421631890313588e+01 1.5454290328506657e+01 0 0 0
2741 2 1.4539452166122533e+01 1.6513055757080224e+01 1.4692209241802708e+01 0 1 0
440 2 1.8166935776270790e+01 2.4765134813037726e+01 9.7264526819929884e+00 0 0 -1
2843 2 1.7542925438176169e+01 1.3822954172815869e+01 3.3934376276842565e-01 0 0 2
844 1 8.3723788502777516e+00 2.1253370320075167e+01 1.7998259018093459e+00 0 -1 0
73 1 1.1922592159565763e+01 2.2819363946319381e+01 2.3019694508530577e+00 0 -1 1
3002 2 1.4726484387366607e+01 1.7665858740772062e+01 2.6898612710197273e+01 0 0 -1
4385 2 8.1689377810871022e+00 3.8481665967970611e+00 5.5135317767773593e+00 1 0 0
501 2 2.1795861315363794e+01 1.5113573044196414e+01 1.6390659420815268e+01 0 0 0
1088 2 1.7242217471857447e+01 1.0579477597752554e+01 1.8433323790529776e+01 0 1 -1
2259 2 1.4912911926875545e+01 2.5017984240775807e+01 2.4569601404332335e+01 0 0 0
2618 2 1.7238712837276356e+01 1.6864930985161191e+01 9.0151988372684588e+00 0 1 0
389 2 1.2244141091261044e+01 3.8476375042722930e+00 1.3382898137904526e+01 0 1 -1
1663 1 1.4653543278726335e+01 7.0475681650878332e+00 1.1481774113743803e+01 0 0 0
5832 2 2.2938987426970890e+01 2.2157566887550676e+01 1.3038264696014748e+01 1 0 0
1634 2 2.2177318145422152e+01 1.8388205340325985e+01 7.2306277368191667e+00 0 -1 1
2438 2 9.8315953646025100e+00 6.4901224337263512e+00 7.2366625450052950e+00 0 2 -1
1511 2 1.2733529451124495e+01 1.9937038640857157e+01 4.8719883583656882e+00 0 0 1
6139 1 1.8983679344452323e+01 3.0792718891182499e+01 2.6963794352372751e+01 1 0 0
2137 1 1.4623681953873149e+01 1.3185724583360468e+01 1.6086972420160297e+01 0 0 0
943 1 1.0161488359092427e+01 2.1536422295219705e+01 3.8503597437302606e+00 0 1 0
2021 2 1.7373310215881553e+01 1.8316129218805411e+01 2.4870714261277097e+01 0 0 0
831 2 1.1548029739986406e+01 1.4615116716557965e+01 2.6172912317773452e+01 0 0 0
4 1 2.3635483379099412e+01 2.8866451853788842e+01 9.4223963412444043e+00 0 -2 0
2004 2 1.4537187960113691e+01 1.9306650921577869e+01 1.0788463216521054e+01 0 -1 1
5226 2 1.7599662049961896e+01 1.7594754973431129e+01 3.1532162950120690e-01 1 -1 1
2089 1 9.4564908520497184e+00 1.4507020773115837e+01 1.4767956217856751e+01 0 0 0
2862 2 1.2870828363967354e+01 1.6528124092912804e+00 3.5364740719074788e+00 0 1 1
1489 1 2.0462361716957989e+01 3.2363415814578104e+01 1.6726749745848863e+01 0 0 -1
5271 2 1.8043517419110060e+01 2.7664188475020058e+01 2.0604828307880407e+01 1 0 0
48 2 4.0257686219885729e+00 1.0853823408061231e+01 3.3390265693408168e+00 0 1 0
871 1 1.3267102040288542e+01 2.5045640730404237e+01 8.6720449083338025e+00 0 0 0
2269 1 1.5146044888460647e+01 2.2220345670829950e+01 8.7182027075670838e+00 0 -1 1
264 2 1.1672996051397240e+01 1.8250660560613859e+01 2.0998860665475291e+01 0 0 -1
5952 2 9.4020911307528259e+00 1.3743712756236473e+01 2.0139476501837358e-01 1 0 1
1776 2 2.5885657802460704e+00 8.2301082478716516e+00 1.7550280750383263e+00 0 0 1
737 2 5.2768066845098538e+00 1.8370629520371853e+01 1.8862554167664733e+00 0 0 0
4258 1 1.1860470906070894e+01 2.5934455446320833e+01 4.1489211688827723e+00 1 0 0
2048 2 2.0988986971530633e+01 1.9375619748390413e+01 8.6408211138400848e+00 0 0 0
654 2 2.1358016806571484e+01 1.7212273567908024e+01 9.9562922335933415e+00 0 0 0
2421 2 1.5817319779227105e+01 2.1109493416557392e+01 1.6539344634715668e+01 0 0 0
782 2 1.1007069390650445e+01 1.6697631546294947e+01 8.6860574483413462e+00 0 0 0
2757 2 1.3615762882882077e+01 3.0156804598146105e+00 2.6705690205309818e+00 0 1 1
3695 2 1.4800455482055920e+01 2.9414592600567584e+01 2.1727031645143061e+01 1 0 -1
2860 1 1.3589146485030426e+01 2.1463695675761469e+00 4.0223993755631717e+00 0 1 1
2372 2 2.7871928740665503e+01 2.4907856796353954e+01 1.8883790835261774e+01 0 1 0
2215 1 1.0360946450063306e+01 2.3891110385858440e+01 5.3424080864871488e+00 0 -1 0
3571 1 2.0813568499288046e+01 1.8935967422158999e+01 2.4287546600833270e+01 1 0 -1
2626 1 1.3204880090871132e+01 1.2236398934536762e+01 3.7116035190129990e+00 0 0 1
5846 2 1.0362431448659887e+01 1.6614095140412310e+01 2.3197678606593865e+01 1 0 0
839 2 1.1866403512934379e+01 1.1923024365023437e+01 9.7521282103070170e+00 0 1 0
1397 2 2.3221004858452055e+01 1.3446644244615129e+01 2.1135983775830638e+01 0 0 0
495 2 1.0132190426494061e+01 3.3316252030889846e+00 1.3878414517353268e+00 0 0 0
4527 2 1.1938244788342930e+01 2.0001483995487316e+01 2.2600544875105999e+01 1 0 -1
1513 1 1.5275622977773061e+01 1.0736105404523791e+01 2.6409533723527023e+01 0 0 0
5802 2 5.2900054627172146e+00 6.4459956922818842e+00 2.4420719415925158e+00 1 0 1
3614 2 1.9119852847538077e+01 1.1778268562011032e+01 8.1178196757655012e+00 1 0 0
4577 2 1.0575738120243212e+01 2.3790606115882863e+01 1.2880981473566495e+01 1 0 0
25 1 1.6699120556354622e+01 7.1823616594997697e+00 2.5868078762561641e+01 0 0 -1
393 2 2.7665507690559927e+01 2.6871220730038740e+01 2.2306923055768834e+01 0 0 -1
2349 2 1.9013587101154627e+01 1.9907079579152612e+01 5.5859873331612562e+00 0 0 2
268 1 1.8090660759920304e+01 9.2195836097807771e+00 9.8371295706495143e+00 0 -1 0
1373 2 6.8756696838168736e+00 8.2204790061992146e+00 6.2832002239907441e+00 0 0 0
1746 2 1.9734783058656326e+01 1.1051258259200260e+01 1.9113042472764096e+01 0 0 -1
5230 1 2.5484502078993138e+01 3.1017859787387671e+01 2.6163217715248816e+01 1 -1 0
2526 2 1.3868127485490881e+01 1.5054059066061864e+01 2.2653144517546433e+01 0 1 0
1838 2 2.2097781581598767e+01 1.6969519431705493e+01 2.6387088417007877e+01 0 0 -1
1844 2 1.4616325607041087e+01 3.1071487088311713e+01 1.9088776845929218e+01 0 -1 0
2172 2 5.1671605729193253e+00 1.6180796776162076e+01 1.4263191194015030e+00 0 0 1
2677 1 2.5280098485777096e+01 2.5964562488619283e+01 1.5224085661970344e+01 0 1 0
1352 2 5.0910162025668164e+00 1.3280457643113250e+01 6.5378240946790500e+00 0 1 0
708 2 1.7993570841799251e+01 2.3989527361165255e+01 6.9633450733227509e+00 0 0 1
2565 2 1.3818349893121635e+01 8.9152856621722236e+00 1.7093347818984988e+01 0 1 0
2002 1 1.3980009838004559e+01 1.8649606077688375e+01 1.0301144808447194e+01 0 -1 1
2362 1 1.6587079498836541e+01 2.2432828727536229e+01 2.4770041640960226e+01 0 1 0
1955 2 1.9860739887112963e+01 2.1221747132269194e+01 9.6031493160691763e+00 0 0 0
2940 2 1.9679005378244106e+01 2.7058129347219584e+01 2.3478540625172009e+01 0 0 0
1520 2 1.0091846994363074e+01 1.0239363807582837e+01 7.9266158100413877e+00 0 1 -1
441 2 1.9207457959349881e+01 2.5538252013848606e+01 8.8224822438111374e+00 0 0 -1
2989 1 1.8296818702502080e+01 2.4571614760519484e+01 1.9402450511756125e+01 0 0 0
1322 2 1.5663279009355879e+01 2.2248227477220759e+01 2.0028675719734235e+01 0 -1 -1
204 2 8.3120568940283270e+00 1.8623821456144640e+01 1.4324200912029060e+01 0 0 0
6144 2 1.4961756123774503e+01 9.9651879018523548e+00 1.0277002673533042e+01 1 1 0
2653 1 2.3028513120047251e+01 1.8645209729946252e+01 2.2931018091931023e+01 0 0 -1
446 2 8.0852120423760780e+00 5.2421395901795922e+00 3.7463779081749822e+00 0 1 0
584 2 6.1584851823413747e+00 1.1451161120315891e+01 2.6840886687082190e+00 0 1 -1
5150 2 2.5077775159340781e+01 2.3001083147088892e+01 2.0224533730284826e+01 1 -1 -1
2825 2 1.4982838681702724e+01 2.7614794656552601e+01 2.6002244016141972e+01 0 0 0