LAMMPS data file via write_data, version 8 Apr 2021, timestep = 4629000

972 atoms
2 atom types

0.12218195749187276 19.868871042503923 xlo xhi
0.130135629449406 19.860917370564707 ylo yhi
0.3155744289668996 20.485197571040242 zlo zhi
-0.4456682842263805 -0.290359397525395 0.2759807146068686 xy xz yz

Masses

1 16
2 2

Atoms # atomic

466 1 4.869597287321164 9.433136877273736 7.330877886889644 0 0 0
502 1 11.57977375005776 9.181399979230955 7.314205284005047 0 0 0
500 2 7.172296073841143 9.787415729283971 10.005052617676943 0 0 0
4 1 4.127079419183223 1.4495732960290781 3.5075839997885043 0 0 0
5 2 4.173657924606417 2.4344906461031472 3.6280763928989797 0 0 0
6 2 3.426157126999221 1.1757516840287754 4.1183212897156665 0 0 0
7 1 5.6776835807729595 4.749710501783547 5.699051256470548 0 0 0
8 2 6.550688977690178 4.608082071873993 5.207906838868376 0 0 0
9 2 4.910220257686432 4.599600492094759 5.066873784008677 0 0 0
10 1 1.2794845716738568 4.230494917766033 4.1077087619235 0 0 0
12 2 0.9393711006347922 4.728855154855927 3.3456906804074333 0 0 0
13 1 4.170684302127018 5.842617874248957 1.9242754944430431 0 0 0
14 2 3.9505159683479114 6.685715701712362 2.3611163581670573 0 0 0
16 1 3.963498484469144 3.9862371340673537 3.8081576665660455 0 0 0
17 2 4.153308952109033 4.426416527554994 2.9475197029433615 0 0 0
18 2 3.0119003617195523 3.986065050191959 3.985397937233697 0 0 0
501 2 6.119706607939967 9.462354628925485 8.91215391706328 0 0 0
162 2 10.576131623695552 9.872375813403162 3.65424385991601 0 0 0
473 2 10.341376551554756 7.315294626882579 9.552462090082305 0 0 0
24 2 2.2027483447901104 1.5452064795265499 5.874894212433618 0 0 0
25 1 2.349693593521594 5.56853126324564 7.126162661062458 0 0 0
26 2 2.3653467542155813 6.166727801744689 6.28986819554276 0 0 0
27 2 3.1436207344181786 5.865308735622451 7.638523396800429 0 0 0
3 2 1.9049910944309567 2.6233031470114105 1.5729963550451083 0 0 0
100 1 19.20043008542679 0.6423222101725434 5.381978968788371 0 0 0
61 1 8.931887186102562 6.099349510228064 6.755609333187581 0 0 0
33 2 0.6309377544370781 2.5594093034959786 3.296835242459481 0 0 0
35 2 5.744079022880343 2.83676835516978 1.4735636192221375 0 0 0
342 2 3.848150076231139 3.1396929326142815 9.938290097972741 0 0 0
435 2 1.5406268743557932 9.553960682412415 7.578218119970557 0 0 0
46 1 7.7291181598714935 4.512521946188294 4.089223444157046 0 0 0
47 2 8.664845742409478 4.443720046168006 4.282944088787193 0 0 0
48 2 7.474405772865538 5.2301109786528 3.4016354420096118 0 0 0
55 1 6.848301268752417 6.078993060298866 2.1348359343039616 0 0 0
56 2 6.991974666282975 7.062436646104222 2.2447615017578655 0 0 0
57 2 5.907218981536233 5.896094468590672 1.9714673943474534 0 0 0
42 2 11.049628841846788 0.7950657344043175 2.5532917280500094 0 0 0
63 2 8.308506063018687 6.292134791714757 7.519072810924862 0 0 0
141 2 19.335423549615236 9.111135607425288 1.6976316176775836 -1 0 0
67 1 7.406449899639627 2.4766199371271798 2.2879453656409443 0 0 0
68 2 7.619426321194006 3.0577726711970783 3.0224411734172167 0 0 0
69 2 8.13011770369701 2.507530593082778 1.6360813900476894 0 0 0
51 2 10.395065254459864 5.993412987207304 1.089981786169698 0 0 0
464 2 19.492116758577637 8.740448814093023 8.342911509564406 -1 0 0
96 2 16.193441607460137 1.0160448520543952 4.474848805389493 0 0 0
417 2 13.930865789498242 5.552410583572079 9.306377435410347 0 0 0
112 1 3.8202621883417205 8.052436556554866 3.2812908471309883 0 0 0
113 2 4.541978673517785 7.909622782405513 3.937323844677491 0 0 0
114 2 3.9658671166272543 9.026494265301391 3.1289441068898096 0 0 0
130 1 2.0029139139783996 7.628160182215031 5.175064933773139 0 0 0
131 2 2.532076378075605 7.700061824492637 4.360386921317406 0 0 0
132 2 2.129342494930763 8.403196923357742 5.7342443493264375 0 0 0
136 1 5.401841718008236 7.427994336818928 5.341150421578418 0 0 0
137 2 5.342645886678628 6.4329097020659365 5.550748897656459 0 0 0
138 2 6.3473354460398035 7.739658235618039 5.257835563064787 0 0 0
535 1 13.673250850016645 8.832523139873853 9.120059634697528 0 0 0
86 2 17.0221571849491 5.657909295629895 0.935575448841383 0 0 0
413 2 17.12569610711252 3.071464095971688 10.09854648676337 0 0 0
166 1 8.005779948807904 8.149712570030244 5.066566875993275 0 0 0
167 2 8.32918529353646 8.89199492891896 5.647096176503376 0 0 0
175 1 7.115299923007516 8.922196251575555 2.162435192973729 0 0 0
58 1 8.752748769192571 1.3427290254594237 5.318866158826832 0 0 0
177 2 6.373652983552111 9.175526731341046 1.5681746419879983 0 0 0
28 1 6.213508367364947 1.0415119626844156 5.1557221692093735 0 0 0
471 2 8.307371321552196 9.62835262734367 7.879649312280576 0 0 0
29 2 5.465259852053395 1.3089837346901545 4.509679707411798 0 0 0
325 1 2.353799632581069 2.9033121515860025 7.349917332751056 0 0 0
326 2 2.2422978970439096 3.8714059669983207 7.08922241998767 0 0 0
327 2 3.3678566259041287 2.841463622465585 7.439168262047635 0 0 0
337 1 4.449380595745038 6.0990925062164205 8.676098600613512 0 0 0
338 2 4.419514071955613 5.350436332752572 9.245541675657984 0 0 0
339 2 4.199409055420633 6.854754297340285 9.305162254576537 0 0 0
11 2 0.5980532137505596 4.362693614328918 4.784938262443505 0 0 0
710 2 7.874843556464169 5.667361365428554 0.8616341715180885 0 0 1
345 2 0.954067950444904 5.536933361766728 8.250951603947994 0 0 0
436 1 3.890172049960907 8.070131536633511 10.373357140820302 0 0 0
140 2 0.7154450691835773 9.525811185480688 2.7705993994133116 0 0 0
357 2 1.5690967465566514 2.260486184027473 8.7732337510611 0 0 0
358 1 5.188237627174961 2.62828995913877 7.088964376931358 0 0 0
359 2 5.371432740043662 3.574387329411979 6.70934371474612 0 0 0
360 2 5.557080494375428 2.026344415449802 6.388271877164286 0 0 0
361 1 9.010032658025786 3.265990586577561 7.196115899572088 0 0 0
362 2 8.885160732088963 2.494599706247733 6.585819713460704 0 0 0
363 2 8.537430402525265 2.9772775452196627 7.976347359309854 0 0 0
463 1 0.6298986640398377 8.723725826350408 8.858135428195578 0 0 0
379 1 7.152760765740885 6.664067250977095 8.69773420648758 0 0 0
380 2 7.076302587656411 7.631866641095607 8.83428320956893 0 0 0
381 2 6.2432325931691075 6.406824069405038 8.404303969018352 0 0 0
391 1 7.205032298879939 2.180300051698226 8.904409558166872 0 0 0
393 2 6.450252355741586 2.363248220839945 8.298569558138844 0 0 0
537 2 13.787686062285532 7.889352473032241 9.06967015529365 0 0 0
62 2 8.819934074809387 5.156906530596422 6.6362270921895545 0 0 0
540 2 17.203038628303307 8.91522578134438 7.521681121111304 0 0 0
504 2 12.052288344667257 9.153586156935848 8.187677115805295 0 0 0
467 2 4.83553267050936 8.610006617005439 6.781094715037216 0 0 0
355 1 0.8249054073638248 2.0186744829297876 9.402396666368421 0 0 0
499 1 7.004784056075431 9.210755451290904 9.21280294356625 0 0 0
31 1 0.7086165653766213 1.9056127215613445 2.5599401481668167 0 0 0
21 2 19.494837084173472 5.890242684449117 1.7363764259069 0 0 0
139 1 0.4105934383067154 8.800540589649641 2.1871114732778514 0 0 0
20 2 0.4641807254476164 6.98666974971696 2.4413498717979536 0 0 0
465 2 0.7394140150177485 7.746620708711898 8.960019619709875 0 0 0
522 2 17.00944080308587 9.555581437762381 10.338423112946407 0 0 0
19 1 0.5772042064008676 6.038015764748195 2.2415874041811343 0 0 0
212 2 14.2050791870888 9.316393398346804 1.872923121932958 0 0 0
505 1 15.56945447915438 9.422299659210488 7.230058253560494 0 0 0
22 1 2.145799236545039 0.9381816264819123 5.082414293308045 0 0 0
340 1 3.7346508040897852 4.057269960123792 10.217877055287316 0 0 0
168 2 8.3360167883558 7.349565748425039 5.471342107654237 0 0 0
70 1 12.018141599069176 2.6387789961686376 0.6125780685351813 0 0 0
356 2 0.9161137078001759 0.993820272076565 9.376133779508317 0 0 0
343 1 0.40388473906892625 5.984368731708312 8.901563487132133 0 0 0
148 1 10.173751868902624 7.876905079615095 3.621453238546852 0 0 0
210 2 0.10961124504262432 7.459631768145608 5.310219913957927 0 0 0
75 2 14.95415047798177 2.3495514362830043 0.8567782410629979 0 0 0
538 1 18.150700710300672 8.960068157320089 7.415623358096362 0 0 0
66 2 13.539562723425806 1.0451953145443487 5.349147076551989 0 0 0
150 2 9.239818594763198 8.0562675386162 3.8220972246403426 0 0 0
32 2 19.70484813985566 2.0668665377017565 1.9464917057613618 -1 0 0
23 2 1.138576801274984 0.8054079032986845 5.029874676873939 0 0 0
506 2 15.188291044035545 8.789456702022896 6.61051761749563 0 0 0
77 2 17.8591487308905 0.7643683264194756 2.536220934722565 0 0 0
60 2 7.836460931201255 1.331302509680685 5.036668508826877 0 0 0
37 1 9.298957190908283 2.7580214560773513 0.3507553661309369 0 0 0
43 1 12.421837056477154 4.7717148868811305 5.350885117489635 0 0 0
44 2 12.231155103567895 5.726182305262498 5.555545718204166 0 0 0
45 2 12.34737386403195 4.276649210668704 6.202097214884412 0 0 0
49 1 11.019521504983848 5.877939868008157 1.7970380538226882 0 0 0
50 2 10.777012042499488 5.065209309253396 2.3193580683735227 0 0 0
216 2 18.004700896125794 8.246109006187988 0.47719387888603754 0 0 1
53 2 11.173363569008876 4.1489210854106355 4.247925790429326 0 0 0
54 2 10.708568127674992 3.037882580394287 3.4859921421846645 0 0 0
34 1 5.113116663570295 2.838578221369617 0.692891245709827 0 0 0
675 2 1.6946924077467382 5.8749207050928645 0.8836037255399177 0 0 0
71 2 12.742070356369592 2.531923474374749 1.247880109698933 0 0 0
539 2 18.265593389510357 8.33610464561519 6.656040492315346 0 0 0
437 2 3.7778851489510132 9.110848810147404 10.277204413577136 0 0 0
76 1 17.46085800279839 1.2991078748764864 3.319101776475526 0 0 0
78 2 17.401409942815626 2.204341344285896 3.1204684939502654 0 0 0
80 2 18.047893220485008 4.413883289382375 5.1029650616979 0 0 0
633 2 14.076432031768787 0.29619799041350797 8.823339496961209 0 0 0
82 1 14.308327625449799 4.647248876825317 3.543107715464459 0 0 0
83 2 13.695380257823619 4.711786404475064 4.327996350063397 0 0 0
84 2 14.108998243704836 5.39756034497176 2.8734244514135168 0 0 0
85 1 17.76512152411348 6.020816895177081 1.4839567261011697 0 0 0
87 2 17.335026786062233 6.607988297635444 2.1470683025120008 0 0 0
88 1 16.997923036963616 3.8470180359482944 3.4262021859705323 0 0 0
89 2 17.547921402636387 4.511531759379405 2.910230379694005 0 0 0
90 2 16.093905126252334 4.22129834556647 3.4070959499415974 0 0 0
91 1 13.766398248438213 6.408073151002938 1.798129519527694 0 0 0
92 2 13.967896906545665 7.254084154076676 2.1465222470026184 0 0 0
93 2 12.792782378999563 6.458706881247208 1.7174451463688931 0 0 0
111 2 1.881765000546362 9.08250308883814 0.9865430754630256 0 0 0
329 2 4.202187775916836 0.5823286627752662 9.713725726268576 0 0 0
97 1 15.688755603248502 5.6005567135634715 6.5876259064305716 0 0 0
98 2 16.449829644339278 5.82993880918543 7.1259812024396885 0 0 0
99 2 15.696492662485918 4.6783837392587575 6.300632432250743 0 0 0
101 2 18.97033836248242 1.2775579535247819 6.08150446870711 0 0 0
366 2 10.546208006171375 2.2704759545414097 10.106509741716767 0 0 0
103 1 13.979282610369822 1.964141531664678 2.317871105953634 0 0 0
104 2 14.266337431294351 2.5695056267808734 3.004769599196175 0 0 0
105 2 13.946014712221778 1.0483677078179796 2.589513934166542 0 0 0
536 2 14.39132454397891 9.0198399339237 8.46992998588031 0 0 0
147 2 8.359716604706898 9.264474197140121 0.9946474288578557 0 0 0
102 2 18.580230491006795 0.881919029978478 4.647386365685311 0 0 0
74 2 16.452330938831135 2.5833156414313483 0.3848240984451601 0 0 0
503 2 10.639043987023255 9.346960755723726 7.533702884719362 0 0 0
172 1 12.064299012089275 7.36887433875411 5.50003409560667 0 0 0
173 2 11.823563236818245 7.874154652324894 6.318383453849905 0 0 0
174 2 11.289407706307424 7.44277694658107 4.92121520977888 0 0 0
149 2 10.182815944364101 7.086576286152977 3.0213227847299313 0 0 0
184 1 16.812464661330946 7.820241069188732 3.341676352303863 0 0 0
185 2 17.003426550961503 8.787865266332455 3.2530378883492608 0 0 0
186 2 16.07672384341312 7.844350662253001 3.97372789389826 0 0 0
202 1 14.655766087928006 7.617008694022479 5.085525431107658 0 0 0
203 2 13.650623909359279 7.602502970491705 5.022210658679378 0 0 0
204 2 14.967771118963341 6.735006680412472 5.383714061861965 0 0 0
41 2 11.450097022165185 1.0421166897939096 4.111374043140219 0 0 0
209 2 18.47528615462465 7.707402632239545 4.564916681481988 0 0 0
211 1 13.634280659653022 9.196341303314254 2.682577681330205 0 0 0
469 1 8.880275386313153 9.826358131012256 7.090445361292823 0 0 0
52 1 10.435713490859323 4.003997746772396 3.6953032363340115 0 0 0
472 1 10.060893744748157 8.057554308081084 10.18225647732625 0 0 0
272 2 7.6670529984404725 0.40143260130084496 2.1102293607709464 0 0 0
81 2 18.845605207208642 5.585814054568064 5.780875378208532 0 0 0
509 2 17.07562204306146 7.359845116892665 9.463990071651182 0 0 0
468 2 3.9329096617958457 9.67049259303016 7.258152795018861 0 0 0
107 2 18.751005130192677 3.2848102979129163 0.43133515873883893 0 0 1
433 1 2.139293078829328 9.718370958996568 6.8296822002919635 0 0 0
15 2 3.597687739334234 5.749735136167177 1.1499840990245516 0 0 0
373 1 10.942700739711498 5.916827545332491 8.520925382286677 0 0 0
109 1 2.5585465252356205 9.360225042565201 0.32500238833088513 0 0 0
375 2 11.897428065123222 6.005830599806659 8.335978914538545 0 0 0
378 2 10.574878657778818 4.598267486683404 9.594836449633432 0 0 0
394 1 11.839090706384347 3.050506963094808 7.3466492315825525 0 0 0
395 2 10.86562389540487 3.1335097538178656 7.398489569191034 0 0 0
396 2 11.886412456120128 2.3228213003900544 6.70700456225457 0 0 0
397 1 15.701348569578522 2.783359904650705 7.0113281420895985 0 0 0
398 2 16.65325529678046 2.716912105057694 7.262173389598259 0 0 0
399 2 15.559334828322765 2.095234854092662 6.313946601366395 0 0 0
365 2 10.913629799127802 0.7577177735752871 9.57911992809955 0 0 0
409 1 17.45466745048034 5.946609151226961 8.62562268737734 0 0 0
410 2 17.322173678896508 5.222039192811105 9.227946944875303 0 0 0
411 2 18.417269259934898 5.86546811614898 8.548163124200412 0 0 0
415 1 13.68021271923996 6.012387409128292 8.528568887986268 0 0 0
416 2 14.363864844314298 5.803469716294714 7.831431583900108 0 0 0
427 1 13.998312663588754 1.9299439449305809 8.824849595116413 0 0 0
428 2 13.211996068645716 2.2888239190314854 8.406530272669697 0 0 0
429 2 14.711194291407109 2.295710288011579 8.322992240241083 0 0 0
430 1 18.640665597258426 2.375996689226212 7.38600308386832 0 0 0
431 2 18.77106781479051 3.259035581514471 6.954791702989266 0 0 0
79 1 18.805676868367417 4.5802837871347135 5.670017091065167 0 0 0
374 2 10.461579440030444 5.988744018355352 7.664471948397321 0 0 0
94 1 15.545025452663992 0.9156543066994338 5.189306126594265 0 0 0
40 1 10.890487897924501 1.355904680170328 3.407387807079803 0 0 0
213 2 12.747521528776169 9.140932518721701 2.317844125955749 0 0 0
392 2 7.0217587298038255 2.775177363874613 9.65543718809378 0 0 0
208 1 18.880196850123042 7.323501425331602 5.337222718993487 0 0 0
182 2 16.116962870373367 9.336872867504576 0.4457036334882134 0 0 0
432 2 19.19745853087648 2.370281670082259 8.221652270950765 0 0 0
64 1 12.580021001198386 0.8610850371643941 5.374558335259699 0 0 0
747 2 14.861836923547576 5.729577852957425 0.6601017973145151 0 0 0
59 2 9.390652255488732 1.307435572527259 4.548268780364395 0 0 0
344 2 0.7499705172925861 5.778939852255911 9.739145409717032 0 0 0
180 2 10.647961223551729 8.970817949989097 0.9568575326619356 0 0 0
236 2 1.0725655650939072 0.3847425473348469 2.4676211713680525 0 0 0
401 2 17.334881693776527 0.5237846252518301 9.251680195042674 0 0 0
408 2 13.844904264483459 3.600896683923507 9.950667937348387 0 0 0
106 1 18.508002180983528 2.426210053048446 0.7645645575569328 0 0 0
443 2 0.8193349435004639 9.866717496149846 10.07276857919224 0 0 0
376 1 10.281000513852877 3.974152964848827 10.280841923632478 0 0 0
176 2 7.204445750984342 9.693589697896508 2.8034495979970258 0 0 0
214 1 17.8491176669198 9.138308740858982 0.879036042761969 0 0 0
38 2 10.246413647358885 2.7495552039320352 0.5103976112556448 0 0 0
143 2 4.161896596071093 9.470841040754701 0.4673446293088127 0 0 0
508 1 17.104521921409905 7.9504780845939775 10.29150696648736 0 0 0
231 2 4.856684486438457 0.34716487913327554 2.3685916555485487 0 0 0
400 1 17.029203996712866 1.3304142851989729 9.718823616232074 0 0 0
364 1 10.780305877977174 1.3609869186493027 10.34985417524758 0 0 0
596 2 7.304463654719677 0.5929157306387878 8.957910374171428 0 0 0
178 1 11.630441442358482 8.841443386582748 0.8618867250475138 0 0 0
2 2 3.3708719084903325 2.97577406849565 0.8594955991630326 0 0 0
1 1 2.431361565045869 2.7961709727299278 0.7428585433220224 0 0 0
372 2 7.427429059177464 5.478865345426966 9.795470172095943 0 0 0
402 2 16.33163022658521 1.0921846649730176 10.34239192915059 0 0 0
328 1 3.9871789442349628 1.356603886263735 10.342842232431119 0 0 0
412 1 16.89616634763362 3.952338140764551 10.374948720612666 0 0 0
406 1 14.33100772017749 4.294245408121372 10.386167315103293 0 0 0
335 2 1.004942094081789 3.3648927566084486 10.377498937623184 0 0 0
672 2 2.4696714018782235 1.4223697508827637 18.17557287139692 0 0 0
726 2 17.420078576420078 1.1723839532795663 15.989554221143484 0 0 0
330 2 4.690122592305016 1.2877648826774697 11.047280732900635 0 0 0
757 1 2.497378310161687 9.629836855804239 13.724228586322143 0 0 0
389 2 13.336743781277553 1.0925176937360108 12.297429522707287 0 0 0
667 1 0.25899992915612113 6.267064017781487 15.536053401827452 0 0 0
331 1 5.492891623617218 4.631387272029333 12.31630193713169 0 0 0
332 2 6.407742147507585 4.600264275569743 11.933499797844998 0 0 0
333 2 4.938172962914873 4.38906819773631 11.523337607926385 0 0 0
796 1 9.697878910232966 8.082907093531823 16.81725729127941 0 0 0
839 2 13.528234212015631 10.206106046077284 16.882629435654508 0 0 0
879 2 4.0567473286980595 0.5718538751285251 15.687072368919017 0 0 0
709 1 8.268362759202049 5.758744751963458 20.319411189250527 0 0 0
348 2 1.972889794907403 1.6178696367141543 12.72591970622688 0 0 0
349 1 2.198632003003455 5.649041850992773 13.634451484886682 0 0 0
350 2 2.1146658584417266 6.270127962431325 12.849970648274219 0 0 0
351 2 2.1717767209716623 4.75966337903821 13.281155117899827 0 0 0
656 2 5.414138878235675 6.142342463224582 19.377682491702835 0 0 0
108 2 18.54494846405417 2.1340303539681185 20.182715369615618 0 0 0
698 2 10.13077107887547 6.785419418677575 15.491218119833734 0 0 0
385 1 8.497015509509225 5.440975490247531 13.464815899709091 0 0 0
387 2 7.9217130672764675 5.654258683037329 14.195492639657797 0 0 0
728 2 -0.13089378932440943 4.684227657769382 18.661869129755058 0 0 0
758 2 3.429614769695346 9.616051745805109 14.003338305275856 0 0 0
454 1 2.082878398287348 7.849924401259807 11.894835955529443 0 0 0
456 2 2.3293385039094767 8.631647168108575 12.48154259104579 0 0 0
460 1 5.397235223407887 7.438657122441241 12.258599530950487 0 0 0
461 2 5.323099068223816 6.513357484596564 12.51442521520427 0 0 0
462 2 6.3758147921582795 7.510862872466475 12.165426049421125 0 0 0
670 1 1.8783249326992442 1.3752901866877671 18.96580496149292 0 0 0
490 1 8.034146787320145 7.810503017282731 12.131877134992148 0 0 0
491 2 8.36583811880144 6.903995326655953 12.314343258284104 0 0 0
492 2 8.443899879783697 8.332808531578895 12.835265186070572 0 0 0
689 2 11.354559039626333 1.3769371802447221 17.295325955503586 0 0 0
649 1 2.106259721259251 2.8865741424009896 13.734876508112476 0 0 0
650 2 2.99958486334751 2.87382851165618 14.081069399547689 0 0 0
651 2 1.432843165397456 2.6014903518574513 14.39472011286184 0 0 0
652 1 3.4961422064809913 1.687687384056677 16.865082502325095 0 0 0
653 2 3.5715765908349484 2.695243671155429 16.96261858050218 0 0 0
654 2 4.311773495553713 1.5218374311969607 17.389293895502036 0 0 0
655 1 5.54841522514064 5.136929301789792 19.171504153989105 0 0 0
657 2 6.378376184119732 5.040747289343405 18.636450588846202 0 0 0
658 1 0.8946309079795529 4.425089218816912 17.46824575730362 0 0 0
659 2 0.6620959054950059 3.5904149341488294 17.001673757298658 0 0 0
660 2 0.7124288754603953 5.184848383712745 16.861940189057215 0 0 0
661 1 4.2087369396578005 5.895420758343541 15.259849306179678 0 0 0
662 2 3.9741071921093454 5.364560896581633 16.024658198619893 0 0 0
663 2 3.5451572821336153 5.760177798009792 14.582739121992963 0 0 0
664 1 3.745763401846395 4.359254751426185 17.59809871548188 0 0 0
665 2 2.8613078136591503 4.624612660592558 17.838037224395677 0 0 0
666 2 4.368116188093675 4.676380379462767 18.321411452236696 0 0 0
474 2 9.237385816930363 7.865111508757878 10.624261148767687 0 0 0
669 2 0.8930900535629799 5.921915418825003 14.892349224234106 0 0 0
671 2 2.077580850334189 1.9610128720574589 19.751984011418884 0 0 0
679 1 0.4918515772496819 2.1451535878369694 15.903775203787248 0 0 0
390 2 11.869252537161701 0.9724320796732644 11.534594221400218 0 0 0
686 2 9.844740775349058 2.8364920411992007 13.954852346146302 0 0 0
682 1 4.699577101854128 3.1047927541156013 14.22191561844375 0 0 0
683 2 4.884793914428053 3.8585678630286364 13.608508814139839 0 0 0
684 2 5.104137414376623 2.419151233302606 13.62648573988531 0 0 0
687 2 8.593315444375047 2.417791905883458 12.944757914052353 0 0 0
72 2 12.022995718624225 3.624066361249636 20.12515511213504 0 0 0
694 1 7.914370514544484 4.554098076393478 17.61804500717639 0 0 0
695 2 8.849663449433306 4.62537204626357 17.862995256765963 0 0 0
696 2 7.832616918785271 3.7970272191348626 17.025504006902512 0 0 0
703 1 6.996538442347047 6.5042837816959915 15.930991104172334 0 0 0
704 2 7.329703752106423 5.839473534440473 16.470649476650507 0 0 0
705 2 6.08912588477935 6.323327443279862 15.68626186601455 0 0 0
745 1 15.35022139559541 5.756823555233423 20.228323218138485 0 0 0
419 2 15.324413867170582 0.32265881347989855 12.351930966623007 0 1 0
715 1 7.003896332565866 2.548707163443469 15.798525547748548 0 0 0
716 2 6.249811620841307 2.919599193042689 15.30095065555591 0 0 0
717 2 7.745197107478849 2.6199218967770133 15.17398868416609 0 0 0
793 1 8.993795439914352 9.576806870024079 13.997130909429108 0 0 0
859 1 13.521351553580946 8.6220995728389 15.6707834240052 0 0 0
860 2 12.85883456173338 8.767553308284453 14.953752782673893 0 0 0
789 2 1.4790505281784438 9.178508435578834 15.095687635173986 0 0 0
707 2 8.915419091964525 1.2245275406837428 18.061178667028397 0 0 0
760 1 3.4202675971486043 8.190293939818478 16.709721444115388 0 0 0
761 2 3.607288860713946 7.526953294890926 16.01327730191372 0 0 0
762 2 4.1561450699296 7.989610346241271 17.35367816227676 0 0 0
778 1 1.472465839938619 7.546591262864487 18.409938470291973 0 0 0
779 2 2.143565959956355 7.591546419632139 17.69095321037164 0 0 0
780 2 1.7667382165806018 6.948436793030759 19.101389174700586 0 0 0
784 1 5.198160032926161 7.7216686686580855 18.83250290045245 0 0 0
678 2 6.398745616705616 1.631736743386589 18.741716957808364 0 0 0
786 2 6.187387548375093 7.732085973548496 18.814604694138648 0 0 0
785 2 4.981174870070983 8.568811907416915 19.348473173175446 0 0 0
791 2 5.273396036429641 8.612011122784509 13.33244424540979 0 0 0
773 2 3.5044670397029103 9.95646178338526 16.57000590645813 0 0 0
814 1 7.8204121164894635 7.785869436625365 18.717408986630797 0 0 0
815 2 8.232919082017737 8.496220145388193 19.339467181825484 0 0 0
816 2 8.069070830332372 6.956063069402713 19.130526357379814 0 0 0
823 1 6.936633085680301 9.303980473758742 15.817178031504282 0 0 0
824 2 6.992068263553144 8.393964556555089 16.131195749115864 0 0 0
382 1 8.29494769810545 1.4777085244069237 11.721128436685579 0 0 0
742 1 14.94559043745058 1.159446734059777 18.26451938254369 0 0 0
713 2 12.035332086670474 1.387055313782272 19.404612199422292 0 0 0
426 2 0.3706506566902396 0.8681115244994377 11.685608414391243 0 0 0
347 2 2.4135142620590484 1.086946105071848 11.279150479362348 0 0 0
826 1 11.61251761277128 9.342967285606683 13.916032865475103 0 0 0
788 2 -0.006411269388507793 9.34064631280618 15.215499346124552 1 0 0
685 1 8.87006612124402 2.9361637513998553 13.765895228506068 0 0 0
858 2 19.345920587839867 7.466751788057175 18.51880153191093 -1 0 0
862 1 18.4886365511903 9.338588665256786 14.04141707477429 0 0 0
681 2 0.720460618617165 1.2183987931781213 16.017675378853387 0 0 0
528 2 15.854953001051262 7.790778953132784 11.25957953656444 0 0 0
668 2 0.4292988567386845 7.212232054675506 15.674473423828545 0 0 0
110 2 2.077703964473972 9.291399956318395 19.629224583089396 0 0 0
388 1 12.398999676508504 0.768159892349259 12.317640864934889 0 0 0
749 2 0.2506430659847372 1.2270200521011587 18.71758444278694 0 0 0
746 2 15.196590139990716 4.773995038613823 20.150267790679994 0 0 0
822 2 11.563564762607825 8.152238893785075 19.80024737879541 0 0 0
787 1 0.7128400367496189 9.003035796134261 15.710703489036975 0 0 0
336 2 0.48186636676591943 4.291120108279535 11.556552019997234 0 0 0
795 2 8.587374133027806 9.376285525697647 14.877212376322223 0 0 0
386 2 8.731306239733259 4.446702188124024 13.457511639500666 0 0 0
830 2 16.404260126579846 9.508421512028411 14.12408172142214 0 0 0
706 1 8.300914835998828 1.242644606375839 18.82157613233982 0 0 0
829 1 15.45162189184282 9.44486183298551 13.932061225790655 0 0 0
827 2 10.62283001584159 9.430628993105511 13.981800574734004 0 0 0
353 2 6.694833970608157 1.35570683778671 11.917120467115552 0 0 0
702 2 10.79192352671191 3.12207701952149 16.958727862329532 0 0 0
825 2 6.261326858786953 9.37936876421725 15.159027343356183 0 0 0
334 1 1.1907298731490454 4.234029974004031 10.883380504458241 0 0 0
863 2 18.52857363450924 8.525048766874063 13.448413718041024 0 0 0
753 2 13.930164037662145 1.345460457576485 15.820311635383325 0 0 0
534 2 19.00084087831552 6.535820454140115 12.246022395126928 0 0 0
832 1 16.524544820228115 8.464853151551708 17.027582808056298 0 0 0
367 1 12.076956648803462 4.539130739259771 12.381365184911843 0 0 0
368 2 11.79725330332726 5.368057458898436 12.768800627297633 0 0 0
369 2 12.125288553190078 3.877277558299953 13.067174022706235 0 0 0
39 2 8.742836336327942 2.419388203720771 19.786552151454764 0 0 0
850 1 14.342830616726754 7.82641987627743 18.76314323403347 0 0 0
370 1 7.42865165480593 4.776725439373272 10.483305259593891 0 0 0
183 2 14.666945387902697 9.13400142725057 19.750527707975916 0 0 0
831 2 15.446837017828837 8.863246549923344 13.146034995472336 0 0 0
828 2 11.732549242163811 8.52915666644573 13.390368708615613 0 0 0
407 2 13.747039787440444 4.458527219051851 11.158893136999287 0 0 0
341 2 2.859805886715083 4.185807350756584 10.588903434514833 0 0 0
403 1 18.58586956516955 4.788084095279093 12.197450843344663 0 0 0
404 2 18.39211888582748 4.167394115717639 12.877768658218503 0 0 0
405 2 17.888266081624703 4.600623707436826 11.544293644948684 0 0 0
425 2 18.681751361959286 0.887727295019052 10.952607997154324 0 0 0
852 2 14.730784389761086 6.982177397905936 19.019249952111693 0 0 0
861 2 14.347985263091383 8.868552245276659 15.230829432394408 0 0 0
420 2 15.40892052087599 1.8400020713496672 12.260891358320626 0 0 0
421 1 15.325961314824765 5.439215171007133 13.642681007591303 0 0 0
422 2 16.032006885506586 5.838867607578276 14.217966366575867 0 0 0
423 2 14.497832172672368 5.4930046039025555 14.163176161264534 0 0 0
414 2 15.89470590824628 4.01715183863963 10.532214471693063 0 0 0
857 2 18.303189169104773 6.692235479558334 19.31846185920212 0 0 0
496 1 12.206434642223225 7.365392191731053 11.966696547428342 0 0 0
497 2 13.106859282914488 7.5467460425594615 11.63249261581208 0 0 0
498 2 11.578232916947591 7.622509856624644 11.311936086853844 0 0 0
418 1 15.18386244409712 1.0505639677698178 11.719095107917628 0 0 0
526 1 14.974529293923199 7.605768674972303 11.760718691168663 0 0 0
527 2 15.087133522413806 6.746725832310413 12.225867647436601 0 0 0
352 1 5.812536018646222 1.2974153550826728 12.295826656913215 0 0 0
744 2 15.62070815705303 1.1455785220352879 17.584241788619114 0 0 0
533 2 0.27687496591973193 7.652732242463995 12.10555691773128 0 0 0
834 2 15.685566599512306 8.129752861577211 17.44610012988977 0 0 0
851 2 13.379173281275222 7.669610143468305 18.73553225925665 0 0 0
346 1 1.972443654250461 0.7709503093173566 12.09568336716641 0 0 0
750 2 18.42912322765752 1.2736238073489639 18.123975849034323 0 0 0
691 1 12.434959512451288 4.774586260374026 19.035173468185505 0 0 0
677 2 5.2226985068733285 1.7927872078006835 19.71920811807365 0 0 0
693 2 11.916857831342696 4.551302876021694 18.21957052320095 0 0 0
697 1 10.540573555495838 6.091804339943896 14.863737305607765 0 0 0
699 2 9.862568927979737 5.896075566133344 14.171989862701759 0 0 0
701 2 10.765857413646645 4.533064726909374 16.051305509996034 0 0 0
438 2 4.614675866806829 7.82725670927341 11.115315585965147 0 0 0
748 1 18.976750161972735 1.2626450628732186 18.97134417179651 0 0 0
718 1 11.508183854828026 2.4779793781277064 14.151089132677122 0 0 0
719 2 12.205335569832243 2.7016151288124117 14.801113705137153 0 0 0
720 2 11.813102993166568 1.751393972195465 13.528937822081309 0 0 0
721 1 15.814145938004057 2.868037244293513 13.682143365422908 0 0 0
722 2 15.558717177461608 3.818205175100514 13.5978187318817 0 0 0
723 2 15.298885116649874 2.6109756094093113 14.416597059288065 0 0 0
724 1 17.255457819432415 1.6830687793213548 16.824239583999027 0 0 0
725 2 17.107540041244572 2.710389677089605 16.69473216746186 0 0 0
455 2 2.8346948702125254 7.7659688830774805 11.185783031962902 0 0 0
727 1 18.829881354625925 4.8094954554886575 19.279461791512194 0 0 0
729 2 18.141849866055207 4.51879444756364 18.62495980544517 0 0 0
730 1 14.493807172850655 4.353422354084256 17.491238541542668 0 0 0
731 2 13.79638039923957 4.596710729670725 18.12439702685975 0 0 0
732 2 14.187909766043234 4.819442299295905 16.718102128950466 0 0 0
733 1 17.160284346803426 6.317400984686461 15.262941518982267 0 0 0
734 2 18.13119321418673 6.437093144707838 15.14682889437666 0 0 0
735 2 16.93545642346052 7.107212969119459 15.854570242763213 0 0 0
736 1 17.07087539807254 4.238396731460341 17.204587371007804 0 0 0
737 2 16.107257703214636 4.219977459012451 17.489787025399263 0 0 0
738 2 17.132444712572852 4.953280233249579 16.55285240075902 0 0 0
739 1 13.349328477075904 5.8582766569539695 15.29582983604937 0 0 0