LAMMPS data file via write_data, version 15 Apr 2020, timestep = 0

1944 atoms
2 atom types

-7.3622924662722866e-01 4.0718334246627848e+01 xlo xhi
0.0000000000000000e+00 1.9757166415718373e+01 ylo yhi
0.0000000000000000e+00 2.0460261177263206e+01 zlo zhi
-1.5103109746164023e-03 -8.4804491604515420e-03 2.5478509138839200e-02 xy xz yz

Masses

1 16
2 2

Atoms # atomic

491 2 3.5499810552268887e+00 7.8805127347724060e+00 5.3728318222518903e+00 0 1 0
915 2 1.4821165359099668e+01 1.8073903186316606e+01 3.1353227432009749e+00 0 0 0
90 2 1.3474258523168851e+01 9.8615157922714687e+00 4.5896990076864066e+00 0 0 0
905 2 1.5865492781866937e+01 6.4950691219582826e+00 6.8403876236367207e+00 0 0 0
723 2 9.1097970561428401e+00 1.4992132240080355e+01 4.9093268027120629e-01 0 0 0
486 2 9.2737675117470086e+00 7.5490617083622196e+00 1.8685211656319298e+00 0 0 0
449 2 1.7988015570844130e+01 1.6774433904503717e+01 4.6051491941322054e+00 0 0 0
1316 2 2.1620828460943797e+00 1.6371614020301582e+01 7.7271753498342299e+00 0 -1 0
725 2 1.6130971469973389e+01 4.8117103788272242e-01 6.6901965061786060e+00 0 0 0
1180 1 1.8338742733180204e+01 1.8548837347462669e+01 8.7129744625250822e+00 0 0 0
1539 2 -5.9760450932831688e-01 1.1919005138982154e+01 2.6586200917348490e+00 0 0 0
535 1 1.8571298173237711e+01 1.3564525336777230e+01 6.6854179997601335e+00 0 0 0
1748 2 -7.9087331280418560e-03 8.5384759973325828e+00 3.0337440066762067e+00 0 -1 1
21 2 2.5102062869285104e+00 2.4285482924247659e+00 3.0093075639613307e+00 0 0 0
481 1 1.1984639619908847e+01 1.4640484500562305e+01 5.2238743216083616e+00 0 0 0
741 2 7.3563386066419252e+00 1.6430093449256312e+01 2.0929122878994404e+00 0 0 1
1135 1 3.1495223716302352e+00 9.6807677804097185e+00 2.8026737956339476e+00 0 1 0
1375 1 1.0872816754278437e+01 2.2216858869692029e+00 5.1204370028595871e+00 0 1 1
1804 1 1.3192746838226352e+01 1.7444454483613988e+01 7.7209373985527527e+00 0 0 1
452 2 5.4566531139404928e-01 1.3198934042368773e+01 7.0955071525930986e+00 0 0 -1
79 1 1.4675429954340922e+01 1.6851462486708100e+00 1.4568625067368151e+00 0 1 0
437 2 2.5467892849579656e+00 1.2034409989127029e+01 7.1883985417296383e+00 0 0 0
1527 2 8.9099580557038625e+00 1.4955298190204163e+01 2.5491465143108942e+00 0 0 1
1584 2 1.2929602407746458e+01 8.5845419261089617e+00 9.3759934460440899e+00 0 0 0
1818 2 1.1837892890989746e+01 1.7864368357220581e+01 4.3619107107504798e+00 0 1 1
1825 1 1.9081500587855704e+01 1.9081230977519862e+01 2.6869123593468108e-01 0 0 1
1323 2 6.6440428378946228e+00 1.8477013009091305e+01 5.4848192582842401e+00 0 0 0
1158 2 8.9385244365866701e+00 1.1261255200708373e+01 5.7743604680813858e+00 0 0 0
676 1 8.8395352024790519e-01 7.9204292847051825e+00 4.8390347357213157e+00 0 0 0
749 2 1.7743060712285253e+01 6.2141873915919774e+00 3.5276776418642601e+00 0 0 1
236 2 1.0984995728394360e+01 9.7061650656664842e+00 5.3424638532644737e+00 0 0 0
717 2 1.8921988206495612e+01 3.4131407194456505e+00 4.9510017521693805e-01 0 0 1
1786 1 1.3080092848140326e+00 1.7676847621878540e+01 6.9473886872860495e+00 0 0 1
1577 2 1.8850805223681970e+01 7.5699738493716140e+00 4.7395260270073711e+00 0 0 1
1606 1 7.1328784734642134e+00 9.4322462894634587e+00 6.7507026329058588e+00 0 -1 0
274 1 9.5283762031648429e+00 1.1090722251134256e+01 4.2644570697211015e-01 0 0 0
1089 2 -5.7642391701613405e-01 8.5668723658177548e+00 8.9003903109352525e+00 0 1 0
689 2 1.2491938487516741e+01 1.2142167228560201e+01 3.5097083900015131e+00 0 -1 0
703 1 7.3170150654136901e+00 1.9171077620558965e+01 1.0162301457491163e+01 0 0 -1
1611 2 7.4773548784912354e+00 2.2219628748168598e+00 8.6881118939663597e+00 0 1 0
1098 2 2.0399704713588775e+00 1.0733479995000307e+01 3.5539997587053516e+00 0 1 0
692 2 1.7506405392321156e+01 1.0457967238581514e+01 8.3755657329566695e+00 0 0 0
906 2 1.5252112675282309e+01 5.0718657547893562e+00 6.3764845686503016e+00 0 0 0
67 1 2.7913091834649806e+00 2.9567905929560512e-01 7.5574819326488605e+00 0 0 0
1602 2 1.5284977639240161e+01 6.1482765456459418e+00 2.1143027642980972e-01 0 1 1
710 2 1.6709494210988417e+01 4.3028802838811879e+00 3.3995212627873053e+00 0 0 0
33 2 3.0246988028489938e+00 1.3160542213606062e+01 1.2428783476534511e+00 0 -1 0
681 2 4.4297398506834695e-01 1.0547199603354379e+01 8.3780641399496307e+00 0 0 0
1591 1 1.3878255838356832e+01 1.2230714047238978e+01 2.5658904986724091e+00 0 0 1
20 2 3.4354296723447790e+00 3.6360809909681580e+00 3.3899244429603579e+00 1 0 0
674 2 2.9787301699236961e+00 8.5733601891059070e+00 7.9424051675044103e+00 0 -1 0
650 2 7.6745655522447098e+00 1.7054149910839897e+01 6.8064202342889635e+00 0 -1 0
898 1 1.2279178481277253e+00 2.2794723284531373e+00 6.5456843085129517e+00 0 0 0
726 2 1.5879614468743281e+01 6.3833777491311283e-01 8.2626785334198640e+00 0 0 0
517 1 1.8969726472880911e+01 1.6184295221274809e+01 7.6449589710898627e+00 0 0 0
910 1 4.4994252501062268e+00 1.3187713751413732e+01 9.1842487930675976e+00 0 0 0
1564 1 6.1073075109930031e+00 1.7194835202743587e+01 7.1515283941389605e+00 0 0 0
695 2 1.7581112911723729e+01 1.4313219196048578e+01 9.3288413707138673e+00 0 -1 0
705 2 6.8658581605804443e+00 1.8311454617520337e+01 9.9078915799159866e+00 0 0 -1
228 2 1.9042145070336822e+00 1.1103322708068207e+01 6.1117873472235940e-01 0 0 0
921 2 -6.8744713463230100e-01 2.9568335191841399e-01 5.1611206317549074e+00 0 1 0
1565 2 5.4285921395335590e+00 1.6713719932330036e+01 6.6626829614904484e+00 0 0 0
1128 2 1.2319447125735582e+01 1.5876478301415156e+00 6.2481414617389657e+00 0 1 1
666 2 4.7175890806988257e+00 2.9372551768059267e+00 6.7245485174616899e+00 0 0 0
1397 2 1.6192783455866770e+01 8.6125697745052303e+00 5.7929168039459817e+00 0 0 1
1341 2 1.1112565758985959e+01 1.1622344541405482e+01 9.7953978946540445e+00 0 0 1
664 1 4.6819857359354238e+00 2.3644640660634719e+00 5.9586666050964432e+00 0 0 0
1593 2 1.4763336672663655e+01 1.2683213429322356e+01 2.7325341685887445e+00 0 0 1
302 2 1.5204058375574144e+01 1.8818485362509102e-02 4.8560666202780158e+00 0 0 -1
233 2 1.0532358814467113e+01 9.7422474061465945e+00 8.3848106266745539e+00 0 0 -1
873 2 5.4620443248982555e+00 1.0288266193984994e+01 9.0836852133601165e-01 0 0 0
913 1 1.5232525675418243e+01 1.8300311658058888e+01 3.9915596684747601e+00 0 0 0
235 1 1.1824707300803842e+01 1.0014199618726202e+01 5.7492912283520612e+00 0 0 0
959 2 1.7978206873951940e+01 3.4177644978805515e+00 8.5656153857958373e+00 0 1 0
1376 2 1.0919971361044398e+01 2.9139226101416673e+00 4.3764911148417909e+00 0 1 1
1084 1 8.3269192739189868e-01 4.9434034582572544e+00 6.3684820144430700e+00 0 0 0
483 2 1.2237373024586429e+01 1.5574791270392081e+01 4.9547116918638654e+00 0 0 0
696 2 1.8407429525273997e+01 1.3182846497816044e+01 8.6474565067973632e+00 0 -1 0
1578 2 1.9058339386458357e+01 7.1843854934202174e+00 6.2428289930753049e+00 0 0 1
895 1 1.2020237379521292e+01 1.0427439047070937e+00 9.1660855103536321e+00 0 0 0
750 2 1.8168527918454640e+01 7.3024235703195535e+00 2.5670057473061720e+00 0 0 1
1137 2 3.4268735934889820e+00 8.9473537020081260e+00 3.3187042542669443e+00 0 1 0
88 1 1.4056212550848489e+01 9.2764290977538657e+00 4.0810826084174892e+00 0 0 0
736 1 1.8289315018450846e+01 1.1785920667194468e+01 3.7784920848467709e+00 0 0 0
22 1 -2.7400444036862037e-02 1.5147133023048386e+01 9.5256050005371122e+00 0 -1 -1
219 2 7.2503374134813132e+00 1.1961373985504727e+01 8.5642496892648694e+00 0 0 0
1139 2 1.0099175421757003e+01 1.8984467679926905e+01 2.8060732803082895e+00 0 -1 1
81 2 1.4544321316681414e+01 2.2955419611483645e+00 7.4703596552322837e-01 0 1 0
301 1 1.5377433133777252e+01 8.8686424724280177e-01 5.2434856767072668e+00 0 0 -1
1592 2 1.4081559299562718e+01 1.1531161356297854e+01 1.9005832535260028e+00 0 0 1
457 1 1.7544040043658640e+01 6.8595539163316435e+00 9.9919645896030200e+00 0 1 0
908 2 3.7493934013440171e+00 1.5379347404720516e+01 6.5319461764255013e+00 0 0 0
1322 2 7.1380087290616041e+00 1.9171125118073167e+01 4.1893736309011338e+00 0 0 1
492 2 4.7771952285756853e+00 7.4438897784030367e+00 4.5001743808913304e+00 0 1 0
1138 1 9.6238728863331726e+00 1.8364839260346951e+01 2.1911682592380153e+00 0 -1 1
537 2 1.8507058643460965e+01 1.4477357816142748e+01 6.9600983759121018e+00 0 0 0
519 2 1.9697873257689810e+01 1.5864652934850014e+01 8.1818904983866272e+00 0 0 0
447 2 8.9167772691787714e+00 8.9290660884729451e+00 3.8925077720855024e+00 0 0 -1
77 2 1.4764320862873891e+01 3.1103571437863549e+00 2.8440748764410611e+00 0 0 0
1086 2 1.3079421635759880e+00 4.0835507983899451e+00 6.4327731907446628e+00 0 0 0
1300 1 1.1470157676525061e+00 1.3691545956071440e+01 4.2384652382131902e+00 0 0 0
641 2 -5.3226206866377401e-01 1.3879898752887135e+01 4.6878800315405176e+00 0 0 0
941 2 1.4431166411753129e+01 3.9026861565452520e+00 4.9158966478965072e+00 0 1 1
1810 1 1.8725264127353185e+01 9.7277315059129581e+00 1.5995673984897305e+00 0 0 1
1093 1 1.6698908736688420e+01 9.5459964135951303e+00 4.3888827490424163e+00 0 2 0
739 1 6.4739549625382393e+00 1.6782308343557776e+01 2.2431817440799979e+00 0 0 1
683 2 3.3717610527979351e+00 1.5479968210887023e+01 1.9395218721592511e+00 0 -1 0
1172 2 1.7655111715127646e+01 1.8184151340106030e+01 1.0218592277725969e+01 0 -1 0
251 2 8.9152384831361520e+00 1.0622547169838208e+01 8.7795721521155219e+00 0 -1 0
1792 1 6.7495780317456981e+00 6.6700618112299193e+00 7.5019798752347961e+00 0 0 1
287 2 1.7192503365181103e+01 9.3295524483993066e+00 3.7182049358066649e-01 0 0 1
1576 1 1.9355952444170178e+01 7.7781316271209553e+00 5.5211672134007728e+00 0 0 1
1314 2 3.6684356641212279e-02 3.6531298477588257e+00 3.6920773676928196e+00 0 0 1
1814 2 1.7604798102111999e+01 6.5747523368964220e+00 4.0990356968741576e-01 0 1 1
1806 2 1.2807007528564640e+01 1.7657288895730257e+01 6.8660297685226954e+00 0 0 1
1771 1 1.2622928747018840e+01 7.6867177682884895e+00 2.7112854392449988e+00 0 0 0
12 2 -5.9453461750204939e-02 1.8608448254124497e+01 2.9881111532496474e-01 0 -1 0
464 2 1.6919618007354693e+01 1.3170604959776537e+00 4.4024046124996232e+00 0 0 -1
1125 2 1.9018461782191569e+01 4.9742297574441974e-01 4.6938790707548286e+00 0 1 0
1182 2 1.7704373249905512e+01 1.9073008198196735e+01 8.1822648391985613e+00 0 0 0
742 1 1.3682179001803560e+01 1.3832305307329294e+01 6.9887550386921324e+00 0 -1 0
1112 2 6.2780172972948769e+00 1.4062177245143955e+01 4.2623259804667626e+00 0 0 0
1302 2 1.5836245992499354e+00 1.4124905391218896e+01 3.5392342126498426e+00 0 0 0
667 1 -1.3968939482642029e-01 1.7349001174749787e+01 3.7349911396210271e+00 0 0 0
498 2 9.8160242222650584e+00 7.3476569288510927e+00 5.2156039127537683e+00 0 0 -1
1525 1 8.5387906984296649e+00 1.4413949850192287e+01 1.8484567022088878e+00 0 0 1
64 1 1.3254364720211893e+01 9.4068780377468748e+00 7.7198846212934038e+00 0 0 -1
900 2 7.6898542565851002e-01 1.8011596601303246e+00 5.8169512209108793e+00 0 0 0
665 2 4.2913743514611129e+00 1.6071693514170402e+00 6.3796817416726199e+00 0 0 0
454 1 7.7934868309204468e+00 5.3272827445223889e+00 5.3659886304056457e+00 0 1 0
971 2 1.5995713625653320e+01 1.2988700427741758e+01 5.1132497345867787e+00 0 0 0
1618 1 1.5477254571007187e+01 1.6135544922415896e+01 6.9259575793064769e+00 0 -1 0
701 2 7.0002530811890642e+00 1.3227142498889277e+01 6.3832834682443025e+00 0 0 -1
1347 2 -1.0056810720286802e-01 5.0355733514602266e+00 1.8577229265340131e-01 0 0 1
505 1 8.1168829025357176e+00 6.1446594356008175e+00 1.0047513750683349e+01 0 0 0
229 1 5.0888940482622349e+00 1.0561383080501251e+01 5.5160958288102719e+00 0 0 0
223 1 2.6635281275353564e+00 3.7086226379047704e+00 2.4837268619311406e-01 0 1 0
680 2 9.1069872489192094e-01 1.1345268420545851e+01 9.6132424359440289e+00 0 0 0
1742 2 5.5945174328921574e+00 3.6945952046675732e+00 9.1138681996795974e+00 0 0 0
711 2 1.8071095873163141e+01 4.0859961034466661e+00 4.2252225469017768e+00 0 0 0
1778 2 4.1257436689497808e+00 5.0584202050944800e+00 8.4814844976422954e+00 0 0 0
1155 2 1.9749624001148845e+01 1.1422048485282557e+01 8.3827909280292037e+00 0 1 0
679 1 9.5436979358399010e-02 1.0928767964708282e+01 9.2243588920272970e+00 0 0 0
1096 1 1.1923339639937796e+00 1.1190484999121011e+01 3.8746392051632581e+00 0 1 0
1367 2 1.7440541926405512e+01 1.6465065690994010e+01 2.2671794934179843e+00 0 0 1
226 1 9.8637164038686276e-01 1.0760239729913907e+01 4.4085601269561958e-01 0 0 0
743 2 1.3512804420518640e+01 1.3074474284453075e+01 7.5960691867815324e+00 0 -1 0
684 2 4.0787392972027456e+00 1.4295564972023213e+01 2.7582040217621953e+00 0 -1 0
1753 1 -5.9385145041624132e-01 1.8234096317324400e+00 8.5026568284547466e+00 0 1 0
1334 2 1.5062192697592140e+01 1.8229907205906315e+01 5.5986892673189070e-01 0 -1 1
748 1 1.7825037054869192e+01 7.2133631259532329e+00 3.4840006484914303e+00 0 0 1
1817 2 1.3341529422352069e+01 1.7592899088098076e+01 4.5347263399408515e+00 0 1 1
232 1 1.0528278402821945e+01 1.0704442288794796e+01 8.4882647207854127e+00 0 0 -1
1762 1 -6.3209368077949457e-01 5.7195755225388432e+00 1.5529741743834959e+00 0 1 0
1794 2 7.2352843421732764e+00 6.4304639739170364e+00 8.3181779668258233e+00 0 0 1
924 2 1.2494271460472337e+01 5.3050116280743120e+00 8.0784404645484607e+00 0 -1 0
1747 1 -2.7021129173534719e-01 8.3953854343700485e+00 2.1354765808056837e+00 0 0 1
694 1 1.8266332241819416e+01 1.3591951083662163e+01 9.5023017229301967e+00 0 -1 0
1118 2 2.5512676825614609e+00 1.9087164510655047e+01 2.9088051809599302e-01 0 0 0
460 1 8.4304970568461979e+00 4.6725512282714750e+00 2.4438235981415666e+00 0 1 0
911 2 4.3460929551340426e+00 1.4125254280655817e+01 9.2018534589402226e+00 0 0 0
250 1 7.9784351135671834e+00 1.0488914252806072e+01 9.1115954799160832e+00 0 -1 0
1373 2 1.2103047170466230e+01 1.8929126358990125e-01 8.9753050238205512e-01 0 0 1
1543 1 -1.9084940256035432e-01 1.5057848283793120e+01 1.8585449262992930e+00 0 0 0
709 1 1.7678774055532010e+01 4.5649300186736390e+00 3.4166956115225346e+00 0 0 0
938 2 2.7491212561546954e+00 6.4411642467134458e+00 2.5794627391039393e+00 0 0 0
1569 2 7.9137305151383774e+00 3.7079113686975820e+00 5.7253216863767884e+00 0 0 1
1208 2 1.9820108664002365e+01 1.8767915852937936e+01 8.7751926301012819e+00 0 0 0
884 2 1.0552926340612263e+01 6.9868754861510309e+00 8.0816248947584022e+00 0 0 0
1526 2 8.6525760029131611e+00 1.3473493961335189e+01 2.2046408519402902e+00 0 0 1
96 2 9.2911881108417465e+00 1.7131172469667280e+01 3.3592849928177020e+00 0 0 0
940 1 1.4024962040579275e+01 4.0779166173397092e+00 5.7905591331448010e+00 0 1 1
1123 1 1.9527312351069387e+01 2.6170520903500461e-02 5.3758354560487955e+00 0 1 0
744 2 1.2923099922375286e+01 1.3920927986330256e+01 6.3854153557651054e+00 0 -1 0
1374 2 1.3363415400398765e+01 7.0862359193207181e-01 1.5797050988678578e+00 0 0 1
1315 1 2.6173976704780775e+00 1.5527485852738392e+01 7.9422159507766796e+00 0 -1 0
1620 2 1.6007250961535451e+01 1.5980868181244009e+01 7.7383071158593770e+00 0 -1 0
1307 2 6.7598061895150101e+00 3.5968078889162061e+00 4.5282548181952592e-01 0 0 1
24 2 -5.0376369707731161e-01 1.4315649347093604e+01 9.3175178157986824e+00 0 -1 -1
912 2 3.9912097915496121e+00 1.2734264962117040e+01 8.4361693883347861e+00 0 0 0
217 1 7.1074221823561201e+00 1.2778460807865061e+01 8.0794605933276227e+00 0 0 -1
455 2 7.0531821183113390e+00 5.7636014271938363e+00 4.8927495542994199e+00 0 1 0
1545 2 -1.5704605720421327e-01 1.4084308864889264e+01 1.7923689105400147e+00 1 0 0
1154 2 1.9497851522942682e+01 9.8473820065669955e+00 8.4486407630917046e+00 0 1 0
526 1 1.6027369413973318e+01 1.3741521926684934e+01 3.4339265292313201e+00 0 0 0
1181 2 1.8616510912218615e+01 1.7643331629499638e+01 8.2965260669568899e+00 0 0 0
1815 2 1.8954316799328794e+01 7.2079026177029082e+00 1.4154379107255305e-01 0 1 1
320 2 3.7141596794998719e+00 1.7632216361988878e+01 2.2036321062149806e+00 0 -1 1
230 2 4.4536137589728595e+00 1.0952943553470362e+01 6.1375353878795105e+00 0 0 0
1568 2 8.0659736620606619e+00 2.5139931048608779e+00 6.7250710057890055e+00 0 0 1
1776 2 5.4026077723332069e+00 2.7667678282174966e+00 4.3902747734905647e+00 0 1 1
445 1 9.3062511075438969e+00 9.0894371896066630e+00 4.7786603750908689e+00 0 0 -1
1085 2 4.9905280846867806e-01 4.8953289706371113e+00 5.4189823600673588e+00 0 0 0
485 2 1.0043824148219775e+01 6.1782589856357957e+00 1.8682379434557959e+00 0 0 0
931 1 1.2761054884941689e+01 1.4940183802550195e+01 1.3871528614719828e+00 0 0 0
715 1 1.8756664382045429e+01 2.9798743753441332e+00 1.3336605763540965e+00 0 0 1
271 1 1.4029656262214255e+01 5.8203844392431900e+00 1.2415454436781079e+00 0 0 1
1566 2 5.9210986600101556e+00 1.7010598182598635e+01 8.0952138968428908e+00 0 0 0
893 2 1.1706691254129483e+01 1.2396674610017684e-01 3.0985104463430950e+00 0 0 0
716 2 1.8580251932347036e+01 3.6853891220822939e+00 1.9990362680572291e+00 0 0 1
19 1 2.5863943309810615e+00 3.4012266550578616e+00 3.0207093571856483e+00 0 0 0
1614 2 7.3955452493916187e+00 9.2637626659998311e+00 2.3649142244832300e+00 0 1 1
1754 2 5.2082068456818398e-02 2.0352705363678782e+00 7.8115025038556114e+00 0 1 0
952 1 1.3995489297812851e+01 1.0166407597801049e+01 7.5439724855944201e-01 0 0 1
1608 2 6.2753870379825578e+00 9.7196689930167466e+00 6.3262895911336114e+00 0 -1 0
970 1 1.6071968988228569e+01 1.2737305566686171e+01 6.0309849852091784e+00 0 0 0
661 1 -5.7659083181881110e-01 1.4268060681437502e+00 2.4355141007255083e+00 0 0 1
489 2 1.2446940002002082e+01 6.3452504662791531e+00 3.7041321900477393e+00 0 1 -1
292 1 1.9742121871503763e+01 1.0357493043637708e+01 5.5881138319995900e+00 0 -1 -1
673 1 3.2751761359899572e+00 9.3336001308023633e+00 8.4062477347644045e+00 0 -1 0
472 1 1.0953703685484982e+01 3.5873703626125657e+00 2.7487139018445785e+00 0 1 0
939 2 1.8751600785212212e+00 5.3028439767278304e+00 3.1057261613651752e+00 0 0 0
496 1 1.0054648167999352e+01 6.4647960377917402e+00 5.5058631472529056e+00 0 0 -1
436 1 3.4092255547684438e+00 1.1568943788099517e+01 7.3055224959289040e+00 0 0 0
76 1 1.4787277839254799e+01 3.9603108224143573e+00 3.2765595983908846e+00 0 0 0
1126 1 1.3113704762504240e+01 1.7845653926210157e+00 6.8213668272144181e+00 0 1 1
909 2 4.7265636057880647e+00 1.5122971115362731e+01 5.2170797080880993e+00 0 0 0
702 2 8.0094069753612462e+00 1.4200112177228892e+01 5.6209582600752492e+00 0 0 -1
31 1 3.0468221602709451e+00 1.2297730162585610e+01 8.3004145877318480e-01 0 -1 0
536 2 1.7729314195718437e+01 1.3114432950906963e+01 6.4879760231134602e+00 0 0 0
914 2 1.6119570372803022e+01 1.7846723895167358e+01 3.9623604811995237e+00 0 0 0
1546 1 8.3356449174812113e+00 1.9710832909628461e+01 3.5133277277623143e-01 0 0 1
293 2 1.9584835598729441e+01 9.3970201470153665e+00 5.7268431564446658e+00 0 -1 -1
1350 2 4.7505990722493676e+00 1.8362286072290470e+01 4.2683058920983825e+00 0 -1 0
1382 2 1.7447026952520055e+01 5.0157195735446392e+00 1.0204158834610180e+01 0 0 0
738 2 1.8748338373256718e+01 1.1174305893347883e+01 4.3757226588528777e+00 0 0 0
682 1 3.2754006809643288e+00 1.4545561892797497e+01 2.2222661828175569e+00 0 -1 0
1370 2 1.1775573221478439e+01 1.6902992505752820e+01 8.8011575953129295e+00 0 -1 1
1372 1 1.2594975692056259e+01 2.3216474210222826e-02 1.7231605669908920e+00 0 0 1
1812 2 1.9586000534978197e+01 9.2973430808569208e+00 1.8415268029283263e+00 0 0 1
482 2 1.1133353856382755e+01 1.4748030964171168e+01 5.6126696310489503e+00 0 0 0
1165 1 9.6361217676007946e+00 1.4633595655068854e+01 6.5212130947698110e+00 0 1 0
737 2 1.8879215994393245e+01 1.2626125025207088e+01 3.7023403239562427e+00 0 0 0
1741 1 6.3245245325173602e+00 3.3287443508746342e+00 9.6385178385614108e+00 0 1 0
1553 2 1.0696984611487157e+01 1.9608708967647122e+01 7.8740896256875184e+00 0 -1 1
309 2 1.0041453313741998e+01 1.2312952400141670e+01 3.5740753691167453e+00 0 0 0
1127 2 1.2972108349365220e+01 1.6150787770570894e+00 7.7879380467838581e+00 0 1 1
1369 1 1.1179526949296053e+01 1.6602170330762061e+01 9.4976163878046354e+00 0 -1 1
273 2 1.3695942770391481e+01 6.6043263369233749e+00 1.6204957858656430e+00 0 0 1
1793 2 7.2644219969048116e+00 6.1117796112953346e+00 6.8759363216623441e+00 0 0 1
871 1 5.5275740841732341e+00 1.0931099430981039e+01 1.6053336533499112e+00 0 0 0
926 2 1.5922405159034266e+01 9.5737428487240059e+00 9.8591753068158052e+00 0 0 0
919 1 1.0423420105273751e-02 8.2087314430929859e-01 4.7561645623328177e+00 0 1 0
218 2 6.1913939756983520e+00 1.3052614456082559e+01 8.2837564919841213e+00 0 0 0
1823 2 1.8242198196122050e+01 1.4872605210848272e+01 1.3158755736439425e+00 0 0 1
1613 2 7.1422451785664887e+00 7.7741326660278958e+00 1.7714701531590575e+00 0 1 1
1398 2 1.6128251470843352e+01 8.7907782768906841e+00 7.3114165957523518e+00 0 -1 1
237 2 1.1755792081439724e+01 1.0919983660953026e+01 5.2891730303909918e+00 0 0 0
1544 2 5.9775946103575195e-01 1.5345396184110903e+01 1.2756873113034306e+00 0 0 0
1729 1 3.5228800293708291e+00 7.6210728536514827e+00 1.0938721517047840e+00 0 1 0
1313 2 -3.4578625974953103e-01 5.0854942450906639e+00 3.1318765513526019e+00 0 0 1
740 2 6.5815583429016744e+00 1.7336826987852223e+01 3.0287062433535805e+00 0 0 1
303 2 1.4528840298368044e+01 1.2925650004852438e+00 5.6244412049653718e+00 0 0 -1
1146 2 1.6550774171416293e+01 1.6194117357656840e+01 9.9872412813761056e+00 0 0 0
1140 2 1.0356211504011908e+01 1.7941409236376774e+01 1.6828813904739839e+00 0 -1 1
488 2 1.2731786260956216e+01 5.1933281426695341e+00 4.8589667637119085e+00 0 1 -1
1366 1 1.8338413468087865e+01 1.6541686465354264e+01 1.8082135462833351e+00 0 0 1
75 2 1.8828670451826675e+01 3.3860422670814594e+00 6.2779672091130365e+00 0 0 0
73 1 1.9174173368906377e+01 3.3617255361323788e+00 5.3277659096749739e+00 0 0 0
690 2 1.1834748740531499e+01 1.3100489404234517e+01 4.5820690713192134e+00 0 -1 0
269 2 1.9284658951897811e+01 1.3920865567348962e+01 5.0518971887389554e+00 0 0 0
954 2 1.4859130867456106e+01 9.6689934613461723e+00 5.8268871269587608e-01 0 0 1
700 1 7.1657083680158165e+00 1.3690364782173535e+01 5.5530374726312983e+00 0 0 -1
1749 2 4.5635612954659877e-01 8.7837177664006738e+00 1.5937336254218755e+00 0 0 1
1554 2 9.4011906674792414e+00 2.8027983135874862e-01 7.0994613645841014e+00 0 0 1
231 2 4.7990109659152607e+00 9.6326751223524401e+00 5.4151737602706032e+00 0 0 0
282 2 7.8943496081857756e+00 1.6220423841441516e+00 4.0282870133091428e+00 0 0 0
1153 1 1.9061169017112949e+01 1.0726286824395320e+01 8.3123450886189634e+00 0 1 0
462 2 7.7392721170310264e+00 4.4065224038246678e+00 3.0824952631342981e+00 0 1 0
688 1 1.1709209316405325e+01 1.2240734441977487e+01 4.1353241653249864e+00 0 -1 0
965 2 1.0787408768159533e+01 3.9211012122297317e+00 9.0548429682714904e+00 0 1 0
11 2 -2.4266340480147547e-01 1.8086674483901266e+01 1.7522787218615834e+00 0 -1 0
95 2 8.7997090847674109e+00 1.6768878813731469e+01 4.7838205513229095e+00 0 0 0
1396 1 1.5819735024121623e+01 8.1639419854844828e+00 6.5783877562615780e+00 0 -1 1
47 2 9.7717789639529284e-01 9.2202905074623711e+00 6.1294874308568144e+00 0 -1 0
1535 2 6.4185245043878059e+00 1.0844571459642196e+01 4.3633987590799892e+00 0 -1 0
704 2 7.6395779009960272e+00 1.9665762515500930e+01 9.3669448570649418e+00 0 0 -1
922 1 1.1532438189917835e+01 5.1714275141784380e+00 8.1071841096572737e+00 0 -1 0
1117 1 2.3866417566976068e+00 2.6984948190848340e-01 4.8589600930769544e-01 0 1 0
473 2 1.0019435567839635e+01 3.8392876449115168e+00 2.5726072738308878e+00 0 1 0
1321 1 6.3493256314590649e+00 1.8695531332368180e+01 4.5900524263847187e+00 0 0 1
1111 1 5.5182098146972489e+00 1.4270816280644269e+01 3.6230216121129581e+00 0 0 0
1813 1 1.8445702963527864e+01 6.7755410747224323e+00 8.4329319293147154e-01 0 1 1
1349 2 3.3141467567650551e+00 1.7680877795171618e+01 4.4587018710549868e+00 0 -1 0
1801 1 1.5182766143461903e+01 9.4863531773577126e-01 1.0024712127471100e+01 0 1 1
1548 2 8.6611730643573459e+00 1.9177331298931328e+01 1.1340256499408448e+00 0 0 1
1354 1 2.2799722617948546e+00 5.6122413177366182e-01 3.2625241341941216e+00 0 0 2
1536 2 6.5491201053798216e+00 1.1113429362578218e+01 2.8948650428983220e+00 0 -1 0
1612 1 7.7813481501364272e+00 8.3739254228864848e+00 2.2655183913279227e+00 0 1 1
1610 2 8.9891105771793143e+00 2.3794491344736306e+00 8.5864309024603500e+00 0 1 1
490 1 4.2645745846708696e+00 8.2269848502796066e+00 4.8240574162896612e+00 0 1 0
479 2 1.1526839266166888e+01 1.6038392909060043e+01 9.8905443131438309e-01 0 0 -1
1542 2 4.9546009897514161e+00 7.1271211283607485e+00 1.2022494680765035e+00 0 0 1
129 2 1.9983154440900417e+01 5.9567642153549079e+00 1.5220047882095360e+00 0 0 0
1166 2 9.3671913721672997e+00 1.5572646011168443e+01 6.5405123935972176e+00 0 1 0
1301 2 1.5225420042442779e+00 1.2771644155119233e+01 4.1613726239427589e+00 0 0 0
1805 2 1.4038685149466559e+01 1.7050440918176168e+01 7.5795189540309922e+00 0 0 1
894 2 1.0849672134969143e+01 6.6679107756523770e-01 4.4522933257964636e+00 0 0 0
1368 2 1.8219328814626870e+01 1.7024135575643825e+01 1.0050204118058956e+00 0 0 1
1377 2 9.9364740381351560e+00 2.3826638588431948e+00 5.5184692246232414e+00 0 1 1
872 2 5.0292580838383039e+00 1.1702679683535109e+01 1.1809703003726495e+00 0 0 0
968 2 2.7900307245768001e+00 1.5475036604174838e+01 9.5764918312198901e+00 0 0 0
1822 1 1.8013885604510836e+01 1.3928571140442729e+01 1.0997951530493566e+00 0 0 1
1559 2 1.3784226184632626e+01 1.6655802952080570e+01 1.7421083730501215e+00 0 0 1
281 2 7.4595296028879119e+00 1.2860115938217263e+00 2.5554844248038147e+00 0 0 0
252 2 7.5856233063000662e+00 9.9826080475672665e+00 8.3310875472564039e+00 0 -1 0
1303 1 6.6488336797147429e+00 1.8103264773862733e+00 8.5008591412191292e-01 0 0 1
48 2 -2.8528382991043311e-01 1.0192164265223509e+01 6.2149799464517796e+00 0 -1 0
78 2 1.4472510924004073e+01 4.6339180584372874e+00 2.5834060485387984e+00 0 0 0
1777 1 4.5739644316772701e+00 4.7135798498917545e+00 7.6916749927025077e+00 0 1 0
66 2 1.2544725055201253e+01 9.5700760215804817e+00 7.0735045201301290e+00 0 0 -1
74 2 1.8839090092522959e+01 2.4702896273215340e+00 5.0198171035336996e+00 0 0 0
315 2 1.0163199815177963e+01 1.3384430494642165e+01 9.5747860519484025e+00 0 0 0
314 2 8.7960372868383505e+00 1.3398055776800540e+01 8.7205339522660186e+00 0 0 0
1332 2 1.8099117293269433e+01 6.8157812918942451e+00 8.2012566601853631e+00 0 0 0
904 1 1.5853233549129413e+01 5.5495850920238849e+00 7.0690472593504650e+00 0 0 0
1607 2 6.9711974009575988e+00 8.4780707389360135e+00 7.0680569960238131e+00 0 -1 0
497 2 1.0894186259490654e+01 6.2483887745075366e+00 5.0994025692335327e+00 0 0 -1
885 2 9.6611363128429808e+00 7.7256225504114022e+00 9.1055739730804230e+00 1 0 0
100 1 1.9560034063236515e+01 1.7200855316553927e+01 5.1971662009324771e+00 0 -1 0
1331 2 1.7789357848761817e+01 5.7595894067387086e+00 7.2981847484536324e+00 0 0 0
1826 2 1.9662128250527573e+01 1.9179189715575713e+01 1.0238641308540732e+00 0 0 1
1348 1 3.8132647715626193e+00 1.8335122124380010e+01 3.9782826631090424e+00 0 -1 0
1136 2 3.9420704422602828e+00 1.0281949320119701e+01 2.7438440427503945e+00 0 1 0
1775 2 5.5174474654884254e+00 2.7260949807917005e+00 2.8273695436641462e+00 0 1 1
942 2 1.3635888599592594e+01 3.2286462808095360e+00 6.1606578512221759e+00 0 1 1
518 2 1.9353595376829073e+01 1.6449586974106431e+01 6.7490369224181848e+00 0 0 0
68 2 3.0157749875030482e+00 4.8822998874295465e-01 8.5176745557355780e+00 0 0 0
89 2 1.5053321445971097e+01 9.4595069242043124e+00 4.1727958402457581e+00 0 0 0
1560 2 1.3248543418097857e+01 1.8077303198232496e+01 1.7851947754556954e+00 0 0 1
450 2 1.6475425676845376e+01 1.6412268573289449e+01 5.2194944226320494e+00 0 0 0
654 2 2.0447958460245546e+00 6.4881925285116440e+00 6.4804671293674234e+00 0 0 0
1774 1 5.3638238094558659e+00 3.3228089633692353e+00 3.5695660792274944e+00 0 1 1
1534 1 7.0903634475914004e+00 1.0833212446103213e+01 3.6862947900369170e+00 0 -1 0
1731 2 3.4338275520287009e+00 8.4978682466792321e+00 1.4396783934416282e+00 0 1 0
461 2 8.0493174643844974e+00 4.4989171205882830e+00 1.5591967312425834e+00 0 1 0
920 2 -2.6283026938425291e-01 1.1843407514406596e+00 3.7728029374314263e+00 0 1 0
883 1 1.0304632325863572e+01 7.8475502248871010e+00 8.4127795261077338e+00 0 0 0
714 2 5.7014379985495012e+00 6.4930078630874215e+00 2.8416811056509763e+00 0 1 1
463 1 1.7810911099213577e+01 1.5039455946532567e+00 3.9982361993161182e+00 0 0 -1
1113 2 5.8031330798320839e+00 1.5091764151506247e+01 3.2535789954527887e+00 0 0 0
972 2 1.5344216738878131e+01 1.3155959716983936e+01 6.4696936677413106e+00 0 0 0
964 1 1.0326148405335559e+01 3.1871960439060212e+00 9.3932709126239349e+00 0 1 0
1816 1 1.2501398598960854e+01 1.7308395640069861e+01 4.8330407450405692e+00 0 1 1
46 1 6.8508285507985978e-01 1.0121160012544953e+01 6.4445083697621364e+00 0 -1 0
59 2 -2.0282113238552313e-01 5.1557790000699546e+00 7.5034205916022660e+00 0 0 -1
224 2 2.5255750205814658e+00 3.5379126792876590e+00 1.2199145725696880e+00 0 1 0
453 2 1.6834643149975088e+00 1.3438755110966602e+01 5.9507366738849292e+00 0 -1 -1
1157 2 9.3512655879581388e+00 1.2637311447596385e+01 6.4817771191454998e+00 0 0 0
308 2 8.5454329757699590e+00 1.1585374905111596e+01 3.3773845314344113e+00 0 0 0
65 2 1.3993054983025569e+01 9.0861850340499313e+00 7.1768210689675671e+00 0 0 -1
456 2 8.7014168222068164e+00 5.8046793502936858e+00 5.4707738383941358e+00 0 1 0
527 2 1.5983834754420531e+01 1.4690891196334842e+01 3.6245518086516255e+00 0 0 0
471 2 1.3418284453855154e+01 1.1032384059572230e+01 8.4032100429662826e+00 0 0 -1
960 2 1.7848034778856082e+01 1.9954685988674667e+00 7.8730637134955330e+00 0 1 0
1773 2 1.1668233596908209e+01 7.7424067402392751e+00 2.4414425728241049e+00 0 0 0
478 1 1.1104565828764315e+01 1.6816983039666848e+01 5.3080302758152187e-01 0 0 -1
1305 2 7.3421999503945887e+00 1.3338274213815453e+00 3.7320670319246541e-01 0 0 1
1558 1 1.4083869295539399e+01 1.7571983608690768e+01 1.8636485282915647e+00 0 0 1
1567 1 8.3021566156402571e+00 2.7809170815009305e+00 5.7883022862564317e+00 0 0 1
319 1 3.6248525703747747e+00 1.7294804040973123e+01 1.2973406606730358e+00 0 -1 1
1357 1 5.9052641513400008e+00 1.6924906963404727e+01 9.9289828025263347e+00 0 0 0