LAMMPS data file via write_data, version 15 Apr 2020, timestep = 200000

972 atoms
2 atom types

2.5290013174534209e-01 1.9738152868256570e+01 xlo xhi
8.3425688020939859e-02 1.9907627311981123e+01 ylo yhi
1.1123566216270930e-01 2.0689536337839129e+01 zlo zhi
1.1275510740732814e-01 3.7973758784578104e-03 -2.5998520255909069e-01 xy xz yz

Masses

1 16
2 2

Atoms # atomic

4 1 4.2168247214421388e+00 1.1906588675544074e+00 3.0475004502257699e+00 0 0 0
5 2 4.2961561096587513e+00 2.1979210580450825e+00 2.9891681994489940e+00 0 0 0
6 2 3.4283529128743955e+00 1.0177492634910532e+00 3.6382770277337508e+00 0 0 0
7 1 6.0829369654265157e+00 4.7669102531821954e+00 5.3530007612117219e+00 0 0 0
8 2 6.8911386928977922e+00 4.7963535926953558e+00 4.8325648020086627e+00 0 0 0
9 2 5.4063223838307488e+00 4.4099550504230480e+00 4.7100263450470878e+00 0 0 0
10 1 1.7034884191391795e+00 4.0039885875355985e+00 4.0623937221434616e+00 0 0 0
11 2 1.0009033053557665e+00 4.1338900964801386e+00 4.7057597282913219e+00 0 0 0
12 2 1.4915329623348612e+00 4.6708023156577756e+00 3.4246631037399937e+00 0 0 0
13 1 4.7719939254579584e+00 6.0856105845246100e+00 1.9406840720749918e+00 0 0 0
14 2 4.4039902645662750e+00 6.9158475436830207e+00 2.3733484090654380e+00 0 0 0
15 2 4.1718646983674912e+00 5.9096938872412981e+00 1.1812130307129696e+00 0 0 0
16 1 4.2770670584747945e+00 3.9647882643046923e+00 3.6406429639143427e+00 0 0 0
17 2 4.4032577058833002e+00 4.7960203206134535e+00 2.9925108273534646e+00 0 0 0
18 2 3.4132152171533749e+00 4.1178100505798039e+00 4.0861833990845691e+00 0 0 0
19 1 1.2090939837998986e+00 5.9276368458326463e+00 2.1983710470537314e+00 0 0 0
20 2 1.3473071744532197e+00 6.9225773022361921e+00 2.3813266406430507e+00 0 0 0
22 1 2.3460997781290418e+00 7.1087517317730198e-01 4.9392584668550228e+00 0 0 0
23 2 1.3789597961382720e+00 6.0900362245862905e-01 4.8662043777704325e+00 0 0 0
24 2 2.5492808225026899e+00 1.4238537170876453e+00 5.5981588092287717e+00 0 0 0
25 1 2.6576645802941767e+00 5.2663767291825296e+00 6.7362663001836633e+00 0 0 0
26 2 2.4707217760704308e+00 6.0679895334636322e+00 6.1600996885837418e+00 0 0 0
27 2 3.5082556534116485e+00 5.5558550141782241e+00 7.1999175466606840e+00 0 0 0
28 1 6.2269386097237769e+00 1.1146371468185152e+00 5.2837891649065885e+00 0 0 0
29 2 5.5937981983753744e+00 1.2965548355129022e+00 4.5932034082084288e+00 0 0 0
30 2 6.1204937159989417e+00 1.8101238684817639e-01 5.4272199410119031e+00 0 1 0
31 1 1.1487290166592465e+00 1.9535824569201599e+00 2.2805862173281404e+00 0 0 0
479 2 7.9026906520574505e+00 1.1556880917667321e+01 9.9601209516428781e+00 0 0 0
33 2 1.3145062707087554e+00 2.6415300068403922e+00 2.9677609302726196e+00 0 0 0
169 1 9.1836515452430483e+00 1.2127616259922881e+01 6.6753966182280635e+00 0 0 0
35 2 6.0302549792898761e+00 2.7758381331217512e+00 1.1601149092572991e+00 0 0 0
46 1 8.1049190131315179e+00 4.3300182802427818e+00 3.4182904795906488e+00 0 0 0
47 2 9.0361004989926474e+00 4.1317578017635892e+00 3.5375834136762365e+00 0 0 0
48 2 8.0899397026581426e+00 5.1515064197701443e+00 2.9074974006439840e+00 0 0 0
55 1 7.3901851142995216e+00 6.5588660559932697e+00 1.5877372083425521e+00 0 0 0
56 2 7.5146528318491610e+00 7.4354041163547366e+00 2.0136639361917679e+00 0 0 0
57 2 6.4363988820295468e+00 6.3677450752286155e+00 1.8150476827371245e+00 0 0 0
58 1 8.9481022248863393e+00 9.5179839699690505e-01 4.9689088806883817e+00 0 0 0
59 2 9.4961602945500978e+00 1.0416529280839246e+00 4.1117366792549879e+00 0 0 0
60 2 7.9834440472914308e+00 1.0894136125539369e+00 4.7977540063398285e+00 0 0 0
61 1 9.3261973470147552e+00 5.5259288085960012e+00 6.6012148275641884e+00 0 0 0
62 2 9.1975254336297727e+00 4.5678479482565244e+00 6.6460629126925790e+00 0 0 0
63 2 8.7507337264189751e+00 5.9655658591145118e+00 7.2934864735390477e+00 0 0 0
67 1 7.5453977664297947e+00 2.0891460989103514e+00 2.2025277103706524e+00 0 0 0
68 2 7.8793587668349421e+00 2.8633386193385157e+00 2.7607877102162517e+00 0 0 0
69 2 8.1858663800643257e+00 2.1477699619949977e+00 1.4588213792807248e+00 0 0 0
557 2 4.2865891024949887e+00 1.5989139884385693e+01 1.0189716028440779e+01 0 0 0
609 2 7.3832195650177335e+00 1.6002455773186650e+01 9.6616226029569230e+00 0 0 0
558 2 4.3632112717589058e+00 1.7555176693308979e+01 9.7293628109552923e+00 0 0 0
112 1 4.4623803263063913e+00 8.1910519823314658e+00 3.5485870932014523e+00 0 0 0
113 2 5.1378943624097886e+00 7.9562559215051127e+00 4.2255408834327177e+00 0 0 0
114 2 4.4769574645355421e+00 9.1629604404183702e+00 3.3998281990853862e+00 0 0 0
115 1 6.2857593719303262e+00 1.1173215224992855e+01 5.6856697696493006e+00 0 0 0
116 2 6.1045856193444630e+00 1.2157858141779659e+01 5.7559753717630437e+00 0 0 0
117 2 5.8523561897548211e+00 1.0664789024675386e+01 6.3983229749195871e+00 0 0 0
118 1 1.5276024487092486e+00 1.0826697603560550e+01 3.9146095681931410e+00 0 0 0
544 1 4.4322961627801956e+00 1.4315358216846015e+01 1.0194962119749841e+01 0 0 0
120 2 2.4513979721098935e+00 1.0589198241965615e+01 4.0741009875011223e+00 0 0 0
121 1 4.9942000815947871e+00 1.2381778194554000e+01 1.6262099074782101e+00 0 0 0
122 2 5.9932613576163796e+00 1.2349616446303772e+01 1.4018184171962407e+00 0 0 0
123 2 4.3774787924945127e+00 1.2500323618376152e+01 8.0436342433181074e-01 0 0 0
124 1 4.3596101148066344e+00 1.0812829084750062e+01 3.7314636004161694e+00 0 0 0
125 2 4.6408674420407783e+00 1.1453327186222628e+01 3.0702954168578627e+00 0 0 0
126 2 5.1290154948368611e+00 1.0843443551441837e+01 4.3923640508042050e+00 0 0 0
127 1 1.0384797003326944e+00 1.2580265765048308e+01 1.6543582584762992e+00 0 0 0
128 2 1.6186154818981058e+00 1.2267603619734349e+01 9.1158387098797611e-01 0 0 0
335 2 1.1148793673865693e+00 3.4008458151560448e+00 1.0129889171152803e+01 0 0 0
130 1 2.1942407205124850e+00 7.5651268048047537e+00 5.1435064088948019e+00 0 0 0
131 2 2.8962694054235225e+00 7.5862988809936303e+00 4.4513258547205554e+00 0 0 0
132 2 2.4766498844075522e+00 8.3182792626958690e+00 5.7231691964457427e+00 0 0 0
133 1 2.9323656716664295e+00 1.2165462178387754e+01 6.7302475126836905e+00 0 0 0
134 2 2.2215927059367848e+00 1.2408773278102322e+01 7.4201028795938289e+00 0 0 0
135 2 2.6298923601896416e+00 1.2723392805838703e+01 5.9589527550258170e+00 0 0 0
136 1 6.2895547518451851e+00 7.4574757862018233e+00 5.3178228080771905e+00 0 0 0
137 2 6.1142617208293881e+00 6.5200705247074353e+00 5.6358855378753372e+00 0 0 0
138 2 7.2918361300610464e+00 7.5032009592190736e+00 5.0339863189303120e+00 0 0 0
500 2 7.4392370067652394e+00 9.5216760084964900e+00 9.9947494830180599e+00 0 0 0
140 2 1.1703069536833381e+00 9.5272953172720580e+00 2.9934194212855094e+00 0 0 0
21 2 3.2709152426742705e-01 5.8656340598390333e+00 1.8131853944555312e+00 1 0 0
147 2 8.7057493596406061e+00 9.1319579464047838e+00 8.4942710955605949e-01 0 0 0
142 1 5.4274486377029794e+00 9.3403009587358667e+00 1.3976029131458642e-01 0 0 0
154 1 7.9830181109791623e+00 1.1197913497365255e+01 3.6428200853345509e+00 0 0 0
155 2 7.6443910952853313e+00 1.1271144989913152e+01 4.5362737319445046e+00 0 0 0
156 2 8.9407136763337949e+00 1.1165793159422803e+01 3.5682296028492857e+00 0 0 0
163 1 7.5669552008478114e+00 1.2563751559490504e+01 1.4876894909024725e+00 0 0 0
164 2 7.7665885111662920e+00 1.2054416336609572e+01 2.3243338096727690e+00 0 0 0
165 2 8.1964953606030626e+00 1.2310026303966525e+01 8.0192566762833151e-01 0 0 0
166 1 8.8676957196577639e+00 7.4965780349070519e+00 5.0930565840525857e+00 0 0 0
167 2 9.1657744306804947e+00 8.2156714242169482e+00 5.7263228301142854e+00 0 0 0
168 2 9.1263183756518664e+00 6.6282752687736615e+00 5.4529084467340923e+00 0 0 0
111 2 2.3369876814018480e+00 8.8250239080977035e+00 1.0010658237076799e+00 0 0 0
171 2 9.0216161607230791e+00 1.2852805124343650e+01 6.0503700719921438e+00 0 0 0
175 1 7.4883170165799919e+00 9.1074628738181147e+00 1.9465160544435309e+00 0 0 0
176 2 7.6403997518668136e+00 9.7127187842864373e+00 2.6718519943734984e+00 0 0 0
177 2 6.6273821207399610e+00 9.2440457405213703e+00 1.5312141582787706e+00 0 0 0
450 2 4.5327708549981782e+00 1.1404333220385087e+01 9.7298000890968570e+00 0 0 0
3 2 2.6015758800218514e+00 2.2769972709424717e+00 8.9398152213845805e-01 0 0 0
927 2 8.5740804503001282e+00 1.8901372586482445e+01 6.9377261144828928e-01 0 0 0
372 2 8.3017750460684603e+00 4.9997526244943336e+00 9.7788452425589636e+00 0 0 0
32 2 3.3183675517056987e-01 2.2427862578341617e+00 1.8736891094028298e+00 0 0 0
220 1 4.0998168476227708e+00 1.4036169304116068e+01 3.4319319998028495e+00 0 0 0
221 2 4.4639760948060552e+00 1.4913881312766042e+01 3.3291109994145374e+00 0 0 0
222 2 4.4982208740798244e+00 1.3518497528425547e+01 2.6779169275779422e+00 0 0 0
223 1 6.1319571263359753e+00 1.8199500255301139e+01 5.2404106217469790e+00 0 0 0
224 2 6.9556199165860990e+00 1.7761632586089164e+01 4.8911640441023856e+00 0 0 0
225 2 5.9390192356350022e+00 1.7525960854962854e+01 5.9024307497146982e+00 0 0 0
226 1 1.6575563305996526e+00 1.7076767137711208e+01 3.9881575490586161e+00 0 0 0
227 2 1.4747118677052962e+00 1.7679198801831852e+01 3.2364777716042865e+00 0 0 0
228 2 1.3531296282485175e+00 1.6212211758913156e+01 3.6526190792197526e+00 0 0 0
229 1 5.0688549701711798e+00 1.8856019273495171e+01 1.5743812245881330e+00 0 0 0
230 2 4.7402224443156262e+00 1.8062103062499325e+01 1.9867949078067626e+00 0 0 0
231 2 4.8640497264560461e+00 1.9597082732407934e+01 2.2033509388864769e+00 0 -1 0
232 1 4.3318955795371616e+00 1.6840086241838321e+01 3.4649257240825588e+00 0 0 0
233 2 3.3282577947134446e+00 1.6844226779049187e+01 3.5387628225909200e+00 0 0 0
234 2 4.5391083306088182e+00 1.7279245182149204e+01 4.3725146065700740e+00 0 0 0
235 1 1.0773000543731204e+00 1.9072545537024894e+01 2.3020810339568403e+00 0 0 0
236 2 9.1224974314690144e-01 1.3969944766333400e-01 2.7512578942504540e+00 0 0 0
237 2 1.6760236318319495e+00 1.9312022412745208e+01 1.6035222566106329e+00 0 0 0
238 1 1.7370876639757173e+00 1.3959749474289849e+01 4.9615717324457256e+00 0 0 0
239 2 2.2018951154875488e+00 1.3890067850431791e+01 4.0791560270713578e+00 0 0 0
240 2 7.6831630441918919e-01 1.3850863162141911e+01 4.7913800484266282e+00 0 0 0
241 1 2.8225145065899615e+00 1.8554796831905172e+01 6.6499115201689998e+00 0 0 0
242 2 2.5894393315403197e+00 1.9205632686719547e+01 5.9539493757311304e+00 0 0 0
243 2 2.7131826155772556e+00 1.7648247998347784e+01 6.2367368551809701e+00 0 0 0
244 1 5.8672938867647604e+00 1.3890815588297819e+01 5.4214178907892894e+00 0 0 0
245 2 5.6935241043128695e+00 1.4615636113999038e+01 6.1476194445612640e+00 0 0 0
246 2 5.0945266477987099e+00 1.3917344852567751e+01 4.8132008100223835e+00 0 0 0
247 1 1.0490467407385426e+00 1.5351881820604708e+01 2.1600763939441192e+00 0 0 0
248 2 1.0655941687188029e+00 1.4352372290645020e+01 1.9514535268352735e+00 0 0 0
249 2 1.7468260588325628e+00 1.5644052701121556e+01 1.5053583423421701e+00 0 0 0
251 2 6.3991215723802162e+00 1.5633377355424361e+01 1.1607695212418956e+00 0 0 0
437 2 4.3027544942043550e+00 9.0562336819662939e+00 1.0127819001054410e+01 0 0 0
262 1 8.2697842940995425e+00 1.7524391077309723e+01 3.7630745199149183e+00 0 0 0
263 2 9.2668625321880853e+00 1.7451161831077741e+01 3.7315606766554015e+00 0 0 0
264 2 8.1291685189642635e+00 1.8279613702471529e+01 3.1356961174067663e+00 0 0 0
271 1 7.6608250278770731e+00 1.9339114760753070e+01 1.9413812322652544e+00 0 0 0
272 2 7.3303388623292918e+00 3.5645101207042673e-01 2.2594678828108088e+00 0 0 0
273 2 6.7167859807399957e+00 1.8984100144096750e+01 1.8224302900296812e+00 0 0 0
274 1 8.4958309822954128e+00 1.3968677878424362e+01 4.9982255160499633e+00 0 0 0
275 2 8.8084035884727445e+00 1.4775778479712496e+01 5.3625615481962710e+00 0 0 0
276 2 7.4943299165688089e+00 1.3958127216228693e+01 4.9912652742053627e+00 0 0 0
218 2 3.9026503483315484e+00 1.5906592218726972e+01 7.9008884004191615e-01 0 0 0
278 2 9.2045913536104660e+00 1.9238889479545101e+01 5.9192379242446327e+00 0 0 0
279 2 8.7627495441519407e+00 1.8840485596923756e+01 7.3475670775275139e+00 0 0 0
283 1 7.5342229228398745e+00 1.5264560530446291e+01 2.2168261727181608e+00 0 0 0
284 2 7.6316033006701973e+00 1.5776602032581682e+01 3.0026856455198692e+00 0 0 0
285 2 7.6329433831597635e+00 1.4317306292123382e+01 2.3347774426421504e+00 0 0 0
711 2 8.5283087655113707e+00 5.7872692461240645e+00 7.1837998706638917e-01 0 0 0
325 1 2.6834774614289931e+00 2.6476360184906258e+00 7.0136406995548368e+00 0 0 0
326 2 2.5001495890040490e+00 3.5648274494798491e+00 6.6745522747246380e+00 0 0 0
327 2 3.6487985368292613e+00 2.7361469437432580e+00 7.1177583302438165e+00 0 0 0
329 2 4.2666683056350605e+00 7.0157608605429822e-01 9.7245338879319601e+00 0 0 0
337 1 4.9076042282210954e+00 6.0522598463045219e+00 8.3088351586177467e+00 0 0 0
338 2 4.7275209021069706e+00 5.2593016691787673e+00 8.8861481050275781e+00 0 0 0
339 2 4.6497181596511137e+00 6.8287326981970562e+00 8.8426195907830536e+00 0 0 0
343 1 1.3907894830266263e+00 6.1051867000368851e+00 8.9216246949035085e+00 0 0 0
344 2 1.4656289590713776e+00 5.4232748368828387e+00 9.5732946233262091e+00 0 0 0
345 2 1.6091353752926814e+00 5.6387565568413454e+00 8.0373139372997002e+00 0 0 0
355 1 9.6648059630621563e-01 1.8784106480957612e+00 8.8662912302105443e+00 0 0 0
356 2 1.0063135044072131e+00 9.3375110816394435e-01 8.9641078641555438e+00 0 0 0
357 2 1.6793357054678930e+00 2.1333893473047851e+00 8.2551742135418777e+00 0 0 0
358 1 5.4817280674736306e+00 3.0878939893912150e+00 7.3831301810529508e+00 0 0 0
359 2 5.8233934463489261e+00 3.7370909876647245e+00 6.7329130405188664e+00 0 0 0
360 2 5.6431552581282736e+00 2.3190455622941690e+00 6.7734332247049238e+00 0 0 0
361 1 9.2268633761969348e+00 2.7789171977138651e+00 7.0196679483132618e+00 0 0 0
362 2 9.0511629654446306e+00 2.0882588382446925e+00 6.3551564587276275e+00 0 0 0
363 2 8.4924106173257030e+00 2.6664454313089698e+00 7.7479437290105393e+00 0 0 0
254 2 8.6742050979824441e+00 1.5678727508016497e+01 7.7503455720439351e-01 0 0 0
379 1 7.6044146061769169e+00 6.5191896173427022e+00 8.7023489647886532e+00 0 0 0
380 2 7.5170194135830561e+00 7.4405406497791029e+00 9.0254184155660546e+00 0 0 0
381 2 6.6969987598274070e+00 6.2639184579256142e+00 8.4108716329582460e+00 0 0 0
391 1 7.5862366128429581e+00 2.1214391120594644e+00 9.1601235299488906e+00 0 0 0
392 2 7.8402077924003466e+00 2.8689249805735377e+00 9.8008557275454127e+00 0 0 0
393 2 6.7508181291694394e+00 2.4349792918292543e+00 8.8095181419523794e+00 0 0 0
141 2 3.0661887992965631e-01 8.6623628664563519e+00 1.9268823680759848e+00 0 0 0
433 1 2.6973203469480032e+00 9.5201424773377941e+00 7.0197979076858124e+00 0 0 0
434 2 2.8208746529594539e+00 1.0541998952339510e+01 6.8077023242151204e+00 0 0 0
435 2 2.0722223936235844e+00 9.4730553362553316e+00 7.8008033330149464e+00 0 0 0
139 1 1.1090449474914577e+00 8.6689835412085472e+00 2.4363912708541586e+00 0 0 0
445 1 4.9470391125010105e+00 1.2433168976975670e+01 8.4092803153051268e+00 0 0 0
446 2 4.5076602072196685e+00 1.3109789072830857e+01 8.9334226157850356e+00 0 0 0
447 2 4.2938742535926018e+00 1.2368349099600406e+01 7.6523830637039278e+00 0 0 0
1 1 3.0400140994822746e+00 2.5623436627207359e+00 1.1126168379506768e-01 0 0 0
250 1 5.7483970277525440e+00 1.5775772593010780e+01 4.1251186397829925e-01 0 0 0
452 2 1.2037383206635046e+00 1.3345880334408495e+01 8.9681541265892317e+00 0 0 0
463 1 9.2992735596236287e-01 8.8239000940990682e+00 9.1606113476248989e+00 0 0 0
465 2 1.0073682909904074e+00 7.8556272367479600e+00 9.1668164340621008e+00 0 0 0
466 1 5.4555747907473835e+00 9.4116893607488912e+00 7.4358023855572331e+00 0 0 0
467 2 5.5654308448278877e+00 8.7619514705108976e+00 6.7297883566686707e+00 0 0 0
468 2 4.3926460701887988e+00 9.4744224744856709e+00 7.5442016442292941e+00 0 0 0
469 1 9.2456115260785037e+00 9.3076515329768199e+00 7.0570502377770143e+00 0 0 0
129 2 1.3540480984526735e+00 1.2045055634243186e+01 2.4669684019164557e+00 0 0 0
471 2 8.6307777957263401e+00 9.2246891732158716e+00 7.8059437197895774e+00 0 0 0
573 2 1.1602352544181489e+00 1.5826327044003492e+01 9.4591067770360127e+00 0 0 0
487 1 7.4679899695553358e+00 1.2795571583887842e+01 8.8792343083125065e+00 0 0 0
488 2 7.9161923578416857e+00 1.2567064895490967e+01 8.0301835287177106e+00 0 0 0
489 2 6.5390517553869021e+00 1.2484276411623220e+01 8.8187726669901352e+00 0 0 0
499 1 7.4548980090664392e+00 9.0357908145485055e+00 9.1721037434558745e+00 0 0 0
119 2 1.0536639149215286e+00 1.0734368779743555e+01 4.7895173047198512e+00 0 0 0
501 2 6.6449041998859393e+00 9.3382328147246199e+00 8.6985459248232431e+00 0 0 0
470 2 9.0751674453362181e+00 1.0167853581518639e+01 6.6665091772774856e+00 0 0 0
451 1 1.2280044069802729e+00 1.2418549742283588e+01 8.6041243350824708e+00 0 0 0
541 1 2.8647827767909622e+00 1.5688867002197677e+01 6.8844367569228622e+00 0 0 0
542 2 2.0723376248521639e+00 1.5445198539445135e+01 7.4033493741313512e+00 0 0 0
543 2 2.5049362267725144e+00 1.5306288158058582e+01 6.0971406705521369e+00 0 0 0
553 1 4.8309268623041159e+00 1.9020752615757011e+01 8.6690785656057781e+00 0 0 0
554 2 5.7931340984259272e+00 1.8981748970896881e+01 8.4068451776318085e+00 0 0 0
555 2 4.2739077826261216e+00 1.8720838109767293e+01 7.8973959959540965e+00 0 0 0
675 2 2.2882231064367584e+00 5.5136951832908565e+00 7.8746254423091144e-01 0 0 0
559 1 1.4798323229802017e+00 1.9009721182003261e+01 9.0511464068144960e+00 0 0 0
560 2 1.9768667237426623e+00 1.8630549376081511e+01 8.3203850654208207e+00 0 0 0
561 2 1.4679942139187883e+00 1.8347105338960915e+01 9.7806014193202309e+00 0 0 0
571 1 1.0058540389376707e+00 1.5147859643515639e+01 8.7427347761340339e+00 0 0 0
574 1 5.5703905861456819e+00 1.6085961725349314e+01 6.9092081542222319e+00 0 0 0
575 2 6.0302682815752933e+00 1.6012341244830829e+01 7.7605397096016349e+00 0 0 0
576 2 4.5988801716009977e+00 1.5945441667580992e+01 7.1200835795399691e+00 0 0 0
577 1 9.0031161101940729e+00 1.5905133972448303e+01 6.9215615984079681e+00 0 0 0
578 2 8.8890606093249538e+00 1.6847629557241127e+01 6.6366493244669877e+00 0 0 0
579 2 8.4851286410803350e+00 1.5839865322708718e+01 7.7483575377513114e+00 0 0 0
210 2 3.8598157144232736e-01 7.4976838828244077e+00 5.1066099386591350e+00 0 0 0
595 1 7.5584525991487537e+00 1.9280790999238427e+01 8.6820482264755494e+00 0 0 0
596 2 7.7060039709401131e+00 3.3154529295230423e-01 9.0676304895704600e+00 0 0 0
597 2 8.0055887246854169e+00 1.8574072510182987e+01 9.2228451578796484e+00 0 0 0
607 1 7.2906953603451097e+00 1.5428019175266982e+01 8.8870109952479641e+00 0 0 0
608 2 7.2379134733056532e+00 1.4424037496690586e+01 9.0089715885761166e+00 0 0 0
277 1 9.1415857152534592e+00 1.8487944485012328e+01 6.4935389529755341e+00 0 0 0
891 2 3.6508473522609819e+00 1.9025593545187675e+01 5.1015740042757440e-01 0 0 0
143 2 4.6009417972723705e+00 9.4886695666981193e+00 5.7111735881257331e-01 0 0 0
2 2 4.0101300631446541e+00 2.7037447911062786e+00 3.9494962769546466e-01 0 0 0
34 1 5.4323618280533861e+00 2.8750053870206966e+00 3.9884995747959179e-01 0 0 0
342 2 4.4553833594148218e+00 3.1958815783063534e+00 1.0315531801466163e+01 0 0 0
328 1 4.3473902852021666e+00 1.4589627512705519e+00 1.0360228331924910e+01 0 0 0
258 2 9.7926285964147457e+00 1.3878985051293244e+01 3.6598232785262996e+00 0 0 0
436 1 4.3549300169575105e+00 8.0899734091219351e+00 1.0181666331269772e+01 0 0 0
217 1 3.0117725903078956e+00 1.6106470293193055e+01 4.2631534876585836e-01 0 0 0
340 1 4.2331150403214650e+00 4.1280038922760918e+00 1.0221671754853432e+01 0 0 0
219 2 2.9735005005593327e+00 1.7099546586059262e+01 2.5878968407027803e-01 0 0 0
709 1 9.3894320252626553e+00 5.5944982021539369e+00 2.4801002271252059e-01 0 0 1
109 1 2.8629973170155592e+00 9.1761285246916433e+00 2.8300737723319502e-01 0 0 0
448 1 4.4869614675833374e+00 1.0654078645827116e+01 1.0382637557778102e+01 0 0 0
37 1 9.3378100186327213e+00 3.0044798974944773e+00 2.0430656648950582e-01 0 0 0
710 2 9.3300531922685330e+00 4.5578988293364366e+00 1.3987492284590836e-01 0 0 1
438 2 5.1229864008811861e+00 7.9701831350405374e+00 1.0822786759970139e+01 0 0 0
546 2 5.2362529028379150e+00 1.4288776425633397e+01 1.0808086310760638e+01 0 0 0
599 2 9.3108162186940220e+00 1.3943872537001575e+01 1.1153278140963121e+01 0 0 0
788 2 4.8005036820667457e-01 8.7152545785079525e+00 1.5354335308643845e+01 1 0 0
926 2 8.9957184876787526e+00 1.7482008152606696e+01 2.0469895605072161e+01 0 0 0
668 2 1.2504308209278570e+00 6.9407223510580263e+00 1.5754437704169741e+01 0 0 0
331 1 5.9279521072751340e+00 4.8306723838253767e+00 1.2193879653386608e+01 0 0 0
332 2 6.6202168085122874e+00 4.5176411481840475e+00 1.1620115671998990e+01 0 0 0
333 2 5.2329815962065682e+00 4.8078802866877357e+00 1.1525031855803256e+01 0 0 0
252 2 5.9385421593726138e+00 1.6354696348748583e+01 2.0535926183178802e+01 0 0 0
674 2 2.8095720014006709e+00 4.1007731376642074e+00 2.0422348800451289e+01 0 0 0
707 2 9.3670962958734023e+00 6.2132777606170497e-01 1.8033381235076565e+01 0 0 0
346 1 2.2629525620854909e+00 1.1146465137831290e+00 1.2104387444468259e+01 0 0 0
347 2 2.9295998512301931e+00 1.4272732746773837e+00 1.1443081567271127e+01 0 0 0
348 2 2.4366356436556127e+00 1.7538531660890162e+00 1.2799972874867963e+01 0 0 0
349 1 2.9044493212961933e+00 5.7772290655339065e+00 1.3825517203434488e+01 0 0 0
350 2 2.5324668236695733e+00 6.3306047918392343e+00 1.3023485401366035e+01 0 0 0
351 2 3.0063302487723331e+00 4.8470422707341410e+00 1.3478193709847325e+01 0 0 0
352 1 6.1630431412975888e+00 8.7597129093790527e-01 1.2358090545194985e+01 0 0 0
353 2 7.0425430805718214e+00 1.0902030942115455e+00 1.1989993359313267e+01 0 0 0
354 2 6.1346366629438851e+00 1.9704364739378576e+01 1.2478363073977004e+01 0 0 0
384 2 9.5970922122531857e+00 1.2609176958013864e+00 1.1369002172296556e+01 0 0 0
382 1 8.9314677607990731e+00 1.1077133798443595e+00 1.2059669615161450e+01 0 0 0
383 2 9.2637594077997036e+00 3.2006897964733638e-01 1.2589508807110668e+01 0 0 0
144 2 5.8389327946570040e+00 9.9232793830269497e+00 2.0470422072226516e+01 0 0 0
385 1 8.8647027731440744e+00 5.7354519569581441e+00 1.3619225273173635e+01 0 0 0
386 2 8.8631896369265135e+00 4.7936813939982184e+00 1.3559186168204754e+01 0 0 0
387 2 8.2996695795513737e+00 5.9051040791452918e+00 1.4419098416849923e+01 0 0 0
901 1 9.4364578020424261e+00 1.5853822017363090e+01 1.3743967560529333e+01 0 0 0
253 1 9.1955648178560683e+00 1.5844639791875251e+01 2.0596821098992894e+01 0 0 -1
439 1 6.1727474406293634e+00 1.1659289060910710e+01 1.2513621066054807e+01 0 0 0
440 2 6.2034467921875418e+00 1.2636322467319202e+01 1.2371064532524338e+01 0 0 0
441 2 5.4491962917811048e+00 1.1339563825387732e+01 1.1950336519458492e+01 0 0 0
370 1 8.2390421162216967e+00 4.2440136731323932e+00 1.0499635328591397e+01 0 0 0
454 1 2.1642628485828750e+00 7.5788692022114912e+00 1.2043500856060946e+01 0 0 0
455 2 2.6875350686705235e+00 7.5452507837851712e+00 1.1218106762626201e+01 0 0 0
456 2 2.6099697619894067e+00 8.3833735924751842e+00 1.2469302254075480e+01 0 0 0
457 1 2.6785546153733222e+00 1.2093415730102894e+01 1.3861543821203549e+01 0 0 0
458 2 3.4395471367845754e+00 1.2244709645842988e+01 1.4417827068973059e+01 0 0 0
459 2 1.9774157497958322e+00 1.2148218458061692e+01 1.4490519265180350e+01 0 0 0
460 1 6.2898624250567021e+00 7.6071848547484837e+00 1.1873811664004959e+01 0 0 0
461 2 6.1334477563312140e+00 6.6437221482025715e+00 1.2010399040985607e+01 0 0 0
462 2 7.2261144098544392e+00 7.7792190574545907e+00 1.1686064772508262e+01 0 0 0
552 2 2.4169326645218416e+00 1.6936768157397850e+01 1.1023537239480577e+01 0 0 0
480 2 7.4707529483430175e+00 1.1252373790861107e+01 1.1490461675791245e+01 0 0 0
749 2 4.9678158080998169e-01 6.3831352434790201e-01 1.8953508072590488e+01 0 0 0
490 1 8.8917462491942025e+00 7.4038501582037970e+00 1.1775089907098689e+01 0 0 0
491 2 8.8187700918881582e+00 6.5793914115830381e+00 1.2253766953128784e+01 0 0 0
492 2 8.9495073443122681e+00 8.1255597099187646e+00 1.2449125234775407e+01 0 0 0
493 1 9.0358661062689940e+00 1.1667976381613578e+01 1.3501472601618929e+01 0 0 0
494 2 8.3927313575738740e+00 1.1983171408825219e+01 1.4248470731993853e+01 0 0 0
495 2 9.0000106101132911e+00 1.2348666538259014e+01 1.2832003130037101e+01 0 0 0
330 2 4.9349326435381622e+00 1.1072853835806937e+00 1.1021875070781437e+01 0 0 0
925 1 9.2371952455850632e+00 1.8451772594032398e+01 2.0554317493418758e+01 0 0 0
551 2 1.0003919187244286e+00 1.7462354543644039e+01 1.1646253799220613e+01 0 0 0
533 2 5.5348158563072047e-01 7.3808428699950941e+00 1.2296163722718068e+01 0 0 0
556 1 4.1542150723159583e+00 1.6966028997610060e+01 1.0445020008001878e+01 0 0 0
836 2 5.3616869764638941e-01 1.1132155760154804e+01 1.9021708677650604e+01 0 0 0
547 1 5.8801825142769459e+00 1.7947704956686643e+01 1.2326414557838312e+01 0 0 0
548 2 5.2274599629421790e+00 1.7567868832951049e+01 1.1718590364664919e+01 0 0 0
549 2 5.9248020458119033e+00 1.7255949764619032e+01 1.3022468509391977e+01 0 0 0
145 1 9.3622454426353130e+00 9.0231996793306344e+00 2.0660846689301621e+01 0 0 -1
562 1 2.4557331591869711e+00 1.3893681705048195e+01 1.1855556030214482e+01 0 0 0
563 2 1.5439622331257430e+00 1.3892494030849976e+01 1.1592682962880053e+01 0 0 0
564 2 2.6012550842757296e+00 1.3040784360296440e+01 1.2288282113138948e+01 0 0 0
565 1 2.7668990835548932e+00 1.8475711143672868e+01 1.3394689364987549e+01 0 0 0
566 2 2.6276499378862876e+00 1.9231504043295899e+01 1.2813731927270386e+01 0 0 0
567 2 3.6001960535190949e+00 1.8581537297105335e+01 1.3930146606647556e+01 0 0 0
568 1 6.3479256148781182e+00 1.4138372769671907e+01 1.1989561741793445e+01 0 0 0
569 2 7.3687893621547680e+00 1.4125589108159950e+01 1.1969812317940487e+01 0 0 0
570 2 5.9901532207075769e+00 1.4676581625744923e+01 1.2771941732542951e+01 0 0 0
146 2 9.3590612918319049e+00 9.9663741786288185e+00 2.0439202960138122e+01 0 0 0
667 1 1.1459197195463249e+00 5.9649114800502705e+00 1.5733034432357664e+01 0 0 0
588 2 7.3843047236148687e+00 1.7842389847580911e+01 1.1381253361095746e+01 0 0 0
598 1 8.8557801370180247e+00 1.3791788154048954e+01 1.1994624855281712e+01 0 0 0
798 2 9.8822027992862491e+00 7.3823144067270494e+00 1.7949014055779859e+01 0 0 0
600 2 9.0976645846144919e+00 1.4538164952362845e+01 1.2631642323357404e+01 0 0 0
601 1 9.3240497937511488e+00 1.8760676274767192e+01 1.3549430270446287e+01 0 0 0
603 2 8.6243606760037483e+00 1.9023909913852002e+01 1.4113239909258143e+01 0 0 0
110 2 2.6208195162291301e+00 8.3487430865568815e+00 2.0104003310193360e+01 0 0 0
905 2 1.0075883155458410e+01 1.4024485735599283e+01 1.7552564132223068e+01 0 0 0
649 1 2.8461178906704925e+00 3.0011056917673722e+00 1.3921229622264820e+01 0 0 0
650 2 3.8382514906228336e+00 2.9745087747008316e+00 1.3904336684212954e+01 0 0 0
651 2 2.4378063706461219e+00 2.9076387068214307e+00 1.4786282684583931e+01 0 0 0
652 1 4.1338348824429714e+00 9.7573887778681612e-01 1.7056055460929898e+01 0 0 0
653 2 4.2079818542461211e+00 1.9180762545230519e+00 1.6820147105380020e+01 0 0 0
654 2 4.6538015269086195e+00 9.2045752243476986e-01 1.7872658427672562e+01 0 0 0
655 1 5.9264831519640184e+00 4.5771030743952581e+00 1.9372829022868675e+01 0 0 0
656 2 5.7825617097557691e+00 5.5235463590963993e+00 1.9419274461069413e+01 0 0 0
657 2 6.7464360366408505e+00 4.4010776033525616e+00 1.8806154256074386e+01 0 0 0
658 1 1.5565498611062742e+00 4.1064413453898680e+00 1.7632405003826680e+01 0 0 0
659 2 1.3455963851348351e+00 3.2007284293841547e+00 1.7264849065523403e+01 0 0 0
660 2 1.4499648749217795e+00 4.7773849887032451e+00 1.6877839547529572e+01 0 0 0
661 1 5.0633648733498244e+00 5.8281921259234526e+00 1.5510157804773856e+01 0 0 0
662 2 4.7232570111361127e+00 5.0343450275716224e+00 1.5954728533841806e+01 0 0 0
663 2 4.6495214215825378e+00 5.8973658391746220e+00 1.4651930498440249e+01 0 0 0
664 1 4.2851245875031436e+00 3.8601638518157761e+00 1.7137940050954072e+01 0 0 0
665 2 3.2853899174870040e+00 4.0277379000932694e+00 1.7383932736527861e+01 0 0 0
666 2 4.7242712320946891e+00 4.1622516573500645e+00 1.8023164611658522e+01 0 0 0
336 2 6.2554343233170173e-01 4.3239151482485303e+00 1.1335406752847941e+01 0 0 0
442 1 1.7035563276653014e+00 1.0539985334972968e+01 1.0987897164007789e+01 0 0 0
669 2 1.7853626387180870e+00 5.7494643297572727e+00 1.4950616666841878e+01 0 0 0
670 1 2.2525957888609369e+00 3.7973505136625940e-01 1.8933107605415437e+01 0 0 0
671 2 2.5002255379261169e+00 1.1474009271995698e+00 1.9530210097403625e+01 0 0 0
672 2 2.8754659126240054e+00 4.7918948259828964e-01 1.8141610488479362e+01 0 0 0
676 1 6.1671922742982836e+00 5.2162825371261567e-01 1.8991951228786320e+01 0 0 0
677 2 5.7652659843304503e+00 1.1362111680348108e+00 1.9644440549731275e+01 0 0 0
678 2 7.0871037476618941e+00 7.0840789613614330e-01 1.8747135713842802e+01 0 0 0
679 1 1.0796582821380731e+00 2.0029605501696972e+00 1.6005418415286421e+01 0 0 0
933 2 8.3272501844951510e+00 1.5436373306112815e+01 1.4887140659322077e+01 0 0 0
681 2 1.0752371039784623e+00 1.0030915849010356e+00 1.5918165544728852e+01 0 0 0
682 1 5.5607515425358987e+00 2.7519047912786703e+00 1.3902393116851057e+01 0 0 0
683 2 5.7747363485177248e+00 3.4850666421917516e+00 1.3243255690007626e+01 0 0 0
684 2 5.8466203644109198e+00 1.9648231120685133e+00 1.3434149732303789e+01 0 0 0
685 1 9.1727024395346000e+00 3.0809912250778217e+00 1.3752105737469250e+01 0 0 0
687 2 9.0237591451620638e+00 2.4336169078545731e+00 1.3055774568759928e+01 0 0 0
694 1 7.9271097825334449e+00 3.9309076481614982e+00 1.7968036595310604e+01 0 0 0
695 2 8.8999177856213976e+00 3.9698955420167068e+00 1.7802150890053504e+01 0 0 0
696 2 7.5660216125979636e+00 3.2236253934448582e+00 1.7425015962178779e+01 0 0 0
703 1 7.6554517925511316e+00 6.1311146686423887e+00 1.6088082931014256e+01 0 0 0
704 2 7.8312384837426396e+00 5.5611230326292302e+00 1.6860729057025786e+01 0 0 0
705 2 6.6947330676304411e+00 5.9813106635445354e+00 1.5770957849925459e+01 0 0 0
706 1 8.7931453703434812e+00 6.3229651045755730e-01 1.8810008382079999e+01 0 0 0
449 2 3.5534307604316848e+00 1.0648044836090302e+01 1.0767223586144057e+01 0 0 0