LAMMPS data file via write_data, version 15 Apr 2020, timestep = 6654000

576 atoms
2 atom types

4.7816116919924134e-01 1.7441839830779315e+01 xlo xhi
2.7316016919936636e-01 1.7236838830779440e+01 ylo yhi
6.2316116919916453e-01 1.7586839830780065e+01 zlo zhi

Masses

1 16
2 2

Atoms # atomic

420 2 2.7754044272390073e+00 3.3885823102344657e+00 3.1652626480292456e+00 2 6 4
246 2 1.2637925500503895e+00 1.2945304010034031e+00 3.8103318955360708e+00 -2 -2 -1
418 1 3.2830238293645375e+00 3.1706562195253420e+00 2.3557523271196628e+00 2 6 4
244 1 2.1165526913882635e+00 8.9873349573048977e-01 4.2740968387351925e+00 -2 -2 -1
36 2 5.5532153114730920e-01 2.8931750488152965e+00 2.1956950423911943e+00 -2 -1 -4
222 2 3.0260828746010713e+00 2.3197224826997256e+00 8.5443409591569230e-01 1 2 6
542 2 3.6802848207300225e+00 4.5673805020743047e-01 1.8173135013575230e+00 3 1 5
28 1 1.9626028193881473e+00 4.3769023780540044e+00 4.4884421310240903e+00 1 2 6
419 2 3.4168928747436080e+00 3.9677697240050271e+00 1.7813817082110919e+00 2 6 4
245 2 2.5741229749321448e+00 4.2004068409876016e-01 3.5018879320762748e+00 -2 -2 -1
302 2 4.9172472374251690e+00 2.4008089385339524e+00 2.5914091804589443e+00 2 -3 4
301 1 5.8009766451602047e+00 2.0752500506936054e+00 2.5017366941046975e+00 2 -3 4
303 2 6.2636749155446161e+00 2.2069205452952732e+00 3.3210003811927078e+00 2 -3 4
88 1 6.8751500309540070e+00 3.2456634550874375e+00 4.7253896519638854e+00 -1 -2 5
278 2 6.7077540584891091e+00 2.8522454192028115e+00 9.8952825786143084e-01 -2 0 4
102 2 9.0355994056322739e+00 1.4853882269921075e+00 2.3352109969927528e+00 -2 1 6
100 1 9.4077218818213613e+00 2.3792558229570511e+00 2.1354610614111946e+00 -2 1 6
300 2 9.1046635235501263e+00 4.1138617526793269e+00 1.8268519191771300e+00 2 1 7
101 2 9.9334130984611004e+00 2.2795697979004697e+00 1.2980097864551940e+00 -2 1 6
161 2 9.9503108839634020e+00 2.6146156602695281e+00 3.6393197187583941e+00 1 7 6
160 1 1.0442406097380585e+01 2.7176063075102652e+00 4.5024120904169127e+00 1 7 6
114 2 1.1568034866148606e+01 1.5875231845079876e+00 3.4389764299295353e+00 -1 0 -5
112 1 1.2202026273812571e+01 1.1081366553463696e+00 2.8953080709822956e+00 -1 0 -5
113 2 1.2276506496181696e+01 2.9621757475993854e-01 3.4294454563431143e+00 -1 0 -5
478 1 1.7410277028906712e+01 4.1743065660024286e+00 7.8452897567578583e-01 -2 -1 -1
34 1 1.7145579518764137e+01 2.0933215630980317e+00 2.6239778187221652e+00 -3 -1 -4
35 2 1.6157773858363623e+01 2.2483790737886982e+00 2.6964759815003299e+00 -3 -1 -4
313 1 1.4494827846412825e+01 2.4950411589251624e+00 2.7726400344666273e+00 -2 2 -2
314 2 1.4186529320577579e+01 3.3745504559993660e+00 2.6016422950739013e+00 -2 2 -2
315 2 1.3793053380986185e+01 1.8530336219820629e+00 2.7721967161386605e+00 -2 2 -2
59 2 1.4851976179374635e+01 3.2469695122554021e+00 4.3421495734835140e+00 -1 -3 1
446 2 1.7039122016630905e+01 8.2841066605228131e-01 1.5029861240321776e+00 -1 3 6
5 2 1.4815548289572124e+01 2.6722128480863359e+00 9.5820507943959177e-01 2 3 -3
29 2 1.2726677176685608e+00 4.7563329453188814e+00 3.8769149485367702e+00 1 2 6
147 2 4.1827124309678059e+00 6.6352651357995702e+00 2.6587508792683261e+00 6 1 3
145 1 4.1450988296559519e+00 7.2802063273245441e+00 3.3468052303526465e+00 6 1 3
16 1 3.8646506351232333e+00 5.4942521572912009e+00 1.1661165986559716e+00 5 0 -5
255 2 3.7610221330937281e+00 8.7005577647279431e+00 2.2181294433661498e+00 -5 2 -2
275 2 6.3434133900098120e+00 4.5927503283000153e+00 3.1053163989685002e+00 -5 -1 -3
146 2 5.0139389929171534e+00 7.7348779255691777e+00 3.4061302973415573e+00 6 1 3
274 1 6.6581292329662736e+00 5.4911468404816741e+00 2.7545564581107036e+00 -5 -1 -3
276 2 6.9845481133897831e+00 5.9187712261250125e+00 3.5207593043478824e+00 -5 -1 -3
299 2 8.1769069132780992e+00 5.2672131121141161e+00 2.0923752279285042e+00 2 1 7
18 2 4.8010113180185279e+00 5.6236144259744449e+00 7.1851750024912153e-01 5 0 -5
10 1 6.5113136071991473e+00 8.4400062746716600e+00 1.2871878570578059e+00 10 -1 4
237 2 7.0291209489840671e+00 8.1835350666264013e+00 4.5367202694012470e+00 0 0 0
12 2 6.1181077884507262e+00 7.5599368795541668e+00 9.5728700852516146e-01 10 -1 4
489 2 7.9473087214225986e+00 8.5647936940130975e+00 8.0845704080690406e-01 -5 0 -4
563 2 1.2859990204414466e+01 8.4947377812243960e+00 1.7441135050126009e+00 -6 -2 2
298 1 9.0754934996905110e+00 5.0973187197469176e+00 1.7210696497924620e+00 2 1 7
522 2 1.1722826324428024e+01 5.0455700935987942e+00 1.9239631937197186e+00 3 2 2
521 2 1.0489615382084857e+01 5.7004355414767920e+00 2.4762938947603086e+00 3 2 2
520 1 1.1480970284763485e+01 5.6271537897896309e+00 2.6716386421109637e+00 3 2 2
564 2 1.2002636791936490e+01 7.2780710468986403e+00 2.4069930686356278e+00 -6 -2 2
562 1 1.2362188702114862e+01 8.2022527466575212e+00 2.5030285920066810e+00 -6 -2 2
506 2 1.2646703062877130e+01 7.8510778487027357e+00 4.2132164195101520e+00 -2 -2 6
545 2 1.0664604957728903e+01 5.6056414902600720e+00 4.8373621716918755e+00 0 4 0
24 2 1.3474646081724247e+01 5.2200449501257893e+00 3.1808206880920875e+00 2 -6 -2
480 2 1.7254461777810882e+01 5.0349699158625167e+00 1.1893319782590293e+00 -2 -1 -1
194 2 1.7212365115249959e+01 6.6584920234834479e+00 3.0361688017509443e+00 0 1 -1
22 1 1.4323497173539792e+01 5.1187477439841000e+00 2.7231878417895596e+00 2 -6 -2
193 1 1.7075540229864728e+01 5.6966232044524263e+00 3.1795687674830941e+00 0 1 -1
195 2 1.6105864023622065e+01 5.6361821382829564e+00 3.3924403745261142e+00 0 1 -1
23 2 1.4329253161562750e+01 5.7775354104808629e+00 2.0179441734815695e+00 2 -6 -2
295 1 1.6929256160464654e+01 8.5154484218105164e+00 3.2264042934965671e+00 0 -4 1
296 2 1.6875392400168224e+01 8.3225607482617718e+00 4.2033066158884997e+00 0 -4 1
426 2 1.5614897707492628e+00 4.5691430537985916e-01 7.7238107857760809e+00 4 0 6
30 2 1.3586328042443108e+00 3.8890821002995946e+00 5.0879114022896532e+00 1 2 6
209 2 2.5374189117106383e+00 2.0431790611962115e+00 5.9770343886765884e+00 -3 2 0
53 2 3.1808757990075347e+00 3.1090008638837912e+00 7.9713836180027444e+00 -1 -1 2
208 1 3.3298215466657468e+00 2.4199854302123862e+00 6.3973542657694287e+00 -3 2 0
210 2 3.9395891586150484e+00 1.6781093012979913e+00 6.4360234189189942e+00 -3 2 0
560 2 4.4534351350908281e+00 3.7025064800963770e+00 6.2823482681705380e+00 0 -5 -2
531 2 5.4208527073856461e-01 2.3977033150417260e+00 6.6175283744445892e+00 3 0 4
52 1 3.0520951339666156e+00 3.4918870012897107e+00 8.8731066830349690e+00 -1 -1 2
424 1 7.7739008827106726e-01 8.8821220066450512e-01 7.2788013654252106e+00 4 0 6
71 2 6.9513794742163366e+00 1.9161559046066838e+00 8.6290135712508320e+00 3 4 -5
90 2 7.5171486124611659e+00 2.7122005987382609e+00 5.2505013274117420e+00 -1 -2 5
89 2 6.3380629809534810e+00 3.8075583855128432e+00 5.3417231048239824e+00 -1 -2 5
226 1 6.9137834022819185e+00 3.7229666198890068e+00 8.6706681087054402e+00 1 1 3
70 1 6.9646399633751574e+00 9.5054506571583464e-01 8.4445766925768257e+00 3 4 -5
227 2 6.2666849995480929e+00 3.9621676024139401e+00 8.0233107639398344e+00 1 1 3
559 1 5.1481095637623824e+00 4.3863286846087872e+00 6.4046676018982858e+00 0 -5 -2
228 2 7.6804430978843072e+00 4.3001011088010834e+00 8.4255950378952793e+00 1 1 3
72 2 6.1925870997875627e+00 6.8937676662010494e-01 7.7859452498969013e+00 3 4 -5
132 2 8.2340767264289827e+00 1.4740075332102975e+00 7.0542729777582949e+00 2 5 -8
130 1 8.7681971466456616e+00 2.1278090045178635e+00 6.5466422757034000e+00 2 5 -8
317 2 1.3030332355965943e+01 3.1427268594695370e+00 9.0916940973459184e+00 2 3 5
179 2 1.2151947168684353e+01 6.0833965207240315e-01 6.2323121410720503e+00 -2 6 2
162 2 9.7947461726432437e+00 2.3959913739833358e+00 5.1430904171208178e+00 1 7 6
131 2 8.9778143926109948e+00 2.8170041104498331e+00 7.1562637434057752e+00 2 5 -8
437 2 1.1804848899252546e+01 2.7321382131559639e+00 5.5010462040820771e+00 1 -3 0
436 1 1.2439806797693683e+01 2.4834141545782993e+00 6.1964545739730221e+00 1 -3 0
316 1 1.2286302809435613e+01 2.5653127207790405e+00 8.8338404949947673e+00 2 3 5
318 2 1.2291375508417746e+01 2.5531392612855486e+00 7.8631067636095873e+00 2 3 5
116 2 9.7103063494459878e+00 1.1113628885459323e+00 9.0358793990589596e+00 2 -4 0
213 2 9.9598498553740438e+00 4.5070015139735187e+00 8.5246240658441597e+00 0 -3 -3
529 1 1.7222492214509906e+01 3.2692240691082044e+00 6.1837499997331751e+00 2 0 4
526 1 1.5443595768812509e+01 1.4641205786929679e+00 8.5539244420697500e+00 -3 -6 -2
163 1 1.6390361241550771e+01 4.4926709277706713e+00 8.4115175312279327e+00 5 -2 -3
438 2 1.3274535409763894e+01 2.9022274102507875e+00 5.9087754410115183e+00 1 -3 0
530 2 1.7003456971542093e+01 3.8855939376053299e+00 6.9672598434464739e+00 2 0 4
425 2 1.6974123101232266e+01 8.6679061505034827e-01 7.9408862226913577e+00 3 0 6
60 2 1.5607434258468160e+01 3.2355927254452972e+00 5.6804668926496316e+00 -1 -3 1
58 1 1.4761578478129087e+01 3.5559840896423154e+00 5.2588303558008596e+00 -1 -3 1
527 2 1.4858888926553858e+01 7.6487005758221283e-01 8.2963653001555588e+00 -3 -6 -2
156 2 3.4631046420909986e+00 6.7864838530651737e+00 4.9927230300065464e+00 -4 -3 2
77 2 3.1454473188215060e+00 6.2755306349688418e+00 8.1135235311333727e+00 0 -2 -3
155 2 2.4241918298386569e+00 5.7219348120975084e+00 5.4984333120359254e+00 -4 -3 2
154 1 3.0310984970189807e+00 6.4693302732226483e+00 5.8218505474543045e+00 -4 -3 2
435 2 2.3530247137024722e+00 7.5979450228986884e+00 6.8937144983597420e+00 -5 5 0
433 1 1.8766798807874778e+00 8.2533007223269568e+00 7.3862615331622088e+00 -5 5 0
311 2 6.7908969660831608e-01 7.4363767839810118e+00 8.3639712749049444e+00 -2 2 2
78 2 3.5036007845813408e+00 4.9676207062917932e+00 8.7347137278389138e+00 0 -2 -3
76 1 3.7332724412901630e+00 5.9035230127544782e+00 8.7624626976404087e+00 0 -2 -3
280 1 7.9964042178724650e+00 7.8225612140769716e+00 9.0380759619965243e+00 -1 0 -6
561 2 4.8227728077326022e+00 5.2415609212153296e+00 6.0668735803558551e+00 0 -5 -2
281 2 7.4145533744381389e+00 7.4118529839937999e+00 8.3972381897277604e+00 -1 0 -6
170 2 5.4685190297215103e+00 6.4695490717375854e+00 8.0477682361422183e+00 0 1 -5
349 1 7.3665190014051118e+00 6.3387049775880397e+00 5.1342396269739936e+00 -2 -5 0
171 2 5.4316535101412580e+00 7.8005553783559671e+00 7.3751650784624951e+00 0 1 -5
169 1 6.0106864596565766e+00 6.9758323368265760e+00 7.4623063988113136e+00 0 1 -5
350 2 8.3603205699480796e+00 6.1723038216106207e+00 5.2659014421556245e+00 -2 -5 0
351 2 6.9252333103409436e+00 6.4707792611385759e+00 6.0195643006017532e+00 -2 -5 0
183 2 1.0967169927532385e+01 8.1226589828411804e+00 7.8418973506353362e+00 -10 -7 -2
211 1 9.3461506419631579e+00 4.8746614356107267e+00 7.9305271008000160e+00 0 -3 -3
282 2 8.9609067755148573e+00 7.4608147387061701e+00 8.9902295924812048e+00 -1 0 -6
181 1 1.0846122769789172e+01 7.2315377864964621e+00 8.2850266268398727e+00 -10 -7 -2
212 2 9.7776461626973514e+00 5.5690175981403254e+00 7.3865176402316459e+00 0 -3 -3
544 1 1.0315997887082430e+01 6.0648679586073770e+00 5.5879536126679303e+00 0 4 0
507 2 1.2625780485924018e+01 8.5900673002534909e+00 5.7277035253554240e+00 -2 -2 6
505 1 1.2628993719018672e+01 7.6944754593853535e+00 5.2251778502229058e+00 -2 -2 6
546 2 1.0763169094406383e+01 6.9250152348284653e+00 5.5597416846830372e+00 0 4 0
182 2 1.1522207721952819e+01 7.2824977708523413e+00 8.9689703372136602e+00 -10 -7 -2
167 2 1.3849088378979127e+01 6.4787364639949381e+00 5.9080126956077592e+00 -3 3 -2
310 1 1.6861993541795393e+01 7.0150264426929150e+00 8.7741257977043947e+00 -3 2 2
95 2 1.4775575831167687e+01 4.7357226974441851e+00 8.8560127679255789e+00 -2 3 -5
94 1 1.3730735011536408e+01 4.8228601907945210e+00 8.8624049079341436e+00 -2 3 -5
547 1 1.6347182348509286e+01 8.3066800462852282e+00 5.9309213123012352e+00 0 3 -2
165 2 1.6654539885502480e+01 5.4559659168838142e+00 8.4623311363616232e+00 5 -2 -3
548 2 1.7138647144776769e+01 8.2817733577665607e+00 6.4767234232271829e+00 0 3 -2
166 1 1.4519898117543390e+01 6.1595608629987479e+00 6.5897708740838752e+00 -3 3 -2
168 2 1.4784439150148899e+01 5.2985274452912208e+00 6.2321922478873457e+00 -3 3 -2
73 1 1.4637071140014507e+01 8.5888321899931164e+00 8.9538624873969805e+00 6 -1 -3
549 2 1.5807908524962302e+01 7.5919421183028000e+00 6.3056782863246923e+00 0 3 -2
96 2 1.3701463600780754e+01 5.2473076969753443e+00 8.0265555365835723e+00 -2 3 -5
75 2 1.5359582569869405e+01 7.9922566071471879e+00 8.7662370574826252e+00 6 -1 -3
26 2 1.2463159379594595e+00 4.0960129119014006e+00 1.1577859277039096e+01 0 -6 -1
456 2 2.2359267623540848e+00 2.5857007547139768e+00 1.3153510900197730e+01 0 0 -1
382 1 4.3621633678289999e+00 1.5088025400617071e+00 1.0612024330509735e+01 2 -2 -1
139 1 7.6567970315149370e-01 3.1645709800603483e+00 1.0298150886048511e+01 -3 -1 -2
384 2 4.2546157035477368e+00 2.0218189609136505e+00 1.1461354468495436e+01 2 -2 -1
140 2 1.6502556705012548e+00 3.0661400656890758e+00 9.8137530601765448e+00 -3 -1 -2
27 2 8.5192992375875143e-01 4.2212160812213124e+00 1.3055983630790356e+01 0 -6 -1
141 2 5.1440413360253101e-01 2.2804631514778091e+00 1.0597183485013074e+01 -3 -1 -2
432 2 2.5412672601708373e+00 7.0145803915327076e-01 1.2262687016662319e+01 -5 -6 3
54 2 3.6639774599269987e+00 2.9482075974770603e+00 9.4119001113945728e+00 -1 -1 2
273 2 2.9951676252801236e+00 3.0798447185976841e-01 9.5616288997774141e+00 2 -1 0
383 2 4.8706609016302052e+00 6.7805298461298558e-01 1.0819024091454040e+01 2 -2 -1
321 2 7.5385648804859349e+00 1.4475737818160272e+00 1.3345255949433991e+01 -5 4 -3
319 1 8.2250109966290417e+00 7.8667968368727614e-01 1.3128566026904624e+01 -5 4 -3
320 2 8.8450593923444440e+00 1.5578137445259377e+00 1.2642048740672882e+01 -5 4 -3
192 2 6.2502807228834660e+00 3.8332734927197123e+00 1.0489293067144391e+01 -1 -2 -6
190 1 5.9694256904579630e+00 4.0900826581321965e+00 1.1384701041223380e+01 -1 -2 -6
410 2 6.3924000658460081e+00 3.5711330563322115e+00 1.2741655770469665e+01 0 0 0
389 2 7.9550668914101905e+00 2.8975603598441069e-01 1.1449120137059662e+01 5 -1 -1
241 1 9.2968510068638182e+00 2.4626874721069503e+00 1.1946864077817978e+01 -2 9 -3
243 2 9.1784372600212851e+00 3.4572983386705554e+00 1.1997146105973121e+01 -2 9 -3
242 2 9.2862949963174124e+00 2.2103252559773074e+00 1.0990122379584138e+01 -2 9 -3
177 2 1.2135123891895253e+01 3.9327556142754485e+00 1.1523461642935111e+01 -2 -6 0
115 1 9.7600596562143753e+00 1.9017329152537596e+00 9.5412568445434172e+00 2 -4 0
175 1 1.2611356861984525e+01 3.6189912314956971e+00 1.2322823933396911e+01 -2 -6 0
176 2 1.1993044533889281e+01 3.7903493791794105e+00 1.3019568359793926e+01 -2 -6 0
341 2 1.2478687637875161e+01 8.2258341096299259e-01 9.3082279862079407e+00 0 1 2
117 2 1.0658275186374182e+01 2.2078781039481896e+00 9.4332865452708976e+00 2 -4 0
66 2 1.1589770325392992e+01 1.7323883127101867e+00 1.2769648028234718e+01 1 -3 -1
64 1 1.1780445215082214e+01 8.6063374350638899e-01 1.3175785335433604e+01 1 -3 -1
304 1 1.6814424705868866e+01 7.1062744258434285e-01 1.1091036494855828e+01 -1 5 0
158 2 1.3902803297819105e+01 2.4450609089514512e+00 1.2265752379730738e+01 -4 4 -9
157 1 1.4734469038271484e+01 2.0508435941527314e+00 1.2563390648665241e+01 -4 4 -9
305 2 1.6067914161826053e+01 8.3131488964032052e-01 1.1708887526507546e+01 -1 5 0
528 2 1.5652476361805713e+01 1.1233793183956982e+00 9.4332714028675859e+00 -3 -6 -2
164 2 1.6781075889308994e+01 3.9827141424997183e+00 9.1684784556183505e+00 5 -2 -3
25 1 1.5196390120302188e+00 4.5577530361456251e+00 1.2409095402393767e+01 0 -6 -1
14 2 2.9340316005750844e+00 8.5383475459608409e+00 1.2733913488523136e+01 1 0 2
13 1 2.4607464389806379e+00 8.6713742806615759e+00 1.1824647047593288e+01 1 0 2
105 2 1.0639369348629284e+00 5.8332418423343446e+00 1.1748834301911025e+01 0 0 2
104 2 1.3339394844528480e+00 7.4928094855119731e+00 1.1411187345405384e+01 0 0 2
330 2 3.6488111122661677e+00 6.8442082008420124e+00 1.1121000961672818e+01 3 6 2
328 1 4.1049935249910909e+00 6.1748936660701821e+00 1.1635019792528189e+01 3 6 2
103 1 6.8919010174251283e-01 6.7479588299424940e+00 1.1356702573722867e+01 0 0 2
467 2 3.2744637916453541e+00 4.9553642829340472e+00 1.3151183107924174e+01 1 -2 -3
428 2 7.6130151897523586e+00 5.2392210727927129e+00 1.1734238532829576e+01 4 1 -10
427 1 8.4896959048260943e+00 5.0344504765480842e+00 1.2024443886572179e+01 4 1 -10
329 2 4.8970450711648290e+00 6.6536335683360557e+00 1.1986738080076977e+01 3 6 2
191 2 5.2050396892796771e+00 4.6885552227320062e+00 1.1171671454678188e+01 -1 -2 -6
133 1 6.7376641428477857e+00 8.0108961855710703e+00 1.1473606912466479e+01 4 -5 -2
135 2 7.3089879661730830e+00 7.8564117962006046e+00 1.0629006696489235e+01 4 -5 -2
429 2 8.6862880032565890e+00 5.6838412512085323e+00 1.2700072675174315e+01 4 1 -10
134 2 7.1598176540268890e+00 8.6417712450250601e+00 1.2147010616404465e+01 4 -5 -2
219 2 9.9215100744354885e+00 5.0197304531234339e+00 1.0863918172953204e+01 0 0 -2
218 2 1.1198538031278551e+01 5.4186970326433803e+00 1.0154983656520860e+01 0 0 -2
217 1 1.0713083848423647e+01 4.6038491697656303e+00 1.0487496035419708e+01 0 0 -2
204 2 1.1754896296199032e+01 8.1994378087006758e+00 1.3077755489140547e+01 -3 2 1
202 1 1.0821586867406189e+01 8.3518223569677694e+00 1.3260808815130209e+01 -3 2 1
79 1 1.2834638779041796e+01 6.9111154892417828e+00 1.0266193339064612e+01 -2 3 1
81 2 1.2937473907888887e+01 6.9055397588159435e+00 1.1228336740792653e+01 -2 3 1
312 2 1.7096527028146568e+01 6.8311497380775315e+00 9.7372863788069530e+00 -3 2 2
80 2 1.3204070229890061e+01 6.0782076624499304e+00 9.9000164833649933e+00 -2 3 1
49 1 1.3280009195643906e+01 6.9759743899052040e+00 1.3046162541595821e+01 7 4 -4
51 2 1.3405029177051905e+01 6.0254732475347774e+00 1.3269848219182199e+01 7 4 -4
371 2 1.6735851054842335e+01 7.6144082866863583e+00 1.2641309765712025e+01 9 4 -1
50 2 1.4179854779904371e+01 7.3013892437891990e+00 1.2804493514866685e+01 7 4 -4
370 1 1.6059118938540287e+01 7.8073069043329753e+00 1.3321516513621170e+01 9 4 -1
74 2 1.3995305278131164e+01 8.0559235482437082e+00 9.5212646805563690e+00 6 -1 -3
454 1 3.0280559162984169e+00 2.1618712269690632e+00 1.3390600079564845e+01 0 0 -1
455 2 3.5461081407372292e+00 2.8670286824048787e+00 1.3855573742901134e+01 0 0 -1
479 2 1.0565800255998257e+00 4.3864835476244641e+00 1.7069365294502557e+01 -1 -1 -2
221 2 2.2400152901451067e+00 1.7099595883665397e+00 1.6676368796530156e+01 1 2 5
61 1 7.9926684562869821e-01 1.1120840072692539e+00 1.5635915781202952e+01 3 -2 0
220 1 3.1122367121975634e+00 1.6705780767991847e+00 1.7114741649200003e+01 1 2 5
378 2 4.3264194642379170e+00 1.9069676854201136e+00 1.6033326948571453e+01 -4 -4 -2
63 2 1.4143681087225319e+00 4.7628977182577914e-01 1.5274583092627472e+01 3 -2 0
441 2 3.4490263982337783e+00 2.9964253564365129e-01 1.4709993500237999e+01 6 -1 1
409 1 6.6468770353272504e+00 3.0477040090481275e+00 1.3583185003215760e+01 0 0 0
332 2 8.0267526335803154e+00 3.1553395812484091e+00 1.4498604985694826e+01 0 -1 -7
377 2 5.3709162975717266e+00 9.3728693363537441e-01 1.5295795662076420e+01 -4 -4 -2
376 1 4.8385600885629012e+00 1.7307787040968972e+00 1.5182373611562797e+01 -4 -4 -2
279 2 6.1610130801858292e+00 2.8888243295932958e+00 1.6522837748261740e+01 -2 0 3
411 2 5.8121233327304971e+00 2.6645316925537772e+00 1.4051055428717364e+01 0 0 0
333 2 8.1805442515631377e+00 2.9852076663458633e+00 1.6061385878944613e+01 0 -1 -7
277 1 6.7726333896206432e+00 3.3460318496924781e+00 1.7108002480863256e+01 -2 0 3
331 1 8.7019693692717173e+00 2.9300925237117417e+00 1.5257339331081688e+01 0 -1 -7
46 1 1.0725424358269272e+01 1.6859168088484606e+00 1.6856029172063845e+01 3 0 0
48 2 1.0171907922199095e+01 1.2001496456105398e+00 1.6188505189159937e+01 3 0 0
65 2 1.1413834490382712e+01 9.2983492249230537e-01 1.4054685793591466e+01 1 -3 -1
363 2 1.1988593070434197e+01 4.1164442588867960e+00 1.6486018120720196e+01 -9 1 -6
486 2 1.0256877097320160e+01 3.9242956630063408e+00 1.4979618945406054e+01 -4 2 -1
484 1 1.0997964012437627e+01 4.4851093290515376e+00 1.4598547639046268e+01 -4 2 -1
47 2 1.1297802217054643e+01 9.5603167002263256e-01 1.7186242805368110e+01 3 0 0
62 2 1.7420010265471312e+01 1.5973462853060207e+00 1.4847732962484677e+01 2 -2 0
540 2 1.3743413237670152e+01 1.2147314445823705e+00 1.5411458249613410e+01 9 6 0
362 2 1.3406273131485397e+01 4.1911257630753820e+00 1.7164833527628925e+01 -9 1 -6
159 2 1.4535602852307706e+01 1.6912664042059147e+00 1.3487056937981663e+01 -4 4 -9
447 2 1.6873101053666751e+01 5.4569402467723438e-01 1.6936296498185779e+01 -1 3 5
538 1 1.4610924883778425e+01 1.4064722505180691e+00 1.5206753710299816e+01 9 6 0
4 1 1.4980763668854209e+01 3.1674007668788917e+00 1.7074165541321982e+01 2 3 -4
366 2 1.6154938065126437e+01 3.0572292023184517e+00 1.3396509146735431e+01 0 5 -3
364 1 1.6724884022229205e+01 3.5878895757325924e+00 1.3990429559625039e+01 0 5 -3
539 2 1.4911992205686280e+01 2.1401400667494950e+00 1.5794752579654578e+01 9 6 0
365 2 1.6149604634364742e+01 4.1773321714001188e+00 1.4452192511032580e+01 0 5 -3
6 2 1.5800684302155814e+01 3.7080369563368989e+00 1.7246777776159917e+01 2 3 -4
17 2 3.2422446506583165e+00 5.6693679728063566e+00 1.7452422001353138e+01 5 0 -6
98 2 3.2275663126926424e+00 8.2265150303200905e+00 1.5026145274122184e+01 -3 2 2
466 1 3.7340479117491174e+00 4.5868658184810593e+00 1.3935096057929371e+01 1 -2 -3
516 2 1.0886089891855040e+00 5.6232385894229946e+00 1.5709646080397349e+01 4 4 -3
515 2 2.6036669960520245e+00 5.4965683618223302e+00 1.5224244304997381e+01 4 4 -3
514 1 2.0178883583224083e+00 5.7316852667225824e+00 1.5989203084347748e+01 4 4 -3
97 1 3.7321546154873029e+00 8.3401518275796409e+00 1.4183894708404672e+01 -3 2 2
468 2 4.5671370481670817e+00 5.1239420479483861e+00 1.4004027325907547e+01 1 -2 -3
569 2 6.4001043370993678e+00 5.0897103409422710e+00 1.7015750142201558e+01 -1 -2 -7
568 1 6.0748416651456765e+00 6.0153131651868348e+00 1.6805042068371350e+01 -1 -2 -7
83 2 5.2587029192621442e+00 7.3672460719170276e+00 1.4168299555263474e+01 1 -2 3
84 2 6.8137570085296755e+00 7.0535419757222684e+00 1.4045629218546132e+01 1 -2 3
570 2 6.1519016761661041e+00 6.3092870639421701e+00 1.5852494516037167e+01 -1 -2 -7
82 1 5.9571754465637428e+00 6.6616952973500503e+00 1.4053390181408270e+01 1 -2 3
400 1 8.6196029089983668e+00 6.8964884665805126e+00 1.4008153491077517e+01 -2 6 -4
402 2 8.8877877618749110e+00 6.6779169159737890e+00 1.4926630554363093e+01 -2 6 -4
214 1 1.2057615787820176e+01 7.8627910275087922e+00 1.6169842501251118e+01 1 -8 2
487 1 8.9745965712195588e+00 8.6310000432891716e+00 1.7411040744517866e+01 -5 0 -5
401 2 9.2480742782257774e+00 7.5497277293738509e+00 1.3617997954624260e+01 -2 6 -4
215 2 1.1238705696129303e+01 7.3923480669436934e+00 1.6305114873334844e+01 1 -8 2
361 1 1.2500248948577459e+01 4.5231159961854095e+00 1.7216114467082640e+01 -9 1 -6
216 2 1.2283366670584588e+01 7.9074555450864636e+00 1.5221001881974438e+01 1 -8 2
485 2 1.0713687963859185e+01 5.3558256065502414e+00 1.4964344434141074e+01 -4 2 -1
503 2 9.5337792178242839e+00 5.6710955891836736e+00 1.7154166656159017e+01 -2 4 3
504 2 9.4076158852717402e+00 7.2858381850479326e+00 1.6895800707157644e+01 -2 4 3
502 1 9.7855894607836973e+00 6.3984942270413461e+00 1.6487473357151021e+01 -2 4 3
347 2 1.3779980515660371e+01 6.8227393640471856e+00 1.7004636539502016e+01 -4 3 -3
126 2 1.6110669381460518e+01 6.4486955747904471e+00 1.4408660577820719e+01 2 -4 5
348 2 1.5136987158502544e+01 7.5033834470109753e+00 1.7233175186089671e+01 -4 3 -3
124 1 1.6112336811137496e+01 5.8526902201172222e+00 1.5184184260548193e+01 2 -4 5
125 2 1.5617934722268506e+01 6.4391008787096586e+00 1.5847822566647793e+01 2 -4 5
372 2 1.6113509148237640e+01 8.7279937582267682e+00 1.3588166844212489e+01 9 4 -1
142 1 1.6445557794692828e+01 8.6060848478542944e+00 1.6956236134843156e+01 -2 -2 1
346 1 1.4582563570165625e+01 6.7528711780579433e+00 1.7533547510344633e+01 -4 3 -3
523 1 1.7652098774830178e+00 1.0541256110172890e+01 3.4737050013311461e+00 1 3 -1
525 2 1.7594024542376636e+00 1.1471812173595028e+01 3.1454984363605538e+00 1 3 -1
254 2 3.0674414659310214e+00 9.9936315829528741e+00 2.6174514427345752e+00 -5 2 -2
253 1 3.6079478027381153e+00 9.6018040083737510e+00 1.8703218408272797e+00 -5 2 -2
120 2 3.7288860913476811e+00 1.2881491401264874e+01 1.6736660074463656e+00 2 -3 1
524 2 1.7108820460992298e+00 1.0681372005716039e+01 4.4493437683115529e+00 1 3 -1
421 1 1.9380689816517094e+00 1.2052311724739301e+01 8.1115730771159367e-01 0 4 4
461 2 5.4696792259552227e+00 1.1902636815601225e+01 3.8601480283569689e+00 -1 7 3
460 1 6.1684500309662091e+00 1.2270318007442809e+01 3.2449605998934072e+00 -1 7 3
230 2 8.0088669067406819e+00 1.1596639292260978e+01 2.3720052188610801e+00 1 4 3
462 2 6.7360344167913011e+00 1.2870756739946172e+01 3.7647577144632924e+00 -1 7 3
11 2 6.0566601098239099e+00 9.1744434274600746e+00 7.8721747270153530e-01 10 -1 4
554 2 4.9878163971816374e+00 1.0555958032192100e+01 6.7850640927921879e-01 -2 6 8
236 2 6.8657921151486025e+00 8.8756453819526619e+00 3.2189482672648233e+00 0 0 0
235 1 6.4379524796640109e+00 8.7903504943892408e+00 4.0897761180204970e+00 0 0 0
229 1 8.9755610275829767e+00 1.1721189201497040e+01 2.2408595700695706e+00 1 4 3
398 2 1.3148483488542645e+01 1.2902439856147936e+01 1.4271046581347104e+00 2 2 2
231 2 9.3818460092767886e+00 1.0954510572930413e+01 2.6807139670047064e+00 1 4 3
127 1 1.2627925071864514e+01 1.0684040145624275e+01 4.0793824378480608e+00 -2 -2 0
238 1 1.0123277723859978e+01 9.7027180695481796e+00 3.6334187974783303e+00 -3 -6 -5
128 2 1.2745863051044788e+01 1.1590445689155114e+01 3.7338760967160662e+00 -2 -2 0
397 1 1.2738047427373951e+01 1.2666101252625468e+01 2.3235123402147471e+00 2 2 2
239 2 1.1062649918816257e+01 1.0054116954112461e+01 3.6471597574165040e+00 -3 -6 -5
240 2 1.0119607716848471e+01 8.7943366426861438e+00 3.3364979831162378e+00 -3 -6 -5
150 2 1.2394319806347330e+01 1.0443629196500920e+01 7.6948552600023667e-01 -2 -4 -2
173 2 9.5192493814295247e+00 1.2803862996227489e+01 3.2804767054954249e+00 1 -5 2
174 2 1.0065343924866212e+01 1.2680297939800187e+01 4.7496802672890537e+00 1 -5 2
297 2 1.7390538852433970e+01 9.3733440371609760e+00 3.2661870312810968e+00 0 -4 1
144 2 1.6273774257243979e+01 9.1129526733565900e+00 7.8272254218396053e-01 -2 -2 2
129 2 1.3240366859194888e+01 1.0187428569914976e+01 3.4895737069428918e+00 -2 -2 0
87 2 1.5801503222658269e+01 1.2730185901474810e+01 2.9311280123198609e+00 -2 3 1
481 1 1.4536884554624956e+01 9.7132905396355298e+00 2.2786676795156069e+00 -6 -2 8
482 2 1.5287801102056358e+01 9.2715180975803282e+00 2.7002835813603649e+00 -6 -2 8
483 2 1.4928378858079467e+01 1.0599436465468438e+01 2.1448712884312275e+00 -6 -2 8
358 1 1.6120982518805931e+01 1.1797096804985376e+01 1.3590204407640829e+00 1 1 5
360 2 1.5482144499118176e+01 1.2352077322145764e+01 7.8477727605812753e-01 1 1 5
359 2 1.7002068052875131e+01 1.2152647469221947e+01 1.2147074132240392e+00 1 1 5
442 1 2.5046394094429112e+00 1.3517829788936274e+01 4.0673889463608361e+00 -5 -2 -4
449 2 2.5383158067018634e+00 1.5710103201066598e+01 1.2000744914656054e+00 1 1 -3
118 1 4.3328948085926022e+00 1.3622568823217447e+01 2.0063173096664126e+00 2 -3 1
443 2 3.1911043338912135e+00 1.3585362814195364e+01 3.2991386260198996e+00 -5 -2 -4
444 2 1.7225647849453500e+00 1.3996928364148301e+01 3.6409664521814902e+00 -5 -2 -4
576 2 7.3770149779060579e-01 1.5157303271206350e+01 2.2925760460092111e+00 0 3 -2
448 1 1.7297344053767540e+00 1.5241586075901600e+01 8.8263826471603868e-01 1 1 -3
574 1 5.1228852887410758e-01 1.4981686710688866e+01 3.2244694079927427e+00 0 3 -2
543 2 4.5759818509438421e+00 1.6313529092547903e+01 2.5673831973906838e+00 3 0 5
541 1 3.6480193527299809e+00 1.6637210969177602e+01 2.3478292431231047e+00 3 0 5
450 2 9.4462820342055975e-01 1.5875147689330509e+01 8.4404396441681884e-01 1 1 -3
119 2 5.1775492580718767e+00 1.3179981624062190e+01 2.3086703647655051e+00 2 -3 1
551 2 6.4492531766539338e+00 1.6712310548003899e+01 3.5251528835574111e+00 3 -3 7
550 1 5.7531453610931909e+00 1.6184237414942153e+01 3.9725866048497154e+00 3 -3 7
552 2 6.1086057745032765e+00 1.5346037043162196e+01 4.2264699092579461e+00 3 -3 7
536 2 8.2645299990244254e+00 1.6420592321014468e+01 2.1424031859732624e+00 2 -2 -4
535 1 8.2873580956517934e+00 1.7048062158765795e+01 2.9183180128899990e+00 2 -2 -4
337 1 7.3126321950856470e+00 1.4152987902001998e+01 4.7887589055385709e+00 2 -1 6
338 2 8.2580988617370110e+00 1.4161206008254211e+01 4.4679821720955504e+00 2 -1 6
197 2 1.3156889582163210e+01 1.6506425794758272e+01 9.9716273030801794e-01 -1 -9 -3
537 2 8.9859261126954841e+00 1.6682648962405814e+01 3.5976295085201313e+00 2 -2 -4
518 2 9.2339905091542018e+00 1.4997652075729857e+01 8.3099033319374171e-01 2 1 -5
172 1 9.9489245343002324e+00 1.3353016506641795e+01 4.0399143547413798e+00 1 -5 2
286 1 1.0357929239403919e+01 1.6070118255442317e+01 4.5191781300750238e+00 4 -4 0
42 2 1.1501352566317980e+01 1.5658812035371550e+01 1.4282141643278090e+00 -3 -2 3
41 2 1.0668318690611997e+01 1.5149193352938978e+01 2.7284487033028291e+00 -3 -2 3
40 1 1.0907653938416077e+01 1.4943945287338460e+01 1.8161190443376380e+00 -3 -2 3
287 2 1.0185134439187246e+01 1.5120619693475248e+01 4.5563489526384355e+00 4 -4 0
399 2 1.2016451468973100e+01 1.3405545968201984e+01 2.4183871382928732e+00 2 2 2
445 1 1.6738439355140933e+01 1.7082949811116492e+01 8.4590331034652011e-01 -1 2 6
414 2 1.5389593205638132e+01 1.6312309450697207e+01 1.4296861039069950e+00 -3 1 2
85 1 1.5459883982469076e+01 1.3266864279232568e+01 3.7026085832739821e+00 -2 3 1
86 2 1.4528273886070011e+01 1.3411303280012895e+01 3.4126666147424789e+00 -2 3 1
39 2 1.3381443057451706e+01 1.5084887194488866e+01 4.4949282110833311e+00 -6 -7 -3
38 2 1.4468384138425092e+01 1.6193940734259463e+01 4.5720326738972723e+00 -6 -7 -3
575 2 1.6592556690515295e+01 1.4612557181491441e+01 3.2541145102642721e+00 -1 3 -2
37 1 1.3739098528795560e+01 1.5866631935692933e+01 4.0074651851479501e+00 -6 -7 -3
248 2 1.6685561604092236e+01 1.6062865947403715e+01 4.7110616227769517e+00 -3 3 5