LAMMPS data file via write_data, version 8 Apr 2021, timestep = 4648000

972 atoms
2 atom types

0.16525015880425484 19.82580284118441 xlo xhi
0.16899108853395894 19.82206191147638 ylo yhi
0.11394056421969037 20.68683143580271 zlo zhi
-0.27449575510801005 0.09770931232797293 0.23365976203097452 xy xz yz

Masses

1 16
2 2

Atoms # atomic

400 1 17.66638972121095 1.672960037379201 10.139977280768024 0 0 0
4 1 4.125060480758133 1.5307150787063954 3.2536973006265346 0 0 0
5 2 3.965415507618473 2.521139371981859 3.3929108816689104 0 0 0
435 2 1.9772570764614672 9.095773471745055 7.977838182076824 0 0 0
7 1 6.071830457454775 4.674673500588488 5.84538347717377 0 0 0
8 2 6.942273284281618 4.75640027130773 5.38312508897753 0 0 0
9 2 5.426969127489458 4.525373862615495 5.1815119889261405 0 0 0
10 1 1.2440711211576563 4.186855313352863 3.9410569049541926 0 0 0
12 2 0.9843307838789512 4.943880030996002 3.2905750048928817 0 0 0
13 1 4.820866962445641 5.897383171909387 1.7519090686122316 0 0 0
14 2 4.670935346086968 6.805350183957613 2.0303219147513656 0 0 0
16 1 4.021296505845156 4.244749867980939 3.767686032170673 0 0 0
17 2 4.314247022427044 4.853118309374207 3.02787254807031 0 0 0
18 2 3.0362531614301274 4.4081429002477135 3.888934289764246 0 0 0
24 2 2.4400902660370942 1.5965391222102445 5.661212094547201 0 0 0
25 1 2.720660008363907 5.465449108154738 6.757221313292257 0 0 0
26 2 2.631151484322767 6.100692774286473 6.042634735518699 0 0 0
27 2 3.6050370052029823 5.567288554508169 7.188547001875452 0 0 0
102 2 18.590624964826958 0.7021867545257001 4.7876035776141 0 0 0
19 1 0.8440482700497973 5.851051469634017 1.981104135023432 0 0 0
35 2 6.125620334791209 2.7777994857639627 1.0304027727450848 0 0 0
46 1 8.082114887578557 4.184042935396778 4.038258951842651 0 0 0
48 2 7.776391900311671 4.856025113946347 3.394742320744822 0 0 0
55 1 7.450058222507396 6.2018198968836185 2.012929459810064 0 0 0
56 2 7.529901006313109 7.171677725980654 2.1890123705916116 0 0 0
57 2 6.576907982016161 5.93957589293756 1.7161814016122272 0 0 0
63 2 8.564732781095296 5.863643488498757 7.417733313622027 0 0 0
67 1 7.288395502835328 2.3391877850415557 2.1089987356813693 0 0 0
68 2 7.417518739349087 2.835028160811775 2.9554857094737694 0 0 0
69 2 8.069061860851164 2.585926851402603 1.5712377584920643 0 0 0
112 1 4.302536238190123 8.202660893399935 3.433264788194344 0 0 0
113 2 5.079288329313214 7.931415771635891 3.9035112442282074 0 0 0
114 2 4.378491298247782 9.271232707077667 3.5079092131249703 0 0 0
130 1 2.3433379185881327 7.555096786278378 5.014774016116274 0 0 0
131 2 2.8702549436379705 7.908512324447374 4.233169754987627 0 0 0
132 2 2.445232119063861 8.209098815605902 5.697406185712349 0 0 0
136 1 6.330931656321583 7.5674895147154295 5.451059689877264 0 0 0
137 2 6.272515873601517 6.618808149580412 5.690383745789379 0 0 0
138 2 7.2663207894990265 7.766607930947659 5.467549849532813 0 0 0
166 1 8.940060059247447 7.824393199241006 5.340677334603684 0 0 0
167 2 9.28807647202939 8.530857590575653 5.9679115367668265 0 0 0
175 1 7.508959156770156 8.85024197770343 2.322738667028165 0 0 0
468 2 4.213456201277609 9.000707955104241 7.390629670652522 0 0 0
6 2 3.223182858536019 1.0842548607956686 3.3714833606464976 0 0 0
325 1 3.0082273822684953 2.681897269741229 6.880950381694813 0 0 0
326 2 3.0053467771111966 3.57367014227265 6.614770586114207 0 0 0
327 2 3.9638247172487766 2.4372508509217914 6.938216185211028 0 0 0
337 1 5.033146362455601 5.9423052938547665 8.50829961041024 0 0 0
338 2 4.858070859318403 5.068425012580214 8.94487152932226 0 0 0
339 2 4.7339904163581075 6.668154218518453 9.102109186349464 0 0 0
58 1 8.826426645754646 1.038578051584862 5.24530998821047 0 0 0
30 2 5.42600697609482 1.1730933519704787 4.46375912052042 0 1 0
345 2 1.454648517788273 5.709762572768472 8.030056838557748 0 0 0
357 2 1.8711773956181845 2.413906597332341 8.389953472398098 0 0 0
358 1 5.890604883623494 2.44073538291326 7.233448863950906 0 0 0
359 2 5.831918581118355 3.2579676274217944 6.710576315892622 0 0 0
360 2 6.091407676453554 1.7333799088735447 6.580204010955954 0 0 0
363 2 8.87138161117734 2.666588132578309 7.887908546933463 0 0 0
379 1 7.636328269669496 6.303030889043082 8.668137522694005 0 0 0
380 2 7.8010214558400595 7.2472144410612245 8.889662164355503 0 0 0
381 2 6.634660742668591 6.13360126943928 8.514346536998184 0 0 0
391 1 7.511096760421034 2.167472520157661 9.13741355516208 0 0 0
393 2 6.72455615254678 2.468370195130303 8.515094480594875 0 0 0
467 2 5.648901265693185 8.50330020105722 6.70613091449467 0 0 0
499 1 7.6515074889771535 9.087760480773005 9.002394861881319 0 0 0
11 2 0.7830455201385742 4.443114017173557 4.74082043120229 0 0 0
111 2 2.3455704674126117 8.849740002452673 0.9805253613889188 0 0 0
392 2 7.858011296949108 2.940939788484254 9.6300285599654 0 0 0
503 2 11.199400555212732 9.421029918447903 7.282776405384659 0 0 0
15 2 4.170039770258733 5.719047303977343 1.024131590838178 0 0 0
59 2 9.524686767239666 1.045219657197762 4.516688588514304 0 0 0
362 2 9.219776818072209 2.0602713012246117 6.506481079439822 0 0 0
502 1 12.159316783903346 9.38571768200276 7.144773058041533 0 0 0
466 1 5.204535756034417 9.097552988650003 7.428893925435071 0 0 0
505 1 16.22196575555716 9.238867387084678 6.875979327895564 0 0 0
33 2 0.9351202540155169 2.6220913469220863 3.0915815912383384 0 0 0
182 2 16.57945390105783 8.965717293594123 0.6587077048258028 0 0 0
471 2 8.869376011040073 9.616361475757333 7.760493433176243 0 0 0
47 2 9.048592811361837 4.08452107046614 4.058628789368778 0 0 0
463 1 0.8645792469414084 8.463044101902652 9.290092892969236 0 0 0
140 2 1.1976694252105144 9.608101353054629 2.60710435246857 0 0 0
365 2 11.190825584046099 0.8187659441361403 9.443156460352498 0 0 0
143 2 4.484199747515192 9.254098417195122 0.24711989885507013 0 0 0
41 2 11.645610627321524 0.8770550894811042 4.019979558014093 0 0 0
22 1 2.08037914259806 0.9151294775262343 5.076280090630436 0 0 0
77 2 17.49490931613849 0.8728640909496391 2.58758854390973 0 0 0
94 1 15.436935983020629 1.0671555242231356 5.095135319282272 0 0 0
96 2 15.980128632891105 0.9797666567523111 4.287157455836548 0 0 0
66 2 13.681555656585763 0.8399285903286959 5.043437026342972 0 0 0
100 1 19.13532942206063 0.5630915010069921 5.575258342020433 0 0 0
329 2 4.554284083033937 0.48997096070906215 9.618563014059642 0 0 0
633 2 14.18896456221258 0.3853100466020021 8.727703091402155 0 0 0
401 2 17.72598635559033 1.028023166099234 9.422496014852298 0 0 0
60 2 7.955824736853004 1.1055651906607298 4.919660081057247 0 0 0
472 1 10.631373340551447 8.225221494929372 10.368348656760531 0 0 0
61 1 9.369470934993991 5.570386537098894 6.827396117440868 0 0 0
343 1 0.7926112919902519 5.957129456410642 8.682152873158268 0 0 0
31 1 0.7607501497531726 2.146234792176412 2.260189929970246 0 0 0
501 2 6.786913970458239 9.123034300171833 8.554322007411583 0 0 0
62 2 9.425159030631372 4.604462789969056 6.771991788919588 0 0 0
32 2 19.59850106069725 2.4092684686542554 1.7542544527177404 -1 0 0
3 2 2.098518711086319 2.5913852936458226 1.1212841130815852 0 0 0
139 1 0.8700803478284811 8.823507643297637 2.1273410363524423 0 0 0
413 2 17.337021871432718 3.3250455874757128 10.057553513567687 0 0 0
210 2 0.48690449227835764 7.541890690626262 4.852549544584317 0 0 0
465 2 0.8031422275980089 7.476454221288594 9.24690407148755 0 0 0
355 1 1.1735413327497008 2.0962064597282852 8.967358807900968 0 0 0
20 2 0.9430179124267511 6.791027807139719 2.311860924022992 0 0 0
28 1 6.227171203162969 0.9274203003946132 5.104817727196764 0 0 0
168 2 9.267264106004342 7.01045171285091 5.799981922534639 0 0 0
272 2 7.9173720199205055 0.613066075989626 2.129319994576348 0 0 0
500 2 7.7793084115807 9.903185889633079 9.599952092954213 0 0 0
356 2 1.1141598658258465 1.1268884209463368 8.742122082898447 0 0 0
150 2 9.910774970050376 7.592071752822947 3.728438821604028 0 0 0
361 1 9.516999894892317 2.802629150324922 7.102978161196861 0 0 0
180 2 10.899874305865056 8.901128992051147 0.27349666231982817 0 0 0
504 2 12.585287892122707 9.203936803519344 8.00822119059384 0 0 0
141 2 19.681181867192294 9.064540590641876 1.697252604608708 -1 0 0
75 2 14.965378811017633 2.5292056658366784 0.779765110332232 0 0 0
536 2 15.162368680360306 9.126874159849466 8.933442708029107 0 0 0
214 1 18.314383651513932 8.968113392986622 0.4651789405178011 0 0 0
149 2 10.91267679509001 6.799443958192704 2.741014194733584 0 0 0
52 1 10.88014729131927 3.726637899787574 3.7428856595153586 0 0 0
191 2 14.353483463376712 9.892629896658557 3.2569201430509964 0 0 0
509 2 17.7002333123308 7.657943878229303 9.34352073051938 0 0 0
106 1 18.211914340476923 2.3850124664569776 0.5457627240098857 0 0 0
408 2 14.26470213754688 3.545944819909558 9.994897749805205 0 0 0
54 2 10.89179432478102 2.7356955013308824 3.5939028316702837 0 0 0
212 2 14.531730480367568 8.938363989407092 1.3374455938840375 0 0 0
747 2 15.113893233870057 5.360144929796826 0.5194944505000535 0 0 0
148 1 10.598343081717086 7.699065828897795 3.06375366888936 0 0 0
211 1 13.9383717333722 8.688531632815431 2.1536493649608275 0 0 0
508 1 17.461195433297803 8.355218162169885 10.032838375815277 0 0 0
366 2 11.05062726679518 2.322330449959657 10.066878654137358 0 0 0
142 1 5.465518179918499 9.38723560429879 0.4348288720944841 0 0 0
79 1 18.647513325954662 5.180979525016468 5.870299499511956 0 0 0
432 2 19.508893527382355 2.6553659284787474 7.661398161352433 0 0 0
181 1 15.628170331678033 9.008287781731873 0.3579946342203162 0 0 0
64 1 12.766145708938716 0.6796199522486811 5.3690555598450915 0 0 0
522 2 17.193940676201606 10.046709589311796 10.177479265220951 0 0 0
86 2 17.251693339590105 5.723101137896048 0.7631162079515963 0 0 0
535 1 14.271528612128014 8.897985950679288 9.32391090288443 0 0 0
431 2 18.916884269071012 3.8060680443371484 6.749255074223319 0 0 0
537 2 14.021668253389423 7.977825375736466 9.030521723882606 0 0 0
176 2 7.734998591143374 9.444988160970045 3.0722393743147967 0 0 0
40 1 10.871394022028243 1.0391508785508208 3.4569287156159354 0 0 0
335 2 0.9892616700914152 3.5417212799864255 10.280653961331367 0 0 0
506 2 15.541765605034195 8.58892247120515 6.518246196960487 0 0 0
43 1 12.749347164966014 4.690895551598664 5.604292177283764 0 0 0
44 2 12.50148292115956 5.66349016114228 5.674842434306049 0 0 0
45 2 12.756867097832973 4.213020211963611 6.423141079277186 0 0 0
49 1 11.369435325425709 5.425911135551243 1.7325709506780658 0 0 0
50 2 11.187733720177267 4.637622351810007 2.248730199233392 0 0 0
53 2 11.545200107126679 3.915830290917131 4.398202586705073 0 0 0
540 2 17.744456017993645 9.105085756867238 7.353263982532916 0 0 0
71 2 12.472547491826168 2.595194352320122 1.1393261650521809 0 0 0
539 2 19.193440007977852 8.81658614929852 6.731541169772318 0 0 0
76 1 17.25384438918427 1.201315800011752 3.4626830374566304 0 0 0
78 2 17.236741616243346 2.216199654713667 3.417397833943515 0 0 0
80 2 18.16463189374517 4.8359358518678395 5.053821265078274 0 0 0
344 2 0.9082000954983183 5.3242781317312255 9.379678866932517 0 0 0
82 1 14.53348005613308 4.138504621096901 3.5803126675671044 0 0 0
83 2 14.340847387307797 4.5369146022676805 4.416411466206831 0 0 0
84 2 14.422945350627387 4.820687420014714 2.877124958396902 0 0 0
85 1 17.908355062245008 5.953846652126873 1.4274015287289308 0 0 0
87 2 17.56033482024338 6.757687441702211 1.8543271328850262 0 0 0
88 1 17.330813403581544 4.093161698259296 3.3616880662193322 0 0 0
89 2 17.4608877953471 4.807350995394221 2.720804867074846 0 0 0
90 2 16.361093375244568 4.190245946240478 3.5467961460604567 0 0 0
91 1 13.94684559984501 5.879529801820461 1.5992659055978475 0 0 0
92 2 14.128045632243769 6.798837877556798 1.56077932269325 0 0 0
93 2 12.96087970569682 5.792593300116993 1.5322409970532525 0 0 0
97 1 15.837649603615262 5.4292742356475845 7.051636371953221 0 0 0
98 2 16.73493924292769 5.664721867983036 7.429314862070401 0 0 0
99 2 15.74075988126776 4.46311029032428 6.990247621316472 0 0 0
103 1 13.653393752915363 2.360807512537007 2.0867220253523837 0 0 0
104 2 13.896566209982913 2.918343264774957 2.847518923244594 0 0 0
105 2 13.80101341920854 1.4172597137157172 2.2101150728887156 0 0 0
412 1 17.165013630771483 4.276913612972673 10.2840261510066 0 0 0
473 2 10.699527497133207 7.625773211764097 9.591306891909861 0 0 0
414 2 16.15265861929653 4.377683094566293 10.351169081334342 0 0 0
172 1 12.391479839615672 7.385590514490404 5.200260116858783 0 0 0
173 2 12.148952410681616 8.085794784040594 5.844390271854706 0 0 0
174 2 11.890677150093989 7.551890898285298 4.3725417999964336 0 0 0
184 1 17.279234432260875 7.680187045820293 3.4726146002216045 0 0 0
185 2 17.339624569548164 8.654187014921213 3.3787764043190336 0 0 0
186 2 16.518733170661555 7.565409243686342 4.057151500137021 0 0 0
202 1 15.286532171124461 7.062633756389587 5.069073316071095 0 0 0
203 2 14.351006762575711 7.2911586345445425 5.016210709393598 0 0 0
204 2 15.403922885303642 6.421795796731828 5.816992920550748 0 0 0
34 1 5.281312437036658 2.9011768132648923 0.5142507889922654 0 0 0
209 2 18.633593478684798 7.881317538979923 4.7463621500260675 0 0 0
213 2 12.979522558205058 8.712209299704545 1.9102500326786478 0 0 0
373 1 11.142718669565483 6.2533870901003 8.558988897871636 0 0 0
375 2 12.095466851326186 6.1948688380515975 8.333360583723731 0 0 0
394 1 12.096528121811263 2.6168460701631298 7.188010140277484 0 0 0
395 2 11.112800896956049 2.603476885287102 7.290945203406918 0 0 0
396 2 12.148076044553424 1.9330606154981502 6.489119568816468 0 0 0
397 1 16.054346106291558 2.857755306229552 6.951067110341275 0 0 0
398 2 17.028689670236425 2.92936029224748 7.170950512294608 0 0 0
399 2 16.010114278798696 2.2507159267425663 6.180281440374795 0 0 0
538 1 18.720317264132163 9.343817114480828 7.44161337348748 0 0 0
409 1 17.8435090218362 6.2119543509510935 8.425606222444387 0 0 0
410 2 17.6274976989098 5.461081091211944 9.101016542520496 0 0 0
411 2 18.84249249381447 5.993551520179958 8.338790912283724 0 0 0
415 1 13.827333940323623 6.279592673257843 8.793047742939855 0 0 0
416 2 14.499437839061795 6.125386840199311 8.074959097536288 0 0 0
427 1 14.160670806726449 2.1830865507885506 8.862778335322037 0 0 0
428 2 13.386500998740289 2.343092421974854 8.294145060621078 0 0 0
429 2 14.834063416852958 2.214863236921458 8.165909989816573 0 0 0
430 1 18.826282548335527 2.826906296556262 6.998636787974476 0 0 0
417 2 14.137037707106355 5.568822931142504 9.505029344049143 0 0 0
675 2 2.0382136177531813 5.716951794195031 0.6186533284244559 0 0 0
178 1 11.835976594567725 9.033027419054852 0.3151767309814198 0 0 0
464 2 19.728892350852643 8.727234273866719 8.829707581151936 -1 0 0
374 2 10.520339758772106 5.942595853249155 7.860917438155001 0 0 0
42 2 11.006339145908475 0.4901946875100757 2.649070221572289 0 0 0
23 2 1.1102502953944646 0.7826182064702895 5.189066849919139 0 0 0
101 2 19.063041041039007 1.4002048609537028 6.066453285800122 0 0 0
1 1 2.566371233192325 2.708345766488827 0.28917044332463226 0 0 0
208 1 19.34752845529414 7.5620353442105825 5.381288955802096 0 0 0
433 1 2.4625786365374904 9.24532652161388 7.166694399516137 0 0 0
81 2 18.945547751154844 6.066837006752042 5.656929203314114 0 0 0
21 2 19.56953376857309 5.871497314788477 1.667442993729401 0 0 0
177 2 6.634157784389415 9.145349269674744 2.0922237356910385 0 0 0
51 2 10.69809769587459 5.470476859516188 0.9893355935007844 0 0 0
147 2 8.512087627747219 9.301261772266457 1.0062184749712393 0 0 0
145 1 9.192695972333215 9.322413614724413 0.2675010172790348 0 0 0
70 1 11.78224073375952 2.7138130054836056 0.477215773602847 0 0 0
364 1 11.22096089730297 1.4368417441120211 10.247829892978062 0 0 0
469 1 9.480617451057023 9.909451338523011 7.023480380228005 0 0 0
378 2 11.13522713654124 4.84849468509568 9.839490257756376 0 0 0
2 2 3.443938234478116 2.8331576927937494 0.5623837899775584 0 0 0
38 2 10.113988757356768 2.8468337088500113 0.37476719595174895 0 0 0
437 2 4.16023371145157 9.065119803007896 10.309546118488665 0 0 0
162 2 10.266544468060312 9.776109974384019 2.7469262429289225 0 0 0
710 2 8.70076254429599 5.925932590022746 0.7512880616311778 0 0 1
372 2 8.034920455003581 5.26177775844975 9.981708498025345 0 0 0
37 1 9.139185010140109 2.9002047077743756 0.2995951877088383 0 0 0
109 1 2.7987128760720745 9.109748163509726 0.1857883567591714 0 0 0
236 2 0.8591525297927066 0.5723821168790288 2.1199123135628297 0 0 0
443 2 1.129913525774223 10.063513002908458 10.34523455455698 0 0 0
231 2 5.022811802166686 0.6722907309624455 1.3546425837455536 0 0 0
95 2 15.608981912807312 0.24206788013506725 5.593666672183622 0 0 0
73 1 15.692656735496598 2.6935752577793486 0.16778885417401812 0 0 0
74 2 16.54865557317544 2.3404078002637063 0.4960262141022439 0 0 0
596 2 7.797021984781603 0.2903182479047783 9.044178691238612 0 0 0
331 1 6.121707328284251 4.614257969877189 12.134559406031865 0 0 0
332 2 6.9094348701175905 4.501706336224743 11.598675746093898 0 0 0
333 2 5.251411662345021 4.441925497264808 11.67740108801258 0 0 0
748 1 19.052036135541098 0.6568350546219317 19.45932105432669 0 0 0
348 2 2.688932720344609 1.7786702155018992 12.601388251455182 0 0 0
349 1 2.2277054415260276 5.6920900302866535 13.636932275588814 0 0 0
350 2 1.9288152315213425 6.13534941523733 12.823445425913 0 0 0
351 2 2.4080095732560967 4.7720334817746926 13.40222551822986 0 0 0
656 2 5.993808667202688 6.061724205236049 19.312705571449964 0 0 0
387 2 8.335943857750124 5.919494274252528 14.470444921192462 0 0 0
454 1 2.00817482792353 8.122760824619846 11.975225759916748 0 0 0
456 2 2.1700099202994902 8.658229214639812 12.77489929761758 0 0 0
460 1 5.584365331657932 7.435619392846807 12.633293520506571 0 0 0
461 2 5.630094370739278 6.414048463925414 12.65680974646458 0 0 0
462 2 6.589896148481703 7.668434828870558 12.561070513903227 0 0 0
490 1 8.369014559494293 7.893815897678793 12.170357840622453 0 0 0
491 2 8.778665118322554 7.174047691532177 12.629819696960482 0 0 0
649 1 2.755621053020137 2.9943085084841465 13.820257639576505 0 0 0
650 2 3.650537892652575 2.9826624004333406 14.269431558640782 0 0 0
651 2 2.210820643961782 2.6330764295365423 14.52864247288637 0 0 0
652 1 4.067822226573474 1.7805314153042584 16.984518595920846 0 0 0
653 2 4.02553435218293 2.7395949374691058 17.14613115611859 0 0 0
654 2 4.756834211704523 1.5339050306608653 17.691695748610325 0 0 0
655 1 5.8876599554778535 5.079574873054146 19.145944922581947 0 0 0
657 2 6.737648807804836 4.7971060848359794 18.81901969190082 0 0 0
658 1 1.3470704065422388 4.667277727997711 17.76220901054345 0 0 0
659 2 1.140371013182223 3.8736302144944794 17.21489744544024 0 0 0
660 2 1.1198599810007464 5.419770301609126 17.08710922273487 0 0 0
661 1 4.594937018190625 6.215785566780398 15.24915671311713 0 0 0
662 2 4.267481422194406 5.529794614597778 15.914330375851117 0 0 0
663 2 4.001652466174574 6.112164229394415 14.532259580918689 0 0 0
664 1 3.990041579486851 4.618520343076344 17.247043901731036 0 0 0
665 2 3.0107016767021175 4.659435625794325 17.47658657305558 0 0 0
666 2 4.513666271968086 4.848044312154162 18.110714651339983 0 0 0
669 2 1.199687205697922 6.252240355477293 15.146336973833018 0 0 0
671 2 2.198829388994257 1.8844623666758489 19.36300449101302 0 0 0
682 1 5.493510313452705 2.736844964487249 14.102035541640202 0 0 0
683 2 5.7764826830416025 3.5122455296427866 13.60637386517233 0 0 0
684 2 5.780964485411355 2.043645885467275 13.43496724161929 0 0 0
694 1 8.064079925076701 4.329574807917431 17.77232067668987 0 0 0
695 2 9.017755948215958 4.391030860942188 17.927244257692177 0 0 0
696 2 7.998208317918103 3.5589144617969315 17.170079204486367 0 0 0
703 1 7.188434615978471 6.179775315135718 15.833850738073854 0 0 0
704 2 7.318513367590045 5.383313330623935 16.345955829721085 0 0 0
705 2 6.246520175257252 6.095187729703652 15.619097747684206 0 0 0
715 1 7.546268336187284 2.4998014277805334 15.924179388459592 0 0 0
716 2 6.738232421069882 2.7765101018809815 15.407658775921977 0 0 0
717 2 8.298480958639537 2.672008757579036 15.31595725874614 0 0 0
390 2 12.622681704184863 1.3809057455477474 11.286094420748375 0 0 0
760 1 4.372682942723494 8.275285940678982 17.26750625400692 0 0 0
761 2 4.483593747557453 7.539202720003078 16.554510828077717 0 0 0
762 2 5.122511000036598 8.204165370031614 17.858476875543854 0 0 0
778 1 2.226741238555205 7.557190073503608 18.856429922266532 0 0 0
779 2 2.9284783759317596 7.7261785927348114 18.194390994469405 0 0 0
780 2 2.5454321685744805 6.713013643743935 19.367078614409444 0 0 0
784 1 6.336919544106726 7.8078623725042675 19.30708039272442 0 0 0
786 2 7.369228539933798 7.7376683492636325 19.26144071904894 0 0 0
791 2 5.518156232628251 8.38944110660966 14.02499786376967 0 0 0
825 2 6.644583143791239 9.210238184021039 15.700033429483039 0 0 0
814 1 9.101080724015691 7.7250082746689 18.90108434550592 0 0 0
815 2 9.189060069113491 8.444116260911134 19.553136012366846 0 0 0
816 2 9.437081136622547 6.871254405327981 19.30448100963132 0 0 0
823 1 7.590596115645798 9.02436537381236 15.96537164132188 0 0 0
824 2 7.624844984182862 8.07673796467613 16.15403275543538 0 0 0
353 2 7.347163179186664 0.9302113743353698 12.119609230735403 0 0 0
920 2 7.608431599548142 0.9418358913905002 15.89114246988553 0 0 0
795 2 8.543398431493014 9.65284115390006 14.530123202442327 0 0 0
678 2 6.749572838922433 1.7007570949222734 18.776501784426976 0 0 0
216 2 18.563319630436904 8.441988010249446 20.507523183654072 0 0 0
773 2 4.268439914336737 9.947773860551653 17.100842259471005 0 0 0
382 1 9.106734384793599 0.956607503409389 11.860705075294488 0 0 0
492 2 8.722307901337008 8.655221483458783 12.744153897908005 0 0 0
701 2 11.044987305545522 4.994080915821149 16.604123102057834 0 0 0
792 2 5.602825918870459 9.868492588615055 13.74849870886797 0 0 0
371 2 9.251309944552858 4.376015030312954 10.628133785613056 0 0 0
788 2 19.62743228341741 9.331287326672582 15.572256210242344 0 0 0
728 2 19.672922095701445 4.561230090375037 18.76682479158894 -1 0 0
789 2 1.5322135085207789 9.343659236621138 15.198497096152986 0 0 0
822 2 12.468251602788605 8.471159250671278 19.588708657616152 0 0 0
385 1 9.117110151179604 5.634537685117586 13.93652072983542 0 0 0
534 2 18.98721018025134 6.908619788378789 12.314911611163028 0 0 0
676 1 5.845923765217303 1.4648220988790472 19.029221052917652 0 0 0
749 2 19.893884870260578 0.8195731718315031 19.050780133749885 -1 0 0
402 2 16.77311559052301 1.4501543860696198 10.563334397345278 0 0 0
108 2 18.66976185194724 1.8229386181427438 20.619407448704152 0 0 0
107 2 18.471835948399256 3.380808748483981 20.497900169495434 0 0 0
746 2 15.994020664331009 4.433822582949641 20.433711214294668 0 0 0
785 2 6.158182371852814 8.552743899702747 19.94112097127925 0 0 0
670 1 2.0278479785893597 1.1397454106578442 18.767486078041692 0 0 0
830 2 16.437701065319015 9.343590491469168 13.868566239904535 0 0 0
879 2 4.417375459318343 0.6309873683085192 15.557142830256124 0 0 0
389 2 14.050010202603554 1.0179451119154943 12.016450666619303 0 0 0
426 2 0.6305875982559656 1.3984316579613616 11.870240226241597 0 0 0
406 1 14.475670355101846 4.340461995806405 10.506992616310832 0 0 0
334 1 1.2591631329046653 4.2515817344311255 10.850901281348673 0 0 0
681 2 0.9120641590277716 1.7878132442223105 16.125897712517233 0 0 0
712 1 12.248352665342992 1.3761512443872177 18.855556764058058 0 0 0
336 2 0.6067196798900285 4.51324874430882 11.521131347974192 0 0 0
667 1 0.601259449908775 6.544482186467319 15.79933894284174 0 0 0
370 1 8.269855603594497 4.464366755560339 10.510264614127587 0 0 0
707 2 8.896350859755847 1.4681832311312657 17.915883262984867 0 0 0
386 2 8.888880020291692 4.790400757580097 13.508241421499793 0 0 0
861 2 14.635832705091994 9.095846395847195 15.16552851062164 0 0 0
438 2 4.691721180356069 8.057171405253627 11.334517303069012 0 0 0
702 2 10.727352087608088 3.503299629354766 17.250441187777636 0 0 0
798 2 10.1374908555724 7.97684617510072 17.762030074065972 0 0 0
685 1 9.197536089351612 2.8806198207693288 13.901418299021254 0 0 0
750 2 18.460675090101514 0.9339056111512234 18.740644288134163 0 0 0
826 1 11.679998746453792 9.599172948480804 14.244450396012157 0 0 0
758 2 3.720624723991236 9.384351879622729 14.286003877125996 0 0 0
679 1 0.9104065376054384 2.705974961834162 15.846093215719623 0 0 0
668 2 0.8831379974528966 7.462344535751463 16.0244350686419 0 0 0
690 2 10.832663564624411 1.2904276864914117 16.048438551023647 0 0 0
687 2 9.083035038405441 2.2567369016730905 13.13481270092231 0 0 0
787 1 0.9069856689913025 9.121422245100947 15.93200933448442 0 0 0
726 2 17.74114294444682 1.2837525723424594 16.438412744431485 0 0 0
692 2 12.726173695697252 6.199518291354826 19.130985149185157 0 0 0
858 2 0.5723561527098928 7.55292131546445 18.976528111599393 0 0 0
680 2 19.718159009796878 2.757419360596351 15.333956125494717 -1 0 0
744 2 15.830583980866432 1.3925532970263712 18.189016175244305 0 0 0
686 2 10.14911054353452 3.097464200462831 14.051921696685506 0 0 0
846 2 17.433449969326237 9.797186561320814 17.095443288775947 0 0 0
856 1 19.277802544463555 7.530884054820511 19.150226485627847 0 0 0
711 2 9.176477167315868 4.776339241721709 20.5813302070064 0 0 -1
404 2 18.636220758519972 4.3765201991914875 13.083450172615368 0 0 0
403 1 18.854365188099923 5.058668247704516 12.333769408185441 0 0 0
790 1 5.3740329453786835 9.256485605161236 14.50760122151251 0 0 0
510 2 18.077468351465324 8.221668351000172 10.794353428752226 0 0 0
39 2 8.962313079279744 2.6179534564555578 20.076943678273754 0 0 0
698 2 10.920530091975964 6.992624456710363 15.869310806711002 0 0 0
352 1 6.342187764059363 0.9290094110338465 12.213767138417692 0 0 0
706 1 8.515611061297346 1.5117216045296802 18.801347458308804 0 0 0
757 1 2.7840142098324048 9.653601340015111 14.061524608246376 0 0 0
745 1 15.999621341206586 5.430155597426239 20.517580807299076 0 0 0
862 1 18.20733163536803 9.410763871676867 14.28234963785568 0 0 0
455 2 2.825790031107198 8.069014993786288 11.376053012332603 0 0 0
384 2 9.969742154076597 1.1944760633245584 11.37960013354701 0 0 0
796 1 10.704670397626751 8.116864739377803 16.927925651278212 0 0 0
829 1 15.482443807019722 9.273507787110955 13.83962455122089 0 0 0
330 2 5.44641020294022 1.0914720091900216 10.89399713051558 0 0 0
183 2 15.685995517632128 8.67253502782596 20.176957244212755 0 0 0
498 2 11.885303931812146 7.73643616830979 11.6094826481645 0 0 0
699 2 10.498558318366193 5.9385894022429415 14.700485249399431 0 0 0
689 2 11.351239295734603 1.5947208423130295 17.508268034715172 0 0 0
742 1 15.172084874589231 1.2725673398425585 18.904600289364407 0 0 0
36 2 5.441604176692517 3.9529370214858055 20.513372910355127 0 0 0
859 1 13.914356406813619 8.9331668510385 15.824849188957232 0 0 0
860 2 13.088246567442482 9.124361653953116 15.320253244982379 0 0 0
532 1 18.99780280210613 7.83072949105859 12.22327268936025 0 0 0
713 2 12.117815121999106 1.8871323378675573 19.64315474051456 0 0 0
700 1 10.767934748478408 4.479550249045956 17.41192633540433 0 0 0
388 1 13.04004747815838 1.0945195870975182 12.151971286767333 0 0 0
753 2 14.138215387189902 1.3166797337677354 16.084448027846104 0 0 0
832 1 17.671569380573796 7.992333561975001 17.101241907395234 0 0 0
367 1 12.545771039691932 4.909570424268823 12.396568150890092 0 0 0
368 2 12.596645847791898 5.877507526049838 12.372577667936731 0 0 0
369 2 12.43760451342457 4.611396281648418 13.392812215998575 0 0 0
850 1 15.45457523716022 7.553876513568167 18.821449534786996 0 0 0
831 2 15.37606223790631 8.708564935203384 13.005450617061394 0 0 0
828 2 11.908191001186212 8.794968101959435 13.754064902092896 0 0 0
407 2 14.01299564396727 4.508849576797083 11.344258086968749 0 0 0
405 2 18.179335418088037 4.851399406180555 11.651960081508667 0 0 0
852 2 15.61060553928753 6.733467014355535 19.27082484071963 0 0 0
419 2 16.057918049993873 0.41503704654046014 12.263355056850573 0 1 0
420 2 15.884242851223874 1.9299347184873517 12.27481077647608 0 0 0
421 1 15.70487449641795 5.577052618773311 13.584864117545033 0 0 0
422 2 16.51176935006763 5.813201177124542 14.124420824526851 0 0 0
423 2 14.884529677152653 5.8841681625914415 14.1488673131166 0 0 0
797 2 10.572600296662419 9.073934608649886 16.787400708747068 0 0 0
496 1 12.56714413083725 7.642401249791375 12.316573288386676 0 0 0
497 2 13.393160638314356 7.876632630706735 11.870749657642564 0 0 0
425 2 18.888735972795295 1.5126240444929542 11.250008632038359 0 0 0
526 1 15.459218441454132 7.614069177805666 11.783434236228585 0 0 0
527 2 15.610372616545654 6.798474529766356 12.344268607814609 0 0 0
834 2 16.73329542915749 7.914683666077153 17.415046741061502 0 0 0
851 2 14.520211412105041 7.606241748952708 18.73860208306376 0 0 0
691 1 12.525073169827413 5.2345095479461 19.203312045700137 0 0 0
693 2 11.789983484619578 5.100698507650178 18.530961551240985 0 0 0
697 1 11.208612164915024 6.164671508509396 15.374656501467662 0 0 0
528 2 16.03953034725892 7.738472795241035 10.993542927761862 0 0 0
863 2 18.567471602458863 8.816187417874502 13.561887031756564 0 0 0
677 2 5.672247093769589 1.78652192434188 19.987659741498582 0 0 0
718 1 12.071487287701519 3.203013844563303 14.152935899907074 0 0 0
719 2 12.570643626128739 3.028484119305092 14.949507109956224 0 0 0
720 2 12.301238611639063 2.58119571771492 13.442117149809945 0 0 0
721 1 15.893064446256666 3.023375710084927 13.746447065536879 0 0 0
722 2 15.84431506130319 4.027347501850949 13.636451205493282 0 0 0
723 2 15.312512461071284 2.873906854522424 14.472106237069882 0 0 0
724 1 17.471972237739703 1.7216300199012138 17.279671548852434 0 0 0
725 2 17.272699903833498 2.6656590434711895 17.10407445685215 0 0 0
729 2 18.166799045407306 4.672508380765472 18.527199674419236 0 0 0
730 1 14.475756920922834 4.5541260611873735 17.479051242602207 0 0 0
731 2 13.70843222672631 4.635142100792169 18.07965912537592 0 0 0
732 2 14.345729430803567 5.1047788700343055 16.655831447032927 0 0 0
733 1 17.7579804124301 6.396673478685694 14.915277525663383 0 0 0
734 2 18.735122301599592 6.179633928620534 14.934348742469368 0 0 0