LAMMPS data file via write_data, version 3 Mar 2020, timestep = 1000000

1008 atoms
2 atom types

2.3211635470035574e-01 1.8167438645292016e+01 xlo xhi
4.3062821373551330e-02 2.2527326178620960e+01 ylo yhi
1.9450809738157737e-01 1.9311207902612594e+01 zlo zhi
5.2125002517144935e-02 -6.6626538452692809e+00 -2.3089527927690080e-02 xy xz yz

Masses

1 16
2 2

Atoms # atomic

1 1 6.6549935109696667e+00 1.0363029449438486e+00 5.0033090837623488e+00 0 0 0
399 2 8.2943894778506326e+00 2.0694547687647141e-01 1.2383575182296493e+00 0 0 0
3 2 6.7550955296506840e+00 1.4941328944124628e+00 4.1172352898533813e+00 0 0 0
4 1 3.9209295040415446e+00 1.2794421342127096e+00 5.2059296989122501e+00 0 0 0
5 2 4.8970147438794811e+00 1.0754505744403782e+00 5.2269689823387955e+00 0 0 0
6 2 3.6367799272625692e+00 1.7175682249990685e+00 6.0392593211119383e+00 0 0 0
7 1 -3.1235719103439119e-01 6.1648391591239333e+00 5.0684412834722963e+00 0 0 0
8 2 -5.5144847559553001e-01 5.8384888015554708e+00 5.9312236242767362e+00 0 0 0
9 2 -9.2816896286184325e-01 6.9258325298398802e+00 4.9819951738869817e+00 0 0 0
10 1 2.2859682286634815e+00 6.2063201867461029e+00 4.6046322930875245e+00 0 0 0
11 2 1.3192939827194134e+00 6.4180388075510351e+00 4.7879566377300291e+00 0 0 0
12 2 2.7847454872121444e+00 7.0521748780870857e+00 4.7537575848932097e+00 0 0 0
84 2 2.9522238891818753e+00 6.8595899730797631e+00 7.0218001491825421e-01 0 0 0
14 2 5.1302516233017066e+00 5.4785801087965833e+00 8.8429222043875004e+00 0 0 0
222 2 2.9084444399517411e+00 1.1115444735841496e+01 3.1560634102884682e+00 0 0 0
521 2 2.2911355470186607e+00 5.6106385780098478e+00 9.2437133986389082e+00 0 0 0
18 2 5.7715942949777457e+00 5.5569329742080384e+00 1.1188524999967249e+00 0 0 0
13 1 4.9000669714733105e+00 4.8588496046748508e+00 9.6166018361211414e+00 0 0 0
667 1 1.2173750547007124e+01 1.4715356967947801e+00 9.7096752317818709e+00 0 0 0
21 2 1.0491145802514923e+00 2.1767229692582966e+00 1.0254937315329180e+00 0 0 0
220 1 3.4939284615849688e+00 1.0656694747879779e+01 3.8165440848863681e+00 0 0 0
167 2 1.1317652842428238e+01 5.7453472523557352e+00 9.7405116491972488e-01 0 0 0
254 2 1.5702224736496127e+01 9.2224607091592929e+00 5.5786913520492885e+00 0 0 0
25 1 5.0201847722895279e+00 6.5412210440861482e+00 7.2241542076220870e+00 0 0 0
26 2 5.6261849022013859e+00 7.1805291616343041e+00 7.6771488662177729e+00 0 0 0
27 2 4.1298784216765752e+00 6.8183039278063911e+00 7.5135266881670937e+00 0 0 0
28 1 5.8991224651102776e+00 6.5218134548307320e+00 2.7314913607634175e+00 0 0 0
29 2 5.9517610672565615e+00 5.9088144008845243e+00 3.4665120809113565e+00 0 0 0
30 2 5.0207407593456121e+00 7.0583585830577791e+00 2.7602061401544256e+00 0 0 0
31 1 1.3070339600269147e+00 1.1376685317221205e+00 2.8304213230670006e+00 0 0 0
32 2 2.1224537924815756e+00 7.4421162281337749e-01 2.6827389366624681e+00 0 0 0
33 2 1.2917215954619437e+00 1.6568397902309528e+00 3.6697307250743276e+00 0 0 0
34 1 -1.7118217415747417e-01 1.1904128681056156e+00 7.4309249684882053e+00 0 0 0
165 2 1.6799497355514767e+01 8.4539714656004961e-01 3.1220203105139904e-01 0 0 0
36 2 2.2031109275935101e-02 1.8821134494156810e+00 8.0222507210986205e+00 0 0 0
37 1 6.3909702630932586e+00 2.4236627777219995e+00 2.7584854710940565e+00 0 0 0
38 2 5.5138542792625493e+00 2.9590463403773941e+00 2.9513159219072080e+00 0 0 0
39 2 7.1119220777011893e+00 3.0653341050087555e+00 2.9605968962368903e+00 0 0 0
40 1 3.9827046449157302e+00 2.8568745075748132e+00 7.5773910435075349e+00 0 0 0
41 2 4.9183128722512901e+00 3.2228902558872252e+00 7.5131705254930923e+00 0 0 0
42 2 3.3262745197656427e+00 3.6009112359875144e+00 7.3543445536236662e+00 0 0 0
43 1 -5.9042256748353084e-01 4.7970161945211798e+00 7.6154559704771545e+00 0 0 0
44 2 -1.1225853666521510e+00 3.9834574730979559e+00 7.4396859680713261e+00 0 0 0
45 2 -7.7779525533318328e-01 5.1292718469397816e+00 8.4682122394034973e+00 0 0 0
46 1 2.0338786427441162e+00 4.7333315747928575e+00 2.4101645455756624e+00 0 0 0
47 2 1.0931800386666253e+00 4.5716528193517538e+00 2.5074884375877056e+00 0 0 0
48 2 2.2841138347983092e+00 5.4260831153099049e+00 3.0990347949636821e+00 0 0 0
49 1 6.5295413543346958e+00 3.2392243427357852e+00 6.9273265847606487e+00 0 0 0
50 2 6.3168096278069674e+00 3.8120408026160661e+00 6.1646184113602338e+00 0 0 0
51 2 6.5209832863166151e+00 2.3765478408523300e+00 6.5035732037099176e+00 0 0 0
52 1 4.1430422973238512e+00 3.4079434095455952e+00 3.6352675647408907e+00 0 0 0
53 2 3.3493296745212131e+00 3.6233071817739306e+00 3.0944234816608964e+00 0 0 0
54 2 3.9416159146533296e+00 2.6021616093727085e+00 4.1858585754338584e+00 0 0 0
55 1 -5.4315126098526634e-01 4.0600319164926608e+00 3.1727255779402279e+00 0 0 0
56 2 -7.3061295771005508e-01 4.9549220194434778e+00 3.5900014063786307e+00 0 0 0
57 2 -1.4801483509563862e-01 3.5375384559755481e+00 3.8713772282528036e+00 0 0 0
58 1 1.8004696293941027e+00 4.1365167057457626e+00 6.3128934736173923e+00 0 0 0
59 2 2.0259535132097946e+00 4.9972132940446379e+00 5.8938875623480111e+00 0 0 0
60 2 1.0899748435032137e+00 4.3390214812314136e+00 6.9831686562014461e+00 0 0 0
61 1 8.2954413854454394e+00 7.1443006439655461e+00 1.6448047636313528e+00 0 0 0
62 2 7.5095765110106809e+00 6.8379458291631350e+00 2.1870835487389684e+00 0 0 0
63 2 8.6547569746291071e+00 6.4705223127209504e+00 1.0452124826952416e+00 0 0 0
64 1 2.3024092137762571e+00 6.9492809369710606e+00 8.2005433185272523e+00 0 0 0
65 2 1.4575499486129759e+00 7.1903501225738573e+00 7.7203916990958836e+00 0 0 0
66 2 2.4153160664415050e+00 7.6800731903305133e+00 8.8537890678903679e+00 0 0 0
330 2 9.2805416479576515e+00 1.0556922695113334e+01 4.4111170806007394e+00 0 0 0
68 2 -2.7002397803292637e+00 1.6418710173397431e+00 8.6432275483618479e+00 0 0 0
69 2 1.4693256863185360e+01 4.1307726165709840e-01 7.8443100919266193e+00 0 0 0
72 2 3.9303701532970665e+00 1.1748130953452480e+00 1.6318387596891870e+00 0 0 0
73 1 5.5130161562644489e+00 5.0447864501108404e+00 5.1219519790897312e+00 0 0 0
74 2 5.1675081878168347e+00 5.7320545488583443e+00 5.7321010632577600e+00 0 0 0
75 2 4.8272107441121372e+00 4.6296663888139813e+00 4.5370747863139380e+00 0 0 0
76 1 6.7018354958834170e-01 2.2882022259693677e+00 5.0335461400875561e+00 0 0 0
77 2 3.7564053960660448e-01 1.6874004598037948e+00 5.7250506357180422e+00 0 0 0
78 2 1.1935086615968622e+00 2.9484294104337265e+00 5.5852144018614105e+00 0 0 0
80 2 6.7206019883164876e+00 1.7534092986980849e+00 1.0175028969904272e+00 0 0 0
24 2 -2.2771126441118739e-01 3.1988315865427985e+00 9.4814596920239769e+00 0 0 0
152 2 7.4936466578017091e+00 6.6263876701561208e-01 8.0818610029704985e+00 0 0 0
85 1 1.5507851488859462e+01 1.0001857035649691e+00 4.8138483470945017e+00 0 0 0
87 2 1.5729662230554430e+01 1.5069808861570069e+00 3.9626928441703844e+00 0 0 0
88 1 1.2746353881847359e+01 1.0289032671505849e+00 4.9736021851861567e+00 0 0 0
89 2 1.2690389206370728e+01 1.7976723612898622e+00 4.3855364377930695e+00 0 0 0
90 2 1.3690550464712246e+01 7.3820152317966281e-01 4.8798664786083812e+00 0 0 0
91 1 8.3850583621851271e+00 6.5378962751015139e+00 4.9582252780562124e+00 0 0 0
92 2 8.2181776870062606e+00 5.7419701056953327e+00 4.3573597819612946e+00 0 0 0
93 2 9.3333363972024461e+00 6.6850019164783241e+00 4.7808677965222532e+00 0 0 0
94 1 1.0895360460089440e+01 6.3526141891471886e+00 4.8630134482346232e+00 0 0 0
95 2 1.1706934402170090e+01 6.9587586922086597e+00 4.8964235662365256e+00 0 0 0
96 2 1.1052058072812141e+01 5.6633578855639550e+00 5.5474935528225995e+00 0 0 0
79 1 7.1589724610515235e+00 1.5202874840098624e+00 2.1222868627357253e-01 0 0 1
35 2 -1.0972009525951831e+00 9.2719458828740253e-01 7.4735315658948300e+00 0 0 0
133 1 1.5501488409344352e+01 2.9937983869650311e+00 6.4695712522532913e+00 0 0 0
101 2 1.4646378420745052e+01 5.0923050099089160e+00 1.2203938430859171e+00 0 0 0
780 2 1.2836782735441707e+01 9.4963025952137308e+00 6.0546709891216866e-01 0 0 0
117 2 9.9491643384326789e+00 4.4343144756179120e-01 2.4677460942326936e+00 0 0 0
219 2 5.9843689542420417e+00 1.0647850308678086e+01 7.1792078580792431e+00 0 0 0
135 2 1.5703685458440628e+01 2.1953054231460820e+00 5.9659676184577872e+00 0 0 0
109 1 1.3789292723401672e+01 6.1975805834458146e+00 7.3047627527902650e+00 0 0 0
110 2 1.3912336830630352e+01 5.6557895507458946e+00 8.1190745486294347e+00 0 0 0
111 2 1.2875920747920809e+01 6.5142686533768801e+00 7.3870645133578483e+00 0 0 0
112 1 1.5119705617512031e+01 6.4157492780168450e+00 2.5403945373003864e+00 0 0 0
113 2 1.4573998669676429e+01 7.1530638337495329e+00 2.3423606845730225e+00 0 0 0
114 2 1.6042029719273579e+01 6.6809147837380785e+00 2.5177266693578297e+00 0 0 0
115 1 1.0565471571712653e+01 1.1919992774190633e+00 2.7124088838338807e+00 0 0 0
116 2 1.0306892013911144e+01 1.9013942107132320e+00 2.1290646115821543e+00 0 0 0
777 2 5.9359437226027634e+00 1.1148184101606351e+01 9.4664015901034730e+00 0 0 0
118 1 8.9698748199645753e+00 1.1777317354828891e+00 7.5895310402987572e+00 0 0 0
119 2 9.1097417629809989e+00 1.9537864808095422e+00 8.1821441926166951e+00 0 0 0
120 2 9.0292077219057667e+00 1.5999290883566064e+00 6.7472598989787622e+00 0 0 0
121 1 1.5393882604231855e+01 2.1713259766861492e+00 2.3543793920715430e+00 0 0 0
122 2 1.6022282250795747e+01 2.9462487464994727e+00 2.4985131887571468e+00 0 0 0
123 2 1.5535800419325598e+01 1.8329596786619813e+00 1.4003640161493911e+00 0 0 0
124 1 1.3094236382223157e+01 2.3986225620276440e+00 7.3080058321716637e+00 0 0 0
125 2 1.3911735585491407e+01 2.8609957211513506e+00 7.0412387125839491e+00 0 0 0
126 2 1.2952612508290896e+01 1.8428426495336394e+00 6.5221845868977919e+00 0 0 0
127 1 8.5890109644815134e+00 5.1418138561495512e+00 7.4047931558743416e+00 0 0 0
128 2 7.9880434767234689e+00 4.4013258306161323e+00 7.2275101653395462e+00 0 0 0
129 2 8.6105138745337335e+00 5.6671518059841839e+00 6.5439738868010915e+00 0 0 0
130 1 1.0900244225395920e+01 5.0203677930935848e+00 2.5062141320312330e+00 0 0 0
131 2 1.1449014342369409e+01 4.2269766463064613e+00 2.5155545094655483e+00 0 0 0
132 2 1.0918973951116214e+01 5.4730913426335608e+00 3.4389001292806274e+00 0 0 0
134 2 1.5507688574317070e+01 3.6549744000090159e+00 5.7513090207283621e+00 0 0 0
136 1 1.3103482071962464e+01 3.1385955969017796e+00 3.3785961283103516e+00 0 0 0
137 2 1.3499987389752889e+01 3.7712451637358564e+00 4.0102239523534813e+00 0 0 0
138 2 1.3815580757858786e+01 2.6468523430555475e+00 2.8953214385407304e+00 0 0 0
139 1 8.4731362201591978e+00 4.3211681589850812e+00 3.3546060851383799e+00 0 0 0
140 2 9.3105543784373808e+00 4.4647739200572207e+00 2.8177522906935444e+00 0 0 0
141 2 8.8708488638052536e+00 3.9014726832266642e+00 4.1744604005922810e+00 0 0 0
142 1 1.1178860291322923e+01 4.3894237738993560e+00 6.5448735625215484e+00 0 0 0
143 2 1.1858224226863566e+01 3.9064766014464869e+00 6.9885784926697960e+00 0 0 0
144 2 1.0375207673128203e+01 4.3650411249023762e+00 7.0390287602793222e+00 0 0 0
147 2 1.7218500113773135e+01 7.7813822947888980e+00 1.0489357746396273e+00 0 0 0
148 1 1.1373966379413499e+01 6.9512660323683839e+00 8.1611280299061075e+00 0 0 0
149 2 1.1169156774535606e+01 6.1472807709802364e+00 8.6578116879339433e+00 0 0 0
150 2 1.1590786023746535e+01 7.6694307742659671e+00 8.7835437722551362e+00 0 0 0
224 2 -5.2680354891897474e-01 1.0992663943651479e+01 4.1642192404535336e+00 0 0 0
753 2 3.8003960223762161e+00 9.4041447114014662e+00 9.2025874523867639e+00 0 0 0
153 2 6.4027165995739885e+00 1.3636522363715249e+00 8.9824276928542091e+00 0 0 0
83 2 2.0538290001659494e+00 5.5573005354965375e+00 8.0158020526126539e-01 0 0 0
155 2 1.3026817123816121e+01 9.4816511047704732e-01 1.2665950174678990e+00 0 0 0
187 1 1.0150345128034091e+00 9.9269521221352015e+00 6.1735052356547571e-01 0 0 0
157 1 1.4316627921097156e+01 4.9914422923502935e+00 4.9714255481227241e+00 0 0 0
158 2 1.4710625176558576e+01 5.6348695696907107e+00 4.3713889118616711e+00 0 0 0
159 2 1.4241741383120166e+01 5.3901074127193551e+00 5.8702649611591449e+00 0 0 0
160 1 9.6988822694170391e+00 2.4645888371302505e+00 5.0092985675403323e+00 0 0 0
161 2 1.0441541567666043e+01 2.8370212414848202e+00 5.4977540629602064e+00 0 0 0
162 2 1.0002704320916493e+01 1.9492317447646106e+00 4.2268886400925272e+00 0 0 0
305 2 1.2251476380284915e+01 1.0744754771754389e+01 3.2063219130990759e+00 0 0 0
293 2 1.2559071912144208e+01 1.0539969166502551e+01 7.7561944633847864e+00 0 0 0
274 1 9.9019427710596535e+00 9.8810092365596454e+00 9.4480662021359993e+00 0 0 0
169 1 6.8120277893410019e+00 8.8204669828525759e+00 4.7524258843579164e+00 0 0 0
170 2 7.4857709009437885e+00 8.1144696456327381e+00 4.9607983756542149e+00 0 0 0
171 2 6.9766362150763603e+00 9.4129761230862030e+00 5.4609403470887941e+00 0 0 0
172 1 4.0355688469791504e+00 8.2998559433831485e+00 4.8107607986547727e+00 0 0 0
173 2 3.6748338972717027e+00 9.1268817605416253e+00 4.4166090439858667e+00 0 0 0
174 2 4.9604295050273457e+00 8.4424984420992661e+00 5.0013046371454450e+00 0 0 0
671 2 8.3483630312763140e+00 5.8406134393387754e+00 8.9779784959338347e+00 0 0 0
146 2 1.7626313433391303e+01 6.4764403672708912e+00 4.8536330393152843e-01 0 0 0
70 1 3.8770907749410886e+00 2.6629602431312399e-01 2.0354941051094544e+00 0 0 0
192 2 3.8882376910060712e-01 9.8796601765709280e+00 8.8101438324580084e+00 0 0 0
199 1 1.3569621859911218e+00 8.4554890351810066e+00 2.9641401963567717e+00 0 0 0
200 2 1.1549288086556500e+00 9.2237998374093522e+00 2.4151199610980330e+00 0 0 0
201 2 8.2161550880584822e-01 7.7835567037793467e+00 2.5082481951970554e+00 0 0 0
202 1 1.9824110615151413e-01 8.9239575725667155e+00 7.5730935809320368e+00 0 0 0
203 2 -6.3256617642643231e-01 8.5112934295832758e+00 7.7225517891803568e+00 0 0 0
204 2 2.4889426978889784e-01 9.2979524996693712e+00 6.7058872444178714e+00 0 0 0
205 1 6.0567909787425638e+00 1.0491666674785940e+01 2.7959478415872097e+00 0 0 0
206 2 6.2686138548964436e+00 9.7369784695052690e+00 3.3410971142819661e+00 0 0 0
207 2 5.9744235373811412e+00 1.0127862338614939e+01 1.9068788459828976e+00 0 0 0
208 1 4.0040441289332662e+00 9.7068468337700224e+00 7.2608903136245075e+00 0 0 0
290 2 1.6126907106272675e+01 1.0383225091809154e+01 2.8317134919590896e+00 0 0 0
210 2 4.0664839288186689e+00 9.0477464864861865e+00 6.5190114516265467e+00 0 0 0
151 1 6.6993504510540536e+00 5.1097359706295675e-01 8.6317912408872051e+00 0 0 0
217 1 6.6411317891966659e+00 1.0912645316449710e+01 6.5227618469445297e+00 0 0 0
22 1 6.5916537490892946e-01 2.7596758768702183e+00 9.5659609279686038e+00 0 0 0
304 1 1.2868579257541654e+01 1.0368620538749127e+01 3.8934860671023226e+00 0 0 0
156 2 1.2039862461868177e+01 5.3608022804362621e-01 2.4160203748252833e+00 0 0 0
235 1 -2.1395404399731297e+00 7.7797869277171587e+00 8.2562677496751373e+00 0 0 0
236 2 -2.4062092558187089e+00 8.5489887459840332e+00 8.7719335298169714e+00 0 0 0
238 1 3.7461505581589645e+00 8.1099832680568227e+00 1.7731563224742377e+00 0 0 0
239 2 3.0917008182654850e+00 8.2814393098718533e+00 2.3935387717033256e+00 0 0 0
240 2 3.7783835956660936e+00 8.9002121882056002e+00 1.2360983113141797e+00 0 0 0
244 1 4.2375170076702240e-01 1.0011114704479947e+01 5.2647288265559036e+00 0 0 0
245 2 6.3264686214714749e-01 9.3442415661880514e+00 4.5763606304515481e+00 0 0 0
246 2 1.2800299469690575e+00 1.0431704215151829e+01 5.5622848611176092e+00 0 0 0
103 1 1.0450021922597971e+01 3.1267833499630857e+00 4.5450837233776692e-01 0 0 0
584 2 2.7996806615228635e+00 9.9061491317933581e-01 9.5579598493877569e+00 0 0 0
253 1 1.5691697313951384e+01 8.4646424147295463e+00 4.9679982439598982e+00 0 0 0
255 2 1.5845729564031060e+01 8.7723123208882150e+00 4.0822262785322092e+00 0 0 0
256 1 1.2861055705087299e+01 8.2354475015674229e+00 5.4528309041202920e+00 0 0 0
257 2 1.3779999088543082e+01 8.0607164848115165e+00 5.2830794299681836e+00 0 0 0
258 2 1.2614709738128168e+01 8.9292887340922533e+00 4.8062398115811558e+00 0 0 0
17 2 5.0626149328663317e+00 4.2380514956049549e+00 5.6445080256806335e-01 0 0 0
272 2 1.0144107613206724e+01 9.5903453858214416e+00 1.0214509033137240e+00 0 0 0
221 2 4.3871585355302418e+00 1.0688127750451937e+01 3.5030757159696089e+00 0 0 0
276 2 9.7794899603144785e+00 9.5238322699286542e+00 8.5031917125515086e+00 0 0 0
283 1 1.0351688107687435e+01 8.6208385054109833e+00 2.3385318226871705e+00 0 0 0
284 2 1.0381784436097977e+01 9.1349115114456492e+00 3.2210036658482140e+00 0 0 0
285 2 9.4908086805144851e+00 8.1873959886385173e+00 2.3927014059492673e+00 0 0 0
286 1 9.3972936977185988e+00 8.4889972037780019e+00 7.1799911779106127e+00 0 0 0
287 2 1.0144550739606828e+01 7.9905360102893370e+00 7.5766616195045957e+00 0 0 0
288 2 8.6031063973338853e+00 8.0652214310197952e+00 7.5080040470721228e+00 0 0 0
289 1 1.5431634184531509e+01 9.6650623803040325e+00 2.7002205004444981e+00 0 0 0
237 2 1.5012734595806723e+01 7.3314007849970944e+00 7.8278516468801360e+00 0 0 0
291 2 1.5533286072030865e+01 9.5063420713371318e+00 1.7494695304110310e+00 0 0 0
292 1 1.3057049512081889e+01 9.7210491557552281e+00 7.8217097946258498e+00 0 0 0
102 2 1.4285880171618638e+01 3.8509550488020214e+00 3.0610768096948182e-01 0 0 0
294 2 1.2960346772191629e+01 9.1530094261765829e+00 7.0130291893862848e+00 0 0 0
587 2 -1.0624995283062271e+00 7.0245320666030189e+00 9.3474875998439302e+00 0 0 0
67 1 -2.5385314964110508e+00 7.7761743206672673e-01 8.3264677247313674e+00 0 0 0
302 2 1.4621704669595566e+01 1.0507034693564531e+01 7.3201498759424544e+00 0 0 0
86 2 1.6249644415466896e+01 3.3794123977313911e-01 4.9139508322889842e+00 0 0 0
319 1 6.7439930309727121e+00 8.1428907075485739e+00 8.4076796527537301e+00 0 0 0
320 2 6.7585548440149559e+00 9.0582607889866988e+00 8.7755289305514630e+00 0 0 0
321 2 7.0103463485981177e+00 7.5664681829918097e+00 9.1451780634936064e+00 0 0 0
322 1 1.3138045865197903e+01 8.0100905254935331e+00 1.5148490818137050e+00 0 0 0
323 2 1.2439258582021640e+01 8.3167818832666125e+00 2.0976485073462481e+00 0 0 0
324 2 1.2688737270799674e+01 7.3184469306740665e+00 9.1406226295888382e-01 0 0 0
328 1 1.0015814411433547e+01 9.9461163189453980e+00 4.7034121273280496e+00 0 0 0
329 2 9.7125370876579442e+00 9.4842997463617351e+00 5.5202723073903135e+00 0 0 0
583 1 3.6863078010488217e+00 1.4126792864268860e+00 9.6487722594920466e+00 0 0 0
668 2 1.2579279415458029e+01 1.7836938749495448e+00 8.8589500788613531e+00 0 0 0
209 2 3.5360699892957581e+00 1.0493769573433402e+01 6.8893540645518687e+00 0 0 0
306 2 1.3734973508971713e+01 1.0202580414017582e+01 3.4429969866868362e+00 0 0 0
301 1 1.5337213221379983e+01 1.0751120879616415e+01 6.7311821039310527e+00 0 0 0
247 1 7.0001754553878524e+00 9.2607528185650523e+00 6.1803969859215924e-01 0 0 0
518 2 7.5234837720959646e+00 4.6705222724103157e+00 2.2403618259804925e-01 0 0 0
100 1 1.4806993224133173e+01 4.7137546448319254e+00 3.5840832543416867e-01 0 0 0
145 1 1.7602655360127830e+01 6.9452251630659383e+00 1.3458292291370828e+00 0 0 0
154 1 1.2783140007209388e+01 2.3593173441688706e-01 1.8480536669376302e+00 0 0 0
585 2 3.7364357753175237e+00 2.0677898324004564e+00 8.7954572963235567e+00 0 0 0
836 2 1.2820424932645590e+01 9.1499381754727160e+00 9.2221443747641239e+00 0 0 0
2 2 7.1622095408693500e+00 2.2413284382183277e-01 4.8241685004462163e+00 0 0 0
331 1 1.5856038590726683e+01 8.9960161069370095e+00 2.2649166836866039e-01 0 0 0
528 2 2.9121264490108705e+00 2.7583187936142926e+00 4.4609565054750883e-01 0 0 0
104 2 9.7306259958812387e+00 3.8643948740624823e+00 5.0340309634781666e-01 0 0 1
775 1 6.6137855163065158e+00 1.0427908033006551e+01 9.3929183869568078e+00 0 0 0
612 2 1.2300210707020868e+01 2.9792043671088257e+00 2.6255716733922352e-01 0 0 0
16 1 5.8093009696638207e+00 4.8711333144050855e+00 4.5204275298477425e-01 0 0 0
526 1 3.9121750644377102e+00 2.7569334044706921e+00 5.3865938796590818e-01 0 0 1
189 2 1.8861030731898958e+00 1.0382292683051887e+01 5.2532361461589572e-01 0 0 0
248 2 7.6176931920284918e+00 8.5456832374055640e+00 8.1830728247483109e-01 0 0 0
190 1 4.4151453343758496e-01 1.0377016453706410e+01 9.7053526677231936e+00 0 0 0
15 2 3.9227315955433828e+00 4.7675824067743759e+00 9.6563853562095741e+00 0 0 0
311 2 1.0824176474302979e+01 1.1146963164404688e+01 5.9762387398041552e+00 0 0 0
97 1 1.3867062820866336e+01 4.8157324494983200e+00 9.7230281184689318e+00 0 0 0
401 2 1.0887931370023902e+00 5.8394281839853901e-02 8.0269144980170068e+00 0 0 0
23 2 1.3221321997638911e+00 3.4512606615992585e+00 9.6916960387231708e+00 0 0 0
99 2 1.2990004837580305e+01 4.3939615768941280e+00 9.7159369571988901e+00 0 0 0
714 2 1.9905812681808372e+00 1.0057223151884148e+01 1.7001416761043970e+01 0 0 0
694 1 -2.7862707278547609e+00 1.0219762384558475e+01 1.8977414672021524e+01 0 0 0
588 2 -7.7865263868673473e-01 6.1219696936401355e+00 1.0634629762299287e+01 0 0 0
536 2 -2.8559107390189808e+00 8.0868953720060854e-01 1.2257095034927598e+01 0 0 0
657 2 4.0039530949542614e+00 2.3500377073112627e-01 1.8429728981045500e+01 0 1 0
601 1 1.0917996486502719e+01 4.8080518581985094e+00 1.8817896306923458e+01 0 0 0
249 2 8.2351020835379796e-01 9.5842067673429518e+00 1.8939024594149728e+01 0 0 0
593 2 9.3229711898106054e+00 1.6748573239532816e-01 1.4623292680978659e+01 0 0 0
805 1 1.2593294177010836e+01 1.0751624513123398e+01 1.6155793700823942e+01 0 0 0
809 2 1.0348061629867441e+01 1.0598328024469000e+01 1.2570497535514582e+01 0 0 0
98 2 1.3884069539707777e+01 5.5403660040400089e+00 1.0396283023957196e+01 0 0 0
620 2 5.9193186871518630e+00 3.7936475298663752e-01 1.2062011004221050e+01 0 0 0
602 2 9.8974015326183959e+00 4.8345770406999620e+00 1.8887683922061996e+01 0 0 -1
806 2 1.2048941705967714e+01 1.1260962092401327e+01 1.5530404165497643e+01 0 0 0
721 1 3.3445371877072958e+00 1.0932936456399819e+01 1.6152328735876139e+01 0 0 0
574 1 3.2168444998148216e-01 3.0441041486259063e-01 1.1009598730081105e+01 0 0 0
166 1 5.0088070152064361e+00 6.1769777261796586e+00 1.9270712474409649e+01 0 0 0
825 2 3.3380422758622590e+00 8.7497094616833664e+00 1.8173872372985251e+01 0 0 0
505 1 3.5527216930005245e+00 1.3414829542756128e+00 1.4377054522435467e+01 0 0 0
506 2 3.7261652846334847e+00 2.1809337808034370e+00 1.4814908964971981e+01 0 0 0
816 2 7.1969014433661123e+00 1.1069502867189634e+01 1.5505817686432110e+01 0 0 0
508 1 5.7202092331893706e-01 1.6343606738560328e+00 1.4717645959339661e+01 0 0 0
798 2 9.7463717632005640e+00 9.3968066955903549e+00 1.6285388441592325e+01 0 0 0
510 2 1.5045827235957923e+00 1.4139533144604703e+00 1.4637309947615025e+01 0 0 0
511 1 -3.8833526492084056e+00 6.5496934857742000e+00 1.4636293534322542e+01 0 0 0
512 2 -4.0294931916149279e+00 5.7753130021569170e+00 1.4033186423805937e+01 0 0 0
513 2 -4.0900138162488000e+00 6.1834353976989540e+00 1.5519949666543289e+01 0 0 0
514 1 -1.1088454995486976e+00 6.8147003801182287e+00 1.4844305735091970e+01 0 0 0
515 2 -8.5103409873379832e-01 5.9716771938685715e+00 1.5310618131370628e+01 0 0 0
516 2 -2.0700704930621510e+00 6.8354070187331510e+00 1.4826357132202421e+01 0 0 0
794 2 1.2821514623572886e+01 1.1145084777464897e+01 1.2513918978094148e+01 0 0 0
519 2 1.9728452566831702e+00 5.3048174599503355e+00 1.8402768486481172e+01 0 0 0
524 2 -2.8544019499076181e+00 3.6174346431721429e+00 1.0105844441521132e+01 0 0 0
522 2 2.2160932626934735e+00 5.2432045874017890e+00 1.0753429882939328e+01 0 0 0
19 1 -5.4405956507719653e+00 2.4436782929480687e+00 1.9253900781294604e+01 0 0 -1
752 2 3.1493262819290151e+00 9.3700878291029355e+00 1.0617356471154116e+01 0 0 0
525 2 -1.8485437395219746e+00 2.5956820366950693e+00 1.0783044234153117e+01 0 0 0
656 2 2.9300803138176192e+00 5.7054239550185404e-01 1.7371789517588866e+01 0 1 0
527 2 -2.4924293298862490e+00 2.6466468960588738e+00 1.8742944246753680e+01 0 0 0
529 1 1.5111374002943645e+00 6.5158844455855194e+00 1.7052551001261122e+01 0 0 0
530 2 1.3954732026770049e+00 6.1878369804499869e+00 1.6145131669235560e+01 0 0 0
531 2 6.3809824952799143e-01 6.9384172284748935e+00 1.7240250846547283e+01 0 0 0
532 1 2.5465901052169739e+00 6.2989082834858410e+00 1.2113399878844538e+01 0 0 0
533 2 3.4711028192446927e+00 6.6142610651703144e+00 1.1989117740188862e+01 0 0 0
534 2 2.4328304324213290e+00 6.1326542393531671e+00 1.3072572610166409e+01 0 0 0
535 1 -2.1543822825280783e+00 1.4094397669693841e+00 1.2136590018356630e+01 0 0 0
669 2 1.2399535704222565e+01 2.1737173468203332e+00 1.0410083296346997e+01 0 0 0
670 1 8.1021151082554326e+00 6.1911166243453311e+00 9.8763056376265119e+00 0 0 0
538 1 -2.5351266298350748e+00 1.6092666489409291e+00 1.7146084144555509e+01 0 0 0
539 2 -3.4531086926416523e+00 1.2412865168620113e+00 1.7125976244845020e+01 0 0 0
540 2 -2.3911525910096278e+00 2.1057460591130881e+00 1.6351370931688685e+01 0 0 0
541 1 3.1081692133972103e+00 2.4107204400192010e+00 1.2175190307087600e+01 0 0 0
542 2 3.3140367494322840e+00 1.8191192581646887e+00 1.2918951022762972e+01 0 0 0
543 2 3.3053108344039583e+00 2.0209412794514603e+00 1.1322871600440330e+01 0 0 0
544 1 1.0971289663779569e+00 2.9159542022778839e+00 1.7049591139182922e+01 0 0 0
545 2 8.1590893423632771e-01 2.5986686800495202e+00 1.7995274825754542e+01 0 0 0
546 2 8.5582773313266625e-01 2.1773973194228988e+00 1.6456012497137202e+01 0 0 0
547 1 -3.3093679449153535e+00 5.1901287638635996e+00 1.6907789392939705e+01 0 0 0
548 2 -3.8176272825978366e+00 4.3199118988146887e+00 1.6843833256197833e+01 0 0 0
549 2 -3.6246529452046774e+00 5.4370972555485775e+00 1.7815898319120109e+01 0 0 0
550 1 -1.2953303448095084e+00 5.4845780096849390e+00 1.2374576944054235e+01 0 0 0
551 2 -5.8428300712091197e-01 4.8737029713054829e+00 1.2215869227469229e+01 0 0 0
552 2 -1.0592109420018576e+00 6.0378483539699852e+00 1.3144805446589370e+01 0 0 0
553 1 3.3632315805450457e+00 3.6761961124406928e+00 1.5731765582311835e+01 0 0 0
554 2 2.6833268109166708e+00 3.1996887585338301e+00 1.6221193472103423e+01 0 0 0
555 2 4.1575270770955592e+00 3.6518969476712027e+00 1.6277307481085316e+01 0 0 0
556 1 7.6951835758682030e-01 3.5991029986473002e+00 1.2729569580830779e+01 0 0 0
557 2 1.6966046645929467e+00 3.2766937373291980e+00 1.2464769016297925e+01 0 0 0
558 2 5.5635775206181570e-01 2.9246247926322777e+00 1.3353289360061652e+01 0 0 0
559 1 -3.8472622538090064e+00 4.4424201672652197e+00 1.2947993390194000e+01 0 0 0
560 2 -3.0027935737935350e+00 4.7056889301213198e+00 1.2571032757060511e+01 0 0 0
561 2 -3.5274687640386091e+00 3.9406271263271786e+00 1.3715320522565992e+01 0 0 0
562 1 -6.9634038932522646e-01 4.5752988542844868e+00 1.6129741384978882e+01 0 0 0
563 2 9.7984900889187543e-03 3.9476467495595817e+00 1.6466512370626845e+01 0 0 0
564 2 -1.3664244107188148e+00 4.6973002762818492e+00 1.6796695448170269e+01 0 0 0
565 1 4.8838836844795654e+00 7.1185304366481317e+00 1.1364443176685194e+01 0 0 0
566 2 4.4342095399019614e+00 7.7926820103836825e+00 1.0758484989165744e+01 0 0 0
567 2 4.9578728681532951e+00 6.3200009568948410e+00 1.0822778285399318e+01 0 0 0
568 1 -8.6154895871484971e-01 7.3035073329213507e+00 1.8016707754751359e+01 0 0 0
569 2 -1.0504942748704078e+00 6.5096504989668418e+00 1.8621712262561211e+01 0 0 0
570 2 -5.7299678678000188e-01 8.0723159249431422e+00 1.8530108429084962e+01 0 0 0
608 2 5.9938928385312478e+00 3.6189217081429192e+00 9.7882541806476535e+00 0 0 0
572 2 -5.7040144241796522e+00 1.1106836686762247e+00 1.7909743886667314e+01 0 0 0
824 2 2.7432725989091358e+00 7.5215579444882277e+00 1.7452314670757779e+01 0 0 0
509 2 1.4002996986395555e-01 7.9321435409679264e-01 1.4698223737810272e+01 0 0 0
576 2 5.8374291079326257e-01 1.1563937011203551e+00 1.0724588033724890e+01 0 0 0
577 1 1.7797180497254468e+00 5.5442891268823367e+00 1.4579760552698161e+01 0 0 0
578 2 1.2228381749607777e+00 4.9040098654187281e+00 1.4118982092634406e+01 0 0 0
579 2 2.4811324264736605e+00 4.9160332591381470e+00 1.4816085898448797e+01 0 0 0
580 1 -2.2861374902163538e+00 2.9351445382000780e+00 1.4565642351007577e+01 0 0 0
581 2 -1.9853490144585733e+00 2.4275901531589872e+00 1.3800564133735350e+01 0 0 0
582 2 -1.5588395615998420e+00 3.5273988444600333e+00 1.4827859381249979e+01 0 0 0
807 2 1.2737061877758753e+01 9.9670749414061337e+00 1.5596842016166235e+01 0 0 0
986 2 1.3333621580565232e+01 1.7899593039915432e-01 1.0694978568104785e+01 0 0 0
589 1 1.2686463150570297e+01 9.2596823649590465e-01 1.4235911624403816e+01 0 0 0
590 2 1.1824834776203287e+01 5.2958638469363550e-01 1.4149122799637830e+01 0 0 0
591 2 1.2688515131080925e+01 1.5191727617328208e+00 1.4993107140749000e+01 0 0 0
592 1 9.9016410429120221e+00 8.9291575439119564e-01 1.4738501462001057e+01 0 0 0
332 2 9.3615842127198370e+00 9.5132440489977075e+00 1.8511536881589002e+01 0 0 0
594 2 9.5997251505015626e+00 1.6238496713256891e+00 1.4199747657604004e+01 0 0 0
595 1 4.7860909724452139e+00 6.2708361317430610e+00 1.4767504345239306e+01 0 0 0
596 2 4.9070712951101578e+00 5.7063597834663291e+00 1.5578288633663771e+01 0 0 0
597 2 4.8110639083800102e+00 5.5540700732502231e+00 1.4087206325007568e+01 0 0 0
598 1 7.6497033365112408e+00 6.4755025044523338e+00 1.4195083665216465e+01 0 0 0
599 2 6.7873345542984156e+00 6.1456090642259724e+00 1.4529415036835683e+01 0 0 0
600 2 7.7160644565838403e+00 5.8735426950360097e+00 1.3327754547893610e+01 0 0 0
749 2 -1.9975983617923219e+00 1.0366618623533164e+01 1.4824324296837737e+01 0 0 0
603 2 1.1041008757067354e+01 5.1950294438383109e+00 1.7951518778695899e+01 0 0 0
275 2 9.8366345705830600e+00 9.0696852676226829e+00 9.9720553378996506e+00 0 0 0
605 2 1.0962338295154087e+01 5.2117767349667705e+00 1.0842518387017204e+01 0 0 0
333 2 8.5300789785660633e+00 8.2684876943221273e+00 1.9161774777748384e+01 0 0 0
826 1 9.5562884868466611e+00 7.8585191060760833e+00 1.1251678383421316e+01 0 0 0
191 2 4.9368508342777329e-01 9.6862866084368395e+00 1.0367547678964737e+01 0 0 0
609 2 6.2024088806062103e+00 2.3765310066458376e+00 1.0819227621899538e+01 0 0 0
823 1 3.5514395322902867e+00 7.8363547804607787e+00 1.7901087698661797e+01 0 0 0
611 2 6.4886829552966656e+00 2.2986088714819806e+00 1.8339574151927458e+01 0 0 0
613 1 1.0554854789104226e+01 6.4403657482230354e+00 1.6664654724484151e+01 0 0 0