LAMMPS data file via write_data, version 3 Mar 2020, timestep = 19100000

2016 atoms
2 atom types

0.0000000000000000e+00 1.7923248267964990e+01 xlo xhi
-2.3431689262702697e+00 4.7339328903189681e+01 ylo yhi
0.0000000000000000e+00 1.9064167252212307e+01 zlo zhi
4.6114565239027169e-02 -6.6394386822522122e+00 -2.0765133472472996e-02 xy xz yz

Masses

1 16
2 2

Atoms # atomic

811 1 -2.8903057365127411e+00 7.2814291850773483e-02 1.4821090220647696e+01 -2 0 -3
364 1 1.2930682017313528e+01 3.2869216859607011e+00 5.2090879914128729e+00 1 0 -1
791 2 3.2461491157409244e+00 4.0680517063039545e-01 9.0388845381191523e+00 -2 0 1
1988 2 1.3122871901504848e+01 7.3242810244544856e+00 1.1808443627650167e+01 0 1 -1
618 2 1.1920845515395717e+00 -1.6744782437794496e+00 1.3843328905131502e+01 -1 0 -1
274 1 9.6846242709382011e+00 1.1740056969984827e+00 1.8105378134206511e+01 4 0 -3
478 1 1.5417658095185773e+01 8.4387147038088841e+00 4.0225482393046716e+00 -2 0 -3
696 2 1.3441295899018282e+01 -3.0674416849816621e-01 2.2144009994161511e+00 -2 0 1
715 1 2.7545550894307853e+00 5.6848884808147329e+00 1.5959995878260226e+01 2 0 1
991 1 3.1430213207390940e+00 4.7074650774862068e+00 2.1507333095330456e+00 2 0 1
617 2 3.6379338056129917e-01 -1.3679994906765027e+00 1.5165259902438221e+01 -1 0 -1
261 2 4.4624892763913904e+00 -7.9350200216131483e-01 1.7709211958015370e+01 0 0 0
1921 1 -1.4810559092893052e+00 1.8025283362312283e-01 4.8255177872996553e+00 1 1 1
1067 2 1.4220618571103996e+01 7.6760099729683642e+00 2.7736202114390998e+00 -2 0 0
279 2 1.0452869585586171e+01 6.0347732119005926e+00 1.3072857597588039e+01 -3 0 0
1079 2 1.9316158546465625e+00 6.1821352619755210e+00 3.9497021572573789e+00 -1 1 2
1144 1 8.2510786015798985e+00 8.2208740614257785e+00 4.8521321213966102e+00 1 0 2
695 2 1.4852308744211323e+01 2.0350526149470216e-01 1.7069832665247044e+00 -2 0 1
1655 2 3.4972311786154120e-01 4.7871098471902549e+00 5.4022070342720170e+00 2 0 1
1441 1 5.6212950016367493e+00 8.4769901199589430e+00 7.4934521364873321e+00 2 1 2
1361 2 4.6179943300047546e+00 6.8092673999635238e+00 1.3281358706187303e+01 1 1 -1
1981 1 1.0047587207077468e+01 5.0005928921553133e+00 8.6165790792241754e+00 0 1 1
590 2 1.1508172271282586e+01 3.7267646979318902e+00 1.8311582293313311e+01 -6 0 0
527 2 7.4331052915554485e-01 2.1950407783304238e+00 3.5861139569578144e+00 -1 0 -1
1482 2 1.2332696708679361e+01 4.9172380446147139e+00 1.4567232469438229e+01 1 1 0
454 1 6.9188870961554105e+00 1.0700933220787259e+00 1.7650761727258647e+01 0 0 2
1500 2 -3.1059925834759188e+00 6.2488107366611487e+00 1.7853730554470499e+01 0 1 -1
1965 2 6.2547881425606668e+00 7.9262890106866060e+00 1.4710375811139428e+01 -2 1 -1
1676 2 9.4210671942826316e+00 6.8786276945473315e+00 1.4806214433632455e+01 -1 0 0
661 1 6.2895190600543867e+00 7.4400491752659423e+00 2.3432452381271083e+00 -1 0 1
672 2 1.6779257303208659e+00 3.8515367307022972e+00 2.4266005801479409e+00 -5 0 -1
1591 1 -2.7318903369946366e+00 -2.1251063079025001e+00 1.2379970466153951e+01 0 0 -2
45 2 2.4635505143642638e+00 5.2838496205188923e+00 6.0719913463551176e+00 -2 0 2
401 2 5.7362541517090881e-01 8.1670534244275572e+00 3.1659992265696286e+00 0 0 0
399 2 1.1993439120017340e+01 6.7545445220430800e+00 2.8270975955925532e+00 0 0 1
487 1 -3.1656156897089729e+00 5.4528217665747256e+00 9.1798856864194587e+00 -4 0 2
1492 1 7.4275763639796670e+00 5.2143853059271592e+00 3.2484397875035347e+00 -2 1 0
641 2 1.2561699871123146e+01 -8.4793392050383076e-01 1.1113314323542230e+01 2 0 -2
1654 1 1.2614629372628201e+00 4.3274724855643205e+00 5.4785648908778617e+00 2 0 1
815 2 2.8707179469878978e+00 2.2126321631667807e+00 1.2153101530885788e+01 4 0 1
165 2 5.3139178002335470e+00 -8.6722775118358442e-01 1.1923637996214225e+01 3 0 0
297 2 -3.1143053050119049e+00 4.9866505906547287e+00 1.5132238904153175e+01 1 0 2
889 1 1.6600275470231892e+01 4.8747322159660866e+00 2.8830044465282993e+00 -2 0 1
1985 2 8.0576464841692630e+00 1.4020383623467758e+00 7.5355408653997920e+00 0 1 0
604 1 1.2217754698395673e+01 4.0897278300526887e+00 2.5930300202256809e+00 1 0 0
91 1 1.0916872500375089e+01 1.7156457106886016e+00 1.5663147101007118e+01 3 0 2
468 2 9.7417236699250651e+00 -4.8450511659356987e-02 1.2591439170495656e+01 -6 0 0
1613 2 1.0121873242091816e+01 2.2197260064149429e+00 2.7814321879643287e+00 0 0 1
581 2 3.0132631970340240e+00 -2.0545793795932923e+00 8.0392163235754168e+00 -1 0 2
1950 2 5.8350587605966098e+00 -8.5085329618562988e-01 1.4469691660309502e+01 -1 1 0
757 1 7.4484427567725700e+00 1.1355410788473703e+00 3.9112166777988127e+00 -1 0 1
1374 2 6.9797674384684143e+00 5.1068712808640173e+00 1.1949753537982350e+01 0 1 -1
591 2 1.0978676840190039e+01 2.1954513835603118e+00 1.8611173411455887e+01 -6 0 0
927 2 6.0627437790610639e+00 6.0960156698827852e+00 9.5867898937934477e+00 3 0 4
36 2 4.2824786947439719e+00 8.9480648267122760e+00 1.7380969870689317e+01 -2 0 0
946 1 1.8422552958471332e+00 9.8937540126188459e+00 6.8442609439403341e+00 1 0 3
362 2 1.3367378962739172e+01 2.2529767935932234e+00 9.0667986909266478e+00 -1 0 -3
387 2 2.9906414577970937e+00 -1.6418594159995590e+00 5.6460032993826017e+00 4 0 -2
287 2 6.0617638108250631e+00 6.9275414539823039e+00 6.5034400713917311e+00 0 0 -3
175 1 1.6440388901929390e+00 9.1941490040936849e+00 1.0374967463870929e+01 -5 0 3
281 2 -3.1648039457787380e+00 9.4180725872264457e+00 1.0204115971591829e+01 -5 0 -1
246 2 1.3732819485048006e+01 4.0726446626301058e+00 1.8897316544672444e+00 -3 0 -4
164 2 4.2470362715429202e+00 -8.9135310694465852e-01 1.0729535446847903e+01 3 0 1
1030 1 3.9125353288665909e+00 1.5937375432649565e+00 2.4376384739949628e-01 0 0 1
726 2 9.1343581305639354e+00 3.7465014486586794e+00 1.0756885834600534e+00 0 0 2
384 2 -1.3523168416568891e+00 2.8296108727413731e+00 1.7336263366119042e+01 -2 0 -1
327 2 1.1124992386490131e+01 3.6196786223367985e+00 1.5883309053916442e+01 -1 0 -1
1561 1 3.0998704531254200e+00 7.6578783275342932e+00 8.6241936965147659e+00 1 0 1
749 2 -4.3649396021793285e-01 5.6872688631344399e+00 1.4214037253011427e+00 -3 0 1
295 1 -2.1852964413852463e+00 5.0452594322103623e+00 1.5450334101047025e+01 1 0 2
762 2 6.4320592674211321e+00 2.2481104297430416e+00 2.8209083001140076e+00 -1 0 1
311 2 5.8671627113112823e-01 5.7615364711239909e+00 1.2537909321639102e+01 0 0 -2
814 1 3.0716610739714154e+00 1.4968792832474453e+00 1.2822977598666277e+01 4 0 1
663 2 6.0746190090929373e+00 7.0295783155087257e+00 1.4999537389649367e+00 -1 0 1
1124 2 1.0439053320948180e+01 -1.0774127694665740e+00 1.5646398510701706e+01 2 0 -1
916 1 1.9741542657031204e+00 3.1291737396727353e+00 1.7123690415876201e+01 0 0 3
1545 2 5.5627402902196366e-01 3.1409920703491547e+00 1.4041483938505380e+01 -2 0 -1
759 2 7.4526969563308709e+00 1.6480612803026373e-01 3.7241695724959034e+00 -1 0 1
2007 2 1.8414243741738003e+00 1.3315679946395775e-01 2.3746554936158821e+00 1 1 1
1141 1 1.2207848622831747e+01 -1.6193587072608819e+00 1.5298297403123531e+01 2 0 -1
891 2 1.5858463413982379e+01 4.5143223416060136e+00 2.4662154375272358e+00 -2 0 1
194 2 7.1999628494336836e+00 2.0134551267099026e+00 9.6361729572563490e+00 -2 0 -4
706 1 7.3262545004089574e+00 9.3407262125314308e+00 1.5705645105096107e+01 0 0 1
1499 2 -1.5690299344292553e+00 6.5050570799091822e+00 1.8183936064034377e+01 0 1 -1
1443 2 4.6860124179773708e+00 8.2541921035288404e+00 7.6475469792825512e+00 2 1 2
485 2 6.8516740384412760e+00 4.4220619659903218e+00 3.0353608133307715e+00 -2 0 0
1480 1 -4.7146576955789916e+00 4.8772197367557881e+00 1.4144517394686336e+01 2 1 0
1667 2 9.8987938763953203e+00 8.3196781564924560e+00 7.9837423596815089e+00 -1 1 -2
124 1 6.4284024445857462e+00 9.9068117431890368e+00 9.9015533423351396e+00 -1 0 1
92 2 1.0614321519668870e+01 1.4044041273066372e+00 1.4798697244501414e+01 3 0 2
1876 1 8.5315495969989179e+00 5.2393748897583370e+00 1.7494445182199666e+01 -1 1 1
260 2 5.3460713518495631e+00 -2.0526198947118024e+00 1.7996100689891648e+01 0 0 0
1553 2 4.3080120335175254e+00 3.0437579837650457e+00 1.4804559350756167e+01 0 0 1
1973 2 -6.1423596361802160e+00 -1.1174501217687454e+00 1.8219449204939583e+01 1 1 0
320 2 5.1800705799083691e-01 3.3860255649027904e+00 1.8298278160197526e+01 -3 0 -4
871 1 4.5739840874934350e+00 5.1801601655695091e+00 4.2020389797474271e+00 0 0 -1
365 2 1.3173800525633412e+01 2.3241791222981698e+00 5.1615223983533731e+00 1 0 -1
884 2 2.8441042154354941e+00 3.8030845656378380e+00 1.0304934227244294e+01 3 0 2
505 1 6.4888383235961120e+00 6.3309676304071605e-01 1.2563428534045370e+01 -3 0 -2
1452 2 1.1538491652407005e+01 2.2588056261000240e+00 7.7345556254665073e+00 0 1 2
89 2 4.6659183879295263e+00 7.9562247404117006e+00 3.2767879815282579e+00 -1 0 0
2003 2 8.1034457203593782e+00 3.0632409795236324e+00 1.1723685698901626e+01 1 1 0
694 1 1.4266266040356943e+01 -5.6129118221266472e-01 1.8207675184189251e+00 -2 0 1
1368 2 -5.1530877948587861e-01 3.4692450275914011e-01 1.6623552955615317e+01 -1 1 -1
46 1 -7.2894271835503233e-02 6.0946279954083149e+00 1.8942340284524548e+01 -4 0 -1
557 2 -1.3350071006793527e+00 5.4603541970059650e+00 4.4341982823614980e+00 -2 0 1
489 2 1.4796910062118371e+01 5.0655550256650805e+00 8.3033194704691589e+00 -5 0 2
870 2 -4.8204964097618497e+00 5.1958490717765802e+00 1.7340774127673818e+01 3 0 -3
306 2 1.2553456045025227e+01 -2.0735876278249097e+00 5.0977087076519334e+00 -1 0 -5
90 2 4.8059449071579845e+00 8.9821261524241791e+00 4.3909280395587400e+00 -1 0 0
1170 2 -1.3426982584177329e+00 9.0805912347720685e+00 1.1425674185405290e+01 0 0 2
918 2 1.6191750717338911e+00 2.7761403542910124e+00 1.6284436689868624e+01 0 0 3
532 1 4.6160486059231012e+00 -1.2593997716506442e+00 3.1192305220118923e+00 -4 0 -1
623 2 8.1943148259259502e+00 5.3300441230600653e+00 1.5800320368124090e+01 -4 0 -2
1031 2 3.4089178704520728e+00 1.1614657021671171e+00 9.3477443468367483e-01 0 0 1
1668 2 1.0124442272648459e+01 6.8830355030949057e+00 8.6330144818652759e+00 -1 1 -2
1168 1 -7.0104156429812559e-01 8.4215133144147991e+00 1.1792923864060109e+01 0 0 2
374 2 1.5320081306869593e-01 -8.6284680541488101e-01 2.5396902854717536e+00 3 0 3
1111 1 3.8822939358582635e+00 4.0748307546429530e+00 8.7386630697246215e+00 2 0 1
662 2 7.0242026778002344e+00 8.0574792906578629e+00 2.2068880801557271e+00 -1 0 1
677 2 1.0696098922032284e+01 1.4031341955856633e+00 1.1547100948524401e+01 -2 0 -1
917 2 2.5190368712620783e+00 3.8457073119418057e+00 1.6782124020754161e+01 0 0 3
296 2 -2.2107619728096783e+00 5.7444338110129554e+00 1.6203339510381554e+01 1 0 2
1013 2 9.0907989520673489e+00 8.8573785798079303e+00 1.9910912282623472e+00 1 0 1
163 1 4.9115718896485028e+00 -1.4123646616861909e+00 1.1223980748273055e+01 3 0 0
1993 1 6.0460049076476370e+00 3.5531853944688017e+00 1.7220880643611761e+01 1 1 -1
456 2 6.4710982599733882e+00 2.2901527651835574e-01 1.7805825000705315e+01 0 0 2
1949 2 6.8553287218386982e+00 -1.6448264034955011e+00 1.5507773427590880e+01 -1 1 0
609 2 -2.4302417410886834e+00 7.9411787145211381e+00 1.4455430552146565e+01 -3 0 -1
1032 2 4.1555055013689532e+00 2.3775486169648081e+00 6.6383996358532260e-01 0 0 1
754 1 -4.5288094952900391e+00 -7.9003677645849768e-01 1.7706613932303870e+01 3 0 2
605 2 1.1714732939939612e+01 4.9650172000054829e+00 2.6399875897713962e+00 1 0 0
1451 2 1.0601731433562470e+01 3.5686004177255430e+00 7.6643097947967256e+00 0 1 2
488 2 -2.1904185184501124e+00 5.6639447327573063e+00 9.2235480251910751e+00 -4 0 2
2006 2 3.3682489303673901e+00 4.6733698383270017e-03 2.6076890299476991e+00 1 1 1
486 2 7.0588573042700959e+00 6.0222411137239344e+00 2.7922905228904313e+00 -2 0 0
94 1 1.0266248333555875e+01 8.1050384337364374e+00 1.0305975070723548e+00 1 0 0
342 2 1.3843695605199485e+01 2.7426747246522085e+00 1.1240245333202507e+01 -4 0 -1
1408 1 -2.0974512866715045e-01 8.5757181073711450e+00 2.7003568561770073e+00 0 1 0
363 2 1.2733471471532850e+01 8.3747277644378215e-01 8.7785628885228952e+00 -1 0 -3
1637 2 6.9896470015775387e+00 -1.7300469842086348e+00 7.4725337950246340e+00 1 0 1
288 2 6.6455851364275222e+00 5.5051481417769743e+00 6.2243394298235071e+00 0 0 -3
675 2 -5.8970392165754060e-01 8.1742668812458987e+00 7.4613788050827896e+00 2 0 -1
1068 2 1.3071774573984555e+01 8.4279030141760760e+00 1.9441322713512441e+00 -2 0 0
678 2 1.0534834316417960e+01 1.1445956934868682e+00 1.0050225225496600e+01 -2 0 -1
1670 2 4.3098614526874712e+00 2.1227401792386136e-01 1.5274427006365734e+01 0 0 0
1007 2 1.5687284194745303e+01 2.3392767309168381e+00 1.4755962403431981e+00 -2 0 2
610 1 1.0164526603961583e+01 6.8548186824691317e+00 5.5024931949879132e+00 -2 0 1
1051 1 1.2300219274731027e+01 8.0167470166416610e+00 6.6595533599337093e+00 -1 0 0
1143 2 -5.1647591533473838e+00 -1.3590944249473185e+00 1.6054920255009971e+01 3 0 -1
278 2 9.3526445523762405e+00 5.5012258344665907e+00 1.2224128397482412e+01 -3 0 0
147 2 -4.9817648006473370e-01 3.3544610640298282e+00 1.2042010665313528e+01 4 0 1
1078 1 -7.8664734767530575e-01 2.3343931714598920e+00 1.0401438794245914e+01 0 0 1
337 1 1.1791220855953586e+01 4.4937520589273614e+00 1.0554485075263553e+01 0 0 -2
979 1 4.1095689493377296e+00 9.3844504245117815e+00 1.1351448886889377e+01 -3 0 -2
1885 1 2.1540901491965387e+00 7.5080868109927934e+00 1.7876436620531578e+01 -1 1 1
1901 2 1.5025054892677185e+01 -1.9025469276102343e+00 2.7944752462098070e+00 -1 1 1
135 2 8.4606049088091844e+00 -5.0993835697927081e-01 5.5128732413795700e-01 -2 0 -1
730 1 9.0286618758386510e+00 8.9785299921512358e+00 1.3170694432377543e+01 -3 0 -1
821 2 -4.7471513149068114e+00 8.1583525243158821e+00 1.5189618579681380e+01 -2 0 1
1610 2 1.0387763410412516e+01 9.3351006849775029e+00 1.8876677280403257e+01 1 0 0
1892 2 1.1718178772092996e+01 -3.6012835558135592e-01 7.2683700061169609e-01 -1 1 2
253 1 3.9659065707958909e+00 2.3672807938448770e+00 4.1294603902255878e+00 -4 0 0
1614 2 1.1121218546503147e+01 3.0385780644102365e+00 1.8181494283801971e+00 0 0 1
538 1 3.2454703000725260e-01 5.6571285830184603e+00 1.4425847209346038e+01 -5 0 -6
95 2 1.0476861982619464e+01 7.5106120473636686e+00 1.7864970619972427e+00 1 0 0
1888 1 3.1379724363565487e+00 -6.5972093580706526e-01 1.6766082772423360e+01 -1 1 -1
786 2 -2.2558495568472261e+00 7.5923168170292570e+00 6.9326446938940816e+00 -3 0 -2
2014 1 -3.5219163048071422e+00 2.6255107424496780e+00 1.2902559261368069e+01 2 1 2
70 1 1.7042454744761102e+00 7.1288361505787883e+00 4.0369486277698252e+00 -1 0 2
34 1 3.6684415581002456e+00 9.7016979694117342e+00 1.7096263124470411e+01 -2 0 0
642 2 1.2254679912186084e+01 -1.9194899628711746e+00 1.2228952581834225e+01 2 0 -2
1984 1 8.7550032178178370e+00 1.1321813438716135e+00 6.8979109279590425e+00 0 1 0
844 1 9.9984341119605311e+00 -1.7763207953916704e+00 9.5070713520342878e+00 -1 0 -1
698 2 7.3312377032959688e+00 2.9089016957392371e+00 6.5704067867252878e+00 2 0 6
1089 2 1.3526076338810822e+00 2.8973973232038785e-01 7.3730419040578425e+00 1 0 1
418 1 3.3841373833091000e+00 9.0604462556781833e+00 1.4497971276696477e+01 -2 0 -1
712 1 -5.9658385724727516e+00 9.8162425840974592e+00 1.7928577785782501e+01 3 0 3
1878 2 7.7142719465946126e+00 4.7313519752858237e+00 1.7620570554988280e+01 -1 1 1
738 2 1.1480198963271627e+01 -1.1738329835024397e+00 9.3454667391310071e+00 0 0 0
1887 2 2.1674985830278128e+00 8.4562254391611305e+00 1.7601260065290539e+01 -1 1 1
724 1 8.7616285147940456e+00 4.5612171680125746e+00 7.1068632461775183e-01 0 0 2
1088 2 8.3932240769190258e-02 8.6326080249907644e-01 8.2400209810393896e+00 1 0 0
1891 1 1.1557009313142810e+01 -1.6631388854571405e-01 1.6520341281682440e+00 -1 1 2
1145 2 8.2429758598880465e+00 8.5069038663978986e+00 3.9257692666038779e+00 1 0 2
1562 2 2.4093664017767806e+00 8.2031793558928499e+00 9.0515774605208819e+00 1 0 1
17 2 -2.1250429033997609e-01 3.4453640127955119e+00 7.2694572371517081e+00 2 0 3
1362 2 4.3553254083367410e+00 6.1992678500653025e+00 1.1910920095339103e+01 1 1 -2
406 1 3.8422622080492546e+00 1.5980124138700122e+00 7.6996951222856405e+00 1 0 -2
624 2 8.1965208572970383e+00 4.8336406718406080e+00 1.4306351981797301e+01 -4 0 -2
312 2 2.0149018956714793e+00 6.4082280148253901e+00 1.2018151608925024e+01 0 0 -2
1569 2 1.2349446116140296e+01 9.5588665216825621e+00 5.2368088627815848e+00 0 0 -1
561 2 5.3680151842635011e+00 3.7375058881398502e+00 1.3152124841070725e+01 -3 0 -1
853 1 1.0192877021012041e+01 1.7052993344473117e+00 4.3386222669231813e+00 -2 0 -3
224 2 1.3711593304040573e+01 -2.0816122091641232e+00 7.8360349652956052e-01 -3 0 -2
1014 2 7.9798209204867874e+00 9.8471582010323093e+00 1.7602137735583323e+00 1 0 1
2004 2 9.2289664003583365e+00 2.4474809899071310e+00 1.0861997749638425e+01 1 1 0
560 2 4.6365188422563755e+00 3.5423718403015725e+00 1.1877076857814798e+01 -3 0 -1
1550 2 8.8259993605020863e+00 7.7722395025164808e+00 9.9893618631247172e+00 -1 0 1
308 2 1.1569075459579309e+01 9.8825161968998998e+00 1.0834591207140280e+01 0 0 2
540 2 -6.0927941210069037e-01 5.5473274890427646e+00 1.4574663614868484e+01 -5 0 -6
134 2 7.1453872256793600e+00 -1.1363558072908146e+00 2.7203031760752422e-01 -2 0 -1
630 2 8.9198465900212653e+00 9.1904586651084657e+00 6.2230934409256236e+00 -2 0 2
1974 2 -8.6782283715426900e-02 -8.7720011194812431e-01 5.1919743432785437e-01 1 1 1
339 2 1.1910532401779069e+01 3.5262908127552226e+00 1.0633108531022302e+01 0 0 -2
1360 1 3.9274513635186263e+00 6.8007835644665136e+00 1.2598061305050985e+01 1 1 -2
1554 2 5.4261755967526675e+00 3.7658765267031331e+00 1.5660283354033405e+01 0 0 1
1113 2 3.7372006990304039e+00 4.6480445485021180e+00 7.9113618751149586e+00 2 0 2
1373 2 7.6997134388822213e+00 6.3089572668875888e+00 1.1228877087978907e+01 0 1 -1
1052 2 1.3202227649507410e+01 7.5210839815132253e+00 6.6076315051400902e+00 -1 0 0
1638 2 5.6432302319655321e+00 -2.0896411914755935e+00 7.0294631202930935e+00 1 0 1
816 2 2.5917020604674752e+00 6.6079600839360397e-01 1.2469360562154462e+01 4 0 1
658 1 1.0246841392317261e+01 7.8742803270987682e+00 8.7831868082389111e+00 -1 0 -2
507 2 7.2047979572348604e+00 3.1556280964263772e-01 1.2030019696574987e+01 -3 0 -2
2002 1 8.2272709445287635e+00 2.6359243580571103e+00 1.0882309931703945e+01 1 1 0
897 2 9.5653041358546993e+00 3.4703211856811480e+00 1.3314258208978606e+01 -2 0 0
548 2 6.1488508214693658e+00 7.5044347640753273e+00 1.7601287331235490e+01 -5 0 -4
883 1 2.7883264110259183e+00 3.7269676935205780e+00 1.1280004466652656e+01 3 0 2
654 2 9.7703304041294974e+00 5.2584753599312259e+00 5.2851607856162479e+00 0 0 2
868 1 -4.6225107424438079e+00 5.5617614806929216e+00 1.8217397783244540e+01 3 0 -3
854 2 1.0989243169499268e+01 1.2294055050721111e+00 4.2424257773663729e+00 -2 0 -4
896 2 8.6093077715764359e+00 2.4089714157389590e+00 1.4149221344712233e+01 -1 0 0
1552 1 4.8159094661026973e+00 3.8390966805924824e+00 1.4892655169860090e+01 0 0 1
388 1 1.5311799800756148e+01 3.7599092933324023e+00 6.8434506652208986e+00 -4 0 -2
1064 2 -2.3735751820260140e+00 1.9493912708586469e+00 7.0792702956681088e+00 -1 0 -1
1889 2 2.6715159347908273e+00 -2.1705458872393368e-01 1.7467154656217222e+01 -1 1 -1
855 2 1.0252826304345788e+01 2.4208195103630237e+00 5.0232828544732548e+00 -2 0 -4
310 1 1.2988473811182111e+00 5.7587299922084547e+00 1.1866002463406025e+01 0 0 -2
812 2 -2.6910747000534507e+00 8.7050569704630876e-01 1.5327640948930139e+01 -2 0 -3
419 2 2.4899576048453484e+00 8.8730420969103729e+00 1.4091113143443938e+01 -2 0 0
674 2 -1.4807958935292873e+00 9.2572886193181656e+00 8.2043189730516044e+00 2 0 -1
725 2 8.2996883548814591e+00 4.9729342159944512e+00 1.4247914188198911e+00 0 0 2
467 2 1.1274582706890330e+01 -9.0571626849519138e-02 1.2806353918007625e+01 -6 0 0
1549 1 8.1147854995164419e+00 7.9448352109716591e+00 1.0651638222904781e+01 -1 0 1
559 1 5.5767135167397681e+00 3.4876630798991917e+00 1.2195719348252666e+01 -3 0 -1
375 2 -3.9214719292193184e-01 4.7001920272688613e-01 1.9753581210792006e+00 3 0 3
640 1 1.2627839390244915e+01 -1.0134774117667977e+00 1.2047191540889525e+01 2 0 -2
526 1 6.5405852343853321e-01 1.8201136594314047e+00 4.4596047941070784e+00 -1 0 -1
1987 1 1.3457706109925924e+01 6.4466685783889002e+00 1.1796367768323787e+01 0 1 -1
1062 2 -3.4994765563215955e+00 2.3294214376616651e+00 1.6570542918010101e+01 -1 0 -3
1516 1 2.2695282374213899e+00 2.2039994618918435e-01 5.9433256509383883e+00 -1 0 0
872 2 4.4816999477892363e+00 4.2679338681779297e+00 4.4180639389106799e+00 0 0 -1
676 1 1.0804254307149865e+01 1.8335932443343648e+00 1.0638680903703088e+01 -2 0 -1
652 1 9.3210249099900455e+00 4.4160876007607284e+00 4.9245372433720656e+00 0 0 2
325 1 1.1308904451572189e+01 4.4958679912556434e+00 1.6262123333100384e+01 -1 0 -1
48 2 -4.8879367046241740e-02 5.1209324870182300e+00 1.8700650467235288e+01 -4 0 -1
1125 2 9.0787784224545369e+00 -4.1505650770235825e-01 1.5074951507808882e+01 2 0 -1
697 1 7.2388697803810835e+00 3.8254307444154128e+00 6.3184077048595340e+00 2 0 6
1922 2 -1.6672779916664058e+00 3.2831575678493685e-01 5.7618384897529404e+00 1 1 1
1677 2 1.0026334151889564e+01 8.0624428610079164e+00 1.4070845140860838e+01 -1 0 0
1494 2 -1.5908256222860704e+00 5.1209049609528083e+00 1.2697736148496151e+01 4 0 2
895 1 8.7061917784904228e+00 3.2547952427548514e+00 1.3710594061187189e+01 -2 0 0
1669 1 4.8257601456262087e+00 5.3169700066874936e-01 1.4510708867535007e+01 0 0 0
366 2 1.2140601726672674e+01 3.3695623195647197e+00 5.8103936291097114e+00 1 0 -1
326 2 1.0450356019231428e+01 4.8719596428060319e+00 1.6587518712568578e+01 -1 0 -1
304 1 1.3123034514061949e+01 -1.7214637156090928e+00 5.8133299898389144e+00 -1 0 -5
549 2 5.2600547971620726e+00 7.0430632428619706e+00 1.6411129672746707e+01 -5 0 -4
161 2 7.8475535058138401e+00 -1.4727931593359176e+00 2.3692013223110582e+00 0 0 -7
647 2 7.2303920123526044e+00 4.3066567954683084e+00 9.4742622805940258e+00 -4 0 -1
1367 2 -1.9440543928976339e-01 1.0724936578398663e+00 1.5271040493725025e+01 -1 1 -1
255 2 4.3802334184602918e+00 1.7388014940271379e+00 4.6792252038462570e+00 -4 0 0
569 2 1.2616068907573908e+01 9.6898023180769854e+00 1.2729779783048697e+01 -3 0 2
1972 1 1.0976537032834022e+01 -1.2970516658032802e+00 1.8697851268469229e+01 0 1 0
1066 1 1.3469601495232279e+01 7.5577339306033817e+00 2.1438041469799543e+00 -2 0 0
133 1 8.0281050420811368e+00 -1.3750217568494918e+00 6.4362851543797162e-01 -2 0 -1
1060 1 -4.3404532407446972e+00 1.8824751985306625e+00 1.6567638925104557e+01 -1 0 -3
792 2 1.9409728309183416e+00 -4.4662509097232128e-02 9.5251825755335755e+00 -2 0 1
1053 2 1.2184352350895939e+01 8.1297284483581791e+00 7.5923172274797475e+00 -1 0 0
506 2 6.3442295957974837e+00 1.5388042192695135e+00 1.2235069061489147e+01 -3 0 -2
606 2 1.2401389451796229e+01 3.7669782408321959e+00 3.5717763967228713e+00 1 0 0
1008 2 1.6170619375780095e+01 1.9576284503009047e+00 2.7851426403399455e+00 -2 0 2
547 1 5.2584175153222317e+00 7.4146378610035004e+00 1.7283968200202445e+01 -5 0 -4
643 1 -8.3064345790366900e-01 -1.8050959620403262e-01 1.1437083225243573e+01 -3 0 -3
1944 2 1.4396789522341463e+01 4.7537151246176546e-01 4.5004113030897130e+00 -1 1 1
1593 2 -1.9852192884459869e+00 -1.6352239611848227e+00 1.2015851014247618e+01 0 0 -2
648 2 7.2273802759272474e+00 4.4391409994441196e+00 7.9475451610563335e+00 -4 0 -1
2005 1 2.6346369227692330e+00 6.9253791646374463e-01 2.5569083279727773e+00 1 1 1
1077 2 3.4328488543954974e+00 5.1667101717219417e+00 1.8802031508539379e+01 1 0 0
586 1 7.6066678499500089e+00 7.2881471309330497e+00 1.8624342507714800e+01 1 0 1
408 2 3.7469339544251139e+00 2.5443212912722650e+00 8.0844822822534752e+00 1 0 -2
558 2 -1.7680791503995841e+00 5.9889823379763634e+00 5.8677998000426053e+00 -2 0 1
1490 2 -2.3492445895557266e+00 9.7983979347899197e+00 1.8554017107648413e+01 -5 0 -4
983 2 3.2910163477517074e-02 8.6663732569297380e+00 1.3548046125718766e+01 1 0 -1
645 2 -9.7858633067402589e-01 -5.2427743007990490e-01 1.0539424242859580e+01 -3 0 -3
382 1 -1.6935620842841068e+00 2.6445863632914390e+00 1.6419243182214874e+01 -2 0 -1
60 2 9.3460191084281128e+00 1.5260560621095722e+00 5.4062844290689305e-01 -1 0 1
533 2 5.5930470314886884e+00 -1.4400897791117186e+00 3.0085506926418448e+00 -4 0 -1
994 1 8.5057699692735209e+00 -8.7604643671282734e-01 1.1763794435870235e+01 4 0 1
1982 2 9.0981322384068068e+00 5.0041450191171215e+00 8.8374706920527686e+00 0 1 1
982 1 4.8662610642168325e-01 8.5732373517791363e+00 1.4383901255176106e+01 1 0 -1
717 2 2.0985169119261284e+00 5.4498769126116304e+00 1.5259086858007839e+01 2 0 1
760 1 6.0478259108881547e+00 3.1043621933596572e+00 2.5125341303844673e+00 -1 0 1
1518 2 2.8521325028001834e+00 7.2120371956999296e-01 6.5378319151474384e+00 -1 0 0
71 2 -4.9660129360217953e-01 2.6243363477168318e+00 9.5234759946920526e+00 0 0 1
1063 1 -2.2118764909552548e+00 1.0199576231158849e+00 7.2369059245506264e+00 -1 0 -1
466 1 1.0506789899331199e+01 5.0982651676029844e-01 1.2935958910497368e+01 -6 0 0
1493 2 -2.8083179085629606e+00 6.0151780163556996e+00 1.2070505988938869e+01 4 0 2
277 1 1.0331012094274559e+01 5.2899019926313189e+00 1.2420069332913702e+01 -3 0 0
758 2 8.3798293414229921e+00 1.2998289458746894e+00 4.0089783339117089e+00 -1 0 1
1990 1 2.2054393224108337e-01 -2.0574306391630222e+00 3.7807630060775779e+00 1 1 1
1123 1 9.4867831884702873e+00 -1.1393941397503597e+00 1.5605509526689966e+01 2 0 -1
1370 2 8.5708631137408275e+00 -2.0529000241540425e+00 1.7143961340317766e+01 0 1 0
873 2 5.4258207460193804e+00 5.4693103169814439e+00 4.6155326343810659e+00 0 0 -1
1995 2 5.3452668405948138e+00 4.0442687975791447e+00 1.7811539753927224e+01 1 1 -1
407 2 4.7230347272966311e+00 1.5348614725657175e+00 7.2350130747913486e+00 1 0 -2
509 2 1.1247242275081723e+01 9.3510292378044007e+00 8.9496163862206957e-01 4 0 -2
587 2 8.1682012162890985e+00 8.1090566574867005e+00 1.8568090490720596e+01 1 0 1
534 2 4.1295238680020905e+00 -2.1055200984333964e+00 2.8327620806656535e+00 -4 0 -1
259 1 5.2245392356595444e+00 -1.1065425750632378e+00 1.8261840930706434e+01 0 0 0
1609 1 1.6160396463627613e+01 9.1575040724016432e+00 1.2277494117035216e-01 1 0 2
1481 2 1.3061388171381154e+01 5.4099515308240766e+00 1.3337669577532381e+01 1 1 0
820 1 -5.3538965031283237e+00 7.9406851101878111e+00 1.5939335931174723e+01 -2 0 1
16 1 1.8647145444570645e-01 3.3965416059922804e+00 8.1499173227830468e+00 2 0 3
58 1 2.3244072964815521e+00 1.0555251269502284e+00 1.8847611737030231e+01 -1 0 0
340 1 1.4133803901063366e+01 2.8562917737275715e+00 1.0287308094030031e+01 -4 0 -1
1956 2 -8.9223587551691796e-02 5.9750596001009200e+00 1.0268677012095322e+01 0 1 1
1356 2 6.4583451143263240e+00 1.1444785650452327e+00 5.3307914571888615e+00 1 1 3
857 2 7.2955650579315963e+00 7.5518103272351045e-01 1.4276541288572464e+01 -1 0 -3
1943 2 1.3028596116069517e+01 -1.3960611804530965e-01 5.0439383254747119e+00 -1 1 1
1093 1 5.8824083840244379e-01 7.5974810399244408e+00 6.5557367613181681e+00 4 0 2
1517 2 1.7325902671555553e+00 8.9027631012431785e-01 5.3911395266010285e+00 -1 0 0
671 2 8.4005775463846954e-01 3.0641197784392711e+00 1.4469555222541230e+00 -5 0 -1
699 2 8.1677058351213070e+00 3.9224116614678586e+00 5.8463086366356869e+00 2 0 6
986 2 6.2063129094662211e+00 2.6528303341433572e+00 1.7583589062111070e+01 1 0 -1
1169 2 -1.1827684921074750e+00 7.5926621798227512e+00 1.1997015140867802e+01 0 0 2
1075 1 4.4316245871342419e+00 5.0619910959240801e+00 1.8625660747388473e+01 0 0 0
926 2 4.6135053092982581e+00 6.7506230612337923e+00 9.4378224930647932e+00 3 0 4
1941 2 1.1345055762062644e+01 -1.4555700170260533e+00 2.7547577161915315e+00 0 1 -1
528 2 -1.3948787189416634e-01 1.2850554527060196e+00 4.4642036925132116e+00 -1 0 -2
1372 1 7.8169947152402708e+00 5.4924678571944181e+00 1.1746277105759820e+01 0 1 -1
1076 2 4.5901815617095840e+00 5.9383492306091394e+00 1.8341484920302698e+01 0 0 0
813 2 -1.9941039930071729e+00 -2.6740074293571414e-01 1.4679963366690743e+01 -2 0 -3
612 2 1.0910601643678625e+01 7.2750484889374469e+00 5.8756255357582727e+00 -2 0 0
276 2 9.8496253729786396e+00 1.4208206880338246e+00 1.7150665408286375e+01 4 0 -3
885 2 2.1526752208553042e+00 4.4273753590189804e+00 1.1521835265927560e+01 3 0 2
245 2 1.4526240824999169e+01 4.2859829447304225e+00 6.0052897898992408e-01 -3 0 -4
716 2 3.6113324351067542e+00 5.4024817768172104e+00 1.5623475251031012e+01 2 0 1
319 1 -3.8899755271269765e-01 3.4951304340883889e+00 1.8611788920007790e+01 -3 0 -4
603 2 8.8469376081455682e+00 -6.5626227935913950e-01 7.0740693327344193e+00 -2 0 -1
385 1 3.8414328442719090e+00 -2.0620914500060925e+00 5.5690066756401553e+00 4 0 -2
822 2 1.1788024663471120e+01 7.5981834542521565e+00 1.5430613011872133e+01 -3 0 1
646 1 7.4007074516091054e+00 4.9660803089202874e+00 8.7667476987547115e+00 -4 0 -1
1450 1 1.0886010464273383e+01 2.7283290749603717e+00 7.1564911498438830e+00 0 1 2
1963 1 5.8168600798850640e+00 7.0852970826714525e+00 1.4529336835109753e+01 -2 1 -1
858 2 7.4817544910381297e+00 1.2706438805873663e+00 1.5760426690701228e+01 -1 0 -3
629 2 1.0343450361695799e+01 9.7925858636576333e+00 6.3609855771972841e+00 -2 0 2
1354 1 5.7487576696335561e+00 1.0165311534513011e+00 5.9876057514591254e+00 1 1 3
1006 1 1.6170289742450525e+01 1.6092024482436118e+00 1.9167025679978242e+00 -2 0 2
1964 2 6.5510697112947982e+00 6.4161491553975800e+00 1.4427656192220777e+01 -2 1 -1
705 2 1.4157739045378026e+01 7.4028330479940720e+00 8.9568744729914904e+00 -2 0 -1
653 2 8.5654367545029597e+00 4.7748757978754552e+00 4.3442437572478507e+00 0 0 2
1095 2 1.1709246066711696e+00 8.4273233029346013e+00 6.6183614378768549e+00 4 0 2
383 2 -1.7999445499993958e+00 3.4900201625160321e+00 1.5965335818523679e+01 -2 0 -1
44 2 3.8557424750924145e+00 5.8736140917302002e+00 5.6734010049328312e+00 -2 0 2
703 1 1.3871134952687303e+01 8.3645241616232315e+00 9.0348893771717353e+00 -2 0 -1
389 2 1.5771464332573441e+01 4.1138495841436349e+00 6.0319950847297603e+00 -4 0 -2
1627 1 1.3217212256717445e+00 -1.3877889892455335e+00 1.2339119846569776e+01 0 0 0
386 2 4.2658501933575810e+00 -1.6788351288760963e+00 4.7950387177595770e+00 4 0 -2