LAMMPS data file via write_data, version 8 Apr 2021, timestep = 0

6144 atoms
2 atom types

-2.440509438161794 62.408798569345116 xlo xhi
0 28.0972609668186 ylo yhi
0 27.15862348385015 zlo zhi
10.161566196756823 10.183554659557828 7.118326992790831 xy xz yz

Masses

1 16
2 2

Atoms # atomic

1595 2 17.281634398992757 13.814123140723956 20.619571106074403 0 0 0
1604 2 15.158845537476612 10.915448421471147 21.894965440599748 0 0 0
1555 1 16.982779163341966 12.033653908011965 7.331045890397642 0 0 0
987 2 17.674834869565178 10.153858943893658 16.07470100512019 0 0 0
1791 2 0.7642224643436033 6.5129426892038165 1.6956046027319807 0 0 1
2455 1 17.088517529252773 27.653989186600466 27.056711904824766 0 0 0
25 1 9.600176578194484 9.524595897270123 12.663227278536283 0 0 -1
1625 2 16.47060011275224 17.88482772762746 18.107230819147983 0 0 0
2464 1 7.288380412243971 12.376059109271424 4.109898151057178 0 1 0
886 1 24.552814289083788 29.854289530977432 22.591995207398885 0 1 -1
1633 1 19.44652430531029 15.730685378407198 23.04005616700304 0 0 0
3613 1 12.197854165156034 26.647610631973404 1.62399924325473 1 -1 0
2443 1 5.452490446049424 7.9408167520613295 5.246942860180837 0 1 0
359 2 21.26096920895548 22.260711538685296 22.959050242327972 0 0 0
898 1 15.548762297774857 27.30830808358253 17.2205052358905 0 0 0
1895 2 11.776992040947567 11.948269527325346 7.213340523758705 0 0 1
2325 2 10.147661498977422 22.52404556675301 4.651990454923898 0 1 1
1634 2 19.181422932477066 15.821198962865745 23.986411918658497 0 0 0
5178 2 16.511969012543695 33.950116684475006 23.653340299426855 1 -1 0
1894 1 12.46459626360932 11.46892908402091 6.695797580637415 0 0 1
1740 2 12.285645448777606 16.148007030199043 0.8038978791041292 0 0 1
1136 2 11.468820799331306 12.29142483452164 25.58535842516571 0 1 -1
611 2 13.558242851771869 30.365565651797493 15.719974978095753 0 0 0
1709 2 19.325786910025293 31.46623087022046 19.578640815757733 0 -1 0
751 1 9.093488402501864 20.13992371133113 11.853771435765909 0 0 0
872 2 12.428155006809327 23.52476837727572 19.98918896099867 0 0 0
1585 1 6.9787330331473 7.500522895412714 8.556319891504899 0 0 0
1654 1 7.874710759062443 26.532283493589247 1.638392479142553 0 0 2
948 2 8.160917221689882 7.046719412391433 20.41656387091779 0 0 0
2564 2 7.471111443324004 8.132201989002391 2.4041136715418494 0 1 0
169 1 12.938993136819951 15.16626633403203 21.71992164498377 0 0 -1
1871 2 16.27261329478028 24.164005795894614 20.188075498818936 0 0 0
610 1 14.368234387901385 30.33899791501125 15.150794953074982 0 0 0
1275 2 23.9758424396586 14.652098929869913 25.071004622017618 0 0 -1
353 2 4.410052414971137 5.393622497066323 10.543485623953543 0 0 0
2450 2 22.060021826548 29.21098031192259 20.920643511744277 0 0 0
1708 1 19.254143802605846 32.19443850516515 18.918856565312154 0 -1 0
27 2 8.913488698624867 9.90727092826822 12.100059429270788 0 0 -1
907 1 23.210813156241276 25.950580924385164 22.889077777945364 0 0 -1
99 2 15.049115342382024 29.868014070876047 8.788712178575453 0 -1 0
1561 1 13.5849725750269 10.495934422154788 9.789849332262452 0 0 0
5182 1 11.978786647321527 15.530777725526194 25.231768101228468 1 0 0
174 2 14.219288068442772 7.79275825319028 16.747351267820786 0 0 -1
1114 1 3.3910065358465222 8.394842840471041 3.047810580909087 0 1 0
924 2 15.912385654543087 9.704205868225626 14.626966148547686 0 0 0
850 1 5.1817654927496175 10.748518112061777 10.291772017742835 0 1 0
4414 1 13.751333407559773 29.573127032241487 18.888443727902995 1 0 0
5800 1 7.383124894238307 17.686711986985884 0.4691021657729911 1 0 1
1710 2 18.467429928258483 32.67990247182365 19.143848246592697 0 -1 0
1689 2 8.453271746831373 8.832063287867692 14.104786932829311 0 0 0
587 2 6.227209949211446 15.507548324057849 3.025367196015535 0 0 0
1773 2 13.120199077420889 28.201453668566224 2.7124315908041723 0 0 0
1892 2 11.25320295858127 18.199333300041406 20.148113967677688 0 0 0
1011 2 26.52428399162376 18.13916994745893 25.13515590407929 0 1 -2
2314 1 19.280250069655995 26.537574331135723 16.705134184150744 0 0 1
1129 1 8.327922887455722 13.111889263210593 21.496788981232775 0 0 -1
2529 2 14.504834411842623 21.622633981170868 1.425455227038432 0 0 0
1635 2 18.777020423192177 15.056290524850809 22.67417072132967 0 0 0
1017 2 17.273802188930684 23.64473122036825 18.054493635120036 0 0 -1
370 1 10.431347503651274 16.097708186653 22.164675650938886 0 0 0
14 2 18.684405290119702 16.760964981749442 26.076263915883914 0 0 -1
1059 2 0.8212189662162914 3.914524655890136 1.9961685679392491 0 1 0
896 2 24.435279147699635 29.768352249568693 17.556961132731985 0 0 -1
489 2 4.158647462006314 10.827595377912438 0.8428115873895502 0 0 0
346 1 5.379621776018869 11.749316681759757 7.871056903660838 0 0 0
2374 1 0.9552231944195229 1.8733296483173667 5.810459087425168 0 1 1
697 1 10.703040755761581 12.483218823747043 10.309281777549465 0 0 0
1789 1 0.7116453604142587 5.753371397724328 2.316247926309019 0 0 1
2627 2 18.210256929259256 28.49319671090931 19.99261440170991 0 0 0
1274 2 22.590131265913573 14.625475535692123 25.70411604370911 0 0 -1
1113 2 13.671670682643448 23.835117820082417 16.349580288967193 0 0 0
347 2 5.182537840356103 12.590880786475958 8.289034324943723 0 0 0
1880 2 8.969805333875923 11.656138620350776 15.518715318792905 0 0 0
1125 2 16.08303948850747 30.637500537205153 21.4011460703915 0 0 0
5272 1 8.983556783518196 7.177366565567759 26.83701527762651 1 0 0
1001 2 10.068088783624592 9.602289294150301 8.98691607175437 0 0 0
846 2 16.890230084926895 16.904253984899984 21.771320363350906 0 0 -1
1543 1 6.013322037978428 7.126998206076106 17.267379657203417 0 0 0
1739 2 10.864898372710813 16.36295277349841 1.5432632709840575 0 0 1
358 1 21.19498362659238 23.087979698580238 23.43430391747526 0 0 0
2070 2 17.72323814354216 12.033438395703097 1.1243738978912023 0 0 1
2291 2 19.595224778682258 15.345718967280167 6.032298256715239 0 0 1
887 2 23.994443192794797 30.696082544088217 22.652400779904365 0 1 -1
1781 2 6.727151340441203 10.927162999376748 15.4405031476365 0 0 0
1970 2 20.124742784807477 15.056575595429731 7.994147507560041 0 0 0
2673 2 3.892247471574126 7.368330621356898 11.557889660330094 0 1 0
2862 2 23.426620117200283 23.998041543852406 7.131845003706409 0 0 1
2399 2 8.381089169167552 19.190547196480736 5.362853330940435 0 0 0
1670 2 0.28738284345021103 1.677496230215961 2.817003217576326 0 0 0
2466 2 8.138382272560928 12.85830769910524 4.180874868985783 0 1 0
1687 1 7.953911142050428 8.368432380348032 14.775897656833843 0 0 0
986 2 17.00554101548641 8.843299465357756 16.237252310341756 0 0 0
1706 2 10.549105766913708 14.54711388796382 18.805951308270117 0 0 -1
80 2 10.26430517383539 27.548707024546815 3.6512743836083703 0 -1 0
2625 2 15.87358488558504 22.289446057469288 25.699188312285223 0 0 0
1688 2 7.92522535367698 7.444593352177756 14.51130805237597 0 0 0
2791 1 29.428284058436837 27.94784741658133 22.985882169590415 0 0 0
1788 2 11.688520191274005 27.554696022456973 7.536643381863515 0 -1 1
922 1 15.908024808363251 10.152903336552864 13.778284529987172 0 0 0
899 2 16.02310180193762 27.819561634323787 16.480680202601533 0 0 0
845 2 16.737630176478223 17.996943063614946 22.89565108576038 0 0 -1
1563 2 12.666683829173161 10.580664114130771 9.480035206823484 0 0 0
908 2 23.358884197292813 25.06820668285378 22.421983526619133 0 0 -1
2586 2 10.88847687335733 17.21848465812533 23.67126994404334 0 1 0
28 1 17.61053592304174 15.799893078393502 13.651960968647206 0 0 0
3716 2 1.7306578240093669 9.164022711403078 2.591887891240804 1 0 0
6021 2 11.681728858966434 25.403530851552986 13.310715963212342 1 0 0
300 2 14.251052697637231 19.111207654410098 4.141680983725976 0 0 0
728 2 23.29406708789256 22.153498095099653 10.404453431477995 0 0 0
1043 2 4.661321838210833 14.621440128974543 4.497811168014548 0 1 0
324 2 12.412646154853567 18.086726074947425 9.075797833305021 0 0 0
2441 2 13.16504506598513 13.916324661871528 12.072801127147368 0 0 1
2532 2 11.046443847555594 17.84916877564975 18.023794178918212 0 0 0
1562 2 14.11299626261227 11.199050353848714 9.244546241365784 0 0 0
1015 1 17.24448567340032 22.6598342690561 18.130583206022038 0 0 -1
1738 1 11.39069725066107 15.806349768667902 0.8888577697699088 0 0 1
2375 2 0.6508366348339569 1.4960793994388308 4.909912292501614 0 1 1
30 2 17.692371220461297 16.615725164026635 14.15576523530816 0 0 0
3008 2 25.99607800736266 25.47167320141598 12.805021619075848 0 0 0
2517 2 17.448643541499084 4.0243079711790575 15.262266680300248 0 1 0
974 2 13.44125806721848 25.55806716300815 7.591699748706614 0 0 0
2440 1 13.343332003557219 13.665918531922612 11.116289061529272 0 0 1
98 2 15.73946606966173 28.43919447482986 8.788404011990062 0 -1 0
796 1 15.548416617517358 14.942318311997662 23.96924248455512 0 1 -1
315 2 12.711287681266054 22.346036492023988 23.23935575957217 0 0 -1
2472 2 26.683206236809887 31.388859707450408 13.787453793792256 0 0 0
756 2 2.8762345838413306 3.3803455822831365 9.044947202441909 0 1 0
2355 2 24.59187909196184 28.309766668483828 21.721696997776363 0 0 0
962 2 23.116910834238375 32.00585477971244 25.86209234893829 0 0 -1
888 2 24.84650150936182 29.6128065546146 23.533312893044872 0 1 -1
194 2 21.92874674914288 33.04431599137645 27.09360539270978 0 -1 -1
299 2 13.928304068188286 19.301160194462472 5.737241910854204 0 0 0
626 2 11.310465095530196 4.757905897168639 9.040488985527846 0 0 0
2334 2 25.791543491337958 27.880580309999804 17.84479632411249 0 0 0
2389 1 12.74774222357891 20.601906001560447 10.402140599191506 0 0 0
2311 1 14.561739398455114 6.6263960431646725 3.9778331156487856 0 1 0
1515 2 8.783810441645425 8.997821561778483 5.769996733974273 0 0 0
1896 2 13.299161885676684 11.787541573873098 7.065579582886646 0 0 1
1637 2 10.590084450836587 8.866389759185925 23.08664763199365 0 0 0
984 2 12.59844635401836 7.542563224153335 13.516492711379808 0 1 -1
5273 2 19.26450263099484 34.744727653189145 26.04041893413336 1 -1 0
909 2 23.551904616895087 25.77970541635518 23.780531444298123 0 0 -1
2668 1 19.737125400957062 19.937231225299666 13.523745563144882 0 0 0
2354 2 24.145340577005577 26.857295973698747 21.949774368277932 0 0 0
4266 2 9.676614909104899 20.40314142148805 15.970631139549157 1 0 0
323 2 10.942366469513962 18.276438078523974 8.602968533720658 0 0 0
1273 1 23.089706977062445 14.188960938728306 24.9410476958894 0 0 -1
1132 1 10.605152745017481 26.169080749410224 10.276349164582811 0 0 0
827 2 12.860877663638409 25.914147484518733 14.962750721531926 0 0 0
1061 2 13.937263613429405 14.807343688481566 20.301245793743625 0 1 -1
1514 2 8.611959591486539 7.622341437344247 5.166068110712296 0 0 0
2639 2 16.311703613565935 21.047100739218127 2.8291305411167484 0 1 0
352 1 5.201268720914072 4.768277568140766 10.32758274262858 0 0 0
961 1 24.05895381855873 31.840897652038787 25.63222671934892 0 0 -1
885 2 14.28941695065971 7.465357039576707 19.01518489441305 0 1 -1
753 2 9.012007811511284 20.965244740836898 12.338020024275176 0 0 0
2316 2 18.766716307274326 27.26300271022747 17.179999509700195 0 0 1
2438 2 10.269852607681281 14.066292314658195 0.9637755363702917 0 1 0
818 2 8.454813846182772 5.504491927300786 14.92305284868195 0 1 -1
775 1 14.102740008737456 22.215142632959 6.078117666733471 0 0 0
1603 1 15.013393247482483 11.84626577592174 22.18240359263347 0 0 0
5807 2 14.827037805558355 6.454013687751812 23.866939576841933 1 1 0
1605 2 15.871250528611892 12.238210798497645 22.003084133106167 0 0 0
2623 1 14.97504385626959 22.26579459939026 25.362400947057175 0 0 0
820 1 9.364489866602012 13.85309459192393 4.005221537843092 0 0 0
128 2 3.9649145382771915 3.997846519592666 6.711819753812867 0 1 0
1877 2 9.099473360251181 8.609224375606956 15.970233812206558 0 0 0
2669 2 19.844659129476163 20.921051370996565 13.669808403638168 0 0 0
71 2 7.555528555418281 15.735297495426106 6.035016213818605 0 0 0
5975 2 15.073660034727954 25.821615688458184 22.457984289556972 1 0 0
1016 2 16.84823551160115 22.403627944688253 17.311466633461954 0 0 -1
112 1 18.20090379570612 28.091595053620587 23.4563320831071 0 -1 0
995 2 6.908792055631579 13.717976065853584 1.5725006711041927 0 1 0
97 1 15.744639227347083 29.351093270778623 8.36439309468939 0 -1 0
871 1 11.777858883973549 22.878417444353477 19.685521795881712 0 0 0
681 2 11.14583975376908 8.402621328178252 0.2654371631476959 0 0 0
1513 1 8.539537882565746 8.110085853371517 6.02005400956539 0 0 0
1078 1 26.444343678315555 30.04623694948444 20.549905670343524 0 0 0
963 2 24.372913913005277 32.5707988613254 25.047179734810058 0 0 -1
1711 1 8.151572811743979 15.727241969341081 8.591384478715062 0 0 0
2353 1 24.759950054095466 27.40644694225446 21.418021970282663 0 0 0
5783 2 17.335801002414723 26.042937926112263 25.634859642843143 1 0 0
2671 1 3.308953439863441 6.704290466858751 11.063577468431175 0 1 0
985 1 16.793929700741085 9.777093973868059 16.236241224334677 0 0 0
1884 2 14.436895043592756 18.747440183417453 7.922438258322336 0 0 0
3737 2 3.6909407214149392 5.744497666717288 0.9189810880214413 1 0 0
298 1 13.738670757820998 19.69643290085722 4.845492076361093 0 0 0
5948 2 14.753787125977443 27.25497287979023 19.064956756502156 1 0 0
5949 2 13.908946119767965 26.387670756263233 20.00715237923067 1 0 0
612 2 14.115395153168311 30.33451635657664 14.173259158171966 0 0 0
1060 1 14.483205394196762 14.83173506451616 19.47294230102215 0 1 -1
1079 2 26.160166054842797 29.39114892512863 19.90438756239877 0 0 0
883 1 14.64964131495029 8.034525773646319 18.35188754182387 0 1 -1
2442 2 13.448392835502517 14.441586227508449 10.664433546150685 0 0 1
2643 2 5.228383817702646 4.889468360736328 8.528491421709804 0 0 1
2451 2 20.5967690201055 29.27891503304343 21.166249789667944 0 0 0
2315 2 19.504427522827886 26.813699564622663 15.77864904768239 0 0 1
2626 1 17.722909420168275 28.07568931528252 20.735890255686954 0 0 0
983 2 13.312573888266408 8.329954477239514 12.58121693043149 0 1 -1
923 2 15.071518021381326 10.008351558478644 13.310329309998355 0 0 0
2572 1 19.842628330783153 15.49786054220729 15.825588737182002 0 0 0
354 2 5.963112263269586 5.151173253758363 10.79602013248607 0 0 0
290 2 11.532991566389786 20.455689249273302 16.39631543078498 0 -1 -1
1589 2 15.064311750195518 27.85849399476972 2.011004545183808 0 -1 1
1972 1 17.58977930381998 7.264212090348702 21.406758137214233 0 0 0
1050 2 12.611463954674605 18.825572187320148 1.3326552816868487 0 0 0
1081 1 20.841210722160177 13.409737881756284 20.70809503101691 0 0 -1
1594 1 17.092826071518946 13.987133654010483 19.686582197043677 0 0 0
2445 2 4.93944507664353 7.872871355088386 6.115148615335702 0 1 0
1588 1 15.637615096448052 27.948992339959716 1.16705469268237 0 -1 1
1150 1 14.94702078759098 16.994577374568237 17.999805774606834 0 0 0
1830 2 10.469240967771437 21.395818330283493 9.137487674930412 0 -1 0
302 2 12.782106021398647 10.398173165435686 16.96948551971629 0 0 -1
1118 2 26.89280540552183 33.27321373611331 19.878000189911912 0 0 -1
1872 2 15.791121183933857 22.946555517259977 19.368508308663326 0 0 0
2613 2 18.27910495770206 18.90703719393124 14.159962079990871 0 0 1
1133 2 10.652959317613469 26.871537043902816 9.620023368961602 0 0 0
1762 1 11.589468801353782 11.045929783663631 13.694323711662474 0 0 0
2556 2 24.10721766792145 22.793035517747796 21.405687339796632 0 0 0
2666 2 9.466053897016542 16.74119427051542 7.826951813208263 0 0 0
1870 1 15.432261211679371 23.794796635352323 19.77716235592182 0 0 0
1662 2 13.379950993644274 13.692908809360924 2.0939137757649235 0 -1 1
946 1 8.463333533527749 7.896876618184988 20.7283341820231 0 0 0
1736 2 8.011747025278694 12.58976739021203 9.671618687016972 0 0 0
376 1 11.434457698571274 7.609014243979235 14.798326722078837 0 0 0
1109 2 15.420468220335845 31.78747117894124 15.47069418859357 0 -1 0
1449 2 19.908107115699043 12.692311417193014 10.793873054574473 0 1 0
1879 1 8.236703502448561 11.642708626138964 14.839612995432388 0 0 0
2555 2 22.724757994092005 23.48057776093972 21.044897397013877 0 0 0
374 2 21.961810784738827 17.64396285188578 26.88687581998441 0 0 -1
1801 1 16.743804197443573 18.916547989183925 5.833394406965231 0 -1 0
442 1 9.912691906972656 3.9279311496862537 6.402342598977412 0 0 0
2601 2 12.113779538017369 21.526580874938965 12.201306830423183 0 0 0
2600 2 12.354548955577787 21.224506408691212 13.740318961458302 0 0 0
1105 1 17.69324517380465 18.27870005975355 26.223284569177842 0 0 -1
1538 2 7.301263084597654 10.962252041364273 18.90555771707996 0 0 0
1859 2 14.731687558604822 19.6801582477692 21.719904925557422 0 0 0
6141 2 14.587792681261487 29.287085490272823 22.753596701205147 1 0 0
2307 2 11.754297350468017 11.906784871610263 21.435349781658054 0 0 -1
1119 2 26.303240180588546 31.91954491089475 20.089609297729254 0 0 -1
1088 2 11.502348816491498 21.452712937060728 3.8220382578937286 0 0 0
114 2 18.055898628180977 27.315310870613747 24.04021395161322 0 -1 0
269 2 18.263694104715274 22.518251693426844 25.92692669673446 0 -1 -1
2306 2 11.058399481173621 11.398047153032037 22.833138516278332 0 0 -1
198 2 18.761427463819576 25.07250579426769 8.107957346019163 0 -1 0
1089 2 12.28410022665487 20.25556517260655 4.259467127527523 0 0 0
2468 2 12.669769640290488 4.600017728522064 0.598691548776859 0 0 1
2570 2 22.3430680376144 23.400123589669597 11.821228503971188 0 0 0
776 2 14.1740949721374 21.360625345665444 5.664542064375226 0 0 0
1653 2 14.60240279457551 21.366144342976618 26.89329835516596 0 0 0
2496 2 20.083138120851224 25.76518131892365 5.114984872304109 0 0 1
1103 2 13.680009774425812 7.98018254318564 23.46962744570726 0 1 -1
2604 2 19.774237241823815 9.299485515848462 24.80118936889457 0 1 0
1537 1 7.9433925824590315 11.739518290601106 18.840941301313197 0 0 0
1134 2 11.292301245270174 26.359016764454886 10.948314708880199 0 0 0
2644 1 14.670316878766382 12.65931959927313 18.031877675546397 0 0 0
1124 2 16.660284265067542 32.041694136463505 21.80645603371173 0 0 0
1035 2 18.922526899033517 11.353383191376938 24.596455627202257 0 1 -1
1735 1 7.421446217338861 13.308485928408283 9.582951950040707 0 0 0
2646 2 15.21737420616768 11.994204367871147 18.46559656084831 0 0 0
1236 2 18.573825756422806 33.83462234061857 23.516882728736515 0 0 0
895 1 23.899086640895078 30.579328181683543 17.487183821975076 0 0 -1
2603 2 19.16753414203719 9.883791671119594 26.084236128714135 0 1 0
2554 1 23.573163392179588 23.646638907460034 21.45700454879961 0 0 0
1704 2 8.163101753231878 16.574286573819027 13.046360984548187 0 0 0
2305 1 11.06762615941752 12.13692366095389 22.14579169566655 0 0 -1
443 2 10.138774229084536 4.124433419171501 5.510062668010932 0 0 0
804 2 19.275278010912828 25.451946399021566 11.40912936248219 0 0 0
2405 2 15.563976465881144 30.076681347743264 18.52013607251622 0 0 0
994 1 7.3836841264063455 13.428327820509763 0.8204811364579665 0 1 0
2641 1 5.100160389563115 5.001061419606746 7.556926105682553 0 0 1
897 2 24.55153686503871 31.31869076454841 17.340945605991994 0 0 -1
318 2 14.474367651390125 17.808563527132847 1.45996930559962 0 -1 0
725 2 11.126658083988756 6.808691399369192 4.787452449720338 0 0 1
1235 2 9.49668367417832 6.857820137257493 23.375287285383568 0 1 0
2376 2 1.859640317992215 2.283027161789486 5.647937493669276 0 1 1
4431 2 22.94105449633151 26.993461227555194 26.439024852115622 1 0 -1
1117 1 26.025111793512224 32.822323005639156 19.896044169234045 0 0 -1
3662 2 10.943232269678292 15.154868801888796 26.457449919188274 1 0 -1
1909 1 13.623914010101505 10.084048572111783 12.449286040189179 0 0 0
1682 2 9.003300450415878 5.131512952115141 7.3740761157657815 0 0 0
988 1 22.139979941352486 29.550642813588933 26.589858301172885 0 0 0
197 2 19.51906028546453 24.909404471428783 9.484316159889062 0 -1 0
1572 2 7.647789106767259 12.96251745375613 12.285273181130155 0 0 1
1777 1 19.582270462703182 18.507211711804324 2.757674701533599 0 0 0
444 2 10.688339883403735 3.6896250638431187 6.978864598145792 0 0 0
1539 2 8.187835154759641 12.01494482233065 19.77138346433478 0 0 0
2526 2 13.981261101643529 17.98467601605675 25.71738795135504 0 1 0
1681 1 8.364809146224149 5.28011700200291 8.040442286564002 0 0 0
2467 1 12.606722875944158 5.257750439484696 1.3352990148821033 0 0 1
1596 2 16.114448550369808 14.204339892385626 19.56753348964213 0 0 0
1779 2 19.794167768418237 19.456388240335652 2.6057970902179326 0 0 0
48 2 6.336595839322666 19.805911709436533 3.0324831382497726 0 0 0
1151 2 14.673621266917365 16.19478950351168 18.47169214630395 0 0 0
1691 2 15.872174548497998 23.377146189297438 9.02658674782791 0 -1 1
316 1 13.913319328038288 17.60639073799696 0.6885843177813447 0 -1 0
55 1 13.952811864060635 24.84163330149012 17.754468813310055 0 -1 0
2491 1 19.95680146430076 22.36958091998248 25.684363248634074 0 0 0
154 1 11.77424223079143 26.89361368126337 12.559349142130806 0 -1 0
1110 2 15.908847746925055 31.807826689987042 16.961459931781818 0 -1 0
1876 1 9.90320311049577 9.018953851118392 16.365575256459817 0 0 0
2563 1 6.978111563583065 8.713649509198524 1.7963000621988923 0 1 0
2324 2 10.997401609159098 23.5940772696012 3.897748401627586 0 1 1
216 2 14.430413674988959 20.66635432282255 19.715792673801232 0 0 0
819 2 6.893265813339584 5.131451219007186 15.304314321524304 0 1 -1
373 1 22.125861845959935 18.574485542701826 27.06897648339783 0 0 -1
2069 2 17.02273049869861 13.53816472240677 1.0778215227473291 0 0 1
2512 1 7.0140165010618425 5.664964880244652 19.44610204272249 0 1 0
214 1 13.901940547872691 21.015523656440244 18.926988430176262 0 0 0
2508 2 5.529386284260607 18.499655159143458 0.6508139152790735 0 0 1
375 2 21.33559266896584 19.02129880604786 26.76354402148596 0 0 -1
1668 2 17.711457085557548 15.396571066070686 19.94777511087355 0 0 0
2439 2 9.947033575402871 13.474365435069116 2.222923535692708 0 1 0
2479 1 31.515149462314948 34.286810438411166 24.956108713898914 0 0 -1
844 1 16.299262296963054 17.244955377458727 22.46637796178328 0 0 -1
2378 2 9.031750086122969 23.537413852967504 0.538790412780717 0 0 0
5224 1 6.328700252464845 9.599684535703984 18.095553296019396 1 0 0
3736 1 3.3817104003680227 6.6638487287937815 0.6656911844997889 1 0 0
2602 1 18.91408599243908 9.70111301390483 25.118092720586404 0 1 0
586 1 5.708664421351706 14.624791709990571 2.9620483449131783 0 0 0
1560 2 4.231574906135361 0.594832421184859 0.04182906024157344 0 1 1
2598 2 19.820828913126515 21.45874988098288 21.23930845829632 0 0 0
271 1 12.643847116756483 13.7142237137967 13.740663644954337 0 0 0
2469 2 13.224303195571219 5.962268528410169 1.189753211790774 0 0 1
821 2 9.118654235699465 14.53410890766384 4.679388759871459 0 0 0
252 2 3.727030957241546 8.127826070733844 8.03852629333167 0 0 0
851 2 5.228205453670682 10.803521076519413 9.271833850350648 0 1 0
29 2 17.160998317170613 15.094809335938194 14.147725015328572 0 0 0
1152 2 14.61892614969042 16.80553876320181 17.096936323200072 0 0 0
625 1 11.634211822433144 5.698882736140183 8.972348376177738 0 0 0
1878 2 10.1180998037207 8.71394007517524 17.265872545219214 0 0 0
2437 1 9.932403975914099 13.291188615830059 1.2983782854634038 0 1 0
2390 2 12.076685366743826 19.97104339913617 10.087882044630717 0 0 0
920 2 14.51804560058116 7.558371350744091 1.3263054157172738 0 0 0
284 2 20.562496643046316 29.19080754892439 11.597829151737715 0 0 -1
108 2 10.217034105999607 17.959847502822548 13.798042004950801 0 0 0
1547 2 13.448871449753849 19.630023790436518 24.918931544162895 0 1 0
2670 2 19.99767095579954 19.732308142852748 12.603599787487765 0 0 0
117 2 19.15179533487769 19.159735741762084 25.838017089063797 0 0 -1
2342 2 7.79078939810292 6.43930926037749 3.7863688670305238 0 1 1
2492 2 20.61314196408414 22.56374479573102 26.356338981487344 0 0 0
1085 2 8.047991783346191 10.092914900265418 7.8346854541846165 0 0 0
1106 2 17.272407436211918 18.78102006693773 25.40436205861991 0 0 -1
273 2 11.916668375141713 13.111733676941634 13.741465363366078 0 0 0
1084 1 8.302741306822831 9.647999228056703 8.645244718387882 0 0 0
1910 2 12.80106380239799 10.45318307081022 12.892699369385475 0 0 0
1087 1 11.466031564235934 20.446499337943873 3.834701715941593 0 0 0
219 2 10.36218201891339 25.92928712640296 5.048131411918572 0 -1 0
196 1 19.66578338638278 25.123038549608836 8.571520067124052 0 -1 0
777 2 13.606777737899815 22.09015438682044 6.894242139962986 0 0 0
1652 2 4.287303567498853 13.123950273465828 0.8182487925564819 0 0 1
348 2 4.820929472835953 11.833410783148473 7.068933548857845 0 0 0
3003 2 3.8047759760080138 3.2993636277748957 3.067721947515268 0 1 0
1809 2 14.877504608680919 16.930531176141116 10.943688295481113 0 0 0
880 1 17.430901350526312 25.311746634482226 20.8026898785224 0 0 0
1756 1 30.389741734306245 30.98265448235558 22.628000425198266 0 -1 0
283 1 20.91164722028229 29.33133295961595 12.548163035094758 0 0 -1
942 2 8.72142400749616 15.516080530299847 18.06543972501875 0 0 0
1587 2 6.045650656185586 7.6555374964006555 8.267546582255733 0 0 0
726 2 11.132445008349155 7.270491099208889 3.213070773789616 0 0 1
4506 2 9.934674650782313 19.8933895059582 3.8722150742902492 1 0 0
588 2 5.1157669979761415 14.574829282188563 2.240270732572322 0 0 0
1993 1 22.129123655820703 18.579809504581966 13.895668063631067 0 -1 0
319 1 17.60423281979344 5.367905956315577 10.692413072197791 0 0 -1
1559 2 13.831752175999323 7.857594082955279 25.789215771655332 0 1 0
1683 2 8.705019658094903 4.892416003572735 8.854167457446692 0 0 0
1558 1 13.73723883928907 8.223535707321021 26.740920673032498 0 1 0
1763 2 10.741370686616996 10.522686411176279 13.4454344129235 0 0 0
2339 2 20.905634636874204 30.882721588610345 16.757341715600877 0 0 0
2624 2 14.718566807060306 22.1819842644622 24.44910869125781 0 0 0
285 2 21.88680066428916 29.16990351499499 12.508140353097852 0 0 -1
6139 1 14.995511292592465 29.353514892678835 21.80925509107465 1 0 0
263 2 20.65686476392756 12.288022391057622 23.856072938669865 0 1 -1
1802 2 17.725243242945435 18.663629127962352 5.9016214916930565 0 -1 0
901 1 14.3569226327172 22.574174021174652 22.65903689005441 0 0 -1
902 2 14.922856889002976 23.325812432106638 22.697109903994583 0 0 -1
320 2 17.257002325832897 5.165071062642497 9.755176756228334 0 0 -1
2493 2 20.34930378406432 22.695621116343027 24.81038645500522 0 0 0
106 1 10.679819170741778 18.574293003743275 13.268283998395754 0 0 0
2645 2 15.042669480912977 12.890474226287234 17.162090154049295 0 0 0
6015 2 8.343505484580827 21.006216491280234 8.299231147711728 1 0 0
123 2 17.052428891226477 9.812552792215774 24.83785430022464 0 0 -1
1999 1 17.8583845646609 7.034062900145589 16.06654185561227 0 0 0
1583 2 13.57471260543047 17.871514801365194 18.762656220844036 0 0 1
317 2 24.71290435250649 24.602084653567836 27.08691124574444 0 -1 -1
2571 2 22.739912468633012 24.916340990621624 11.747937312453482 0 0 0
3001 1 3.1854371108511406 2.677778880726017 3.4365385955770082 0 1 0
115 1 19.85200580683271 19.6710379382007 25.425656888940843 0 0 -1
116 2 19.715306052556215 20.609808597584816 25.559649120927123 0 0 -1
817 1 7.517358165205977 5.800371947775514 14.8867966650744 0 1 -1
724 1 11.51724982466178 6.662076403099732 3.891376444153836 0 0 1
1797 2 19.426870377280736 21.940540557319967 5.97347272242744 0 0 0
1911 2 13.537645064687222 10.192506678848503 11.467264895095125 0 0 0
1048 1 11.835704710813744 19.393106525258354 1.2427428014780244 0 0 0
1066 1 16.305304978591888 29.02044729171431 24.970680432687036 0 1 -1
190 1 20.049946372067698 27.39913272524571 14.361572571105535 0 0 0
1086 2 7.866289057804078 8.74723514140984 8.63430879087491 0 0 0
627 2 12.600758807572122 5.577275979085076 8.902083794711915 0 0 0
1083 2 21.021889233209887 12.864792210868163 21.50364108989053 0 0 -1
3469 1 12.745908734879173 13.409686089274674 23.785569105481933 1 0 -1
1865 2 13.46525407475531 5.095761780926224 16.486859595823116 0 0 0
2565 2 6.488790716729566 9.335151970342318 2.381553643971038 0 1 0
755 2 12.78771693962578 29.949001658920714 9.248757364637044 0 0 0
47 2 7.627177964190281 20.43459265751669 2.8097901844383544 0 0 0
1899 2 22.415139100446055 24.04454949583569 26.045013604799607 0 0 0
1803 2 16.538265040661713 19.166796920123538 6.756451986270198 0 -1 0
2338 1 20.1872320984157 31.427283737634962 16.450329471211333 0 0 0
2365 1 19.288895136085735 11.939486821171334 8.333143603595254 0 0 0
1897 1 22.940168812201417 23.952564998267942 25.25248473428545 0 0 0
2569 1 22.098961077627344 24.301376878274173 12.179570244195865 0 0 0
5176 1 16.664030504453603 33.000572460726886 23.454875300352008 1 -1 0
788 2 16.090127410607604 18.79785436272072 14.595016584823739 0 0 0
1570 1 6.719300722482133 13.20192819881627 12.049638289659779 0 0 1
2635 1 10.587477251134443 8.164148057512232 18.88485693611581 0 1 0
2681 2 15.75066651311268 11.211635341232917 3.3838268293102307 0 0 1
969 2 23.639475791085946 28.670253666001862 7.432350012832094 0 0 0
1544 2 6.151079185798729 8.042081665400211 17.559956562836465 0 0 0
15 2 18.441047477390025 15.200707025312182 26.115408685702423 0 0 -1
2682 2 14.639477233233865 11.819948885456599 2.4801523026842314 0 0 1
1919 2 24.753822151410215 17.249479716964508 19.5266239673266 0 0 0
2680 1 15.21273307593989 11.067146518226725 2.5300769067939806 0 0 1
488 2 4.582617003289238 11.037261170336903 2.33176909676045 0 0 0
1620 2 11.700560268501198 14.58657811409845 6.783843159378722 0 0 1
272 2 12.512342313054647 14.4156860218347 14.393607138534664 0 0 0
1582 1 12.95627340103241 18.33915407454412 19.316756590721184 0 0 1
2574 2 19.34021218156788 14.648541630209555 15.7624402903845 0 0 0
386 2 27.03708986510145 24.3652180563292 20.088057019890837 0 0 -1
2636 2 9.73644214493285 8.165147538353754 19.408538646409443 0 1 0
1886 2 15.03790602902301 6.134532513074896 5.787407899160269 0 0 0
1907 2 14.363871887114641 9.558329050517168 2.5935096939413267 0 0 1
3738 2 2.57684097322351 6.545236132053832 0.12471607456184984 1 0 0
5976 2 16.254678515645935 25.24269535995927 21.877006412408733 1 0 0
1829 2 9.366191972436713 20.698913563946842 10.048353387332735 0 -1 0
1137 2 10.595540647272227 12.539426410426099 26.752837286553003 0 1 -1