LAMMPS data file via write_data, version 8 Apr 2021, timestep = 200000

6144 atoms
2 atom types

0.017897594954818435 59.89053678567482 xlo xhi
0.1154255100209917 28.225040489978827 ylo yhi
0.15062738807804707 27.260817611923407 zlo zhi
10.055186679975282 10.186342911912053 7.056435321420149 xy xz yz

Masses

1 16
2 2

Atoms # atomic

1 1 7.699893074598377 5.2205859714438985 3.9364106179295404 0 0 0
2 2 6.950693360347197 4.5319694629355975 3.6795252971122294 0 0 0
3 2 7.3287066593703365 6.0581770478084715 4.300587651826527 0 0 0
4 1 9.878021270965649 6.912272117707928 10.734799420717522 0 0 0
5 2 10.322566051372567 6.448255421807794 11.462256927502896 0 0 0
6 2 9.559448118848517 7.754770595193258 11.151341382679007 0 0 0
7 1 9.904794400948212 12.305641410941332 3.9957730751731324 0 0 0
8 2 10.297527809957614 12.049788739065036 4.906811713874045 0 0 0
9 2 9.43861862752377 13.147881400319546 4.248779263367918 0 0 0
10 1 12.144274446081159 13.949701454926695 10.948073699729287 0 0 0
11 2 12.893626427536446 14.170395185066175 10.39821251041236 0 0 0
12 2 11.486341096080205 13.329909605749492 10.50787216310356 0 0 0
13 1 14.595957655655067 5.017825688845537 3.919517964713934 0 0 0
14 2 15.192595080544912 4.748375576410007 4.685415401051006 0 0 0
15 2 14.306221795790776 5.905307756772254 4.176493984518874 0 0 0
16 1 17.42190466179828 6.953395091191787 11.2878821312873 0 0 0
17 2 17.89261035134033 6.502627957277785 11.98040169243784 0 0 0
18 2 18.095299916969235 7.160866136726942 10.584959209717907 0 0 0
19 1 17.468437237429026 12.304961642510467 4.09572298151841 0 0 0
20 2 18.21482587588842 12.589401917808727 3.594699221162904 0 0 0
21 2 17.821268417516674 11.921065463187968 4.949718937967633 0 0 0
22 1 19.71254555205882 13.873783485918489 10.950860162393495 0 0 0
23 2 20.40601880700861 14.042879532762049 10.282169713743823 0 0 0
24 2 19.546832419941545 14.729006349026902 11.355626346118072 0 0 0
25 1 11.703287808039056 7.819146150409242 6.287510489830664 0 0 0
26 2 10.95692791845695 8.33768033954428 5.857778514836817 0 0 0
27 2 11.210704765747606 7.347070350985217 6.9800914439676305 0 0 0
28 1 13.968482194484228 9.881445952189006 13.348346823252 0 0 0
29 2 14.057389340588433 9.240415842662022 12.61614696007412 0 0 0
30 2 13.217464942300447 10.439994652264467 13.11606950560538 0 0 0
31 1 13.713755427501798 15.247591203776105 6.423249156974091 0 0 0
32 2 13.933264272164122 14.80452074377676 5.578350599564386 0 0 0
34 1 16.506645500007583 17.068861174954524 13.15913723171152 0 0 0
113 2 15.739645727339898 6.618648251676302 13.465900036099473 0 0 0
37 1 18.990972261429988 8.090581481385914 6.459655405998485 0 0 0
38 2 18.155092101771412 8.49846531273053 6.280691229955615 0 0 0
39 2 18.72369414474553 7.364601204586201 7.020065471851238 0 0 0
40 1 21.484352835505987 9.870366814401088 12.954675966403059 0 0 0
1844 2 20.036020969024563 17.45857374891037 15.02483163064584 0 0 0
42 2 20.738377758465013 10.40915479035978 12.641144682918556 0 0 0
43 1 21.498525921595494 15.056530040390651 6.1532033064641585 0 0 0
297 2 7.404354518447729 14.233423893100015 1.413523098736897 0 0 0
46 1 24.231588404267875 16.923436787791857 13.043038015910001 0 0 0
79 1 3.5423498125713384 7.8209888803462135 0.6159822313205908 0 0 0
45 2 21.77993388147659 14.359596672039054 5.467587732818956 0 0 0
49 1 5.337580237685572 3.881506845343983 3.0121116260290783 0 0 0
50 2 5.476995986309153 2.9040507222544822 2.662706399621293 0 0 0
51 2 4.559434822314152 3.8608815279471287 3.58792664046537 0 0 0
52 1 7.730010044863045 5.543860202938652 9.818884015570069 0 0 0
53 2 7.520169803777706 6.117137302995684 9.065831987156706 0 0 0
54 2 8.495213435138687 6.06481981983637 10.182149949609682 0 0 0
55 1 7.735300048971935 10.71883741486362 3.0023325236428207 0 0 0
56 2 8.000380126730523 9.760630204489292 2.8569338711003742 0 0 0
57 2 8.529824524489879 11.162506379397774 3.386897875729869 0 0 0
58 1 10.147424101139427 12.542538260375037 9.894329995283941 0 0 0
59 2 9.939135072754587 13.100221252542449 9.137661038025756 0 0 0
60 2 10.1794976785366 11.648573588902996 9.525276397171096 0 0 0
61 1 12.432438843651612 3.4426505828971146 3.0264778297612667 0 0 0
62 2 13.31025049067588 3.886685613161652 3.111480176781044 0 0 0
63 2 11.96908690833708 4.050587692726019 2.397981795706349 0 0 0
64 1 15.205697999401597 5.518665223355515 9.911045725958564 0 0 0
65 2 15.873887198210904 5.814165891199467 10.617487381945487 0 0 0
66 2 15.606174549033708 4.793625407640492 9.37213416711373 0 0 0
67 1 15.457644161257454 10.952835351342218 3.0875099844007825 0 0 0
68 2 16.180316602423886 11.480965777169246 3.4513637375398734 0 0 0
69 2 15.82590487282058 10.12684958388012 2.764437467070257 0 0 0
70 1 17.617595108549693 12.625078067887255 9.580341184514735 0 0 0
71 2 17.30376849770311 13.124624110394482 8.785564193645623 0 0 0
72 2 18.50676063891455 12.959522231046297 9.759577792469518 0 0 0
2231 2 39.25725075940217 19.432669617512126 22.243981206039784 0 0 0
546 2 31.99503924709577 3.905800909441429 12.899600166469554 0 0 0
681 2 24.081184677478056 14.254673389431064 1.749152501620413 0 0 0
692 2 29.965585149163562 13.747590429147905 1.4654162144345912 0 0 0
81 2 4.29897989882754 7.223196498496743 0.7342835697996283 0 0 0
82 1 6.042438822254815 9.874980897398414 7.474659238579913 0 0 0
84 2 6.76596909167209 9.334730465533832 7.881384205005507 0 0 0
85 1 8.611454700752132 0.6417639818145812 0.723077308879873 0 0 0
87 2 8.281421971319988 1.304364506928906 1.3738808085970209 0 0 0
2228 2 36.39340229302845 17.591328557343903 15.258368699285839 0 0 0
90 2 11.217190114139804 3.4070167421827935 6.838111496634368 0 0 0
91 1 11.136067572826367 8.048026547576686 0.6489139920058531 0 0 0
93 2 12.044591228460801 7.7791547653628275 0.9705597818454935 0 0 0
94 1 13.842861422244127 9.707969095923373 7.237141656743641 0 0 0
95 2 14.33858144185148 9.170833274239655 7.849720738926207 0 0 0
96 2 13.13519130137202 9.09673394771012 6.929481532068263 0 0 0
97 1 5.5589563674012314 4.620432616984284 5.9428609644459325 0 0 0
98 2 5.646846062639815 5.249415681916947 6.6615012543211725 0 0 0
99 2 4.898282721827096 3.9553945422649153 6.368224424675106 0 0 0
100 1 7.694481023101935 6.063864003808794 12.877369395978407 0 0 0
101 2 7.401323686070205 6.655334566290555 12.161691419153364 0 0 0
102 2 8.29768590768529 5.424754036028971 12.486107124056149 0 0 0
103 1 7.869305103414584 11.379496133522837 6.235345248286875 0 0 0
104 2 7.438115889609384 11.788973648308241 5.4516430200462045 0 0 0
105 2 7.178702753030054 10.765105775462112 6.615109729845234 0 0 0
106 1 10.08735849921044 13.223029718316353 12.901340304483782 0 0 0
107 2 10.680705696585914 13.947228110553821 13.31515485666884 0 0 0
108 2 10.813007439290311 12.705107417648785 12.491063378005236 0 0 0
109 1 12.564036961292306 4.5466153394514475 6.18332816745894 0 0 0
110 2 13.339552528109612 4.087886053727043 5.925426970489569 0 0 0
111 2 12.377010717633786 4.936960147509801 5.30524845424002 0 0 0
112 1 15.507411892153792 5.969747949791274 12.765674441406812 0 0 0
114 2 14.92598072583618 5.353114873763244 13.258779820602925 0 0 0
115 1 15.36263589657024 11.610431178039079 6.058022775532854 0 0 0
116 2 14.677378631091926 11.089761409069013 6.559120614117458 0 0 0
117 2 15.63720465332315 12.347603624815877 6.62037527333679 0 0 0
118 1 17.796012541831846 13.412754717389358 12.98116371854955 0 0 0
119 2 17.19030585462682 12.757362536440624 13.41161595519651 0 0 0
120 2 17.401652831207905 13.513912344265858 12.089620688812923 0 0 0
121 1 3.117236544069401 3.1574658038836794 4.403118461253363 0 0 0
123 2 3.309498163447072 2.2353107421073233 4.781083077532814 0 0 0
124 1 5.587031784047656 4.637246382315208 10.909021906711951 0 0 0
125 2 6.380756704552645 5.185755202723616 10.637099929807853 0 0 0
126 2 6.030363212040588 3.8976425172113003 11.41454885088957 0 0 0
127 1 5.477773680204332 9.698755493403244 4.490321818727071 0 0 0
344 2 6.808481624434642 14.00812798244423 4.760536195211712 0 0 0
129 2 6.229048324705331 10.173329087856407 4.087847651833473 0 0 0
130 1 8.022722789404261 11.277788568107622 11.140116355132973 0 0 0
1619 2 10.581618173517455 12.86101836327184 20.720472607961337 0 0 0
132 2 8.712872310453513 11.823270911956573 10.645504836714077 0 0 0
133 1 10.141137016492143 2.542174149667281 4.310693861335268 0 0 0
134 2 10.454797609886898 1.7129690648110867 4.737592752003739 0 0 0
135 2 10.898736275863307 3.0337631207886457 3.9530870846456057 0 0 0
136 1 12.908276645512759 4.565135469297751 11.142455655083708 0 0 0
137 2 13.654623803808654 4.904884994677554 10.59836894470048 0 0 0
138 2 12.746172311697281 5.188463756403826 11.872745619301934 0 0 0
139 1 13.133532369850496 9.714696827070817 4.482157433506855 0 0 0
140 2 13.923478284795587 10.190552630421521 4.2274752990165405 0 0 0
141 2 13.396484402830598 8.855184449406416 4.683704322152524 0 0 0
142 1 15.577804770921983 11.693241324475458 11.157577045676879 0 0 0
143 2 16.231078540145756 12.157655375594256 10.595348799882057 0 0 0
144 2 15.909035271723166 10.838248633830407 11.420016428485678 0 0 0
145 1 6.506890610728919 2.2341746938110063 5.175906175810148 0 0 0
2763 2 25.487582679717388 17.59329022302687 13.715130584172817 0 0 0
147 2 6.274677132746411 3.1901149564962257 5.304578024533511 0 0 0
148 1 9.353010258135628 3.9906053330914406 12.117478116256189 0 0 0
149 2 9.681913268053263 4.07219209484365 11.216771375055691 0 0 0
2733 2 35.667181261524796 5.258591968202779 19.35721301349267 0 1 0
151 1 9.261512520438787 8.984395220908214 5.0563809282381325 0 0 0
152 2 9.00168849402095 9.74871227274431 5.540369318249819 0 0 0
153 2 9.893166434020722 9.298561608580448 4.390709582040131 0 0 0
154 1 11.620696396781376 10.96969057468167 12.07977467445691 0 0 0
155 2 10.988050219015319 10.242541944450146 11.89577982618502 0 0 0
156 2 12.202115113360254 11.027240332393463 11.307816539915493 0 0 0
157 1 13.744925792451232 2.083253710736886 5.121716487236264 0 0 0
76 1 3.85947800670802 2.799709988443053 7.283939164388624 0 0 0
159 2 14.376474641818136 2.2111628089599944 4.371983410737883 0 0 0
160 1 16.673811939609745 3.655938721993861 11.856970463727388 0 0 0
161 2 16.317128839295698 4.444800440101796 12.294569353704954 0 0 0
1877 2 11.609796410326878 12.27909845775189 25.294287304975803 0 0 0
163 1 16.89444568323951 9.333133936407346 5.234365252748044 0 0 0
164 2 16.45684643720614 10.120048241800971 5.537854835606441 0 0 0
165 2 17.333589637531094 9.599052698663357 4.371540183736146 0 0 0
166 1 19.194922032756516 10.944407407856026 12.008844577305537 0 0 0
167 2 18.83619628513454 11.80101000676356 12.30396114897936 0 0 0
168 2 19.363491226217135 11.074430749576509 11.08924304370947 0 0 0
169 1 8.975540303733233 4.4828634956253355 6.1927158580392545 0 0 0
170 2 9.485399854340862 3.8477126604444156 5.608163312196037 0 0 0
171 2 8.214524546000394 4.727703299462422 5.645935231946437 0 0 0
172 1 11.397255676427443 6.099280294553613 13.045370254128793 0 0 0
173 2 11.643828696255772 6.8539699632010525 13.667874362099523 0 0 0
206 2 16.55000481402997 2.5953555183761505 3.144823914182175 0 0 0
175 1 11.388000404209247 11.675543279930588 6.236857188735359 0 0 0
176 2 12.117373616503906 11.232668260950767 5.757430722852141 0 0 0
177 2 11.862219816370484 12.33808313831141 6.782542340887576 0 0 0
178 1 13.986829016761062 12.957587472558503 13.216674174326064 0 0 0
179 2 13.27816975205035 13.168369643715023 12.591078581722472 0 0 0
180 2 14.689108134961781 12.543532523853676 12.636695753314855 0 0 0
181 1 16.36265982909865 4.317833270493024 5.988320753177687 0 0 0
182 2 16.891278832100575 3.83155355076441 5.280807934833785 0 0 0
183 2 16.913777803870357 5.043929774428959 6.293000039557359 0 0 0
184 1 18.90673277070752 5.839563839559086 13.292265406277755 0 0 0
187 1 18.863823060518758 11.443079971817312 6.280870676174181 0 0 0
188 2 18.389776135063393 10.983345497350472 6.98834029962577 0 0 0
189 2 19.28260983216082 12.23173417428954 6.754634312536312 0 0 0
190 1 21.583988393898945 13.111985977708141 12.789070005599173 0 0 0
192 2 20.882769548329602 13.468928093336151 12.240545612575477 0 0 0
193 1 7.989362231098545 2.3185519933716194 2.728999874829502 0 0 0
194 2 7.325182068221622 2.234833657782866 3.385673226175399 0 0 0
195 2 8.754469338109546 2.528116117856858 3.311976563684656 0 0 0
196 1 10.697236754828158 4.477444746587296 9.650780823851752 0 0 0
197 2 10.636495889305527 3.7234364347690976 9.043796891956534 0 0 0
198 2 11.589773621138002 4.424815798655848 10.106964269780871 0 0 0
199 1 10.938584849142591 9.659410552973272 2.937296528554114 0 0 0
200 2 10.923385896507373 8.915465396819872 2.328213635956261 0 0 0
201 2 11.86030939977614 9.776074714928628 3.243851264589942 0 0 0
202 1 13.364754171630322 11.474572115016576 9.780142980612307 0 0 0
203 2 14.217807930501964 11.578215311315164 10.251487715252908 0 0 0
204 2 13.500084448267561 10.652287824899817 9.278795794783061 0 0 0
205 1 15.665123356921344 2.5707924915010754 2.6759005854684936 0 0 0
207 2 15.79362639258809 1.987261705740509 1.8906679775404565 0 0 0
208 1 18.30464471205169 4.319148955673185 9.620019036394947 0 0 0
209 2 17.743013495125794 4.084044077240487 10.395696726195412 0 0 0
211 1 18.226186470986047 9.627363630421085 2.727810552424549 0 0 0
212 2 18.017762371506354 8.980556184823433 1.9977129299176701 0 0 0
213 2 18.379016081959072 10.459987820149966 2.171452005774011 0 0 0
214 1 20.380614565471546 11.587196266261166 9.446268871395864 0 0 0
215 2 21.228555086588816 11.633479699975213 9.91713816797031 0 0 0
216 2 20.563319800510097 10.929895726293223 8.703824841987661 0 0 0
217 1 5.408005856854288 1.4701701916324144 1.8132878813916917 0 0 0
680 2 22.72005768426839 13.710245854858913 1.3448699494241225 0 0 0
219 2 5.602566971755945 1.7332689387870897 0.8821281268356973 0 0 0
220 1 7.882898175877103 3.1628908674902476 8.44805628969817 0 0 0
221 2 7.745502652891053 3.972676135682829 9.01480057382591 0 0 0
222 2 8.140828694894374 3.4943470034573147 7.5417752439503944 0 0 0
223 1 8.147368301189083 8.33250757475435 1.9123563160106445 0 0 0
224 2 8.72482807362694 7.558363329143775 2.286698611893706 0 0 0
225 2 8.453941625150916 8.55571577192294 1.0413169763133128 0 0 0
226 1 10.269276177281526 10.264417824353757 8.35424583714767 0 0 0
227 2 11.07757648280749 9.860939973920463 8.766932499209416 0 0 0
228 2 10.613449738536234 10.506553948886507 7.415485510408505 0 0 0
229 1 13.062235414252786 1.3634947192491522 1.360869011662831 0 0 0
542 2 30.171317967567475 1.8256435559275517 5.803528950206762 0 0 0
231 2 12.968418402710935 1.9840766833385421 2.1029103609060225 0 0 0
232 1 15.645773011655681 3.4266279130774033 8.465038655195574 0 0 0
1624 1 16.368467708317475 6.240969727699877 21.13586363683928 0 0 0
234 2 15.984208671986673 3.600444372931378 7.592983471521216 0 0 0
235 1 15.514544492467225 8.488788704357463 1.894165126399556 0 0 0
236 2 15.915262332114805 8.908971514096555 1.0917715039223277 0 0 0
237 2 16.097740727714708 7.7745754361329 2.2525017397403255 0 0 0
238 1 17.752893033625533 9.99895370491463 8.38850423686823 0 0 0
239 2 18.391658692462208 9.434253617282458 8.831880765857859 0 0 0
240 2 17.632131745225333 10.806629431550023 8.995553328923288 0 0 0
241 1 7.561369994933353 4.353438715765054 0.9440229737500896 0 0 0
242 2 7.504819721227992 3.6865632118359333 1.6622796710158365 0 0 0
243 2 6.877813605608547 5.030060643937989 1.1614009931909937 0 0 0
244 1 9.856326987837244 6.32441737346296 7.876856162758474 0 0 0
245 2 10.210072811513212 5.839181416997962 8.598196988860495 0 0 0
246 2 9.690500872525188 5.710616499973686 7.156967607527238 0 0 0
247 1 9.966305878905581 11.608206242058264 0.9360627215889771 0 0 0
248 2 9.350636107565306 12.343445133800492 1.1595972206309801 0 0 0
249 2 10.286828825477501 11.16891270404081 1.6888017775425022 0 0 0
250 1 12.66038447713119 13.27464733854156 7.921052659074838 0 0 0
251 2 13.04555854578591 12.666062074638845 8.603569283945244 0 0 0
252 2 13.259621806875767 14.04212238411661 7.7405760776757235 0 0 0
253 1 15.028801877115125 4.5715755289027005 1.0940411779808388 0 0 0
254 2 15.291320808868065 3.9937928687791184 1.8508883956093152 0 0 0
255 2 14.438675570576098 5.297878491879041 1.348094954230045 0 0 0
256 1 17.51599684037697 6.103196259205111 7.67896444980945 0 0 0
257 2 17.893904640647524 5.667332996842373 8.52442179599001 0 0 0
258 2 17.073149253651458 6.887373883259862 8.056058358912756 0 0 0
259 1 17.555192687719792 11.71398665203408 0.6776211978896796 0 0 0
260 2 16.979808223797658 12.403234353833435 1.1101140089058652 0 0 0
516 2 22.36709571474775 12.120473080700648 11.598343072602502 0 0 0
262 1 19.712769585408626 13.648094538655515 7.621418568362481 0 0 0
263 2 20.189492861996452 13.20771923190624 8.361145957188421 0 0 0
264 2 20.410902123987203 14.185755803229519 7.162031351239763 0 0 0
265 1 9.643014030744947 6.127664660296987 2.6535221325548273 0 0 0
266 2 8.885508092295815 5.50156119068979 2.9925353158193446 0 0 0
267 2 9.967770992066072 5.743594050937529 1.7841683031495386 0 0 0
268 1 12.172757782825878 8.300462420853645 9.524042318175248 0 0 0
269 2 12.608174786007483 7.589508979504025 8.959498500304068 0 0 0
270 2 11.420102248221776 7.810845137815932 9.825008814771786 0 0 0
271 1 11.98168363650453 13.450913481508827 2.696698006016976 0 0 0
272 2 12.662924667514757 13.532016544423735 3.37123797653242 0 0 0
273 2 11.225721079550818 12.996897291525354 3.122389453123789 0 0 0
274 1 14.418601164878545 15.136789673952487 9.760336443455461 0 0 0
275 2 13.885737470465823 15.902675851568455 9.53530057690212 0 0 0
276 2 15.224130410503191 15.489834459408353 10.272275376420847 0 0 0
277 1 16.92809923597625 6.108226605788114 2.6038637210815585 0 0 0
278 2 16.204525850513 5.68688763836635 3.052976522014548 0 0 0
280 1 19.4583062783466 7.843119603799177 9.606213902538027 0 0 0
282 2 20.196098129863593 7.865554207713362 10.281836716186795 0 0 0
283 1 19.840509100362652 13.365711369560863 2.878685168238336 0 0 0
285 2 20.635486072648618 13.406596919341306 3.443570712912172 0 0 0
286 1 21.809011221316577 14.72679475413962 9.442098424695052 0 0 0
287 2 22.525340654133014 14.881042913219595 10.084525060836526 0 0 0
288 2 21.489475983005914 15.590397818321769 9.067473522040071 0 0 0
289 1 6.102180321726434 6.543395579993809 1.5456007280983517 0 0 0
290 2 5.6296658314955375 6.230042155579893 2.3216013581755406 0 0 0
291 2 6.664841154602883 7.302570247719108 1.8104086998154245 0 0 0
292 1 8.162626992475454 8.60700071123489 8.72267120753827 0 0 0
293 2 8.663494042981498 7.8033249447659525 8.469057180060831 0 0 0
294 2 8.805325012555999 9.309334099838914 8.53752393019408 0 0 0
295 1 8.203436870889403 13.895815232246017 1.722538313190774 0 0 0
296 2 7.959410455746876 13.591217336212244 2.617221311821285 0 0 0
2129 2 39.334488044310035 8.046517501369546 23.400404226600095 0 0 0
298 1 10.88997037425132 15.641749294327907 8.653668804050247 0 0 0
299 2 11.417969251639526 14.850955399028903 8.486835383218443 0 0 0
218 2 4.5838830334926355 0.827371481262944 1.703554303206548 0 0 0
301 1 13.422281900908558 7.055220274169344 1.6557664174908633 0 0 0
302 2 13.077660818726615 6.837224730771732 2.5080394117503992 0 0 0
303 2 14.165811693968408 7.626273565363552 1.7185196356793515 0 0 0
304 1 15.590844312739414 8.324817525699558 8.646502914326751 0 0 0
305 2 15.177333657236534 8.238637988199736 9.497590491263782 0 0 0
306 2 16.352076881325516 8.917463285756405 8.719022114750267 0 0 0
307 1 16.002888814367992 13.653731006261468 2.0764150353673476 0 0 0
614 2 28.65076278819799 0.6040928446029973 1.6811197016250732 0 0 0
89 2 11.57030137139036 2.1156195892995493 7.49025054043403 0 0 0
310 1 18.313460206414774 15.917788866192822 8.466213517763423 0 0 0
311 2 18.654294104571015 15.070470139912906 8.048607230409852 0 0 0
1665 2 9.770885739625 13.207926105127305 17.371807555606754 0 0 0
313 1 3.8260337843120267 4.559009593866275 0.8858263364100496 0 0 0
314 2 3.6536122563192426 3.6930513818721895 0.3612638216273862 0 0 0
315 2 4.454758566838044 4.209464480471156 1.6237410154916532 0 0 0
316 1 6.2386712744004384 6.519672564940985 7.563499875559309 0 0 0
317 2 6.645803611668735 7.178681147913381 6.927750456665953 0 0 0
318 2 5.662990970223483 6.95623389578332 8.192902499465335 0 0 0
319 1 6.061851955618628 11.584005225205006 1.007414896995 0 0 0
320 2 5.738415148556866 10.833351081870218 0.5167374405741149 0 0 0
321 2 6.647842168047684 11.192022571797162 1.7377077533174345 0 0 0
322 1 8.859512175007703 13.436910827152039 7.664451522878739 0 0 0
77 2 4.459199140087221 2.259019464956147 7.879979169858626 0 0 0
324 2 8.595496903949686 12.623094399168648 7.183194442078124 0 0 0
325 1 11.385123717108135 4.765376160082399 0.860817354514353 0 0 0
339 2 3.630496033358452 6.261110651914996 3.7823497937655848 0 0 0
328 1 13.317995947637849 6.566999408857395 7.969333188582403 0 0 0
329 2 12.862241983982955 5.881410919457581 7.5295217435070985 0 0 0
330 2 14.058941427075922 6.134552831612243 8.399692646554453 0 0 0
331 1 13.626251153347216 11.708769886435093 1.1984095782608155 0 0 0
332 2 13.101667462189765 12.40377092011643 1.7076807511203818 0 0 0
333 2 14.251700610714003 11.365770698944107 1.875508446479628 0 0 0
334 1 15.872949514254262 13.653990636684384 7.716357296661226 0 0 0
335 2 16.135198330542245 14.321409693225261 7.054793021028337 0 0 0
336 2 15.334711876503645 14.18369862034477 8.32080392187472 0 0 0
337 1 4.483863828983244 6.64791943771039 4.1770442957965805 0 0 0
338 2 4.796958748896546 6.007695027377969 4.806971624096598 0 0 0
279 2 17.308812991706255 5.56774871032944 1.870267585806561 0 0 0
340 1 6.888433987021936 8.063636505597017 11.054789956377084 0 0 0
2522 2 16.210545520790824 17.981848852857272 15.588490428471975 0 0 0
342 2 7.499744484943889 8.34075588023077 10.354282178387399 0 0 0
343 1 6.823224043076443 13.118114620886347 4.301910556793712 0 0 0
3200 2 34.501266441548424 9.96843210547073 3.7849725318422482 0 0 0
185 2 19.350315663615255 6.636894537293892 13.64064442798091 0 0 0
346 1 9.197140612940393 15.15805314209136 10.981440574391554 0 0 0
347 2 9.857330452226913 15.375098624960328 10.325296738694856 0 0 0
348 2 9.554286797717193 14.324238543502585 11.416500335877766 0 0 0
349 1 11.907718695781854 6.396065073431057 3.94806891562854 0 0 0
350 2 11.8738185799745 6.9482212733251725 4.721852879060012 0 0 0
351 2 11.09336772420967 6.308658495404735 3.424542707073051 0 0 0
352 1 14.297949973773623 8.185136626819165 11.180226168011416 0 0 0
353 2 14.663604797635072 7.360455425865205 11.600980704881316 0 0 0
354 2 13.543508004841796 8.107788519299557 10.583681762682668 0 0 0
355 1 14.425609502255217 13.507589994373832 4.434344340178885 0 0 0
356 2 14.772399003344008 12.744496280390488 4.845308867583244 0 0 0
357 2 14.94099889698998 13.521835445545134 3.5835974824799357 0 0 0
358 1 16.71096536794221 15.511901179265367 10.943370752506263 0 0 0
359 2 16.807941146495708 16.35049657289306 11.515458985866397 0 0 0
360 2 17.245736333969546 15.693847205887268 10.118765359228396 0 0 0
361 1 6.994178518873613 7.547069496542321 5.156497222729149 0 0 0
362 2 6.229793394250697 8.063190917098664 4.781234578272185 0 0 0
363 2 7.825402568037353 8.0527276282258 5.019670820479761 0 0 0
364 1 9.531194927107581 9.362933935849544 11.866128945242899 0 0 0
365 2 8.911109132664102 10.062546302804082 11.716016658573638 0 0 0
366 2 9.216502132094163 9.028256027288966 12.735915366867886 0 0 0
367 1 9.545654889216486 14.619524055799745 5.190519964325363 0 0 0
606 2 23.70215547436479 2.461929764088042 8.76172257734595 0 0 0
369 2 9.166375332220221 14.35165141139166 6.053613771987112 0 0 0
370 1 12.138368950349493 16.466784723292097 11.888460397958248 0 0 0
1532 2 26.323994650851084 1.363570029354435 4.77359421517623 0 1 0
372 2 12.228752550566242 15.586180243891077 11.421871840130988 0 0 0
373 1 14.442713693809148 7.534414163880278 5.261529212642008 0 0 0
374 2 15.24467849019118 8.148213463725826 5.197186840199881 0 0 0
375 2 14.407598372455514 7.329691660205116 6.209929545441385 0 0 0
376 1 16.883522589817577 9.437206607679569 12.36246107944936 0 0 0
377 2 17.827851956773923 9.60476325449374 12.374298611022075 0 0 0
378 2 16.83846659192219 8.554714615937362 11.844867868171468 0 0 0
379 1 16.976526765940967 14.918708074762892 5.462832874529109 0 0 0
381 2 16.970248713043567 14.123161501087363 4.921740985365442 0 0 0
382 1 19.48537647496478 16.675593820213166 12.043959509119558 0 0 0
2136 2 41.69673722926545 15.048205941405383 23.72039695656763 0 0 0
384 2 19.472043460523075 16.461295659855455 13.005773955874254 0 0 0
150 2 10.134866491258594 3.714845414459067 12.639791333957623 0 0 0
1616 2 7.942471647697159 10.956079689592226 13.814228487993319 0 0 0
210 2 19.190083666014772 4.309265619321882 10.055050196859746 0 0 0
284 2 20.09580113743341 12.752371263690542 2.19060788906936 0 0 0
1611 2 6.770583928472062 4.822697385330953 13.841275973417751 0 0 0
1722 2 23.821270656785167 9.116862696469369 27.123016371917135 0 0 0
74 2 11.767015730017594 8.552873383243263 26.880328551006887 0 0 -1
671 2 37.583488553585106 15.212816343957629 9.980012253534271 0 0 0
468 2 20.186899076119442 9.228017408747128 7.115365804712176 0 0 0
512 2 19.859221130555095 10.415605670426782 5.1248861656125 0 0 0
2130 2 38.47456590150577 7.182412255013997 22.325765019725566 0 0 0
174 2 11.235173634319446 5.388939451428899 13.681144601989995 0 0 0
261 2 16.99405073436082 11.010160993730558 0.2144210655208152 0 0 0
186 2 18.597212873054946 5.305622522126962 14.014600815705823 0 0 0
92 2 10.681985637132101 7.210317901399059 0.38863783487239406 0 0 0
722 2 18.30136199505559 6.434450059538882 3.813161690759897 0 0 0
1617 2 9.261884488267993 11.925614177439991 13.71315530080343 0 0 0
86 2 19.302312032055877 8.254939976671034 27.194242398932065 0 0 -1
1857 2 11.874844760761107 15.793471212698753 13.625014257279787 0 0 0
1537 1 12.593318461178653 8.554775770715521 17.727807648894483 0 0 0
1538 2 12.860643531935386 8.02410845858179 18.523320036761035 0 0 0
1539 2 11.739577626538697 8.211697800061367 17.374189247793847 0 0 0
1540 1 15.105109645480436 10.469997874681818 24.195039665333013 0 0 0
1541 2 14.805404238801394 11.359800974410213 24.366596493686647 0 0 0
1542 2 14.327989348969226 10.070652225008901 23.709309512415263 0 0 0
1543 1 14.911759835296552 15.914924092326213 17.862985959284384 0 0 0
1544 2 15.235992894440162 15.341697052910796 18.59456581846194 0 0 0
1545 2 14.572447194826463 16.782943526223974 18.28942231509042 0 0 0
1546 1 17.594234716454363 17.476562708159943 24.167992903253843 0 0 0
1547 2 17.29098894551976 18.344497154472837 24.464862800965737 0 0 0
1548 2 18.041541695729745 17.145094442410336 24.989021281834482 0 0 0
1549 1 19.759901275140923 8.998103385737792 17.879575486463754 0 0 0
1550 2 20.58891999796339 9.065958687445374 17.387659301613816 0 0 0
1551 2 19.487370805296436 9.91675960330002 18.182578401600978 0 0 0
1552 1 22.24424748486526 10.749030556929101 24.402011679089867 0 0 0
1553 2 21.747752040224704 10.159321592973049 23.86801981586882 0 0 0
1554 2 22.760956448442368 10.17969462236171 25.010879543462462 0 0 0
1555 1 22.6493142124603 15.796689057636176 17.547942546772553 0 0 0
1556 2 22.382184183079083 16.672285391980342 17.84406609073885 0 0 0
1557 2 23.31489000846568 15.983746570207712 16.87178413996572 0 0 0
1558 1 24.96927999773481 17.443131491440266 24.415709087532562 0 0 0
1559 2 25.703660488674956 17.6189903418442 23.843186813406085 0 0 0
1560 2 24.743051175895683 18.31764143962968 24.85987019106807 0 0 0
1561 1 16.690931118793074 11.86870641189598 20.166344764178465 0 0 0
1562 2 17.07160238387271 11.484132435870395 19.35853826679331 0 0 0
1563 2 15.891678617080272 12.377260941113779 19.803102638461688 0 0 0
1564 1 19.528958720239906 13.229898436700667 26.57133457843593 0 0 0
1565 2 19.80410890616001 12.59666871014657 25.90573856609365 0 0 0
705 2 20.815743717515968 10.781844748512029 0.524743895692552 0 0 0
1567 1 19.015610487031257 18.49173056369305 19.868729559314627 0 0 0
1570 1 21.583379598633147 20.313298678927016 26.69023563799591 0 0 0
1573 1 24.05138979093744 11.507976886701753 19.794283484105325 0 0 0
1574 2 23.285168282586014 12.038407761850637 19.557326770809723 0 0 0
1575 2 23.651728616752035 10.870479775862563 20.49011865376253 0 0 0
1576 1 26.422899736648592 13.545205563456644 26.708079544107633 0 0 0
1578 2 25.684109880429084 14.091401071934506 26.285080662061088 0 0 0
1579 1 26.37809771884516 18.460997468054426 19.58378603865948 0 0 0
1582 1 29.48741384917801 20.574727611701956 26.939554088783478 0 0 0
1814 2 22.509638353703096 9.06911381988735 15.415601930464746 0 0 0
1585 1 10.39601244460789 7.049520386932438 16.371779435789797 0 0 0
1586 2 10.643068394799801 6.158226747618511 16.07282624966252 0 0 0
1587 2 9.991657261652787 7.4663187369950945 15.529480876636322 0 0 0
1588 1 12.952518843835662 9.15805007282777 23.324770517635123 0 0 0
1589 2 12.39832122849011 9.471735501786034 22.564096237860227 0 0 0
1590 2 13.343446853680467 8.360075966460391 22.989750278958333 0 0 0
1591 1 12.70566217426705 14.284762392392965 16.490956622370994 0 0 0
1592 2 11.91501837694416 14.144161202959987 17.094741237306984 0 0 0
1593 2 13.411096294240416 14.855350686375466 16.920553404812683 0 0 0
1594 1 15.35800169835939 15.826497401472848 23.37571067072071 0 0 0
1595 2 14.611259414165733 15.749180934775174 24.058055569026113 0 0 0
1596 2 16.119001857256656 16.290182911016366 23.739287941767195 0 0 0
1597 1 17.636641061115405 7.201434734078324 16.58502142301752 0 0 0
1598 2 18.147201413048045 7.8671336915795695 17.07539025679481 0 0 0
1599 2 17.172216913286487 7.678917652669192 15.842578830692927 0 0 0
1600 1 20.552403147173678 8.908542790608305 23.118736191771163 0 0 0
1601 2 20.866477731448587 8.036227444718902 22.77255166237256 0 0 0
1602 2 19.826939376155494 8.721844648888071 23.707529310570393 0 0 0
1603 1 20.54083980190784 14.439436351495903 16.389377685742275 0 0 0
1604 2 21.148690672864234 15.058492985401177 16.83153124955848 0 0 0