LAMMPS data file via write_data, version 8 Apr 2021, timestep = 1761000

1008 atoms
2 atom types

-0.017258849984556367 20.68978550721965 xlo xhi
-0.017258849984556367 20.68978550721965 ylo yhi
-0.017258849984556367 20.68978550721965 zlo zhi
0 0 0 xy xz yz

Masses

1 16
2 2

Atoms # atomic

855 2 12.177341106911864 5.611013118962996 1.5240891897823075 -1 0 2
400 1 18.369130792390468 4.309594130062794 5.666329709894105 -1 3 -3
503 2 0.35515358425034976 4.378913344087795 7.2381368943123645 -1 -2 2
761 2 7.461083446472079 7.397448801976441 0.38058716359495276 0 -1 0
864 2 15.781311392212716 6.866044825322182 5.938966734560749 0 0 1
395 2 11.78937944722309 4.228296775421007 0.18540543958546082 -1 0 1
57 2 1.0414526623998248 3.8906701510458594 0.27670493061703333 -2 0 1
489 2 11.238036802707954 2.6308204406736726 8.150507292738803 1 -2 0
361 1 19.547510759126205 1.597621837861938 7.415654968155771 -1 1 0
649 1 10.05271164773409 2.3748573397607418 9.387171453626793 1 2 1
733 1 12.314590879069554 9.763436145933793 3.728536060608748 0 0 0
553 1 18.56859829610778 3.6654463280029312 1.248636164331259 -1 -1 -2
373 1 12.09581503898693 0.44510122422875253 3.7872678891867135 1 4 2
871 1 11.884756606506292 5.523331106120723 4.386548527778041 -1 1 2
328 1 7.445755685378651 10.327944108713108 0.6990958811668104 2 0 0
433 1 9.094467471100204 9.405732280104402 6.22360794265806 -1 0 -1
178 1 0.26854075694408713 5.415032741706644 3.0466219271418966 2 2 2
496 1 14.511272451255 1.3363937145624185 0.3224450007931396 -1 0 -2
113 2 2.533317897318824 5.69654798562283 7.97460593322919 0 0 0
920 2 13.930405388260285 7.662498422478229 2.6251882337770467 1 -1 -2
736 1 11.634005890400054 1.5306043516103995 1.4359224758635933 0 -1 -2
208 1 6.128290505407121 3.350456642459663 3.0159564522545406 -2 1 -3
487 1 11.84363458038993 2.8807682925331113 7.384653910288086 2 -2 0
52 1 3.6995259685814785 1.1055621111295306 0.5020745165971411 2 1 3
993 2 1.0026419146995427 7.317368008294602 7.0397674520993165 0 2 0
155 2 14.059854267796338 4.0959592273688745 5.623031126265942 -2 2 0
154 1 14.6808332661878 4.404615472902675 6.3419597908044825 -2 2 0
167 2 14.010949804366167 0.0973316746171787 7.276910491506508 -1 -1 -2
512 2 5.821004631822412 10.139662806670982 9.135566615240663 3 3 0
104 2 0.5317302697317376 9.913791013699715 9.97503958193329 0 -1 -2
319 1 9.256810769760307 5.48253089886643 5.126954816658164 0 1 2
856 1 20.05563137743945 8.197134725470882 7.1755868755202 -1 0 -1
56 2 20.228261178151627 3.772593724349479 0.47831441450964196 -3 0 1
957 2 16.196435714073345 3.825053954582236 3.2186914686207126 -1 -1 1
9 2 4.000400074600916 5.664730004390793 10.059471802739266 0 0 1
138 2 3.811047338065538 5.0214541045317835 2.2454985469859263 1 -1 2
366 2 1.3807639518530384 3.0908479782664195 6.239749408495707 2 1 1
785 2 14.141499173611646 3.6155180257784165 9.19550330418195 -2 0 0
653 2 3.2371071601757273 2.5083789190865455 3.904543939697537 1 0 0
128 2 1.3578526463855023 4.062019516929268 4.10947056599135 0 -3 0
938 2 4.341241448525396 8.534962655050824 2.393073050473828 1 2 1
257 2 12.361263013088664 1.9829383121311206 4.451756423898254 -1 2 -1
488 2 11.253512322829168 2.9085707719578915 6.617258854452264 2 -2 0
396 2 12.57082142333631 3.095309549212357 0.7690211702691439 -1 0 1
734 2 12.357615777482819 9.262084902801398 4.581939094259654 0 0 0
620 2 7.641858546057619 3.4549979754586455 0.30707714857095675 -1 1 -1
959 2 15.74808620786599 9.0156209294472 5.9644419702171945 2 1 0
613 1 6.852833275104241 7.181532889899934 7.085480955676137 2 1 1
320 2 9.152168171343886 5.612112414891667 6.115851863774499 0 1 2
461 2 16.537517992583442 1.8576390159879925 7.006719609253215 -2 1 1
547 1 9.681337887073232 2.0898895182781123 5.805648881746957 -2 2 -1
423 2 5.478829527248995 8.108069769807898 0.5429039464695219 1 -1 2
517 1 18.543518246830374 0.5891710585377875 0.9048462154779789 -1 0 -1
937 1 3.4006184508123183 8.732266783135511 2.7528657056547208 1 2 1
888 2 18.245972605156712 1.3342054307598015 4.085444686857066 -2 -1 -1
462 2 15.905712305866887 2.917173333554558 7.884891820559499 -2 1 1
625 1 12.755852139503599 7.847395723492235 5.549727047565862 2 1 0
156 2 15.389641416224865 3.7895138479161288 6.349871235422427 -2 2 0
650 2 9.484189502851434 3.1612148341035327 9.610026166871485 1 2 1
810 2 5.79445486462029 6.487409952923904 2.1177906163940987 1 1 2
51 2 20.60015730529675 0.7654805909452772 4.397098542046559 -4 0 0
738 2 10.934106483826332 2.1351391515887626 1.8218391549448025 0 -1 -2
218 2 17.13430091375415 7.109510152805107 1.9619330631373053 -2 3 -1
610 1 4.884323072873531 0.6711962486357442 6.565154260028873 0 2 0
555 2 18.022523318299935 3.729019030458021 2.0922990038607603 -1 -1 -2
670 1 5.904063506891087 8.314499831616654 4.840795261321441 0 -3 0
217 1 16.809429799265526 6.879466677817612 2.8528851563865194 -2 3 -1
924 2 19.365441033700357 6.502058230715647 9.5967320829829 0 2 3
197 2 2.651852363394298 10.334595034043677 2.4336606951056234 -2 0 1
745 1 2.8888834598859896 3.642003442904667 0.9181064111881 1 0 1
258 2 12.22170322441302 3.5411295983026347 4.305972609292455 -1 2 -1
394 1 12.686755365735829 4.028497787869836 0.5375708676625538 -1 0 1
814 1 3.355400889910165 8.969374796426166 5.519492945340341 0 -1 0
853 1 12.236169540422273 6.474466976387619 1.9892235316881723 -1 0 2
627 2 12.034365245365203 7.700712414457214 6.172899069361009 2 1 0
561 2 12.519597075210271 9.797571372252417 8.154074505455775 3 0 1
939 2 2.8167027934270523 8.001838601317118 2.377201470368339 1 2 1
724 1 2.0297673716426123 8.844514356226673 9.528789309158272 0 1 -2
435 2 8.434435950525716 9.644805729253758 6.8889755636889545 -1 0 0
384 2 3.3438393515081186 0.5349843661779466 3.308389038615903 0 -1 1
869 2 14.953400368528465 2.0831197807429636 1.8476122471779401 -4 1 0
39 2 11.202412668578251 9.120833482231175 2.7163965692655747 1 -1 0
805 1 5.497750238227959 4.85878842679066 6.7912086438974635 0 0 1
505 1 9.173090065230635 9.717173141640368 9.245134824241111 -1 2 0
363 2 18.918231009150418 1.2897246006861356 6.728848531931228 -1 1 0
684 2 17.657389848583957 4.0635220716535665 10.00849301315267 -1 2 -1
14 2 7.561352135144538 0.8840938467345869 1.9863122187702362 3 0 3
998 2 16.01080438754586 1.3780803032598605 3.498800089376597 -1 1 1
921 2 14.68763155518564 8.696645228928677 1.8980586894451177 1 -1 -2
18 2 8.212027578357793 2.797609644763034 5.832971824057578 -1 1 -1
960 2 16.16752410879859 9.833605645776629 4.713797024460073 2 1 1
808 1 6.407807557458484 7.215121493809431 1.8024343496429265 1 1 2
739 1 17.22391910262657 0.10644388526818 6.529488818411026 -1 0 0
862 1 15.259012988778201 7.458113227152641 6.5173241116624405 0 0 1
815 2 3.3367739867293706 8.991660564470926 4.568418947139697 0 -1 0
776 2 1.396848711189119 6.16065942991942 2.0110457835021553 -1 -1 2
614 2 6.366255686084088 6.313194329852554 7.15258491239845 2 1 1
134 2 15.396507079770723 7.536314578568573 8.23782717036604 -2 -2 0
777 2 1.227753787896479 7.419804229378023 1.155342261310186 -1 -1 2
606 2 16.172697611761 6.1287595332248825 9.94468834805082 -1 -1 2
286 1 19.497609692901886 7.346400848461993 4.38024966186017 1 2 0
79 1 6.500721904672665 0.22078742930996323 0.6304644913122448 -3 -1 0
988 1 1.8414022842862048 0.05754512986712191 9.237424670180589 3 0 1
115 1 8.57297326211795 4.607846748092074 9.96886831957051 -1 -3 0
210 2 5.610280642823519 4.169849781688528 3.261161193464775 -2 1 -3
615 2 6.608681020488142 7.686309724022743 6.216261802283281 2 1 1
434 2 9.933524209034887 9.831573161060676 6.513121806032256 -1 0 -1
955 1 17.046539317966886 4.212079062890187 3.304482683807272 -1 -1 1
872 2 11.933320862903969 5.813996579219911 3.4532713225855147 -1 1 2
696 2 8.808178350641157 6.757204777144891 4.06980930990698 1 -1 1
137 2 3.847913635750426 6.019619745135949 3.47562483304543 1 -1 2
166 1 13.679090526263584 0.8282495348711512 7.817567045095877 -1 -1 -2
694 1 8.565349338672672 7.485581636552309 3.4782042094545225 1 -1 1
209 2 6.238750901242701 3.488280666412964 2.0660672282218364 -2 1 -3
28 1 9.739286900720316 3.0266780771464754 2.6589934373331503 -1 0 1
341 2 12.441221723512252 4.2056648787754245 8.033824964917056 -2 0 -3
385 1 3.3351940702524163 5.9739945049106975 5.318389024856105 1 3 0
747 2 2.2507021509035043 3.238473067636923 1.5179999011482834 1 0 1
637 1 11.358638268625176 7.150018314386487 7.840396073947063 -1 -2 0
887 2 18.950879801015056 2.5255311800016242 4.602453042964305 -2 -1 -1
612 2 4.859161979373619 1.3243290564076617 7.285818209171432 0 2 0
992 2 2.4402348490856274 8.124335358595143 6.659057774856883 1 2 0
672 2 5.079763483640363 8.495331909141093 5.232948551974028 0 -3 0
330 2 6.990505039406342 10.227168516033755 1.585456619175659 2 0 1
740 2 16.901061899054984 0.12815489929569715 5.566466825409718 -1 0 0
925 1 17.367713234465647 10.31759064799442 3.284246891820481 -3 3 0
329 2 8.086220787204349 9.610783918540939 0.49705578250874766 2 0 0
153 2 5.582385242466377 1.1449986274366084 9.86145442879711 2 1 1
726 2 1.839395580768497 8.208367723168168 8.790077942894289 0 1 -2
956 2 16.924729023978315 5.182632032157844 3.1939045396273533 -1 -1 1
180 2 20.51844532974187 4.901749179312396 2.356470678483328 1 2 2
149 2 18.982240580294828 8.280484465557235 8.97747885337372 1 0 -1
309 2 6.728584741987789 8.010636579386592 8.447924248351717 0 1 1
179 2 20.358850851528665 6.0983007912754195 3.2853700561741177 1 2 2
559 1 12.158183912957123 9.437751602657356 8.953256150954443 3 0 1
289 1 13.943176610461162 9.698383332073051 0.5682942752417001 2 1 3
870 2 14.281504797749935 2.187914032262039 3.3005357056457316 -4 1 0
26 2 3.6440279181966346 1.7930059558392335 9.023564312004835 3 1 1
38 2 9.855784716448914 8.24854076417127 2.4985416040859763 1 -1 0
30 2 9.545648350397489 3.824358100170922 2.053171875594815 -1 0 1
619 1 6.764113700980435 3.0040967354092047 0.34550166908616003 -1 1 -1
654 2 4.70597081013769 2.297396145537068 3.4887152501777905 1 0 0
549 2 10.000004633263122 2.1425106753908336 4.90684074232085 -2 2 -1
502 1 0.1664316568768232 5.3301848138180725 7.033427710846902 -1 -2 2
807 2 4.782229610065927 4.634968746475378 7.417394705836165 -1 0 1
868 1 15.057694582895564 2.4520957784293738 2.733744601355515 -4 1 0
858 2 20.474305780979254 9.068204131467944 7.035507351088815 -1 0 -1
274 1 17.26977660505166 7.462239148212927 0.09170203662892637 0 -2 -2
283 1 9.000762103409485 4.787159234780361 0.4724970439713226 -2 1 -1
401 2 17.830723250579315 4.350840446361279 4.877569407014381 -1 3 -3
148 1 18.312981890106386 7.833976906025016 9.625565161220443 1 0 -1
17 2 7.166983284747086 3.0419590352896044 4.649124946337923 -1 1 -1
621 2 6.959031763114892 2.1080704051422643 0.11820230617301754 -1 1 -1
923 2 20.365376974018794 6.000898586611542 8.52650182825214 0 2 3
135 2 16.665763233389686 7.772506585539565 9.13405566306411 -3 -2 0
892 1 9.136165893128847 5.947460021080809 7.837834389710743 -1 1 -1
387 2 2.740258878469274 6.333736588567461 5.975114901907029 1 3 0
287 2 19.871799888563977 8.056597163991842 3.8163320560089535 1 2 0
611 2 4.7288667299570655 1.0861970111782064 5.731218142338649 0 3 0
919 1 14.568842052438734 8.36222466590605 2.795845689182555 1 -1 -2
362 2 19.047594536482052 1.9280718180299654 8.142294585569656 0 1 0
854 2 11.476934754383457 7.073848594206253 1.7135243869356955 -1 0 2
343 1 2.167649554493049 3.0871190751958366 9.862402365951308 1 2 0
256 1 12.748313412672495 2.86506429444559 4.760415849243739 -1 2 -1
735 2 13.142686523885963 9.497819430405684 3.2965442913445964 0 0 0
472 1 0.4970205882306081 8.991027343447755 0.46525942748293425 1 0 1
635 2 20.409192913032086 9.308101926283443 1.961891365732644 -1 0 2
626 2 12.625454841385004 7.065063556416919 4.958071093055543 2 1 0
504 2 20.26611945852472 5.330972286350171 6.270794138274306 -2 -2 2
365 2 0.2835493106023129 2.4105310757972123 7.12149788830916 2 1 1
816 2 3.2918766267448576 9.884668216431042 5.833324001478946 0 -1 0
922 1 20.13081420115096 5.846145651945879 9.483647799530132 0 2 3
50 2 1.3024246611457841 0.15926172580486445 3.8190944528080215 -3 0 0
27 2 4.693418300704763 2.839735766799692 9.22777540923829 2 1 1
651 2 9.515948639281763 1.5553934637506064 9.383454288838866 1 2 1
746 2 3.3549574066802585 2.8126077227302946 0.6050437824457302 1 0 1
893 2 8.354236737983555 6.568407527609099 7.577059048460941 -1 1 -1
25 1 4.5505994381237995 1.9762356627856583 8.812073059302108 2 1 1
321 2 8.689960004749873 4.637734481696111 5.125572779168886 -1 1 2
345 2 1.6359731368868462 2.65929251349504 9.120203455218824 1 2 0
519 2 18.604626862552152 1.5528912595544895 1.0040765112607553 -1 0 -1
364 1 1.0759268303871345 3.031945161452779 7.18230251407159 2 1 1
554 2 18.03115702857003 3.7694748410979186 0.4216893568122478 -1 -1 -2
683 2 19.156774905829185 4.267221993540741 9.446494980758402 -1 2 -1
340 1 12.938489946145973 4.994981599431759 8.314476084720326 -2 0 -3
894 2 9.960882536947153 6.51868189550928 7.900509185561438 -1 1 -1
634 1 20.19114075767008 9.368490926548098 2.9112047726152395 -1 0 2
37 1 10.662879879189898 8.52321471932667 2.067372090977864 1 -1 0
342 2 13.38729919102788 5.212834645013031 7.504842773596286 -2 0 -3
973 1 0.5885455562002868 2.3568046842934915 2.150789078011664 0 -2 1
375 2 12.044618083573903 0.622785677364498 2.824709409807896 1 4 2
638 2 11.900508302116945 6.319014901823315 8.008924256919894 -1 -2 0
29 2 9.048324899854949 2.3602235931091697 2.5641977580568613 -1 0 1
116 2 8.733300113836382 5.151645752718331 9.130684726419119 -1 -3 0
682 1 18.46292797697085 3.595960585662235 9.68970476945085 -1 2 -1
386 2 4.101178604538492 5.576277653037672 5.798918532478681 1 3 0
652 1 3.9720730934184645 1.8397371076200015 3.9197842081102463 1 0 0
402 2 17.85801534365882 3.9501133630584935 6.387734782037787 -1 2 -3
886 1 19.138615579196827 1.6634716057340888 4.158345896693381 -2 -1 -1
991 1 1.9730727009715823 7.353194134029387 7.068223776359905 1 2 0
285 2 8.82174592735768 5.706877033406253 0.14982739461701397 -2 1 -1
219 2 16.101511838356824 7.515252475285888 2.9990047637847015 -2 3 -1
460 1 16.499489682459473 2.817993087461109 7.131682812869592 -2 1 1
129 2 2.4725356953431588 4.669201731562207 4.852599999507551 0 -3 0
127 1 2.204183945006863 3.779631124397635 4.394943796610391 0 -3 0
873 2 10.904718199810478 5.387309547901655 4.572409155082721 -1 1 2
307 1 6.60880352875896 8.635883481926207 9.207303164385324 0 1 1
507 2 8.301608235467498 9.275566422750511 9.148669601852854 -1 2 0
857 2 19.680785391453814 7.906072523336077 6.305690356552513 -1 0 -1
639 2 11.760223467512116 7.840245610967083 8.425346706868664 -2 -2 0
671 2 6.028387582152257 9.076492898104323 4.2954199044804735 0 -3 0
16 1 7.402953677540778 3.3607124647480093 5.5440037906575155 -1 1 -1
843 2 16.94456100302167 9.800954399154632 0.25573522923891456 -1 0 -2
114 2 2.7212225360384528 4.520576010575556 8.975124768848152 0 0 0
975 2 20.566663252137495 2.354904664468896 2.7351213289836784 -2 -2 1
809 2 7.103218910438649 7.448921235780927 2.3684048498559336 1 1 2
239 2 3.025439793760737 6.404314888671987 0.22515357477838369 -1 -1 3
594 2 13.193536341639764 5.426035258808576 10.12086909624474 -1 2 1
786 2 14.061470236797048 2.0637366165888698 8.911118495163022 -2 0 0
806 2 5.929661799583401 4.057936741674795 6.483288131760136 0 0 1
784 1 14.530301617622435 2.776676894564123 9.450950302053972 -2 0 0
737 2 11.207927542193472 0.9662329412778221 0.7058104591427098 0 -1 -2
136 1 4.350043027017662 5.652056247585356 2.7699659486811616 1 -1 2
528 2 10.49549284137666 9.524209059398274 0.7347918705552987 0 0 1
695 2 8.110393337056097 8.12879308304824 4.093990352146106 1 -1 1
133 1 15.707407088376359 7.5680100422278045 9.145548629521587 -2 -2 0
288 2 18.593398122479332 7.233928353361605 3.977791511164909 1 2 0
560 2 12.967125116133673 9.606310296630607 9.557158609866564 3 0 0
863 2 14.322814233573219 7.383044538744882 6.167741002768662 0 0 1
974 2 0.4882327400509329 1.469482295148468 1.7247554164483767 0 -2 1
636 2 20.498938865009816 10.181114277086747 3.3848687493365053 -1 0 2
775 1 1.9041744596557006 6.8542416853100985 1.5685577096855667 -1 -1 2
112 1 3.1706295247132004 5.109873499456962 8.387026033612058 0 0 0
308 2 6.560530214465761 8.11279279818207 10.056262908243623 0 1 1
437 2 9.00405017826644 10.226340764281879 4.731036660014232 0 0 1
997 1 16.467598899024605 0.5827457550617544 3.912250288515196 -1 1 1
13 1 8.139026585003183 1.0213736003037863 2.7379892973426023 3 0 3
827 2 6.789213202384708 4.202585365843313 9.667342028547216 1 -1 0
69 2 7.885875359220261 0.32951019121564595 9.721177652361511 -2 0 1
168 2 13.200146478044916 1.493050230434659 7.272982274651541 -1 -1 -2
518 2 19.488535097962952 0.31305358198939975 0.8262086216527439 -1 0 -1
826 1 5.952905368297325 3.863368096720812 10.041935381511271 1 -1 0
927 2 18.195072513941067 9.750464418436948 3.2792960489486904 -3 3 0
548 2 9.54549096872815 1.1486083157798774 5.973754539540902 -2 2 -1
725 2 2.237732186213386 9.642511907623184 9.025485834923076 0 1 -2
506 2 9.882563957984814 9.12815657690983 9.069860382572545 -1 2 0
852 2 14.414334894778756 4.867309165871434 0.1398254747568506 0 1 1
54 2 4.644132205785459 0.9791445596212534 0.44343147459410315 2 1 3
15 2 7.908458808385613 0.24803666701098473 3.2900299129839885 3 0 4
629 2 14.789630806448011 8.789127630797323 10.206133645518321 -2 4 0
958 1 15.767277836608134 9.965175901481565 5.588830282171615 2 1 1
474 2 1.1671849910431418 9.634153415460922 0.009418016643225774 1 0 1
49 1 0.6200575705897805 0.08450949790535126 4.530873353956656 -3 0 0
990 2 1.7847128903410188 0.05470179036949983 8.269499359377624 3 -1 1
842 2 15.5787410328006 10.220522858695864 0.7384705753467102 -1 0 -2
989 2 0.919104723079251 0.05830550649370917 9.574329842386083 3 0 1
355 1 11.1848539866661 4.401569362350169 16.47843694250502 -3 2 -2
132 2 16.366468480592246 3.38910067104018 15.156523535429423 0 1 -3
165 2 5.717167075061367 8.726373854196678 11.681011265518219 -1 0 0
891 2 13.733114822101633 9.241444685854843 13.761226840208083 -1 -1 1
590 2 14.568365631413789 4.687395612022618 18.48330679534544 2 0 -1
706 1 6.768354923961307 6.101816947934295 17.93480934194227 0 0 0
533 2 3.1780780394538204 6.179103383163791 14.554251288022037 -3 1 3
411 2 19.40402760628646 8.615118717208215 14.659293022038694 1 1 -2
84 2 8.296083997976645 4.424645905200094 16.01540525139782 -1 -1 0
377 2 10.604245992171606 7.328284418061508 18.105128012617502 2 1 1
941 2 0.41475208381466744 8.234611341206952 17.93987093787236 1 0 1
314 2 0.6413651753961327 7.307683341006125 16.038296544215356 2 1 0
604 1 16.424798646417997 5.281235640131692 10.40909534264842 -1 -1 2
317 2 18.64333058758039 0.782576740603938 17.204753872067666 0 1 0
359 2 17.55991435048013 6.420719138135589 17.846938262566447 -1 2 -1
243 2 9.49629560947019 3.7906107673934923 13.960515301969451 0 0 1
899 2 17.557272545804153 4.468411663173563 18.830002079718913 -1 1 1
1008 2 4.791671242438055 4.504055279970901 16.010274660003084 0 -1 1
22 1 16.738937180175395 0.8107774343919426 19.446294189638152 1 0 -2
431 2 19.616903345751243 2.186545730466219 12.022189004909714 -3 -1 0
380 2 10.341498268800887 0.3573595895132852 12.050226848402707 2 -1 0
338 2 12.455605760750263 5.524098677621198 15.91787477406653 -2 0 -1
405 2 16.57249449332612 8.50589223274224 17.642421668405394 -4 0 0
690 2 20.14330652967873 5.788281094386821 20.094176920852586 2 -1 0
318 2 17.60845810820842 2.1474936231456314 16.888871614596997 0 1 0
252 2 16.555642446773945 2.83068845016352 12.54400606783347 3 0 2
430 1 20.33354803928318 2.649087100979583 12.50503174298765 -3 -1 0
323 2 18.103592803704796 6.302773361185928 12.407055981483836 0 -1 -3
556 1 10.029115085529424 6.050642128111739 11.780496849332012 1 0 2
8 2 5.043489876933988 5.007331995916509 11.012981083419088 1 0 1
890 2 15.145060418132074 9.779074278228961 13.754138553145332 -1 -1 1
241 1 10.47644983873701 3.8311528702303406 13.957993503137862 0 0 1
473 2 20.6742284682072 8.568475883026476 20.51400140014406 0 0 0
446 2 5.2008088584079815 9.546659175606399 13.350273190101 2 -1 2
534 2 3.626630631518067 6.482504674486346 15.959487366796948 -3 1 3
337 1 13.322904308510255 5.970017145413705 15.77937239343816 -2 0 -1
378 2 11.04495550487937 8.541494929368229 19.00785857650292 2 1 1
557 2 10.596868961084235 6.875644438057167 11.72151303818697 1 0 2
207 2 10.912984666929335 2.360515525416065 11.332518978239898 -1 -1 1
467 2 20.071092615163884 2.365684091277065 14.112168679756877 0 2 -2
628 1 14.182551608562104 9.536043769237745 10.522822139060747 -2 4 0
655 1 12.649168291582798 8.28206763184714 14.398827161701009 3 0 1
526 1 10.28612758149164 9.907166979278497 20.54959288214748 0 0 0
492 2 2.7388384184293666 4.537876336320381 17.087471115865632 1 0 0
276 2 16.579378180254267 6.863054793141985 20.51736145823817 0 -2 -3
752 2 0.8189948696018715 0.6550037198248725 18.861002386271295 -3 0 1
163 1 6.075536100570639 7.814540191508798 11.59448277838454 -1 0 0
6 2 17.540541600678203 1.17812244787324 11.411988577497997 -2 0 0
442 1 16.846085754405724 7.388883752010319 12.06440223532486 1 0 -1
985 1 13.823643902928339 4.214824657752129 13.415696844678875 0 1 -1
403 1 16.265294874962997 7.619651237333463 17.360712614386472 -4 0 0
464 2 13.555152413719846 2.626359288925752 14.544941476121267 1 1 -2
976 1 17.285600198264653 10.283787884794283 18.628209222005243 -1 -2 0
603 2 12.192862920170036 7.97883477295246 12.912875966420204 4 -2 1
313 1 0.27214220997022476 7.182394131262172 15.12576265714012 2 1 0
215 2 9.4692436041741 0.26185046057508815 17.067300331788545 1 -1 -1
277 1 5.9561240289556485 8.636097778860742 17.97045507902614 2 2 -2
432 2 0.4035718031358912 2.084424652108832 12.326124717498079 -2 -1 0
151 1 6.359727282106841 0.8755149674959879 10.350469366579981 3 1 1
205 1 11.088581556108224 1.9018666460533034 12.202014249283902 -1 -1 1
53 2 3.4752249614445434 0.9888605403815441 20.28756168219907 2 1 2
589 1 14.358184651663095 4.219155109116954 17.651024023612784 2 0 -1
987 2 13.55953812246637 4.545410167473594 12.527212735357299 0 1 -1
77 2 3.3212972871930426 3.6032097514166295 12.770062610937076 -1 -2 -1
344 2 2.1229671118714566 2.492145612660893 10.653258204931346 2 2 0
702 2 1.099682294880393 3.0065473803733545 17.394862522170083 -2 1 0
946 1 3.2885892675986788 9.275859205487572 17.67599021306711 3 2 1
223 1 8.410130053132805 8.31057384339069 12.762635934048204 -1 1 0
509 2 0.10950560924905725 5.242383722458828 10.837665887046182 3 2 3
357 2 10.370279964057463 4.86554406113059 16.791378359050007 -3 2 -2
32 2 8.447859136394536 5.979799122244019 17.631934500708294 -1 2 -1
915 2 11.738822474000711 8.968973145455765 17.145846809566958 0 1 0
376 1 11.361945675231762 7.84872342096128 18.40876526225428 2 1 1
630 2 14.140073980378489 9.60495285464138 11.500620308338577 -2 4 0
7 1 4.354678629768957 5.691094922699329 10.997789330374967 0 0 1
83 2 7.038050639268943 4.471523490448693 15.131487314693597 -1 -1 0
422 2 5.580333798717644 8.686643912267078 19.78209799736381 1 -1 1
697 1 1.7668161519463894 8.453710373335998 12.239832026564729 -1 1 0
470 2 13.253591411057167 7.730625589699837 18.698177428603582 -2 0 -4
106 1 13.324611631429091 0.22772818647800633 12.495204907006011 2 1 3
118 1 19.839461736562086 8.062134279187442 12.35244165541263 -2 0 -1
707 2 6.142628556558106 5.391821344154834 18.216801144568425 0 0 -1
31 1 9.422747748185525 6.182733847038728 17.411138596381562 -1 2 -1
895 1 10.726471275552724 1.2389506464651192 15.69125103894966 -1 0 2
279 2 5.038105062840915 8.870412301648258 17.59035497954036 2 2 -2
251 2 17.36475557906337 4.167490635607848 12.748027196035151 3 0 2
1006 1 5.461830699353593 3.9099279666121145 15.614421594417848 0 -1 1
510 2 0.07753332125358395 4.215944300750174 12.047498741350738 3 2 3
632 2 6.325366687607697 8.324126155265795 14.751606372336607 0 1 1
339 2 13.634271432350532 5.527757642435301 15.027145864146416 -2 0 -1
358 1 18.21837959170861 5.6476226656929835 17.854743370116662 -1 2 -1
698 2 2.289676762995165 7.7310820511835745 12.617492733726976 0 1 0
569 2 6.191837987832879 0.5470161670774263 16.314019458367703 0 -1 1
588 2 8.427791434405451 9.80621300853867 12.432506255528919 -4 0 -1
240 2 4.031658423139896 7.2724292400645965 20.081149384075243 -1 -1 2
497 2 15.28096447067214 1.386959395180452 20.415266464429234 -1 0 -3
493 1 4.246156794981601 1.8558209555055087 18.303242383173988 1 2 1
900 2 16.81374244829956 3.2238489693692824 18.980096064683583 -1 1 1
367 1 16.54545575826166 8.344218575851148 14.635730123743322 1 1 -1
593 2 12.933264471937283 6.5666679724174655 11.266748957829606 -1 2 1
508 1 0.23553486428154738 5.13475301909125 11.821894419702058 3 2 3
250 1 16.575025874547002 3.655853592752177 13.03578662332525 3 0 2
242 2 10.70688420197326 4.1000472995384145 14.88939154762118 0 0 1
284 2 9.57331716150572 4.294113900520691 20.569570892662185 -2 1 -2
415 1 9.05591986322256 2.3445782865647864 17.368748584056135 2 1 -1
368 2 16.336019787140042 7.922307530240996 15.482799006929824 1 1 -1
278 2 6.58940598601578 9.276151846357319 17.686667462097496 2 2 -2
760 1 8.103781613624118 7.224933465634106 20.343471280665536 0 -1 -1
24 2 17.23824528215746 1.1019112126249464 18.65931997232861 1 0 -2
471 2 14.316117558515192 6.894864244946713 19.54760817336495 -3 0 -4
942 2 1.2383807462688 6.907812451167397 18.132515853684865 1 0 1
322 1 18.576137192518292 5.541477510700463 12.818012218266166 0 -1 -3
23 2 17.463229220623468 0.6523179259715209 20.067249449921434 1 1 -2
699 2 1.9985902109773674 8.54187935589166 11.307434128848943 -1 1 0
605 2 15.69237702287985 4.937594912823971 10.883540227334978 -1 -1 2
131 2 15.658893436402554 3.7151623607485544 16.599870565944702 0 1 -3
930 2 1.9656460843741135 1.628324362310569 14.13214527564136 2 0 -1
558 2 10.518831002741953 5.513886327621683 12.421123280257909 1 0 2
152 2 6.0782112300112905 0.7138424317623415 11.27738675139089 3 1 1
5 2 18.2946351175836 2.1409966964288194 10.584905842435422 -2 0 0
568 1 6.488054069322716 1.3739859420234142 16.765212063798213 0 -1 1
966 2 2.1505689075915746 0.565807926790049 11.990982455271507 2 1 3
445 1 5.0431799588817805 10.030708216490847 12.513485217302215 2 -1 2
940 1 1.1972078995083781 7.706257117742381 17.60131212772406 1 0 1
851 2 15.823061773290593 4.85718203568303 19.968625831639994 0 1 0
848 2 8.58939537952345 7.664681235923782 14.281126799321484 1 0 -1
360 2 18.306291974163205 5.351574826972884 16.91661119275369 -1 2 -1
609 2 9.88376551882993 2.9329846772932666 18.644625087110896 0 -2 1
491 2 3.6019439951115926 5.45152496895468 18.17805168691532 1 0 0
898 1 17.21315168253351 3.8771116213231553 19.55574876551799 -1 1 1
350 2 19.61422642304728 2.2249410490386263 18.216562706834303 1 1 -2
978 2 18.179004296563047 9.992232877352613 18.373478328112277 -1 -2 0
417 2 9.653798739948675 2.028999343228702 16.734817733159407 2 1 -1
469 1 14.16885157668323 7.703344787102309 19.073829967536454 -2 0 -4
465 2 14.313033860846925 2.050772072445918 15.732777894718089 1 1 -2
657 2 12.212759738769936 8.8863048591845 15.090576681742364 2 0 1
532 1 3.6198973070689457 6.84236232890196 15.036049095015773 -3 1 3
416 2 8.155910162247684 2.0882609571351223 17.09174605489627 2 1 -1
34 1 19.080834335445495 4.833266632875274 15.420013711102731 -2 3 -1
186 2 5.667927027549456 3.9571693865770237 20.097578930759735 3 1 0
468 2 20.36549403580567 2.1519109043671447 15.660121099767396 0 2 -2
691 1 15.789916192316111 1.5456178348210956 11.532063845906203 0 -1 -1
324 2 19.36583470965153 5.3624285166264025 12.27383198793314 0 -1 -3
109 1 13.068517960471148 2.2240891201517448 18.735791548779517 0 1 -4
184 1 5.01686874293966 4.306934758029944 19.439293290369182 3 1 0
692 2 15.182397326722306 2.009409656881754 10.863684765525484 0 -1 -1
117 2 9.03237624892718 5.133224213366449 10.624209952060378 -1 -3 0
351 2 0.02635009578990421 2.773223223066714 19.215236702255183 2 1 -1
164 2 5.31488566948593 7.195091528659294 11.49822686271336 -1 0 0
498 2 13.953534443984289 1.991749734121034 20.52268663977738 -1 0 -2
889 1 14.315388686551287 9.839925430475676 13.30064989320465 -1 -1 1
701 2 1.9852810730225523 2.7926565678599444 16.09840992558287 -2 1 0
369 2 17.441041057971223 8.626518193770847 14.785684592436315 1 1 -1
111 2 13.610660055579462 2.850443937414906 18.187249635274046 0 1 -4
850 1 15.00828110926321 5.358669552995141 20.200953742739326 0 1 0
897 2 11.56589881197697 1.661759848355381 15.492915724855614 -1 0 2
849 2 8.049205472065353 6.478354499903294 15.050021166940653 0 0 -1
4 1 18.447676472480076 1.3850451781439563 11.142403605784047 -2 0 0
110 2 13.235451523759743 1.2749933611948412 18.427819775209976 0 1 -4
689 2 19.45135589765133 6.445186129580422 18.973917804989362 2 -1 0
316 1 18.182364426134274 1.6448747977142593 17.493939371681048 0 1 0
490 1 3.472461013471036 5.250481594862118 17.259110356347286 1 0 0
693 2 15.054061623648725 1.209523223934286 12.126689146045496 0 -1 -1
708 2 6.3104951554881845 7.008360829371756 17.803330088896246 0 0 0
33 2 9.353358944117268 6.706555176786945 16.604196102787807 -1 2 -1
222 2 18.161988644378344 9.646807631699701 12.678604913964753 -2 3 0
762 2 7.628101049166208 7.003231049199305 19.52764122750289 0 -1 -1
194 2 19.55559742078421 0.29013719628626766 10.4484422194043 1 1 0
238 1 3.4896109129937547 6.376680119162738 20.053250948102026 -1 -1 2
1007 2 5.529018717614536 3.059411686957579 16.000022198514557 0 -1 1
120 2 20.053297811164022 7.254670004369135 12.821946084343702 -2 0 -1
82 1 8.053439580141372 4.610624376904634 15.122834784096364 -1 -1 0
791 2 2.466926708090228 9.67152844774846 14.67654221518343 1 -1 0
601 1 11.820200345722832 7.88302294273277 11.960587640892346 4 -2 1
35 2 18.72433940874108 4.953141078926697 14.525538845293385 -2 3 -1
78 2 4.6121357448845 3.311967764069337 13.433083616301353 -1 -2 0
700 1 1.9184466147009251 3.279398662580961 16.96685392707336 -2 1 0
290 2 13.911081835312196 9.088913442912743 20.547382737890842 2 1 2
206 2 11.04105628714615 2.6510445401009624 12.827999948251103 -1 -1 1
913 1 12.009303095102409 9.629091597721407 16.448484433136326 0 1 0