LAMMPS data file via write_data, version 15 Apr 2020, timestep = 3306000

576 atoms
2 atom types

6.3008612381998752e-01 1.7289914876168240e+01 xlo xhi
4.2508512382011254e-01 1.7084913876168365e+01 ylo yhi
7.7508612382004749e-01 1.7434914876168293e+01 zlo zhi

Masses

1 16
2 2

Atoms # atomic

284 2 2.2651340982564871e+00 3.0126452808644024e+00 2.9000352492354273e+00 5 -1 -1
283 1 2.4918334230069625e+00 3.4232139265826094e+00 2.0380247761614512e+00 5 -1 -1
285 2 2.1200191819961249e+00 4.3129606982951438e+00 1.9711193144874655e+00 5 -1 -1
120 2 3.7933362573418505e+00 1.4088590873857081e+00 1.6506885429135401e+00 -2 1 0
291 2 3.5304525699894991e+00 2.2482273352017765e+00 4.8501804109317330e+00 0 -4 -2
289 1 2.5912366055607752e+00 2.1898072719276271e+00 4.5764684060755947e+00 0 -4 -2
80 2 1.3484436205310923e+00 1.2016688951984771e+00 1.6577033667830161e+00 -1 4 2
290 2 2.3028365373424258e+00 1.2761947407650771e+00 4.7882342007431307e+00 0 -4 -2
461 2 4.2616595583504981e+00 3.6998051023822076e+00 2.1713262723944071e+00 0 1 -3
118 1 3.5103598906736480e+00 7.4108238970234641e-01 2.2686187724749365e+00 -2 1 0
119 2 3.2840385178403237e+00 1.1786104286570547e+00 3.1163932698962395e+00 -2 1 0
560 2 6.6809700765832547e+00 2.9729367908343862e+00 2.9342749778100954e+00 1 -2 -1
559 1 7.2449395382430062e+00 2.2286558483484207e+00 2.8159864871198770e+00 1 -2 -1
126 2 5.6887228622184276e+00 1.4347318861620735e+00 4.5899447682842185e+00 3 -2 2
561 2 7.6616583962053397e+00 2.0520197576629378e+00 3.6267793311629837e+00 1 -2 -1
460 1 5.0854711620634419e+00 3.9454935739964743e+00 2.6503352011735224e+00 0 1 -3
462 2 5.6679599687904441e+00 4.4654929106259829e+00 2.0862168078499108e+00 0 1 -3
511 1 6.9050701065109914e+00 4.5898504016913932e+00 8.7047175712610925e-01 -1 2 -4
227 2 8.6984837677352065e+00 6.3412159992758466e-01 4.6265966541217978e+00 1 3 0
503 2 6.6977936035427730e+00 5.3864693805623565e-01 2.4409188886761921e+00 0 -1 3
296 2 8.7288171437399527e+00 2.3422029994907536e+00 2.1375755031204440e+00 -2 -2 2
490 1 4.4844317810482792e+00 5.5235497086305614e+00 4.5558823237667223e+00 0 0 -2
237 2 3.2885323982005268e+00 8.3169834976934069e+00 3.2240662597812375e+00 2 4 2
492 2 3.9022041511721963e+00 6.1412921456512048e+00 4.0423610730596176e+00 0 0 -2
235 1 3.1298875085470561e+00 7.7513236344020395e+00 4.0454904303582202e+00 2 4 2
116 2 3.5654177776419651e+00 6.2117494929913271e+00 1.8978234796965974e+00 2 -4 -1
313 1 1.6073479243942206e+00 6.1637464426342365e+00 1.7359149352128853e+00 -1 1 4
315 2 9.9186638201734723e-01 6.3976603661894416e+00 2.4946539372484393e+00 -1 1 4
115 1 4.4002715346392351e+00 6.3313172897351624e+00 1.3938066675245311e+00 2 -4 -1
491 2 4.6999454569498997e+00 4.8196615958648144e+00 3.8518647784556959e+00 0 0 -2
236 2 2.5280515530480585e+00 8.1985097055317624e+00 4.6523964676842198e+00 2 4 2
314 2 1.6035497987939904e+00 6.9095020572385604e+00 1.0612768661609022e+00 -1 1 4
117 2 4.9645538278703656e+00 6.9856513208049877e+00 1.8477794017687383e+00 2 -4 -1
477 2 6.8167296351989055e+00 8.1918499252175394e+00 2.0491195653979490e+00 3 1 -4
475 1 6.3252000589247181e+00 7.9561125644185449e+00 2.8093057036698061e+00 3 1 -4
104 2 7.0905775133181743e+00 6.1999082390655680e+00 3.6138308344918681e+00 3 1 6
103 1 7.6579205600717941e+00 5.6026599062840594e+00 4.1106646782072751e+00 3 1 6
105 2 8.1992618625502018e+00 6.2906752890889077e+00 4.6575655861070286e+00 3 1 6
513 2 7.8943633689574462e+00 4.6720897442944942e+00 1.1346100957140479e+00 -1 2 -4
131 2 8.8225480679207973e+00 5.5925530999245039e+00 2.8182675410980571e+00 3 0 -5
46 1 1.0105048517628905e+00 1.1745936132892956e+00 7.2581455694346468e+00 0 1 2
459 2 1.3120774588848270e+00 3.0402235353493037e+00 5.3524729849309942e+00 6 2 -3
91 1 1.2696983758614033e+00 4.1601062329181921e+00 8.8773574927396623e+00 1 0 -2
244 1 3.3685236984220861e+00 2.1254109241300210e+00 7.7520409568031994e+00 0 -2 0
246 2 3.2646908273391859e+00 2.8773895770678624e+00 7.1057036147907811e+00 0 -2 0
245 2 2.6337428438502806e+00 1.5028298274311058e+00 7.5752237785586036e+00 0 -2 0
547 1 3.0083624750550655e+00 4.5007246517860651e+00 6.5471273500846898e+00 3 6 -1
99 2 4.2296696777578155e+00 2.4071789317632479e+00 9.0589149541451555e+00 -2 2 -1
48 2 7.0151986102416242e-01 1.8303982947111093e+00 6.6180155206241480e+00 0 1 2
92 2 1.7070035214870121e+00 3.4742584812508914e+00 8.3987741587661553e+00 1 0 -2
254 2 8.7247487444563365e+00 6.1072708271810638e-01 8.6220265464727639e+00 -3 0 -2
124 1 5.2131748434915428e+00 1.9223315859898600e+00 5.2421003738996435e+00 3 -2 2
125 2 5.7547561780944658e+00 2.7622094632520300e+00 5.2798035122837801e+00 3 -2 2
253 1 8.7851668249168515e+00 4.8796390660705313e-01 7.6519744131706222e+00 -3 0 -2
327 2 7.5624354432673480e+00 3.9810524875277506e+00 8.8793142936990908e+00 -1 1 3
433 1 6.8803834233499739e+00 3.7767436541171580e+00 5.8661587056777345e+00 -2 4 -1
326 2 6.0155459430683313e+00 3.7847063361129325e+00 9.0625983534125556e+00 -1 1 3
435 2 6.6845065782558777e+00 4.0835946912759589e+00 6.7863197157921409e+00 -2 4 -1
226 1 8.2706644247091905e+00 1.3924093262131407e+00 5.0174052358442953e+00 1 3 0
434 2 7.1361861611668811e+00 4.5771128699477917e+00 5.3849404407766919e+00 -2 4 -1
325 1 6.6957262906416553e+00 4.3792410721594957e+00 8.6755356427089918e+00 -1 1 3
228 2 7.9052962532465543e+00 1.1995171744521524e+00 5.9209093610839272e+00 1 3 0
555 2 5.7226350059487334e+00 7.6564211957445849e-01 7.1262083287924716e+00 0 4 6
549 2 3.5742893928703383e+00 4.9220551607641516e+00 5.8029321061071926e+00 3 6 -1
548 2 3.1437772632792225e+00 5.1477958880625776e+00 7.2620537173890352e+00 3 6 -1
251 2 3.8770475696994406e+00 8.1146076194317835e+00 6.5184633962170064e+00 2 -1 -1
375 2 2.7871441289379582e+00 7.5850036263528207e+00 7.9726877649217673e+00 2 -1 2
373 1 2.6968441263834495e+00 6.7822289923995465e+00 8.5097395583078956e+00 2 -1 2
374 2 1.7841025376916382e+00 6.7054538451531043e+00 8.7541279839261392e+00 2 -1 2
250 1 3.0912494184112371e+00 8.7124919004956674e+00 6.6886805587709519e+00 2 -1 -1
371 2 1.3593462926007858e+00 5.4933121046522855e+00 6.4598645175107912e+00 6 1 2
455 2 8.7772943382964890e+00 7.2729551189753314e+00 6.6628913961436567e+00 1 0 2
414 2 5.2153810771304787e+00 6.6589797895610774e+00 5.6835708802354219e+00 2 -3 1
412 1 5.3006900247140605e+00 7.1765442048426138e+00 6.4899353100790425e+00 2 -3 1
413 2 5.7369304095710696e+00 6.6550699222332845e+00 7.2251265330768586e+00 2 -3 1
484 1 6.7315310202762664e+00 6.9774896171007752e+00 8.7089971055189217e+00 -3 2 1
60 2 7.7345896230230231e+00 8.4073612652034679e+00 8.5567384872857399e+00 0 0 0
485 2 6.7166543666774894e+00 5.9896384008033623e+00 8.7890913923734750e+00 -3 2 1
454 1 8.9568835498537354e+00 7.4131875506453362e+00 5.6994896147951186e+00 1 0 2
456 2 8.7926759594423256e+00 8.4324730693058303e+00 5.4902093054600547e+00 1 0 2
516 2 6.1185376668256284e+00 8.6161383548518113e+00 6.6550828123852543e+00 0 -1 -2
93 2 1.5758537052583694e+00 4.0761228404060592e+00 9.7686317204954580e+00 1 0 -2
468 2 3.4676594459314032e+00 3.9446351840808056e+00 1.0796127793747475e+01 0 0 -4
466 1 2.6823240493138680e+00 4.3088885944210666e+00 1.1273447439393939e+01 0 0 -4
544 1 1.5733854233698148e+00 1.7827445203433110e+00 1.1939912567273126e+01 -2 4 2
545 2 2.4337526343095264e+00 1.3876271896617949e+00 1.2166619733394297e+01 -2 4 2
467 2 2.1168557466914093e+00 3.5206146236090792e+00 1.1528501958092502e+01 0 0 -4
10 1 3.7734117622668824e+00 1.0182018671415523e+00 1.2980060014991261e+01 6 -1 1
97 1 4.6835909743060533e+00 2.8296336700822966e+00 9.8846297855426446e+00 -2 2 -1
546 2 1.1013861255457633e+00 1.1237586242245050e+00 1.1418733477637158e+01 -2 4 2
20 2 7.2200791173162200e+00 1.0172383580125381e+00 1.1362856051727473e+01 -1 3 6
98 2 5.1504832130640175e+00 2.1019504256558394e+00 1.0355267291294814e+01 -2 2 -1
293 2 5.8911123152275113e+00 3.3464897495874300e+00 1.2780813240099453e+01 0 4 3
149 2 7.5598518527262648e+00 3.1214356422629348e+00 1.0883717504374596e+01 -1 -5 -1
148 1 7.3579238013077282e+00 3.8182404142223145e+00 1.1529501999493888e+01 -1 -5 -1
294 2 4.9838835921782447e+00 2.2257080035892347e+00 1.3023788939050972e+01 0 4 3
82 1 7.6856829276447760e+00 7.0872724715398938e-01 1.2927854231435195e+01 -1 -1 0
248 2 8.5335749134734442e+00 3.9921360433505537e+00 1.2665136405835989e+01 1 3 0
19 1 7.1136353128638925e+00 1.0849404865714600e+00 1.0365434147118970e+01 -1 3 6
218 2 1.2618441281675914e+00 8.5148915123931097e+00 1.1331639080800365e+01 0 1 -3
570 2 3.5430510842767875e+00 5.3701799351659751e+00 1.2432747298111702e+01 -3 -1 -2
498 2 1.6582987191357703e+00 5.9685719085866298e+00 1.1544267348428841e+01 -2 1 1
542 2 4.1590347220744697e+00 7.1046659457638928e+00 9.6180082014731951e+00 -1 1 3
568 1 3.7858682996584467e+00 6.2119022160296842e+00 1.2767955700323451e+01 -3 -1 -2
569 2 4.1451080857870028e+00 6.6493144420599206e+00 1.1963801023052637e+01 -3 -1 -2
541 1 4.6593203712834406e+00 7.3751713399810228e+00 1.0413776266704899e+01 -1 1 3
543 2 4.5335050653833147e+00 8.3274916136873784e+00 1.0570302547821683e+01 -1 1 3
496 1 1.0295065882055265e+00 6.7310898924175318e+00 1.1665680458320319e+01 -2 1 1
380 2 8.7604218357726502e+00 6.5988325630708573e+00 1.1590744736413452e+01 2 -5 -1
150 2 7.6737426471183987e+00 4.6781099664343966e+00 1.1214029899015816e+01 -1 -5 -1
379 1 8.5297559361866888e+00 6.1564212231893993e+00 1.0764617404129096e+01 2 -5 -1
486 2 6.1005549319206667e+00 7.2643179317564570e+00 9.3859517059361455e+00 -3 2 1
381 2 7.8941437527720595e+00 6.8475590716346648e+00 1.0431921049088633e+01 2 -5 -1
470 2 3.0769345882384975e+00 1.2206235808667159e+00 1.5776667935746865e+01 -3 0 0
12 2 3.1623989316094177e+00 1.1916130588576803e+00 1.3707003182455233e+01 6 -1 1
469 1 2.2636326122307131e+00 1.1856553903339029e+00 1.5244412453924134e+01 -3 0 0
471 2 1.8932320554079827e+00 2.0663199911866839e+00 1.5297049540078275e+01 -3 0 0
361 1 1.6088605125869888e+00 3.9024077114007967e+00 1.5717937803569281e+01 -3 -2 1
363 2 2.6122721550751447e+00 4.0176430984370448e+00 1.5827881342810253e+01 -3 -2 1
78 2 4.7721650878853072e+00 2.6101585226417083e+00 1.6255227373088559e+01 1 0 -2
76 1 4.6165137296542191e+00 1.7698449915103600e+00 1.6730906200281922e+01 1 0 -2
362 2 1.2962326762772940e+00 4.3856525614748367e+00 1.4925113853836288e+01 -3 -2 1
271 1 4.3602855868395425e+00 4.3399750966468389e+00 1.5950072082457867e+01 -2 -1 -3
83 2 8.3645911697178938e+00 9.2960895356241025e-01 1.3681692745027458e+01 -1 -1 0
84 2 6.8305424540128961e+00 4.9455605139098757e-01 1.3411977956032656e+01 -1 -1 0
512 2 7.0085767821568359e+00 4.0696376005827943e+00 1.6642610177998407e+01 -1 2 -5
292 1 5.3013063932963096e+00 3.0083345422762018e+00 1.3464879312927474e+01 0 4 3
308 2 7.9140413035829038e+00 3.7310027827331695e+00 1.4654927779233640e+01 4 -2 -1
309 2 6.5566746147474335e+00 2.9246853565769513e+00 1.4684186246851757e+01 4 -2 -1
45 2 7.5514225401437436e+00 1.7233019619885204e+00 1.6418074376018701e+01 2 -4 3
77 2 5.5136696043274878e+00 1.4022827577385946e+00 1.6837701211267941e+01 1 0 -2
307 1 7.2478159659331016e+00 3.2614458426959989e+00 1.5313490882168422e+01 4 -2 -1
43 1 7.1861919336728945e+00 7.9098322020448675e-01 1.6712129766126431e+01 2 -4 3
273 2 4.7850546568548795e+00 4.7608040193884502e+00 1.5200120016304083e+01 -2 -1 -3
556 1 9.4562180480480351e-01 7.7963803046570126e+00 1.6336850630551822e+01 2 0 -2
558 2 7.1186680809036096e-01 8.6740292768279037e+00 1.6708572835270552e+01 2 0 -2
179 2 4.4714801229733148e+00 8.6226446289450145e+00 1.5238576473501331e+01 1 5 2
557 2 1.6774981075744315e+00 7.9514651745742961e+00 1.5575846016831084e+01 2 0 -2
393 2 2.8519782033125409e+00 7.6248657962446655e+00 1.3861866860295601e+01 -1 -6 0
391 1 2.7512452730213601e+00 8.1855430029111318e+00 1.4667025146683478e+01 -1 -6 0
272 2 4.5389978609763340e+00 5.0016618460884361e+00 1.6704264099116834e+01 -2 -1 -3
158 2 7.2008632382630342e+00 6.4771310918218257e+00 1.7277208149404800e+01 1 5 -4
394 1 6.2231182199310524e+00 6.3383117358428285e+00 1.4040310530543071e+01 2 0 0
157 1 7.5942701270061264e+00 7.3308967223197294e+00 1.7052943724610749e+01 1 5 -4
100 1 8.6841459966559089e+00 6.9722196786930350e+00 1.3324407279702553e+01 2 1 3
395 2 6.0370019294440045e+00 7.1891937256458656e+00 1.4558749410020011e+01 2 0 0
159 2 7.2778802958325599e+00 7.5993416856288372e+00 1.6215496565092913e+01 1 5 -4
101 2 7.7208230872512686e+00 6.8777500408616232e+00 1.3540450846136368e+01 2 1 3
396 2 5.3464283806026662e+00 6.3758349449691769e+00 1.3584377310017631e+01 2 0 0
178 1 5.4268322594848035e+00 8.7068534876359021e+00 1.5318024128975832e+01 1 5 2
260 2 1.8999061175819063e+00 9.6915262803606481e+00 1.5829754479856786e+00 0 0 0
420 2 3.7838871498532689e+00 1.0535330620275602e+01 2.0521904222502956e+00 2 4 3
418 1 3.7422317953043045e+00 9.5657734322781618e+00 2.0277576517164464e+00 2 4 3
473 2 3.2825482983220833e+00 1.2171152448050700e+01 3.3403862155622348e+00 1 -5 -2
259 1 9.3238725165596259e-01 9.9201298074695465e+00 1.2999541471148532e+00 0 0 0
472 1 3.7505836093953717e+00 1.2228923174502352e+01 2.4298284465617614e+00 1 -5 -2
267 2 3.9506176223214360e+00 1.0630579133670441e+01 4.5729497290310839e+00 -3 -1 2
265 1 3.0886370822722569e+00 1.1106080936160513e+01 4.6919848322457849e+00 -3 -1 2
225 2 1.0470274572747229e+00 1.2012141780728589e+01 1.9805127641680906e+00 2 3 -2
419 2 4.3851943918547232e+00 9.2740431131103360e+00 1.2831939231754217e+00 2 4 3
8 2 5.2424675778375649e+00 1.2614701828705861e+01 2.9660081476857401e+00 4 3 3
262 1 8.6197480578704777e+00 1.0117512594063015e+01 2.0406963958494266e+00 -4 2 0
197 2 7.2751763472996425e+00 1.0505077750071042e+01 9.2795072769212705e-01 -2 -1 0
7 1 6.1137203731325531e+00 1.2908027340202615e+01 3.3842799557634784e+00 4 3 3
35 2 6.3082673836786167e+00 1.0913109299236478e+01 4.0201809590866660e+00 1 3 -1
34 1 5.7524225748458759e+00 1.0144073621621743e+01 4.0422240833297298e+00 1 3 -1
476 2 6.2248707476075005e+00 8.8060852264804605e+00 3.3252825321681572e+00 3 1 -4
474 2 3.6282742096428295e+00 1.3130518226826583e+01 2.0375104841964142e+00 1 -5 -2
156 2 1.8891354648894694e+00 1.5623463176839977e+01 4.3494580368867108e+00 -2 0 1
231 2 2.9558328066554180e+00 1.5291340131052944e+01 1.8143772594058794e+00 3 2 3
229 1 3.3603298163560593e+00 1.4682948378126314e+01 1.1404201307547166e+00 3 2 3
155 2 3.3317601555592877e+00 1.5446044394410121e+01 4.8787143092227314e+00 -2 0 1
154 1 2.5277038726778276e+00 1.5956002694787795e+01 4.9324351540434730e+00 -2 0 1
72 2 7.7191082570287695e-01 1.4471477411684299e+01 2.8244587939724846e+00 3 1 0
9 2 5.8582311436458694e+00 1.3583603340730075e+01 4.0108981413451747e+00 4 3 3
144 2 7.0487583460976335e+00 1.3517893494441095e+01 2.3079879184980641e+00 -2 -1 1
142 1 7.6577250580490253e+00 1.4076975266262632e+01 1.7065724973124135e+00 -2 -1 1
143 2 8.1832300186462277e+00 1.4583268378269961e+01 2.3480052633704060e+00 -2 -1 1
502 1 6.1125214008193645e+00 1.6439558957402930e+01 2.6900339053201305e+00 0 -2 3
431 2 5.7846123245539181e+00 1.5477991860929842e+01 4.2205594529233217e+00 -2 -1 1
504 2 5.1754859356284424e+00 1.6656847724677299e+01 2.4024609998951383e+00 0 -2 3
63 2 1.4062403589674681e+00 1.0669659288981244e+01 5.0184607318344092e+00 2 -1 0
252 2 3.4739680855103354e+00 9.5099734727878289e+00 7.0507468010789589e+00 2 -1 -1
140 2 3.0050965531250480e+00 1.1978438954466117e+01 7.8444106926585722e+00 -3 0 0
139 1 2.4529039762202545e+00 1.2690928138828570e+01 7.4392454907182985e+00 -3 0 0
266 2 3.1151856807544527e+00 1.1452501879413576e+01 5.5937204404466456e+00 -3 -1 2
141 2 1.5550165663421769e+00 1.2551467833266342e+01 7.7512643278187827e+00 -3 0 0
364 1 4.3369451485324824e+00 1.0789417404862840e+01 8.0599150519327267e+00 -1 0 -4
376 1 7.5436244478679793e-01 9.2474883766133633e+00 7.9664109408226178e+00 -3 0 2
366 2 4.4621278892240817e+00 1.0426451760559550e+01 9.0010189489191763e+00 -1 0 -4
377 2 1.5053143962745232e+00 9.0781349198109407e+00 7.3721816466471957e+00 -3 0 2
121 1 8.7740582865158867e+00 9.9459698428553907e+00 5.0005104293172797e+00 1 2 0
58 1 8.1123572028855051e+00 9.2722856666340032e+00 8.3261172143531574e+00 0 0 0
515 2 7.0937296148655715e+00 9.7108039613719850e+00 6.9264623733485475e+00 0 -1 -2
365 2 5.2688236463360463e+00 1.0708795514066768e+01 7.6648378972582885e+00 -1 0 -4
36 2 5.8561724909899286e+00 9.7919570387774328e+00 4.9481270136575422e+00 1 3 -1
382 1 7.8891964162280521e+00 1.2255207890290865e+01 6.4261670355002227e+00 2 -1 -1
123 2 8.3711055963095173e+00 1.0783659842314862e+01 5.2421539554910996e+00 1 2 0
383 2 7.0801625938234416e+00 1.2654563432312766e+01 6.8477142151552535e+00 2 -1 -1
514 1 6.2588086551611291e+00 9.5850908896734310e+00 6.4944910162138720e+00 0 -1 -2
59 2 8.7569328760102820e+00 9.4520955340967632e+00 9.0083529724022569e+00 0 0 0
384 2 8.4836490666664055e+00 1.2035882300595006e+01 7.1933138782638517e+00 2 -1 -1
303 2 3.0715739840176188e+00 1.4576698231185599e+01 7.4972832321677743e+00 0 -3 4
301 1 3.2777304951109363e+00 1.5556636886767700e+01 7.3907440298451048e+00 0 -3 4
302 2 2.8644088822153688e+00 1.5993010235965297e+01 6.6359977544763309e+00 0 -3 4
368 2 1.0210559696228612e+00 1.5344315024530875e+01 7.2385019975376235e+00 0 -3 -2
554 2 4.7733409732756247e+00 1.6341388135606579e+01 7.5270557446430368e+00 0 3 6
269 2 8.5592931907447820e+00 1.3937892119647726e+01 6.1103332657726419e+00 3 1 2
40 1 5.6585255480100036e+00 1.3475836328236577e+01 7.7653730888455517e+00 -1 -1 1
42 2 5.1418303901518474e+00 1.3032614160951457e+01 8.5309612678821409e+00 -1 -1 1
255 2 8.5298937577503082e+00 1.6228238397215048e+01 7.5938836247547359e+00 -3 -1 -2
430 1 5.3450647049061635e+00 1.4931166589163769e+01 4.9578051410038624e+00 -2 -1 1
432 2 5.6304602714900289e+00 1.5319755805969322e+01 5.7297746571385062e+00 -2 -1 1
41 2 5.0981922580908403e+00 1.3657578655723666e+01 7.0161647457157947e+00 -1 -1 1
177 2 6.8735760119767280e+00 1.4772364912248232e+01 8.8579449210719385e+00 -1 -2 0
553 1 5.7424316931171502e+00 1.6557960219582654e+01 7.5204578612662401e+00 0 3 6
219 2 9.3549080756482028e-01 9.3622674183409185e+00 1.0080240185466774e+01 0 1 -3
337 1 3.8836650013783514e+00 9.8990257513302371e+00 1.0671749435932977e+01 4 0 1
536 2 3.6518000718051309e+00 1.2318288427183658e+01 1.0193877862959225e+01 2 -2 -2
415 1 1.8873925225291595e+00 1.2219269377886732e+01 1.1570366636671238e+01 1 -1 -1
416 2 1.9003498225001101e+00 1.1385533936129479e+01 1.2002848649285420e+01 1 -1 -1
339 2 4.2433707074829803e+00 9.9916537464757305e+00 1.1580804545926425e+01 4 0 1
338 2 2.9460168683178698e+00 9.7078385571414127e+00 1.0815934405880869e+01 4 0 1
535 1 4.3918518701544293e+00 1.2880980972923968e+01 1.0144841452155976e+01 2 -2 -2
417 2 2.3177262917243517e+00 1.2863137012468673e+01 1.2157166410830076e+01 1 -1 -1
217 1 1.1477348288839582e+00 9.4561143926780495e+00 1.1054792700253083e+01 0 1 -3
171 2 6.5913360832367545e+00 9.4987308869555083e+00 1.1024155873856191e+01 -2 2 -3
170 2 7.8451336711980026e+00 8.9458661584676467e+00 1.1595832576510867e+01 -2 2 -3
256 1 5.0846278811940522e+00 1.0243296653984036e+01 1.3064718122687319e+01 1 1 -1
258 2 5.1088066805051557e+00 1.1208622005677693e+01 1.3143602413629900e+01 1 1 -1
169 1 6.8565319906565838e+00 8.8285685904787066e+00 1.1622843080121269e+01 -2 2 -3
257 2 5.9089505608355166e+00 9.9554558053815807e+00 1.2605860856941728e+01 1 1 -1
319 1 6.8543027796087390e+00 1.1598418892725521e+01 1.0518764941755260e+01 -3 1 -1
320 2 6.0967605654935282e+00 1.2230542095667641e+01 1.0411316339999752e+01 -3 1 -1
321 2 7.2817281007283254e+00 1.2052373255404007e+01 1.1271219520944777e+01 -3 1 -1
349 1 8.6731741989638795e+00 1.2315253123134800e+01 1.2537979810586451e+01 0 -3 -3
186 2 8.5473505029130408e+00 1.1595223982555257e+01 9.3002456846443256e+00 0 0 0
552 2 8.9995806647540966e-01 1.4220726723433872e+01 1.0731966068228679e+01 3 -6 1
344 2 2.9460684722317798e+00 1.5286119441932541e+01 1.0087648832222229e+01 3 -3 -1
551 2 9.6606887822626697e-01 1.5045345046746984e+01 9.3322070583999075e+00 3 -6 1
345 2 4.2277184319882402e+00 1.6082608956445867e+01 9.6298342558765917e+00 3 -3 -1
343 1 3.8853739562087597e+00 1.5558658082935006e+01 1.0348726821377642e+01 3 -3 -1
523 1 3.1306151839087977e+00 1.4350318781357483e+01 1.2891095397183671e+01 2 2 -2
525 2 3.4973169195999341e+00 1.4997473487513881e+01 1.2223474275092173e+01 2 2 -2
537 2 4.0882216035665495e+00 1.3767175647954241e+01 1.0389862620971728e+01 2 -2 -2
550 1 1.3498039773505912e+00 1.4912050536264351e+01 1.0200700346244034e+01 3 -6 1
11 2 4.3341737975377015e+00 1.6931664457795257e+01 1.3222525564735344e+01 6 -2 1
351 2 8.3540907753170153e+00 1.3285158674689216e+01 1.2486525023522947e+01 0 -3 -3
21 2 6.8910494601888193e+00 1.6878580336558784e+01 9.9473099603754473e+00 -1 2 6
175 1 7.3641429230727766e+00 1.5154268617567794e+01 9.6024278406507104e+00 -1 -2 0
176 2 7.0714424904376703e+00 1.4750953048929397e+01 1.0463442472819585e+01 -1 -2 0
137 2 6.7426375801753204e+00 1.4280563050039893e+01 1.3004347893652701e+01 2 -4 -1
136 1 7.1679365446444798e+00 1.4616303942476316e+01 1.2174343136737960e+01 2 -4 -1
138 2 7.4491344702795530e+00 1.5506398897703935e+01 1.2448526634446416e+01 2 -4 -1
392 2 2.6893305539206032e+00 9.2442888376693340e+00 1.4381114486111551e+01 -1 -6 0
86 2 1.1378707298425821e+00 1.2714896616445207e+01 1.5939763054401972e+01 -1 1 -2
506 2 1.5305245201617259e+00 1.0898308636306428e+01 1.4229761905723835e+01 -3 0 3
505 1 2.3949225624325186e+00 1.0611844191279062e+01 1.3875305415407704e+01 -3 0 3
507 2 3.1028328930025206e+00 1.1137869781787984e+01 1.4397037962524472e+01 -3 0 3
129 2 3.5907644697062149e+00 1.2650580476198149e+01 1.5859159288344204e+01 1 -2 2
127 1 4.0311936010311218e+00 1.1736422559826615e+01 1.5848019696537399e+01 1 -2 2
128 2 4.5517214925925060e+00 1.1680662725009025e+01 1.6640437839127308e+01 1 -2 2
196 1 6.5191999114863961e+00 1.0508491209202738e+01 1.6979102497021245e+01 -2 -1 -1
198 2 6.4322582459840643e+00 9.5944211991488135e+00 1.6624368690079123e+01 -2 -1 -1
350 2 8.5948057532183491e+00 1.2060657947870476e+01 1.3417196096728523e+01 0 -3 -3
180 2 5.6310864883556633e+00 9.3288504907651042e+00 1.4595113742513856e+01 1 5 2
310 1 5.3956152552210659e+00 1.2917309282968498e+01 1.3691072236840316e+01 -2 -1 1
519 2 8.9586787754665345e+00 1.2503598163015770e+01 1.6023213544796139e+01 -1 0 -5
174 2 7.6131767289801084e+00 1.0984858232813441e+01 1.5664132670260740e+01 -2 -1 3
172 1 8.3110827586163687e+00 1.1202174991894656e+01 1.4928265927223451e+01 -2 -1 3
68 2 1.5523939907437980e+00 1.6251324655196708e+01 1.4736677959616674e+01 -4 0 0
524 2 2.4294128029981801e+00 1.4872984606472311e+01 1.3351448111168185e+01 2 2 -2
312 2 4.5878200954654478e+00 1.3322051965112829e+01 1.3322067597909795e+01 -2 -1 1
85 1 1.6996240719975344e+00 1.3458554256377788e+01 1.6056605349770233e+01 -1 1 -2
87 2 1.4816453713251527e+00 1.4167022223206443e+01 1.5380893674110233e+01 -1 1 -2
230 2 2.5849716923403481e+00 1.4354071393465588e+01 1.7253935378474374e+01 3 2 2
67 1 1.2526163055628756e+00 1.5387861384315960e+01 1.4341994774389333e+01 -4 0 0
44 2 7.8636324093246532e+00 1.6978903809674044e+01 1.7297727312372679e+01 2 -5 3
311 2 5.4193334653601060e+00 1.3233745165857489e+01 1.4608699734935003e+01 -2 -1 1
538 1 8.6936071947111451e+00 1.5054460288925945e+01 1.4785558463490426e+01 2 -1 -2
2 2 5.0463078966327615e+00 1.4461407749589334e+01 1.7048068288570192e+01 0 3 2
3 2 6.5497708946470468e+00 1.4370213123119560e+01 1.7010448411122631e+01 0 3 2
1 1 5.8190282961925481e+00 1.4396682470834984e+01 1.6428740957711327e+01 0 3 2
540 2 8.2266345156342293e+00 1.5593054210868653e+01 1.5378700938231681e+01 2 -1 -2
106 1 5.4860856427877200e+00 1.6428280430186554e+01 1.4543697133199244e+01 -3 -2 3
108 2 5.6907984786948997e+00 1.5664239715879628e+01 1.5086972012602686e+01 -3 -2 3
107 2 4.9236761366252724e+00 1.7066393615837342e+01 1.5144873547817880e+01 -3 -2 3
295 1 9.6856931424855031e+00 2.2353850182043198e+00 1.9083256894545186e+00 -2 -2 2
297 2 1.0126095439294467e+01 2.6569335015695086e+00 2.6570130886037480e+00 -2 -2 2
397 1 1.1652803726182816e+01 1.9200419326870266e+00 4.3681086153828623e+00 2 3 -1
398 2 1.2017695950445956e+01 1.5422599603180887e+00 3.5194766778984294e+00 2 3 -1
161 2 9.8246911599921152e+00 5.6055779010737661e-01 1.4490814619289445e+00 2 1 5
571 1 1.1592282474396981e+01 4.5041169685746798e+00 3.5781621483159096e+00 -4 1 -1
573 2 1.1387024499154347e+01 3.8103180180029614e+00 4.2132318498642558e+00 -4 1 -1
399 2 1.1158848734370762e+01 1.2797100922200140e+00 4.8835144008177469e+00 2 3 -1
205 1 1.2997037908623382e+01 7.6946213897402793e-01 2.2900730102435025e+00 -4 3 -3
356 2 1.6200730490549560e+01 2.6119171884672099e+00 3.8195228661416976e+00 2 -1 -2
355 1 1.5610514637917442e+01 2.2109651623058166e+00 3.1236365953846348e+00 2 -1 -2
357 2 1.6218195771825478e+01 1.8388000034531717e+00 2.5361423164056198e+00 2 -1 -2
206 2 1.3516587578751242e+01 1.4921523491636151e+00 1.8609981209336051e+00 -4 3 -3
566 2 1.4804442206511517e+01 1.6900327643312987e+00 4.4934115925873108e+00 -4 4 2
96 2 1.4386176420861565e+01 3.8144908010941498e+00 2.7885822144851051e+00 0 2 -7
79 1 1.7226501245314779e+01 6.2689677856801074e-01 1.5768382749801917e+00 -2 4 2
95 2 1.3122233715799551e+01 4.7161561520114077e+00 2.9782580130490639e+00 0 2 -7
132 2 1.0267392758647556e+01 5.0071498366115925e+00 2.3906849183558205e+00 3 0 -5
572 2 1.1440064372644148e+01 5.3863270339433527e+00 4.0369513153359264e+00 -4 1 -1
521 2 9.7376611649338471e+00 7.0283243555092181e+00 1.7231821861428103e+00 4 3 2
385 1 1.2553788090410444e+01 7.9636509108967317e+00 2.1700934397083333e+00 3 -3 0
386 2 1.2712009429155568e+01 7.2632322749837153e+00 1.5069934967896728e+00 3 -3 0
407 2 1.1645151773599922e+01 7.8888828473447106e+00 3.9907599356318042e+00 -1 2 -2
406 1 1.1330447581290166e+01 7.1119500181607602e+00 4.5161195974331587e+00 -1 2 -2
520 1 1.0066635452611022e+01 7.8958870739508189e+00 1.3109014886447450e+00 4 3 2
522 2 1.0910679974404795e+01 8.1388235251015359e+00 1.6484455223682535e+00 4 3 2
130 1 9.4521546994274370e+00 5.4473213265639195e+00 2.1234490989168870e+00 3 0 -5
94 1 1.4056362033272151e+01 4.7275637493555394e+00 2.7882306421646699e+00 0 2 -7
437 2 1.5461403225617849e+01 5.9154800540497776e+00 3.2096564778162349e+00 -1 -2 0
111 2 1.3857040240631450e+01 5.4627632780869186e+00 1.0220656327276296e+00 -4 -1 -1
436 1 1.6074996234097423e+01 6.7042070477034468e+00 3.1298080220462601e+00 -1 -2 0
425 2 1.5654677726463294e+01 8.1884355197534120e+00 2.4687846258346586e+00 0 -2 4
438 2 1.6079275354824805e+01 7.0688129774365116e+00 4.0385204615292096e+00 -1 -2 0
194 2 1.6618962205200365e+01 4.9767043543987226e+00 1.2147168185012251e+00 -1 2 0
387 2 1.3352872311145074e+01 8.4362392754627216e+00 2.2326677845712224e+00 3 -3 0
15 2 9.0150711024926728e+00 3.8172293455491308e+00 6.4107360336671189e+00 -4 -1 2
13 1 9.6238871637874848e+00 3.1414232467314007e+00 6.6514025181708334e+00 -4 -1 2
214 1 1.2828702133247903e+01 1.0977552951618030e+00 8.5144130293485834e+00 1 -4 0
422 2 1.1308110711032294e+01 3.5025677208945107e+00 7.0058072998437346e+00 -2 0 -1
216 2 1.2619195972133044e+01 1.9786659982633534e+00 8.2481541210390308e+00 1 -4 0
421 1 1.2042265057113866e+01 3.6742652986388591e+00 7.6298304482963477e+00 -2 0 -1
423 2 1.2870731888837412e+01 3.8407635728838283e+00 7.1432743263760559e+00 -2 0 -1
495 2 9.3776073817839354e+00 2.8736932988846631e+00 8.4600509354041993e+00 0 3 1
14 2 9.3077824087237211e+00 2.4600809473837257e+00 6.0310563959610741e+00 -4 -1 2
411 2 1.1764661795617279e+01 4.6697797177882450e-01 7.2515762526794063e+00 -3 3 0
567 2 1.3374396561755942e+01 1.7447337456111367e+00 4.9795495364515387e+00 -4 4 2
565 1 1.4288127430647684e+01 1.7594533529389416e+00 5.2743052887914388e+00 -4 4 2
353 2 1.4719290054011196e+01 3.5350003336958102e+00 6.1314984872506981e+00 -1 2 4
47 2 1.6900571118833092e+01 1.1175985671380653e+00 7.9428087535809011e+00 -1 1 2
354 2 1.4820557420635645e+01 3.9750403065012181e+00 7.5621328767672642e+00 -1 2 4
352 1 1.4332991916511585e+01 4.1793486685834935e+00 6.6960910453416691e+00 -1 2 4
457 1 1.7053984854283605e+01 3.1157951905607653e+00 5.5853010778782775e+00 5 2 -3
458 2 1.6973037127786604e+01 4.0474401537919569e+00 5.8336590879348904e+00 5 2 -3
168 2 1.4485390790353152e+01 8.1090326991836081e-01 9.0037021040963836e+00 -4 5 -4
212 2 1.6336556951886852e+01 3.7886355430516847e+00 8.9365491264786083e+00 0 -3 0
211 1 1.5391388579536523e+01 3.6981970172957084e+00 9.0488930457932035e+00 0 -3 0
334 1 9.3735574375399136e+00 6.0505796613645106e+00 7.9033212323232620e+00 1 0 -1
529 1 1.2154824302775303e+01 7.8890819461198580e+00 7.8362114456017391e+00 1 -1 5
408 2 1.0521258302985851e+01 7.2490384704766431e+00 5.0460350034863772e+00 -1 2 -2
531 2 1.2994365838645841e+01 7.6330732385661877e+00 7.4604226481375449e+00 1 -1 5
336 2 1.0328887349701724e+01 6.2261121121678409e+00 7.6548309678169675e+00 1 0 -1
204 2 1.2819074318739393e+01 6.8376575796113253e+00 5.4057232391025076e+00 -3 0 1
335 2 9.2935548382699640e+00 6.2060178789063576e+00 8.8466965034512768e+00 1 0 -1
372 2 1.7010460920936815e+01 6.6416594082740330e+00 6.0749585853231229e+00 5 1 2
286 1 1.6246707965161974e+01 8.0621738440566393e+00 5.5467492451631513e+00 2 0 1
202 1 1.3709227490046578e+01 6.8293014683717663e+00 5.8572036379024954e+00 -3 0 1
287 2 1.5266709037091887e+01 7.9925449459365936e+00 5.5990344439350448e+00 2 0 1
203 2 1.3911478557578620e+01 5.8597670035042331e+00 5.9383186185304178e+00 -3 0 1
341 2 1.6332094510446268e+01 7.5687335480852402e+00 8.9329494158244440e+00 -1 1 -1
342 2 1.6787116617749049e+01 6.2591684678431552e+00 8.2605803787706797e+00 -1 1 -1
370 1 1.7094940470197301e+01 5.7604730886617270e+00 6.5312366128747854e+00 5 1 2
563 2 9.9504212312991314e+00 1.6673313558900977e+00 1.0061473144097135e+01 -2 -2 4
493 1 9.1147001919500745e+00 3.0603217440864317e+00 9.3684221350548516e+00 0 3 1
494 2 9.8472921286357060e+00 3.5788484495865194e+00 9.7146950608661360e+00 0 3 1