LAMMPS data file via write_data, version 8 Apr 2021, timestep = 200000

6144 atoms
2 atom types

0.03670938560904109 59.87172499502178 xlo xhi
0.21518819662482178 28.125277803375305 ylo yhi
0.11406891385556332 27.29737608614457 zlo zhi
10.177810236910807 10.341341127250562 7.008862853232882 xy xz yz

Masses

1 16
2 2

Atoms # atomic

1 1 7.370941344924121 5.490843146048158 3.988863463544699 0 0 0
2 2 6.60301048378581 4.941617923358887 3.636802023704996 0 0 0
3 2 6.959525772420543 6.340590488884685 4.2651500704157295 0 0 0
4 1 10.03456004158703 7.012451317614895 11.071946445862162 0 0 0
5 2 10.506677082663359 6.707078139376052 11.908741829082793 0 0 0
6 2 9.739948088921901 7.902965730837585 11.259957115280411 0 0 0
7 1 9.99132465788815 11.978463383542097 4.116267057456308 0 0 0
8 2 10.449036244187946 11.731385042812294 4.966071162647869 0 0 0
9 2 9.637533909987804 12.801543326210021 4.436475738685126 0 0 0
10 1 12.377888637610724 14.162331010775832 10.790633490531297 0 0 0
11 2 13.15613139548402 14.259441501293825 10.194104004535339 0 0 0
12 2 11.763270939717145 13.641531366979857 10.245716515034529 0 0 0
13 1 14.76985507012346 5.410308356531672 4.130854638840362 0 0 0
14 2 15.273719878843979 5.020631137210171 4.838258637469175 0 0 0
15 2 14.690045451444472 6.394296199568081 4.413722097201287 0 0 0
16 1 17.440712048914346 7.0300154551644045 11.044198112142665 0 0 0
17 2 17.926377340389063 6.73113210253913 11.899531428815527 0 0 0
18 2 18.2685995880068 7.362805987032681 10.586153567384596 0 0 0
19 1 17.75040553407135 12.395824676474279 4.093474194953399 0 0 0
20 2 18.528396888408906 12.809998172927601 3.5921218550945513 0 0 0
21 2 18.147280718461424 11.89271469343738 4.8509426961569595 0 0 0
22 1 20.01567013129482 13.911845121748748 11.150381972494507 0 0 0
23 2 20.71768520690589 14.186241909019474 10.4949523676717 0 0 0
24 2 19.70814040774592 14.79320443273387 11.430410521301875 0 0 0
25 1 11.708538004466154 8.386157508861821 6.416096485996702 0 0 0
26 2 10.917308491286317 8.864538790052217 6.044157270705442 0 0 0
27 2 11.251565542916778 7.795317592127573 7.019089028910931 0 0 0
28 1 14.218814647806232 10.08640562803023 12.980695389623117 0 0 0
29 2 14.345554265191636 9.377887476529438 12.320357323420938 0 0 0
30 2 13.620868346630825 10.655257926438841 12.48697123087209 0 0 0
31 1 14.102500485420768 15.468931242216106 6.290833669620008 0 0 0
32 2 14.427091714338612 15.151429457372362 5.483813629753463 0 0 0
34 1 16.750733635886604 17.1886239875178 13.0429482570987 0 0 0
113 2 15.64396354555744 6.772990556506089 13.577963646347653 0 0 0
37 1 19.03369529372475 7.902912709250101 6.569107816635782 0 0 0
38 2 18.303770344479457 8.528133789331115 6.301325819996545 0 0 0
39 2 18.555358202197148 7.2727063677774355 7.175620840970069 0 0 0
40 1 21.531266288243557 9.792179928967819 13.104346273656551 0 0 0
1683 2 12.707461691993101 5.699351569255909 19.123121031074895 0 0 0
42 2 20.834601356104926 10.451153194395502 12.823950795188122 0 0 0
43 1 21.533005197990526 15.0500490223355 6.462753290256023 0 0 0
1619 2 10.728603332401866 12.655669759346369 20.671740043402806 0 0 0
122 2 3.0772786294152223 3.510009739865691 5.280621396945269 0 0 0
371 2 13.065477209967025 16.810748066202887 12.194078247545995 0 0 0
45 2 21.91145610188609 14.557311628370945 5.698448290960886 0 0 0
49 1 5.2079896855648276 4.128073790416772 2.8094920304769917 0 0 0
50 2 5.482643984860977 3.3019501476073336 2.395756084561237 0 0 0
51 2 4.530449051096311 3.762270168302309 3.451075607924048 0 0 0
52 1 7.922849627254915 5.661686696343808 9.846488810604184 0 0 0
53 2 7.3925451210566235 6.083540224759401 9.13808235681252 0 0 0
54 2 8.566029771781068 6.275639250524835 10.26003182925656 0 0 0
55 1 7.610276659914528 10.72973923347324 3.0820330106738503 0 0 0
56 2 7.865009879022919 9.864237273141244 2.610019789594034 0 0 0
57 2 8.426795903269074 11.184149610436465 3.3738159676120802 0 0 0
58 1 10.148671485907585 12.494773718626472 9.886190858340964 0 0 0
59 2 9.738845754945142 12.914347975475719 9.126630671730364 0 0 0
60 2 10.652134058222286 11.681256565903638 9.556200048823925 0 0 0
61 1 12.653712712609332 4.087102506440396 3.0042771137340583 0 0 0
62 2 13.544720476115298 4.46757659132409 3.291629870407372 0 0 0
63 2 12.258962767889452 4.5761384741728985 2.276630451709951 0 0 0
64 1 15.170472689970284 5.421998505782379 9.746344381873948 0 0 0
65 2 15.920006937845645 5.701767963727095 10.25884297156143 0 0 0
66 2 15.309253426880211 4.551952203146263 9.315096770127111 0 0 0
67 1 15.36140128105547 10.792559948827337 2.838431815565415 0 0 0
68 2 16.193428990025946 11.169445611604353 3.2121035122168355 0 0 0
69 2 15.528894273910709 9.904909648550737 2.476446951776955 0 0 0
70 1 17.771349197441825 12.692537788932501 9.834430811117295 0 0 0
71 2 17.340897591359138 13.26807183164267 9.196261840010427 0 0 0
72 2 18.64928848925275 13.129453077261504 10.130237398930356 0 0 0
73 1 1.3333231906006677 1.0171952030483415 0.6044103346155598 0 0 0
76 1 3.655304767239433 2.6571605550486397 7.46801950786084 0 0 0
79 1 3.8489449310985355 8.057259572766696 0.506493304223494 0 0 0
3663 2 1.9235264475909715 2.8667423229212403 3.2128634334023323 1 0 0
81 2 4.627884655987797 7.593996104497234 0.9378525186218093 0 0 0
82 1 6.182909748104854 9.537441240565997 7.560846953644329 0 0 0
84 2 6.96453061644168 8.996895933647938 7.7696828639417275 0 0 0
85 1 8.574659443435968 1.0918254385809267 0.7975510818408414 0 0 0
87 2 8.237113351534045 1.5177114190721335 1.6081447009692564 0 0 0
88 1 10.667507591009382 2.749940924293758 7.173537384304843 0 0 0
90 2 11.094713423398508 3.4334919340678716 6.6217057554323375 0 0 0
91 1 11.27136420429582 7.902185345204972 0.6778042737445906 0 0 0
93 2 12.130912079478414 7.474826865425558 0.7798800077638934 0 0 0
94 1 13.621197584184698 9.831354467704394 7.461051751967729 0 0 0
95 2 14.175574392708992 9.092615143801074 7.754098834573652 0 0 0
96 2 12.906578171434205 9.358084833100232 6.979116580329844 0 0 0
97 1 5.322732200837518 4.532658758286856 6.096953124247106 0 0 0
98 2 5.8206534946745405 5.165356982980657 6.648500023210509 0 0 0
99 2 4.676150191000022 4.067165650967366 6.678096075491691 0 0 0
100 1 7.669270802149894 6.320409256405441 12.894568272408241 0 0 0
101 2 7.44060952566576 6.9203919866110315 12.17626537709535 0 0 0
102 2 8.311721447117202 5.6850983168955 12.539623079352188 0 0 0
103 1 7.899357358625091 11.226078186896077 6.216467114453032 0 0 0
104 2 7.8464396689042495 11.841332351714497 5.456009449537594 0 0 0
105 2 7.074376908863164 10.748268998980839 6.3285919668174495 0 0 0
106 1 9.978661176878985 13.249593622947572 12.52769259274543 0 0 0
107 2 10.496893495649378 13.757503343723014 13.19138592733751 0 0 0
108 2 10.575858261949035 12.618315748887117 12.091260023742601 0 0 0
109 1 12.508918659135952 4.806671477694736 5.994449174981177 0 0 0
110 2 12.885584629799405 3.978418662125242 5.654278397810879 0 0 0
111 2 12.235880967337057 5.376166955477819 5.252264075709959 0 0 0
112 1 15.378618529571405 6.14835305024059 12.89930336859948 0 0 0
114 2 14.66556245763 5.629882153720972 13.396877259333845 0 0 0
115 1 15.5259407320908 11.282158001624722 6.247888615911825 0 0 0
116 2 14.84573305655529 10.797163562732928 6.674860989249004 0 0 0
117 2 15.660298072340392 12.002537645693245 6.891377247564252 0 0 0
118 1 17.810081498435007 13.19082115917078 12.844581044542796 0 0 0
119 2 17.197474346401055 12.498031349904533 13.112527427561272 0 0 0
120 2 17.485021994390028 13.729362587474073 12.12049215425062 0 0 0
121 1 3.233516160896277 3.0219449376559027 4.417720303946551 0 0 0
123 2 3.617889595085998 2.1464190358428943 4.584704866097812 0 0 0
124 1 5.506626717566612 4.533548687738347 11.22669828422333 0 0 0
125 2 6.193626654884879 5.1335389294014435 10.86657225511978 0 0 0
126 2 5.985152384263045 3.7427216496314433 11.640025940763518 0 0 0
127 1 5.7293175794892655 9.822387531157467 4.450334111425855 0 0 0
423 2 34.68328721333794 8.369824236785995 6.963874137065674 0 0 0
129 2 6.453206418119288 10.281845531000153 3.8892829004487632 0 0 0
130 1 8.10407781749045 11.340468107496202 11.163455387757896 0 0 0
2217 2 29.26365228619333 17.917762107515802 15.15883849366965 0 0 0
132 2 8.829285475358184 11.883753899204999 10.769569474891005 0 0 0
133 1 10.5740355364588 3.118436291084683 4.241483738857877 0 0 0
134 2 10.977267398576211 2.267091875839128 4.525800683618784 0 0 0
135 2 11.362584034732173 3.622209527653271 3.887165932630096 0 0 0
136 1 12.56496151916439 4.638225238950881 11.092871887153953 0 0 0
137 2 13.389924699919053 5.038000794694441 10.778331867636544 0 0 0
138 2 12.32121864051713 5.253076151426354 11.779744376686487 0 0 0
139 1 13.30535216279659 10.14345316285335 4.4781677206544455 0 0 0
140 2 14.018334515936557 10.535867039509318 3.983363355142534 0 0 0
141 2 13.705206239470357 9.46616012194558 5.087346882662477 0 0 0
142 1 15.428327902100635 11.64834294920627 10.796267545928249 0 0 0
143 2 16.21593922866353 11.935236449876095 10.320878459479209 0 0 0
144 2 15.543254136732607 10.75729876206647 11.217808295325211 0 0 0
145 1 6.66003088598742 2.2815476861925634 4.965526132422952 0 0 0
427 1 36.73905199575435 15.129116398424289 6.580501435062765 0 0 0
147 2 6.2067048633588255 2.9581345592067456 5.481925358862464 0 0 0
148 1 9.160562112779129 4.136545424086153 11.957888093989897 0 0 0
149 2 9.51579245184024 4.302987049836806 11.059595110456636 0 0 0
1959 2 39.27532246504534 10.85018344894511 19.38484005933509 0 0 0
151 1 9.601614386262987 9.308369036956119 5.185809144138849 0 0 0
152 2 9.098570714124778 10.110269918403059 5.540681011482865 0 0 0
153 2 10.071681242343654 9.47065391251176 4.319483620490393 0 0 0
154 1 12.133078463827456 11.588844084615625 11.844599938745727 0 0 0
155 2 11.540903271047123 10.79204649287662 11.78628591380549 0 0 0
156 2 12.42096382634757 11.681800406381756 10.907331287376344 0 0 0
157 1 14.072929293294058 2.6236868928359733 5.169238222410096 0 0 0
1698 2 22.63694343678118 7.290345757473241 26.228482335085268 0 0 0
159 2 14.302681766990748 2.682907151098228 4.233096902827766 0 0 0
160 1 16.915424533655166 4.101365081355723 12.074802904162496 0 0 0
161 2 16.430202503250314 4.9717750376889445 12.381478874340205 0 0 0
230 2 12.03215833123579 1.0257060983299917 1.7616674988711885 0 0 0
163 1 16.953103140912592 9.346233242023796 5.174000753182135 0 0 0
164 2 16.507914221374463 10.128161291239294 5.4557070574209 0 0 0
165 2 17.238019462658503 9.515750573322677 4.277413253819325 0 0 0
166 1 19.44049097729999 11.172635891127134 11.9515913379969 0 0 0
167 2 18.956430531973247 11.951470529955094 12.303715761621277 0 0 0
168 2 19.70420559965365 11.510174011860633 11.080220974883613 0 0 0
169 1 8.630919891895704 4.500737982625039 6.029737780353589 0 0 0
170 2 9.256235231511956 4.060836353502363 5.373707599105555 0 0 0
171 2 7.915232372120228 4.813181199370682 5.403098482035928 0 0 0
172 1 11.576414403850373 6.411079011075576 13.2866381687356 0 0 0
173 2 11.840704405912996 7.30119008113958 13.609135320259444 0 0 0
206 2 16.6646950738111 2.5454750548060994 3.157802819109803 0 0 0
175 1 11.60132943277563 11.666907414667376 6.179307291380228 0 0 0
176 2 12.344874635629688 11.29891767232517 5.647732873430097 0 0 0
177 2 11.88262741587729 12.534107503978495 6.568135380964873 0 0 0
178 1 14.223531650175381 13.304584144528564 12.78286864176488 0 0 0
179 2 13.386987549439027 13.254051486777195 12.351454037117504 0 0 0
180 2 14.776179694130276 12.733821910909342 12.25112114058872 0 0 0
181 1 16.411266940098784 4.616447360602206 6.013603203418038 0 0 0
182 2 16.947499949960775 4.232386874846012 5.238691841703096 0 0 0
183 2 16.943154913920008 5.240188595636181 6.523486709747407 0 0 0
184 1 18.99059085344525 6.1117027445762675 13.081297775472708 0 0 0
187 1 19.145532146425815 11.405582455967483 6.3629636750611684 0 0 0
188 2 18.679770951200428 10.886722674330244 7.088500492694654 0 0 0
189 2 19.329081042306466 12.25699462121215 6.832291724661205 0 0 0
190 1 21.68642396403265 13.32268619268608 13.193297043732686 0 0 0
192 2 21.075305112038343 13.660630341972007 12.455402401579043 0 0 0
193 1 8.24918771883977 2.649273665208716 2.9456716782496692 0 0 0
194 2 7.6171400670416265 2.5154960748791786 3.6864493070537443 0 0 0
195 2 9.112564904903774 2.9126745507817113 3.3437423691423507 0 0 0
196 1 10.486638686470023 4.524447039271653 9.314341472720225 0 0 0
197 2 10.720121939647974 3.736227247606701 8.814807908324084 0 0 0
198 2 11.284665536879846 4.627179747485273 9.816807851483073 0 0 0
199 1 10.899626095193984 9.759734634995436 2.8555699527299034 0 0 0
200 2 10.883169491062228 9.187936981934328 2.079987142340138 0 0 0
201 2 11.84791661348333 9.76472353964662 3.282173765371138 0 0 0
202 1 13.292067112319526 11.799550186455297 9.40454085952793 0 0 0
203 2 14.24655443602778 11.794177537132217 9.758221076633324 0 0 0
204 2 13.25836895961638 11.024712816357335 8.884890649600376 0 0 0
205 1 15.813592382508906 2.7617155092184613 2.7616755646395204 0 0 0
207 2 15.675348310650996 2.086742836051987 2.0647716372535543 0 0 0
208 1 18.270815891142835 4.155221004271091 9.79165390690303 0 0 0
209 2 17.716203804996802 3.9514108270316766 10.58314898634042 0 0 0
211 1 18.3999858900542 9.603932735807774 2.7740335517239068 0 0 0
212 2 18.517164407372334 9.137278925140835 1.923780241380912 0 0 0
213 2 18.13867102392827 10.50698891335374 2.5372180175084913 0 0 0
214 1 20.840775785147297 11.355797560681758 9.539566569934852 0 0 0
215 2 21.500742078356176 11.386749684618513 10.239946530470812 0 0 0
216 2 21.07672567876809 10.7529955356811 8.832167795079148 0 0 0
217 1 5.511560310552852 1.7426025764858175 1.6639153709985262 0 0 0
89 2 11.450473575805686 2.2038822546261625 7.468372856082672 0 0 0
219 2 5.747894015675348 2.0380784473484033 0.6918209460440119 0 0 0
220 1 7.803257106716302 3.4890527679192678 8.446196491767106 0 0 0
221 2 7.996535310692613 4.243388604543943 9.015495002960655 0 0 0
222 2 8.084596552376789 3.8577401947519867 7.560312412816499 0 0 0
223 1 8.036049966707086 8.48338890325478 1.7171191323124124 0 0 0
224 2 8.654472895564405 7.7902039211993825 2.0529385004349257 0 0 0
225 2 8.362081166655544 8.872878664422862 0.882317944981778 0 0 0
226 1 10.792708837377413 10.16396512209448 8.48386767572665 0 0 0
227 2 11.516961238050946 9.553475152034114 8.872636499524836 0 0 0
228 2 11.20348632824089 10.58500586425711 7.6629573615031745 0 0 0
229 1 12.804546600788902 1.6316541308428527 1.6287828282734782 0 0 0
606 2 23.888953838309654 2.5608953157518846 8.81543340904846 0 0 0
231 2 12.568024661231439 2.4351850863734525 2.0459906683499756 0 0 0
232 1 15.46894375744188 3.141527803255458 8.362815376836842 0 0 0
1832 2 12.831831400661203 17.655591766725852 14.831697027348659 0 0 0
234 2 15.720237250056837 3.5829503200338473 7.552232715868411 0 0 0
235 1 15.524525425708614 8.15322750082172 1.9200356383455894 0 0 0
236 2 15.97779965931483 8.407342550365021 1.1445110500220166 0 0 0
237 2 16.174863509985354 7.433026114265399 2.2149335620178197 0 0 0
238 1 17.89693093782678 10.210021757851667 8.639190940690739 0 0 0
239 2 18.52406792175322 9.505754811360113 9.011151576450754 0 0 0
240 2 18.046176854011367 11.018643807306942 9.17280976631695 0 0 0
241 1 7.52344463401083 4.643782442578958 0.9280998754073396 0 0 0
242 2 7.78116292425174 3.9170384512899776 1.6276931749429895 0 0 0
243 2 6.901281138293697 5.182982522327952 1.3907429519301546 0 0 0
244 1 9.777511316743462 6.559335017881297 7.626447358877042 0 0 0
245 2 9.993226308295858 5.885397926267105 8.33390971793349 0 0 0
246 2 9.332183303422477 6.071054068619754 6.867683003379887 0 0 0
247 1 10.018253924232171 11.826060335806046 1.2421618009849582 0 0 0
248 2 9.349975803144735 12.395764148657882 1.6407238183770645 0 0 0
249 2 10.346060549554942 11.33512176228039 2.030494379453707 0 0 0
250 1 12.654380809643943 13.79117072287761 7.5277019545278145 0 0 0
251 2 13.029058324018216 13.266046479595062 8.240250474947826 0 0 0
252 2 13.361192142073952 14.175948618685753 7.021857600980986 0 0 0
253 1 15.298073723745453 4.784902420494134 1.113324629726394 0 0 0
254 2 15.383635658101074 4.03987172764331 1.7776581777142448 0 0 0
255 2 14.64667617095313 5.446559567491765 1.4054137613753763 0 0 0
256 1 17.648412508130306 6.2166381435103215 7.807724505482219 0 0 0
257 2 17.847474396780942 5.693367373790614 8.640151585834086 0 0 0
258 2 16.957351991695354 6.855402710468735 8.137343569602821 0 0 0
259 1 17.727415833201828 11.714590387488572 0.8257793579911581 0 0 0
260 2 16.962177481493853 12.317983570696018 1.0096503943767585 0 0 0
516 2 22.601453410317262 12.227265513550417 11.947532361870023 0 0 0
262 1 19.846844852161812 13.453154516963595 7.79765405664802 0 0 0
263 2 20.274537737656093 12.88657854083572 8.463429260003764 0 0 0
264 2 20.55549380717134 14.052139317029416 7.352395603990318 0 0 0
265 1 9.452941989567027 6.3634356400231304 2.764004084131959 0 0 0
266 2 8.599126523859182 5.936630874704651 3.009516696601005 0 0 0
267 2 9.929353899541749 5.8223771973477465 2.1516965811064344 0 0 0
268 1 12.116092188076403 8.101732734310177 9.613849713364072 0 0 0
269 2 12.29556011465589 7.554640808291863 8.838456269071793 0 0 0
270 2 11.398083588914854 7.565394416898237 10.001837204782252 0 0 0
271 1 12.247724752528947 13.60900842527221 3.162446703101487 0 0 0
272 2 13.104208201649431 13.59200081021496 3.5984186588884692 0 0 0
273 2 11.653758850070114 12.917485678535 3.4569465611530092 0 0 0
274 1 14.503976406217673 15.0894812359674 9.57173746546894 0 0 0
275 2 14.137190792773648 15.908041686450257 9.117264218064587 0 0 0
276 2 15.237970915372664 15.3124775364069 10.226569595688195 0 0 0
277 1 17.228475319765906 6.287390438607023 3.0233263976990403 0 0 0
278 2 16.387676885595752 5.805848407065945 3.323822654284059 0 0 0
280 1 19.65952699952059 7.952659855007575 9.617489705305239 0 0 0
282 2 20.519893829558466 8.125306513338808 10.03774787538559 0 0 0
283 1 19.818221610126084 13.540639139464227 2.7095631449735267 0 0 0
285 2 20.451998177413362 13.583238062186929 3.450967506584754 0 0 0
286 1 21.937680273070672 14.690944668599528 9.512876483168661 0 0 0
287 2 22.732468737846514 14.96994945591458 10.048462839148211 0 0 0
288 2 21.580958496887057 15.572024885539367 9.209805337531904 0 0 0
289 1 5.681824802860846 6.905351917892831 1.8730312933461712 0 0 0
290 2 5.364514815000957 6.886471789820391 2.818820961583184 0 0 0
291 2 6.382757796527245 7.551779204903571 1.9872370147772325 0 0 0
292 1 8.534401893705375 8.508061783120503 8.689644142124711 0 0 0
293 2 8.877778065530455 7.712255558752299 8.253147425521522 0 0 0
294 2 9.312528256485306 9.082308546089232 8.64657999638716 0 0 0
295 1 8.35950174330625 13.84272028035713 1.9964865678255566 0 0 0
296 2 8.192564724426122 14.117724252857686 2.907804340369437 0 0 0
692 2 30.344991327181184 14.069895871522371 1.5050035823728023 0 0 0
298 1 10.90210611954168 15.808185313901353 8.737057011818013 0 0 0
299 2 11.47445887696339 15.090048910543919 8.294193852603478 0 0 0
602 2 19.565228287509964 0.9729925820342767 1.9357188302365311 0 0 0
301 1 13.29288087440374 6.755195634540155 1.644742720758191 0 0 0
302 2 12.852361914769483 6.682601172060406 2.536207007565958 0 0 0
303 2 14.134865825067285 7.29204161249789 1.8095803399161956 0 0 0
304 1 15.93663487714333 8.279697856652023 8.538172445776281 0 0 0
305 2 15.601244866943693 8.038042983558698 9.491965965896807 0 0 0
306 2 16.639025505000596 8.947923378080352 8.675824856008642 0 0 0
307 1 16.005290674440374 13.711554120654704 1.735222599366281 0 0 0
146 2 7.406295359376988 1.7921653810700118 5.554926510724373 0 0 0
2066 2 26.10326577141274 5.2788013999448395 19.105688877970394 0 0 0
310 1 18.307526147652176 15.675031486767866 8.483308201606215 0 0 0
311 2 18.637997999474205 14.924187146304053 7.9233090469134835 0 0 0
763 1 32.460673579786985 14.68591133655451 5.087895935872582 0 0 0
313 1 3.596735342271351 5.019440291826884 0.7113645898862379 0 0 0
314 2 3.1560739613680946 4.252744680009378 0.4155822064347219 0 0 0
315 2 4.26921801621198 4.805268516630541 1.3965040106560112 0 0 0
316 1 6.344719341487676 6.584806546465084 7.7082830407305805 0 0 0
317 2 6.566382088073526 6.959984400624436 6.8100185923341545 0 0 0
318 2 5.627262481759019 7.1198982963320105 8.140482182896251 0 0 0
319 1 6.256660449156951 11.843823815520174 1.0363221037407626 0 0 0
320 2 6.038989659990064 11.001727127318217 0.6449675043508654 0 0 0
321 2 6.9486721904491064 11.602379387620235 1.687084660821868 0 0 0
322 1 8.614730990788805 13.520248519243024 7.83114660602489 0 0 0
323 2 8.05498003756302 14.137779388233751 8.34528938184751 0 0 0
324 2 8.053615156618694 12.85601589915187 7.363400880042433 0 0 0
325 1 11.1474461307778 4.861135894637862 0.89642666994508 0 0 0
1755 2 9.660180452789922 4.390167739167116 15.613197632770065 0 0 0
328 1 13.772953057961134 6.596170610906093 7.570711011708319 0 0 0
329 2 13.29840595920546 5.882722318184606 7.007109703112087 0 0 0
330 2 14.469406617329156 6.028695332969497 8.00835277782837 0 0 0
331 1 13.719491173268251 12.102364031963576 1.218606516317046 0 0 0
332 2 13.19207345855096 12.683606036023649 1.7834744636554818 0 0 0
333 2 14.506251044793943 11.756964930117181 1.7267574460647777 0 0 0
334 1 16.192562653625146 13.59114059070303 7.641037233446154 0 0 0
335 2 16.63043183852362 14.259370741813163 6.983667000167392 0 0 0
336 2 15.518795842551002 14.163485907764002 8.179845231191628 0 0 0
337 1 4.465116429613728 6.573843839340225 4.313230802568926 0 0 0
338 2 4.563240687761733 5.739621673256622 4.732109605399159 0 0 0
279 2 17.630259461626093 5.704731345634268 2.3296706619261665 0 0 0
340 1 6.909414884946932 8.198074422627139 11.046987118321207 0 0 0
546 2 32.645602464063295 3.7003363930857778 12.528363468589864 0 0 0
342 2 7.542204826061369 8.398021138200697 10.349323457270835 0 0 0
343 1 6.873328111610985 13.37462533690084 4.631474586629786 0 0 0
1188 2 25.679982098337145 3.549012934889933 12.83921856904507 0 1 0
185 2 19.250095469806066 6.939570227101088 13.576115787886835 0 0 0
346 1 9.304862139362866 15.399823492860886 11.13510652321572 0 0 0
347 2 10.002094168551682 15.389360206248039 10.405555623414651 0 0 0
348 2 9.59527002399249 14.572830685726764 11.634058310830573 0 0 0
349 1 11.887339136560886 6.758161024441423 3.9391910233177554 0 0 0
350 2 12.095241988361634 7.599780014786708 4.300095829284689 0 0 0
351 2 10.931466123415932 6.865651039617401 3.7480223988485384 0 0 0
352 1 14.656583901546286 8.134606090287958 11.158482085452432 0 0 0
353 2 14.788591075664332 7.2389193858443255 11.598888423288694 0 0 0
354 2 13.932820344067467 8.01062632800778 10.547340940844599 0 0 0
355 1 14.703304525819997 13.581347669394605 4.465063632966481 0 0 0
356 2 15.036091593558712 12.882418524601478 5.0923766162177335 0 0 0
357 2 15.395193434727517 13.695357528681997 3.7961335492998405 0 0 0
358 1 16.957050186506354 15.55276734241285 10.895300753401424 0 0 0
359 2 17.24734426392061 16.153377346819415 11.597984938009068 0 0 0
360 2 17.509454525680823 15.740640271399126 10.118128157123927 0 0 0
361 1 7.168059362041828 7.843732062092995 5.297221365716358 0 0 0
362 2 6.669657743729932 8.647956367272107 4.9965321546011765 0 0 0
363 2 8.096398980908315 8.063775271938466 5.1997935287691 0 0 0
364 1 10.143507331351659 9.75032796744021 12.07992085451204 0 0 0
365 2 9.314356320824675 10.17091493560958 11.755258556281689 0 0 0
366 2 9.929789063251373 9.532567547221865 12.98573197873356 0 0 0
367 1 9.635094797013235 14.554108946029967 5.427466712897916 0 0 0
2762 2 26.97687173754779 17.69673835151141 14.51564037177453 0 0 0
369 2 9.151930269747234 14.226934257041998 6.260286925839079 0 0 0
2733 2 35.94000153242686 5.235040792455701 19.28327376369289 0 1 0
80 2 3.126887827121987 7.448605441451851 0.20999864202617732 0 0 0
372 2 12.32140103216634 15.564010402442625 11.691912597888386 0 0 0
373 1 14.76813437528796 7.821315050150468 5.167968291265206 0 0 0
374 2 15.598706038837374 8.368079767967284 5.027586772490741 0 0 0
375 2 14.7818835409059 7.500062970666122 6.082024260270277 0 0 0
376 1 16.976045795266526 9.596467293005093 12.064091364109222 0 0 0
377 2 17.90513108926287 9.84305300267683 12.100229376075424 0 0 0
378 2 16.881456495494767 8.668851328329266 11.766969442424298 0 0 0
379 1 17.34128939618769 14.758502912114993 5.582733677845317 0 0 0
381 2 17.32791942235559 13.919105250824897 5.030175229363368 0 0 0
382 1 19.597794697851953 16.475299525657725 11.996770232919854 0 0 0
430 1 39.25765011450031 16.833337492921626 13.196420683809123 0 0 0
384 2 19.211300253820344 16.49274878878205 12.851060320431476 0 0 0
530 2 22.26252593023399 2.3564365959496323 5.675603183472642 0 0 0
339 2 3.5686828935553674 6.494510823791016 3.9672123520529587 0 0 0
210 2 19.192360828630093 4.289558291634716 10.084020409954068 0 0 0
284 2 20.33134191839683 13.15119041533071 1.9898458079449086 0 0 0
1611 2 6.745915231271735 4.983539068256127 13.817314722253718 0 0 0
1722 2 13.490889667698058 2.460285639765809 0.16555119558199832 0 0 1
74 2 12.103380740613913 8.588442567702032 27.0679470627118 0 0 -1
2231 2 39.25062839621432 19.72547749399099 21.927375629990028 0 0 0
468 2 20.685502467887474 8.744781589122654 7.233652626899947 0 0 0
512 2 20.43310119010569 10.759047742740858 4.853747136525435 0 0 0
1916 2 23.22171833140885 18.640708525000996 18.56177727253559 0 0 0
174 2 11.156984889578828 5.910248815894593 13.941537877105615 0 0 0
261 2 17.303716535956525 11.01007770881677 0.3552269504498071 0 0 0
186 2 18.589648492228385 5.497516130832484 13.690756045355897 0 0 0
92 2 10.621667745688141 7.277256298869478 0.2994275379324302 0 0 0
722 2 18.578048349639904 6.565830104376447 3.853640656440687 0 0 0
1617 2 9.21331260069422 11.88053904098647 13.442557532067282 0 0 0
86 2 8.990103971223512 1.8633308417873569 0.292561196622133 0 0 0
1857 2 11.646162461743106 15.377198286742765 13.762670501811249 0 0 0
1537 1 12.660440896853745 9.44120772503285 17.690287294070867 0 0 0
1538 2 13.06225116730232 8.853340121139373 18.385905711686668 0 0 0
1539 2 11.901466611289095 8.958655091304202 17.23220256813407 0 0 0
1540 1 15.306082238370347 10.535639053141043 24.484541804458164 0 0 0
1541 2 15.167512906090927 11.477507285423249 24.61405390443098 0 0 0
1542 2 14.5493355828051 10.284530679958984 23.910764353060948 0 0 0
1543 1 15.25283918370526 15.730697687251915 17.70110219948052 0 0 0
1544 2 15.341556324935818 15.360386290487591 18.629727913705743 0 0 0
1545 2 14.81715522678633 16.605145517128523 17.785796935457025 0 0 0
1546 1 17.810158092829212 17.58012655982532 24.426277710406527 0 0 0
1547 2 17.45000728136004 18.478917110365362 24.591740844510635 0 0 0
1548 2 18.099516320126504 17.304816198306202 25.33220996267908 0 0 0
1549 1 20.002373950238002 8.851167572987883 17.620539916896984 0 0 0
1550 2 20.74509741766909 8.891944943122914 17.01984664923239 0 0 0
1551 2 19.617235653163625 9.723937068577094 17.776015323097518 0 0 0
1552 1 22.899421727170115 10.846580514831572 24.51744568862064 0 0 0
1553 2 22.150050806503767 10.340064603644079 24.23372683211912 0 0 0
1554 2 23.309306950419728 10.303792611643662 25.213089654729615 0 0 0
1555 1 22.700040860176347 15.792888586885626 17.504767357368113 0 0 0
1556 2 22.437942684480323 16.708980663516588 17.83560243827028 0 0 0
1557 2 23.504607664556392 16.0010309756084 17.018980154331476 0 0 0
1558 1 25.31135883411535 17.603409150574652 24.59603942374494 0 0 0
1559 2 26.110741510647497 17.79032262232416 23.977247219642617 0 0 0
1560 2 25.057016507995996 18.446457180530142 25.012154416723565 0 0 0
1561 1 17.039816940219076 11.630784281356659 20.194859011720588 0 0 0
1562 2 17.155203735492677 11.074062123087847 19.44950076683442 0 0 0
1563 2 16.364313329123494 12.300147601138068 20.00168010341272 0 0 0
1564 1 19.341316254222313 13.685996504842649 26.756405143165342 0 0 0
1565 2 19.598370901663095 13.367555888229587 25.83105229755406 0 0 0
128 2 5.100523922750194 9.526342568916299 3.7669213523277483 0 0 0
1567 1 19.599819916365355 18.589083403670838 19.876626763933974 0 0 0
1570 1 21.787254160991424 20.323876577176957 26.86402372330642 0 0 0
1573 1 24.38759430490911 11.733795244658296 19.890571395984946 0 0 0
1574 2 23.61046697249426 12.037524392562839 19.39415394884931 0 0 0
1575 2 23.988620062334363 11.106093082678925 20.49622478188735 0 0 0
1576 1 27.07039066373508 13.647919938526714 26.890186983026034 0 0 0
1578 2 26.44244676604468 14.304867615718857 26.554059710519628 0 0 0
1579 1 26.87172217430539 18.489239121432604 20.249188268418497 0 0 0
1582 1 29.530531605661828 20.402179655560882 26.60117399014684 0 0 0
1814 2 22.964957991370458 8.911821343264876 15.565780515662688 0 0 0
1585 1 10.568646580505504 7.710511739865099 16.53772073142639 0 0 0
1586 2 10.897271049819285 6.808947373858806 16.312686141722207 0 0 0
1587 2 10.077823285778367 7.985682315872544 15.677815175200475 0 0 0
1588 1 13.221068987359637 9.29347930864736 23.283555534347997 0 0 0
1589 2 12.613515003140735 9.567305973701409 22.602613510779918 0 0 0
1590 2 13.418609087630417 8.372086897113348 23.00959722776161 0 0 0
1591 1 13.220689133750469 14.283325102678383 16.60166908594851 0 0 0
1592 2 12.432473399136043 14.108298682367774 17.153131073549265 0 0 0
1593 2 13.955212700923697 14.833038261424871 17.008706622500487 0 0 0
1594 1 15.667965122264315 15.945489222828018 23.14375082126763 0 0 0
1595 2 14.853261122061433 15.838979380185163 23.62892961871433 0 0 0
1596 2 16.192924318879392 16.652933609001106 23.54910377169606 0 0 0
1597 1 17.962830157254697 7.224065173496374 16.377481762919746 0 0 0
1598 2 18.63983323983949 7.719978198607681 16.891585432534285 0 0 0
1599 2 17.64677293766279 7.839442874324627 15.714773695315436 0 0 0
1600 1 21.04101460018029 9.07065473108555 23.645064169377306 0 0 0
1601 2 21.15738378640295 8.309800122931629 23.019391476581927 0 0 0
1602 2 20.110695765055222 9.02030982854798 23.931108781554684 0 0 0
1603 1 20.65026267445434 14.274352176299269 16.385926241842004 0 0 0
1604 2 21.435420770908312 14.80580108307246 16.7031021762046 0 0 0
1605 2 20.155044145031056 14.62321061882362 15.648894834726633 0 0 0