LAMMPS data file via write_data, version 8 Apr 2021, timestep = 0

6144 atoms
2 atom types

-2.2933331019211387 62.26162223310477 xlo xhi
0 28.068730278027083 ylo yhi
0 27.12971470899461 zlo zhi
10.157005555965426 10.182569508580727 7.115507992798541 xy xz yz

Masses

1 16
2 2

Atoms # atomic

1862 2 3.168171023614046 10.18666244814973 2.768490666996298 0 0 0
1604 2 7.635209229731171 10.373134960690125 0.20461178204941677 0 0 1
842 2 13.201405765744113 22.197582618360396 25.44173418654915 0 0 -1
251 2 2.6679757265629265 5.484169729673372 6.765632558198298 0 0 0
225 2 1.3997051023924931 4.4690738609142855 4.2437296376980465 0 0 0
1900 1 -0.2694077405615696 4.001641172791455 0.7210050357581888 0 0 1
25 1 9.830799207011491 11.751086620647314 9.044842038575426 0 0 -1
1625 2 12.340088361515377 19.188740539348373 12.784962164028938 0 0 0
2464 1 14.764378099265919 18.04682440659288 0.4232928952379614 0 1 0
886 1 16.08491614285521 20.12532896628455 16.552809911209106 0 1 -1
2449 1 10.852893956448046 18.39617747202139 21.98616543816802 0 0 0
4437 2 8.753277077067787 24.907707659258993 3.8476538358048047 1 0 0
2443 1 8.83799445110346 16.33695276615111 7.240461143566142 0 1 0
232 1 16.2395433218648 19.908548885905603 24.539206845140747 0 -1 0
2466 2 25.231586814328157 25.55475120261089 26.732887959025874 0 1 -1
1895 2 12.035817954891048 15.24802521643817 5.306313637985045 0 0 1
755 2 12.594318826278469 25.280277835160362 14.856583718982664 0 0 0
1861 1 3.6956846833433925 9.736102174566344 2.101366563525109 0 0 0
1064 2 16.274067971252247 29.082813863591642 16.502115073722777 0 0 -1
1894 1 11.957774117279323 15.859106401803196 4.585020456656406 0 0 1
1740 2 6.941244182474202 15.821353718581248 4.687933440444536 0 0 1
1916 2 11.63842793975211 2.8515797404397385 6.576977696606483 0 1 0
611 2 7.295263556406017 3.814807868966681 10.420549471083245 0 1 0
1709 2 13.725138091708644 6.560393432352236 19.983782550759816 0 0 0
830 2 14.2825157613789 28.310555549363176 13.714748167133244 0 0 0
344 2 4.658744588305515 16.524780491451647 1.7329150874161658 0 0 0
1587 2 16.990270648852384 10.434967126741485 15.95008697922044 0 0 0
1586 2 18.520831216523487 10.255094300501687 16.24000727533151 0 0 0
294 2 5.1675674260940845 10.89972633807421 5.285439590390037 0 0 0
2564 2 12.895304393093873 6.4012459207037615 5.311521274633683 0 1 0
1734 2 13.744685244650093 9.725908263275846 23.658494709307185 0 1 -1
1871 2 16.984651549213382 20.22395565563558 20.04597476658696 0 0 0
610 1 8.02821465144588 4.291666843279913 10.780599551382354 0 1 0
474 2 3.8624143336437324 8.029642270891568 2.1051025087203348 0 0 0
2401 1 17.63183415078721 26.18283390027441 15.182746196342928 0 0 0
1673 2 11.998574827409703 30.363999657675848 10.01671248065677 0 -1 0
1708 1 14.189354172476769 7.38942076911213 20.052774480635097 0 0 0
27 2 10.801007950228026 11.897267223218776 9.107257183213456 0 0 -1
907 1 17.35814569138544 23.050837783115718 24.60021618775241 0 0 -1
99 2 13.889877709859377 10.98255875733982 0.7357589521972887 0 0 0
1561 1 14.287282653418206 14.21992323033756 12.222313376627115 0 0 0
234 2 16.345839817850663 20.86891499366485 24.3113405432099 0 -1 0
174 2 7.27047780489659 6.2186221700351965 17.63462909001619 0 0 -1
2521 1 11.96487313076542 22.21099748096093 14.901753467682243 0 0 0
924 2 17.05048596948655 17.417692493802022 10.147571484286132 0 0 0
1000 1 9.463157371480028 13.065639526089052 6.299357219300308 0 0 0
224 2 2.9238528215914235 4.245832664646882 3.875785141719794 0 0 0
2395 1 3.496715665201685 5.178825827974554 11.370842681355697 0 1 0
1710 2 14.931464359365492 7.176111973256762 20.67145737911914 0 0 0
1689 2 20.115347012893352 30.236763484354544 12.539827865036989 0 -1 0
1705 1 17.543873163272725 18.29164093590242 14.996320147368607 0 0 -1
1773 2 10.37949734363942 6.728413632656313 13.601904305520714 0 1 -1
101 2 6.811967977231506 7.52817946811028 6.000773721059249 0 0 0
1570 1 15.761195625202248 12.66602073721475 17.688469157593413 0 0 1
104 2 5.626137104093563 12.936113659110363 10.027930465514077 0 0 0
1129 1 23.44514977603312 31.301864372721276 13.439926268231407 0 -1 -1
918 2 4.775297153046101 12.683967522728148 1.4890533898979783 0 1 0
851 2 7.0952567409301395 12.835331010183882 15.428338057749775 0 1 0
1789 1 4.36960022522518 5.0528331021052635 3.509364955880875 0 0 1
2364 2 11.946998122222078 24.58200458526689 16.961661257676088 0 0 0
821 2 17.810257509560014 27.21754008217264 25.12369856957583 0 0 -1
1059 2 10.105943443660328 27.52412149776125 0.36971589398699123 0 0 0
1824 2 6.289085882428502 6.365676341248739 21.890083213658805 0 0 0
2413 1 13.840609145129626 19.242603705949726 15.624808692787047 0 0 1
771 2 5.535920401072806 8.695146393386748 14.61087886164952 0 0 -1
1571 2 14.952560593220397 13.320689563224319 17.82171315245213 0 0 1
989 2 16.068964493698612 25.718172826819742 20.641323435057263 0 0 0
894 2 12.05374619390048 14.002408078883201 7.6265655542320046 0 0 0
854 2 17.471743670013876 24.72009331325618 19.621857808749727 0 0 -1
897 2 15.191691061150767 22.255668459644674 21.84859939877625 0 0 -1
1137 2 12.23886248631365 10.337161259529104 18.678444434269267 0 1 -1
2396 2 3.430113199259189 5.0477713507943625 12.380281442069704 0 1 0
1063 1 16.667948774568735 29.90214583123633 16.208722755067225 0 0 -1
1615 1 11.01548481184881 22.45075406471874 10.951251352754488 0 -1 0
2673 2 16.37481753220107 31.60622530629658 13.5016654624758 0 0 0
1043 2 4.258264132612144 9.656051888321263 8.575015388294405 0 1 0
846 2 14.224677470773969 14.31187013855745 15.232435719914521 0 0 -1
988 1 15.503565272889166 26.14915261788236 21.37419478848131 0 0 0
1739 2 7.451838203004026 17.28418163750569 4.546359525170101 0 0 1
822 2 18.716041025985472 27.443096769712508 26.434801547925478 0 0 -1
999 2 7.679244301516144 9.725360204051768 20.59188849499522 0 1 -1
3034 1 18.713874836658917 24.024357013429295 1.4246708827652745 0 0 1
887 2 15.877439660003056 21.05018925754405 16.33983536413774 0 1 -1
2465 2 15.04345502753354 17.090119220733257 0.4450949656108985 0 1 0
2343 2 2.3261079064157215 9.339907793466447 0.627401099427806 0 1 1
102 2 6.578795136514941 9.063868433296815 5.828931955311298 0 0 0
223 1 2.126793353542803 3.774119739812901 4.159970653104125 0 0 0
1917 2 10.618636346159041 2.4639146253489383 7.884864439616667 0 1 0
343 1 5.185641155409691 16.519002289328654 0.9220500646165495 0 0 0
829 1 14.581233481748914 28.20192296353823 14.59117239904479 0 0 0
1687 1 19.156901154093035 30.314435383179198 12.630992310880998 0 -1 0
986 2 18.353389619822053 6.4881457248740855 20.715645951215883 0 0 0
1706 2 16.9097696247168 17.575809250656448 14.64171787874358 0 0 -1
782 2 8.052564599137325 11.268927633806843 9.99949645167584 0 1 0
2626 1 13.785612678240966 24.554858217915314 23.033410036525563 0 0 0
1688 2 18.80769845476537 30.847440116878218 11.899632984901448 0 -1 0
843 2 13.886141853189077 21.58405799430351 24.163466301199684 0 0 -1
2531 2 11.724163524624712 21.113552452019675 12.114626995805104 0 0 0
922 1 16.836819701902172 17.68157717802173 11.093242612242939 0 0 0
916 1 4.8678124400078255 11.869069309728964 0.9365466154747831 0 1 0
845 2 14.285952791584982 13.778996536409496 13.738667368874863 0 0 -1
1563 2 14.254500881906697 15.17243082202168 12.050474468881132 0 0 0
908 2 18.029790148673197 23.66894455860493 24.834836922543026 0 0 -1
1827 2 5.757088050343237 6.688044118008867 9.289546110977687 0 0 0
28 1 15.558106580048442 24.10503707778511 4.830392586883856 0 0 0
2652 2 24.784709511352172 26.616701407350998 24.767434600738177 0 0 0
1880 2 9.593056984355806 8.601469478752788 18.198307252805485 0 0 0
2325 2 15.139145312583217 27.163915955827754 17.49043867076404 0 1 0
1585 1 17.852086215761982 10.308988725904277 15.540811303354543 0 0 0
1662 2 17.54732899119748 21.87463623860683 26.500205006084894 0 -1 0
2436 2 16.991934821135974 24.98944148906543 7.831727379643806 0 0 0
2441 2 15.368565202687815 20.626371840320363 12.603544341499349 0 0 1
1116 2 2.7325044184547576 8.228371188804681 5.535980007210477 0 1 0
1562 2 13.373778112507859 13.867246811142712 11.98136416920093 0 0 0
859 1 26.921198398060646 30.064619947740926 10.578151191822721 0 0 -1
1738 1 7.784357233441147 16.362423980439903 4.597643576086282 0 0 1
5034 2 9.380850929161689 10.629557887647186 22.279623908216095 1 0 0
30 2 16.403503573721448 24.6582575288214 4.9212432436684175 0 0 0
2667 2 6.206471157599033 19.813587348661994 2.6060863406127077 0 0 0
1670 2 2.156478281712573 6.53295953846237 1.5293704822144936 0 0 0
1667 2 7.77474749422999 10.093908136168785 2.339253172327832 0 0 1
2440 1 16.178645207292085 20.747023015687116 13.126125178750652 0 0 1
98 2 13.331257867961776 9.606811834043528 0.607146662030309 0 0 0
2314 1 14.102664260397049 23.11987801865455 11.751098145597911 0 0 1
369 2 14.970136515216815 10.602728004890743 5.587956142599853 0 0 -1
1065 2 16.81591136035882 30.433830341888786 17.097001600960848 0 0 -1
1130 2 23.164849543981937 31.223338981102614 14.387365828754032 0 -1 -1
2355 2 24.215364928138104 26.103826753423856 17.02716587255431 0 0 0
962 2 24.87750161828014 30.546820068298913 22.76691368925014 0 0 -1
888 2 15.896058520053547 20.104416314871006 17.571814747849217 0 1 -1
1135 1 12.108166834496854 10.320758847061917 19.638865741576033 0 1 -1
685 1 18.62007837070147 8.965551625901432 13.494328898439223 0 0 0
626 2 12.337271074305791 15.452322799050199 1.3353158957460922 0 0 0
2463 2 9.162176321955414 14.660314043284156 8.617863569600638 0 1 0
2629 1 2.506098873079769 3.485290706890589 8.84941102975373 0 0 0
2311 1 15.633985763527225 11.260602823091382 26.218891720171467 0 1 -1
1515 2 19.030548626703645 19.119857786499004 3.4965479448024865 0 0 0
1896 2 11.911405290854447 16.823010270528197 4.870279242525849 0 0 1
1568 2 19.982898962076547 30.817508521063893 20.440927776243523 0 0 0
1863 2 4.124023872880315 10.400396934198332 1.5594559484264965 0 0 0
588 2 11.10014364829485 8.207494590685148 1.6524154140508487 0 0 0
909 2 16.854703039437965 23.078674276348497 23.787186893572134 0 0 -1
1062 2 0.06322870740334396 1.0207089485097 1.8832120589960237 0 1 0
2354 2 23.307538255989208 25.044963770628197 16.316391164805836 0 0 0
2405 2 15.507478567130264 23.55941263100891 19.928685932090723 0 0 0
435 2 12.022645002238592 13.325501239120973 9.98938826586974 0 0 -1
87 2 15.405958522883044 8.393808662818154 2.835642582076874 0 1 -1
1132 1 5.149749885515847 7.541020882964513 11.096549782522235 0 1 0
6022 1 17.13676740049107 31.238494326335854 18.50569997538051 1 0 0
899 2 20.650859985681567 22.01844180052033 14.778713037269497 0 0 0
1514 2 17.60873755576803 19.41687413716553 3.598862471365921 0 0 0
5974 1 12.380334470935745 22.40921252643176 19.295408782927748 1 0 0
46 1 12.013473026788956 28.14279539446038 4.508219262744064 0 0 0
961 1 24.160307727590958 30.370879776730238 23.39896630839538 0 0 -1
885 2 17.99113095473788 29.13435848238374 13.409560555807811 0 0 -1
2529 2 16.128772631362114 27.85117415688868 20.58093693644171 0 0 -1
871 1 12.29355851363952 16.99692151534679 23.992895022170288 0 0 0
1655 2 20.27275536640138 32.69337258128167 24.271794469033228 0 0 1
818 2 14.84970626015713 6.479239342520465 16.619056817720736 0 1 -1
775 1 14.302596655305965 20.469461271423032 4.258824148051409 0 0 0
1603 1 7.436498186161421 11.011657837860454 0.9312526599085889 0 0 1
872 2 13.167021109683136 17.120825808165012 23.479175476864246 0 0 0
1605 2 6.525593558802198 11.449414536126213 0.7292573301874685 0 0 1
2387 2 11.490406329407389 25.481660925296918 12.820772308170485 0 0 0
77 2 12.124403273850733 26.532088827903493 4.8917960077468425 0 -1 0
100 1 6.925948238598005 8.369917635727804 6.428024377776147 0 0 0
1877 2 18.30904404316336 29.25045041087288 15.959761142150375 0 -1 0
3498 2 4.9563105079276495 6.529974157398301 14.642257789800702 1 0 0
3504 2 12.190906158681475 19.15464963655149 6.972975225173301 1 0 0
1901 2 0.4089917234033411 3.3876122554016788 1.156265890006708 0 0 1
1791 2 4.539333937030923 5.075817486428431 4.512932543054636 0 0 1
2283 2 9.327959741437626 2.2337728726060577 3.8801819120022207 0 0 0
828 2 9.79832558152855 20.19948230576062 10.44568745383162 0 0 0
97 1 13.142517123667824 10.488209758093747 1.0539091872560447 0 0 0
2381 2 11.918784854938313 15.843363061908144 8.144279576022447 0 0 0
113 2 22.555677942056363 21.26819444342011 26.842293244704532 0 -1 0
1513 1 18.415639591200836 19.59698408172267 4.061032450582045 0 0 0
1078 1 15.576565255234684 25.576357734074367 16.759527137272908 0 0 0
963 2 24.52287587156461 30.462234919688687 24.316416273554456 0 0 -1
2628 2 12.89006265179878 24.25329816810614 22.723656134325886 0 0 0
2353 1 24.139987111496517 25.566033673465604 16.191647978461848 0 0 0
218 2 14.66256249034096 29.216151407055648 11.404060744556547 0 -1 0
71 2 11.663834041770933 22.8422241641637 6.513075937620271 0 0 0
985 1 19.123643458834326 6.109898877245711 20.285687836011284 0 0 0
1884 2 10.51357325514707 21.71523718542382 9.373967727290934 0 0 0
76 1 12.100017484817133 25.62610737582674 5.351176608454366 0 -1 0
2361 2 9.191463599348022 7.797827564761989 9.961150539125907 0 0 0
1707 2 17.123158967533286 18.925600176479186 15.603283897314379 0 0 -1
298 1 6.476498746368138 19.121893275597145 5.605288463394161 0 0 0
612 2 8.267810601209701 4.971711750846121 10.145342593989863 0 1 0
1830 2 11.23174000292382 19.374006053453893 4.951957165820862 0 -1 0
1079 2 14.817412391540358 25.330158598551076 16.186579860734312 0 0 0
883 1 17.450301954643052 28.360163370116645 13.847566393834745 0 0 -1
2442 2 16.247119728716132 20.06666776668286 13.804079259760822 0 0 1
1915 1 10.809521541748609 2.46914632644217 6.853856904330376 0 1 0
1866 2 8.488658244145055 6.824360814840083 19.383331283472366 0 0 0
1664 2 6.690276915298805 17.61043158583681 8.948434406481702 0 0 0
5033 2 8.910093754400291 12.122865811765722 22.626114682140148 1 0 0
769 1 5.936771997179859 9.26932098003358 15.297598841453784 0 0 -1
923 2 17.412771941437846 17.08372762177335 11.550498663526433 0 0 0
2572 1 13.516603716490154 27.998088472968664 11.694775580651456 0 0 0
893 2 10.762828179731912 14.165092758198345 6.867072918920326 0 0 0
156 2 8.96757382732761 6.1599684423754315 7.844345065667951 0 0 0
1589 2 24.474250345337612 30.03220756977489 20.727214559901284 0 -1 0
3059 2 24.56138058394249 28.388833867865912 4.661615334322616 0 0 1
2369 2 12.446918470026224 18.943221509017967 26.47831704539028 0 1 0
873 2 12.57744460971022 17.60020879125809 24.77701164545618 0 0 0
754 1 13.134514469853647 25.340971342776555 15.63803682719516 0 0 0
2445 2 9.076893487041314 17.297700048999012 7.38588067564667 0 1 0
1588 1 25.376740955065202 30.41064427306229 21.014973561731786 0 -1 0
1150 1 11.341928276247181 13.828152480978412 17.901871028050433 0 0 0
6023 2 16.319468873350438 30.98793066781375 19.001577616842464 1 0 0
1517 2 23.29082120689201 15.993737624331795 22.17341416875528 0 1 -1
1118 2 22.80591580451418 27.128870210180388 26.053617840539104 0 0 -1
1872 2 15.627710329449162 19.556122130032616 19.676535612252064 0 0 0
2613 2 23.20296285399289 21.43594720931411 11.29205491756224 0 0 1
1133 2 5.221839540477965 7.718936439402914 12.053701097218994 0 1 0
1762 1 6.901365584450295 11.78934808499501 12.767695431078542 0 0 0
2556 2 20.759065497115877 27.43989758451338 21.016741973533257 0 0 0
2548 1 11.468443442551715 7.825680978108558 3.4038998756025376 0 1 1
1870 1 16.13293585173273 20.42476430777535 19.588535263412027 0 0 0
2432 2 15.39588885293389 23.37203434762397 15.26433370521832 0 0 0
2693 2 19.91562751332992 20.45054117038844 0.283356842042168 0 0 1
1736 2 13.586217166440477 7.763322005243387 15.615700632510071 0 0 0
376 1 12.706044577818362 3.487038864559468 10.226400322136811 0 0 0
1109 2 12.066533742338814 9.515727787575468 8.772963092488556 0 0 0
372 2 17.243639398956926 12.712378109028515 24.312448016214375 0 0 0
314 2 9.340459765281949 18.1672701051146 13.957972471275205 0 0 -1
2555 2 20.273079506380498 27.847482368393447 19.618575657375267 0 0 0
374 2 8.657680777956163 5.530427775620372 0.4901720549468194 0 0 0
1801 1 16.115579917565235 14.034406339912376 10.365859833217746 0 -1 0
442 1 7.437164054083954 5.687402061017101 5.415943811164455 0 0 0
2601 2 11.827099425780743 26.196500753572007 6.902364565732946 0 0 0
2600 2 12.016308023430593 25.622982115767932 8.258917537554497 0 0 0
2356 1 24.673705889059654 19.07488904919395 19.155008017432 0 1 0
2444 2 8.42546304846684 16.312375231538404 6.332934691627986 0 1 0
1492 1 27.185476303836058 27.00696289758035 13.661575809832721 0 0 0
2642 2 2.5386355625846537 2.892461740204717 5.505465518247919 0 0 1
2307 2 7.050913988565302 2.565997194292721 5.102637549552768 0 0 0
1119 2 11.875523770189572 19.365297210542344 0.09851792434212997 0 0 0
1088 2 20.594261035927673 30.969985851618954 25.598042875318217 0 0 -1
1001 2 8.971312772225783 12.605937179934438 6.980105679688014 0 0 0
269 2 10.17303261337998 16.389623387683972 11.534426976409115 0 -1 -1
2306 2 6.0646352615185535 2.7700735199796824 6.237105351685569 0 0 0
1370 2 25.84943548079243 17.16367782187481 24.466695851941775 0 1 -1
1089 2 20.701980515882354 29.855050717506817 26.65898387622141 0 0 -1
2468 2 11.47234423435907 12.467452515213608 3.1261731436760107 0 0 1
2570 2 17.15470450442903 23.161946650174787 8.917020821286169 0 0 0
776 2 14.893145151268655 19.915841656881575 3.634010740769631 0 0 0
83 2 15.571942466241985 17.23406495190577 23.87744260839004 0 0 -1
2460 2 21.397807416881186 13.561657728180188 18.961939167607756 0 0 0
1103 2 16.396669286262277 6.198116910808529 21.83292207629163 0 1 -1
2363 2 11.771269250774282 23.75941813610859 18.269625523420007 0 0 0
2141 2 17.887057050002497 10.653563532220844 8.076104156769293 0 0 0
1134 2 5.181581998041751 8.395554025593363 10.65478220171028 0 1 0
2644 1 14.010883758670015 13.177610407531786 22.098963787256206 0 0 0
417 2 10.749423388355446 15.264794546078209 18.206817117464762 0 0 0
1873 1 12.255527075597495 20.63088134625089 17.175719652248787 0 -1 0
1735 1 12.784895948403044 8.226708729783622 15.400360762805587 0 0 0
2646 2 14.364367057861696 12.301673430654509 21.77661504237954 0 0 0
940 1 14.364834361688658 18.32717470895829 18.74247423896164 0 0 0
1230 2 22.408444146225108 19.44897758418223 17.33901855438805 0 0 0
3669 2 4.960143684605373 14.348672730834842 3.1174016852522772 1 0 0
2554 1 20.960180099109095 28.094919060019794 20.311797557465912 0 0 0
2348 2 25.909755714177667 31.109922998390452 18.007273325857064 0 0 0
2305 1 6.254624087278064 3.011466426938057 5.286293856016517 0 0 0
443 2 7.509424367739436 5.970016360722787 4.4685714621261425 0 0 0
2404 1 14.864430348495123 22.802234445169784 20.148667456794975 0 0 0
831 2 13.896042735988345 28.746257582220302 15.036603786958931 0 0 0
1058 2 20.435612299488007 34.691607870462946 25.97125996140941 0 0 -1
2641 1 2.7246423830034967 2.329184092951061 6.30483619615699 0 0 1
1115 2 4.288435521101014 8.838431898993187 5.675955822363124 0 1 0
318 2 11.181606798505081 16.168346684091244 2.988145280113033 0 -1 0
725 2 5.183670236709152 1.6844126622031343 4.45194891585259 0 0 1
2456 2 15.587511244154335 16.410368429743457 4.806139820426609 0 0 1
2400 2 17.38146587696039 29.580864068343566 27.045611021071075 0 0 -1
941 2 14.59770901972298 17.8316968677835 19.549255789312774 0 0 0
1117 1 21.95885710973339 26.826441684182804 26.32669296017246 0 0 -1
1737 2 13.007108870881002 9.035296719410281 14.858698052688153 0 0 0
1909 1 14.553254897450902 10.817229730263591 20.66379400354585 0 0 0
1682 2 5.048729206856333 5.738446419092686 6.8718036700153124 0 0 0
368 2 16.44367805708165 10.264139875198534 5.030402898728639 0 0 -1
1826 2 5.795271319652956 5.236424556451149 9.060241903231972 0 0 0
759 2 16.9789200603402 29.562745335270904 10.711178514668706 0 -1 0
6045 2 19.247121401240815 32.85484178388837 19.965794865493297 1 0 0
444 2 6.818432529416064 4.941140155501468 5.462164680755523 0 0 0
853 1 16.51902757871878 24.856080953386318 19.335869114436207 0 0 -1
783 2 7.097078124819076 10.93544935838847 11.08190986197612 0 1 0
1681 1 4.4220158021056 5.850215910742298 6.139980393301259 0 0 0
2467 1 11.59613229965913 12.721299197903502 2.1690051878255794 0 0 1
1742 2 9.710434568978986 8.656435690582503 24.862066376112605 0 0 0
1621 1 8.631230868636624 11.695009634007246 18.342430779982067 0 0 -1
1622 2 8.946210360604129 10.755137295156649 18.101866766659416 0 0 -1
1151 2 11.198339015043944 13.342712570016175 17.056810489918483 0 0 0
1691 2 14.095422040306179 22.96552584507681 0.22469082187265943 0 -1 1
316 1 11.192348213018883 16.51109091113826 2.0573409201569453 0 -1 0
2612 2 22.991087193631767 22.84816741077775 10.733318380896726 0 0 1
2491 1 20.37120838095845 30.122416377505132 21.917383022679733 0 0 0
5 2 7.330276959346268 3.585274024296761 1.2908116526110158 0 -1 1
1110 2 12.199408754619549 8.607543276909157 7.466670559094792 0 0 0
1876 1 19.142000927052187 28.84759561570701 16.293524530513498 0 -1 0
2563 1 13.73960135203675 5.916855590250488 5.0430022591771175 0 1 0
2523 2 11.975659332161635 21.936137441190947 15.834512026312314 0 0 0
216 2 18.74181142420014 28.54519819392731 5.805599972351926 0 0 0
819 2 15.681421029006916 7.842426900451298 16.842549848961184 0 1 -1
373 1 8.573941345375617 6.385777521457735 0.0521287817337055 0 0 0
841 1 13.202481074235594 21.40850485411904 24.832716375423065 0 0 -1
4509 2 7.594187178218315 26.00719082311428 0.7743616584240612 1 0 0
214 1 18.393796440752226 27.774611801243726 6.347123392357334 0 0 0
5965 1 8.752506956156726 15.523225523060972 16.156778947260236 1 0 0
375 2 9.386893224754303 6.836926861452194 0.42965915619209943 0 0 0
1606 1 14.809432219473166 9.641671759115276 11.641185404268303 0 0 0
6044 2 8.384037654993818 5.647310689334354 21.252748564984568 1 1 0
1881 2 10.476234573922943 9.543334263707935 17.337579380486652 0 0 0
844 1 14.061130634616795 13.520918690070799 14.685986759026434 0 0 -1
3502 1 12.233067086816863 19.301815791092725 7.938035760378734 1 0 0
1578 2 24.05724465207339 26.416936004288225 8.124455403797352 0 -1 1
350 2 23.92584979711629 26.103355888113853 14.591480006422737 0 -1 0
1027 1 23.967324047464487 19.79843811993664 21.749965491896845 0 1 -1
1998 2 23.96321125823997 22.911309494137484 18.342986438797187 0 -1 0
1560 2 3.6726679170993144 1.276864066507715 0.6276920977647507 0 1 1
2370 2 13.2089219012187 19.98841901647037 25.672762082382867 0 1 0
271 1 11.541407391397529 6.2547010881807505 18.559737043043096 0 0 0
2469 2 11.764375356095567 11.920413700445836 1.678127680140222 0 0 1
1828 1 12.013683113127694 18.881945318810537 5.212532313029975 0 -1 0
385 1 18.395152608154575 16.236658537855643 26.211228506345947 0 0 -1
154 1 8.590267165372218 6.639924186912653 8.617855902078253 0 0 0
29 2 15.16449869114253 24.415325635421873 3.9288621687842804 0 0 0
1152 2 12.320814662118725 13.938929632262738 17.961892542209778 0 0 0
625 1 12.912524711464513 14.687695510892121 1.1951478341609287 0 0 0
1878 2 19.711398479541927 28.47393853887035 15.495620364278443 0 -1 0
826 1 9.677500421855703 19.59427923766987 11.223889815930026 0 0 0
4268 2 4.758292672325886 0.8991087483609888 2.55690028087701 1 1 0
81 2 11.656582454844033 26.38501130722111 1.80005173060986 0 -1 0
284 2 22.1012414882592 32.786881304368734 19.882612659235583 0 0 -1
2934 2 30.118725616374487 32.87470025292131 21.44407095426676 0 0 0
820 1 17.90389675512288 27.03710233427206 26.078042741109563 0 0 -1
5280 2 9.075525133900756 15.823583554130344 19.42746626029878 1 0 0
117 2 19.227405558515777 19.170860578785874 24.495810868476244 0 0 -1
3055 1 16.737739543616218 8.298544410186667 23.747373948382318 0 1 0
2492 2 19.54818436432913 29.79255033248287 22.385595129348854 0 0 0
1085 2 9.626441263060462 21.134149149098086 3.970773069838255 0 0 0
2654 2 18.46379436548635 12.955506089997222 0.7969833419049273 0 1 0
273 2 12.475665831194473 6.032334933261178 18.33509067774256 0 0 0
1084 1 9.926756308018398 20.656908685102348 4.838880496128243 0 0 0
1910 2 13.634738437540538 10.920030939933985 20.28148054201639 0 0 0
1087 1 21.216584302242474 30.611879989889378 26.278119406685125 0 0 -1
2388 2 11.380832417285436 25.690770786489576 11.297522414290862 0 0 0
2324 2 14.394982114042001 28.550362179096435 17.602450127994874 0 1 0
777 2 14.80282349344765 20.643899171041475 5.101288941767365 0 0 0
308 2 20.45549875593326 24.371793496465028 13.973330508999242 0 0 -1
309 2 20.38582186386481 24.874158888538272 15.481903130624984 0 0 -1
3003 2 10.787522853986282 8.99678700052626 10.371953608124684 0 1 0
1809 2 7.93040459640037 10.601774246469782 7.3482911103210675 0 0 0
880 1 12.763491577174305 15.048238739864026 20.52724050366364 0 0 0
169 1 8.781136189302005 12.804174735329976 16.019906523965282 0 0 -1
283 1 22.808696508305896 32.361231229402726 20.380244504901356 0 0 -1
386 2 18.42993549088008 15.32489458649094 26.572113436908953 0 0 -1
1548 2 11.81311680541437 13.072442415900548 24.305501299274226 0 1 0
726 2 15.184240751787232 28.335791019721984 4.989024522084954 0 -1 1
1545 2 11.468861627244838 8.927005302675362 19.95340465830798 0 0 0
630 2 14.517783819729939 4.872235591745753 17.736422110044913 0 0 0
387 2 17.612049539967046 16.206254168132997 25.62065992532739 0 0 -1
319 1 16.57515505966963 13.719518580147808 22.81228766942683 0 0 -1
1559 2 13.081644019039505 8.96326582625648 26.493701580144016 0 1 0
1683 2 4.2224043078863644 6.793082423856475 6.022775664962681 0 0 0
1558 1 2.8053949685911377 1.261562677715057 0.1758730209362281 0 1 1
1763 2 6.58266716687865 12.363003352987382 13.565212169964479 0 0 0
475 1 23.788222819617232 24.07900364902124 19.621664477238987 0 0 -1
1672 1 11.680857906303073 29.704780503727253 10.647915857950151 0 -1 0
285 2 22.59368370951471 32.2985651074537 21.345843098947316 0 0 -1
2549 2 10.983356754898908 8.37378999021924 4.075836172733579 0 1 1
2470 1 21.14033814193373 8.064519555128761 19.80770772889491 0 1 0
1802 2 15.528829515693623 13.893449586443134 11.1521443563205 0 -1 0
901 1 12.583341340108491 21.441812453837358 2.677294832721185 0 0 -1
902 2 12.335650534260488 20.625134224254676 2.158762798808065 0 0 -1
320 2 17.103592775871324 13.92744010462103 21.995181572217447 0 0 -1
2493 2 20.81625953069337 29.312337896529385 21.433475416353684 0 0 0
898 1 20.310309363182647 21.695727122278836 15.702822200800222 0 0 0
2645 2 13.355627634060053 12.764800115956348 22.824496005799734 0 0 0
1600 1 13.914312987085957 14.410427045192606 18.0242195641111 0 0 0
123 2 7.703545419529441 6.7756365823710905 2.182231251411 0 0 0
367 1 15.619182207083465 10.680412711116938 4.832188601667926 0 0 -1
1583 2 14.774334728102676 14.28471492370957 7.454052021742922 0 0 1
317 2 10.290541205586894 16.453973634511087 1.7039051561846987 0 -1 0
2571 2 17.124768376906076 22.874396027156635 7.4496718857728865 0 0 0
3001 1 11.645730513736801 9.482163983741946 10.521696895356008 0 1 0
115 1 18.60615080104963 18.524178882773032 24.79320596005777 0 0 -1
116 2 18.95251824188924 18.319964747301633 25.65437182421856 0 0 -1
817 1 15.287301051921723 7.27616147935577 16.17517816078149 0 1 -1
724 1 14.782727369523094 28.95931125975268 4.298476008834926 0 -1 1
752 2 11.569045347753763 12.530629093432347 11.932786000261245 0 0 0
1911 2 15.032526565045277 10.25654351412796 20.120600136801286 0 0 0
1060 1 9.430779815572262 28.482621252554885 1.8461533668444277 0 0 0
1066 1 18.9787644954265 27.429106619429977 18.500082807543524 0 1 -1
489 2 8.176874935308804 16.187892174662167 0.8973207160349469 0 0 0
1086 2 10.379522502461807 21.317311026044628 5.4223265940223095 0 0 0
627 2 12.545601624312487 14.006515645204617 1.837711263131281 0 0 0
352 1 6.765607368502533 5.166693617507412 12.984612040553039 0 0 0
2333 2 26.042047542739557 24.5390324991135 24.64197546844128 0 0 0
2260 1 28.79074034826998 26.633763175624683 26.936906141078737 0 -1 0
2565 2 14.389507956995445 6.5108498063229625 5.4275908589570205 0 1 0
2550 2 12.364546103281643 8.18680585989355 3.5008108795430863 0 1 1
680 2 12.927089806511749 3.0881913067542777 4.379340094668961 0 0 0
1616 2 10.292204469654266 22.918869384282885 11.332706975038393 0 -1 0
1803 2 15.63263330867927 14.732164184730284 9.80401483350456 0 -1 0
2630 2 3.4447474757653715 3.6969697067511555 9.0408868865224 0 0 0
2414 2 14.739502791073342 19.522887094662526 15.968214363255033 0 0 1
4488 2 10.512134864786514 27.188971820224427 8.910775610395413 1 0 0
2569 1 17.670876675826346 23.326865791591683 8.103714216627944 0 0 0
1028 2 24.11760153269922 19.54945947564527 20.866272120402698 0 1 -1
788 2 13.764578623001416 17.365387829057557 12.328714818898032 0 0 0
155 2 7.627472222708947 6.423757450542123 8.496843193825159 0 0 0
359 2 19.32497119715343 24.435627751729342 26.60303694028728 0 0 0
536 2 17.428418714412597 7.1439547660373695 8.954538270746799 0 0 0
2594 2 6.494634609299798 9.658785623641231 9.220899924384973 0 1 0
32 2 17.635909459296123 27.986635457227145 23.040806969461148 0 0 -1
1572 2 15.530201482377883 11.984228901230768 16.9859603905572 0 0 1
1274 2 10.078698514232943 10.81875006644683 26.03196816484912 0 0 -1
1602 2 13.948888240389238 15.241531962278403 17.476832690454533 0 0 0
1634 2 9.963485690147817 14.934090543203046 21.398599878044877 0 0 0
6037 1 9.75439225784788 19.08361510606865 16.405753991708547 1 0 0
2605 1 21.563923649853937 22.78824528611897 13.704780365981183 0 0 0
272 2 10.907157958386678 6.032599458119201 17.830171748567448 0 0 0
1582 1 14.625323778218373 13.515986493283245 6.865448079591469 0 0 1
2574 2 12.892166643327304 28.575418454029748 11.208587069270227 0 0 0
313 1 8.670416936613616 17.49546490002141 13.84121328533827 0 0 -1
2589 2 13.009307080444627 10.62246621650537 6.98205522010555 0 1 0
5031 2 7.748485037400824 9.542222024659871 23.154233811662728 1 0 0
1907 2 7.307591530752889 11.59724464801204 3.993793281953235 0 0 1
128 2 13.015806029969143 5.082129710622902 9.11533544544397 0 1 0
1890 2 15.880805704643052 12.00633197380583 3.8988301912772285 0 0 0
383 2 17.4248983153984 2.9159621367228823 9.239201745534052 0 1 0