LAMMPS data file via write_data, version 15 Apr 2020, timestep = 0

1944 atoms
2 atom types

-5.5318920751166090e-01 4.0535294207509693e+01 xlo xhi
0.0000000000000000e+00 1.9723082141273995e+01 ylo yhi
0.0000000000000000e+00 2.0401927307153219e+01 zlo zhi
-3.7070749240299961e-03 -1.4773167203777859e-02 1.9864074208690852e-02 xy xz yz

Masses

1 16
2 2

Atoms # atomic

11 2 -1.6268235054156516e-01 1.8775354728352720e+01 2.3275139861203549e+00 0 -1 0
1160 2 1.1910425933309606e+01 4.1982107157243069e+00 3.2581814337028687e+00 0 1 0
90 2 1.1670499020796649e+01 8.6636055582021960e+00 4.7915903547361953e+00 0 0 0
905 2 9.2899123758587283e+00 8.8322313140611683e+00 7.3329118808470612e+00 0 0 0
1833 2 1.3434978465093453e+01 1.1423404613499754e+01 3.9222757715328789e+00 0 -1 0
1587 2 1.6926371537649882e+01 1.3956178818983803e+01 8.4401895180534547e-01 0 0 1
449 2 1.4266093713392149e+01 3.6774098073204917e+00 1.8044402875208196e+00 0 1 0
1302 2 6.4107448802753684e+00 1.5116060001038678e+01 3.5890836408006517e+00 0 0 0
725 2 1.8561382134742296e+01 3.0004541069540647e+00 7.2002218947750531e+00 0 0 0
1620 2 1.5699544824142400e+01 4.0322342428796659e-01 8.6429260603976896e+00 0 0 0
672 2 4.7617886255092809e+00 1.5629708702971884e+01 1.4825751916396166e+00 0 -1 0
535 1 1.5616154386367018e+01 1.8996881070446275e+01 5.9448505532221647e+00 0 0 0
1812 2 1.8977503831713641e+01 1.1196728744072486e+01 5.7638550437588725e+00 0 0 1
936 2 1.8554953457305441e+01 1.0738573748332351e+01 2.2071654542299446e+00 0 1 1
7 1 -3.9892106656284826e-01 1.2728076061800822e+01 7.8223071581144739e+00 0 -1 0
61 1 1.4242525700134644e+01 8.1591535427771529e+00 3.0548191320792508e+00 0 0 0
1135 1 5.9240916211832815e+00 8.4423925058843103e+00 4.2173190150399504e+00 0 1 0
1375 1 8.4841728778372136e+00 9.3057756604823583e-01 6.0046242542122013e+00 0 1 1
95 2 7.0246893274464961e+00 1.6106880011861886e+01 9.7138803692124807e+00 0 0 0
301 1 1.5559720765939996e+01 4.7170549825942079e+00 8.4743389949204104e+00 0 0 -1
1559 2 1.4655845472831516e+01 1.2939042355838826e+00 3.2441718409475935e+00 0 1 1
710 2 1.8515165824170207e+01 4.6262812628058265e+00 4.3883200292018767e+00 0 0 0
877 1 4.4997140085285823e+00 1.1772419971195021e+01 1.3824647284638147e+00 0 1 1
467 2 9.7172587927850174e+00 2.9253994956344096e+00 8.1519250060153610e+00 0 1 0
703 1 2.7890114199040275e+00 1.7917977037802981e+01 8.8071344293672897e+00 0 0 -1
481 1 5.2576688767110289e+00 1.3940943460886377e+01 6.1810740442421537e+00 0 0 0
913 1 1.9451044282954147e+01 1.7823561063764135e+01 5.0878549394825541e+00 0 0 0
1158 2 1.1700535665049710e+01 1.2094282343710869e+01 6.8092060496270603e+00 0 0 0
1580 2 -4.3320827000982576e-01 1.8562594121389409e+01 6.8113545539118174e+00 0 -1 0
749 2 1.6882752901057437e+01 6.7126891044102308e+00 4.5785629441036795e+00 0 0 1
236 2 8.5425397366010642e+00 1.4305917620627213e+01 3.5282909787850292e+00 0 0 0
252 2 5.8197615689539610e+00 1.6949653207353983e+01 8.0630172166945719e+00 0 -1 0
1786 1 1.3884584978348553e+00 1.7574113273689463e+01 6.5707669781532081e+00 0 0 1
739 1 6.6157002016056108e+00 1.0373017220988059e+01 2.3423430488108741e+00 0 0 1
910 1 4.6748541127327146e+00 1.6374403610300938e+01 7.0695760794004165e+00 0 0 0
250 1 6.5856212712786615e+00 1.7305826558359424e+01 8.6247366774526615e+00 0 -1 0
954 2 1.1873493165125447e+01 1.5714229796891644e+01 3.4955784252991462e+00 0 0 1
938 2 5.2503649655656375e+00 5.3675721777108283e+00 6.5730569787276028e-01 0 0 0
1555 1 5.9737155917057434e+00 5.4180184832363292e+00 6.4719368641418091e+00 0 0 1
21 2 9.0414992905569824e-01 6.2234026225353913e+00 2.5619334315226721e+00 0 0 0
915 2 1.9368774927013632e+01 1.8762843935725375e+01 4.8199290111864803e+00 0 0 0
231 2 9.5086914653493326e-01 1.4560032222979462e+01 5.6929191877940033e+00 0 0 0
906 2 9.7719980965045856e+00 7.3242072747826743e+00 7.5925398077776061e+00 0 0 0
38 2 1.6831843921650304e+01 1.5599242580520608e+01 8.8195649594111885e+00 0 -1 -1
713 2 3.0241780108567697e+00 2.0153518904947036e+00 2.0925256451111585e+00 0 0 1
911 2 4.7822538010414446e+00 1.5554851360274661e+01 6.4824327727295685e+00 0 0 0
661 1 5.4792061395508851e-02 2.2090921717151661e+00 1.8073733971537820e+00 0 0 1
1606 1 7.0838681040884826e+00 4.1217906502410164e+00 8.6178126475954748e+00 0 -1 0
47 2 3.3183953116878260e+00 1.2992222054568705e+01 1.8491145594953726e+00 0 -1 0
458 2 1.7105647740609520e+01 8.3284014244216156e+00 9.3779663412375474e+00 0 1 0
37 1 1.7052254108829612e+01 1.6506669243731814e+01 8.9829276530410276e+00 0 -1 -1
650 2 6.4558048999281432e+00 1.0562918464022296e+01 6.2950460572085563e+00 0 -1 0
898 1 8.1129033258747150e+00 2.9207936061255464e+00 3.2558649602452614e+00 0 0 0
726 2 1.8621837737259575e+01 4.4574187883900001e+00 7.8554351789237993e+00 0 0 0
25 1 4.7665778179760618e+00 1.3793516996969551e+01 8.7324020312649058e+00 0 0 0
777 2 1.9978877238215773e+01 6.5034556732872151e+00 7.8954336480510117e+00 0 0 0
701 2 5.8496173734970851e+00 1.2821232298862014e+01 9.6253109640492127e+00 0 0 -1
1561 1 2.4184536999460526e+00 2.2705441103856558e+00 7.8526193850681043e+00 0 1 0
273 2 9.9777085353839876e+00 1.0435273721506931e+01 3.9804983001685721e+00 0 0 1
1560 2 1.4819372338517731e+01 1.9587733277242197e+01 2.7096887948826187e+00 0 0 1
443 2 5.9567066273501528e+00 4.0418660083252016e+00 5.1219928104862991e+00 0 1 0
1810 1 1.9395920407882187e+01 1.2073937568328347e+01 5.4893764077063549e+00 0 0 1
1816 1 1.2304520376202516e+01 7.1110539687055345e+00 1.2058868879759523e+00 0 2 1
671 2 5.9332230585701655e+00 1.4733393713836481e+01 1.0897662452445260e+00 0 -1 0
302 2 1.5908986933513084e+01 4.5593947007087676e+00 7.5503094911600384e+00 0 0 -1
1748 2 3.3052669854008183e+00 1.0093594104142101e+01 8.5606704376708687e-01 0 -1 1
1543 1 5.5002844453171140e-01 1.0843432081544490e+01 4.7495891251015925e+00 0 0 0
1324 1 1.3622136065429800e+01 1.7477995348261647e+01 9.1467274929261588e+00 0 -1 0
712 1 3.2673697543884863e+00 2.2865030232870622e+00 1.1608532130707898e+00 0 0 1
949 1 3.0792679453738394e+00 1.5842198653817443e+01 1.0027478306242312e+00 0 0 0
226 1 3.9900921927902810e-01 1.2096656214961239e+01 1.5837434931520455e+00 0 0 0
285 2 1.3009458914421613e+01 2.6433709618949361e+00 7.6202017768648389e+00 0 0 0
235 1 9.3903811761872511e+00 1.3846409366178298e+01 3.1243047538977953e+00 0 0 0
518 2 1.9244453385180623e+01 1.5683325323597673e+01 7.2376193708971659e+00 0 0 0
1376 2 9.1799906012065762e+00 1.5565859970958587e+00 5.7308286623964344e+00 0 1 1
1084 1 1.2427717656243717e+00 4.5558344722616226e+00 6.8320119145010993e+00 0 0 0
483 2 5.1621130571737748e+00 1.3958778539393796e+01 7.1879703262838550e+00 0 0 0
951 2 2.8232043925248007e+00 1.4992502476810008e+01 1.4480149252083681e+00 0 0 0
663 2 8.2524163729725775e-01 2.4475971002198400e+00 1.2219490564929851e+00 0 0 1
1734 2 1.5833007724280467e+01 3.9440333759099526e+00 6.2937389782777975e-01 0 1 1
750 2 1.6448128369921406e+01 5.6494407952933967e+00 5.7055040357029840e+00 0 0 1
1137 2 5.3411886478658008e+00 8.9574330100256887e+00 4.8189853913926397e+00 0 1 0
88 1 1.1745406187875894e+01 7.7967230807432486e+00 5.2902539064763969e+00 0 0 0
736 1 1.4196378564579913e+01 1.5382478738804501e+01 7.6038723124060876e+00 0 0 0
1823 2 1.4071144206376651e+01 1.7588385506339371e+01 3.5229347041489221e+00 0 0 1
697 1 1.7627350045937892e+01 1.7529088674385278e+01 1.7316121247569469e+00 0 0 1
519 2 1.9055974141855629e+01 1.4627565525774614e+01 5.9376770932119944e+00 0 0 0
446 2 8.3785084112636063e+00 7.4996233653512840e+00 5.9534118410060959e+00 0 0 -1
256 1 3.7264094818408617e+00 1.0298117155536124e+01 1.0153196446102230e+01 0 0 1
1397 2 1.9442910194293265e+01 9.6515778406976054e+00 7.2692605725988422e+00 0 0 1
63 2 1.4051354334614752e+01 8.9673963583367922e+00 3.6129813762434759e+00 0 0 0
711 2 1.9489534689110744e+01 4.4254518197761668e+00 5.6759133379682734e+00 0 0 0
955 1 1.3596486529868697e+01 7.1168060277488081e+00 8.7295880311354246e+00 0 0 0
866 2 1.3181651965591268e+01 1.2395418011892742e+01 9.7777176346554846e+00 0 -1 0
1140 2 1.1026539931682558e+01 2.9945734061868878e-01 3.1401692966939510e+00 0 0 1
537 2 1.5945792084504944e+01 1.8069400262689687e+01 5.8493321569168284e+00 0 0 0
1525 1 7.1692560601079691e+00 1.3688995082521313e+01 5.2893489664056348e-01 0 0 1
28 1 3.1687043359667926e+00 1.4387290044904123e+01 4.5062471880054558e+00 0 -1 0
1569 2 1.0961110815446872e+01 1.7835503206320215e+01 2.0457367535570166e+00 0 -1 1
680 2 2.1673338732219227e-01 1.0859724929687589e+01 7.7366975002728386e+00 0 0 0
1300 1 7.0757073146952880e+00 1.5165988336170726e+01 4.3178476635693750e+00 0 0 0
665 2 1.8622866085188212e+00 9.1852424179948819e+00 7.6052502223606497e+00 0 0 0
941 2 1.5272943090743803e+01 3.3497591546457159e+00 5.8372737118257323e+00 0 1 1
498 2 8.0305114444198455e+00 7.8983818141142317e+00 7.6564758549058964e-01 0 0 0
1093 1 1.7160301190951539e+01 7.5634888226778125e+00 3.0340017872531257e+00 0 2 0
1153 1 1.3984330073944403e+01 1.3885838236999582e+01 9.9071921290113512e+00 0 1 0
683 2 3.9862698230920337e+00 1.0762641689985868e+01 5.4376925221394270e+00 0 -1 0
684 2 3.9118374964118274e+00 9.5908885287338208e+00 6.4070745499175361e+00 0 -1 0
251 2 6.2360435368680136e+00 1.8216289244685967e+01 8.8115434472382219e+00 0 -1 0
1792 1 3.9792854723478133e+00 1.1643989884676424e+00 6.1662033254888104e+00 0 0 1
1586 2 1.6176985174145493e+01 1.2541699605432008e+01 7.6005134812921671e-01 0 0 1
714 2 3.6217412270618006e+00 3.1794575548139568e+00 1.2180956945779573e+00 0 1 1
1802 2 1.1005178741681776e+01 6.7705993172097481e+00 9.4579859141515854e+00 0 1 1
1325 2 1.4004691215719818e+01 1.6769495649842252e+01 8.6147860682791233e+00 0 -1 0
292 1 1.7088295232382880e+01 1.1630907718978936e+01 9.7073074443788041e+00 0 -1 -1
1771 1 9.1659626232480598e+00 1.0408974931658058e+01 7.6696675227345628e+00 0 0 0
740 2 6.2608751920054830e+00 9.7121836964497827e+00 3.0004087981445884e+00 0 0 1
284 2 1.4144703438686424e+01 3.4394541821301048e+00 8.3718304530983314e+00 0 0 0
276 2 2.8768689100636835e+00 1.2881882778764702e+01 5.3476941030581226e+00 0 0 0
1556 2 6.6261806463980717e+00 6.0644578107857532e+00 6.0998933382140956e+00 0 0 1
742 1 1.5693215874023675e+01 1.2297599742572375e+01 5.6048421457951187e+00 0 -1 0
1551 2 1.4616741316413721e+01 1.0743265502758588e+01 5.7798060041262280e+00 0 0 1
60 2 4.3886739602967284e-01 6.0324584061154711e+00 7.2852720092177439e+00 0 0 -1
1562 2 2.9109233636962970e+00 2.3454995783210810e+00 8.7266283583403972e+00 0 1 0
1537 1 4.0437495896011200e-02 1.3692596073832219e+01 4.0819647548886984e+00 0 0 1
709 1 1.9314245757669664e+01 5.0225389690175906e+00 4.9266416563906548e+00 0 0 0
64 1 1.7118948045792514e+01 1.0605972909576089e+01 3.6023184519476295e+00 0 0 -1
900 2 7.2211803416056695e+00 3.0679966617014256e+00 3.7719184553461247e+00 0 0 0
704 2 2.7186312620175830e+00 1.7069313047116804e+01 9.2815758177655834e+00 0 0 -1
1526 2 8.0662077737657150e+00 1.4038344623099993e+01 5.5162265829208357e-01 0 0 1
971 2 9.7067262119942708e+00 1.5828438521025276e+01 7.2434402746262228e+00 0 0 0
27 2 3.9889180957742703e+00 1.3217963897531240e+01 8.5089639642703467e+00 0 0 0
1619 2 1.4781615251054676e+01 7.1783451512434579e-02 7.5198494993738629e+00 0 0 0
1127 2 1.2360956888817029e+01 3.3537583219756817e+00 9.5695065889751803e+00 0 1 1
1545 2 -3.7905687082604361e-01 1.0975029489430121e+01 4.8959221408286355e+00 1 0 0
229 1 8.1669332673016459e-01 1.4961454753332772e+01 6.5775325201638681e+00 0 0 0
281 2 4.5676032529821686e+00 4.5582858585875513e-01 1.1034707711434248e+00 0 0 0
1567 1 1.0557687563041783e+01 1.7515972561326517e+01 1.2366883920632972e+00 0 -1 1
699 2 1.6949766670001797e+01 1.8134041483270813e+01 1.5386798262829584e+00 0 0 1
716 2 1.6591352525060895e+01 4.5564396182619236e+00 3.0162387805514816e+00 0 0 1
517 1 1.8609571231257611e+01 1.5104189767371720e+01 6.7220265381744859e+00 0 0 0
1815 2 1.4325276663114874e+01 5.0338443688927743e+00 4.0848132687320140e+00 0 1 1
282 2 5.9910531309312818e+00 1.0074712966313542e+00 7.1411447711657794e-01 0 0 0
1096 1 2.0033703170231121e-01 8.2835577864750505e+00 4.6776256567490337e+00 0 1 0
1312 1 5.0447038462789306e-01 3.9076646106203579e+00 4.1141575558767958e+00 0 0 1
486 2 6.6921799343037423e+00 1.9086423863552550e+01 1.6335224141723201e+00 0 -1 0
743 2 1.6047560292327567e+01 1.2592987412452167e+01 6.4730791007133988e+00 0 -1 0
1598 2 1.7754362280525534e+01 1.7864685479388211e+01 8.0243453510508740e+00 0 0 0
1355 2 8.7426982670338416e-01 1.8578281311250652e+01 6.4722573683427065e-01 0 -1 2
1120 1 1.3438279977396148e+01 1.3942133161301651e+01 1.5217075535519078e+00 0 0 0
748 1 1.6782082671295072e+01 6.5681691957433586e+00 5.5212520558489384e+00 0 0 1
718 1 4.1572869969418775e+00 5.8290851778157045e+00 9.8624637580332468e+00 0 0 -1
1563 2 1.4889738704601752e+00 2.0871686815461894e+00 8.1214025871864060e+00 0 1 0
225 2 3.1060411403371324e+00 1.5402794361976402e+00 4.5410729464793134e+00 0 1 0
1794 2 3.2173902977426474e+00 1.4370625839738755e+00 6.7553063118071224e+00 0 0 1
893 2 1.4375733482599373e-01 4.3971078347876841e-01 4.8079336581002750e+00 0 0 0
528 2 1.2327538362228013e+01 1.4348332481762315e+01 5.2641467968474593e+00 0 0 0
1575 2 7.0637013424266568e+00 9.6587944595762476e+00 8.8810958707358623e-01 0 0 1
442 1 5.7299469211348999e+00 3.3945913260152110e+00 4.4139455476049170e+00 0 1 0
1539 2 -1.4636572637417866e-01 1.3996040005289318e+01 3.1191305421136684e+00 0 0 0
468 2 1.0073401971160457e+01 4.0251835838588237e+00 7.1028376853300674e+00 0 1 1
1759 1 3.6970189067089416e+00 2.9937376516225993e+00 1.0118703527616931e+01 0 0 1
1778 2 3.8296369720323495e+00 6.0713802135149662e+00 8.4189194446796041e+00 0 0 0
1314 2 9.1121133059417048e-02 3.5241780008188832e+00 3.3093910566789813e+00 0 0 1
59 2 2.8503211751474899e-01 7.4625784964729247e+00 6.9013102227437066e+00 0 0 -1
29 2 2.9410082039586039e+00 1.5322254338180711e+01 4.6098394146561308e+00 0 0 0
1578 2 1.9360201162046014e+01 7.0096736647482558e+00 4.7696781921635356e+00 0 0 1
1351 1 4.6329337806867708e+00 4.8295746451930714e+00 2.0264299820732066e+00 0 0 1
1159 1 1.1995159994612093e+01 3.2088403181472152e+00 3.3761558123506950e+00 0 1 0
294 2 1.6800860024239235e+01 1.0886980753099119e+01 9.1269020495210675e+00 0 -1 -1
872 2 4.7329715195906337e+00 7.7518424249528231e+00 3.2955706251315608e+00 0 0 0
940 1 1.6133685363677557e+01 3.8210668505875591e+00 6.0355374413431511e+00 0 1 1
74 2 1.7929224281877481e+01 6.7263907422812643e+00 8.4346399207540959e+00 0 0 0
744 2 1.6365494536791267e+01 1.1720900779915146e+01 5.1938582586888336e+00 0 -1 0
1139 2 1.2376149430161339e+01 6.1408295956107772e-01 2.3603090244358218e+00 0 0 1
1548 2 9.7458724251306332e+00 8.7848430453101685e+00 1.1482068354793480e+00 0 0 1
10 1 -5.1783594310177039e-01 1.9285396660000810e+01 1.5720271755258548e+00 0 -1 0
73 1 1.8277090454013518e+01 6.2036727835617240e+00 7.7264925360574379e+00 0 0 0
1764 2 4.5804503818278341e-01 6.3005299108284500e+00 3.5169092713316952e-01 0 1 0
676 1 -3.7946020439065098e-01 9.1754582964615654e+00 2.0104118804829390e+00 0 0 0
1835 2 1.4511571645948552e+01 1.0866886204294943e+01 1.1789600116844132e+00 0 1 1
484 1 7.5058630241931468e+00 1.8576005259253073e+01 1.9622633395343023e+00 0 -1 0
1180 1 1.7170816681135047e+01 1.0079987642286503e+00 9.3966596793461825e+00 0 1 0
919 1 1.5240292187950455e-01 1.7239723009456817e+01 3.2750626736632347e+00 0 0 0
526 1 1.2433931327271647e+01 1.4096249520076679e+01 6.1893658198107273e+00 0 0 0
106 1 1.6642789752836162e+01 9.3839970706169478e+00 8.2306170476024452e+00 0 0 0
107 2 1.7419182333005875e+01 9.5501004041886635e+00 7.7012909413715409e+00 0 0 1
320 2 8.8634146905057900e+00 1.4055560068710400e+00 3.3366916502237975e+00 0 0 1
230 2 1.0175977428791982e+00 1.5917819253530743e+01 6.4796057059705561e+00 0 0 0
689 2 9.6898153693010336e+00 1.5736255004677034e+01 8.3991221476735189e-01 0 -1 0
1776 2 3.1442646451341227e+00 1.6757476988565319e+01 2.9127702649383274e+00 0 0 1
1775 2 1.8322130153244447e+00 1.7022203834037253e+01 3.6664586357405091e+00 0 0 1
1085 2 1.2344163455920378e+00 4.4166885385728083e+00 5.8473245323515597e+00 0 0 0
715 1 1.7504743342894542e+01 4.3490541344555878e+00 3.1440362265363242e+00 0 0 1
478 1 1.9762424664005451e+01 1.4223446128526597e+01 4.1286746368242166e+00 0 0 -1
666 2 2.8298944353324766e+00 7.9181895534836455e+00 7.4151834146810272e+00 0 0 0
101 2 1.8931051919613861e+01 1.1655107418591972e+00 3.4390137576793403e+00 0 0 0
463 1 1.3908935359118114e+01 2.3967667056427491e+00 5.1479320686962460e+00 0 0 -1
100 1 1.9192650939437204e+01 7.0215676139365479e-01 4.3323671235091776e+00 0 0 0
669 2 -1.1357575028073408e-01 1.4730943765450409e+01 9.5957089592225808e-01 0 0 0
19 1 1.4620418136453326e+00 6.2297038898233330e+00 3.4129284621308784e+00 0 0 0
1315 1 1.4128160335112570e+00 1.5504413515556804e+01 9.2978508745171204e+00 0 -1 0
1832 2 1.2954256105250874e+01 1.2575674609138231e+01 2.9877427664961265e+00 0 -1 0
1583 2 7.8341035950593092e+00 1.2670226496053548e+01 8.2355680592196734e+00 0 0 0
1612 1 7.5303917229088100e+00 1.8237616430091639e+00 5.6911224198529131e-01 0 1 1
970 1 1.0119301466908606e+01 1.5055181185907278e+01 7.5959589459098229e+00 0 0 0
675 2 5.4649798504327851e+00 9.3190075667413037e+00 8.0208428094739652e+00 0 -1 0
268 1 1.6629114012143575e+01 1.3311804057813305e+01 7.8458655136232158e+00 0 0 0
492 2 7.0790042223849037e+00 1.4050016682808488e+00 7.0004228278505005e+00 0 1 0
1352 2 4.4119352133236829e+00 5.7536305910633185e+00 2.3207726075595176e+00 0 0 1
69 2 6.3600575824943464e+00 1.8161530626963120e+01 4.8724442487075095e+00 0 -1 0
1801 1 1.1040882245401050e+01 6.2911188075150344e+00 8.5747303088430673e+00 0 1 1
876 2 8.3028731452068225e+00 1.7573974403767370e+01 7.7230134764745433e+00 0 0 0
457 1 1.7402345289596756e+01 7.4786499571523368e+00 9.9061866288852709e+00 0 1 0
76 1 1.7748357407024006e+01 1.6392703654896801e+00 2.3049948060089487e+00 0 0 0
1164 2 1.6553988459567208e+01 1.4620864016594703e+01 2.9450882612267217e+00 0 0 1
673 1 5.9401440093094369e+00 9.4643924742611283e+00 8.8431791670031163e+00 0 -1 0
8 2 -1.8730373142663631e-01 1.3513274698917344e+01 7.2493498297842001e+00 0 -1 0
1086 2 1.6771015231546462e+00 3.7261622742925153e+00 7.1833862231912642e+00 0 0 0
536 2 1.6379777222987833e+01 1.9550829705822125e+01 6.1347792265768817e+00 0 0 0
914 2 1.8880250178742845e+01 1.7316657638214501e+01 4.4822184575678072e+00 0 0 0
223 1 2.7760413595664750e+00 1.8793111517890717e+00 3.6930994111237654e+00 0 1 0
30 2 4.1187775255056227e+00 1.4233517945606252e+01 4.7582654069987322e+00 0 -1 0
746 2 1.4733637723158969e+01 1.6505164742476101e+01 1.6613157339897953e+00 0 0 1
950 2 3.2952917557416779e+00 1.5617004933927605e+01 2.9389621341820996e-02 0 0 0
738 2 1.3562007704719049e+01 1.5000943195038547e+01 6.9265911808791669e+00 0 0 0
682 1 4.5328572017542461e+00 1.0016156069942006e+01 5.7665967518256878e+00 0 -1 0
1370 2 1.2064338064643655e+01 7.8022974343262760e-02 6.9954951836267485e+00 0 0 1
1549 1 1.3904304193655447e+01 1.0137308250105677e+01 5.4618024450410365e+00 0 0 1
1755 2 -2.9310289651879035e-01 1.7796454882391044e+00 9.2035856892903283e+00 0 1 -1
482 2 6.1233776662686221e+00 1.4377315909587850e+01 5.9556924035221899e+00 0 0 0
1353 2 4.9403756984456884e+00 4.3690605944202048e+00 2.7838270624213162e+00 0 0 1
737 2 1.5029289714794709e+01 1.5594608852909984e+01 7.1717986054929108e+00 0 0 0
1831 1 1.2903514438949218e+01 1.1646457083691979e+01 3.1813007919972329e+00 0 -1 0
1747 1 3.1137164937038473e+00 9.1266832770511890e+00 8.5019042225250552e-01 0 0 1
105 2 1.3031458773092826e+01 6.0451903164475160e+00 5.8962564211478918e+00 0 0 0
1577 2 1.9034473832188336e+01 8.0647681454080740e+00 3.7488774955691575e+00 0 0 1
1369 1 1.1994109203766437e+01 1.1013772712353243e+00 6.9297500188831664e+00 0 0 1
480 2 1.9149656924399409e+01 1.4236425032148558e+01 3.3728817324234912e+00 0 0 -1
1793 2 4.6890362896845925e+00 1.5193596044228854e+00 6.6439108924857759e+00 0 0 1
871 1 3.9410780200203366e+00 7.2966286092552863e+00 2.8466924907677598e+00 0 0 0
68 2 7.4128611811630307e+00 1.8084148586927444e+01 3.7283982559567077e+00 0 -1 0
1326 2 1.4189870174234034e+01 1.8291060966718238e+01 9.0604409598961198e+00 0 0 0
306 2 1.2388020799072237e+01 1.8294190477047696e+01 3.8696048722923453e+00 0 0 1
445 1 7.7392440571205885e+00 7.0515813983698221e+00 5.2784902979633976e+00 0 0 -1
1122 2 1.3056665272462439e+01 1.3660347576375454e+01 6.2940799442136941e-01 0 0 0
1163 2 1.7444501382579254e+01 1.5669827650382778e+01 2.2428262551739659e+00 0 0 1
237 2 9.3951206113263890e+00 1.4006787703666420e+01 2.1446723889510215e+00 0 0 0
920 2 -5.8395467703157899e-02 1.6419923281907543e+01 2.7495317580609258e+00 0 0 0
2 2 3.8006303181585155e-02 1.6484458679012764e+01 9.4268670928125271e+00 0 -1 0
1313 2 1.0687888478822551e+00 4.6318520235030700e+00 3.7111517815089909e+00 0 0 1
686 2 6.4936724909103338e+00 1.6351096891208726e+01 6.1671488927876739e-01 0 0 0
470 2 9.0458270906042504e+00 8.0915411981385510e-01 7.5915673816634932e+00 0 1 -1
1779 2 2.9209964622535183e+00 5.6127781001761639e+00 7.2170517244024968e+00 0 1 0
1125 2 1.8281270957191499e+01 1.2620386344274701e+00 6.0064003866512641e+00 0 1 0
488 2 1.5574039077008916e+01 7.5241517960809645e+00 6.1959518151699902e+00 0 1 -1
934 1 1.9174504823182001e+01 1.0615716996524696e+01 1.4383030030106088e+00 0 1 1
1161 2 1.1878842363001597e+01 2.8187370180599434e+00 2.5525992779166233e+00 0 1 0
77 2 1.7843638434153643e+01 1.3102184468611549e+00 1.3433146135212406e+00 0 0 0
897 2 7.8622193478535198e+00 1.1634873859548851e+01 1.0174241684979178e+01 1 0 0
269 2 1.6890346326539973e+01 1.2781704831524229e+01 8.6598647366237831e+00 0 0 0
1818 2 1.1656143037155516e+01 7.6906019066542832e+00 7.8048528441827247e-01 0 2 1
747 2 1.4191235739096481e+01 1.5217303987774189e+01 9.0697612119121429e-01 0 0 1
466 1 9.7583394659248768e+00 3.8994081056367746e+00 8.0140466722273676e+00 0 1 0
1394 2 1.0989326534999389e+01 1.7990517553192046e+01 7.3067327123556822e+00 0 -1 0
717 2 1.7503944329032365e+01 3.4099526338171340e+00 2.7436912086276770e+00 0 0 1
286 1 1.8191847447918150e+01 6.4728381980002698e+00 8.6452894548423498e-01 0 0 0
1817 2 1.2891509026013894e+01 6.6855468273503291e+00 5.4973115410861972e-01 0 2 1
1618 1 1.4784873152503145e+01 1.7505235709251332e-01 8.4667062780066011e+00 0 0 0
1356 2 2.1572570176926793e+00 1.7695198849286417e+01 4.3852744676479849e-01 0 -1 2
1550 2 1.4115800046401025e+01 9.2456785764872560e+00 5.8715959473942458e+00 0 0 1
1824 2 1.5659705661342173e+01 1.7694737784747922e+01 3.4130957609230861e+00 0 0 1
1558 1 1.5039067025435285e+01 7.8020442593639061e-01 2.5121949250037101e+00 0 1 1
873 2 3.7021152701581101e+00 7.9463223678778805e+00 2.1341871285788869e+00 0 0 0
288 2 1.8213428745638403e+01 7.0742809390737325e+00 1.1456665540666533e-01 0 0 0
1535 2 1.0427132413308852e+01 2.9042565484814324e+00 4.6219391810811699e+00 0 -1 0
1121 2 1.2648481103441489e+01 1.4243354699606263e+01 2.0003309436693772e+00 0 0 0
472 1 1.1402018055102884e+01 5.7797979013521230e+00 3.4703755994556240e+00 0 1 0
58 1 2.7747115618197538e-02 6.8636724668309741e+00 7.5650893345704056e+00 0 0 -1
490 1 6.2778853369243830e+00 1.7428648088987724e+00 7.4711987702214024e+00 0 1 0
1182 2 1.7150282489226115e+01 1.9083950336254938e+00 9.6921943011932328e+00 0 1 0
456 2 5.7812040878586455e+00 6.1082203842436145e-01 8.6258796400894742e+00 0 1 0
896 2 8.6892998299154112e+00 1.0683018365447806e+01 9.3694094294766099e+00 0 0 0
469 1 9.5605030423204802e+00 1.2398874928334638e+00 8.3929258968656697e+00 0 1 -1
1613 2 8.3435403766130474e+00 1.2401954228093481e+00 5.9418838654528339e-01 0 1 1
1592 2 1.5260351203253162e+01 1.3520964343444303e+01 4.4432825566278238e+00 0 0 1
283 1 1.3270683376426655e+01 3.4816918695113026e+00 7.9900326450300163e+00 0 0 0
1536 2 1.1069406740212701e+01 2.2757503267700043e+00 5.8452868530155238e+00 0 -1 0
447 2 8.2409830326229123e+00 6.4744948784518881e+00 4.6229611375768185e+00 0 0 -1
1753 1 -2.2627050790319209e-01 1.8145261260017522e+00 8.2352980964600562e+00 0 1 0
957 2 1.2744696905806441e+01 6.8906171946303880e+00 8.3679065335268099e+00 0 0 0
1591 1 1.5051190968298096e+01 1.4363450147908519e+01 4.0185724417664606e+00 0 0 1
1813 1 1.4728700186687469e+01 5.1605715824155514e+00 3.2039907554233245e+00 0 1 1
875 2 8.7895314621876395e+00 1.7724912720532586e+01 6.2416828970193210e+00 0 0 0
654 2 1.3781211602662147e+00 1.2546910488357545e+01 8.4621135286076647e+00 0 0 0
1301 2 7.0499979442202871e+00 1.6157318403145190e+01 4.5542193397891850e+00 0 0 0
270 2 1.7452310853515367e+01 1.3763329930406254e+01 7.5348503579928741e+00 0 0 0
894 2 1.3766749265217675e+00 3.7350254504334041e-01 3.9177502695549720e+00 0 0 0
721 1 8.7454988691183253e+00 1.1446197260768640e+01 4.1008001358954420e+00 0 0 0
1377 2 8.4858050201063069e+00 2.0917552168045273e-01 5.4113384520132186e+00 0 1 1
878 2 5.3419484848383139e+00 1.1410077203422773e+01 1.7159096199716799e+00 0 1 1
722 2 7.9980908488118843e+00 1.1604012690491565e+01 4.7393284039931496e+00 0 0 0
67 1 7.3306546281924501e+00 1.7942815133706315e+01 4.6800740905321572e+00 0 -1 0
485 2 7.5946128160746493e+00 1.7864617277722758e+01 1.2772446438774134e+00 0 -1 0
496 1 8.7121461581078563e+00 7.2596682450404035e+00 9.0678599205974542e-01 0 0 0
258 2 3.1555241315851257e+00 1.0876786000424499e+01 9.5790177361230811e+00 0 0 1
1834 1 1.5238470945430910e+01 1.1280743455510855e+01 1.7338923322134419e+00 0 1 1
1785 2 6.9768624119680736e+00 4.9999925082508243e+00 1.0059731665136944e+01 0 0 0
78 2 1.6905777515476466e+01 1.2319912452572590e+00 2.5001430208453450e+00 0 0 0
1557 2 5.1375410984556336e+00 5.8156480245854629e+00 6.8310440170118669e+00 0 0 1
66 2 1.7175676146336393e+01 9.6931631123281683e+00 3.8578613099801178e+00 0 0 -1
952 1 1.1864793472311982e+01 1.4778409180379187e+01 3.5441635089578445e+00 0 0 1
218 2 1.0426915792202413e+01 1.5555398903008655e+01 9.2182862802461578e+00 0 0 0
1607 2 6.8246134280744730e+00 4.6219152822411020e+00 7.8453550009963671e+00 0 -1 0
884 2 7.1055893546869386e+00 8.5483254165139737e+00 9.8154846382262235e+00 0 0 0
904 1 9.3802462005713956e+00 7.9383880933247362e+00 6.9193983890200998e+00 0 0 0
1821 2 1.2409755657066462e+01 9.9913652134415472e+00 2.2968754605383404e-01 0 0 1
1553 2 1.0955357733273750e+01 1.4816533801305123e+00 5.7038592953792921e-01 0 0 1
497 2 8.4915144010167385e+00 6.6992183737096145e+00 1.6539093034401329e+00 0 0 0
1608 2 8.0927469444601492e+00 3.9973014729194616e+00 8.3821323734609265e+00 0 -1 0
438 2 8.8022430574735981e+00 4.5019156143234955e+00 2.9294866014718783e+00 0 0 0
48 2 2.6578242151698328e+00 1.3671300151177288e+01 3.0460143333984244e+00 0 -1 0
305 2 1.2420974894784969e+01 1.7610621650516325e+01 5.2027353837826595e+00 0 0 1
1136 2 6.6582729292102725e+00 7.9486662107817363e+00 4.6483067888515048e+00 0 1 0
1762 1 1.4249688062440236e-01 6.6445801284771067e+00 1.2686244457539768e+00 0 1 0
942 2 1.6766660734006216e+01 3.1556692133859281e+00 6.0942927423114854e+00 0 1 1
1552 1 1.1755896037628494e+01 2.0727051662345897e+00 7.3054686127152479e-01 0 0 1
46 1 2.5202243061517744e+00 1.3419723944873402e+01 2.1379134946030169e+00 0 -1 0
89 2 1.1061836150930342e+01 7.8803561221062433e+00 5.9969779350355816e+00 0 0 0
1123 1 1.7708877818395976e+01 1.7210146845166603e+00 6.6562191893072917e+00 0 1 0
450 2 1.4564870257700134e+01 2.2441271452922771e+00 1.5198077065189162e+00 0 1 0
1547 2 1.0757512648546074e+01 9.5370196438264347e+00 2.0855816037139547e+00 0 0 1
1774 1 2.8116720807096898e+00 1.7121604253260131e+01 3.7383306549037960e+00 0 0 1
1534 1 1.0291481959117379e+01 2.7945870822839134e+00 5.5908068089316449e+00 0 -1 0
103 1 1.3490198109357999e+01 5.2013203174481344e+00 5.6838370939617437e+00 0 0 0
444 2 5.1543921432349356e+00 2.8046509011259131e+00 4.9073092581830062e+00 0 1 0
108 2 1.5949980529763568e+01 9.0036289027268808e+00 7.5606290350459844e+00 0 0 1
473 2 1.1486814782277836e+01 6.5430816919327688e+00 4.1508620461823726e+00 0 1 0
935 2 1.9459660806440045e+01 1.1548943010695300e+01 1.3785719895858306e+00 0 1 1
1822 1 1.4822551413344048e+01 1.7772671703906383e+01 2.8939501832214631e+00 0 0 1
436 1 8.7845881493776421e+00 5.4773596251812044e+00 3.0789853727664589e+00 0 0 0
972 2 9.3590227143121787e+00 1.4461598249256165e+01 7.7633283264741122e+00 0 0 0
670 1 5.6680867198163627e+00 1.5410552780700176e+01 1.7221548994201421e+00 0 -1 0
228 2 1.3050124439334789e+00 1.2523426365028524e+01 1.7292560515166568e+00 0 0 0
1599 2 1.8574735320963555e+01 1.7999404128166049e+01 6.6930100744609593e+00 0 0 0
274 1 2.6978703874345307e+00 1.1965794039595639e+01 5.6515020479295801e+00 0 0 0
491 2 6.5043546433845254e+00 2.6267674245660015e+00 7.7948047133798886e+00 0 1 0
1585 1 1.6655228953589440e+01 1.3278799444876324e+01 2.3939860085118747e-01 0 0 1
1157 2 1.2447608894264963e+01 1.0798990639651560e+01 6.6111856826677826e+00 0 0 0
1576 1 1.9449787107041050e+01 7.9752699680611236e+00 4.6265635858555383e+00 0 0 1
65 2 1.6424194258028574e+01 1.0767386514659472e+01 2.9225373541618436e+00 0 0 -1
678 2 -4.2789367572492754e-01 8.7025006654707191e+00 2.8635514585843533e+00 0 0 0
527 2 1.1608444357936996e+01 1.4392736743511252e+01 6.7224004045821468e+00 0 0 0
1836 2 1.4694370779582023e+01 1.1877193762810773e+01 2.2013919090136556e+00 0 1 1
745 1 1.4705426739264881e+01 1.6101601399198572e+01 7.2991864782127069e-01 0 0 1
1773 2 8.4585047230686392e+00 1.0717800634183858e+01 7.0932461112848282e+00 0 0 0
1138 1 1.1877115668932383e+01 1.9638090913132373e+01 2.8420546937535609e+00 0 -1 1
1154 2 1.4039390658316705e+01 1.4304175195020230e+01 9.0072126218121280e+00 0 1 0
1733 2 1.7012654564682510e+01 5.1348881626808689e+00 4.2282105429457995e-01 0 1 1
287 2 1.9170268527883731e+01 6.4770434816970548e+00 1.0440303255744692e+00 0 0 1
319 1 9.3308858566100383e+00 6.2360146669438143e-01 3.2285264111852952e+00 0 0 1
272 2 1.1705499031116736e+01 1.0537763105342750e+01 3.8802761803779444e+00 0 0 1
479 2 1.9672207915682513e+01 1.3346120545354010e+01 4.5392036601961605e+00 0 0 -1