LAMMPS data file via write_data, version 15 Apr 2020, timestep = 200000

972 atoms
2 atom types

2.1722589180266816e-01 1.9773827108198706e+01 xlo xhi
1.4368072179066615e-01 1.9847372278210095e+01 ylo yhi
2.7146551485680703e-01 2.0529306485143536e+01 zlo zhi
-2.5763510354669261e-01 -6.5903021804338546e-02 3.9670085563634799e-01 xy xz yz

Masses

1 16
2 2

Atoms # atomic

4 1 3.9409395320793572e+00 1.5356742297278043e+00 3.2016196842940574e+00 0 0 0
5 2 4.1743302051786593e+00 2.5495560620691924e+00 3.2102768103194896e+00 0 0 0
6 2 3.1022594619827366e+00 1.3360279939768631e+00 3.6424393739128309e+00 0 0 0
7 1 6.2030769128838186e+00 4.5234808067860799e+00 5.9835912738484343e+00 0 0 0
8 2 7.1276008733763483e+00 4.3638591899463544e+00 5.6299354597633906e+00 0 0 0
9 2 5.6432313601883557e+00 4.4458303873573994e+00 5.1858485593205765e+00 0 0 0
10 1 1.6485105537132123e+00 4.2233716079438155e+00 4.1237105927089450e+00 0 0 0
11 2 9.5190545237453594e-01 4.4881764451237336e+00 4.7431723888193762e+00 0 0 0
12 2 1.3873218613775880e+00 4.8715394900046611e+00 3.4265618651785958e+00 0 0 0
13 1 4.7518592672465338e+00 6.1158564837568781e+00 1.9352012176819631e+00 0 0 0
14 2 4.4871837723097627e+00 6.9659379498257588e+00 2.3671011124396180e+00 0 0 0
15 2 4.0389707012454803e+00 5.8983787145178619e+00 1.2454936069263738e+00 0 0 0
16 1 4.4670297581443874e+00 4.0823660124985262e+00 3.8889744712211534e+00 0 0 0
17 2 4.5437829253841091e+00 4.7522674064617059e+00 3.1278817489451614e+00 0 0 0
18 2 3.5322696606303694e+00 4.1082347106849983e+00 4.1030394429219204e+00 0 0 0
19 1 7.3980947835954614e-01 5.9144098877266496e+00 2.3680834772108748e+00 0 0 0
20 2 8.5183812841086437e-01 6.9172041176674668e+00 2.4177450745258748e+00 0 0 0
22 1 1.8981931021313876e+00 1.0024833930678168e+00 4.9587755310977926e+00 0 0 0
23 2 9.8668819794455453e-01 1.0280517227792871e+00 4.6082831986901684e+00 0 0 0
24 2 1.9569024022567614e+00 1.6349570452836735e+00 5.7384456299543798e+00 0 0 0
25 1 2.9534708749392471e+00 5.6523063164207343e+00 6.9876908754000411e+00 0 0 0
26 2 2.7923485094359233e+00 6.3941420135178166e+00 6.3100921260467899e+00 0 0 0
27 2 3.7483662347910247e+00 5.8343919423890860e+00 7.5322596997342357e+00 0 0 0
28 1 5.8481536854076479e+00 1.1166049113748007e+00 5.0087362652102589e+00 0 0 0
29 2 5.2009026971406431e+00 1.1014937349320812e+00 4.2785789523395019e+00 0 0 0
30 2 5.4733648415983662e+00 1.9913312100141251e+01 5.3106995583476291e+00 0 0 0
31 1 8.1417591000792500e-01 2.2483902112147351e+00 2.3479998991448743e+00 0 0 0
61 1 9.1939071291107783e+00 5.7331172392701069e+00 6.8078502976338440e+00 0 0 0
33 2 1.0321724481957086e+00 2.8982915029427478e+00 3.0615138659791401e+00 0 0 0
891 2 3.1598146367208537e+00 1.8807559634523390e+01 7.1404207088177940e-01 0 0 0
35 2 6.1409395754552722e+00 3.1283575781746529e+00 1.7055452341710005e+00 0 0 0
46 1 8.1100723740171077e+00 4.6646407277993358e+00 4.1488049100304760e+00 0 0 0
47 2 9.1045273923445453e+00 4.5922422787910575e+00 4.0886902440153587e+00 0 0 0
48 2 7.7798714308040751e+00 5.2509863740973666e+00 3.3870161264143093e+00 0 0 0
55 1 7.3025933098495752e+00 6.1802697915497911e+00 2.2607450385291061e+00 0 0 0
56 2 7.2956771485398733e+00 7.1472071804466006e+00 2.4338859425710835e+00 0 0 0
57 2 6.3797835537621905e+00 6.0392523807951015e+00 2.0072501387248689e+00 0 0 0
58 1 8.5857399245400607e+00 1.1728557347882658e+00 5.0900171616009633e+00 0 0 0
59 2 9.1184095246902963e+00 1.2903284595700144e+00 4.2669276059732582e+00 0 0 0
60 2 7.6597684556000178e+00 1.1452010214344788e+00 4.8333929524848269e+00 0 0 0
328 1 4.4631341799028288e+00 1.6187597130711968e+00 1.0194576572644284e+01 0 0 0
62 2 9.0969676302350777e+00 4.8406250644209585e+00 6.5627132088376250e+00 0 0 0
63 2 8.4609650218937951e+00 5.9171583817214595e+00 7.4529265075367173e+00 0 0 0
67 1 7.6336000439532388e+00 2.5312849178801438e+00 2.5927052691898105e+00 0 0 0
68 2 7.7029463996149232e+00 3.3103633471660840e+00 3.2372750930902479e+00 0 0 0
69 2 8.3325376328534215e+00 2.6740026377127886e+00 1.8649743793874702e+00 0 0 0
37 1 9.3235431179556922e+00 2.7406428857971172e+00 4.7881095653495492e-01 0 0 0
609 2 7.4933662162758754e+00 1.5658077265498664e+01 9.7850281388555533e+00 0 0 0
142 1 5.1886429339602023e+00 9.3091298642485878e+00 8.1085467397964817e-01 0 0 0
112 1 4.0873894251538117e+00 7.9555496017198051e+00 3.5991168430938281e+00 0 0 0
113 2 4.7770860068628647e+00 7.5763605715658082e+00 4.1631412353414330e+00 0 0 0
114 2 4.3432473535102858e+00 8.8422954311772806e+00 3.4271386011342102e+00 0 0 0
115 1 5.9236187350988931e+00 1.1361881177941278e+01 5.8186925204914068e+00 0 0 0
116 2 5.8744444279972940e+00 1.2309408974799178e+01 6.1437162690708371e+00 0 0 0
117 2 5.5831341505429872e+00 1.0779419152757674e+01 6.5391390023218756e+00 0 0 0
118 1 1.4642120225339219e+00 1.0816846667348608e+01 4.1950026851902908e+00 0 0 0
258 2 9.7601739748281613e+00 1.4732740139490069e+01 3.7567989320430808e+00 0 0 0
120 2 2.4172119206543377e+00 1.0940198866957356e+01 4.3680766117320902e+00 0 0 0
121 1 4.3462734966036578e+00 1.3030917147018975e+01 1.9037882154770929e+00 0 0 0
122 2 5.2714678815433311e+00 1.2633109487292877e+01 1.8045917740104498e+00 0 0 0
123 2 3.8400858837077920e+00 1.2832706441631709e+01 1.1053300433869553e+00 0 0 0
124 1 4.1153961548535198e+00 1.0789075254941595e+01 3.8547606255742610e+00 0 0 0
125 2 4.3258363175488705e+00 1.1514319365370154e+01 3.2432406792780326e+00 0 0 0
126 2 4.7678286663058733e+00 1.1027001312128311e+01 4.5394286708599312e+00 0 0 0
127 1 6.1558208064162412e-01 1.2323215539538467e+01 2.2761508023277628e+00 0 0 0
128 2 1.2720494009417829e+00 1.2312376624888222e+01 1.5565354530535294e+00 0 0 0
129 2 1.0669788454740383e+00 1.1770787271427276e+01 2.9803149673550426e+00 0 0 0
130 1 2.0983702081266831e+00 7.5615568128658444e+00 5.3335687958586941e+00 0 0 0
131 2 2.6394118257471884e+00 7.7950397596963867e+00 4.5778840490631438e+00 0 0 0
132 2 2.2280942896266467e+00 8.3530185932235472e+00 5.9533214961985594e+00 0 0 0
133 1 2.5279987884039508e+00 1.2438568968285221e+01 6.8274078047232969e+00 0 0 0
134 2 1.9252318082916533e+00 1.2659046949422654e+01 7.5910439253636142e+00 0 0 0
135 2 2.4031592884305901e+00 1.3167559288419630e+01 6.1833826466439055e+00 0 0 0
136 1 6.0547303232171936e+00 7.3150123934855218e+00 5.4622261557378184e+00 0 0 0
137 2 6.1191857647341532e+00 6.3581812475406689e+00 5.6089101820623455e+00 0 0 0
138 2 6.9765242617653787e+00 7.4684816828188092e+00 5.1257357753539132e+00 0 0 0
436 1 4.3898501654073705e+00 8.5103929571097261e+00 1.0341952393673500e+01 0 0 0
140 2 1.0164387168753155e+00 9.3847233182015728e+00 3.3785415017320481e+00 0 0 0
544 1 4.3613215502921303e+00 1.4928460746277763e+01 9.9876152123473290e+00 0 0 0
147 2 8.4637902688958686e+00 8.9394491455370773e+00 9.1226330304891878e-01 0 0 0
711 2 8.3030059322378413e+00 5.9328569306385939e+00 8.0991139082059882e-01 0 0 0
154 1 7.6898880572912258e+00 1.0811173763812269e+01 4.1362981677187562e+00 0 0 0
155 2 7.3186786977351872e+00 1.1088330678986768e+01 4.9635181168724776e+00 0 0 0
156 2 8.6319596620317505e+00 1.0755382148915297e+01 4.2331355859590989e+00 0 0 0
163 1 7.1095258351442689e+00 1.2789317111922847e+01 2.4804857592080469e+00 0 0 0
164 2 7.3502681749691341e+00 1.2150290981426927e+01 3.1803066860058271e+00 0 0 0
165 2 7.7128813532668401e+00 1.2453103700788816e+01 1.7964470673873041e+00 0 0 0
166 1 8.6918178215445412e+00 7.7796365928250673e+00 4.8946176292893311e+00 0 0 0
167 2 8.9096624477576629e+00 8.5294308688114224e+00 5.5952823969612266e+00 0 0 0
168 2 9.0693180255776706e+00 6.9660585597009437e+00 5.3407546584659258e+00 0 0 0
169 1 9.0778788832790394e+00 1.2358858459843580e+01 6.8823362651029516e+00 0 0 0
111 2 1.8992528679841056e+00 9.2724557817266380e+00 1.1469137099742248e+00 0 0 0
175 1 7.2416653123866466e+00 8.8631327480869846e+00 2.3068414924829317e+00 0 0 0
176 2 7.2619763608787915e+00 9.4155651401444178e+00 3.1132324838502075e+00 0 0 0
177 2 6.4698338003013331e+00 9.1772040374895170e+00 1.8023646498335211e+00 0 0 0
479 2 7.7132854212983037e+00 1.1413465668865717e+01 1.0065964163951701e+01 0 0 0
3 2 2.2939316648333614e+00 2.7966251818210508e+00 1.1533622516473887e+00 0 0 0
210 2 3.1654400230879221e-01 7.6105956705999054e+00 5.1750411284148754e+00 0 0 0
675 2 1.8261448154699220e+00 5.5822941171736371e+00 8.9356893501477352e-01 0 0 0
139 1 9.4138438479624931e-01 8.7793510218755877e+00 2.5848442299827363e+00 0 0 0
220 1 4.3202380411454078e+00 1.4745207205328812e+01 3.7013645560025514e+00 0 0 0
221 2 4.2986460727587916e+00 1.5703066774575463e+01 3.5018738208187772e+00 0 0 0
222 2 4.3661647595519133e+00 1.4379650128221083e+01 2.7512890689661922e+00 0 0 0
223 1 5.9773301452994634e+00 1.7924207574293867e+01 5.6718097098950055e+00 0 0 0
224 2 6.7335735023499339e+00 1.7782883241284786e+01 5.0699117285877806e+00 0 0 0
225 2 6.0889911922692646e+00 1.7246073789605049e+01 6.4571378447873817e+00 0 0 0
226 1 1.3270907623214812e+00 1.7589352472043569e+01 4.1650571849789522e+00 0 0 0
227 2 1.1566145778005694e+00 1.8267296680305776e+01 3.4373821184160773e+00 0 0 0
228 2 1.1099719571415929e+00 1.6709470098550209e+01 3.7738151219877087e+00 0 0 0
229 1 4.4344020607433192e+00 1.9112808920722141e+01 1.7889253991438374e+00 0 0 0
230 2 4.3160545795323353e+00 1.8465921447278511e+01 2.4525347159742075e+00 0 0 0
231 2 4.3541186013245747e+00 2.2324374133359209e-01 2.1740285435032476e+00 0 0 0
232 1 3.9778321430709442e+00 1.7436626265836885e+01 3.7351430901100602e+00 0 0 0
233 2 3.0388076778219002e+00 1.7542545589422499e+01 3.9543110887795612e+00 0 0 0
234 2 4.5347406170823579e+00 1.7682807142498923e+01 4.5386290558730904e+00 0 0 0
235 1 5.8371252337010571e-01 1.9342981634568854e+01 2.3165588364561596e+00 0 0 0
236 2 8.3650032753766390e-01 6.3034106161344705e-01 2.3237060234230822e+00 0 0 0
237 2 1.2071654640143041e+00 1.9044505452464776e+01 1.5760211755619691e+00 0 0 0
238 1 2.2872903655920744e+00 1.4422950399192505e+01 5.3013568112619751e+00 0 0 0
239 2 2.8420104178040888e+00 1.4567840343802789e+01 4.5205372588723947e+00 0 0 0
240 2 1.3641069541769817e+00 1.4268905434375030e+01 5.0393571536776731e+00 0 0 0
241 1 2.7102693221239793e+00 1.9122349318485504e+01 6.9386647854391663e+00 0 0 0
242 2 2.2495982612385026e+00 1.9630822244683436e+01 6.2346197101056209e+00 0 0 0
243 2 2.4652921908378538e+00 1.8189134184109662e+01 6.8682819143557605e+00 0 0 0
244 1 6.0236426280921078e+00 1.4157310289169379e+01 5.7764978036338830e+00 0 0 0
245 2 5.8663875075908853e+00 1.4791741569951194e+01 6.4776306867158970e+00 0 0 0
246 2 5.4262588050203746e+00 1.4474595030587427e+01 5.0269976709733184e+00 0 0 0
247 1 7.9523986970361549e-01 1.5037787594155347e+01 2.7645463717756624e+00 0 0 0
248 2 7.9736545158011729e-01 1.4042594240076875e+01 2.7734614019074364e+00 0 0 0
249 2 1.5068224149816745e+00 1.5211035749778564e+01 2.0993503031196559e+00 0 0 0
251 2 6.0191070374081042e+00 1.5833675467540823e+01 1.3538867894319790e+00 0 0 0
1 1 2.8603623377079646e+00 2.8686418171329144e+00 3.6570939432347016e-01 0 0 0
262 1 7.7708919904301172e+00 1.7767440271358268e+01 3.7914452878591409e+00 0 0 0
263 2 8.7416114865957972e+00 1.7649735791316900e+01 3.9226089636515882e+00 0 0 0
264 2 7.6433697777336747e+00 1.8457770125006849e+01 3.0323523658705716e+00 0 0 0
271 1 7.0834097507707678e+00 1.9537937679404983e+01 2.0943055001285682e+00 0 0 0
272 2 7.4281040142869452e+00 7.9776921630930464e-01 2.1697244502702735e+00 0 0 0
273 2 6.0988595394082461e+00 1.9429803259019899e+01 1.9421091677290134e+00 0 0 0
274 1 8.7284212376363310e+00 1.4191004993740227e+01 5.1766484201939793e+00 0 0 0
275 2 8.9892132255754262e+00 1.4786745925041055e+01 5.8799392282662684e+00 0 0 0
276 2 7.7643210592091148e+00 1.4139375232495825e+01 5.2373270800743246e+00 0 0 0
277 1 9.0292986004036582e+00 1.8424521016009955e+01 6.5649938912733976e+00 0 0 0
278 2 9.0971095310335972e+00 1.9169303359591385e+01 5.9083168286467878e+00 0 0 0
279 2 8.3703575234198819e+00 1.8668085310414398e+01 7.1594853835116981e+00 0 0 0
283 1 7.4284923022137912e+00 1.5454643037144592e+01 2.1700825809771422e+00 0 0 0
284 2 7.6333342685535683e+00 1.6197983980861860e+01 2.7689018896570525e+00 0 0 0
285 2 7.3294784509743414e+00 1.4633814113130356e+01 2.6558493907734388e+00 0 0 0
2 2 3.7855522556497347e+00 2.9079815845355839e+00 7.2836037832250144e-01 0 0 0
325 1 2.3700202981584435e+00 2.9668824837956880e+00 6.9615990631290607e+00 0 0 0
326 2 2.6238277987824992e+00 3.8081470261791313e+00 6.5255361802242735e+00 0 0 0
327 2 3.2251664419671817e+00 2.6067149380095973e+00 7.3404897769936097e+00 0 0 0
329 2 4.6593113065427572e+00 8.3029222850753581e-01 9.6119382740674446e+00 0 0 0
337 1 4.8086889279088343e+00 6.0885867317524642e+00 8.7484052579627392e+00 0 0 0
338 2 4.7909392610280532e+00 5.4992196623360048e+00 9.5659851676853656e+00 0 0 0
339 2 4.5522965329439042e+00 6.9397753562376163e+00 9.2097531491938991e+00 0 0 0
343 1 1.1385858225224452e+00 6.3065351975782296e+00 8.8536858625512540e+00 0 0 0
344 2 1.3183622906663734e+00 5.7042975406115541e+00 9.5663002514842930e+00 0 0 0
345 2 1.7338225020384859e+00 6.0236533224066662e+00 8.1310720716213876e+00 0 0 0
355 1 6.7413215066122667e-01 2.8822097348894964e+00 9.0693983796560538e+00 0 0 0
356 2 7.8444706662949626e-01 1.9016503103558944e+00 9.0332539312192814e+00 0 0 0
357 2 1.3563083745477744e+00 3.1380557261253403e+00 8.3382516343024236e+00 0 0 0
358 1 5.0393865567329534e+00 2.7041865724690135e+00 7.2481789931343510e+00 0 0 0
359 2 5.3800007750631513e+00 3.5934652817182489e+00 6.9412322401238642e+00 0 0 0
360 2 5.1701542151737439e+00 2.1016559095137000e+00 6.5077149213042178e+00 0 0 0
361 1 9.1579451096739675e+00 3.0546398339227294e+00 6.9682159173388660e+00 0 0 0
362 2 8.9970569451728313e+00 2.3911489622020636e+00 6.2496077331974993e+00 0 0 0
363 2 8.5412606219416212e+00 2.8067673018998902e+00 7.6784546102128646e+00 0 0 0
254 2 8.8218498371862442e+00 1.5577821238035439e+01 1.0729793370468745e+00 0 0 0
379 1 7.4535773621618731e+00 6.2008236929611149e+00 8.7217354269758864e+00 0 0 0
380 2 7.6202313249967935e+00 7.1366630071095827e+00 8.8754629988153226e+00 0 0 0
381 2 6.4983686323007097e+00 6.1907819430659350e+00 8.6526054131352534e+00 0 0 0
391 1 7.3809184719574654e+00 2.3641502628900972e+00 8.7877800895416982e+00 0 0 0
392 2 7.3407108655824809e+00 2.9010059949774161e+00 9.5906014267528477e+00 0 0 0
393 2 6.4961688611680666e+00 2.5576735785916420e+00 8.2861702717573191e+00 0 0 0
372 2 7.5546278371547810e+00 5.0814212265980485e+00 1.0066149535267325e+01 0 0 0
433 1 2.7463088599655556e+00 9.7271461150829044e+00 7.0436223357291290e+00 0 0 0
434 2 2.8201289066363371e+00 1.0737977077327237e+01 7.0378307973171079e+00 0 0 0
435 2 2.1108327673208183e+00 9.5818769623269606e+00 7.8066614176950084e+00 0 0 0
450 2 4.2719618170776306e+00 1.1512536961997364e+01 9.7566201301427977e+00 0 0 0
445 1 4.4418444121753513e+00 1.2635962788232771e+01 8.5932056639273657e+00 0 0 0
446 2 4.3703570031254184e+00 1.3507871718921907e+01 8.9759305839724597e+00 0 0 0
447 2 3.8726174223865915e+00 1.2593887326399436e+01 7.7930839755454722e+00 0 0 0
171 2 8.9265134277648635e+00 1.2971426117848896e+01 6.1535475770068544e+00 0 0 0
451 1 7.2868774429009575e-01 1.2711625126313780e+01 8.6062698995620508e+00 0 0 0
452 2 8.7417571183347231e-01 1.3644647566345229e+01 8.7772081459158464e+00 0 0 0
463 1 5.7210147890714058e-01 9.0928496616903534e+00 9.0196359479074424e+00 0 0 0
465 2 8.2590802569900568e-01 8.1713701552906723e+00 9.1646658199960545e+00 0 0 0
466 1 5.4992518093851883e+00 9.0825921340250826e+00 7.4028570181989233e+00 0 0 0
467 2 5.7039605232032065e+00 8.4435885067691139e+00 6.6949066376920499e+00 0 0 0
468 2 4.5303915386573133e+00 9.1864321490446734e+00 7.4571899769184187e+00 0 0 0
469 1 9.2261472362295240e+00 9.5717224196280366e+00 7.0364871946018024e+00 0 0 0
470 2 9.2206801207389333e+00 1.0576065848607485e+01 6.8148678350081200e+00 0 0 0
471 2 8.6008580150967600e+00 9.3222650255040413e+00 7.7880894681806652e+00 0 0 0
573 2 8.8180139714104178e-01 1.6072261437379161e+01 9.6208357327774401e+00 0 0 0
487 1 7.4077066538461933e+00 1.2452378008952383e+01 8.9213468965997418e+00 0 0 0
488 2 7.9677307195212146e+00 1.2296855326783781e+01 8.1161856238349408e+00 0 0 0
489 2 6.5198284910222899e+00 1.2433080637326116e+01 8.6714322943435143e+00 0 0 0
499 1 7.6103234953323842e+00 8.8761513989667193e+00 9.0098028428638806e+00 0 0 0
119 2 9.3063903281774751e-01 1.0970638658334405e+01 4.9908621237446065e+00 0 0 0
501 2 6.7688376622164963e+00 9.0495077428977488e+00 8.5514713909510132e+00 0 0 0
927 2 8.1162175651727360e+00 1.8740531599242487e+01 6.6781344954613542e-01 0 0 0
444 2 1.3020613331195059e+00 1.1619402195664879e+01 9.9661449285225494e+00 0 0 0
541 1 2.5679125969997503e+00 1.6159241703084643e+01 7.1207028150580323e+00 0 0 0
542 2 1.9128916428247644e+00 1.5813776680261663e+01 7.8308320981299078e+00 0 0 0
543 2 2.4260318760954225e+00 1.5490802407966646e+01 6.3760274563925581e+00 0 0 0
553 1 4.7164125875930116e+00 1.9248411454067071e+01 8.7061935785942719e+00 0 0 0
554 2 5.7026971447750645e+00 1.9204232887729475e+01 8.5070739795456873e+00 0 0 0
555 2 4.2173264038456066e+00 1.9223415239985734e+01 7.8513100912020022e+00 0 0 0
558 2 4.2572647078847670e+00 1.8128221369965065e+01 9.7157836288659407e+00 0 0 0
559 1 8.5008880190069991e-01 1.9692228251194173e+01 8.8524185349228031e+00 0 0 0
560 2 1.6318516132936201e+00 1.9546505050573870e+01 8.2485649175627280e+00 0 0 0
561 2 1.1334906360522572e+00 1.8974662549636825e+01 9.4928810673193311e+00 0 0 0
571 1 8.3109604676829774e-01 1.5351564680349744e+01 8.9211708914522543e+00 0 0 0
574 1 5.4639342506113806e+00 1.6042894575959487e+01 7.4835640483432888e+00 0 0 0
575 2 5.9131719390557169e+00 1.5722893960251511e+01 8.3136146539134490e+00 0 0 0
576 2 4.4966943702323690e+00 1.6076448979134923e+01 7.5005986710709225e+00 0 0 0
577 1 9.0922313793670728e+00 1.5796427533616500e+01 7.2538476868303956e+00 0 0 0
578 2 8.8387045361619592e+00 1.6693044182586732e+01 6.9604045221551631e+00 0 0 0
579 2 8.4069481265438331e+00 1.5469443988447123e+01 7.8821983788393277e+00 0 0 0
500 2 7.6182746724251862e+00 9.4843492595895302e+00 9.8291940510947029e+00 0 0 0
595 1 7.1999964916749120e+00 1.9271582048782506e+01 8.5386892520642892e+00 0 0 0
596 2 7.5781653886251377e+00 5.2373813550386294e-01 8.7192630569086926e+00 0 0 0
597 2 7.3012254675829737e+00 1.8803686165684368e+01 9.3392534488797914e+00 0 0 0
607 1 7.4113481283348213e+00 1.5081072372792978e+01 9.0438410521499062e+00 0 0 0
608 2 7.5604537959945972e+00 1.4092815343910390e+01 9.1367505968645926e+00 0 0 0
141 2 1.0579394271703713e-01 8.9454661937143847e+00 2.1016227988340299e+00 0 0 0
443 2 9.0656495514809310e-01 1.0224080995408229e+01 1.0250720857583120e+01 0 0 0
342 2 4.1575060426092634e+00 3.2100156151292172e+00 1.0371411686457023e+01 0 0 0
143 2 4.2358927379355835e+00 9.3095382541397740e+00 9.5865803182620424e-01 0 0 0
557 2 3.9260453972219844e+00 1.6681983048980740e+01 1.0053027784587979e+01 0 0 0
109 1 2.5536062183997505e+00 9.5832484693438111e+00 4.6075708685853645e-01 0 0 0
34 1 5.4186062215567601e+00 3.3477310345309017e+00 1.0965320004271795e+00 0 0 0
817 1 9.0226386538654086e+00 1.1837878998779930e+01 5.3104571312458049e-01 0 0 1
545 2 3.4683575577412626e+00 1.4760087083941304e+01 1.0330590871308964e+01 0 0 0
218 2 3.5386109668312113e+00 1.5646774308621668e+01 8.5529295775936132e-01 0 0 0
297 2 1.0406977392362254e-01 1.7949226823120348e+01 5.2680836166771954e+00 1 0 0
250 1 5.2250312588238605e+00 1.5936488402429577e+01 8.5325309737037180e-01 0 0 0
217 1 2.5459247397419187e+00 1.5842650698601691e+01 6.8114623856002110e-01 0 0 0
556 1 3.7624781939016398e+00 1.7571735493020217e+01 1.0391486148127852e+01 0 0 0
889 1 2.2982212361534589e+00 1.8516883102698145e+01 3.3274105515666352e-01 0 0 1
36 2 5.6461621515903611e+00 3.9504571846385086e+00 3.8936659367788312e-01 0 0 1
219 2 2.6103964181185884e+00 1.6793499158652669e+01 5.5971158083716288e-01 0 0 0
335 2 9.7248231690791087e-01 3.7749688343630385e+00 1.0236276595825252e+01 0 0 0
602 2 9.6802887554787098e+00 1.9262185699179525e+01 1.4006579184420884e+01 0 0 0
110 2 2.4393627141394538e+00 9.2369880374142035e+00 2.0052303983395355e+01 0 0 0
858 2 6.3303206721123240e-01 7.8313520072279257e+00 1.8712142359952345e+01 0 0 0
667 1 6.4475280972543536e-01 6.7466800550421890e+00 1.5567817058217104e+01 0 0 0
707 2 9.3105008983787414e+00 1.3200576138426721e+00 1.7920581718373015e+01 0 0 0
793 1 8.8281225855697834e+00 9.6866281216082353e+00 1.3830114054067799e+01 0 0 0
331 1 5.6643439844289318e+00 4.7485804581761242e+00 1.2609035995284756e+01 0 0 0
332 2 6.5269621278395427e+00 4.5863139139704323e+00 1.2219709481102161e+01 0 0 0
333 2 4.9713599810688143e+00 4.6435094471798610e+00 1.1888045811246927e+01 0 0 0
145 1 8.9115188209359264e+00 9.6186382409954838e+00 2.0427748434693910e+01 0 0 -1
710 2 8.7913871956051235e+00 5.0187929576310317e+00 2.0331091100294685e+01 0 0 0
334 1 1.3642188560207000e+00 4.5281555666702369e+00 1.0776466851389131e+01 0 0 0
346 1 2.2428641959101743e+00 1.2717927732247916e+00 1.1521038464046006e+01 0 0 0
347 2 2.9962381282060564e+00 1.1561310664166116e+00 1.0876567225784397e+01 0 0 0
348 2 2.3454725222368160e+00 2.0874254364290641e+00 1.2056260390974417e+01 0 0 0
349 1 2.6261939456043764e+00 6.1282662393858880e+00 1.3755510495334995e+01 0 0 0
350 2 2.4281509370945336e+00 6.8555853619609959e+00 1.3070275133667206e+01 0 0 0
351 2 2.4241661609062741e+00 5.2480826738554205e+00 1.3446363696493744e+01 0 0 0
352 1 5.9733753556582441e+00 8.6167400575316933e-01 1.2526475871761372e+01 0 0 0
353 2 6.8754094532225372e+00 1.0624494179005302e+00 1.2210757952018310e+01 0 0 0
354 2 5.5424977535371980e+00 1.9600725047430142e+01 1.2470196604072298e+01 0 0 0
330 2 4.9907587035518413e+00 1.4278274043949033e+00 1.1060730465514492e+01 0 0 0
382 1 8.5099759481342243e+00 1.1872493332874847e+00 1.1880689408593694e+01 0 0 0
383 2 8.6928329055727378e+00 4.3831852035082564e-01 1.2468364330403560e+01 0 0 0
341 2 3.1755200059190827e+00 4.3804301919321018e+00 1.0763200604508453e+01 0 0 0
385 1 9.1111187861085305e+00 5.5339019011155814e+00 1.3663159554575964e+01 0 0 0
386 2 8.9989156366456999e+00 4.5678285137136951e+00 1.3729668228068249e+01 0 0 0
387 2 8.4576119707770960e+00 5.8518174562023715e+00 1.4347833837027350e+01 0 0 0
253 1 9.3075863231654203e+00 1.6052015448763214e+01 2.0505337069267373e+01 0 0 -1
340 1 4.0809255059481657e+00 4.1885897324449095e+00 1.0575981028681117e+01 0 0 0
439 1 5.8331872587600468e+00 1.1532595381855383e+01 1.2495448327792895e+01 0 0 0
440 2 5.7415670883780203e+00 1.2485195501987768e+01 1.2598225352326576e+01 0 0 0
441 2 5.0685566699900795e+00 1.1279256905722949e+01 1.1986244984576405e+01 0 0 0
426 2 4.9822362118170360e-01 1.1058792603160859e+00 1.1665803769134889e+01 0 0 0
454 1 2.2202083314372545e+00 8.0964306526063368e+00 1.1972092465662580e+01 0 0 0
455 2 2.8143097818750435e+00 8.2402211357580484e+00 1.1199908107482779e+01 0 0 0
456 2 2.3322554013290033e+00 8.8862377839611497e+00 1.2578638437989044e+01 0 0 0
457 1 2.5965231289594723e+00 1.2801449918402618e+01 1.3595083968008767e+01 0 0 0
458 2 3.3844947206908738e+00 1.2800244138707548e+01 1.4163635511711444e+01 0 0 0
459 2 1.7554086966683078e+00 1.2778595403021265e+01 1.4098086940446455e+01 0 0 0
460 1 6.2138350197267807e+00 7.7001544000956654e+00 1.2260509368841740e+01 0 0 0
461 2 5.9627105150761031e+00 6.7516005306852325e+00 1.2473329880939943e+01 0 0 0
462 2 7.1975114119132044e+00 7.6602887272300197e+00 1.2068431900920498e+01 0 0 0
144 2 5.2584351380209533e+00 1.0425728935989602e+01 2.0470183506781609e+01 0 0 0
480 2 6.9781273228687164e+00 1.1133576060579335e+01 1.1406299286530588e+01 0 0 0
550 1 1.1100375475229156e+00 1.7384988490648585e+01 1.0470682440184380e+01 0 0 0
490 1 8.7736422903610976e+00 7.6263195375279142e+00 1.1899389043665359e+01 0 0 0
491 2 9.1576049260524623e+00 6.8702580361619709e+00 1.2372534632663687e+01 0 0 0
492 2 8.8522788028900941e+00 8.3768443221067859e+00 1.2594603357515334e+01 0 0 0
493 1 8.7633171494327389e+00 1.2268665802698544e+01 1.3479341943242376e+01 0 0 0
494 2 8.2001533701340232e+00 1.2550527742265047e+01 1.4216925959375049e+01 0 0 0
495 2 8.6833831232391532e+00 1.2946914365875893e+01 1.2789108595363800e+01 0 0 0
926 2 8.7916980096914585e+00 1.7791570949127742e+01 2.0413523462579317e+01 0 0 0
384 2 9.3831203367090321e+00 1.2146263400667934e+00 1.1280357915360160e+01 0 0 0
252 2 5.2625940541043947e+00 1.6955759640679648e+01 2.0398585458430851e+01 0 0 0
533 2 5.6505299006058840e-01 7.6282621899872503e+00 1.2130960136422479e+01 0 0 0
782 2 2.4688504644241025e+00 1.1557437550678877e+01 2.0284984824034240e+01 0 0 0
449 2 3.0704452666383495e+00 1.0898007613392677e+01 1.0629580381266566e+01 0 0 0
547 1 5.5511372692531777e+00 1.7973786442236726e+01 1.2344606576344441e+01 0 0 0
548 2 4.9015447524096469e+00 1.7716704266229510e+01 1.1655504158289895e+01 0 0 0
549 2 5.5666919632704674e+00 1.7301606121869199e+01 1.3061944923313524e+01 0 0 0
39 2 8.9966456662161125e+00 2.6783242849937876e+00 1.9890485531307867e+01 0 0 0
562 1 2.2352405933565342e+00 1.4320116882262340e+01 1.1538404582831857e+01 0 0 0
563 2 1.2561395676863056e+00 1.4374576584249978e+01 1.1578120443654706e+01 0 0 0
564 2 2.3602456860334189e+00 1.3594866761515956e+01 1.2281262447693233e+01 0 0 0
565 1 2.3857413079267804e+00 1.8857205332351917e+01 1.3089613170147484e+01 0 0 0
566 2 2.3497249167476242e+00 1.9597740135133634e+01 1.2437610625091294e+01 0 0 0
567 2 3.1840794566719923e+00 1.8999150485181186e+01 1.3660912485686634e+01 0 0 0
568 1 5.8811561529735599e+00 1.4175049146714507e+01 1.2130367067157691e+01 0 0 0
569 2 6.8256943517450175e+00 1.4319016831009137e+01 1.1932080987510821e+01 0 0 0
570 2 5.7205666715558534e+00 1.4858747100740883e+01 1.2768192401580263e+01 0 0 0
709 1 8.8031046474975856e+00 5.9735757473274056e+00 2.0390244926205131e+01 0 0 0
781 1 2.3982118765983702e+00 1.2591143376327111e+01 2.0330269862871216e+01 0 0 0
588 2 7.0232302262627853e+00 1.7430487411874402e+01 1.1313816651340860e+01 0 0 0
598 1 8.6292175566047948e+00 1.4327842059611209e+01 1.1900593837861541e+01 0 0 0
599 2 9.3038229623984137e+00 1.4457964740001866e+01 1.1197905189931054e+01 0 0 0
600 2 8.8637271011718095e+00 1.5082645081998587e+01 1.2484320756566202e+01 0 0 0
601 1 8.8256908405026948e+00 1.9028511673419441e+01 1.3625210707518821e+01 0 0 0
603 2 8.1987026441571622e+00 1.9231620567370072e+01 1.4376730254066471e+01 0 0 0
336 2 8.5282037273400657e-01 4.7328018427400984e+00 1.1586630877846140e+01 0 0 0
552 2 2.1430322881822841e+00 1.7517202528462605e+01 1.0521085698633408e+01 0 0 0
649 1 2.3827210590299512e+00 3.4308799723377783e+00 1.3462810966443254e+01 0 0 0
650 2 3.1534850754022190e+00 2.9210519998342344e+00 1.3604734234887466e+01 0 0 0
651 2 1.8374650895534903e+00 3.0880700062696653e+00 1.4245803015171695e+01 0 0 0
652 1 4.0586547883127366e+00 1.4476701343922576e+00 1.6994257095308143e+01 0 0 0
653 2 3.9627891704671332e+00 2.4159789614660512e+00 1.6853305633425443e+01 0 0 0
654 2 4.6974163726796538e+00 1.3767916483705780e+00 1.7735515754631322e+01 0 0 0
655 1 5.7045943532389591e+00 5.1292703014815100e+00 1.9120141945700514e+01 0 0 0
656 2 5.6562088309203142e+00 6.1100030092851245e+00 1.9125627939196217e+01 0 0 0
657 2 6.6158452800440894e+00 4.9374759351214603e+00 1.8664879443879236e+01 0 0 0
658 1 1.2812868761436149e+00 4.8068906555736044e+00 1.7578097414912261e+01 0 0 0
659 2 1.1242686433711202e+00 4.0091628472922176e+00 1.6974772104311047e+01 0 0 0
660 2 9.5216453993316674e-01 5.6114278271628057e+00 1.7152702173248432e+01 0 0 0
661 1 4.7258940580371540e+00 6.2377659764803584e+00 1.5332878468646532e+01 0 0 0
662 2 4.7520550312932555e+00 5.3319598947608533e+00 1.5712981856329405e+01 0 0 0
663 2 3.9678599545418041e+00 6.1726244600072304e+00 1.4708162112271484e+01 0 0 0
664 1 4.1513621366562203e+00 4.2154633468182672e+00 1.7108186887733932e+01 0 0 0
665 2 3.2656916938228511e+00 4.5359992034031222e+00 1.7268880342311508e+01 0 0 0
666 2 4.6900264628498700e+00 4.4851865417157484e+00 1.7882947301236577e+01 0 0 0
478 1 7.6316212121413480e+00 1.0772408731789469e+01 1.0800747600525947e+01 0 0 0
668 2 6.3027745741157770e-01 7.6824088033980171e+00 1.5944180202220279e+01 0 0 0
669 2 1.4826082031762302e+00 6.6413768048398927e+00 1.5014078453859076e+01 0 0 0
670 1 1.8436324985622172e+00 1.2140905991038486e+00 1.8817031069650966e+01 0 0 0
671 2 2.3037291599841887e+00 1.8655195274332879e+00 1.9453104717540846e+01 0 0 0
672 2 2.3144478069610264e+00 1.2922304512611840e+00 1.7954817043369950e+01 0 0 0
676 1 5.8393725952633320e+00 1.4485773445482439e+00 1.9167050884264906e+01 0 0 0
677 2 5.6382886880333762e+00 2.2254063981081558e+00 1.9739872209349794e+01 0 0 0
678 2 6.7804713725166144e+00 1.5428531239700156e+00 1.8883248509061247e+01 0 0 0
679 1 8.2969883896926599e-01 2.6515772988272510e+00 1.5779365304218057e+01 0 0 0
371 2 8.5405478660468894e+00 4.3893167750329365e+00 1.0860606802874717e+01 0 0 0
681 2 1.1724735149829075e+00 1.7572966052772558e+00 1.5792150063454963e+01 0 0 0
682 1 5.0085531462066468e+00 2.5323313443581945e+00 1.4149742734677247e+01 0 0 0
683 2 5.2996427367808296e+00 3.3286951643791127e+00 1.3633903708993140e+01 0 0 0
684 2 5.4097399287475971e+00 1.7921840221611369e+00 1.3647867631797389e+01 0 0 0
685 1 8.9314548039921533e+00 2.8211260845581836e+00 1.3940583926107260e+01 0 0 0
687 2 8.6627919986456181e+00 2.3808008060907802e+00 1.3077351976505359e+01 0 0 0
694 1 7.8786194485312047e+00 4.5277859643843374e+00 1.7728780087814307e+01 0 0 0
695 2 8.9132496558572196e+00 4.4186584965516262e+00 1.7602324444384088e+01 0 0 0
696 2 7.5713242535849661e+00 3.7204470180008089e+00 1.7172538115976195e+01 0 0 0
703 1 7.3940835276008228e+00 6.4406421693500890e+00 1.5676588907257957e+01 0 0 0
704 2 7.6157511052745646e+00 5.8545034424711107e+00 1.6439823340106013e+01 0 0 0
705 2 6.3940629297516969e+00 6.3509253034840123e+00 1.5467832848806944e+01 0 0 0
706 1 8.6402078468686447e+00 1.3322089869967166e+00 1.8634388629036341e+01 0 0 0