LAMMPS data file via write_data, version 8 Apr 2021, timestep = 0

768 atoms
2 atom types

-1.0390340524098267 30.982380995864307 xlo xhi
0 14.134842002637676 ylo yhi
0 13.518941450592878 zlo zhi
5.101700940395695 5.064044402573 3.551642857848283 xy xz yz

Masses

1 16
2 2

Atoms # atomic

161 2 15.837444924880026 3.457584734554231 11.835214965773778 0 0 0
167 2 18.36743248430865 9.96522635292787 12.067358339292294 0 0 0
295 1 5.347177604327297 3.7561860327792065 5.097367764900394 0 1 -1
297 2 5.361861156728831 3.74367947718149 4.101359366481363 0 1 -1
164 2 15.66248390515389 7.99201067020433 4.724151971200384 0 0 0
220 1 6.458813171350015 5.0570045090430575 2.512273026111549 0 -1 0
371 2 6.752970362928066 1.9966499505999318 4.760149445394235 0 1 1
25 1 2.039823456771781 4.884440063021424 1.0762192266870603 0 0 0
352 1 7.774283697271278 4.313360854682996 6.341759587628018 0 0 1
150 2 9.11293914591153 6.377706771963165 1.6709536214304046 0 0 1
298 1 13.915929772738803 8.500418709049011 11.278248423994544 0 1 0
1 1 4.591312477897407 11.65808971196785 1.5124842014493698 0 0 -1
60 2 10.867273809652268 15.43019141963423 8.207756443736788 0 0 0
148 1 8.305742731324921 6.8142995634596994 2.0108280763798674 0 0 1
53 2 6.747522272364787 9.248089066955455 8.132829941522184 0 2 0
105 2 11.701106029223494 3.741730027187131 8.02439459861286 0 0 -1
39 2 18.865884312006223 7.428686529994753 6.793256419416552 0 0 0
125 2 2.0256477043033727 6.840628304499 0.46652735637797643 0 -1 1
162 2 17.339224116447546 3.63154560149563 12.375897278408742 0 0 0
107 2 9.507110862273576 9.540437345905966 10.954909322173359 0 1 -1
58 1 10.207714839128533 15.878735859155231 7.5896045315504885 0 0 0
59 2 5.014160367003994 2.6487424651700415 7.934090139173626 0 1 0
149 2 8.145396541126527 7.608191968109158 1.4912905761049013 0 0 1
50 2 12.384953971796024 6.814217181519056 2.252347675897051 0 0 -1
212 2 19.000654025926423 9.789212718050676 3.3551015030792084 0 0 0
206 2 16.44420673908546 2.4931851544683594 3.251762507884318 0 0 0
244 1 8.82847551214797 8.007389408831232 4.650986829694835 0 0 0
218 2 7.763834782260231 6.493803749167657 12.015983646897759 0 0 -1
351 2 13.39689848039515 4.911777901449727 2.187021802636702 0 0 0
47 2 24.003316021351964 16.322733268650623 12.367953315302461 0 0 0
723 2 18.183168678104515 6.482682847396901 3.4917213004619363 0 0 0
170 2 3.8310617611652065 4.361303832697819 5.566627418861054 0 -1 0
353 2 8.5032193225636 4.397413653932878 5.671719046041056 0 0 1
219 2 8.688316842166897 6.437172090633975 13.25333514320801 0 0 -1
61 1 7.628005395086374 2.87486688380645 3.5773823062949472 0 0 0
315 2 5.25911746665409 8.103618858511146 3.92565446922085 0 0 0
92 2 3.592863445651867 6.727414373990236 2.87507205250924 0 0 0
324 2 2.301890181160943 0.9677040550998289 0.21640220883775127 0 1 -1
65 2 13.184201575574292 5.386311070363625 9.530089130122917 0 0 0
233 2 15.135019996367719 3.3815517670771134 8.19487636925776 0 0 0
217 1 7.7467260619279 6.24266212650743 12.966859423581134 0 0 -1
257 2 17.043508608534978 6.60856991249595 7.718594393254734 0 0 0
38 2 18.16706527516201 8.41775978699987 5.899601423939939 0 0 0
94 1 14.17037701470804 6.951197749272233 4.643155778840772 0 0 0
465 2 18.238522661185883 8.480249166715094 1.7866507495537212 0 0 0
74 2 0.36312199106874354 0.2841504758332156 0.7241715071668496 0 0 0
372 2 6.145234971543332 1.8314846041662738 6.248403738349142 0 1 1
274 1 3.7277554058617355 1.2900939550108443 4.3592369984516415 0 0 1
140 2 6.160513438061091 8.129084329105794 6.324128339590394 0 -1 1
11 2 4.10128243434865 7.0651633893268 7.233201453128979 0 1 0
63 2 8.616875176966364 3.0465565083011446 3.6219538994914973 0 0 0
179 2 6.473863078169709 11.470574544732585 8.889138604828485 0 -1 1
222 2 7.174730181829151 5.661622108137124 2.1799094087610333 0 -1 0
64 1 12.574838975619626 5.531088397566584 8.81105125882483 0 0 0
111 2 6.633583271851167 0.7378280162734012 1.3593733311903202 0 0 1
13 1 14.137610481487277 4.663746658876995 6.432790894242851 0 0 0
62 2 7.295868776085365 3.6871795444150277 3.0611871814125347 0 0 0
332 2 10.551960873138297 4.579772638010819 1.5993114469079712 0 0 0
275 2 3.7757514219067767 2.120595933909769 3.846968313205511 0 0 1
250 1 8.68657992647365 2.9035700694695725 8.438933522694152 0 1 0
368 2 9.068738261057364 7.697749231679983 10.147987124466196 0 1 -1
54 2 7.612354036287062 9.608354356356864 9.405389207075343 0 2 0
349 1 12.668782580088243 5.245028188851903 2.7264108516643124 0 0 0
81 2 3.034545571370539 3.965552715711382 2.3207124480443686 0 0 -1
85 1 5.17446578554134 3.314356666209658 0.35162120551887915 0 -1 1
302 2 14.60348904843319 5.670634168328948 11.408655269468923 0 0 -1
301 1 14.435348424861825 5.620418142816889 10.39794137928932 0 0 -1
103 1 11.590352013205573 3.0210428525000883 7.4145301410725715 0 0 -1
6 2 11.11794636598232 2.22097128492867 2.878098896523403 0 -1 0
303 2 15.008163208367515 4.900321690034683 10.1428201467254 0 0 -1
305 2 15.904708216356704 8.617249945058022 8.518289636156348 0 0 0
239 2 18.34503750086092 9.29721101865169 9.081613131889771 0 0 0
374 2 3.705172427496964 9.59922400984669 4.155851386332917 0 1 0
333 2 10.658130711256335 5.311266757603233 0.29673467711547413 0 0 0
346 1 7.003102018546718 6.100642805079809 8.31811612456737 0 1 0
110 2 7.796323296127207 1.5439817574356627 0.4836609415310159 0 0 1
331 1 10.000127120003485 5.010173506299376 0.9596370949233894 0 0 0
9 2 10.39976455885765 4.083022715643036 10.403214991593423 0 0 -1
4 1 10.372184215383266 2.7978239361633896 2.823071047651331 0 -1 0
8 2 9.565745893455013 5.398877588455085 10.01931679932164 0 0 -1
5 2 10.646924208773079 3.515930337305264 3.4236721304787463 0 -1 0
7 1 10.16531316802012 4.671826018362027 9.675128258877361 0 0 -1
377 2 16.570500387332615 8.719355009405467 11.828640744651693 0 0 0
112 1 14.39008757359426 5.946699073777259 13.128040402632974 0 0 0
304 1 15.58665344188619 7.804283902807542 8.186821328423115 0 0 0
367 1 8.671295451893597 6.81647392385099 10.267229591831466 0 1 -1
350 2 12.858334959191563 5.30625701303515 3.6731368259958512 0 0 0
113 2 10.101924116897418 1.9259242350891106 0.013385471931979717 0 0 1
376 1 16.756715489114953 9.432739668933202 12.448450545660291 0 0 0
114 2 9.421362621811864 3.3261464807144043 0.02218267916353269 0 0 1
66 2 11.667847957396312 5.327180968052959 9.12243874812099 0 0 0
14 2 13.956266742558679 3.787835640696896 5.987027627086712 0 0 0
296 2 6.28050827068446 3.811733930459365 5.337779156459936 0 1 -1
369 2 7.926684743847124 6.685071545064951 9.622293863837866 0 1 -1
280 1 19.60581340628105 7.741625498238375 9.755668124975884 0 0 0
109 1 6.83219728137479 1.271522866479413 0.5468924394332842 0 0 1
87 2 5.91580700237804 2.636026624641918 0.2942718048393915 0 -1 1
184 1 18.838210053229318 6.1436600323060135 12.687502056393681 0 0 0
277 1 16.594204490167996 6.143788730623882 2.9297080540987235 0 0 0
93 2 5.083691587293381 6.09352074908419 2.9463423115521445 0 0 0
15 2 13.51020953232798 4.698809847720506 7.182353208487099 0 0 0
299 2 14.376073085445395 9.151477218463231 10.672264087328266 0 1 0
242 2 9.361749474509326 12.666106408423945 13.242844725641564 0 1 0
160 1 16.60813309820366 3.9924465665529993 11.773176359586492 0 0 0
17 2 16.44176481213956 6.518478013389671 10.494897393798889 0 0 0
37 1 19.006028143878083 8.333941147752117 6.372401251604787 0 0 0
18 2 17.696312942714655 7.321242386264147 10.113004229912052 0 0 0
231 2 13.166201242854212 1.3588304660035957 0.9700381175430235 0 0 0
104 2 12.05444852383797 2.3576020719350237 7.932373746610514 0 0 -1
205 1 15.578499496228135 2.464894648358495 2.764236088972941 0 0 0
210 2 17.451471418710753 4.296752645515562 10.40470192926325 0 0 0
186 2 18.185487940528517 6.267657891867169 11.98192373596306 0 0 0
232 1 15.219214380706918 2.8622691401858327 9.006097712532567 0 0 0
354 2 7.747055817158218 5.194722738506929 6.823694381412423 0 0 1
52 1 6.747267820876774 9.725747101562982 8.980052199176022 0 2 0
183 2 17.18157389253996 5.335058271611744 6.050946666987132 0 0 0
40 1 21.425036682619762 9.734220177186087 13.124912483546225 0 0 0
207 2 15.451574164527988 3.320955973504173 2.348789756439023 0 0 0
208 1 18.12655484086781 4.229162313440025 9.653849916144889 0 0 0
279 2 16.036432117617167 6.942952421301278 2.7262674395780615 0 0 0
254 2 15.23843457365878 5.0514070426318955 0.6931739719930761 0 0 0
181 1 16.69625688689458 4.692553356778497 5.547335764264318 0 0 0
182 2 15.891795521565507 4.484554649100696 6.051186597820406 0 0 0
256 1 17.811081731710097 6.063214504688996 7.417479178998822 0 0 0
255 2 14.3212694577748 3.873407840906617 0.34389814282524594 0 0 0
253 1 14.749896945228162 4.309034275483817 1.0922051244936255 0 0 0
157 1 13.980173115031057 2.214079535954437 4.934328981330436 0 0 0
185 2 19.595257160526153 5.78799868829644 12.148909265996616 0 0 0
278 2 16.0654163709274 5.72373871927922 3.6056358794716785 0 0 0
159 2 14.446598755837494 2.221731120264188 4.084108283255801 0 0 0
16 1 17.211262905111163 6.954500568602718 10.861709643222408 0 0 0
258 2 17.903454005102667 5.3413082268412175 8.146501315713872 0 0 0
370 1 11.860423376473674 15.575660020389183 5.582140974055817 0 0 1
80 2 4.233053010519156 3.086991860451423 1.8372790727627477 0 0 -1
306 2 14.591226445896897 7.798221061187688 8.077148542733804 0 0 0
79 1 3.7444159922950435 3.416137576751538 2.6366638889179312 0 0 -1
246 2 8.549042139610632 7.671736642222178 3.808190052406215 0 0 0
108 2 9.978465530334082 9.681261817520687 9.503802683468466 0 1 -1
300 2 14.0703936334511 7.61540193316184 10.945435465839957 0 1 0
221 2 5.9513852588234695 4.704122499839436 1.7503546897445605 0 -1 0
348 2 6.665970025578961 6.896241520651893 7.911279871783733 0 1 0
251 2 9.351887859686299 3.587933881016404 8.745989386841076 0 1 0
139 1 5.723142994163376 8.113086775491544 7.238795333226668 0 -1 1
276 2 9.13419239796939 15.498316747450094 5.271814435904404 0 -1 1
313 1 5.495554713969674 8.869689274801964 4.475551444775884 0 0 0
252 2 8.366177066706294 3.3593666554840134 7.645662781972803 0 1 0
91 1 4.556266444714141 6.888028988468366 2.8305242235134447 0 0 0
195 2 11.03458239624294 5.231847099177663 5.007325344230433 0 0 0
229 1 12.738459015339608 1.017875807865667 1.7701560240409033 0 0 0
194 2 11.225400974502687 3.9165194366241396 5.840643845832199 0 0 0
193 1 10.751816516976731 4.336113021578018 5.087864828963237 0 0 0
141 2 5.103110957162309 8.87731935204226 7.187407410579184 0 -1 1
234 2 14.391445011434213 2.401270124261792 8.93778783099177 0 0 0
96 2 14.221042767333506 6.3151873042438345 5.401619025056382 0 0 0
34 1 10.962729136573063 3.4286459213167673 11.955214778446555 0 1 0
380 2 15.953378354523414 15.482449203589399 5.441464126374849 0 0 0
158 2 13.095827250767147 1.7795383641267182 5.022912716044357 0 0 0
174 2 6.848757423154007 10.784058508053917 5.667083948759329 0 -1 1
35 2 11.38402731703197 3.9619017687545024 12.702832063164212 0 1 0
267 2 9.47832507348511 1.9259578049319996 6.871948587695438 0 0 0
266 2 8.519993536948833 1.5491214444555748 5.863315540930926 0 0 0
249 2 4.81563061108022 11.00686974177275 6.195131222028124 0 0 0
86 2 10.574145395673531 7.633897373766964 13.316646241178164 0 -1 0
226 1 12.821886956903224 11.030955909200534 4.7711355711588865 0 0 1
77 2 10.54672241659832 7.61207523104921 5.179380058075926 0 0 0
227 2 12.040726722168648 10.612455323026753 4.36473105706894 0 0 1
82 1 11.242625490955684 10.026513590804779 8.501469909697965 0 -1 -1
166 1 19.126107062812103 10.55234631904593 11.91383246110229 0 0 0
228 2 12.369475754015822 11.886843290400035 5.0151026103109135 0 0 1
330 2 10.728994478097668 10.17755890951859 2.615845196365762 0 0 1
172 1 7.708978458927913 10.321757304808196 5.504797693281797 0 -1 1
101 2 5.320586512738883 8.477147191398673 9.895690204813578 0 0 0
120 2 18.431698795285037 13.72036112298652 13.284257921486583 0 0 0
176 2 9.336017093945378 16.163195716850318 11.056546164848314 0 -1 -1
294 2 9.66203307763408 11.53416079221387 10.164397228187232 0 0 1
270 2 11.377775970707013 15.857373423689697 10.164081246087965 0 0 -1
118 1 18.044701613934265 12.838551926282303 13.082697358898585 0 0 0
322 1 7.134833091668067 14.234301729312824 0.5123529088234896 0 0 -1
238 1 17.633651175416915 9.808818068910533 8.716494351407825 0 0 0
132 2 12.368333001730461 8.603724587026539 8.075848476962097 0 0 1
196 1 13.367807590229791 11.737840624482129 0.6014393566733128 0 -1 0
83 2 11.997345463736654 10.555994168977016 8.931552567971362 0 -1 -1
290 2 7.187657453517938 9.586931700589016 0.6267136304948114 0 0 0
334 1 16.079019847913507 13.139202613898421 7.062767603341312 0 0 0
285 2 19.03891148719044 13.852863443544074 2.3539420306600967 0 0 0
155 2 6.943791487797399 12.353147042430107 11.953736925838353 0 0 0
147 2 12.314645922980322 13.868459433833467 8.96673986491278 0 -1 1
364 1 6.779530406438182 10.3791140020404 2.287918901181307 0 0 1
320 2 9.22162459718926 12.352436343899267 7.313023232061287 0 0 0
344 2 11.765661568859556 14.013683730257037 5.89049764976672 0 0 0
45 2 21.546922878264233 14.957799429005552 5.599799625417582 0 0 0
169 1 2.926841017343436 4.708662626571088 5.83251755645998 0 -1 0
106 1 9.148763145668884 9.64465358643457 10.05145589205193 0 1 -1
209 2 17.884029163366698 3.464527641321277 9.091515042064083 0 0 0
56 2 13.708067887960118 14.557572717679353 11.960673205549805 0 0 -1
168 2 18.795656320600237 11.368695277503855 12.327231145293686 0 0 0
245 2 8.26090791988676 8.792269493084307 4.793132004845705 0 0 0
145 1 12.091427909448994 12.896686001147236 8.90501420695158 0 -1 1
57 2 13.836407262377508 13.687436144072267 10.744867016612243 0 0 -1
328 1 11.04054009182114 9.452843715050152 3.267200083054012 0 0 1
199 1 8.740927564174907 11.799395437164705 3.3889753084856453 0 0 1
28 1 10.91222220618197 11.617612571917274 1.4981418388157663 0 0 1
336 2 16.390790993083932 13.902314666600839 6.59205745487683 0 0 0
366 2 7.421686685875525 10.911652878468303 2.8318162069425297 0 0 1
287 2 21.324864297694724 15.703561867939158 9.039899883326095 0 0 0
224 2 12.049229497646264 13.878886886469983 3.1979942459648267 0 0 0
55 1 13.720848148654634 13.581429717251417 11.723297055053099 0 0 -1
216 2 20.361840417574903 11.995195136804844 9.369121372823715 0 0 0
329 2 10.216668684832358 9.222943403702898 3.767705962894419 0 0 1
33 2 11.938618615066686 8.672535652998507 11.879616972976258 0 0 1
312 2 17.72432674950791 14.782917955368607 9.688442416234357 0 0 0
335 2 16.681534311070266 12.93905556798391 7.8098554563194105 0 0 0
97 1 13.638584138048678 14.234197567626723 3.1789350288044838 0 -2 0
268 1 11.989320638264383 15.379433659905603 9.586348593663562 0 0 -1
98 2 14.287983285376654 14.075713127680975 2.4351789775294703 0 -2 0
310 1 18.151009956988666 15.239339054828202 8.903752792929282 0 0 0
273 2 14.447989229433421 15.20492428506366 9.018991150593255 0 -1 0
197 2 13.919993867124157 11.606208822994882 1.3943210339686167 0 -1 0
241 1 9.083845040842405 13.449172918133767 12.83093321320049 0 1 0
345 2 12.196118420891667 12.956657834848729 7.066435959318935 0 0 0
319 1 9.695392679689071 11.691693404118155 6.789615345807822 0 0 0
272 2 15.163560367611405 14.118596654306671 8.155346176282972 0 -1 0
264 2 19.485023223284358 12.619132611985142 7.138585517743832 0 0 0
142 1 15.56301217714167 11.394506790224337 11.07929848825504 0 0 0
263 2 20.458184111046677 13.784491973315237 7.262451172583968 0 0 0
121 1 7.388350516050965 13.926230176843541 3.0619725230003554 0 0 -1
269 2 12.643886574479529 15.98937715355606 9.119069850145125 0 0 -1
341 2 4.712439535177962 4.229260127972369 9.61118200641279 0 0 0
215 2 20.02770742774385 10.873204727539754 10.299332543598805 0 0 0
271 1 14.735538199122432 14.31254290496378 9.05021541674475 0 -1 0
262 1 19.776977291446926 13.287347567821106 7.782366647225536 0 0 0
342 2 4.358822381833604 5.123661260614721 8.374111779158246 0 0 0
192 2 16.59291992845899 10.42475951964651 0.006405264507366358 0 0 1
214 1 20.61651872457866 11.109403876260668 9.608085383353338 0 0 0
240 2 17.919686457556146 9.963371571877259 7.790028713422291 0 0 0
321 2 10.35194605101443 12.191833828698178 6.298410707949244 0 0 0
343 1 11.828285836378779 13.099702746340537 6.189025878548388 0 0 0
153 2 14.747269603863293 16.56508217830823 12.57877304984506 0 -1 -1
44 2 20.261230095037746 15.699312413980541 5.955770087217919 0 0 0
291 2 12.870160113653947 12.797819970904339 12.75705251431953 0 0 -1
173 2 8.39886183193699 10.776147415759873 6.065267938179355 0 -1 1
51 2 11.960282865546594 8.290814557952018 2.489180891178456 0 0 -1
200 2 8.632905182327976 11.546131820395962 4.350309881615476 0 0 1
88 1 13.72921090859583 10.814107048057094 9.100217108481218 0 0 0
198 2 12.43912376924867 11.656515885256775 0.9378176896957808 0 -1 0
84 2 10.895118482575436 10.604328132083129 7.77754530207552 0 -1 -1
152 2 13.563013348628171 16.488066237885633 13.492910977234276 0 -1 -1
311 2 18.565267598162855 14.58677584857534 8.35680413135739 0 0 0
359 2 17.004770555772815 13.999201564575785 11.789174412351294 0 0 0
265 1 9.411354518376095 1.894519811644776 5.8929558229025 0 0 0
31 1 11.032129389446139 8.850919455669079 12.237863967547133 0 0 1
72 2 17.629029234626756 11.623872733516514 9.131076111550966 0 0 0
42 2 20.720094923733882 10.249297204391196 12.55483452913025 0 0 0
177 2 10.334160155967128 16.96828357315953 11.913970745953632 0 -1 -1
190 1 21.338706964644466 13.22287747135862 12.948378670681675 0 0 0
223 1 11.190731299744732 14.013855755733651 2.689039866244943 0 0 0
191 2 22.06532231194806 12.520353537101222 12.994062600321074 0 0 0
382 1 19.546360999270973 16.653166611494633 11.950478318773968 0 0 0
19 1 17.17130069430565 12.557722854085457 4.311865228380592 0 0 0
20 2 17.967857499360953 12.754806444441435 3.803390661863137 0 0 0
21 2 16.589681906577752 12.066752096224514 3.72982726555886 0 0 0
379 1 16.851854878283547 15.071446890452123 5.3288414619823055 0 0 0
43 1 21.092769821186593 15.431307056802476 6.356153348054691 0 0 0
381 2 16.782506396699866 14.375032889795833 4.637613735732272 0 0 0
67 1 14.816007120507736 11.158800093278375 2.916061752864264 0 0 0
68 2 14.095243400839227 11.180825069372949 3.5840643232049074 0 0 0
69 2 15.086060069189328 10.26557385601349 2.8304980037279535 0 0 0
119 2 13.024842291056542 8.776932463385391 0.36088048082467794 0 0 1
146 2 12.932388819464787 12.402166158261757 9.098770333786593 0 -1 1
360 2 15.827681096819477 14.384819736835185 10.859334121492148 0 0 0
115 1 15.01815666799641 10.752815293329093 6.64852212492338 0 0 0
116 2 14.326608777878581 10.917537135109347 5.925619790896938 0 0 0
365 2 5.987621039888598 10.92903333228944 2.1819746514397953 0 0 1
136 1 5.389149902595387 7.464714772435525 0.29136523892407584 0 0 1
144 2 15.17033512867017 11.989054880609254 11.732299559446764 0 0 0
383 2 19.602121597669786 15.911804200747396 11.314508547445211 0 0 0
163 1 16.461392714723722 8.535311138250472 4.970372706639056 0 0 0
286 1 21.697172451775984 14.90854061291057 9.414577557553539 0 0 0
165 2 16.05899227949905 9.274977136455226 5.474663928628559 0 0 0
187 1 18.392134167538963 11.160936672113442 6.307771909821702 0 0 0
188 2 18.97385243740147 10.715991075592541 5.6462317614210535 0 0 0
189 2 17.859564377003302 11.780899521787514 5.827240536052906 0 0 0
30 2 10.189743375572801 11.817753730190764 0.8210761178343755 0 0 1
211 1 18.089145019730836 9.65648766549328 2.9329629711951095 0 0 0
213 2 17.539573815746643 9.266905913266385 3.594173191473487 0 0 0
235 1 15.136101982068249 8.317615841046083 1.8537021471069464 0 0 0
236 2 15.286979357893747 8.811359925009402 1.0444114892701015 0 0 0
78 2 11.63406969609562 7.393893435529373 6.25653019214695 0 0 0
260 2 18.009219946248237 12.25077600489177 0.7200523696653364 0 0 0
12 2 3.1724346564156454 5.9065757011881 6.932387771423941 0 1 0
259 1 17.260873443590043 11.741284457034054 1.1149125542469867 0 0 0
117 2 15.469249162048468 11.59415682711792 6.630505417439698 0 0 0
261 2 17.658954834598475 11.179325864314665 1.8197413785449195 0 0 0
283 1 19.422076325130412 13.141726422596141 2.9447565404365776 0 0 0
347 2 6.283865486804251 5.455878528970703 8.25358856638488 0 1 0
461 2 17.45829845210801 2.1635653200057097 7.186830663628002 0 0 0
307 1 15.64735845060938 13.727927120978523 1.3368433455785864 0 0 0
89 2 14.317251024143022 10.92868306496956 9.832324566687692 0 0 0
309 2 16.138218359620787 12.856368126035013 1.3154284187226815 0 0 0
29 2 10.636782754114822 12.243685023180998 2.1668685634970473 0 0 1
49 1 12.510726583285674 7.756239305595978 1.9029772973421706 0 0 -1
175 1 10.206538468340177 16.496444841492963 11.057111914297193 0 -1 -1
326 2 8.80360917435854 14.638015423718986 7.896386130303094 0 0 -1
358 1 16.630166580412833 14.711764491603864 11.257419571140197 0 0 0
289 1 7.532091657041379 8.802714909278167 0.08914510702141618 0 0 0
22 1 19.726086273588493 13.600113141567757 10.796254235092398 0 0 0
23 2 20.402859911613525 13.930919180862382 10.134879144893137 0 0 0
24 2 20.24710004985078 13.385732657261523 11.580715316082065 0 0 0
143 2 16.21229256536609 11.940654553617653 10.570013834678221 0 0 0
46 1 23.748924562898083 16.90529104133504 13.077645319773643 0 0 0
70 1 17.490728729674387 12.496344036687919 9.508138584490908 0 0 0
71 2 18.30148464824957 12.729354376410164 10.039038690408852 0 0 0
325 1 8.446143385287803 13.783025731490769 8.214580543590197 0 0 -1
130 1 12.675178321035048 7.821980610601915 7.607654075575809 0 0 1
151 1 14.137718053990914 15.873984531279776 13.02768956085113 0 -1 -1
201 2 8.319595866457442 12.695617721067416 3.397215686065722 0 0 1
323 2 7.261244064410388 14.16919068844944 1.4961007632318375 0 0 -1
131 2 12.444944334605385 6.970491169899656 8.087899787767826 0 0 1
76 1 11.344828516534788 7.1065239902437325 5.380491352961021 0 0 0
327 2 8.834667615894807 13.627254094866876 9.08299834505412 0 0 -1
32 2 11.03361500951994 9.663035206941498 12.813554470894104 0 0 1
293 2 10.599416241517709 12.719789188264254 9.893595750087066 0 0 1
243 2 9.33073427810165 13.279506456688969 11.923568649355985 0 1 0
230 2 11.921666361745626 0.5110025524590688 1.5071030253823503 0 0 0
99 2 13.842629153186403 15.047785053010989 3.6233613009254215 0 -2 0
384 2 19.02349079494791 16.259284474435365 12.719282635076 0 0 0
282 2 20.021940301060802 7.340090694847947 8.987807194151014 0 0 0
122 2 6.5732624239735715 13.697263415155925 3.418501365007658 0 0 -1
41 2 16.680426144747024 6.8909711451854205 0.1317074760141517 0 0 1
314 2 6.076811769092399 9.333245518294175 3.7934907166700995 0 0 0
292 1 9.71919159515851 12.463274350254569 10.271069309020278 0 0 1
180 2 6.904697549269062 12.937786860596542 8.486915977647032 0 -1 1
123 2 7.918104436253431 14.471930340958433 3.7214371803515442 0 0 -1
90 2 14.233900906908769 10.630463375042883 8.274029824732983 0 0 0
340 1 4.98837765153345 4.413697713921958 8.680390049016804 0 0 0
308 2 15.162352497780175 13.838778008755423 0.5185057791427309 0 0 0
137 2 5.172336022873601 7.365792615701893 1.2884063053972503 0 0 1
48 2 24.552137913266293 17.513586464765865 13.231765007201238 0 0 0
378 2 16.28674145864037 10.185503231339053 12.155125735279405 0 0 0
36 2 16.83541709762474 16.96627712625243 11.718847270822753 0 0 0
3 2 4.329449961174331 11.047678383662552 0.7660738377541289 0 0 -1
247 1 5.452233747577534 11.739482741105187 6.040675313102195 0 0 0
281 2 20.300306391049986 7.660116489860021 10.473793057990646 0 0 0
138 2 6.201692936077981 7.980982741677683 0.2354555450953739 0 0 1
95 2 13.352947251534806 7.3847871586077805 4.771765166338295 0 0 0
237 2 14.181688015677798 8.09630198732619 2.0490884258654236 0 0 0
225 2 10.743891769834427 14.542534597478294 3.402891802721306 0 0 0
732 2 23.202260814236134 15.071943518919229 10.652118294729034 0 0 0
26 2 1.9800774920607753 4.122210077668297 0.5351487021123789 0 0 0
284 2 20.009704517191203 12.752522405166845 2.2590211349595917 0 0 0
317 2 1.7599217358009938 2.9563385324454172 3.905424826783509 0 0 0
288 2 22.145976143372998 14.45388510336535 8.700387327927501 0 0 0
2 2 4.692599092755713 12.522851852012124 1.0879746054083035 0 0 -1
467 2 20.672729400436488 10.007542173949092 8.200921169593437 0 0 0
459 2 15.426044354639528 1.4824332688261528 1.4485692443737712 0 0 0
171 2 2.550184564542343 5.138619907347599 4.978654606395548 0 -1 0
248 2 5.540524399169196 12.145546771009723 6.939699546923536 0 0 0
178 1 6.130829925620156 12.41163888643615 8.756529994037491 0 -1 1
363 2 5.073742533511805 12.907761988609511 4.909099281373221 0 0 -1
507 2 17.41023529031296 3.2653558129107148 4.905962682337392 0 0 0
27 2 1.1585901313060396 4.895868208420617 1.5116614498222507 0 0 0
361 1 5.1579699295894 13.475143845362227 4.122613596737627 0 0 -1
73 1 -0.6377764126823895 0.27029213304605704 0.7894932842942831 0 0 0
468 2 20.14409958198989 9.076909026436097 7.008338419324214 0 0 0
385 1 22.395395099308672 5.349180338488408 3.973700040614335 0 0 0
386 2 22.203363421354155 6.253854055758196 4.22623084774287 0 0 0
387 2 21.509303200927214 4.959649082521537 3.697917324371657 0 0 0
409 1 26.189735289268675 8.1452526581025 6.137704583234117 0 0 0
483 2 19.3397126442367 3.7090065001680284 6.229718999852282 0 0 0
425 2 37.16423062657382 10.233896236031804 13.043594467100558 0 0 0
128 2 35.779410033149105 6.2310248176162775 11.05870316970632 -1 1 -2
433 1 19.83896807451263 3.7532269821557365 2.984372338557107 0 0 0
434 2 20.056091556358098 2.9400629254920547 2.4975374314148158 0 0 0
435 2 19.395368262983467 4.330756815444832 2.304839293489254 0 0 0
602 2 20.85617956803958 0.5276069430495223 1.767823389252904 0 0 0
204 2 33.4181394210559 6.037637173822856 3.2697703355589685 -1 1 0
677 2 22.333373875072297 8.623706920302752 8.044784363249839 0 0 0
481 1 19.90712912771179 4.422933828461663 5.872442792104543 0 0 0
482 2 19.332392293979204 4.827073371628971 5.181457834204796 0 0 0
650 2 25.101655473533192 6.03402977494072 3.2022902891797926 0 0 0
505 1 17.794878174236842 2.6404820256299133 4.257983659425736 0 0 0
506 2 18.405938388317708 3.091363220206004 3.6172216946155307 0 0 0
529 1 21.61392211529394 2.544115657242466 4.863648382947839 0 0 0
530 2 21.104973901635255 3.3779930363376587 5.020255432873731 0 0 0
531 2 22.04725179890486 2.5682476985947202 4.003108358955825 0 0 0
553 1 23.73972263140611 4.409890348583915 6.153867494561889 0 0 0
554 2 23.141745154782996 4.8010512735297 5.469801449178495 0 0 0
745 1 21.730207885749017 7.616054416593553 4.99183680038153 0 0 0
577 1 22.88637282553718 2.7144126546923726 2.3190765687743276 0 0 0
579 2 22.567176587790243 3.51459837489055 1.891058278953209 0 0 0
601 1 20.205563174526723 1.2769776854431434 1.627067192302298 0 0 0
666 2 34.828496886602316 8.438703039169333 10.011580173490136 0 0 0
603 2 20.384702625633693 1.5646118872494494 0.7034486559140928 0 0 0
410 2 26.84776727634776 8.652286633501667 6.664946102728714 0 0 0
625 1 22.085171328036076 4.621740025578321 0.497011384866902 0 0 0
627 2 21.4690747430337 5.3727775926384105 0.593853772733777 0 0 0
649 1 24.433035024576668 5.969307726235298 2.500807069531568 0 0 0
578 2 22.680671595941483 1.9372162954640582 1.6515787036392993 0 0 0
651 2 23.60709947445651 5.703253846199982 2.8901125052981476 0 0 0
673 1 20.680727209303107 6.754447747829616 1.4796789932613117 0 0 0
102 2 36.804705612884554 8.589601343180345 11.40445492125949 -1 0 0
675 2 20.410357825953646 6.747002665436086 2.405137290123774 0 0 0
697 1 18.507794917262608 4.5654091034792454 0.8063035510083019 0 0 0
593 2 32.87720118608294 4.2845050851401965 10.091693237727018 0 0 0
647 2 34.24698781341747 14.946128454766558 6.51825747802305 0 0 0
746 2 21.523514155054727 7.355325664602526 5.947398394544828 0 0 0
721 1 19.079398662026392 6.422120023699984 3.8151625943941707 0 0 0
626 2 22.898834358938203 5.050055844015112 0.14005539900216832 0 0 0
692 2 31.345597409422112 14.524111247012284 1.5066713429203544 0 0 0
411 2 25.786543308741685 7.491346061602496 6.742092095769592 0 0 0
678 2 22.99553590299964 7.904634918288957 9.280666190222602 0 0 0
388 1 24.528439348363037 6.977453156157883 10.667931064818807 0 0 0
389 2 24.23753453276349 7.813482594251347 11.08419289291205 0 0 0
390 2 24.95004152573909 6.519353127605761 11.432050055314278 0 0 0
412 1 29.05290702869187 9.7531602322155 12.946831721127282 0 0 0
75 2 31.105456363986562 1.039140029750528 1.3566145071641569 -1 0 0
436 1 22.34762558168024 5.384743070651545 9.743639237652754 0 0 0
437 2 21.680738105275523 4.995559880288166 10.274862006063932 0 0 0
438 2 23.03532280973385 5.7462138492732295 10.27030615661146 0 0 0
318 2 32.561049083397755 3.4676238384575946 4.722958498000252 -1 0 0
654 2 27.59881839026226 7.857681518668475 10.068292891601844 0 0 0
748 1 24.379884622843697 9.489189493280026 12.204810196624747 0 0 0
485 2 22.81603222882704 6.471547043458428 13.49416849649883 0 0 0
484 1 22.475488690334814 5.92897025010482 12.754285199819977 0 0 0
724 1 21.705624556357577 7.772917111417339 11.155421144902165 0 0 0
510 2 20.619123795608715 3.5475647042267036 11.543459989161066 0 0 0
558 2 26.514519718059162 6.877813606111232 12.961630061159992 0 0 0
532 1 24.057216966642635 3.6421380856559087 11.932867169540849 0 0 0
533 2 23.764117557105152 4.388040533821215 12.41314806536686 0 0 0
362 2 36.4413514833405 13.24012319450313 3.514539919107119 -1 0 -1
556 1 26.124409823582056 6.017908951928123 12.698045024114446 0 0 0
557 2 26.792551881069876 5.491050639410157 12.188731210193517 0 0 0
580 1 25.614697507725467 4.40036548331314 9.51895363034903 0 0 0
581 2 25.113913165344087 4.125865727827204 10.308345356913811 0 0 0
582 2 25.233688460678813 5.261509935395 9.198144364364849 0 0 0
630 2 24.38355183426448 5.6328514045083455 7.206940192513657 0 0 0
604 1 22.83620861016712 3.0838880963063513 8.40934580678504 0 0 0
605 2 22.700566829980254 3.8432674683600654 8.996472134994844 0 0 0
670 1 37.09538267940671 15.064332799265147 9.39498762214672 0 0 0
462 2 18.88419691362534 2.1379494417587934 7.592312724384183 0 0 0
628 1 24.828815996803776 6.350660678949254 7.72047188003351 0 0 0