LAMMPS data file via write_data, version 15 Apr 2020, timestep = 1147000

1920 atoms
2 atom types

1.2563976848375980e-01 2.4598765231518335e+01 xlo xhi
-3.4150502857812626e-02 2.4758555502850541e+01 ylo yhi
-2.0716005496216994e-02 2.2813088005499139e+01 zlo zhi
9.3455811241799011e-02 -1.0570950485329574e-01 1.9596771028243809e-01 xy xz yz

Masses

1 16
2 2

Atoms # atomic

1 1 4.6360050698540869e+00 1.6226108165282496e+00 4.1982865256734252e+00 0 0 0
2 2 5.3078711367770328e+00 1.6069957885651389e+00 3.4853247007861623e+00 0 0 0
3 2 4.6654623269674342e+00 8.5909199432317895e-01 4.7285568941314073e+00 0 0 0
4 1 2.8594009552152735e+00 1.5828496185356715e+00 2.1039005270331255e+00 0 0 0
557 2 1.2111014565823954e+01 1.6464782493920813e+00 8.3079500889394833e+00 0 0 0
6 2 3.2032853748242331e+00 1.4092892465908748e+00 3.0081793966797545e+00 0 0 0
7 1 6.1222099230842986e+00 4.7804465456679424e+00 3.5272199822910073e+00 0 0 0
8 2 5.1197550364189635e+00 4.8967901510738381e+00 3.4630565166212799e+00 0 0 0
9 2 6.2578873914179667e+00 3.9810055962482140e+00 4.0023616865140070e+00 0 0 0
10 1 3.4545457019562842e+00 4.7687833261483634e+00 3.3084712381133863e+00 0 0 0
11 2 2.9834492161809796e+00 3.9839335213220046e+00 3.5443461476918880e+00 0 0 0
12 2 3.0636769991601431e+00 5.4990854006614178e+00 3.8460752113239574e+00 0 0 0
13 1 1.3795997050303903e+00 3.1718285038415464e+00 4.6621205253306215e+00 0 0 0
14 2 1.4964319154693557e+00 2.2275357228270463e+00 4.6518206069705039e+00 0 0 0
15 2 1.4904968611370912e+00 3.4190976539525137e+00 5.5652663073804760e+00 0 0 0
578 2 2.6975276890838584e-01 5.4648298045787485e+00 9.7671233365716184e+00 0 0 0
17 2 1.2045664602078219e+00 1.7826878290113306e+00 2.2064797997740517e+00 0 0 0
19 1 4.5341643913101057e+00 3.2705686013524242e+00 7.6635627798026529e-01 0 0 0
20 2 3.6941070866696601e+00 3.1351956850823059e+00 1.2933850459031446e+00 0 0 0
21 2 4.7253419439978099e+00 4.2508115453522297e+00 6.9428329821114143e-01 0 0 0
22 1 1.4175457336912642e+00 4.8642163858488452e+00 1.4561878901256626e+00 0 0 0
23 2 2.1762069008895200e+00 4.9796015385278647e+00 2.0557946031067003e+00 0 0 0
24 2 1.5594010398445970e+00 4.2278235631419179e+00 7.5160981756239109e-01 0 0 0
25 1 4.5338486498800714e+00 6.0673797992465470e+00 6.9841045565477800e-01 0 0 0
26 2 3.8815881496216211e+00 6.5721579828348906e+00 1.2500047278893920e+00 0 0 0
27 2 4.3720474837351420e+00 6.6601907706417318e+00 2.2616502197923467e+01 0 0 0
1658 2 3.5136205511511348e-01 1.1129375114718311e+01 1.9744024252467312e+01 0 0 0
31 1 1.0567735047685559e+01 1.5581887478507388e+00 4.2531066067443781e+00 0 0 0
32 2 1.0643500451908730e+01 2.1980975312485844e+00 5.0684743487294899e+00 0 0 0
1229 2 1.1912965705486240e+00 1.2142363875501728e+01 1.7018602910305724e+01 0 0 0
34 1 8.8694953158449721e+00 1.4371429839351428e+00 2.0906230442914460e+00 0 0 0
30 2 9.0480983471792709e-01 1.6054551836535680e-01 4.3321315915859007e+00 0 1 0
36 2 9.0795984443279405e+00 2.2530392706987552e+00 1.6214937932942366e+00 0 0 0
1638 2 1.2198857240890220e+01 8.0142613568045373e+00 2.0377914894046214e+01 0 0 0
39 2 1.1195089588784725e+01 4.8120839973731124e+00 3.4204504679066221e+00 0 0 0
40 1 9.4374160434598640e+00 4.6543779421120659e+00 3.6465243394128803e+00 0 0 0
41 2 9.0292051036481364e+00 4.6972090039267966e+00 2.7161869108357899e+00 0 0 0
42 2 9.0379912655296497e+00 3.8341889244470941e+00 4.0306615542018136e+00 0 0 0
43 1 7.7603150481829708e+00 2.8571291938703336e+00 4.8172590920627645e+00 0 0 0
44 2 7.6904998287764990e+00 3.1729261533094424e+00 5.7726964425276162e+00 0 0 0
45 2 7.8961799238386066e+00 1.8739064234561638e+00 4.8347522967888352e+00 0 0 0
46 1 6.2525830890775014e+00 1.4329595482983544e+00 2.0943214192150759e+00 0 0 0
47 2 7.2886762862405829e+00 1.3511062613050522e+00 2.0312942489589751e+00 0 0 0
48 2 6.1119809583976874e+00 2.1353685348074447e+00 1.4825605256896519e+00 0 0 0
49 1 1.0643537120390587e+01 3.4750330439133519e+00 8.3443852575062494e-01 0 0 0
50 2 1.1411584066316930e+01 3.2156930268486579e+00 1.3816274007404774e+00 0 0 0
51 2 1.0663348548924471e+01 2.8015089358390992e+00 9.7861276626967725e-02 0 0 1
52 1 7.8608512858731654e+00 4.8079745380073735e+00 1.5854699088783686e+00 0 0 0
53 2 7.8920458611398940e+00 3.9994714940553084e+00 1.0818137476636565e+00 0 0 0
54 2 6.9847499316740036e+00 4.9279019304173453e+00 2.0348694091304220e+00 0 0 0
55 1 1.0852624760441429e+01 6.0737477710417584e+00 7.2678356428965230e-01 0 0 0
56 2 1.0174129813135337e+01 6.5540094603833303e+00 1.2174503449242950e+00 0 0 0
57 2 1.0637921027133515e+01 5.1226221706229218e+00 7.0981717635583286e-01 0 0 0
1259 2 8.7025702185143921e+00 1.2057605597650971e+01 1.6162892726522038e+01 0 0 0
614 2 9.3619683488091399e-01 9.5001605685514381e+00 1.0333236971173491e+01 0 0 0
1608 2 7.3655556735119436e+00 7.6308130096627149e+00 1.9372281773514118e+01 0 0 0
531 2 1.0688224751631083e+01 4.1847806015590088e+00 6.4660789400916530e+00 0 0 0
121 1 4.8472398040122400e+00 7.7081515347383140e+00 4.2503879062583705e+00 0 0 0
122 2 5.5736527072914166e+00 7.6863958745518914e+00 3.5439853671666524e+00 0 0 0
123 2 4.0206948213714266e+00 7.8898723661606089e+00 3.7228112569100191e+00 0 0 0
124 1 2.9949652791404482e+00 7.6604337051892033e+00 1.9285154434899874e+00 0 0 0
125 2 3.2603689125976105e+00 8.4850707384084529e+00 1.3477496843345673e+00 0 0 0
126 2 2.0159305721200012e+00 7.7257195999523356e+00 2.0688223481030654e+00 0 0 0
127 1 5.8222084101916183e+00 1.0964050224782476e+01 3.7723437958063135e+00 0 0 0
128 2 6.2145599052209732e+00 1.0247484371848214e+01 4.1973436499898913e+00 0 0 0
129 2 4.9423790114214015e+00 1.0710870855485238e+01 3.5691902210530086e+00 0 0 0
130 1 3.1955539287599399e+00 1.0444602197692083e+01 3.2508654890286959e+00 0 0 0
131 2 2.7856456032683656e+00 9.9306568134156290e+00 4.0001440524171867e+00 0 0 0
132 2 2.5875770110077023e+00 1.0353682644135151e+01 2.4439721264687351e+00 0 0 0
133 1 1.7425039146708734e+00 9.1138245401586389e+00 5.0881646664967866e+00 0 0 0
134 2 1.6780019631645793e+00 9.3967806634176654e+00 6.0264729834151725e+00 0 0 0
135 2 8.5744216958409358e-01 9.3446212102410229e+00 4.6683660681373516e+00 0 0 0
976 1 1.7639829250699579e-01 1.6559615008345496e+00 1.3601430947378994e+01 0 0 0
139 1 4.4206617752439739e+00 9.5848089345340242e+00 5.7152164255378257e-01 0 0 0
140 2 4.5355926542767770e+00 1.0523269064770668e+01 7.1418697898886463e-01 0 0 0
141 2 5.1490037024225144e+00 9.1900229495428736e+00 1.0184970178340464e+00 0 0 0
142 1 1.4812493854422364e+00 1.0493527445735072e+01 1.2402040593602408e+00 0 0 0
143 2 1.5548020625547319e+00 9.8855499183283122e+00 4.7431153479088806e-01 0 0 0
144 2 1.6102455399519298e+00 1.1327151048677223e+01 8.0803292746459510e-01 0 0 0
1615 1 1.0816983221534649e+01 1.2367516338782236e+01 1.8009932639180448e+01 0 0 0
148 1 1.8309772661037937e+00 6.2964844203558821e+00 4.8565895275682536e+00 0 0 0
136 1 3.5685224991010522e-01 7.8216673948234012e+00 2.0958991172416455e+00 0 0 0
150 2 1.7851093711306052e+00 7.2404085827837310e+00 5.0658300578092783e+00 0 0 0
151 1 1.0482140530729646e+01 7.6175209167293980e+00 4.2351076652832029e+00 0 0 0
1018 1 8.1478803712766901e+00 2.6519453471304133e-01 1.6360948887710279e+01 0 0 0
153 2 1.0750606777291228e+01 8.3813545238769116e+00 4.7535671581428884e+00 0 0 0
154 1 8.9297386009009649e+00 7.6822069564359383e+00 2.0754481769597950e+00 0 0 0
155 2 9.3542558385218850e+00 8.5670619410785562e+00 1.7896639707469661e+00 0 0 0
156 2 9.2533715504370804e+00 7.5810008677761695e+00 2.9726450539751887e+00 0 0 0
1096 1 1.9360884163567157e-01 7.4436756453655661e+00 1.3564396316121071e+01 0 0 0
158 2 1.1374925941501262e+01 1.0706933482243867e+01 3.2408751054352036e+00 0 0 0
160 1 9.5610017733627082e+00 1.0523084985416023e+01 3.7393170049524582e+00 0 0 0
161 2 9.1113917579080503e+00 1.0649906660779003e+01 2.8483323311422475e+00 0 0 0
988 1 1.7864646710311771e+00 3.1350509436273166e-01 1.6323111866644730e+01 0 0 0
163 1 7.7444403630812566e+00 9.1155604436307307e+00 5.0124001228499564e+00 0 0 0
164 2 7.7363215387071653e+00 8.1458043229814763e+00 5.1163574132750655e+00 0 0 0
165 2 8.5329359083021306e+00 9.2685301026769036e+00 4.5113551972340717e+00 0 0 0
166 1 6.1076605805549260e+00 7.7642017921174187e+00 1.8715409974640949e+00 0 0 0
167 2 5.6993176016308276e+00 6.9818843173477827e+00 1.3589658612017772e+00 0 0 0
168 2 7.1120346916802335e+00 7.7092459026041817e+00 1.8666003422509738e+00 0 0 0
169 1 1.0419314955120997e+01 9.5133999131482732e+00 8.2764783325989222e-01 0 0 0
170 2 1.0449721573622721e+01 1.0474764968761647e+01 7.7544131362660418e-01 0 0 0
171 2 1.0459455738770274e+01 9.2730568729772269e+00 2.2804068340203678e+01 0 0 0
172 1 7.7996615497336199e+00 1.0929005362802114e+01 1.6884688612874770e+00 0 0 0
173 2 6.9635183598080692e+00 1.1077652523584002e+01 2.1066146002802917e+00 0 0 0
174 2 7.5960027007548598e+00 1.0287754621705927e+01 9.4731662674818840e-01 0 0 0
1456 1 3.6370030459038216e-01 1.6882025154194109e+00 1.8900503442632228e+01 0 0 0
178 1 7.6344063648959697e+00 6.3344301054758176e+00 5.1155446435643501e+00 0 0 0
179 2 6.9816587064917250e+00 5.7562868265855096e+00 4.6193139019025589e+00 0 0 0
180 2 8.4317180998016230e+00 6.0448147929673066e+00 4.6105270482494127e+00 0 0 0
517 1 1.2015478248401507e+01 4.4886833641821715e+00 9.0628742004303433e+00 0 0 0
1576 1 1.4299711045850311e-01 7.8268098969528506e+00 1.9195861742969917e+01 0 0 0
198 2 1.2064025232764813e+01 7.1600674910605200e+00 1.7875615454143607e+00 0 0 0
1589 2 8.2387690883620923e-01 6.0546956240002698e+00 2.1560180074739733e+01 0 0 0
1619 2 8.0863034304494725e+00 5.8451191037441284e+00 2.2648223358499806e-01 0 0 1
495 2 7.2220889257064802e-01 3.5161449073821718e+00 1.0276518568742802e+01 0 0 0
1618 1 7.7800561842671412e+00 6.4489698494129355e+00 2.2192945968790603e+01 0 0 0
616 1 3.6149825154875426e-01 7.8344989539255350e+00 7.6022151140776062e+00 0 0 0
558 2 1.2157299947650209e+01 2.1508852647893262e+00 6.8109215808285448e+00 0 0 0
481 1 4.2529428725356953e+00 1.7070660036995426e+00 9.8869467555120867e+00 0 0 0
482 2 4.2123833387796648e+00 9.4956414217461538e-01 1.0475871044501821e+01 0 0 0
483 2 5.1140014257099153e+00 1.7051843987290141e+00 9.4063648921703038e+00 0 0 0
484 1 2.9125807501473830e+00 1.7283155998498478e+00 7.3414904753313479e+00 0 0 0
485 2 3.2207185239283991e+00 1.7135457839240125e+00 8.2804739819967850e+00 0 0 0
486 2 1.9096744903347687e+00 1.7866448856354284e+00 7.4495665200166696e+00 0 0 0
487 1 6.0748136906558194e+00 4.7998050988566732e+00 9.1518023083759097e+00 0 0 0
488 2 5.0356595405098385e+00 4.8416836123741724e+00 9.1084984179543120e+00 0 0 0
489 2 6.3093832853291474e+00 3.9970663928452970e+00 9.6607358981937566e+00 0 0 0
490 1 3.2571339713326433e+00 4.6399775981119946e+00 9.4249807049696077e+00 0 0 0
491 2 2.8041051492754621e+00 3.8587576883689159e+00 9.7725345680855522e+00 0 0 0
492 2 2.7299431322294025e+00 5.3366142040972466e+00 9.8579119743617785e+00 0 0 0
493 1 1.4835464811331911e+00 3.1210644576081306e+00 1.0743197223158559e+01 0 0 0
494 2 1.6288812865277396e+00 3.4929091561484849e+00 1.1628945871110837e+01 0 0 0
1605 2 6.6410800000868599e+00 9.9238153752410092e+00 2.1934303639251709e+01 0 0 0
1613 2 7.6722222937864943e+00 1.1478416380268163e+01 1.8046379097549114e+01 0 0 0
499 1 4.8598028150022712e+00 3.3287420687858789e+00 6.2069095091867474e+00 0 0 0
500 2 4.1157980001842152e+00 2.8984959577122540e+00 6.5941273387588950e+00 0 0 0
501 2 4.8172907560148692e+00 2.8750531426271682e+00 5.3536661543643254e+00 0 0 0
502 1 1.5051174152343665e+00 4.4943716681331560e+00 6.8728744033511600e+00 0 0 0
503 2 2.2190783394954021e+00 4.5261701011308748e+00 7.5301809264061328e+00 0 0 0
504 2 1.8212494864037498e+00 5.2380221321618796e+00 6.2997132719688764e+00 0 0 0
505 1 4.9225437037972206e+00 5.9185632318964512e+00 6.2630364837395334e+00 0 0 0
506 2 4.9198054615915661e+00 4.9170012122395921e+00 6.2211386218456530e+00 0 0 0
507 2 4.8919706334293229e+00 6.2439164825809055e+00 5.3391727120143120e+00 0 0 0
5 2 3.4552894098189513e+00 1.0022138944556058e+00 1.5537350552124445e+00 0 0 0
509 2 1.6703022900794231e+00 1.3335567265603003e+00 1.0870898859731358e+01 0 0 0
511 1 1.1024070061974243e+01 1.4623555115511513e+00 1.0026315713404568e+01 0 0 0
512 2 1.0951601566965728e+01 7.6869396080804941e-01 1.0691605446796283e+01 0 0 0
513 2 1.0272608933457576e+01 1.5538806444545181e+00 9.4144182573586317e+00 0 0 0
514 1 9.0192842538407199e+00 1.4917123134902546e+00 7.7205467585511700e+00 0 0 0
515 2 8.0855347359596887e+00 1.7104729640977463e+00 7.6829289401926184e+00 0 0 0
1571 2 2.6316181684786337e+00 1.1905731199167608e+01 2.0785477387469044e+01 0 0 0
1498 1 7.4897477303144724e+00 3.0746868547938966e-01 2.2120306097917215e+01 0 0 0
520 1 9.3576478532187490e+00 4.3475466907297422e+00 9.4916891082341373e+00 0 0 0
521 2 1.0337662972292710e+01 4.5673620719337853e+00 9.3431430477311022e+00 0 0 0
522 2 8.9715061666127500e+00 4.1382854085558547e+00 8.6228743405100943e+00 0 0 0
523 1 7.4751280403069700e+00 2.9640123032032473e+00 1.0909397120139380e+01 0 0 0
524 2 7.7433899494959322e+00 2.0348417706201998e+00 1.0740576144002004e+01 0 0 0
525 2 8.2546606482347311e+00 3.4060530541225282e+00 1.0505386324465681e+01 0 0 0
526 1 6.2234992864249277e+00 1.6463711573779674e+00 7.8901370344992783e+00 0 0 0
527 2 6.1007156544032961e+00 7.6824766376548581e-01 7.4166504359891592e+00 0 0 0
538 1 7.8692412091530786e+00 1.9191812074244530e-01 1.0611486110303341e+01 0 0 0
529 1 1.0601626280047185e+01 3.1809851445018769e+00 6.3935499552052173e+00 0 0 0
530 2 9.9379262191165729e+00 2.7963228972035674e+00 7.0027383520896151e+00 0 0 0
699 2 2.1868259398952578e-01 1.1501164665431217e+01 1.0027005162903045e+01 0 0 0
532 1 7.9948994772281550e+00 4.3999699872803308e+00 7.2953944830955457e+00 0 0 0
533 2 8.2518063883965507e+00 5.1559786188918402e+00 6.7214253606799428e+00 0 0 0
534 2 7.3519308653357935e+00 4.7437744874789045e+00 7.9769676002532472e+00 0 0 0
535 1 1.0664007630846994e+01 5.8644675312440562e+00 6.6338900230710030e+00 0 0 0
536 2 1.0151061593821522e+01 6.5641497276670160e+00 7.1006357277906949e+00 0 0 0
537 2 1.0553867967184706e+01 6.1657851839024973e+00 5.7432441100490568e+00 0 0 0
1607 2 5.9609987166275786e+00 7.5537290660299581e+00 2.0227923145558151e+01 0 0 0
780 2 6.8960925737863912e+00 1.2078086577781628e+01 1.0324751450072757e+01 0 0 0
1472 2 1.1537514347510996e+01 1.8036101278230607e+00 2.1000405624433270e+01 0 0 0
1539 2 3.1191970409845632e-01 4.1520613297278723e+00 2.1153400156559094e+01 0 0 0
1612 1 7.5127467104407835e+00 1.0768832334488827e+01 1.8701441672925007e+01 0 0 0
601 1 4.4520153078945155e+00 7.3605275319506500e+00 1.0016004576853550e+01 0 0 0
602 2 5.1596253685754165e+00 7.0854153413150094e+00 9.4615602978607303e+00 0 0 0
603 2 4.6635629775423535e+00 8.2407147106299270e+00 1.0420479412043067e+01 0 0 0
604 1 3.1351918048721932e+00 7.4914063901274233e+00 7.6415130116840455e+00 0 0 0
605 2 3.5506061328328018e+00 7.4894472844965208e+00 8.5136221297800105e+00 0 0 0
606 2 3.5863520626799863e+00 6.8106619778137931e+00 7.1630257702947242e+00 0 0 0
607 1 6.0895145188145783e+00 1.0929175161523077e+01 9.4766275732299636e+00 0 0 0
608 2 6.5220254848965329e+00 1.0942509025937566e+01 8.5749084720254753e+00 0 0 0
609 2 6.5383700923477734e+00 1.0124300426226654e+01 9.8367756880464317e+00 0 0 0
610 1 3.3391813376771116e+00 1.0958582626619055e+01 9.4204372921020862e+00 0 0 0
611 2 2.9776902477373826e+00 1.0913912805823793e+01 8.5353453116115592e+00 0 0 0
612 2 4.3340843479252227e+00 1.0982300662090450e+01 9.3900679564084033e+00 0 0 0
613 1 1.6849487491565056e+00 8.9804524233123377e+00 1.0595330355423119e+01 0 0 0
416 2 1.1020338366793423e+01 4.3494910644337481e-01 1.2974154733431018e-01 0 0 1
615 2 2.4200898385045391e+00 9.4403895493503835e+00 1.0111190111343987e+01 0 0 0
1260 2 7.1546036048516646e+00 1.2167845161667783e+01 1.6164975168337541e+01 0 0 0
618 2 1.3102389023293179e+00 7.6375713895629538e+00 7.8342135809598279e+00 0 0 0
619 1 4.8077794560851528e+00 9.4977825046751150e+00 6.2878701040483733e+00 0 0 0
620 2 4.7315053562423444e+00 9.2326475980413711e+00 5.3751316001114420e+00 0 0 0
621 2 4.1018048171738837e+00 8.9552187569513428e+00 6.7432235954521156e+00 0 0 0
622 1 1.7803431301424142e+00 1.0689244885529527e+01 7.2304908755822224e+00 0 0 0
623 2 1.0280114657356778e+00 1.1045183392536494e+01 7.8164519776239896e+00 0 0 0
624 2 1.9456299494498448e+00 1.1366899088199762e+01 6.5399286959343508e+00 0 0 0
779 2 8.2799420740073248e+00 1.2105258693605174e+01 1.0458138194728917e+01 0 0 0
626 2 4.7908412240213094e+00 1.1265406205994553e+01 5.9845126774458057e+00 0 0 0
628 1 1.5342625346992815e+00 6.2557599343202499e+00 1.0633213421172126e+01 0 0 0
629 2 1.6957762955752393e+00 5.9087798209120361e+00 1.1566251473486522e+01 0 0 0
630 2 1.3739158868808088e+00 7.2052782306068943e+00 1.0680901948065605e+01 0 0 0
631 1 1.0984913694361680e+01 7.6425806256770406e+00 9.7362631258011394e+00 0 0 0
632 2 1.1212686017973660e+01 6.9131645915442954e+00 1.0409637017300614e+01 0 0 0
633 2 1.1720979931477981e+01 7.6421247153776326e+00 9.0248278498363348e+00 0 0 0
634 1 9.0903358798534253e+00 7.8439780368181014e+00 7.8849115849431968e+00 0 0 0
635 2 9.4587660064825734e+00 7.6856617160402747e+00 8.7598911239228734e+00 0 0 0
636 2 8.0767107099073279e+00 7.8053849910773145e+00 7.9383103668221962e+00 0 0 0
654 2 7.8581616659014148e+00 1.1360534403418042e+01 6.6968378692221382e+00 0 0 0
639 2 1.1143411190380233e+01 1.1026214118865985e+01 9.2533568520721943e+00 0 0 0
640 1 9.2841782203262539e+00 1.1091316847620508e+01 9.4210186532309006e+00 0 0 0
641 2 8.8817516156551495e+00 1.0948053609050962e+01 8.5183045361846439e+00 0 0 0
642 2 9.2949525314700256e+00 1.0221658907472595e+01 9.7591033150738351e+00 0 0 0
643 1 7.5492695856928265e+00 9.1088418353431226e+00 1.0770681861563187e+01 0 0 0
644 2 7.4680903169558963e+00 8.1320521108600268e+00 1.0805256432694318e+01 0 0 0
645 2 7.3376655076024315e+00 9.4838692453849962e+00 1.1652679617888436e+01 0 0 0
646 1 6.4398738502856823e+00 7.6413008342185753e+00 7.8225116207841232e+00 0 0 0
647 2 6.2260277437701168e+00 7.1083296879680855e+00 7.0315879877321761e+00 0 0 0
648 2 6.0424037137329316e+00 8.4286939730448509e+00 7.4871429096497053e+00 0 0 0
649 1 1.0867625145881879e+01 9.7092703391135018e+00 6.3689147249193105e+00 0 0 0
650 2 1.0901724659490766e+01 1.0628365219157233e+01 6.2179279425782328e+00 0 0 0
651 2 1.0033840828278269e+01 9.4310629634834946e+00 6.7373826739018243e+00 0 0 0
652 1 7.6830700712295581e+00 1.0593271485529014e+01 7.2349970615902537e+00 0 0 0
653 2 7.5738413828038000e+00 9.8765885671908382e+00 6.5518038355975197e+00 0 0 0
867 2 3.9525277694355241e+00 2.7825010073644074e-01 6.7344408444487627e+00 0 0 0
1089 2 5.3035877095177959e+00 1.0735468238675116e+01 1.5057242867135669e+01 0 0 0
658 1 7.7987204986231990e+00 6.4614313709264986e+00 1.0683036845036808e+01 0 0 0
659 2 7.0861432815219736e+00 5.9483756999482287e+00 1.0242698403228745e+01 0 0 0
660 2 8.6306922267992494e+00 6.0520070510416328e+00 1.0289398790144840e+01 0 0 0
1610 2 1.1065956458296762e+01 9.1368565982518870e+00 1.7231990892671682e+01 0 0 0
1604 2 8.2344461504510775e+00 9.9110137900551987e+00 2.1713082886072414e+01 0 0 0
1585 1 4.2939338333625718e+00 1.2483745074025531e+01 1.7824958039106143e+01 0 0 0
29 2 1.6116182826244674e+00 8.5725496789423455e-02 5.7036938121217400e+00 0 1 0
1614 2 8.1761096223380783e+00 1.0838587293809807e+01 1.9421991507812869e+01 0 0 0
1611 2 1.1543407059127054e+01 9.0272294162531139e+00 1.8711830445247671e+01 0 0 0
1464 2 9.1775210849983346e-01 4.7876677824451459e+00 1.9162142526969525e+01 0 0 0
1616 2 1.0865558666278677e+01 1.1428288940949802e+01 1.7883815887575594e+01 0 0 0
1133 2 7.7093662570793136e+00 1.1326373057412743e+01 1.2603016154428142e+01 0 0 0
1468 1 1.5969917829546831e+00 4.9520041704070650e-01 2.2095888127591572e+01 0 0 0
961 1 4.7055978074552405e+00 1.4318184227586797e+00 1.5656071553443153e+01 0 0 0
962 2 4.7997423581240612e+00 2.2726836540294482e+00 1.6143712109893343e+01 0 0 0
386 2 5.2249682912043234e+00 4.1983726018322481e-01 1.1073906511679672e+00 0 0 0
964 1 2.8764246050173861e+00 1.5853464074820298e+00 1.3650080105290606e+01 0 0 0
965 2 3.3674933423545537e+00 1.6384822514541306e+00 1.4496049593075131e+01 0 0 0
966 2 3.1164639826661236e+00 2.3188949944744515e+00 1.3087740873328165e+01 0 0 0
967 1 6.0813792433425284e+00 4.6215493148250228e+00 1.5250366094810799e+01 0 0 0
968 2 6.4778870563622979e+00 5.3559778651357552e+00 1.5783446902223318e+01 0 0 0
969 2 6.5029800213089501e+00 4.7352023416452758e+00 1.4296613654667707e+01 0 0 0
970 1 3.4059223001531964e+00 4.8879995913631520e+00 1.5118520992607761e+01 0 0 0
971 2 4.3621632196155904e+00 5.0156799402647625e+00 1.5199031231068300e+01 0 0 0
972 2 2.9449616529838067e+00 5.6184719880972489e+00 1.5547982505930436e+01 0 0 0
973 1 1.8178881285822379e+00 3.0600854455075459e+00 1.6436766633491196e+01 0 0 0
974 2 2.5111071555516995e+00 3.4549887155555141e+00 1.5898968934428979e+01 0 0 0
975 2 1.9422564037177708e+00 3.3705215951656768e+00 1.7397761309991736e+01 0 0 0
197 2 1.1885276760352937e+01 8.7164673907726140e+00 1.8918139042470850e+00 0 0 0
977 2 1.0971099930275217e+00 1.4274434492208099e+00 1.3797207267019271e+01 0 0 0
979 1 4.3330885954612883e+00 3.2310302569411165e+00 1.2090388612154802e+01 0 0 0
980 2 4.2974708461941846e+00 2.8360375504395332e+00 1.1221529907348216e+01 0 0 0
981 2 5.1297295424352924e+00 2.7810236179631374e+00 1.2563353193657873e+01 0 0 0
982 1 1.7004944866097760e+00 4.6680799652709357e+00 1.2941791800916073e+01 0 0 0
983 2 2.5159131958867520e+00 4.7370218461696032e+00 1.3475862535015077e+01 0 0 0
984 2 1.0485177627963602e+00 4.7241387544517490e+00 1.3704377811564314e+01 0 0 0
985 1 4.5275887352783259e+00 5.8562615887465475e+00 1.2099749593804795e+01 0 0 0
986 2 4.4645788188163946e+00 6.1208052145080991e+00 1.1160391912529526e+01 0 0 0
987 2 4.5192701609711410e+00 4.8820810336524225e+00 1.2163804177046035e+01 0 0 0
508 1 1.8064732831827082e+00 3.4414653070597523e-01 1.0726872981776912e+01 0 0 0
989 2 1.6081365116997721e+00 1.3654775109721318e+00 1.6275146442847735e+01 0 0 0
991 1 1.0897499594881513e+01 1.8188495672340415e+00 1.5774061765356111e+01 0 0 0
992 2 1.0644619455149552e+01 1.2163321768366411e+00 1.6453997313591493e+01 0 0 0
993 2 1.0192249912780246e+01 1.9267079843263999e+00 1.5159826523941064e+01 0 0 0
994 1 9.0687520510451733e+00 1.7645099653757419e+00 1.3508711575888862e+01 0 0 0
995 2 9.4242364906356766e+00 9.5899720404821132e-01 1.3064077408067662e+01 0 0 0
996 2 9.4940053918505036e+00 2.5168624078140431e+00 1.3020637916640355e+01 0 0 0
1602 2 9.1079060719234750e+00 1.1792901834891628e+01 2.1207768323714355e+01 0 0 0
998 2 1.1196555718207895e+01 4.6329577517829570e+00 1.5063505447271353e+01 0 0 0
1000 1 9.5547681180015580e+00 4.6442233323884139e+00 1.5058154795264773e+01 0 0 0
1001 2 9.0584625332237536e+00 4.0168192284409043e+00 1.5603507361076710e+01 0 0 0
1002 2 9.0935466037204424e+00 4.5350998574547248e+00 1.4196957662889742e+01 0 0 0
1003 1 8.0087626744728500e+00 3.0316561082651292e+00 1.6369196540150412e+01 0 0 0
1004 2 7.1444841493211175e+00 3.5173124630247274e+00 1.6159207885286946e+01 0 0 0
1005 2 8.3570735252072357e+00 3.3603773779554680e+00 1.7214788469946988e+01 0 0 0
1006 1 6.2989682123510367e+00 1.8292521747414288e+00 1.3470261514815620e+01 0 0 0
1007 2 5.7878187710838427e+00 1.6090628803209222e+00 1.4261977759255480e+01 0 0 0
1008 2 7.2856704253636826e+00 1.6935793111575335e+00 1.3618444418599649e+01 0 0 0
1009 1 1.0700655073110937e+01 3.4454991877855243e+00 1.2268723147096734e+01 0 0 0
1010 2 1.1544474620222800e+01 3.1289509698858922e+00 1.2575598185582917e+01 0 0 0
1011 2 1.0637350480315396e+01 3.1080458793819146e+00 1.1377305268891639e+01 0 0 0
1012 1 7.6481368517584434e+00 4.5498375707981484e+00 1.2980128868491073e+01 0 0 0
1013 2 7.5254465270428001e+00 3.9006250283903317e+00 1.2272676641089783e+01 0 0 0
1014 2 7.8607329168746256e+00 5.3668236033426515e+00 1.2529012116497459e+01 0 0 0
1015 1 1.0589448124767816e+01 6.2489978546503941e+00 1.2156440173732829e+01 0 0 0
1016 2 1.0759850429553412e+01 5.2820146576926907e+00 1.2237183876398321e+01 0 0 0
1017 2 1.1360215867733942e+01 6.7072904631046777e+00 1.2599986987135471e+01 0 0 0
35 2 9.1118969769640401e+00 1.7916141970159114e+00 2.9773590592607500e+00 0 0 0
1019 2 8.1486279573518718e+00 1.2273315461615597e+00 1.6305818619077115e+01 0 0 0
1109 2 9.3463643967062005e-01 6.1008047353477046e+00 1.6171072047615027e+01 0 0 0
1117 1 1.2221598738721184e+01 1.0810208374570722e+01 1.5152883475551429e+01 0 0 0
1081 1 5.0172419394581587e+00 7.9289679889718769e+00 1.5716073755119758e+01 0 0 0
1082 2 5.6055865715074180e+00 7.7346892555424516e+00 1.4950672566341821e+01 0 0 0
1083 2 5.1067306888352144e+00 7.1176876763108803e+00 1.6295193843439435e+01 0 0 0
1084 1 3.0293421957264508e+00 7.7227735413226188e+00 1.3359437097531622e+01 0 0 0
1085 2 3.2938183283589328e+00 7.8125746058950334e+00 1.4300378763775521e+01 0 0 0
1086 2 3.4400735672798128e+00 6.9308157725880770e+00 1.3011772532420151e+01 0 0 0
1087 1 6.2378294482054555e+00 1.0837802150346663e+01 1.5188461879195248e+01 0 0 0
1088 2 6.5436429831620568e+00 1.0172982092900511e+01 1.5839251682216700e+01 0 0 0
1597 1 1.2067030602585952e+01 1.0795158107461397e+01 2.0932678240197212e+01 0 0 0
1090 1 3.3357283098836481e+00 1.0951420383824008e+01 1.5143298726617685e+01 0 0 0
1091 2 3.0113491918423625e+00 1.0205968271480348e+01 1.5640224338337017e+01 0 0 0
1092 2 2.8559591729895217e+00 1.0770819767299093e+01 1.4273798408790814e+01 0 0 0
1093 1 1.5022723247880836e+00 9.2043610148097237e+00 1.6256720597373153e+01 0 0 0
1094 2 1.5228224206509842e+00 8.2254564526790777e+00 1.6312304046650880e+01 0 0 0
1095 2 7.0543502414999559e-01 9.5578237705957676e+00 1.5791458809650781e+01 0 0 0
1020 2 7.2810839349471284e+00 1.1978486440427419e-01 1.6019372264237859e+01 0 1 0
1097 2 1.1713168127092324e+00 7.6295180162187508e+00 1.3547286492515902e+01 0 0 0
1099 1 4.7177502639095978e+00 9.4189517669394878e+00 1.2003866394402838e+01 0 0 0
1100 2 3.8635231751408003e+00 9.1355679956148457e+00 1.2356550316045640e+01 0 0 0
1101 2 4.7277105396759138e+00 1.0400640594249671e+01 1.2050788675492084e+01 0 0 0
1102 1 1.7563105986726770e+00 1.0855685619091442e+01 1.2675021107436885e+01 0 0 0
1103 2 1.6552066664761473e+00 1.0098880188191194e+01 1.2043859989135578e+01 0 0 0
1104 2 8.8598564714754047e-01 1.0937485594747500e+01 1.3188089658884971e+01 0 0 0
1827 2 3.8053533128253387e+00 3.1704149418685645e-01 1.8380521081852216e+01 0 0 0
1108 1 1.6262410785052810e+00 6.5531036295420115e+00 1.6652066492680568e+01 0 0 0
28 1 1.6555303914929900e+00 5.1992960666326871e-01 4.8159096235090058e+00 0 0 0
1110 2 1.5775398825034546e+00 6.2720185121964347e+00 1.7619143431024504e+01 0 0 0
1111 1 1.0772819603630140e+01 7.8957407501404830e+00 1.5778794726359743e+01 0 0 0
1112 2 1.1420939566775527e+01 7.9120623235318659e+00 1.5034779803213828e+01 0 0 0
1113 2 9.9695918260727368e+00 8.0482082185061472e+00 1.5239412137396366e+01 0 0 0
1114 1 9.1217533097497441e+00 8.0391061797591554e+00 1.3667835229105252e+01 0 0 0
1115 2 9.5023502585199786e+00 7.3461614189791105e+00 1.3114679754532046e+01 0 0 0
1116 2 8.1235077213454296e+00 7.9019138812273235e+00 1.3552715526736106e+01 0 0 0
33 2 1.1217309820952487e+01 1.7863762255407669e+00 3.5540451340456709e+00 0 0 0
1120 1 9.5578218369203398e+00 1.0859607257850421e+01 1.5128134893262517e+01 0 0 0
1121 2 9.1323124656422223e+00 1.0590454202137909e+01 1.4267873732357574e+01 0 0 0
1122 2 1.0552722006753035e+01 1.0773367224507661e+01 1.5030417412211120e+01 0 0 0
1123 1 7.8255418155306034e+00 9.0608245332875210e+00 1.6575875374247531e+01 0 0 0
1124 2 8.4698611635476340e+00 9.4835222834128956e+00 1.6040182358900665e+01 0 0 0
1125 2 7.7119712929270934e+00 9.5188550159678726e+00 1.7420478733266641e+01 0 0 0
1126 1 6.1716356695450649e+00 7.7442616734048437e+00 1.3419913679167554e+01 0 0 0
1127 2 5.8024858282431877e+00 7.0142563569393701e+00 1.2930679523984344e+01 0 0 0
1128 2 5.6555133283385643e+00 8.4510361876328997e+00 1.3014716930934437e+01 0 0 0
1129 1 1.0948908383091226e+01 9.6962888565620453e+00 1.1856420397802639e+01 0 0 0
1130 2 1.0270408378334961e+01 9.3562410651646566e+00 1.2479033221005885e+01 0 0 0
1131 2 1.0886289594307351e+01 9.1028462673415849e+00 1.1093317416971598e+01 0 0 0
1132 1 7.7477447332128131e+00 1.0441767251321011e+01 1.3044346013095899e+01 0 0 0
1739 2 6.9601263142864536e+00 1.2197735777936307e+01 2.1946118018995897e+01 0 0 0
1134 2 7.0074686763118788e+00 1.0534012446658632e+01 1.3760234518145380e+01 0 0 0
516 2 9.2424238162085235e+00 7.5521965620886522e-01 7.0877636826877586e+00 0 0 0
1137 2 1.1163730379186505e+01 1.1562699896127938e+01 1.1852021634673068e+01 0 0 0
1138 1 7.6948164622108335e+00 6.2514030246666561e+00 1.6773984056560380e+01 0 0 0
1139 2 7.5616298238754176e+00 7.1932147226347114e+00 1.6589818091479216e+01 0 0 0
1140 2 8.4810646546168140e+00 5.9762968042036357e+00 1.6300782889891444e+01 0 0 0
1740 2 7.9996832025130251e+00 1.2043856560998661e+01 3.0254536068866228e-01 0 0 0
16 1 2.6800995968797614e-01 1.6569315825170816e+00 2.4979265639411836e+00 0 0 0
1518 2 1.2008062003944758e+01 2.3259917971365307e+00 1.8747712365905464e+01 0 0 0
152 2 1.1180772956682523e+01 7.5950629190201742e+00 3.5467542205017941e+00 0 0 0
162 2 9.1026895343333205e+00 1.1185469565539538e+01 4.2927833694567248e+00 0 0 0
175 1 1.0659376405333507e+01 1.2132510902792209e+01 7.6798824997495452e-01 0 0 0
1606 1 6.3875838170315742e+00 7.5611959461219502e+00 1.9344334121932285e+01 0 0 0
219 2 3.3591248056437112e-01 1.1284389358414233e+01 4.1826741369506806e+00 0 0 0
99 2 1.5956699029163496e-01 4.2958447182254114e+00 4.0785613157619132e+00 0 0 0
1441 1 4.4673488283574088e+00 1.7935225472719758e+00 2.1442185427924507e+01 0 0 0
579 2 1.9478957215763848e-01 4.6996530766901250e+00 8.4811455268370537e+00 0 0 0
1443 2 4.4973290558409467e+00 2.3718416844226016e+00 2.2168825602379471e+01 0 0 0