LAMMPS data file via write_data, version 8 Apr 2021, timestep = 86945000

576 atoms
2 atom types

0.1765189419909636 17.743482058012596 xlo xhi
-0.02848205800592886 17.538481058015126 ylo yhi
0.32151894199212494 17.8884820580186 zlo zhi

Masses

1 16
2 2

Atoms # atomic

288 2 2.1475458438981256 2.636217942469196 1.7405362747307265 3 -1 1
41 2 3.6626963395569674 0.90268093870531 2.924971443279041 1 1 1
240 2 1.3126932968900633 2.392679286985869 3.8651705468397095 -1 -3 2
238 1 1.6298758710934929 1.5814700758489852 3.334290881601739 -1 -3 2
239 2 1.396529077918698 0.8143033909146692 3.9550018508802443 -1 -3 2
287 2 2.247348843674899 4.118604928446973 1.2582512414690967 3 -1 1
286 1 2.6611514536188166 3.2421778825013354 1.1334509706171034 3 -1 1
242 2 4.4866126131690445 2.941726237835912 3.2385958131411456 0 -1 1
190 1 0.880278062335861 3.7457890320709706 4.505443179057792 0 -2 0
40 1 4.615532323297369 0.8811101664879905 2.6974440925055476 1 1 1
241 1 4.624946575592604 3.5175257956645587 4.028333474822107 0 -1 1
195 2 7.020258064608585 1.0405576114862196 1.807905809248821 3 0 2
243 2 5.520956912083556 3.239966723722534 4.333377310402897 0 -1 1
194 2 7.043082697002217 1.8529753206016426 3.2199062545918515 3 0 2
193 1 7.470816692441487 1.655788032817327 2.3930874682891603 3 0 2
374 2 8.121207561866164 3.177015968262032 2.1069198601376105 2 4 0
373 1 8.487235015615724 4.044350801399577 1.8253232710277076 2 4 0
375 2 7.751412193970035 4.3563295067688195 1.2921078961976982 2 4 0
20 2 5.300043145568532 4.020427203201917 0.32850005602837623 3 -1 4
206 2 8.934041753676873 0.9109179827983218 2.950275215917528 -5 4 -3
42 2 5.021003730525412 0.10505388558341698 3.1693094040995446 1 1 1
376 1 6.47392288108351 0.3373582960916737 0.3424447063927747 2 -1 -3
91 1 11.754182315433162 0.5940158961987558 0.96052510302815 1 2 2
198 2 12.636011711007562 3.3014160439065288 2.9420080315385024 -2 4 1
207 2 10.468605352803719 0.45988620347110587 2.557341767236456 -5 4 -3
205 1 9.879469601614177 0.7563261659317582 3.272127293993626 -5 4 -3
8 2 10.94183040695389 1.9790627835873238 3.6382100846822616 3 -2 1
7 1 11.747913316081137 2.388613437885195 4.091255721461309 3 -2 1
197 2 11.954228971787016 3.5792781091328028 1.5832152138086368 -2 4 1
196 1 12.677166878371459 3.8469874622382516 2.14189816732094 -2 4 1
495 2 10.022938870480838 3.6916104126560216 0.9687361484701005 0 0 0
493 1 10.799122374373935 3.4175575170194277 0.3970817247078366 0 0 0
9 2 12.169467691248862 1.6678224500176233 4.597589546534174 3 -2 1
92 2 11.440733145692473 1.4906025840885861 0.588113892469853 1 2 2
546 2 14.624825975651211 0.2872288394162493 3.490442295519727 1 3 3
532 1 17.094700296860676 1.2599413986517392 1.3418305255522551 -2 1 0
534 2 17.345600049316566 1.4132756668430682 2.2308486533204466 -2 1 0
324 2 15.361437285829942 2.810910889279942 3.786972515720146 -5 0 -1
322 1 15.52107626412603 1.8736446413860917 3.9257848816704093 -5 0 -1
533 2 16.146485641000073 1.0022847262207393 1.2630132463859447 -2 1 0
540 2 13.569012801096777 3.964637775414963 0.490148970839381 -4 -2 3
237 2 13.632621454116448 0.5521324260466108 0.5663493168270483 0 1 0
192 2 17.488776344844922 4.072429757981124 4.377808352532262 -1 -2 0
235 1 14.590328651369406 0.39376504086402053 0.4914959208940131 0 1 0
393 2 16.923620517241098 2.927311930445873 0.6982829530874709 1 1 -2
191 2 1.544192207278156 4.428749680917255 4.392584779918044 0 -2 0
254 2 3.7093927717950406 4.995974834449156 4.1890945306455 -1 -4 -1
255 2 2.5814253979441153 5.703690971877985 3.2816813316020066 -1 -4 -1
253 1 2.8695580084994052 5.520013557861935 4.210054202530788 -1 -4 -1
76 1 1.9435865615248558 5.806773489405841 1.9185166303781196 -5 3 1
78 2 0.9461668494479569 5.9024992534604355 1.7712762553006858 -5 3 1
77 2 2.39173524436127 5.924387590365818 1.0173694008408505 -5 3 1
89 2 8.25198316123656 4.618208193317151 3.6297928800097554 0 3 -2
88 1 8.38249907060647 4.841877397032017 4.5568372369818775 0 3 -2
201 2 4.813388599348122 6.989383165662927 2.4873355813593956 0 -2 2
200 2 5.7009230116661245 6.279061736488524 3.709426140357615 0 -2 2
199 1 5.523421847099347 6.290803714473743 2.657610388163861 0 -2 2
131 2 7.180202777494464 6.844296758050803 2.0684594558900105 2 -3 0
21 2 5.76171743734582 5.21603176853626 1.221152133514943 3 -1 4
130 1 8.052963470324181 7.3678566383331825 2.0128502751760515 2 -3 0
132 2 8.4715097352359 7.545764789789256 2.9005444686673703 2 -3 0
466 1 4.652486154470524 8.303470290808157 1.0974711066673348 0 -1 -2
19 1 5.898083072617993 4.758631841611807 0.36636666868342965 3 -1 4
264 2 10.414740313401754 8.078512167695365 4.467601446252075 -4 0 -1
260 2 12.33208613104773 6.5078666867681525 3.690123713105249 -1 1 1
524 2 12.173648045255923 7.639644349281046 1.5509281387048954 -1 7 1
259 1 12.726623260146974 6.50154329690384 2.7891499630871537 -1 1 1
261 2 12.549642038346573 5.529591244775353 2.518780644215088 -1 1 1
90 2 9.329086534402158 4.99245955221702 4.644361293447368 0 3 -2
269 2 9.13584408086306 7.4215659615101375 0.6344662618062149 -3 1 6
262 1 9.588992349116438 8.30520567936084 4.063840508349422 -4 0 -1
523 1 12.218250785747143 8.052507524753606 0.6764567908123281 -1 7 1
525 2 11.270308048569433 7.968027952039093 0.38744084953976454 -1 7 1
559 1 15.935039261344373 4.477422676712874 4.304288338587894 -6 0 3
342 2 16.807592116108268 5.14466693407142 0.5680728734584445 4 -5 -5
340 1 17.07130927503356 6.00573370607204 1.0555788305015323 4 -5 -5
56 2 15.470485038153587 7.687468460953431 3.599060592692235 -2 1 -1
341 2 16.57317621353145 6.13643327812007 1.8663662077766303 4 -5 -5
57 2 14.422850246227844 6.5898832052220655 3.196703966463804 -2 1 -1
55 1 15.353204755557234 6.829930660467822 3.124197071165468 -2 1 -1
560 2 15.64153237335943 5.332386869015535 3.849795692397023 -6 0 3
364 1 4.206608874217769 0.21518281177078946 9.072309515164788 2 0 3
427 1 1.454770171717784 0.3850652322678357 8.571575234430572 1 -2 -2
26 2 1.5794870494188085 3.6061876259243975 7.664829046753672 0 0 -2
347 2 2.9949048958621773 2.5032554181178206 6.775427684975335 4 2 2
429 2 1.3779599179117374 1.1952194244409224 7.989915160036749 1 -2 -2
25 1 1.2837060843165033 2.9160910859789357 7.066949603960346 0 0 -2
27 2 1.1796172753177978 3.330734049241373 6.191093073333751 0 0 -2
348 2 3.939563648578096 2.866534528503623 5.6357987412862025 4 2 2
346 1 3.929939846552501 2.6117368174461926 6.556025480372715 4 2 2
498 2 4.245067958260426 4.237339579720084 7.033996671634023 -2 -4 1
365 2 3.337155699708466 0.21530112144386526 8.651259396203438 2 0 3
454 1 6.913847827638815 2.411128234769253 4.910125258820657 6 1 -4
381 2 7.738273992350245 0.9999737642213757 8.317441851363784 1 2 -1
455 2 7.61255369079489 3.0131769276578004 5.066612265241773 6 1 -4
456 2 6.766651756088049 1.86936898411389 5.759855158748437 6 1 -4
186 2 5.775168187743215 1.1466827133778794 7.243469389071521 3 0 2
184 1 6.684818261846875 0.8079436982264673 7.032275126617514 3 0 2
379 1 8.36825599724012 1.3892402254322627 8.993827801675515 1 2 -1
380 2 9.20833026208586 0.9439642242208096 8.766761486856073 1 2 -1
101 2 11.898030736265982 1.5317590274360158 8.566841108733481 -2 -2 2
104 2 11.246210225459068 3.7948119690682156 8.452141568205482 2 -1 4
367 1 10.890302436893096 0.17493584525982653 8.435478206656352 -1 -3 4
234 2 11.273152476405395 3.67683885633524 5.001326471828303 2 0 1
100 1 12.354223570206575 2.397790502466305 8.718751950068494 -2 -2 2
330 2 9.68236248699918 0.18939946634805666 5.02957288857037 6 1 1
249 2 13.233875101777897 4.0994516213839844 6.50177786282666 1 -9 -1
484 1 12.502192785686258 0.036391087700315725 5.3024419034785115 1 7 -2
233 2 10.781328189048898 4.095115120207969 6.469103475164261 2 0 1
506 2 13.809976811241809 1.462082137928663 7.8781088106415105 -2 -2 4
507 2 13.667620554872103 0.676099911867737 6.566600564871606 -2 -2 4
323 2 15.941613445116735 1.8096808029037186 4.789000129276818 -5 0 -1
505 1 14.278681808815527 0.9041678588361326 7.276698671599991 -2 -2 4
250 1 16.572675560274025 1.5037498153434683 6.3099077746253185 -1 -1 1
251 2 15.715776510302709 1.377030219432228 6.798319004179428 -1 -1 1
252 2 17.05931180522709 2.1487658681105675 6.828785990947013 -1 -1 1
248 2 14.507837852385872 3.892112194199028 7.437112993634461 1 -9 -1
297 2 17.711701206797773 0.1366955598332687 5.444698994489305 1 0 -4
509 2 4.530530686067577 8.208930087248882 5.662703248588956 -2 1 2
516 2 2.5896095307647005 7.03841847794801 4.874050297615095 -1 0 0
514 1 2.6705186526016633 7.985931673281751 5.059980260840589 -1 0 0
515 2 2.085373535259273 8.210707524433682 5.785299233882947 -1 0 0
87 2 2.9662903473315763 5.247934994848785 7.8977396479872795 3 6 3
85 1 2.1217956818264003 4.972560800708821 8.264160739848469 3 6 3
230 2 1.1630000084186856 7.9972388677188775 8.729388342015884 2 0 -4
229 1 0.5421935463072433 7.265559764956939 8.907050566518036 2 0 -4
231 2 0.9759025051160967 6.420651391380646 8.654513523473728 2 0 -4
496 1 4.589115961740745 5.171542586794742 7.149171714183392 -2 -4 1
476 2 7.071278735337361 5.531325537337057 5.236192259979611 1 -2 -1
510 2 5.972813541807475 7.690773533309678 5.651854094425367 -2 1 2
475 1 6.207496248361259 6.015272250338775 5.214690540805073 1 -2 -1
497 2 5.0904228470138095 5.2268401762657914 8.02742630367295 -2 -4 1
477 2 5.650237652568184 5.578947304383049 5.917412049160894 1 -2 -1
508 1 5.46037135193576 8.441560267568823 5.912528347418538 -2 1 2
562 1 10.97520862188418 8.609561278303216 7.63267337418512 1 1 -1
34 1 11.778414025575252 6.944265590224115 5.214920374549659 0 4 -4
563 2 10.986410716652012 7.9506298199055605 6.926231804219464 1 1 -1
35 2 11.47166747973591 6.0109081604206605 5.498821930506325 0 4 -4
36 2 12.681400379782017 7.202465211131409 5.4691870524985235 0 4 -4
232 1 11.042067923604888 4.424157389590482 5.587503807698918 2 0 1
564 2 11.053850508168738 8.11044062589615 8.496804200617111 1 1 -1
103 1 10.686300717872946 4.538732877468365 8.189640487930701 2 -1 4
105 2 9.783428157240277 4.403856643261122 8.637500409589666 2 -1 4
531 2 11.138144566875173 5.97825085025508 9.098593154769484 2 -6 0
451 1 14.305146175317265 8.02303697793744 6.136619083986634 -1 1 1
452 2 14.71544852411549 7.529894859249692 6.850954805340491 -1 1 1
338 2 16.27732182283765 6.942508244077392 8.463119046480026 0 0 -1
339 2 15.209402844081776 5.737963557654275 8.379635297149983 0 0 -1
337 1 15.313693654672504 6.738485559902183 8.319827283881184 0 0 -1
247 1 14.13130214127744 4.375667621599037 6.694440457451221 1 -9 -1
561 2 15.543765561689943 4.44637210412212 5.191260373849432 -6 0 3
440 2 0.9688988871385491 2.008696419980897 12.47626138422474 0 -1 -3
425 2 3.8489114619689464 3.1634899758759585 10.745358638536755 0 -2 1
439 1 1.2895485086884115 1.2543701385955734 13.01966120726898 0 -1 -3
123 2 1.6615127301954966 4.134631019537619 11.204036907751913 -1 -3 -2
121 1 2.5370288625379853 4.283515393836097 10.880438555030668 -1 -3 -2
426 2 4.522572898192872 1.9749176332228968 9.886088645673949 0 -2 1
401 2 2.201911507039026 0.10150854954403184 11.678816058409968 1 3 -2
424 1 4.718184308116498 2.797980194059714 10.443056748475808 0 -2 1
420 2 5.511382381195505 2.418363423599825 11.731879139283302 2 4 0
81 2 7.128404423719558 0.9985289760231002 11.809640988935753 0 0 2
80 2 7.896247273577038 0.5810043642182255 10.446270801731838 0 0 2
418 1 6.0755705897899706 2.0751066869967842 12.518623538513328 2 4 0
79 1 7.5261850836868005 0.22209938115885264 11.346521199968688 0 0 2
174 2 5.58161986209088 4.31275586700369 9.831577022775301 1 0 -1
419 2 6.584330362659655 2.8576832779796115 12.902570164283027 2 4 0
502 1 8.528070198047033 3.893960101684947 9.54320541407905 2 2 3
30 2 8.377714441093783 0.25413501383018 12.619234641447312 -3 1 1
504 2 8.92502807042425 3.637153813562051 10.465757379587668 2 2 3
503 2 8.323627221757643 2.9911135810313816 9.249089282107537 2 2 3
163 1 9.711922442743209 3.5706699123018866 12.141473246257812 1 2 -1
164 2 10.087657596636307 2.794321819455625 12.541520088193792 1 2 -1
537 2 12.198876128949447 2.791730277068627 11.898405481406561 -1 -2 -3
102 2 12.48366658651231 2.5470342363566534 9.70173321266491 -2 -2 2
535 1 12.788569798560063 3.0844285835162184 11.129071691244672 -1 -2 -3
536 2 13.036826123218464 3.994004406953793 11.41248851283987 -1 -2 -3
302 2 12.462784347387927 0.22706635284131937 13.079125931385313 2 -3 0
165 2 10.380926088640322 4.271177984072631 12.430372857640384 1 2 -1
151 1 11.30195228561702 1.7616722358173365 13.469710070740456 1 3 4
28 1 8.993082140706457 0.29694778350291196 13.39630859471896 -3 1 1
136 1 15.152499272703984 4.027222742894473 9.194126991310359 4 2 6
138 2 15.73397729365454 3.2850207192429624 9.358174722879907 4 2 6
490 1 17.460635384326316 3.0797881732062695 11.750319298405218 -2 -1 -2
491 2 17.047940912678857 2.456586448714344 11.185479359850282 -2 -1 -2
492 2 16.841782873165197 3.4587078368420867 12.359497180465269 -2 -1 -2
482 2 15.995914633480732 0.9964755775290255 9.685343826032186 1 -2 2
481 1 16.668051285548376 1.7111813614663418 9.618151608356559 1 -2 2
483 2 17.47571387082067 1.2122660701941856 9.342190956090558 1 -2 2
122 2 2.8886811776605223 4.808945506376679 11.648526689092812 -1 -3 -2
576 2 3.7557654759581656 7.284140630859842 12.319343925907452 -3 2 2
160 1 3.151295272683729 5.769002187422202 12.945405388852949 -2 2 -1
410 2 0.48464608133332465 6.910934511659528 13.219221928422725 2 2 -2
86 2 2.2749545716367767 4.805031489173315 9.22489123144786 3 6 3
574 1 3.972618525836951 8.100542173367932 11.866327399615729 -3 2 2
389 2 8.067107167947572 4.411465926900712 12.623743332780059 2 1 2
575 2 4.669486954714639 7.8496522193579965 11.236205539978238 -3 2 2
450 2 6.925004475622033 7.667945689542625 10.513909127400275 3 -2 0
448 1 6.0642221548902135 7.587010544977659 10.149500588347252 3 -2 0
449 2 5.906825451283099 6.624710889347687 9.856877556083768 3 -2 0
202 1 8.722023683651217 7.750244120046274 11.224261906221468 -1 0 -2
173 2 7.0278812133619395 4.830467880454877 9.538840916361664 1 0 -1
388 1 7.324665623985197 4.698797857409663 13.221933852819593 2 1 2
172 1 6.07610465340674 5.072260852181361 9.532986329387022 1 0 -1
530 2 12.003311661746215 6.825748707063091 9.961319978675897 2 -6 0
47 2 9.444032767204627 7.8327374441727535 12.628479623878146 -7 0 -5
46 1 10.057163791215288 7.896723684382658 13.412064239857385 -7 0 -5
204 2 9.42810969794387 7.2905317604966635 10.765910602085977 -1 0 -2
572 2 13.067804907297962 7.902886893599318 13.455484050495826 -2 -1 1
517 1 11.20088420286719 5.534944936476821 13.432241792166527 1 -4 -3
529 1 11.065178646188038 6.77265996815888 9.708059605069797 2 -6 0
48 2 10.743363714421555 8.603368560415763 13.214028625162708 -7 0 -5
336 2 13.447420712863574 8.332545818888564 10.456570652398446 -3 3 -1
334 1 13.581145576076887 7.367144413277154 10.300654985966744 -3 3 -1
408 2 14.240884652882913 6.275041615865383 11.607275290697562 5 4 -4
137 2 15.066306056135781 4.536931087884986 10.04296946663863 4 2 6
406 1 14.89180070806834 5.540554983383224 11.543831876665857 5 4 -4
407 2 14.960749583213383 5.120791516156448 12.428539834980203 5 4 -4
317 2 17.566571690930434 7.09802572264191 10.600718106778565 1 0 0
316 1 17.18798567751763 7.143474823547447 11.487964549621692 1 0 0
318 2 16.396354117910867 6.496933540134057 11.478344854309452 1 0 0
267 2 16.615947196707104 8.727149862665145 11.060163970031605 -3 1 -3
335 2 14.173715299918408 7.233964321319307 9.567355880164536 -3 3 -1
315 2 1.056929112050809 1.0777425431970866 17.831687318480583 -2 -2 1
413 2 3.7881431338149643 2.448406244051978 17.78400401517405 0 -4 -2
313 1 1.7057321481391732 0.6641079280020614 17.199654021124278 -2 -2 1
441 2 1.682582316499311 1.677600226320232 13.840707064396337 0 -1 -3
225 2 2.3344059779430824 1.971439841542721 16.074081420681914 3 1 -3
223 1 2.5687780647039444 2.570330033262808 15.347242075313472 3 1 -3
224 2 3.420937561550201 2.9950086929499427 15.582797788663079 3 1 -3
434 2 1.2313426800706337 3.7851090523131794 15.270420674314463 -1 -2 3
72 2 3.8464559901867434 1.3962377308555702 14.839648294992521 1 -1 -1
414 2 5.000441915662134 1.4078776902375127 17.41780204188288 0 -4 -2
378 2 7.071713711657001 0.4901123300055419 17.137751515574685 2 -1 -4
412 1 4.670684553145399 2.3468729313664425 17.32544808617848 0 -4 -2
71 2 4.965662437880318 1.1759535511555241 13.867463294900144 1 -1 -1
70 1 4.628383356183174 0.8228188878383434 14.686263527494864 1 -1 -1
108 2 6.57248702318666 1.2458810716896207 15.227183170277105 -3 -4 -2
106 1 7.535976538153913 1.4371385821728637 15.443166247291177 -3 -4 -2
300 2 7.547352457163917 3.0202368841353198 15.98402802141936 0 3 -2
298 1 7.599967379235574 4.055597001014741 15.879181518167599 0 3 -2
107 2 8.008631033464193 0.8790534738316831 14.794866345079045 -3 -4 -2
390 2 7.480222692430512 4.356799625779185 14.092793922692705 2 1 2
152 2 10.52607398554628 1.2685289443331156 13.725053621365513 1 3 4
153 2 11.684859350856515 2.1788187876537193 14.243851469748302 1 3 4
494 2 10.872514692417319 4.085508025210281 17.28570476084718 0 0 -1
392 2 15.591206884834461 3.3652305058661156 17.544921450257135 1 1 -3
538 1 14.077985987954259 4.190540346851627 17.240970857308284 -4 -2 2
319 1 13.391064808292798 2.836031221103015 15.027590470083679 3 3 -2
320 2 13.63040257406961 3.355571132504176 15.794877319388974 3 3 -2
284 2 15.212317748905589 3.5577796380515454 14.20737526199257 -6 3 3
391 1 16.568841583397607 3.525429591542708 17.562202559688107 1 1 -3
321 2 13.638985179186168 1.8797952280178276 15.14602700945198 3 3 -2
283 1 15.953326489102517 3.9127914180132626 13.710605356801063 -6 3 3
22 1 14.529328202374614 0.4419736803409514 15.45709541292441 0 3 -3
236 2 14.737274280754837 0.5628383928496632 17.028058417857707 0 1 -1
24 2 15.244424179090592 0.3948389030387306 14.850013190019041 0 3 -3
188 2 17.42656189592545 0.4092362891242437 13.593160721601263 -4 2 0
435 2 17.644411359009602 4.134974727310088 16.230656110643004 -2 -2 3
285 2 16.588487008584018 3.9349413217233353 14.43738244526353 -6 3 3
161 2 2.537373938543173 6.111841838187301 13.5584953707572 -2 2 -1
409 1 0.8978682646988418 6.748306857505712 14.08643857644133 2 2 -2
433 1 0.534171462568738 4.42183914625842 15.430353476544047 -1 -2 3
211 1 4.374708405834945 4.584292849753355 15.050323244648625 -3 -1 -1
162 2 3.7677355404585877 5.342809961583892 13.542682439273667 -2 2 -1
275 2 0.7647835143585072 8.361437285627288 14.963648301929235 -1 -2 0
171 2 1.8869219049044155 5.451179267792623 16.469483649764197 0 0 4
169 1 2.6859348799479768 5.868573321409452 16.80195630181559 0 0 4
411 2 0.3801488961020214 6.0088303837948125 14.403887869472872 2 2 -2
213 2 4.042969520429222 5.077584026604816 15.813640862560971 -3 -1 -1
170 2 2.7496449493714787 6.734069947520767 16.369181896621676 0 0 4
10 1 4.096932374458819 7.9094519202999765 15.466446596323719 3 -3 2
299 2 6.90825136581722 4.4318836957824175 16.48079607860341 0 3 -2
468 2 4.657141431920594 7.722926115542869 17.87644530919485 0 -1 -3
212 2 5.340049565455994 4.597217045463171 15.021961366816754 -3 -1 -1
480 2 7.031859325582792 6.5383983952222495 13.783096063358688 -1 0 -1
479 2 6.958774582881125 8.082697399034343 13.912328981546587 -1 0 -1
478 1 6.53093182986966 7.268471489827082 14.139798714820527 -1 0 -1
12 2 4.904214620036243 7.763931804561956 14.88949403158039 3 -3 2
573 2 12.772447925400789 6.434988664658065 13.691527615197618 -2 -1 1
518 2 10.723876439236122 6.418834671664731 13.526854087023661 1 -4 -3
474 2 9.178511737016038 4.642353438043113 15.794423320307557 -1 1 0
268 1 9.779172635025688 7.626985321377519 17.454013998831204 -3 1 5
270 2 9.455021641342638 8.451546940642194 16.991187301144556 -3 1 5
472 1 10.099125701876778 5.058720131400282 15.944531209131933 -1 1 0
473 2 9.941232465671042 5.995757285863251 16.218373284382462 -1 1 0
519 2 11.224041444030025 5.199204453621138 14.340835601342299 1 -4 -3
354 2 13.19096403569075 7.2513869507258395 17.055759812074367 -2 2 -1
352 1 13.859712741620147 6.773561439240001 16.526165720878613 -2 2 -1
571 1 13.444150161482181 7.124107576469543 13.783277185049746 -2 -1 1
539 2 14.016583756878298 5.180778572038668 17.1246579793753 -4 -2 2
155 2 16.686088620167098 7.53719622252292 17.518493652746937 1 1 0
156 2 15.29314396809399 7.5744963986019895 16.79096743362646 1 1 0
353 2 13.567342095384744 6.995636000479117 15.570557796633532 -2 2 -1
154 1 16.051584605830435 8.092316620965978 17.034037584758448 1 1 0
372 2 3.1817480369049385 10.918290459891828 1.8779824155929363 -2 0 0
371 2 2.0595852412024223 9.854397914698547 1.903293333959489 -2 0 0
370 1 2.777548222669058 10.212449510176455 1.2782934529885783 -2 0 0
244 1 1.3102779087973964 9.590481265169506 3.3891270593801988 1 -2 0
97 1 4.0666788355824535 12.106971558311391 2.441400668857418 4 1 -1
180 2 1.6325537615084484 11.09746932731858 4.218524141544145 1 1 0
245 2 0.3549837153266936 9.329188711641848 3.3601788653348237 1 -2 0
98 2 3.8675876523740045 12.838307484013518 3.0370188792624075 4 1 -1
438 2 3.7590397855032553 13.088665178544192 0.49699148048283825 5 2 0
246 2 1.761612941638893 8.885430585601556 3.976595533858261 1 -2 0
467 2 3.8889586275067796 8.956766091908873 1.0760380584450033 0 -1 -2
99 2 4.975788809596559 11.9233956154009 2.4262856862946975 4 1 -1
457 1 6.965601783268376 11.495848181361227 2.7798049612775078 -1 -1 0
459 2 7.087721489402568 10.933438285928496 1.9372342158202676 -1 -1 0
458 2 7.030103902487837 10.875203949413557 3.5298676601345877 -1 -1 0
460 1 7.062282056093261 9.57716371532935 0.6790139542287035 -2 1 -4
461 2 6.102679091480174 9.213585493397908 0.656768677953222 -2 1 -4
462 2 7.435552664551473 8.76988074924385 1.0902035727475428 -2 1 -4
217 1 9.985743189006234 11.091806805238186 3.532831274120793 -1 3 0
405 2 11.814476551602702 11.319112735494215 3.288690418907759 -2 -4 -3
218 2 9.900557376976385 11.587535369333612 4.379360904745315 -1 3 0
403 1 12.731277863300297 11.648157714966501 3.125071105966962 -2 -4 -3
219 2 9.470930289328995 11.597278499010551 2.914021746642178 -1 3 0
263 2 9.685383590530492 9.254449584535637 3.827459436048828 -4 0 -1
404 2 12.933025244039124 11.17052837542504 2.219228870560504 -2 -4 -3
208 1 9.172499345747994 12.145666315519254 0.9012086435544795 0 2 2
4 1 13.086937355598147 10.409511253641035 0.8335243956714183 -1 -1 6
6 2 12.772979697156236 9.468766856734904 0.7969824391499385 -1 -1 6
141 2 13.905654059384906 11.339871454221749 4.2245643149599275 -1 0 -2
422 2 15.755298913576013 9.99329108758902 3.987828199474152 -3 2 -1
423 2 16.104847252466055 9.817420917856078 2.4870683615775953 -3 2 -1
421 1 16.288908897070822 9.426260741549195 3.3820605765262175 -3 2 -1
73 1 15.913799437308427 10.291505930370697 0.9768013926001992 1 1 4
75 2 15.013240972139526 10.575748868288084 0.7077202144248044 1 1 4
182 2 15.914863665713572 12.49020867517968 4.666740278090827 -2 -3 -2
183 2 17.500615545282123 12.794397055299353 4.483567117439831 -2 -3 -2
74 2 15.948137221677086 9.394595442576353 0.4927733789471266 1 1 4
221 2 3.9141883182503006 17.149104139919043 1.4600798097034253 3 4 -2
214 1 1.2736981540528982 15.650638195023197 2.779943894177226 5 1 -2
215 2 1.7538036433562025 16.30477940763521 2.2665728551800473 5 1 -2
148 1 3.36236943418363 14.436957508315096 3.7499813570386014 5 -5 1
150 2 2.5904611532664297 14.942608770378422 3.5698890654922635 5 -5 1
220 1 3.2244494799016152 16.596848684517287 1.089422603058523 3 4 -2
216 2 0.746153916200541 15.025157658384915 2.250396775072596 5 1 -2
296 2 0.5394054478584521 16.5326460075651 4.4465593109159 2 -1 -4
222 2 2.6772972413370524 17.129483810412943 0.45878745230493806 3 4 -2
437 2 3.062316007562346 14.49126927415166 0.7198884722760008 5 2 0
149 2 3.3960014942292394 14.041951840997916 4.6640905693996215 5 -5 1
290 2 4.7657783125745325 15.323443922978285 3.6140156687179807 1 -2 3
176 2 7.376667514253914 13.45807006310704 3.1339276397852465 1 -3 1
175 1 7.516048839027089 14.404124551539471 2.8904488155711023 1 -3 1
291 2 6.28139457339938 15.589986955998555 3.3912221676729675 1 -2 3
95 2 6.595691862115396 14.860455755793177 0.993690903449827 2 -1 5
289 1 5.484068556102165 16.023259811045847 3.756437093172916 1 -2 3
177 2 8.398338119428544 14.54162069261085 2.4798758778722125 1 -3 1
96 2 5.193683355534613 14.76330169487791 0.4120991476624744 2 -1 5
446 2 12.587866996375242 13.381166722438444 2.732054047705098 1 -1 1
387 2 11.985426636568 14.628687841233353 4.459045626732465 -1 -2 0
279 2 10.948867908410406 14.538052860455096 1.9029739413916338 -2 2 2
278 2 9.85507595903975 13.547775046075387 1.2765398579949345 -2 2 2
445 1 12.512748887497846 14.34817946718414 2.5196651528838374 1 -1 1
277 1 9.999863447663632 14.544438043231047 1.5691298064222474 -2 2 2
447 2 13.271887549912305 14.651713180823556 1.9884115326882021 1 -1 1
486 2 13.138051560329723 17.29823304234743 4.561662334441684 1 6 -2
93 2 11.23261948920212 17.500824675081144 0.45577333174249346 1 1 2
181 1 16.583081651254997 13.176235462673157 4.427174752663307 -2 -3 -2
128 2 17.173861487762686 13.244038125226858 1.2794668843426908 -1 -2 0
129 2 16.818295923345726 13.573067353294608 2.8478738437587627 -1 -2 0
545 2 14.143518739139337 16.45911078058631 2.8606871033950205 1 2 3
310 1 14.507688781461919 15.405220522482107 1.1143041665168432 2 1 5
127 1 17.089641620888663 13.917399428452745 1.9593989763376642 -1 -2 0
312 2 15.405062294352513 14.970256583880891 1.22121748083493 2 1 5
311 2 14.630569478941473 16.357771480393 0.8105966732510739 2 1 5
544 1 14.41676115896414 16.93627520419261 3.6927968132799047 1 2 3
565 1 2.220308947603244 9.251612300674644 8.553682627509462 0 4 2
179 2 2.36981583930004 12.143885419623267 5.101761304880045 1 1 0
178 1 1.5081151102592936 11.966933038369135 4.7549744765048025 1 1 0
398 2 0.7924023430543924 11.222820877491595 6.15162605813616 6 4 0
399 2 1.2218828823093497 10.271281084768072 7.359039523139883 6 4 0
397 1 0.4561332730206604 10.57239721009516 6.781855116988779 6 4 0
431 2 4.558453161407733 12.833202835668923 6.225871091703857 1 2 1
566 2 3.2260893929193393 9.35108862686582 8.46989630803601 0 4 2
331 1 7.306363482374498 10.277007177353736 5.1735126671990255 2 -3 1
332 2 8.237328812901541 9.951356783860646 5.255625630350832 2 -3 1
273 2 5.231656164529365 9.154457808127198 7.515325278388634 4 2 0
333 2 6.627228800438486 9.527677475725616 5.289770675687678 2 -3 1
470 2 6.680584036014598 11.613885314734153 5.822501622019373 2 0 -2
469 1 6.110411570477864 12.235505503867117 6.408509651132238 2 0 -2
471 2 6.370273853772709 12.079232108270793 7.328875647892593 2 0 -2
271 1 4.773659452471577 9.432419624559666 8.383744395984632 4 2 0
50 2 8.729654643000593 11.11411758698143 7.97792221204704 3 1 -1
416 2 4.669954965573898 11.36580246161072 9.014115146720844 0 1 3
272 2 5.247550847908491 8.920409184677617 9.04863103296214 4 2 0
51 2 9.826355925967087 9.97154082960383 7.70167240735799 3 1 -1
49 1 9.695157566548145 10.926948072111331 7.822967080496655 3 1 -1
158 2 10.030934481630364 11.967046129808214 6.488810079572709 -3 0 -1
116 2 12.459871428530986 9.960173831900159 7.559816906981473 -3 -3 3
115 1 13.127503168631804 10.492136171150143 7.091992308449425 -3 -3 3
157 1 9.846105929367885 12.563968329093944 5.6598260815731685 -3 0 -1
568 1 16.675351281224653 11.368161127090293 8.94884903092154 2 -4 -1
44 2 15.092338159821836 12.101594544692663 8.715736651286209 0 -1 -2
117 2 13.47575429079567 11.080285616013475 7.8018343449203185 -3 -3 3
139 1 14.763701128215477 11.283743775923133 4.821966144361274 -1 0 -2
140 2 14.337198581294496 11.052339034045835 5.714248349300739 -1 0 -2
570 2 16.976136089957432 10.952743584463441 8.130046681535473 2 -4 -1
43 1 14.238423715148427 12.62362755972655 8.65323275781517 0 -1 -2
453 2 13.960594221138912 8.82787991710272 6.551129253872582 -1 1 1
366 2 4.335897594511081 16.771655498023144 8.992385237375892 2 -1 3
430 1 3.6078579390844037 13.151307227113719 6.0022970067387895 1 2 1
295 1 0.8599263059860976 17.162523970897652 5.081284876413846 2 -1 -4
362 2 4.010488920413665 14.739935116678312 8.58978349762054 1 2 -2
31 1 0.7882555872124349 15.857921554641889 7.295202415971601 -2 -3 1
33 2 0.9099289936595891 16.02194062344554 6.319106965240855 -2 -3 1
432 2 3.16531374346269 13.421757659380225 6.848405208131432 1 2 1
351 2 2.0201223067101903 14.801903269111074 8.251171645665146 1 3 -2
349 1 2.5421847203265933 14.015894200425722 8.366957142096862 1 3 -2
350 2 2.001748112492165 13.44799807706961 8.987010590859898 1 3 -2
428 2 1.0675164933150165 17.1157208203594 8.126271313125448 1 -3 -2
361 1 4.8202633174264555 15.23218663901714 8.37487910889982 1 2 -2
527 2 5.811152733391284 16.067543247765848 5.377413739153837 -4 -1 -1
526 1 6.130675879805952 15.917983039043445 6.316834054923404 -4 -1 -1
528 2 5.556440085459337 15.347790030811144 6.880481691433885 -4 -1 -1
360 2 7.6495676417998135 15.298953298879686 6.398671813763087 0 0 1
358 1 8.562687906519276 14.937370232511718 6.558212152575661 0 0 1
62 2 8.615738869096921 15.119554614455373 8.2948462463504 3 -1 0
359 2 8.73038092664365 14.009980464072477 6.246330244538052 0 0 1
185 2 6.624893642510134 17.453664307234266 6.699109350015866 3 -1 2
258 2 13.039696115062616 15.623398471754081 8.61126341548565 -2 -3 3
369 2 11.279047212611598 16.907077818042612 8.826443949378525 -1 -4 4
385 1 11.739533864561327 14.51885496483148 5.382280763538503 -1 -2 0
328 1 9.720436922616585 17.34759833971769 5.944333773199493 6 0 1
159 2 10.602578612824432 13.156580187301714 5.644097652952034 -3 0 -1
329 2 9.322529876509993 16.436553367363366 5.896206364895973 6 0 1
386 2 12.56711462652473 14.487744822738609 5.915871639989151 -1 -2 0
485 2 11.777968058357272 16.959834559932084 5.338813478856006 1 6 -2
368 2 10.625719193545265 17.469293574614017 7.555632378814943 -1 -4 4
58 1 13.826775631183208 14.799465048349541 7.035919822774112 3 3 2
65 2 15.53663426713723 16.32112119887446 4.936095350730171 -4 3 -2
59 2 14.130649123853955 13.9978997078522 7.501895167046926 3 3 2
64 1 16.01536710382682 15.743935940105311 5.536515852943844 -4 3 -2