LAMMPS data file via write_data, version 15 Apr 2020, timestep = 13600000

6144 atoms
2 atom types

-1.1021235028162693e+00 6.1070412634000427e+01 xlo xhi
0.0000000000000000e+00 2.8097410014746192e+01 ylo yhi
0.0000000000000000e+00 2.7158312316720014e+01 zlo zhi
1.0161771225164216e+01 1.0185260391452005e+01 7.1177274623721409e+00 xy xz yz

Masses

1 16
2 2

Atoms # atomic

783 2 1.4838528057099865e+01 2.1642975291790684e+01 1.7755517624968309e+01 0 0 0
1932 2 1.7158639668397626e+01 1.6616832335030498e+01 5.4182927489783053e+00 0 0 1
1791 2 4.2778770493699945e+00 7.7224484167038305e+00 5.2888240491240470e+00 0 0 1
254 2 2.2509297101454273e+01 1.9976071833502459e+01 2.4262308633210626e+01 0 0 -2
320 2 1.8658182149955657e+01 2.3557408000260896e+01 2.5884318731696123e+01 0 0 -1
52 1 5.3864412909172028e+00 4.5380872411117021e+00 1.0039504720909335e+01 0 0 0
476 2 2.5020878514155179e+01 2.6454466633812171e+01 2.5130259110687984e+01 0 0 -1
1655 2 9.3999685709950285e+00 2.5038309128600122e+01 1.4165515258087564e+00 0 0 2
2531 2 1.2728611022511236e+01 2.3683825930346408e+01 1.7395613557833418e+01 0 0 0
2440 1 1.0507755175244521e+01 1.8804644517924642e+00 5.9485458098843946e-01 0 1 2
1538 2 1.1588144997865584e+01 1.4144502722651083e+01 1.9484465939573010e+01 0 0 0
2610 2 1.7487417173519148e+01 2.2039057875468025e+01 2.0218371403680216e+01 0 0 0
606 2 7.4116605349223708e+00 7.4169334419297375e+00 2.0037517610062658e+01 0 0 0
392 2 1.3011396536104471e+01 1.2112007436215457e+01 4.2350800897514427e+00 0 0 0
1095 2 1.8681900534936496e+01 2.1419726548926139e+01 1.3506233089721090e-01 0 0 -1
2185 1 2.8655147178290413e+01 3.3092323816332808e+01 2.1885268919265112e+01 0 -1 -2
1615 1 1.2310915168159568e+01 9.7470425285041902e+00 2.4358833870555554e+01 0 -1 0
292 1 6.6678888769415146e+00 1.3088741609255127e+01 7.5471160745314458e+00 0 0 0
2095 1 1.8555031968333360e+01 2.0717685000824893e+01 2.4728614774505520e+01 0 0 0
731 2 3.2433255677929417e+01 3.2896089446643487e+01 2.3992467330391527e+01 0 0 0
1740 2 1.4610433572503794e+01 1.6725208205753290e+01 2.4042156656834678e+01 0 0 0
2390 2 1.1517516021478791e+01 2.5984417975215848e+01 1.0930939337847171e+01 0 0 0
2672 2 5.8700725615561709e+00 4.8328751223784003e+00 1.2879948701518639e+01 0 1 0
2100 2 1.3975129171034043e+01 4.5486216522883227e+00 1.4247189534138627e+01 0 0 1
487 1 9.9979720007905968e+00 2.1092012984452417e+01 5.3859583321239048e+00 0 0 0
897 2 2.0078544508877929e+01 2.8347403532290873e+01 1.0319501974856407e+00 0 0 -1
1742 2 1.1258714322772796e+01 1.0956175961171407e+01 2.1922786165411448e+01 0 0 0
222 2 1.0110687313680270e+01 1.1553012336970633e+01 2.3798709816892885e+01 0 0 -1
340 1 2.0630849165017260e+01 8.0427668722416694e+00 2.1521868902577804e+01 0 0 0
517 1 1.3249898545551233e+01 2.8708698885179271e+00 8.0906093413582081e+00 0 1 0
1404 2 1.8647017726957984e+01 7.9918557687422700e+00 1.3382644287854937e+01 0 0 0
1059 2 2.7162984154039997e+01 2.7792941930483444e+01 2.3489597899886501e+01 0 0 -1
2262 2 1.0861680936215455e+01 8.0754761873319403e+00 1.0099556827348846e+00 0 0 1
1275 2 4.4084716020948047e+00 4.3630942021404486e+00 3.4977265140924803e+00 0 0 0
1891 1 1.1838629465361088e+01 1.9766543658818883e+01 2.5932591840028167e+00 0 0 0
2674 1 1.9491878701988806e+01 9.9341930028013259e+00 1.0091238443744350e+01 0 1 1
65 2 1.0308807326993660e+01 1.9809620665891693e+01 9.3610636758279337e+00 0 -1 0
1060 1 9.8284740827630994e+00 9.4343165502002169e+00 2.6248880058060958e+01 0 1 -1
1635 2 2.2992337445661608e+01 1.8294989690454713e+01 1.3815616098797701e+01 0 0 0
2883 2 2.1777055092060674e+01 2.0002554416175357e+01 1.6751087363602704e+01 0 0 0
25 1 1.1173187670465589e+01 1.6540119961139016e+01 2.3396340172578514e+00 0 0 -1
2381 2 1.2784006314493460e+01 2.2303951238770740e+01 1.1777916410542749e+01 0 0 0
183 2 9.2297028521441682e+00 1.3766699152024037e+01 2.7949468955191787e+00 0 0 0
323 2 8.5065251027650195e+00 1.9248225146612068e+01 7.7478455162390434e+00 0 0 0
989 2 1.7513631539813534e+01 3.2404548169698032e+01 2.3871803559612612e+01 0 0 0
2364 2 2.2903157753973492e+01 3.0231695258446237e+01 2.6068233071186807e+01 0 0 0
1818 2 1.4139761058019308e+01 1.9896359133673503e+01 1.9468061418527220e+01 0 -1 1
233 2 1.3259804595471273e+01 1.8740775250477366e+01 2.1779272370047892e+01 0 -1 0
2607 2 1.7326090947583559e+01 2.4251071928335648e+01 2.1183498914729363e+01 0 0 0
2979 2 2.7660654071868251e+01 2.0676921115462967e+01 2.2309819802063764e+01 0 -1 0
1705 1 1.2266150650291038e+01 1.7489902020409893e+01 1.9205587578729105e+01 0 0 -1
357 2 1.5406434339541764e+01 2.5464528831288447e+01 2.3819016943832093e+01 0 0 -1
1899 2 1.7122846996240334e+01 3.1560361744438477e+01 1.9747147728172980e+01 0 0 0
2477 2 1.0643460957334481e+01 6.4829566478189147e+00 9.1776500279014215e+00 0 0 1
2564 2 1.7375530461742304e+01 2.6389875259104251e+01 2.6152755639627795e+01 0 1 -1
1129 1 2.0697314571797190e+01 2.1181801304537082e+01 2.0506530418146763e+01 0 0 -1
1830 2 1.6325786289419593e+01 2.9939608586945091e+01 8.5626797366060270e+00 0 -1 0
1593 2 7.2578040514055981e+00 1.0414997740323507e+01 1.5060441481828299e+01 0 0 0
786 2 1.6960869586369036e+01 1.9406459082752900e+01 8.8617559799366408e+00 0 1 0
1778 2 1.2054913285485977e+01 2.3657829111812745e+01 5.5379171359677928e+00 0 0 0
1521 2 2.2268448011892961e+01 1.5353735895540646e+01 1.2602217227537373e+01 0 0 0
2343 2 5.9368709151098935e+00 7.6616882188180044e+00 1.8839272184884732e+00 0 1 1
782 2 1.5380999122840578e+01 2.2980061189195574e+01 1.8272839943210244e+01 0 0 0
868 1 8.1212707446039722e+00 1.5402252788914774e+01 9.2280586920383900e+00 0 0 0
2953 1 2.0655472142247334e+01 3.1878632135856741e+01 2.4536182150668946e+01 0 0 0
31 1 1.0657284214455615e+01 2.4856981456951385e+01 6.2285965127096414e+00 0 0 0
979 1 9.2766425824104140e+00 3.2453560631681415e+00 8.9034378698829677e+00 0 1 -1
894 2 1.0996123805957923e+01 1.7615912253024899e+01 7.2101049636280301e+00 0 0 0
29 2 1.2356204256114806e+01 2.1555681420335258e+01 1.5494764698849158e+01 0 0 0
1274 2 4.8091067036998787e+00 5.6471141685271409e+00 4.3907459524575110e+00 0 0 0
2957 2 2.0860764113984029e+01 2.3045105689100087e+01 9.4800484014566457e+00 0 0 1
1669 1 1.6131183448488294e+01 2.5500578455792912e+01 2.2130842927544638e+01 0 -1 -1
139 1 2.0193515826102427e+01 2.4387038015316975e+01 1.4245003650644490e+01 0 0 -1
1428 2 1.9242626809052535e+01 1.4495076949632887e+01 5.8014312884836414e+00 0 0 0
1812 2 4.1390021285091123e+00 4.3575921339551469e+00 1.1169262756746534e+01 0 1 0
1712 2 9.5801737464586090e+00 1.5544954691057173e+01 1.2760554925089851e+01 0 0 0
2519 2 2.7196713468507447e+01 2.3786476360225898e+01 2.0726163659438008e+01 0 0 0
249 2 4.1401189987344651e+00 5.2041738830417952e+00 8.8085208481505362e+00 0 0 0
1739 2 1.5139479507835738e+01 1.7909708759824319e+01 2.4973313147049023e+01 0 0 0
1204 1 1.7557171410787408e+01 7.4639530776065399e+00 9.8344001472448106e+00 0 -1 0
2051 2 1.2170788679657299e+01 7.1477911421109415e+00 1.9132189541456402e+01 0 1 1
1839 2 1.6033369827730407e+01 1.3451345938021962e+01 1.9765367420097061e+01 0 1 -1
194 2 7.3220124645777105e+00 2.1219598188313821e+01 1.1003166468080547e+00 0 -1 0
2811 2 9.9104991633670156e+00 2.8063601479475135e+01 1.4709265090290129e+00 0 0 1
22 1 1.5406676463129202e+01 7.8805608551370838e+00 1.8733580983113548e+01 0 0 0
1734 2 1.7717847484255391e+00 4.1140153757547111e+00 1.3435149967432676e+00 0 1 0
341 2 2.1222392930894848e+01 8.6861604100477656e+00 2.1948997776037100e+01 0 0 0
1902 2 1.8843305553685536e+01 2.5946612286198157e+01 1.6183889014208606e+01 0 0 0
789 2 1.5275605881740887e+01 2.1503485645091365e+00 2.7619515427954346e+00 0 0 1
2284 1 1.4619829805446756e+01 1.6443939100339545e+01 7.2933796563554445e+00 0 -1 2
1687 1 1.5749424085643355e+01 2.8111184279339938e+01 1.6930798627356310e+01 0 -1 0
2363 2 2.1545124805013224e+01 3.0666020369277778e+01 2.5690502493282743e+01 0 0 0
1090 1 1.8664856183037795e+01 1.1372626382504778e+01 1.5465765980707850e+01 0 1 0
1585 1 2.7747935834764050e+01 3.1491361639705794e+01 2.7041690602243992e+01 0 -1 -1
384 2 1.4605098044654158e+01 2.8667977349091650e+01 1.5576087666759129e+01 0 0 0
1688 2 1.6181639009417562e+01 2.7293452757980528e+01 1.6639366544852248e+01 0 -1 0
2041 1 1.5235538987751958e+01 4.2960338049112332e+00 9.4008631029364125e+00 0 1 0
1502 2 1.6174861383922654e+01 1.2818691647221188e+01 4.5197114597254719e+00 0 0 0
129 2 2.8386749576544481e+01 2.4858400868729454e+01 2.2512581858711538e+01 0 0 0
2528 2 1.7874643672333153e+01 3.1097109372848760e+01 2.5562512133396631e+01 0 0 -1
382 1 1.3790087363847366e+01 2.8660146929807443e+01 1.4993706688292413e+01 0 0 0
2863 1 1.6980748021414222e+01 1.4353102369406210e+01 2.2848345596609608e+01 0 0 0
1449 2 1.9114026487986472e+01 1.8133535685201547e+01 1.5714253880602778e+01 0 1 -1
893 2 1.1740378377202106e+01 1.9006606130933022e+01 7.0978534548660281e+00 0 0 0
1825 1 6.2274997124484219e+00 7.5414739224345730e+00 1.4484528301923429e+01 0 0 0
2061 2 1.9651466511399544e+01 1.9864831490736151e+01 1.9317569286948014e+01 0 0 1
2646 2 1.5820869102739405e+01 1.9229699134256290e+01 1.2946432006915572e+01 0 0 0
1079 2 1.0949643524521726e+01 9.6497161922352230e+00 4.6278869881711175e+00 0 1 0
293 2 6.2220081138959635e+00 1.2273340589057073e+01 7.1858774682019106e+00 0 0 0
15 2 2.8501831964296902e+00 6.4149200180774937e+00 2.6331836356675269e+00 0 0 0
395 2 7.6144166107179210e+00 6.6467313066719100e+00 1.7147191686790723e+01 0 1 1
2164 1 2.5787764090546435e+01 3.3560844448828774e+01 2.4574094833469047e+01 0 -1 1
2498 2 1.5928410248586118e+01 9.7798401400130857e+00 2.0779831262707845e+01 0 1 -1
489 2 9.8905449763770257e+00 2.0291255738420926e+01 4.8624003488593504e+00 0 0 0
682 1 1.8303418430081059e+01 1.6802718510105151e+01 2.0277241554057643e+01 0 0 -1
1738 1 1.5214583493829799e+01 1.6965872348470104e+01 2.4779975181333018e+01 0 0 0
949 1 1.5948315954525853e+01 2.2765237691825263e+01 2.3589466149481812e+01 0 -1 0
19 1 1.2397108100425463e+01 6.6306700669982526e+00 1.5374733278101873e+01 0 1 -1
1758 2 1.3911199931362196e+01 1.2369310899036895e+01 1.0464046575409157e+01 0 -1 1
1557 2 1.4705074421516347e+01 7.6962750642880930e+00 1.3141864158020573e+01 0 1 0
244 1 8.4603960387363006e+00 3.6514817748793549e+00 3.6551969256653660e-01 0 0 1
1707 2 1.3044148063517877e+01 1.8101400912875913e+01 1.9411185217888583e+01 0 0 -1
337 1 2.8927205368936761e+01 2.2991281146115423e+01 2.5983982392853683e+01 0 1 -1
2673 2 5.5749409131524539e+00 6.2025819242961973e+00 1.3568286075053816e+01 0 1 0
1838 2 1.6454676659756476e+01 1.1987585309834316e+01 1.9773384812097156e+01 0 1 -1
252 2 2.5346101487777851e+01 3.0416024879711010e+01 2.6679680098572078e+01 0 0 -1
1130 2 2.1585293688385065e+01 2.0733523737851577e+01 2.0591539560299406e+01 0 0 -1
1971 2 1.6682364182502457e+01 2.5989239143393398e+01 9.3453349592576931e+00 0 0 0
633 2 9.8809724015968214e+00 1.4476124056894140e+01 1.4830461284408525e+01 0 0 0
2441 2 2.0838529766474828e+01 8.8418594273125262e+00 2.6769962687464361e+01 0 1 1
1135 1 1.0177310459585819e+01 7.8315543127423339e+00 1.4116383994735701e+01 0 1 -1
2340 2 1.4932083619813156e+01 2.9088913179790410e+01 1.1796496484160931e+01 0 0 0
322 1 8.9684660095143407e+00 2.0086252573036731e+01 7.9782537338039079e+00 0 0 0
2817 2 1.8992100299923997e+01 2.4719138543961201e+01 7.5610219018208591e+00 0 0 0
105 2 7.5484566165835734e+00 1.2492135939229247e+01 9.1782419434212361e+00 0 0 0
2187 2 2.9428709480060526e+01 3.3035887031794623e+01 2.1343518225479080e+01 0 -1 -2
1515 2 2.0141258407942978e+01 1.5808315095773274e+01 2.0612954869744410e+01 0 0 -1
2594 2 4.6342173526474655e+00 6.5440454638017087e+00 1.1729916595611220e+01 0 1 0
1546 1 2.0629026120303269e+01 2.0052552618001936e+01 2.6833097199679131e+01 0 1 0
10 1 2.0028757565034081e+01 2.7750394617069972e+01 3.9148671323806767e+00 0 -1 0
2579 2 1.7300913933641990e+01 2.5406609213567457e+01 6.3872208792298801e+00 0 -1 1
1853 2 2.4429328413545200e+01 2.0856713524944965e+01 2.5511676732177342e+01 0 -1 0
2006 2 1.0702976003960345e+01 1.0973821976412090e+00 4.1177543036864721e+00 0 1 0
884 2 1.9524944195685144e+01 2.4635094245416632e+01 2.3437123230121379e+01 0 1 -2
2606 2 1.8621170029601711e+01 2.4013343945034599e+01 2.0326964745447029e+01 0 0 0
1582 1 2.3973084652154792e+01 3.0738889852236387e+01 1.2070626823092459e+01 0 -1 1
1273 1 5.1253385886784351e+00 4.9572885550140260e+00 3.8039560022193979e+00 0 0 0
1906 1 1.6298060412995103e+01 3.6198316792824903e+00 1.2268589818718540e+01 0 0 0
944 2 5.4225896462552594e+00 1.3843085064051715e+01 3.3434659204425121e+00 0 1 0
898 1 1.5003527008137986e+01 2.4769860718496474e+01 1.9293595822205642e+01 0 0 0
1785 2 3.5510738812984410e+00 2.6424204748859714e+00 5.7144506426994477e+00 0 0 0
1347 2 2.1114313444013913e+01 2.5695997358297422e+01 7.4959856233421824e+00 0 0 -1
142 1 2.0565071726066162e+01 1.3559444644878401e+01 1.5180476139286663e+01 0 0 -1
740 2 1.2447932834291654e+01 6.4740053286401711e+00 2.6304455145194527e+00 0 0 1
2499 2 1.7232536822650211e+01 9.8018746182274707e+00 2.0096678781385418e+01 0 1 -1
3011 2 1.5110913860145082e+01 1.9719737094831224e+01 3.4742345051113097e+00 0 1 0
2469 2 1.7867686330536575e+01 1.3789631305353398e+01 2.6832450433008193e+00 0 0 1
1756 1 1.3566920477831843e+01 1.3191589609603923e+01 1.0834273556366897e+01 0 -1 1
3044 2 2.2341130832032881e+01 3.0029245051299885e+01 9.3348834749235490e+00 0 0 0
232 1 1.3957926162348308e+01 1.8472825966585621e+01 2.2413223752568108e+01 0 -1 0
1159 1 1.2345392737515549e+01 1.5259120291523164e+01 1.3790701655384003e+01 0 0 0
2954 2 2.0006219320008636e+01 3.1979693981257224e+01 2.3806557466535757e+01 0 0 0
1132 1 1.3479118367616573e+01 5.3212024103150002e+00 2.4429921879746588e+00 0 1 0
299 2 1.2766586324093161e+01 1.7756666763941723e+01 1.5699093040361401e+01 0 0 0
2512 1 1.4969067039502740e+01 1.9286900050114539e+01 2.5978090138953984e+01 0 0 0
100 1 6.0449573114028015e+00 7.7311685007018269e+00 8.8416840402654042e+00 0 0 0
1713 2 9.9054393450165197e+00 1.5116415383627999e+01 1.1353986343054414e+01 0 0 0
2336 2 1.7542140373480095e+01 1.7765760022660377e+01 7.4075656918754182e+00 0 0 1
2745 2 2.3389285588650274e+01 3.2677413486251524e+01 2.0278192018332916e+01 0 0 0
1074 2 2.1595324372629971e+01 2.6671871350885667e+01 1.9891836196494804e+01 0 0 0
1567 1 2.2198240495906497e+01 2.6956510436733243e+01 1.2946240891493364e+01 0 -1 1
434 2 2.2547859358790863e+01 2.5790645343874779e+01 2.5264456738177365e+00 0 0 -1
995 2 5.5399107519568274e+00 9.7594205417973487e+00 2.8076945518100498e+00 0 1 0
1505 2 2.3717769903220173e+01 3.0008968557854274e+01 1.7568646575705863e+01 0 0 0
1847 2 1.6356648532507492e+01 2.7202420061796243e+01 9.0004957079441472e-01 0 -1 1
2882 2 2.1369908550413687e+01 2.0618293562682034e+01 1.5328036649507823e+01 0 0 0
1513 1 2.0717258912907255e+01 1.5012440413062414e+01 2.0585082842548928e+01 0 0 -1
151 1 1.2880385840608211e+01 2.0613366288349127e+01 1.1194409213014804e+01 0 -1 0
883 1 2.0176862570600818e+01 2.5271959882671105e+01 2.2972741521303153e+01 0 1 -2
1547 2 1.0568791530953378e+01 1.2360078610146125e+01 4.4384421065287022e-01 0 1 1
2621 2 2.2764578297908972e+01 8.1715820495032858e+00 2.4482230419891064e+01 0 0 0
2991 2 2.2302006567306851e+01 1.6500082554910858e+01 1.5496470487657048e+01 0 0 0
1018 1 1.2659717106210501e+01 2.5709743942393960e+01 4.1586787148769133e+00 0 0 0
2288 2 2.1261394236907616e+01 1.8718435875630128e+01 2.1135748138148013e+01 0 0 -1
2548 1 1.9919144647455528e+01 2.4622856427581819e+01 3.9973514364946512e+00 0 0 2
484 1 1.2680567067700723e+01 2.0346726888480589e+01 8.0052730711450550e+00 0 -1 0
298 1 1.3605682270937061e+01 1.8337846088185049e+01 1.5556890986423307e+01 0 0 0
2310 2 2.2012741774867788e+01 9.9993792652155165e+00 1.4472380982795169e+01 0 0 -1
1916 2 1.5989261717237724e+01 1.3215987279491674e+01 2.3137284632797147e+01 0 0 1
1054 1 2.3974767643386109e+01 1.7412953781079459e+01 2.5691989695887571e+01 0 0 -1
1537 1 1.0685866689026781e+01 1.4370641706396718e+01 1.9832603748789399e+01 0 0 0
655 1 1.9434697515554699e+01 2.1529770079707696e+01 7.5158112319694075e+00 0 -1 0
101 2 6.7584886773776329e+00 8.3685408174389622e+00 8.9375489182639782e+00 0 0 0
1001 2 7.2470022397102802e+00 1.7272996530573646e+01 3.6749854283088506e+00 0 0 0
2886 2 2.2503353681563503e+01 3.1641375253259088e+01 1.8307877484447971e+01 0 0 0
2864 2 1.6643679311732399e+01 1.5028947942093406e+01 2.2242510861139763e+01 0 0 0
1235 2 9.3078616590914365e+00 1.0142135372226342e+01 1.5637833991352210e+01 0 1 0
2435 2 2.4662653128487246e+01 2.2635235710334236e+01 1.4241809361700394e+01 0 0 0
2312 2 1.1922421900630686e+01 2.7912299971884251e+00 8.5297465357405311e-01 0 1 0
702 2 8.2098047973581263e+00 1.4875225930340500e+01 8.5279407612725366e-01 0 0 0
2508 2 7.9374494468803487e+00 2.0191646776271416e+01 4.0725425320188471e+00 0 0 1
335 2 1.3278906852413545e+01 2.2127861978583809e+01 2.0567084317631888e+01 0 0 0
1570 1 2.3074089515393450e+01 2.6397880629734313e+01 2.1040184331881338e+01 0 0 1
2261 2 2.0615219791185758e+01 1.5720276958651027e+01 2.6697337721740951e+01 0 0 0
795 2 1.2714369176973154e+01 1.0913596985587901e+01 1.5394321339366916e+00 0 0 0
109 1 9.5289547628553226e+00 5.4778377983468589e+00 1.9050756546539937e+01 0 0 -1
2865 2 1.7679388182486939e+01 1.3832165958020898e+01 2.2411727343454110e+01 0 0 0
935 2 2.6550498033693479e+01 2.9440653027718405e+01 7.1670131159756787e+00 0 0 0
28 1 1.1604424834584375e+01 2.1847095166538239e+01 1.4960300347219494e+01 0 0 0
1757 2 1.3011043027865231e+01 1.2921259524192637e+01 1.1635107721809291e+01 0 -1 1
225 2 1.5370907566475370e+01 2.7034539147610243e+01 1.2000564645835274e+01 0 0 -1
138 2 2.3054620694331344e+01 1.1512599184073490e+01 2.5265788501982868e+01 0 -1 1
313 1 1.3484987261656396e+01 2.8898206385867272e+01 9.0409690599246737e+00 0 0 -1
2022 2 2.0542390539443076e+01 2.7799173591544395e+01 1.5502964831866093e+01 0 -1 1
107 2 9.9890378727504050e+00 2.1165362210350992e+01 1.1990103742669600e+01 0 0 0
251 2 2.5803942063641102e+01 2.9461721297213352e+01 2.5585815764646657e+01 0 0 -1
741 2 1.1829883868388007e+01 7.8131573672909038e+00 3.2850444400876135e+00 0 0 1
332 2 1.4976787097514638e+01 3.1418845149804078e+01 1.5643381808412840e+01 0 0 0
66 2 9.8937431672525928e+00 1.9203754962373907e+01 1.0637794467604515e+01 0 -1 0
2433 2 1.9110178449749881e+01 1.3795525911227998e+01 2.6718388474548899e+01 0 0 0
1572 2 2.3341245960339233e+01 2.5472972951776832e+01 2.1334730659879181e+01 0 0 1
2770 1 2.2116921534473672e+01 2.0398210713871695e+01 3.7843141086198102e+00 0 1 1
1829 2 1.6455288155777815e+01 2.9836279059303273e+01 1.0087694213149582e+01 0 -1 0
1419 2 2.3117902589987708e+01 2.5118291269157471e+01 1.5744320479061251e+01 0 0 -1
258 2 1.6346326912777968e+01 6.3965158293662210e+00 4.4601809908261290e+00 0 1 0
1813 1 1.8189378906326485e+01 2.1876125792555662e+01 1.1042492098998707e+01 0 0 0
1134 2 1.4328507089899833e+01 5.6962698503594531e+00 2.1574862278797786e+00 0 1 0
333 2 1.6488358245474807e+01 3.1355348614266134e+01 1.6191991717187285e+01 0 0 0
1834 1 1.4982655843215682e+01 8.3629131686261982e+00 6.9682061477448380e+00 0 -1 0
314 2 1.3947794957786476e+01 2.8478284820382818e+01 8.2707527225077779e+00 0 0 -1
1643 2 1.2387302393616025e+01 1.5873912366114695e+01 2.2669966902593426e+01 0 0 0
2416 1 1.7851821455471246e+01 9.8906489298105882e+00 2.2990291539113631e+01 0 1 -1
2514 2 1.4405670750865049e+01 1.9259800464376887e+01 2.6770240392010425e+01 0 0 0
1915 1 1.5241483048806057e+01 1.2490385080350039e+01 2.3272366799732804e+01 0 0 1
188 2 2.2349577237951657e+01 2.8814935980651740e+01 2.3112701923853500e+01 0 0 -1
113 2 1.6398428659696972e+01 2.9901401723563914e+01 2.1155642218796505e+01 0 -1 0
1602 2 1.3478162416263551e+01 2.4558916713057840e+01 9.3243360782910223e+00 0 0 0
2861 2 1.2881724668197183e+01 1.8070868893749687e+01 1.2394819392082237e+01 0 0 0
839 2 1.4846575053220700e+01 1.0425331457940835e+01 2.5076660965589976e+01 0 1 0
1470 2 1.1739760890040937e+01 6.0150461497739141e+00 2.2851134941146128e+01 0 1 0
537 2 1.6768506520934437e+01 1.6409190194400487e+01 1.0586559877683300e+01 0 0 0
2444 2 1.3593915114601764e+01 2.1954599818487907e+01 5.4326325040984651e+00 0 1 0
1498 1 2.0456026890706724e+01 3.0510236288765039e+01 2.1254106865965003e+01 0 0 0
1504 1 2.4019872512961914e+01 2.9043556499065893e+01 1.7495093442561423e+01 0 0 0
1586 2 2.8378742088243868e+01 3.1775048717884019e+01 2.6397252553566165e+01 0 -1 -1
1897 1 1.7389390295604585e+01 3.1889076299271515e+01 1.8883823906830528e+01 0 0 0
343 1 3.6487952922257083e+00 1.1545131756696437e+01 1.1241340755916449e+00 0 0 0
607 1 1.9075393521450792e+01 1.7287637929901440e+01 1.2363902590388886e+01 0 0 -1
359 2 1.4084467104960389e+01 7.3621776124763478e+00 1.8172603088080589e+01 0 1 1
399 2 2.4986207962446670e+01 2.6049974596920038e+01 5.4264401676260228e+00 0 0 0
2451 2 1.4417324875669198e+01 2.3775234110691041e+01 2.0931966650966707e+01 0 0 0
1850 2 2.2989032267277949e+01 2.6660620962185490e+01 2.3820977737037616e+01 0 -1 -1
1080 2 1.2536461273661534e+01 9.7259720162875514e+00 4.5387498374526798e+00 0 1 0
2042 2 1.6129633089587898e+01 3.9307789918214562e+00 9.4681044088187054e+00 0 1 0
40 1 2.5182506044126995e+01 2.6261409186917518e+01 2.6760003919167712e+01 0 0 -1
2768 2 7.4696386323191550e+00 8.7726807379909655e+00 3.9626529918273232e+00 0 1 -1
409 1 2.4260341419016171e+01 2.0703947962426426e+01 2.1769368884730866e+01 0 0 0
411 2 2.5212390318905605e+01 2.0562613522080227e+01 2.1784373537337089e+01 0 0 0
1499 2 2.1094197641255299e+01 3.0185222549917466e+01 2.1955453593658763e+01 0 0 0
2472 2 1.8526125250047127e+01 3.0807334976023203e+01 1.0443947209989629e+01 0 0 0
477 2 2.5226219053577079e+01 2.6908709859474868e+01 2.3561866098873328e+01 0 0 -1
2909 2 1.7827289892166768e+01 7.3591851364700442e+00 2.0615293267218401e+01 0 0 0
2955 2 2.1480316295914566e+01 3.1942397016385172e+01 2.4069472346271503e+01 0 0 0
250 1 2.5006095953773819e+01 2.9713063846050435e+01 2.6078187013205302e+01 0 0 -1
1898 2 1.7605401111827319e+01 3.1021356641281788e+01 1.8440303876371313e+01 0 0 0
1073 2 2.1169667799729865e+01 2.6862170389686629e+01 1.8529508321531143e+01 0 0 0
887 2 1.6017171148193260e+01 1.7089651781194883e+00 5.0120692818542647e+00 0 2 0
2382 2 1.2430276664968787e+01 2.2896169516856052e+01 1.3134095860002772e+01 0 0 0
2380 1 1.2601029804678713e+01 2.3112439534871385e+01 1.2210591584767123e+01 0 0 0
994 1 5.3029173849537088e+00 1.0695637397916233e+01 3.0446809906326164e+00 0 1 0
1476 2 1.7964800952143015e+01 2.4988271897796071e+01 2.4722608668988858e+01 0 0 0
987 2 1.5942069870803124e+01 9.6375220629375633e+00 2.6513122442011396e+00 0 0 0
1510 1 1.9422214337786770e+01 2.4203777258764237e+01 1.0695515912844622e+01 0 1 0
725 2 2.1952540126315334e+00 3.4047792839462523e+00 3.2831206942969557e+00 0 0 1
2308 1 2.1579360676231513e+01 9.5154032946907723e+00 1.3769867182579571e+01 0 0 -1
2784 2 1.9801838305964530e+01 2.1930222791520354e+01 5.5378426495431583e+00 0 0 0
2505 2 1.8443729176445832e+01 2.8050386264393090e+01 2.0632613582100184e+01 0 1 -1
73 1 1.7507874059302726e+01 5.3588012674445178e+00 1.3729737049081429e+01 0 -1 1
150 2 1.9457224711128966e+01 3.4674614545650954e+01 2.5523182776029497e+01 0 -1 -1
735 2 2.4969767172432423e+01 2.5052933175622233e+01 1.2222008802480422e+01 0 0 0
243 2 5.9021290909902673e+00 1.0460064805095080e+01 5.9548127949796674e+00 0 0 0
296 2 1.3495454937833568e+01 2.0075705683524298e+01 1.6351802187525390e+01 0 0 0
1824 2 2.6775996740492545e+01 2.9405486277066856e+01 1.4746713642807030e+01 0 -1 0
1931 2 1.6693065755381902e+01 1.5499449125480897e+01 4.4128240470891500e+00 0 0 1
350 2 2.4888178985987945e+01 2.9806816955466807e+01 2.1305995597095222e+01 0 0 0
2783 2 2.1180604178072830e+01 2.2531510255112046e+01 5.1205954324733964e+00 0 0 0
56 2 5.3459870097290230e+00 2.7895806453235430e+00 5.7688555474127456e-01 0 0 1
2663 2 1.3678812032077420e+01 1.4960093245005424e+01 1.4908574336360230e+01 0 1 -2
1840 1 2.5430675693648826e+01 1.9055274304774670e+01 1.7928165833253928e+01 0 0 0
974 2 1.1654923064665098e+01 2.6110921592238000e+01 7.4844311959868417e+00 0 0 0
1681 1 1.7498112709165635e+01 2.7898405853637907e+01 4.9213575892572354e+00 0 -1 0
1621 1 7.6429242004893911e+00 1.1787221297191682e+01 7.8596252034073755e-01 0 0 0
1622 2 1.8184324301321375e+01 1.9276911886132908e+01 2.7108161502881121e+01 0 0 -1
1821 2 2.6295238951066061e+01 3.1336709520693148e+01 1.6768717135017656e+01 0 0 0
1241 2 1.3844440849947155e+01 1.1469709147033722e+01 6.4472048876309893e+00 0 0 1
2529 2 1.8408717103789797e+01 3.1369507933685725e+01 2.7005431494479136e+01 0 0 -1
2147 2 2.1705745620852678e+01 2.7572530263122385e+01 2.6165073872105083e+01 0 -1 0
2491 1 1.0464665195520936e+01 1.6817740545072034e+01 8.6221749428998145e+00 0 0 1
1020 2 1.3485550280878266e+01 2.5968158712911890e+01 3.6991648608930094e+00 0 0 0
199 1 1.4626005398555295e+01 9.1994729128291226e+00 2.1914202894711917e+01 0 0 -2
2010 2 2.6445868925827963e+01 1.7691339577166040e+01 2.3045386375734669e+01 0 0 0
1036 1 7.0903623056585463e+00 6.2547607236443072e+00 2.1058454530740494e+00 0 1 0
1907 2 1.5339668549121207e+01 3.4026449899236555e+00 1.2289833239653879e+01 0 0 0
54 2 5.9358958537315578e+00 3.8683442232838923e+00 9.6671741170153638e+00 0 0 0
1234 1 8.4715612470181281e+00 9.6197664094527298e+00 1.5665783511210153e+01 0 1 0
2443 1 1.4111204559036574e+01 2.1222644705668795e+01 5.8322405706339131e+00 0 1 0
683 2 1.8413861850025469e+01 1.7747777523153484e+01 2.0032508455372771e+01 0 0 -1
1820 2 2.7351107755026465e+01 3.0292980143118783e+01 1.7264226486277472e+01 0 0 0
2471 2 1.8444022983057593e+01 2.9498771094038656e+01 1.1322308487975782e+01 0 0 0
2376 2 3.4578192494838866e+00 4.6120144071468694e+00 6.7700451879960895e+00 0 1 1
2862 2 1.3314439943593751e+01 1.8556353737978071e+01 1.3888163471732245e+01 0 0 0
13 1 3.2231565914711160e+00 6.5275498521998907e+00 1.7296220053502975e+00 0 0 0
247 1 3.7114318320045854e+00 5.6522788939101503e+00 8.0030643686112235e+00 0 0 0
189 2 2.3224525660727192e+01 3.0050594546688512e+01 2.2792948700536641e+01 0 0 -1
2445 2 1.4978808406500743e+01 2.1558996864786760e+01 6.1976957662689491e+00 0 1 0
187 1 2.2323566486622511e+01 2.9777313112050024e+01 2.2965099043783876e+01 0 0 -1
870 2 7.3562892585401531e+00 1.5747843211735962e+01 8.6869955824389962e+00 0 0 0
342 2 2.1233081387989380e+01 7.7239322058319777e+00 2.0865088524519486e+01 0 0 0
3009 2 7.1239680184222856e+00 2.2311450282601015e+00 6.4415036445464642e+00 0 2 1
1548 2 2.1123692231095816e+01 2.0895909930848017e+01 2.6936404467320372e+01 0 1 0
1560 2 1.1010193129891885e+01 9.0874059408086101e+00 2.3623899031990067e+01 0 1 0
470 2 2.1511504949488447e+01 1.2258194451540811e+01 1.5820460811026217e+01 0 0 -1
1848 2 6.7199932370967685e+00 4.2827746995687821e-01 1.3446577352708649e+00 0 0 1
114 2 1.7449406333276087e+01 3.0744232711048362e+01 2.1956286697689720e+01 0 -1 0
1596 2 1.7219829504145299e+01 2.2362095532891932e+01 2.3904597527234985e+00 0 0 0
2004 2 9.1763631173789300e+00 6.4415109513780928e+00 4.4885824477551290e+00 0 0 1
656 2 2.0355432339676035e+01 2.1433705519438760e+01 7.8035492246456757e+00 0 -1 0
2626 1 1.8100431152126998e+01 2.7428218343850943e+01 2.2150655154802042e+01 0 0 0
864 2 2.3130435006111146e+01 2.4337133937208154e+01 1.1472065021662427e+01 0 0 -2
1350 2 2.1577537598405286e+01 2.1755964296627351e+01 1.3204670729908836e+01 0 0 0
2631 2 7.9911232868038375e+00 7.8819870795544773e+00 5.7296192024222066e+00 0 0 0
514 1 2.2866647254582887e+01 9.8115749904757656e+00 2.2477684436853490e+01 0 0 -1
3010 1 1.4189879721835183e+01 1.9605858658875743e+01 3.7369215342252664e+00 0 1 0
309 2 1.7775391467317501e+01 1.3635863643886610e+01 7.2645372434315147e+00 0 1 -1
519 2 1.2708002248154308e+01 3.4695789861900428e+00 7.5547052527656398e+00 0 1 0
2328 2 1.9629804574203270e+01 1.3186256481500754e+01 1.8135781482511657e+01 0 1 0
410 2 2.3984473260201472e+01 2.0967179728014543e+01 2.0886683357840656e+01 0 0 0
241 1 5.3262057797022866e+00 1.0995075106170349e+01 6.5575507748434525e+00 0 0 0
354 2 2.9585598073125034e+01 3.1639135192411594e+01 2.4653206947486787e+01 0 -1 -1
2630 2 9.5278109803349960e+00 7.5314701276421694e+00 6.0902983198522529e+00 0 0 0
2492 2 1.1150363259564180e+01 1.6159756660401669e+01 8.7718174410370420e+00 0 0 1
2287 1 2.2005952467112621e+01 1.8732669665693024e+01 2.0483026030285988e+01 0 0 -1
1211 2 1.7582502349453783e+01 3.1358526606854895e+01 1.2491636228679663e+01 0 0 0
412 1 1.6551026980329215e+01 1.2284977844209260e+01 9.9944637781669048e+00 0 0 0
2597 2 1.7149263765902614e+01 2.6415807774738976e+01 1.3249093385250015e+01 0 0 0
1662 2 2.3150277297905436e+01 2.9179498070850109e+01 7.2697318833389977e+00 0 -2 1
1970 2 1.7861438601115161e+01 2.6942421187452382e+01 9.3016029036521655e+00 0 0 0
2099 2 1.4876252032575154e+01 5.7284583669874616e+00 1.4588872393515516e+01 0 0 1
794 2 1.4210597232999994e+01 1.0367091421246219e+01 1.7018346579400592e+00 0 0 0
2348 2 1.9365480407582524e+01 1.7799197019898337e+01 2.7533509675470982e+00 0 0 1
2905 1 1.8034717824656529e+01 2.9490333916349236e+01 1.7711201296164290e+01 0 0 0
98 2 1.7229727394994669e+01 1.1041052907737051e+01 1.6572136154577557e+01 0 0 0
3003 2 1.5807777855446727e+01 1.6150733262470929e+01 7.6868499868403695e-01 0 1 0
2698 1 1.0292790574121028e+01 8.4633782833252322e+00 1.7717936148235243e+01 0 1 0
2522 2 1.5059898845097759e+01 3.0490045730226250e+01 1.7710364953094690e+01 0 0 0
1242 2 1.4505344768359400e+01 1.2498613745203683e+01 7.3044419659241475e+00 0 0 1
2859 2 1.5178226691576775e+01 6.2920760336758770e+00 2.2830285376982971e+01 0 1 0
70 1 1.0410362159283029e+01 2.0055947276418390e+01 1.3263717085403131e+01 0 0 0
1826 2 7.0138947206747631e+00 7.3430568697962846e+00 1.5042773182452800e+01 0 0 0
1549 1 1.1514743194291475e+01 7.3880333390828756e+00 6.5236621816174294e+00 0 0 0
1232 2 5.4320860319498330e+00 1.8977045974168396e+00 4.1591408793194882e+00 0 2 0