LAMMPS data file via write_data, version 15 Apr 2020, timestep = 0

6144 atoms
2 atom types

-1.4089082000949453e+00 6.1377197331278765e+01 xlo xhi
0.0000000000000000e+00 2.8097410014746192e+01 ylo yhi
0.0000000000000000e+00 2.7158312316720014e+01 zlo zhi
1.0161771225164216e+01 1.0185260391452005e+01 7.1177274623721409e+00 xy xz yz

Masses

1 16
2 2

Atoms # atomic

1595 2 1.6562889890378507e+01 2.1571618968213716e+01 1.4608093381473697e+01 0 0 0
1604 2 1.7285612010766865e+01 1.9786079916289133e+01 2.5422032358259440e+01 0 0 0
2342 2 1.5041554464609284e+01 2.0296258732966933e+01 2.5452515332330901e+01 0 1 0
987 2 1.5306740206462088e+01 1.2312419801154247e+01 1.5112108395759241e+01 0 0 0
225 2 7.0245095478798483e+00 5.8794369119916707e+00 1.6324497712670540e+00 0 0 0
52 1 1.3625828416502241e+01 2.9567236170729529e+01 9.2558081006948196e+00 0 -1 0
25 1 1.3521787978747623e+01 1.5154937290596369e+01 9.9374037639441859e+00 0 0 -1
1625 2 1.4376032383226164e+01 1.6521409420898102e+01 1.2786392332606567e+01 0 0 0
2464 1 9.7656380955744595e+00 1.7027692045572380e+01 9.4951851846269690e+00 0 1 0
886 1 1.8256619846431182e+01 2.1311090012330105e+01 1.7394026991399290e+01 0 1 -1
1633 1 1.3785831152360831e+01 1.6430449540037717e+01 1.5578148349358656e+01 0 0 0
849 2 1.5067064919247223e+01 2.0306301913914318e+01 8.0896065102217527e+00 0 0 -1
2443 1 1.0178299946252238e+01 1.0426369410394209e+01 7.1169515755394892e+00 0 1 0
358 1 1.5676701576916141e+01 2.6678803854924638e+01 2.4086397461863232e+01 0 0 0
2466 2 1.0302461694224167e+01 1.7810744086380229e+01 9.0870894054085962e+00 0 1 0
1895 2 9.5053732979255976e+00 1.2094692290795480e+01 6.6089353985496935e+00 0 0 1
1670 2 3.9531090728172389e+00 3.8032992743558158e+00 3.8881282438083031e-02 0 0 0
1634 2 1.4414146270615795e+01 1.6402050933297875e+01 1.4772322331221103e+01 0 0 0
1064 2 1.9506264392264264e+01 3.0390625386894307e+01 1.8319430560160892e+01 0 0 -1
1894 1 9.3869171327334691e+00 1.3050205046820057e+01 6.4613484794335658e+00 0 0 1
1740 2 1.6759759629776795e+01 2.2184994220732907e+01 2.4827343748879962e+01 0 0 0
1916 2 1.6192580295096569e+01 2.6650551300003599e+01 1.6949399158836979e+01 0 0 0
2672 2 5.8320309385623306e+00 5.4423752381158828e+00 1.2350190582907993e+01 0 1 0
1709 2 1.2561870853382947e+01 9.9725971439982022e+00 1.3954562618879667e+01 0 0 0
487 1 1.7202904729312820e+01 2.6236243147512262e+01 2.6225847461386959e+01 0 0 -1
204 2 6.3753075677627855e+00 6.4564415167752234e+00 1.5899621764227316e+01 0 1 0
1587 2 1.5593104913996367e+01 1.4801294047756080e+01 6.2378169832758195e+00 0 0 0
1586 2 1.5258653166400670e+01 1.4137898989487194e+01 7.5526478003851691e+00 0 0 0
2336 2 7.9528834639494725e+00 7.8385998510450197e+00 2.1310522450463672e+01 0 1 0
2564 2 9.1723833353338673e+00 1.2997553368545368e+01 9.1110794830156783e-01 0 1 0
1638 2 9.1450237864983670e+00 1.0670139350625604e+01 1.9701118214150902e+01 0 0 0
1871 2 1.7876058770711335e+01 2.7798703107568130e+01 1.9318839932811834e+01 0 0 0
610 1 1.5610781910766487e+01 3.1435804655069717e+01 1.6005805054165634e+01 0 0 0
1275 2 5.4862169618850958e+00 6.9216617389365425e+00 9.4077950375556829e-02 0 0 0
2489 2 2.9639258044839529e+01 2.3402502734608376e+01 2.5443504062891829e+01 0 0 0
2450 2 1.5570335282957171e+01 2.2683588277594609e+01 2.3196751146562544e+01 0 0 0
1708 1 1.1614981185992276e+01 9.9140122172179286e+00 1.4261003049913342e+01 0 0 0
27 2 1.3640972315383934e+01 1.4296838768189096e+01 9.4376677472864579e+00 0 0 -1
907 1 2.1962905117319441e+01 2.7461215902460268e+01 2.3420021933572833e+01 0 0 -1
99 2 2.3842000525151814e+01 1.2376628685693365e+01 2.5568800995772353e+01 0 0 -1
1561 1 1.2532806640784553e+01 1.3840742922519086e+01 1.5697446399339633e+01 0 0 0
1901 2 2.4719186135085696e+01 3.4460875138810948e+01 2.6811099567927617e+01 0 -1 0
1602 2 1.2614449640692673e+01 1.9049610913546630e+01 1.7276866974367938e+01 0 0 0
134 2 2.6700392174047998e+01 2.2264597954397473e+01 1.9241198690607781e+01 0 -1 0
924 2 2.1016899623371099e+01 1.8582632404979748e+01 7.5542741167667335e+00 0 0 0
1632 2 1.7176168734310529e+01 3.9569440641292828e+00 1.3599752630360161e+01 0 0 0
224 2 7.0514643267599393e+00 4.4144100460633284e+00 1.9973879011408189e+00 0 0 0
1781 2 1.2041742871116886e+01 1.0456154895398328e+01 1.7143427097920355e+01 0 0 0
1710 2 1.1443623262152212e+01 9.6984018374798140e+00 1.5193470545247644e+01 0 0 0
1689 2 6.8212522438963621e+00 7.8239700725865280e+00 1.2530273294556739e+01 0 0 0
1705 1 1.6724741907835192e+01 1.8620910430258768e+01 1.7979660324799131e+01 0 0 -1
1773 2 2.2015214013082410e+01 3.1540393581605048e+01 2.3734518304754985e+01 0 0 -1
101 2 4.1628101036751080e+00 6.8019926685272907e+00 6.4558385138962322e+00 0 0 0
1570 1 1.3093788455848774e+01 1.4071764056707378e+01 1.2861680922148990e+01 0 0 1
2314 1 1.3273813005211606e+01 2.6938531143531598e+01 8.0100124914494621e+00 0 0 1
1129 1 1.2120867304091581e+01 1.5347474528824620e+01 2.2951208566846585e+01 0 0 -1
2360 2 1.0844341451160689e+01 1.1428047232548463e+01 1.4515292678667976e+01 0 0 0
1635 2 1.3269620788830874e+01 1.7271407628374686e+01 1.5486955162561040e+01 0 0 0
1017 2 1.5342155107225068e+01 3.0420416551528419e+01 1.1947971055297414e+01 0 0 -1
755 2 1.2943976727920582e+01 2.4295713514033540e+01 1.7097142684510306e+01 0 0 0
821 2 1.1266686959815440e+01 1.8649383377737593e+01 1.1750543016944561e+00 0 0 0
1059 2 1.3405595635307190e+01 2.6874090863156738e+01 1.4191637746371450e+00 0 0 0
896 2 2.0596947995539086e+01 2.8372926529643639e+01 2.3524947127631371e+01 0 0 -1
868 1 8.2020977703192628e+00 1.5561669095289787e+01 8.2833691979752029e+00 0 0 0
944 2 6.2349432067764408e+00 1.4527833718158046e+01 1.7346941720541620e+00 0 1 0
1571 2 1.2416890839822310e+01 1.4548570875397983e+01 1.3430983356150540e+01 0 0 1
365 2 2.2715726574353134e+01 2.2412336482835077e+01 5.5024527968523236e+00 0 -1 0
894 2 1.2299083199671875e+01 1.8947593630625374e+01 1.0116291517728826e+01 0 0 0
2145 2 1.9956351759005020e+01 1.6237130727606964e+01 6.4255115005976009e+00 0 0 0
1274 2 5.6042251688828415e+00 7.3602762684354301e+00 1.6510576264289272e+00 0 0 0
227 2 1.1488246233801632e+01 7.6466733097186488e+00 2.6502996869038871e+01 0 1 -1
1669 1 4.3748835846287388e+00 4.6054874708428786e+00 3.8737530950213300e-01 0 0 0
1063 1 2.0076855707660808e+01 3.0152234037482916e+01 1.9093814688120268e+01 0 0 -1
1671 2 4.7524505905463457e+00 4.2380856827890092e+00 1.2064761714570165e+00 0 0 0
1791 2 5.0550190851036145e+00 7.4320848164864133e+00 4.1559759017229467e+00 0 0 1
1001 2 7.4197201738696474e+00 1.5414090735315284e+01 5.5457097004420080e+00 0 0 0
846 2 1.9267244144828286e+01 2.1396305299259261e+01 2.2729002879528874e+01 0 0 -1
1637 2 8.8917295482559702e+00 1.1724426791698791e+01 1.8579883707391442e+01 0 0 0
1739 2 1.7140587784181520e+01 2.3533122322067996e+01 2.4152897993744261e+01 0 0 0
822 2 2.1890049645943954e+01 2.5730759626401131e+01 2.6919239273566401e+01 0 0 -1
2471 2 1.9501938123276990e+01 7.9711514425696794e+00 1.5294043575084237e+01 0 1 0
6 2 2.3891535761295142e+01 1.0078323933037304e+01 2.3602590119413318e+01 0 -1 0
887 2 1.8826154826460275e+01 2.0528512867608601e+01 1.7389573581443766e+01 0 1 -1
2465 2 9.1715149632735216e+00 1.6663293061996796e+01 8.7822122295743501e+00 0 1 0
233 2 1.3670008556011064e+01 1.9965624030145989e+01 2.1965138242164226e+01 0 -1 0
102 2 5.5038692178527464e+00 7.6354929395988762e+00 6.4623582664860049e+00 0 0 0
223 1 7.5031752391958690e+00 5.2897853509810613e+00 2.2088490319226106e+00 0 0 0
1917 2 1.6749908105575027e+01 2.5416425315211658e+01 1.6115761032654568e+01 0 0 0
353 2 7.4625259303560281e+00 1.0549355246664449e+01 9.0415952114453813e+00 0 0 0
2407 1 1.0980642386597570e+01 1.5650595894306441e+01 1.1092792981522964e+01 0 0 0
1687 1 7.5631080822137200e+00 7.5510732949310722e+00 1.1942825051424956e+01 0 0 0
986 2 1.5755664346548880e+01 1.3276702573928292e+01 1.6194840388796141e+01 0 0 0
1706 2 1.7298891293738460e+01 1.8389262157361713e+01 1.8768370786692635e+01 0 0 -1
1703 2 1.1043302661544233e+01 1.2438496925648327e+01 1.8310175358037132e+01 0 0 0
1374 2 2.1043082902359316e+01 2.1066087691909409e+01 3.8177612738265423e+00 0 0 0
1688 2 8.0370384429846773e+00 8.3823160129504739e+00 1.1819573997864037e+01 0 0 0
708 2 2.0398840544885328e+01 8.9711138903482226e+00 1.7940132622701753e+01 0 0 0
2167 1 2.0974027517521538e+01 1.2920051120554133e+01 1.4589362330414801e+01 0 0 0
922 1 2.0524345807750485e+01 1.8715668397991490e+01 8.4193993613494822e+00 0 0 0
2409 2 1.1739837520903782e+01 1.5333642742888404e+01 1.0622768234975480e+01 0 0 0
845 2 1.8185313132730965e+01 2.0369723924320553e+01 2.3305764624861727e+01 0 0 -1
1563 2 1.3372917923300463e+01 1.3463672284553699e+01 1.6073342529226178e+01 0 0 0
908 2 2.2783633759682079e+01 2.7871484194726541e+01 2.3125117925283426e+01 0 0 -1
893 2 1.1418116871386566e+01 2.0016428313236084e+01 9.3955348237291645e+00 0 0 0
28 1 2.3672568781731176e+01 1.9761387140683279e+01 1.2058489845763793e+01 0 0 0
1073 2 2.5475095457757906e+01 2.5959068217708001e+01 1.8488790874127794e+01 0 0 0
202 1 5.7589818746444079e+00 5.9251955442805908e+00 1.6446569452384267e+01 0 1 0
300 2 1.1732321207341021e+01 1.6688659257730006e+01 7.9395408583345493e+00 0 0 0
1585 1 1.5967332884179068e+01 1.4678546315500096e+01 7.0952709672750887e+00 0 0 0
2414 2 1.7769391654822257e+01 1.7239053528475743e+01 1.5054899174514459e+01 0 0 1
2436 2 2.4352567701541759e+01 2.4474547316389607e+01 1.1174440627034427e+01 0 0 0
2441 2 1.6728508940009380e+01 2.2642737797372426e+01 1.1114389554375810e+01 0 0 1
847 1 1.4147589801324798e+01 2.0340870187103075e+01 7.7845168861537060e+00 0 0 -1
1562 2 1.2615152937161945e+01 1.4815218801391431e+01 1.5650776119716770e+01 0 0 0
1015 1 1.6035260412833313e+01 3.0504672864645496e+01 1.1279037025773839e+01 0 0 -1
1738 1 1.6423962827228554e+01 2.3022522878965859e+01 2.4593598455448369e+01 0 0 0
949 1 2.2555116408209607e+01 2.2468053778962837e+01 1.2956096552645054e+01 0 -1 0
1825 1 5.8456225514339533e+00 7.7193737074889643e+00 1.4047999261554732e+01 0 0 0
1641 2 7.4431167991548719e+00 9.3384919872156438e+00 1.7433570605498399e+01 0 0 0
2627 2 1.3540767968606305e+01 2.1118679763286401e+01 1.9779518999448996e+01 0 0 0
150 2 1.0724892290327372e+01 6.6502671587953364e+00 2.4735076044667743e+01 0 0 -1
2440 1 1.7170965442969123e+01 2.1768000098014525e+01 1.1125006010153660e+01 0 0 1
98 2 2.3437512039571601e+01 1.2634744644977530e+01 2.7015244907358671e+01 0 0 -1
2408 2 1.0444508642197928e+01 1.6182186389091839e+01 1.0401254505945639e+01 0 0 0
369 2 1.5173533697003002e+01 1.4876802649150680e+01 1.0473506801443582e+01 0 0 -1
1065 2 2.0792985894679578e+01 3.0818504782025258e+01 1.9211404875829150e+01 0 0 -1
1130 2 1.2473291563338639e+01 1.4576569499687785e+01 2.2564389883974432e+01 0 0 -1
2355 2 1.9331222371113849e+01 2.3057097484319254e+01 1.5405768180662616e+01 0 0 0
962 2 2.7004682970128176e+01 3.0144958831448697e+01 2.5349276372766415e+01 0 0 -1
888 2 1.7865434347423044e+01 2.1467649484253510e+01 1.6497070090904547e+01 0 1 -1
1135 1 1.2730672558186539e+01 1.0472536784936796e+01 2.4214355908780469e+01 0 1 -1
299 2 1.2173317387001058e+01 1.5191303827223219e+01 7.4225966758925255e+00 0 0 0
626 2 1.3915380736537092e+01 1.5071157474856438e+01 1.9585351236132404e+01 0 0 -1
1046 2 2.8266987242964092e+01 2.7784218532744912e+01 1.5782857319705725e+01 0 0 0
105 2 8.2639454156276919e+00 1.2662494377928388e+01 9.4176100217149141e+00 0 0 0
2311 1 1.8478886577518431e+01 1.7220049271475233e+01 2.2544444082372703e+01 0 1 -1
1515 2 9.2987106320051502e+00 1.8825713945314288e+01 3.4473568163052821e+00 0 0 0
1896 2 8.7217311627236533e+00 1.3114499477266797e+01 5.7659019606458486e+00 0 0 1
1546 1 1.4258158613529677e+01 1.6335018149257429e+01 2.4164623314317762e+01 0 1 0
984 2 1.7664124213985865e+01 1.0104086070062195e+01 2.0527109061552881e+01 0 1 -1
588 2 7.7880553599581326e+00 7.7074371392059859e+00 5.7027650360759041e-01 0 0 0
909 2 2.1738723960905386e+01 2.6891785906680454e+01 2.2680029441705887e+01 0 0 -1
2668 1 2.6302664080229839e+01 2.6502569244676060e+01 1.2401722515429789e+01 0 0 0
2354 2 2.0093060222153415e+01 2.4423862686372786e+01 1.5060855166505545e+01 0 0 0
247 1 3.2753803151953207e+00 6.1345230060381404e+00 8.0216363203486836e+00 0 0 0
435 2 1.5701929048174591e+01 8.7228249429244009e+00 1.1621664984070312e+01 0 0 -1
1273 1 6.0511318088866890e+00 7.3374660539328325e+00 7.8655549331488117e-01 0 0 0
1132 1 7.0734133136453377e+00 7.5491603279441399e+00 7.0852636205222774e+00 0 1 0
1780 1 1.1182527070754052e+01 9.9561804005236922e+00 1.7150230428613117e+01 0 0 0
898 1 1.7270557801072123e+01 2.4657656848306907e+01 1.9908271232340425e+01 0 0 0
282 2 1.5159110748156596e+01 2.4775937871167169e+00 6.5154208221091023e+00 0 0 0
2673 2 4.5040726646241946e+00 5.3089236595315619e+00 1.3182510130476784e+01 0 1 0
352 1 7.3940837112877009e+00 9.5454804709821204e+00 9.2839641466677172e+00 0 0 0
961 1 2.7554975224868755e+01 3.0038610669430422e+01 2.4524586548747095e+01 0 0 -1
885 2 1.5510670941761379e+01 6.8446724362297973e+00 1.4882904005768363e+01 0 1 -1
489 2 1.6798790359032928e+01 2.6118087851564646e+01 2.7108081963177000e+01 0 0 -1
2316 2 1.3890106165741621e+01 2.6391941473317836e+01 7.4898852286576405e+00 0 0 1
1574 2 1.4372065574862980e+01 3.5412389120176244e+00 9.9049190362841220e+00 0 0 0
818 2 1.1132205629865378e+01 6.0500422983272335e+00 1.5321871465274301e+01 0 1 -1
775 1 1.3226977847511471e+01 2.6244983194806945e+01 4.7650402064439916e+00 0 0 0
1603 1 1.6846933251624645e+01 2.0647033489087899e+01 2.5723692198204677e+01 0 0 0
1278 2 2.7920673735492397e+01 2.9343939558335446e+01 1.3148042629503218e+01 0 0 0
1605 2 1.7119702917727885e+01 2.0558591813099415e+01 2.6639385155027298e+01 0 0 0
203 2 5.9659435705680703e+00 6.1759738115003380e+00 1.7404509870782647e+01 0 1 0
287 2 2.2781424653513053e+01 2.2738702311892375e+01 1.8500350722389682e+00 0 0 0
100 1 4.5906517386164172e+00 7.5440371766394509e+00 6.0581114786690042e+00 0 0 0
1877 2 2.3918746676971494e+01 3.2166167100043516e+01 2.2375577957068344e+01 0 -1 0
2669 2 2.5523971271860823e+01 2.5878580384056971e+01 1.2127205503965250e+01 0 0 0
2323 1 7.4755640532101619e+00 2.0454808885630790e+01 1.8167892490154700e+00 0 1 1
989 2 1.7930139108660885e+01 3.2280560736152019e+01 2.4108784607766211e+01 0 0 0
1016 2 1.6814018613771552e+01 2.9999213663793142e+01 1.1541442909061161e+01 0 0 -1
2283 2 1.1536297000855340e+01 2.3014064486628161e+01 4.9278796944020096e+00 0 -1 0
995 2 6.0540196986007055e+00 1.0640260436310781e+01 2.1704311501652569e+00 0 1 0
97 1 2.4154264688059865e+01 1.2820177748400337e+01 2.6343084861500444e+01 0 0 -1
2361 2 1.0968548373440335e+01 1.3040115578523601e+01 1.4738881775504803e+01 0 0 0
706 1 2.0138451321409647e+01 9.0633622921602246e+00 1.6987611332937707e+01 0 0 0
1513 1 8.4622353826268046e+00 1.8288522768653134e+01 3.4111372108611762e+00 0 0 0
1078 1 1.7193603784399933e+01 2.9408106302769617e+01 1.7201389681404429e+01 0 0 0
963 2 2.8364720989892383e+01 2.9678348210073306e+01 2.4982361809962107e+01 0 0 -1
1547 2 1.4910386511033110e+01 1.6430421211079832e+01 2.3402041941833893e+01 0 1 0
2353 1 1.9212999238306036e+01 2.3919504276296227e+01 1.5017316225819021e+01 0 0 0
917 2 1.3813317826692451e+01 1.4911484343414475e+01 2.6392609404160826e+01 0 1 -1
1018 1 1.1271303683359358e+01 2.6366008303417314e+00 9.0708336999115389e+00 0 1 0
985 1 1.5034782397923916e+01 1.2603805500726812e+01 1.6011878075469681e+01 0 0 0
1884 2 1.5620196157872019e+01 1.9761641457142453e+01 1.3293158987455705e+01 0 0 0
76 1 1.0702301548861001e+01 2.8437126717558048e+01 2.3307007707466854e+00 0 -1 0
298 1 1.2448875833695208e+01 1.6060285558572556e+01 7.9188421504605859e+00 0 0 0
1707 2 1.6248162672634582e+01 1.7756488351394459e+01 1.7772038677929583e+01 0 0 -1
2528 2 1.7637841501734695e+01 3.0454881539033174e+01 2.6695280076876031e+01 0 0 -1
612 2 1.6358001590583456e+01 3.0795995511261314e+01 1.6109768134279630e+01 0 0 0
745 1 2.2890163874672307e+01 2.7310291013153222e+01 1.6132736274481705e+00 0 -1 0
1079 2 1.6349275449807177e+01 2.8869896301050247e+01 1.7263404772940685e+01 0 0 0
883 1 1.4942391510860926e+01 5.9963504781973072e+00 1.4975431527309164e+01 0 1 -1
2442 2 1.6638538950503577e+01 2.1155367096949298e+01 1.1677435205667571e+01 0 0 1
1915 1 1.6968813595662578e+01 2.6174061467586483e+01 1.6653949953591106e+01 0 0 0
2451 2 1.4852235747763512e+01 2.3527795576659592e+01 2.2068944678566627e+01 0 0 0
2315 2 1.3434319933932841e+01 2.7856707749986789e+01 7.6461580217671159e+00 0 0 1
1061 2 1.0387101168843968e+01 1.0072301005461689e+01 2.7124436899239061e+01 0 1 -1
983 2 1.6723987424844939e+01 1.1102061074109074e+01 1.9698180648571249e+01 0 1 -1
923 2 1.9636959947637614e+01 1.8224406619945569e+01 8.4165455080484062e+00 0 0 0
2572 1 1.4965547144297982e+01 2.0508247415323122e+01 1.4850261367793530e+01 0 0 0
354 2 8.2962843494922698e+00 9.1895599041753826e+00 9.3482363809581841e+00 0 0 0
156 2 8.5961178049992846e+00 2.6156424817402599e+00 6.6072762329571528e+00 0 0 0
1589 2 1.0791751258045272e+01 2.4548503403827020e+01 2.1896897452000808e-01 0 -1 1
1616 2 1.6153018628494042e+01 2.5014304412380927e+01 1.0994715782198915e+01 0 -1 0
1050 2 1.5490303150549963e+01 2.0760147589509724e+01 5.0294492654616541e+00 0 0 0
1081 1 2.0200871021849917e+01 1.3057952013743300e+01 1.9360075556272424e+01 0 0 -1
1594 1 1.7418340870797326e+01 2.1732310727048606e+01 1.5012986990295353e+01 0 0 0
2445 2 1.1119041000217852e+01 1.0624625801905792e+01 7.1440636496730265e+00 0 1 0
1588 1 1.1323259160210595e+01 2.3900182532447616e+01 6.6154792913912452e-01 0 -1 1
1150 1 1.8886801728266178e+01 2.0038915352789154e+01 1.3408653223990040e+01 0 0 0
1841 2 2.3478708057682383e+01 1.2727012827347160e+01 2.3061386600266502e+01 0 0 0
313 1 1.2857945523767151e+01 2.2661689960081077e+01 1.1970075302810226e+01 0 0 -1
1118 2 2.1319794598876552e+01 2.6736733896533313e+01 2.0448984128868425e+01 0 0 -1
1872 2 1.6362640634643494e+01 2.8039186232628648e+01 1.9946861561014433e+01 0 0 0
2613 2 2.2998358563214222e+01 2.8982386466115891e+01 1.1327423614694274e+01 0 0 1
1133 2 7.0442757954808570e+00 8.3597708093297136e+00 7.6683085421182566e+00 0 1 0
1762 1 9.4017683416963536e+00 1.2160254570228368e+01 1.2233746811020017e+01 0 0 0
2556 2 2.2097341909110124e+01 2.2069046704600083e+01 2.1964162284214993e+01 0 0 0
2548 1 2.0544218322803591e+01 1.3204753887607897e+01 2.4151084189144925e+01 0 1 0
1870 1 1.7241236528667507e+01 2.7550303713711017e+01 2.0053730899237951e+01 0 0 0
1662 2 7.6890670367980807e+00 1.6210395255532074e+01 8.3076277914650343e-01 0 -1 1
1136 2 1.2253163151478189e+01 1.1166143585883432e+01 2.4714544270719276e+01 0 1 -1
1736 2 1.3576815387983103e+01 1.0488497983780057e+01 6.2636756555344917e+00 0 0 0
376 1 2.3632919401443825e+01 2.8968797046422818e+01 2.2037257442719469e+01 0 -1 0
1109 2 1.3702242696697233e+01 1.0190329865109618e+01 1.8736641691796240e+01 0 0 0
372 2 1.6834070727642700e+01 1.3227480779134325e+01 1.9072195376153104e+01 0 0 0
333 2 9.7591535703910672e+00 4.5812630000892440e+00 1.5568226428141411e+01 0 1 0
2555 2 2.1818699875266347e+01 2.0606351672489421e+01 2.2623725723339586e+01 0 0 0
374 2 2.0793958034592141e+01 1.7421181767850964e+01 2.7109290677936034e+01 0 0 -1
1801 1 1.4193182377089293e+01 2.5489801225582330e+01 1.2869611498606728e+01 0 -1 0
442 1 1.7711950524783560e+01 1.8256113369943169e+01 2.4896568270102378e+01 0 0 -1
2601 2 1.8070934362073615e+01 2.5676743976960484e+01 1.1862497926912086e+01 0 0 0
2600 2 1.9494568440935193e+01 2.6007804849717338e+01 1.2111538148726423e+01 0 0 0
188 2 1.4333345776270576e+01 2.3267371490611815e+01 7.4150688460352931e+00 0 0 0
2444 2 1.0095859675411761e+01 9.8803988079720906e+00 7.9304093513697174e+00 0 1 0
47 2 8.9662199471001998e+00 2.2519579440415434e+01 7.6856693749434708e+00 0 0 0
2642 2 1.9803633958378377e+01 2.9009653686032017e+01 8.3889610591392767e+00 0 -1 1
2307 2 1.9886189493241510e+01 2.6136938008010034e+01 5.3587102782229481e+00 0 -1 0
1119 2 2.0139714992787646e+01 2.6550821462613182e+01 2.1315550626892556e+01 0 0 -1
1088 2 1.0323496184899598e+01 2.0610255128492511e+01 5.4795600484020501e-01 0 0 0
464 2 1.9068901537318137e+01 6.6998545330656949e+00 1.1664938432498264e+01 0 1 -1
1113 2 1.1614033554101461e+01 2.3818133555164788e+01 1.2691223637708640e+01 0 0 0
2306 2 1.9233917756459725e+01 2.4729211205765687e+01 4.8845951024460801e+00 0 -1 0
198 2 1.9911255738442041e+01 2.5157330657771936e+01 8.5537408441556533e+00 0 -1 0
1089 2 1.9489373436891274e+01 2.8680263250763751e+01 2.7059231448630975e+01 0 0 -1
2468 2 1.0676363173864871e+01 1.3906857520735587e+01 3.8332990861678788e+00 0 0 1
2570 2 2.2373813833282430e+01 2.4051826527516646e+01 1.0103927086286493e+01 0 0 0
776 2 1.2870997298465671e+01 2.5348127615459205e+01 4.9360422313565140e+00 0 0 0
830 2 1.6894354285247307e+01 2.8717216614341751e+01 9.9569056447703694e+00 0 0 0
991 1 2.4607342527949442e+01 1.7655476668334295e+01 1.5446076928007708e+01 0 0 -1
1715 2 8.3508319383022105e+00 7.6684405214235642e+00 2.4390566005229037e+01 0 0 0
2604 2 1.5348947172898104e+01 1.6700388745716836e+01 2.1241726115201722e+01 0 1 0
2397 2 1.7247564679632088e+01 2.8787125097300830e+01 6.0408898934305215e+00 0 0 0
1134 2 7.8357188614050486e+00 7.7240615216689603e+00 6.4582786388566946e+00 0 1 0
2644 1 1.4991508199635696e+01 9.3159403837684973e+00 2.1856324004682062e+01 0 0 0
1684 1 1.4899820401434937e+01 2.3724137831001411e+01 2.6641448551810811e+01 0 -1 0
332 2 1.9057198792738500e+01 3.1449838622963640e+01 1.5895819960825415e+01 0 0 0
1735 1 1.2804408642774996e+01 1.0314580538982227e+01 6.8306732592832606e+00 0 0 0
2646 2 1.5876592177811094e+01 9.5815925468369052e+00 2.1479187486098169e+01 0 0 0
2413 1 1.7566665915639128e+01 1.6445201779547137e+01 1.4579306356092463e+01 0 0 1
895 1 1.9690049790824958e+01 2.8734311344497950e+01 2.3637743456481466e+01 0 0 -1
2603 2 1.6724480639481687e+01 1.6792370160878640e+01 2.2015642638844223e+01 0 1 0
2554 1 2.2286853587159943e+01 2.1107618023508042e+01 2.1945771992835823e+01 0 0 0
2629 1 7.3391917218026066e+00 6.3059601890679629e+00 9.6810652934046253e+00 0 0 0
2305 1 1.9915076888781442e+01 2.5148010793553322e+01 5.4207567521189217e+00 0 -1 0
443 2 1.6984663512406339e+01 1.7650969442097114e+01 2.5254642243950514e+01 0 0 -1
829 1 1.6484154723515736e+01 2.8272162309925431e+01 9.1720973236509380e+00 0 0 0
2025 2 1.7022261656146966e+01 7.3222826393137712e+00 2.0531396255616117e+00 0 0 1
994 1 5.6937628398770599e+00 1.1060716115458026e+01 1.3688544273885046e+00 0 1 0
2641 1 2.0147381800596715e+01 2.8338434081910808e+01 9.0062089795835494e+00 0 -1 1
897 2 1.9399097425810684e+01 2.9280548031573932e+01 2.2828038629802268e+01 0 0 -1
318 2 2.2580603705635301e+01 2.6383581624504750e+01 2.5033415202270959e+01 0 -1 -1
725 2 5.6813339910824388e+00 3.9962452516872480e+00 6.4570292669957228e+00 0 0 1
2456 2 1.3078991688010495e+01 2.1456932774684613e+01 2.6576055745223486e+00 0 0 1
1672 1 1.5564880491114067e+01 2.5563569930200224e+01 9.6782479217884276e+00 0 -1 0
1617 2 1.6174391848299443e+01 2.4639985862605002e+01 1.2574700566296588e+01 0 -1 0
1117 1 2.1019884177564329e+01 2.6222890609235350e+01 2.1228080606172213e+01 0 0 -1
1737 2 1.2400618955730554e+01 9.4732243477698503e+00 6.4525705850493944e+00 0 0 0
1909 1 1.6004340209339279e+01 1.3164428745649651e+01 1.2976199920256962e+01 0 0 0
1682 2 5.6064347656692144e+00 3.6065109237336364e+00 8.7305537767228998e+00 0 0 0
368 2 1.6760716299425997e+01 1.4732869273332518e+01 1.0249415416637481e+01 0 0 -1
197 2 1.9829348841591123e+01 2.5460277639328456e+01 7.0709508792858804e+00 0 -1 0
759 2 2.3283461665222568e+01 2.7186459766425990e+01 8.3010200681099278e+00 0 -1 0
2576 2 4.7303316951396832e+00 1.9818939136855402e+00 6.4797693884196477e+00 0 1 0
444 2 1.8485662358018207e+01 1.8070001867967768e+01 2.5454273969545895e+01 0 0 -1
2513 2 1.5991399779803793e+01 2.4922415958073969e+01 2.1102886412351996e+01 0 0 0
5 2 2.2457980017106554e+01 1.0531185639775423e+01 2.3624830431554187e+01 0 -1 0
1681 1 5.8675791678897200e+00 3.0617264790223224e+00 7.9077062503175606e+00 0 0 0
2467 1 1.0516963551789525e+01 1.4871800107368705e+01 3.6524623600404929e+00 0 0 1
1596 2 1.8005927852959243e+01 2.1438764515204390e+01 1.4254646220778149e+01 0 0 0
1621 1 1.3949679540590706e+01 1.3140489973541085e+01 1.9486508129203429e+01 0 0 -1
1622 2 1.3692191192084959e+01 1.2756405698005231e+01 2.0364975045657726e+01 0 0 -1
1151 2 1.7908480633364821e+01 1.9848826050492576e+01 1.3248545995099253e+01 0 0 0
1691 2 1.2505165258714314e+01 2.3787194974800023e+01 2.3008137014020598e+00 0 -1 1
316 1 2.3166596297546416e+01 2.5794176281202596e+01 2.5530056017482394e+01 0 -1 -1
2612 2 2.1813280255607125e+01 2.9363593330318540e+01 1.0319447150916062e+01 0 0 1
2491 1 1.0628157381952946e+01 1.7916898212237843e+01 6.6726556209848873e+00 0 0 1
1020 2 1.2021014369916884e+01 3.2238810981734636e+00 8.9125783522174977e+00 0 1 0
1110 2 1.4041191706581355e+01 9.9229192820023826e+00 2.0353445946610677e+01 0 0 0
1876 1 2.4157760296028162e+01 3.2372286455398573e+01 2.1443733738329563e+01 0 -1 0
2563 1 8.4617335184556790e+00 1.2368019188715948e+01 1.0968167293504163e+00 0 1 0
2630 2 7.1487860861100589e+00 6.5908248283190964e+00 8.7544037682007083e+00 0 0 0
216 2 1.7376528243589789e+01 2.4051223913795869e+01 1.4772183600155989e+01 0 0 0
819 2 9.9376262936600970e+00 7.0134435204493135e+00 1.4774825008527186e+01 0 1 -1
373 1 1.9887809192753007e+01 1.7352010935948314e+01 2.6853799836355982e+01 0 0 -1
1049 2 1.4467142845917902e+01 2.0134097687612961e+01 6.0880825908817187e+00 0 0 0
2512 1 1.5193151934927837e+01 2.5136514001408649e+01 2.1630458332683940e+01 0 0 0
214 1 1.6417627063568528e+01 2.4477899523465474e+01 1.4743642332965052e+01 0 0 0
1900 1 2.3962538575919108e+01 3.3895293844170368e+01 2.6986368696403890e+01 0 -1 0
375 2 9.2501998324399075e+00 1.0760354997384585e+01 3.8272750414709655e-01 0 0 0
1668 2 1.0179595038222487e+01 1.1624247149908559e+01 4.0022778638769516e+00 0 0 1
2439 2 9.5624185849311303e+00 1.6764735286027069e+01 5.8296383952383684e+00 0 1 0
189 2 1.3469454829576478e+01 2.1930272113864781e+01 7.5605410880398258e+00 0 0 0
844 1 1.9062709561162517e+01 2.0805817027971578e+01 2.3534726825356866e+01 0 0 -1
187 1 1.3373534633330330e+01 2.2909407156162665e+01 7.5272055620269391e+00 0 0 0
149 2 2.0371263010248644e+01 3.4167043651471303e+01 2.3340069095878498e+01 0 -1 -1
314 2 1.2780662706074200e+01 2.3190521284826634e+01 1.1096310039070024e+01 0 0 -1
2602 1 1.5780636265743855e+01 1.7012786227225256e+01 2.2045617825573714e+01 0 1 0
1548 2 1.3399962535594121e+01 1.6098629711579271e+01 2.3744293184439154e+01 0 1 0
1560 2 2.7369258328228970e+01 3.3424245717092440e+01 2.6164755688663465e+01 0 0 0
2598 2 1.5206865246502300e+01 2.3862808933957574e+01 1.7494118447630193e+01 0 0 0
271 1 1.6397070375114264e+01 7.5304845606365935e+00 2.3716174855695336e+01 0 0 0
2469 2 1.0307778474787716e+01 1.4920663103598885e+01 2.7252207257750753e+00 0 0 1
1826 2 5.3280083054505791e+00 6.9882199622786185e+00 1.3582130312581342e+01 0 0 0
385 1 1.0789041506982969e+01 1.3950123975973691e+01 7.7362457529071105e-01 0 0 0
154 1 8.5896381887058020e+00 2.5533789004305589e+00 7.6096503153566646e+00 0 0 0
2626 1 1.4290610934847322e+01 2.0985270081178498e+01 2.0424224294326031e+01 0 0 0
1152 2 1.8981620539610809e+01 1.9676065261480758e+01 1.4304120313799707e+01 0 0 0
625 1 1.4126123782914757e+01 1.6006442399541957e+01 1.9639819252646152e+01 0 0 -1
1878 2 2.4021753504308510e+01 3.3367346702043569e+01 2.1345003268141745e+01 0 -1 0
2437 1 8.9508138825727421e+00 1.6291545058229207e+01 5.2693725916056051e+00 0 1 0
1615 1 1.6623338973871601e+01 2.4531230007474914e+01 1.1695503587267673e+01 0 -1 0
920 2 2.1836714426768275e+01 2.2497456193413491e+01 1.6031130638096997e+01 0 0 -1
284 2 1.4627720182369476e+01 7.6566057065322779e+00 1.8402514671947579e+01 0 1 -1
871 1 1.0512116639806109e+01 1.1710202072045952e+01 2.2262423047384008e+01 0 0 0
820 1 1.0917310484498003e+01 1.8776092172999661e+01 2.9541998747418657e-01 0 0 0
2670 2 2.5925716053585713e+01 2.7413684682503707e+01 1.2210625786365538e+01 0 0 0
117 2 2.3464437056302746e+01 2.2152285591123057e+01 2.5274763422606757e+01 0 0 -1
1787 2 1.1967071052365913e+01 2.7910926304674394e+01 1.0830239838011630e+01 0 -1 1
2492 2 1.0612526649718141e+01 1.8879295936279675e+01 6.7393015067876476e+00 0 0 1
1085 2 1.4774578642136063e+01 1.8730389064041432e+01 4.7468538830054401e+00 0 0 0
848 2 1.3559954818332960e+01 1.9758899895397441e+01 8.3316830636789803e+00 0 0 -1
273 2 1.6628748133579439e+01 6.5615431431293754e+00 2.3769477932134226e+01 0 0 0
1084 1 1.4805890512941538e+01 1.7752085423960608e+01 4.7726379100970169e+00 0 0 0
1910 2 1.5756439398169160e+01 1.2346767543890497e+01 1.2517251719694995e+01 0 0 0
1087 1 9.7759814332874271e+00 2.1420046232756587e+01 7.5945651839692141e-01 0 0 0
555 2 2.5719658564922913e+01 1.7665104978081576e+01 2.0973443212671921e+01 0 0 -1
196 1 2.0346365003161303e+01 2.5738137622212989e+01 7.8475338139329560e+00 0 -1 0
777 2 1.3155207494147543e+01 2.6345796766100538e+01 3.7701147170849039e+00 0 0 0
308 2 2.2347344079385774e+01 2.8571593467757957e+01 2.0000800438936874e+01 0 0 -1
309 2 2.1093079031223642e+01 2.8524418558015469e+01 1.9095539869049656e+01 0 0 -1
3003 2 7.2050672915665217e+00 5.9347464526310558e+00 5.0750506868194556e+00 0 1 0
1809 2 1.7718648980195020e+01 1.3367869906676210e+01 1.3448855213337556e+01 0 0 0
880 1 1.6633543406340287e+01 1.9818451698587694e+01 2.2799677428217006e+01 0 0 0
315 2 1.3585007992075152e+01 2.3074184775528536e+01 1.2506920078985376e+01 0 0 -1
283 1 1.3978779029899449e+01 6.9833083594179852e+00 1.8694194377087175e+01 0 1 -1
386 2 2.0959148002232165e+01 2.1525815345374522e+01 2.7103839042249469e+01 0 0 -1
77 2 1.0196015792814052e+01 2.8074834213794514e+01 3.0544024587866700e+00 0 -1 0
726 2 5.1942207071005058e+00 4.3758863960251411e+00 4.9732624708599733e+00 0 0 1
1881 2 9.0297662165532184e+00 9.4118670034845273e+00 2.2073847379776108e+01 0 0 0