LAMMPS data file via write_data, version 15 Apr 2020, timestep = 500000

3072 atoms
2 atom types

1.1271608609361827e-01 3.0027477913905116e+01 xlo xhi
1.2691397624659118e-01 2.8213552023750601e+01 ylo yhi
1.3657792948159653e-01 2.7274867070514240e+01 zlo zhi
1.0152915513124842e+01 1.0193400178182021e+01 7.0810097535747687e+00 xy xz yz

Masses

1 16
2 2

Atoms # atomic

1 1 7.3731059917608146e+00 5.1214835510466683e+00 4.1236832130780972e+00 0 0 0
2 2 6.6062256041512457e+00 4.9223697675513609e+00 3.5100233632082283e+00 0 0 0
3 2 7.0964851552357988e+00 5.8699159626067861e+00 4.7001457491969729e+00 0 0 0
4 1 9.8561580289893076e+00 6.7098334884543522e+00 1.0943459184781387e+01 0 0 0
5 2 1.0273285125919807e+01 6.2990372466085454e+00 1.1781183815358832e+01 0 0 0
6 2 9.4441808353612196e+00 7.5836453548300735e+00 1.1226849939021500e+01 0 0 0
7 1 9.8640077437554439e+00 1.2204866270050145e+01 4.2094553848660290e+00 0 0 0
8 2 1.0292647370057347e+01 1.1755539311192040e+01 4.9956764036858434e+00 0 0 0
9 2 9.7390707958131255e+00 1.3142474616909796e+01 4.4459934100148999e+00 0 0 0
10 1 1.2307328131886072e+01 1.3933200043094402e+01 1.1012533734970477e+01 0 0 0
11 2 1.3078203522764108e+01 1.3929471817721740e+01 1.0463108371905664e+01 0 0 0
12 2 1.1549759141594052e+01 1.3489194964773088e+01 1.0443846941034545e+01 0 0 0
13 1 1.4844786328996792e+01 5.4417359563083316e+00 4.2605453951909542e+00 0 0 0
14 2 1.5363754993076649e+01 5.0182713802666585e+00 4.9019215775663554e+00 0 0 0
15 2 1.4329514605895858e+01 6.2147973107879917e+00 4.5865373246930945e+00 0 0 0
16 1 1.7730991910840544e+01 6.9396165592704282e+00 1.0866466983001073e+01 0 0 0
17 2 1.8194586846289312e+01 6.6378793108186374e+00 1.1643659209165742e+01 0 0 0
18 2 1.8464997698525238e+01 7.3328650426258832e+00 1.0375435101590689e+01 0 0 0
19 1 1.7392489331870259e+01 1.2304033769057783e+01 4.2258150578101743e+00 0 0 0
20 2 1.8206878822858684e+01 1.2563025330373662e+01 3.7836608296945902e+00 0 0 0
21 2 1.7795421441872698e+01 1.1946378481353758e+01 4.9866835941006666e+00 0 0 0
22 1 2.0178763905752710e+01 1.3935698831261030e+01 1.1023968476605134e+01 0 0 0
23 2 2.0775328846246822e+01 1.4276282136132954e+01 1.0329262706164510e+01 0 0 0
24 2 1.9827868417504284e+01 1.4780314460680311e+01 1.1345318978932356e+01 0 0 0
25 1 1.1779714760921076e+01 8.2376783072283164e+00 6.5099140869908609e+00 0 0 0
26 2 1.1073948069635165e+01 8.7814956190475151e+00 6.1400936374561637e+00 0 0 0
27 2 1.1281487557876407e+01 7.6016328815953571e+00 7.0809406762541096e+00 0 0 0
28 1 1.4251282951964383e+01 9.9821082394253384e+00 1.2921918490843717e+01 0 0 0
29 2 1.4612573366117664e+01 9.3872375649246376e+00 1.2235516326778876e+01 0 0 0
30 2 1.3514035890196952e+01 1.0485995489429794e+01 1.2433301468453600e+01 0 0 0
31 1 1.3817781384656842e+01 1.5151293877585513e+01 6.5187919254759761e+00 0 0 0
32 2 1.4244258221256166e+01 1.4759599330850570e+01 5.7051850767009409e+00 0 0 0
33 2 1.3027241932655112e+01 1.5572078404150794e+01 6.0949509608918557e+00 0 0 0
34 1 1.6504300580937105e+01 1.6909551106304846e+01 1.2999738772992524e+01 0 0 0
35 2 1.5713501840555216e+01 1.7389770581142194e+01 1.2767514481317011e+01 0 0 0
1109 2 1.1882023365423594e+01 2.2827506898927027e+01 1.1555465800868706e+01 0 0 0
37 1 1.9053260413223263e+01 8.0559186956844400e+00 6.0954484579988168e+00 0 0 0
38 2 1.8314933089255192e+01 8.6008771885831479e+00 5.7919703561444775e+00 0 0 0
39 2 1.8730636474885443e+01 7.4452592418834271e+00 6.8093664150007180e+00 0 0 0
40 1 2.1541528044805766e+01 9.8116076970174468e+00 1.3152814507361811e+01 0 0 0
1152 2 2.4079302797338308e+01 3.1020765249655767e+01 1.2058267195066682e+01 0 0 0
345 2 6.1613530034699178e+00 1.3113514705897645e+01 3.9123010960167948e+00 0 0 0
849 2 9.4286508513314580e+00 2.2514867884520811e+01 2.2791646147717370e-01 0 0 0
44 2 2.0989377250903253e+01 1.5727614146547912e+01 6.3332778989420131e+00 0 0 0
1151 2 2.4807583749952791e+01 3.0176329292729161e+01 1.2963929932611338e+01 0 0 0
285 2 2.0385046009611550e+01 1.3157392809522420e+01 3.5208860811713034e+00 0 0 0
47 2 2.3477631396896101e+01 1.7612273901550171e+01 1.2695992240853254e+01 0 0 0
882 2 1.9969093118706823e+01 1.9465299090839778e+01 1.3136156204739990e+01 0 0 0
49 1 5.3025153035743102e+00 3.6902826015244434e+00 2.6969092463406823e+00 0 0 0
50 2 5.5828248542738628e+00 2.7547320184126507e+00 2.5853633983304660e+00 0 0 0
51 2 4.4108483070387621e+00 3.5577131256612970e+00 3.1940946584271361e+00 0 0 0
52 1 8.0524322654128202e+00 5.1225765694861156e+00 9.8018585379168393e+00 0 0 0
53 2 7.5447625074884002e+00 5.6753483020870501e+00 9.1717497085257413e+00 0 0 0
54 2 8.8580833724774539e+00 5.6089980184177488e+00 1.0147169023121917e+01 0 0 0
55 1 7.7740289956691209e+00 1.0731201545954315e+01 3.1150104117979209e+00 0 0 0
56 2 8.0880307647240173e+00 9.8047177560068430e+00 2.8544799252336883e+00 0 0 0
57 2 8.5383676915442930e+00 1.1169621724256945e+01 3.4718390700601529e+00 0 0 0
58 1 1.0212539377039056e+01 1.2637937043867208e+01 9.8701366906131049e+00 0 0 0
59 2 9.8495502823901742e+00 1.3059773047521723e+01 9.0584850695632255e+00 0 0 0
60 2 1.0526754626803017e+01 1.1757566735924623e+01 9.5232697520215961e+00 0 0 0
61 1 1.3052830005427776e+01 3.8177380715895421e+00 3.0359024210044918e+00 0 0 0
62 2 1.3695599831319724e+01 4.4303570773301022e+00 3.4846155515499087e+00 0 0 0
63 2 1.2570105293925069e+01 4.1866303098553548e+00 2.2875950225383610e+00 0 0 0
64 1 1.5260089627937541e+01 5.6666084634840104e+00 9.5756782933226692e+00 0 0 0
65 2 1.6038802964258849e+01 6.1768006836544371e+00 9.8433644473219193e+00 0 0 0
66 2 1.5417189363269813e+01 4.7474091401217562e+00 9.2325196339681472e+00 0 0 0
67 1 1.5575104083388322e+01 1.1016554378432927e+01 2.6707035684151705e+00 0 0 0
68 2 1.6286770332156301e+01 1.1553112973203834e+01 3.1737004336795938e+00 0 0 0
69 2 1.5865995187898120e+01 1.0081091213151177e+01 2.5153661330726509e+00 0 0 0
70 1 1.7945440643351255e+01 1.2241235751867986e+01 9.4290633155584800e+00 0 0 0
71 2 1.7343433021770295e+01 1.2834223863314103e+01 8.9023989311502678e+00 0 0 0
72 2 1.8537031965218787e+01 1.2789844727167324e+01 9.9884873267090413e+00 0 0 0
73 1 1.0173260485022766e+00 9.7960888060396489e-01 2.7899916089310917e-01 0 0 0
809 2 2.6690938273014176e+01 2.3512045973436781e+01 1.2344243610232491e+01 0 0 0
86 2 8.7771028205273787e+00 1.4174942805289088e+00 2.6997923911063937e-01 0 0 0
326 2 1.1640242687622189e+01 5.1838742236901227e+00 2.3420864010316222e-01 0 0 0
77 2 4.0932401176757311e+00 2.2903241199808977e+00 7.6041929943598907e+00 0 0 0
42 2 2.0893703883003127e+01 1.0409082502588214e+01 1.2629079784396135e+01 0 0 0
940 1 1.6705307012644880e+01 2.0261147768251192e+01 1.2972506593366960e+01 0 0 0
1140 2 1.8158363555598939e+01 3.0744068145539856e+01 1.2379350083582585e+01 0 0 0
81 2 4.4250265160267199e+00 7.4011283634046698e+00 1.0394268402705009e+00 0 0 0
82 1 6.3842319779399173e+00 9.5401779787806706e+00 7.5039668578720446e+00 0 0 0
1089 2 1.0980827084795616e+01 2.5076986694409069e+01 4.9527031693370843e-01 0 0 0
84 2 7.1226367511426512e+00 8.9435918746095968e+00 7.6801358000995661e+00 0 0 0
85 1 8.6978297323502858e+00 6.5472830082778999e-01 8.9596068803953766e-01 0 0 0
1116 2 1.4845674126505012e+01 3.0102588817629709e+01 1.1587017025156051e+01 0 0 0
87 2 8.4534558493858381e+00 1.1178844932743628e+00 1.7507423119927814e+00 0 0 0
88 1 1.0923906010614477e+01 2.6719666791686176e+00 7.2580331708478827e+00 0 0 0
89 2 1.1744237209392818e+01 2.2533320155104284e+00 7.6446555774491944e+00 0 0 0
90 2 1.1397257403422456e+01 3.4231388387676276e+00 6.7253600462068759e+00 0 0 0
91 1 1.0788969110237563e+01 8.0685846132011250e+00 7.1681544863834146e-01 0 0 0
860 2 1.6016867359642355e+01 2.1310835171812482e+01 2.4888927750264317e-01 0 0 0
93 2 1.1337617521385276e+01 7.5681827656848322e+00 1.3151117839636899e+00 0 0 0
94 1 1.3927626788536836e+01 9.7385851987425927e+00 7.7690567622479509e+00 0 0 0
95 2 1.4681355481062361e+01 9.0809722622642148e+00 7.9500743900496387e+00 0 0 0
96 2 1.3188355721354693e+01 9.2875930057270377e+00 7.2873079135538026e+00 0 0 0
97 1 5.4319199919905081e+00 4.5101527157846606e+00 6.1607556225375211e+00 0 0 0
98 2 5.6312114235549515e+00 5.1547950058112448e+00 6.9130980146456462e+00 0 0 0
99 2 4.8225724668906054e+00 3.8640698124341197e+00 6.5482381330082218e+00 0 0 0
100 1 8.0808395422411685e+00 6.0012654747204319e+00 1.2993937335954788e+01 0 0 0
101 2 7.7722180607399700e+00 6.5676626767254405e+00 1.2213572641995807e+01 0 0 0
102 2 8.3022377037566084e+00 5.1824196281858494e+00 1.2566885270500563e+01 0 0 0
103 1 7.7533192999205180e+00 1.1382595306882333e+01 6.1290821424394109e+00 0 0 0
104 2 7.4019646015306773e+00 1.1978994065368926e+01 5.4412831675731130e+00 0 0 0
105 2 6.9912126030976411e+00 1.0868838117305152e+01 6.4164966320707046e+00 0 0 0
106 1 1.0079541015365207e+01 1.3072731993006496e+01 1.2876653180320517e+01 0 0 0
107 2 1.0362355043279335e+01 1.3581504324023175e+01 1.3608090408743823e+01 0 0 0
108 2 1.0856967967037070e+01 1.2663992463422373e+01 1.2418004842686070e+01 0 0 0
109 1 1.2611028741240464e+01 4.2693023765507885e+00 6.3116632963263495e+00 0 0 0
110 2 1.3396875231227787e+01 3.8004807587333254e+00 6.0047022694218706e+00 0 0 0
111 2 1.2391682625356980e+01 5.1111913290730602e+00 5.7464747835762067e+00 0 0 0
112 1 1.5506070106421406e+01 6.2024066249146594e+00 1.2835131653907602e+01 0 0 0
207 2 1.5534777028187129e+01 2.3663903914178679e+00 2.5045309501098454e+00 0 0 0
1571 2 1.1087906633169135e+01 1.2690942272885646e+01 2.8100427966376051e-01 0 0 1
115 1 1.5065105227025388e+01 1.1448323552057454e+01 6.0829498969316651e+00 0 0 0
116 2 1.4664568805947988e+01 1.0883216242913916e+01 6.7301455336839568e+00 0 0 0
117 2 1.5495288686390420e+01 1.2103980194647228e+01 6.6666080753914940e+00 0 0 0
118 1 1.8010566170286225e+01 1.3195849002956200e+01 1.2911529802102207e+01 0 0 0
847 1 8.8176573191489265e+00 2.1962920950927863e+01 7.4855392797609599e-01 0 0 0
120 2 1.7587385552811625e+01 1.3865522175569707e+01 1.2343030162496197e+01 0 0 0
2396 2 2.1041244934750118e+01 2.4991738976910238e+01 1.3362222766073975e+01 0 0 0
1150 1 2.4856720078400414e+01 3.0460347535494908e+01 1.2039908812807303e+01 0 0 0
123 2 3.5209766108287219e+00 2.2421139734693116e+00 4.5287757937985358e+00 0 0 0
124 1 5.7377426827877009e+00 4.3196757897776585e+00 1.1271670280971778e+01 0 0 0
125 2 6.5087656319378686e+00 4.7791737835497594e+00 1.0872041466859656e+01 0 0 0
126 2 6.0924591595760162e+00 3.5351906302069653e+00 1.1731590665496793e+01 0 0 0
127 1 5.7321577124274548e+00 9.7619424056917516e+00 4.5516641253095962e+00 0 0 0
344 2 6.9898741923578669e+00 1.4061109721343422e+01 4.9180389631806536e+00 0 0 0
129 2 6.4014468246092813e+00 1.0146798889877656e+01 3.9719666210861875e+00 0 0 0
130 1 8.0646842161319956e+00 1.1430388691788188e+01 1.1243163309652218e+01 0 0 0
851 2 1.1591991144208540e+01 2.4616610006919490e+01 6.9449661068778932e+00 0 0 0
132 2 8.8014844748871202e+00 1.1828443136319079e+01 1.0730985304193725e+01 0 0 0
133 1 1.0765573541659737e+01 2.7731867191446922e+00 4.3266107635124369e+00 0 0 0
134 2 1.1242393955177164e+01 2.1095310269040133e+00 4.8119759670859006e+00 0 0 0
135 2 1.1420779533824300e+01 3.2289956991228039e+00 3.7117077498383533e+00 0 0 0
136 1 1.3174338125164786e+01 4.5249865598309640e+00 1.1249586148675045e+01 0 0 0
137 2 1.3897335982725062e+01 4.9653818047400904e+00 1.0767031071897780e+01 0 0 0
138 2 1.2754468655630623e+01 5.1574363066286910e+00 1.1869479288314635e+01 0 0 0
139 1 1.2991498393129099e+01 9.9442684527206264e+00 4.0921704308256732e+00 0 0 0
140 2 1.3746095964327989e+01 1.0424562443440486e+01 3.6860785339982405e+00 0 0 0
141 2 1.3453625381420741e+01 9.2167431757868155e+00 4.5244732326458452e+00 0 0 0
142 1 1.5814694133026654e+01 1.2019234370261758e+01 1.1204993308716320e+01 0 0 0
143 2 1.6611968970634223e+01 1.2254609712175238e+01 1.0685257813564633e+01 0 0 0
144 2 1.5973026270275410e+01 1.1215095257371004e+01 1.1628051765026887e+01 0 0 0
145 1 6.6067807737873192e+00 2.1472494552782724e+00 5.1945103166194952e+00 0 0 0
146 2 7.4375906984677300e+00 1.8006498816198417e+00 5.6048243912645512e+00 0 0 0
147 2 6.4305015457384327e+00 3.0795388365525493e+00 5.5495673934787764e+00 0 0 0
148 1 9.3784981729836492e+00 3.5446988486420494e+00 1.2011228906538896e+01 0 0 0
149 2 9.8039345371619113e+00 3.7726525555443846e+00 1.1125228831525625e+01 0 0 0
150 2 1.0163700039929493e+01 3.4461746460553071e+00 1.2599309423841973e+01 0 0 0
151 1 9.4831384789922186e+00 9.2048030430349481e+00 5.1591017792316896e+00 0 0 0
152 2 8.9828140243812573e+00 1.0015981725852713e+01 5.3884082606934811e+00 0 0 0
153 2 9.9798650478178477e+00 9.4833091005800476e+00 4.3631260482190442e+00 0 0 0
154 1 1.1905135588144002e+01 1.1019831679205485e+01 1.1841966110710109e+01 0 0 0
155 2 1.1126126151780833e+01 1.0411003194927634e+01 1.1844288104910589e+01 0 0 0
156 2 1.2152568890253702e+01 1.1060389580865714e+01 1.0891983273989331e+01 0 0 0
157 1 1.4416669711333093e+01 2.1480984168601340e+00 5.4292067670528716e+00 0 0 0
158 2 1.5361634261248893e+01 1.9611407408015396e+00 5.8086444848005483e+00 0 0 0
159 2 1.4698365596023988e+01 2.4846030247164492e+00 4.5477908880052631e+00 0 0 0
160 1 1.6873824247633479e+01 4.1284785664639267e+00 1.1956583384248951e+01 0 0 0
161 2 1.6504730046565683e+01 4.9592894379430508e+00 1.2303921168312137e+01 0 0 0
162 2 1.6126105863658694e+01 3.5464557736724913e+00 1.2102307058230302e+01 0 0 0
163 1 1.6916842623638608e+01 9.2225434604064223e+00 5.1892020668342846e+00 0 0 0
164 2 1.6313190605950489e+01 9.9519813606454086e+00 5.2688721291790817e+00 0 0 0
165 2 1.7278483809715254e+01 9.2972762426698701e+00 4.3144126282336543e+00 0 0 0
166 1 1.9391395424130550e+01 1.1169067530653965e+01 1.1848351646669215e+01 0 0 0
167 2 1.9055716437376617e+01 1.2005637407715914e+01 1.2178656918589695e+01 0 0 0
168 2 1.9823488259192082e+01 1.1307906193134176e+01 1.0991506547340588e+01 0 0 0
169 1 9.0158526449729326e+00 4.1932708086590083e+00 6.0747459493291869e+00 0 0 0
170 2 9.6599923448954996e+00 3.4789213507428700e+00 5.7522839713154124e+00 0 0 0
171 2 8.3554914753679075e+00 4.3020849149776481e+00 5.3852456789064780e+00 0 0 0
172 1 1.1275401818100988e+01 6.0495294414136787e+00 1.3036222165502799e+01 0 0 0
79 1 3.6525146995020714e+00 7.9621779809943556e+00 7.6300997425153161e-01 0 0 0
45 2 2.1867400336484700e+01 1.4930270018420355e+01 5.5351075662265234e+00 0 0 0
175 1 1.1640620568239337e+01 1.1161940898621014e+01 6.3766864183516168e+00 0 0 0
176 2 1.2296505405682966e+01 1.0728169454714079e+01 5.8089717292986069e+00 0 0 0
177 2 1.2125661556649918e+01 1.1922655933018474e+01 6.7732259688007863e+00 0 0 0
178 1 1.3926012372745012e+01 1.3613285017037882e+01 1.3167266116676307e+01 0 0 0
179 2 1.3159961599868423e+01 1.3697992707430451e+01 1.2583245041321726e+01 0 0 0
180 2 1.4757958043451039e+01 1.3338730125534820e+01 1.2731553709008621e+01 0 0 0
181 1 1.6719479789513649e+01 4.3155299738590784e+00 5.9061912520853372e+00 0 0 0
182 2 1.7362372273566969e+01 3.8239636178245382e+00 5.3411388661758776e+00 0 0 0
183 2 1.7212406667868606e+01 5.0029368924390631e+00 6.4139192656536110e+00 0 0 0
184 1 1.9343200106408730e+01 6.3154464721056192e+00 1.3341255564999747e+01 0 0 0
1139 2 1.7002320989007337e+01 3.0166966682499833e+01 1.3313193951015455e+01 0 0 0
261 2 1.7779547168122946e+01 1.1062252623264998e+01 1.9443812181374684e-01 0 0 0
187 1 1.9039280753875843e+01 1.1675087873142967e+01 6.2848937243270298e+00 0 0 0
188 2 1.8662189979478434e+01 1.1009596249688341e+01 6.9062454914675966e+00 0 0 0
189 2 1.9110181656711710e+01 1.2469776630447249e+01 6.7974427803197059e+00 0 0 0
190 1 2.1857099496430088e+01 1.3073966533819952e+01 1.2940190266719988e+01 0 0 0
1136 2 1.4030286451354959e+01 2.8605634889776596e+01 6.0153210814281692e+00 0 0 0
192 2 2.1224877444353758e+01 1.3319008400851914e+01 1.2231313833869278e+01 0 0 0
193 1 8.4717922235993601e+00 2.4345267714903316e+00 2.9709444339826034e+00 0 0 0
194 2 7.8288181165979394e+00 2.4724928840535854e+00 3.7210011570431956e+00 0 0 0
195 2 9.3419661630778190e+00 2.4984062701626977e+00 3.3707704891171737e+00 0 0 0
196 1 1.0763163424983556e+01 4.2531633490104666e+00 9.7019099585367456e+00 0 0 0
197 2 1.0969434265619372e+01 3.7127054533430721e+00 8.8822335554487033e+00 0 0 0
198 2 1.1729790476422313e+01 4.4290209192020473e+00 9.9337820463717232e+00 0 0 0
199 1 1.0633300645845461e+01 9.7610082089242738e+00 2.5840000236015941e+00 0 0 0
200 2 1.0745722990818777e+01 9.2482882755369502e+00 1.7874574415353930e+00 0 0 0
201 2 1.1467401222009178e+01 9.9881659399254215e+00 3.0201975429331167e+00 0 0 0
202 1 1.3289409850994284e+01 1.1716480876440009e+01 9.5920673852571721e+00 0 0 0
203 2 1.4063272025409676e+01 1.1942573165866040e+01 1.0036326205290681e+01 0 0 0
204 2 1.3661111556081854e+01 1.1025018557867497e+01 8.9908835302135071e+00 0 0 0
205 1 1.5810886160065289e+01 3.1936158402181749e+00 3.0006625603266284e+00 0 0 0
2547 2 1.7301920101366576e+01 2.1582462597592464e+01 1.3596043573815356e+01 0 0 0
1358 2 6.8754959410868679e+00 1.6540192307298675e+01 2.9830566151719706e+00 1 0 0
208 1 1.8525809242399518e+01 4.2079245532400718e+00 9.7096057774324080e+00 0 0 0
209 2 1.7786582737014534e+01 3.9490462121088301e+00 1.0281123482643343e+01 0 0 0
815 2 2.8974930021847463e+01 3.0175874999259030e+01 1.3469577079365131e+01 0 0 0
211 1 1.8600931942270876e+01 9.6147950495976815e+00 3.0159594890065695e+00 0 0 0
1056 2 2.8015448055005400e+01 2.9202872422980271e+01 1.0003392247729307e+01 0 0 0
213 2 1.8320857099766052e+01 1.0283128994385724e+01 2.3815196238327729e+00 0 0 0
214 1 2.0795634482620144e+01 1.1713540730564251e+01 9.5872207813072059e+00 0 0 0
128 2 4.9420765071213060e+00 9.7042821438332663e+00 3.9719171388344567e+00 0 0 0
121 1 3.2398135325207003e+00 3.1086488236656962e+00 4.0720671959653352e+00 0 0 0
217 1 5.5712719706926546e+00 1.0826669148065968e+00 1.9482104953921289e+00 0 0 0
218 2 4.6854956849982070e+00 6.5411665012010833e-01 1.8470953277378503e+00 0 0 0
219 2 5.8499797636004951e+00 1.3389276412514526e+00 1.0497275419171195e+00 0 0 0
220 1 7.9985001932291286e+00 2.8128120032773083e+00 8.2581599840756414e+00 0 0 0
221 2 8.0073784315608574e+00 3.6550780630488306e+00 8.7562812433490436e+00 0 0 0
222 2 8.5637084289655103e+00 3.0020346918188090e+00 7.4844482308562661e+00 0 0 0
223 1 8.0341904005464553e+00 8.1693561065391211e+00 1.8406896216791888e+00 0 0 0
224 2 8.7245041890014665e+00 7.5499725022830342e+00 2.1458376141203415e+00 0 0 0
225 2 8.4450278643195524e+00 8.5988036427100241e+00 1.0248405101669542e+00 0 0 0
226 1 1.0730751972110886e+01 1.0152754787829943e+01 8.7172395159754537e+00 0 0 0
227 2 1.1233903503380541e+01 9.3873002890007005e+00 9.0824493411193643e+00 0 0 0
228 2 1.1250180639300909e+01 1.0428364205732159e+01 7.8609084871363768e+00 0 0 0
229 1 1.3293168803288962e+01 1.3040677770557636e+00 1.7300416073882967e+00 0 0 0
230 2 1.2460974123340735e+01 8.3387732168402517e-01 1.8590207135595227e+00 0 0 0
231 2 1.3307131742229243e+01 2.1136553434964980e+00 2.2623741380393447e+00 0 0 0
232 1 1.5486182324354182e+01 3.1728570563441245e+00 8.4439712100896873e+00 0 0 0
233 2 1.6227772033311169e+01 2.6005585082595406e+00 8.7575070743289434e+00 0 0 0
234 2 1.5516233945509306e+01 3.2397843023722572e+00 7.5108739215931744e+00 0 0 0
235 1 1.5496296557442566e+01 8.6010017210871492e+00 1.3304102937965774e+00 0 0 0
236 2 1.5914575074392165e+01 9.0222272474655476e+00 5.2199074814686530e-01 0 0 0
237 2 1.6052317343326891e+01 7.8878808251011883e+00 1.6246243029969678e+00 0 0 0
238 1 1.8124741419616704e+01 9.8436921600437355e+00 8.2081880845730044e+00 0 0 0
239 2 1.8729583973787399e+01 9.2722114107745632e+00 8.7382563033971703e+00 0 0 0
240 2 1.8034967591139790e+01 1.0661164026051472e+01 8.8778569945900294e+00 0 0 0
241 1 7.7702486639161146e+00 4.6600065659472341e+00 1.0773626114498531e+00 0 0 0
242 2 7.9223068969881627e+00 4.0151682300808300e+00 1.8368457249522609e+00 0 0 0
243 2 6.8567707161951148e+00 5.0171502184130770e+00 1.1948401202300045e+00 0 0 0
244 1 9.9800085297963417e+00 6.1431796102838323e+00 7.7797301300032453e+00 0 0 0
245 2 1.0191776215802291e+01 5.4471196947972889e+00 8.4196714383972893e+00 0 0 0
246 2 9.5889239113730689e+00 5.7947683324419712e+00 6.9892518317637311e+00 0 0 0
247 1 9.5685901691723672e+00 1.1946715284573015e+01 9.3599310729615159e-01 0 0 0
248 2 9.0950065013781405e+00 1.2661400101840197e+01 1.3604879156409759e+00 0 0 0
249 2 1.0018030240611340e+01 1.1421922756628911e+01 1.5962206970563946e+00 0 0 0
250 1 1.2259450272737284e+01 1.3527709730023222e+01 7.7657007827528028e+00 0 0 0
251 2 1.2742406957739218e+01 1.3113718665094982e+01 8.5267706268945354e+00 0 0 0
252 2 1.2907711442305407e+01 1.4121176339320101e+01 7.3210484445490662e+00 0 0 0
253 1 1.4919132928478881e+01 4.9283795443415110e+00 9.1627920349973280e-01 0 0 0
254 2 1.5362933594708124e+01 4.5623687753670330e+00 1.7108369161328634e+00 0 0 0
255 2 1.4459567006223052e+01 5.7103802210703352e+00 1.2106720272833682e+00 0 0 0
256 1 1.7743580610327385e+01 6.2876171661604374e+00 7.7003847572399788e+00 0 0 0
257 2 1.7787291584591777e+01 5.6530106345071518e+00 8.4553574562324503e+00 0 0 0
258 2 1.7056081400348226e+01 6.8780678648043203e+00 7.9531430470178490e+00 0 0 0
259 1 1.8089313667557903e+01 1.1529985754822951e+01 9.8243316786178891e-01 0 0 0
260 2 1.7262738473491794e+01 1.1816817372432475e+01 1.3349369819607486e+00 0 0 0
722 2 1.8403239182186304e+01 6.4154347447543305e+00 3.9389715827427070e+00 0 0 0
262 1 1.9826074586521607e+01 1.3529007920817209e+01 7.7054050283456013e+00 0 0 0
263 2 2.0186934572210980e+01 1.2932278243992709e+01 8.4282982153204955e+00 0 0 0
264 2 2.0613392802719069e+01 1.3849245375373197e+01 7.2139739803368128e+00 0 0 0
265 1 9.8367005340226168e+00 6.1398756432216519e+00 3.0029297820415151e+00 0 0 0
266 2 8.9702453955083623e+00 5.7689817613973799e+00 3.2812703371023044e+00 0 0 0
267 2 1.0211793512827244e+01 5.6130539661440864e+00 2.2330029595924796e+00 0 0 0
268 1 1.1975883307047921e+01 7.9202366793254679e+00 9.7569910082887183e+00 0 0 0
269 2 1.2436555402310637e+01 7.3354198827791093e+00 9.0914385810174831e+00 0 0 0
270 2 1.1236342556122802e+01 7.3416466617235168e+00 1.0064131289658539e+01 0 0 0
271 1 1.2143328894899961e+01 1.3131906730635173e+01 2.7940721542677647e+00 0 0 0
272 2 1.2850117754451926e+01 1.3250050366057870e+01 3.4209316599232853e+00 0 0 0
273 2 1.1395053559472203e+01 1.2733376695687461e+01 3.2320075261830352e+00 0 0 0
274 1 1.4400925519322559e+01 1.4702722164240500e+01 9.6202986455672050e+00 0 0 0
275 2 1.3946792882252950e+01 1.5452859589302602e+01 9.2158608729968439e+00 0 0 0
276 2 1.5125388508461340e+01 1.5051584914166984e+01 1.0186912513794544e+01 0 0 0
277 1 1.7057265480596115e+01 6.6019557041145651e+00 2.9426759250358492e+00 0 0 0
278 2 1.6222994612172883e+01 6.0302659218697574e+00 3.2143657338078269e+00 0 0 0
282 2 2.0587692332566270e+01 8.0232691584368823e+00 1.0030826651629969e+01 0 0 0
280 1 1.9876015014083848e+01 7.7854741919725292e+00 9.4160754314009889e+00 0 0 0
119 2 1.7270302300272071e+01 1.2698556978242474e+01 1.3278127134009425e+01 0 0 0
881 2 2.0840084324638447e+01 2.0733496910593878e+01 1.3354327492560548e+01 0 0 0
283 1 1.9564390668154076e+01 1.2988051025036567e+01 2.9880487176477604e+00 0 0 0
1144 1 2.2288413901842034e+01 2.3473354602977622e+01 1.1884156776480204e+01 0 0 0
846 2 8.5715712149953678e+00 1.7377427966423994e+01 7.9836365708027746e+00 0 0 0
286 1 2.2116204183329479e+01 1.4951567380540480e+01 9.4261260222848673e+00 0 0 0
953 2 2.4375192247341765e+01 2.0617755567788315e+01 1.3346996161107704e+01 0 0 0
288 2 2.1705552737181698e+01 1.5814302477465787e+01 9.1812613145824304e+00 0 0 0
289 1 5.8481626058979703e+00 6.6212865508459524e+00 1.8834572249442656e+00 0 0 0
290 2 5.4556293059325842e+00 6.6772571410773480e+00 2.7827011710079543e+00 0 0 0
291 2 6.5662344912437325e+00 7.3264591437859776e+00 1.9037318879073006e+00 0 0 0
292 1 8.6142130390947020e+00 8.4454348794219598e+00 8.7372897360228414e+00 0 0 0
293 2 8.9239258551709479e+00 7.5900997662572482e+00 8.4039425098065230e+00 0 0 0
294 2 9.3040927182981612e+00 9.1758778722731353e+00 8.6351260574927693e+00 0 0 0
295 1 8.3177693909715984e+00 1.4201775225713558e+01 2.2234710561933477e+00 0 0 0
296 2 7.8811487746998585e+00 1.3882741169741479e+01 3.0846360466282894e+00 0 0 0
297 2 7.5802787860553806e+00 1.4237226039848307e+01 1.5792753007710676e+00 0 0 0
298 1 1.0902493162539596e+01 1.5863603436979858e+01 8.7410325505823270e+00 0 0 0
299 2 1.1256534366368241e+01 1.5077939555164033e+01 8.2823100561827889e+00 0 0 0
300 2 1.0117888459829990e+01 1.6203975445719959e+01 8.1486870431268397e+00 0 0 0
301 1 1.3115966041628301e+01 7.1992175469154285e+00 1.8066941931891525e+00 0 0 0
302 2 1.2993642169737505e+01 7.4491455873666208e+00 2.7041683186657881e+00 0 0 0
303 2 1.3646061696406603e+01 7.9564888392348152e+00 1.4684347737371810e+00 0 0 0
304 1 1.6029836247216416e+01 8.1715994173873305e+00 8.4931899729818614e+00 0 0 0
305 2 1.5786382890712988e+01 8.1649823062351263e+00 9.5052882490709862e+00 0 0 0
306 2 1.6669899940167468e+01 8.9441361391683714e+00 8.4379798466738993e+00 0 0 0
307 1 1.5797348169201747e+01 1.3583122467931924e+01 2.0803653751890518e+00 0 0 0
308 2 1.5267487569587784e+01 1.4079899456782027e+01 1.4585030572043727e+00 0 0 0
309 2 1.6629466320474648e+01 1.4081630343443289e+01 1.9770280248738246e+00 0 0 0
310 1 1.8502314034799078e+01 1.5734186462133460e+01 9.0152859212344438e+00 0 0 0
311 2 1.8915534275170515e+01 1.4980984887669043e+01 8.4888952263157922e+00 0 0 0
312 2 1.7806174643338458e+01 1.6015645112711589e+01 8.3322085665463614e+00 0 0 0
313 1 3.1629240876489186e+00 4.4827801974817394e+00 9.1942934182429947e-01 0 0 0
206 2 1.6733256732521312e+01 2.9197525183373458e+00 3.2690768637667480e+00 0 0 0
315 2 3.9258564429760825e+00 4.1565319560006948e+00 1.4699504667850898e+00 0 0 0
316 1 6.5465008597360201e+00 6.3983633973889509e+00 7.7253974823297762e+00 0 0 0
317 2 6.8456931811792234e+00 6.9668108673615201e+00 6.9614824505020145e+00 0 0 0
318 2 5.9255811791463460e+00 6.8666987643399109e+00 8.2800644582710685e+00 0 0 0
319 1 6.4419964482687542e+00 1.1695687085692072e+01 1.0050833484382578e+00 0 0 0
320 2 5.9849799835271247e+00 1.0929924314001454e+01 6.0378891580928018e-01 0 0 0
321 2 6.8997726820947038e+00 1.1404090340479280e+01 1.8514106587250503e+00 0 0 0
322 1 8.7302584065540323e+00 1.3533445305139734e+01 7.8306051604461171e+00 0 0 0
323 2 7.8575516241702825e+00 1.3863577335264637e+01 8.0573322752304897e+00 0 0 0
324 2 8.4296146813972292e+00 1.2839914817525386e+01 7.2341789156232261e+00 0 0 0
325 1 1.1379460493700309e+01 4.6959232848783650e+00 1.0352870355085535e+00 0 0 0
122 2 2.6809778181160087e+00 3.6239528113518880e+00 4.7106428687510808e+00 0 0 0
2630 2 2.1751591139729769e+01 2.2633356065053867e+01 1.3530407794736291e+01 0 0 0
328 1 1.3569747990983288e+01 6.4966788011044905e+00 7.7251835692457131e+00 0 0 0
329 2 1.3331503107753361e+01 5.6030921507887506e+00 7.4772196332026013e+00 0 0 0
330 2 1.4266654876784607e+01 6.4531199176452585e+00 8.4498365058732503e+00 0 0 0
331 1 1.3654591613918008e+01 1.1489833300638731e+01 1.0211547797301215e+00 0 0 0
332 2 1.3088054972948958e+01 1.1978088996901628e+01 1.6164839249584713e+00 0 0 0
333 2 1.4467729574597602e+01 1.1381132346052473e+01 1.6000998847865151e+00 0 0 0
334 1 1.6271095209319533e+01 1.3596382757251142e+01 7.6630260598468745e+00 0 0 0
335 2 1.6696146948537091e+01 1.4119597645713915e+01 6.9400554061963886e+00 0 0 0
336 2 1.5668105485358081e+01 1.4200812503166555e+01 8.1569193153544486e+00 0 0 0
337 1 4.4400618627086477e+00 6.3570643605754071e+00 4.2637088204590201e+00 0 0 0
338 2 4.6159068413064279e+00 5.5715640694471267e+00 4.7952888689676021e+00 0 0 0
1138 1 1.7216462595674130e+01 3.0297782282720103e+01 1.2391771303976048e+01 0 0 0
340 1 7.1277397962910110e+00 8.1344809018296580e+00 1.0896685740231014e+01 0 0 0
1022 2 1.9479305445542238e+01 1.8055541732970475e+01 3.3110739262102418e-01 0 0 0
342 2 7.7673252704201570e+00 8.4331686340364751e+00 1.0179711447871096e+01 0 0 0
343 1 6.9793482136193035e+00 1.3219596172613924e+01 4.3978355158993487e+00 0 0 0
1106 2 8.8656419123406689e+00 2.0760675143709676e+01 3.7696827309827170e+00 0 0 0
512 2 2.0254136089232432e+01 1.0795752834311500e+01 5.1687325344254820e+00 0 0 0
346 1 9.3754665804508175e+00 1.5133381522960448e+01 1.1073548159482291e+01 0 0 0
347 2 1.0091826311220553e+01 1.5379716158939072e+01 1.0439055219878554e+01 0 0 0
348 2 9.8100804492898579e+00 1.4483200592512009e+01 1.1593531364274025e+01 0 0 0
349 1 1.2010344622990013e+01 6.1342013738961061e+00 4.5821630997306473e+00 0 0 0
350 2 1.1923234757731445e+01 6.8743715914227508e+00 5.1875538952265803e+00 0 0 0
351 2 1.1170081453609416e+01 6.0846487071154076e+00 4.0734258491994231e+00 0 0 0
352 1 1.4772545310449610e+01 8.0924435187715389e+00 1.0891586035402900e+01 0 0 0
353 2 1.4883447858211889e+01 7.2309134758452203e+00 1.1417864552724401e+01 0 0 0
354 2 1.3887026020851964e+01 8.0830866011378255e+00 1.0556850710812235e+01 0 0 0
355 1 1.4388621295720547e+01 1.3476383179410435e+01 4.4603899654514354e+00 0 0 0
356 2 1.4666630833735370e+01 1.2618196551449444e+01 4.8703787335999413e+00 0 0 0
357 2 1.5002858370488440e+01 1.3480378146276250e+01 3.7028199096765029e+00 0 0 0
358 1 1.6676082375158202e+01 1.5195487544499787e+01 1.1039500882398086e+01 0 0 0
359 2 1.6615910665999046e+01 1.5811916146823513e+01 1.1808475793499211e+01 0 0 0
360 2 1.7348653030765021e+01 1.5449626485578278e+01 1.0409569217177348e+01 0 0 0
361 1 7.0993684185293429e+00 7.4340906461506586e+00 5.3722048345600344e+00 0 0 0
362 2 6.4199283231780493e+00 8.0932687309669795e+00 5.1129045213422328e+00 0 0 0
363 2 8.0072558561850755e+00 7.8400748012869030e+00 5.3267960388705697e+00 0 0 0
364 1 9.7864175933088884e+00 9.4323501184102199e+00 1.1993965532256247e+01 0 0 0
365 2 9.1127006659524614e+00 1.0123508205241322e+01 1.1799286982599734e+01 0 0 0
366 2 9.7039476207230155e+00 9.1293045441395329e+00 1.2932991868541531e+01 0 0 0