LAMMPS data file via write_data, version 8 Apr 2021, timestep = 4427000

1008 atoms
2 atom types

0.0333619422123477 18.450038057776847 xlo xhi
0.25688533775942585 22.16031466224513 ylo yhi
0.1628278099040908 19.227354190089326 zlo zhi
0.10387559791309088 -7.147713939492009 0.028835419007864738 xy xz yz

Masses

1 16
2 2

Atoms # atomic

1 1 1.7519590496040631 4.316021196807091 2.669819085245945 0 0 0
2 2 2.4406187943330386 4.795884847210913 3.1211433686791317 0 0 0
3 2 1.1287434619615364 3.9151675557728427 3.302895744696955 0 0 0
4 1 3.203011531349821 6.0478163989577505 4.420584564634044 0 0 0
5 2 4.005783375863778 5.46546018407747 4.524774783940146 0 0 0
6 2 3.454754525405084 6.714159132858018 3.759662845352348 0 0 0
10 1 0.7632395972618451 3.142812498530545 4.989774116170858 0 0 0
11 2 0.8981631973697463 3.846683876069188 5.7324046424056485 0 0 0
12 2 -0.09166490503601832 2.7520482321374926 5.237177936137781 0 0 0
14 2 1.7264097600566857 3.7576213166309125 0.9041705474673095 0 0 0
16 1 2.716239411400152 0.9187849268327155 2.5296737223396937 0 0 0
19 1 0.045107000644489005 1.2101059513693952 2.7070827066671197 0 0 0
24 2 -1.0169858744567046 1.370969023832343 6.846940179032699 0 0 0
28 1 0.8726141633704015 2.438955106049373 8.86472634588064 0 0 0
30 2 0.5722184494826285 1.8292548120456849 8.1923536608506 0 0 0
31 1 0.5736609520243664 6.882515565108077 5.048993893499813 0 0 0
32 2 1.5184495181052597 6.6660279809854845 5.0853767437198405 0 0 0
33 2 0.5527554965662713 7.631438876022792 4.38899947930162 0 0 0
36 2 -0.4876932500853224 7.4012929660233135 8.798362205657487 0 0 0
38 2 -0.8945838077348707 4.802504046715616 7.350887588397649 0 0 0
39 2 -1.7485102281195783 4.057285616509056 8.226431577913125 0 0 0
40 1 0.847777696270396 4.582736734462276 7.246621678134735 0 0 0
41 2 1.5629366866543228 5.291280886498575 7.300350214543752 0 0 0
42 2 1.087008458904253 3.907080320932021 7.99033970249838 0 0 0
43 1 4.10603992454038 3.6579735152358706 7.424863615034712 0 0 0
44 2 4.373937213127168 4.247611884228047 6.724022938491548 0 0 0
45 2 3.597137169298058 2.8979016460746423 6.986420661509284 0 0 0
46 1 2.8312347440757164 1.8350153567965075 6.041954400989058 0 0 0
48 2 1.9801123337802549 2.1994320459889423 5.6887900204653885 0 0 0
49 1 5.427632888692464 1.6489454719082477 8.90326160808109 0 0 0
50 2 5.272304414022447 2.5193879414188243 8.478166048344978 0 0 0
52 1 5.214910403590882 4.515160016126274 4.799173920035462 0 0 0
53 2 6.180401163886236 4.744634044152225 4.666304012678495 0 0 0
54 2 5.071446962903605 3.8299630653246908 4.121270020901886 0 0 0
57 2 3.8084266365886603 4.272802548110751 8.844284406088978 0 0 0
58 1 2.595665829468176 6.813282894721655 7.397315245268434 0 0 0
59 2 3.5074869533216053 6.578445707941256 7.1369133819860435 0 0 0
60 2 2.7256741967437375 7.1919073138211616 8.361113989228071 0 0 0
61 1 5.445515477345682 6.5676384376964805 7.11602231436375 0 0 0
62 2 5.747601113746251 7.243589128668437 7.683243911348841 0 0 0
63 2 6.133867626637786 5.883011788899712 7.195273915161404 0 0 0
64 1 5.661467801904111 7.148019130407053 2.3964592303887806 0 0 0
65 2 6.287668369018659 6.615569013945954 2.9450351276912805 0 0 0
66 2 5.312354123462202 7.70896400989997 3.14220134458602 0 0 0
67 1 7.457901303968884 5.354164122134956 3.692760731783073 0 0 0
68 2 7.8416725651129076 4.5001458479286445 3.3990237165444874 0 0 0
69 2 8.131935908903268 5.772358880726316 4.223842934301513 0 0 0
70 1 4.638908461597136 5.11803591651193 0.9728747409110513 0 0 0
71 2 5.002959694445601 5.881047614380895 1.5430430678502332 0 0 0
75 2 4.495231121344249 1.3858649925889062 5.021350092494748 0 0 0
79 1 7.613382132679015 2.9826322849848252 2.3760409394460664 0 0 0
80 2 7.337897350740562 3.472032067445648 1.5558680633241755 0 0 0
81 2 6.765869584007531 2.6007605878650772 2.65777010521297 0 0 0
82 1 4.708925956967377 2.7677396631299227 2.7347646022075844 0 0 0
83 2 4.5375255920343935 3.461207034821143 2.0546646804388815 0 0 0
84 2 4.016700551757567 2.0878847390308133 2.647501850981919 0 0 0
91 1 9.398172314654337 6.030813222862219 1.0043341610427525 0 0 0
104 2 8.911939585284994 2.045005518121476 2.4610606791229914 0 0 0
109 1 7.34190523722525 2.333915839039526 5.7214011390867325 0 0 0
110 2 6.4940836594967895 1.926111508698578 5.429568490593798 0 0 0
111 2 7.13765731971173 3.009383825436014 6.409765824738835 0 0 0
121 1 7.2938742515062485 4.66445101384318 7.63516963131304 0 0 0
123 2 7.298111982578282 4.137201120633389 8.517343320465926 0 0 0
153 2 -0.8019526715070062 5.8559959743620205 4.683693665016988 0 0 0
180 2 -0.21642487738644559 10.008697613106213 4.725437808521512 0 0 0
184 1 2.9277465544682286 8.497176014494833 2.6223863821008053 0 0 0
185 2 3.1044384642600478 8.043845554841077 1.7501243962823192 0 0 0
186 2 1.957591959929302 8.817417322806564 2.5777142783243043 0 0 0
187 1 0.12659867331607358 8.315047059338834 3.010570329992688 0 0 0
189 2 0.04056460029544489 7.526086074689587 2.433093228085957 0 0 0
190 1 -0.3663268117799683 7.958676986300248 7.273417151710543 0 0 0
191 2 0.10029110099317405 7.680525527466546 6.421385460241445 0 0 0
192 2 -1.059594227360439 8.627074024151199 6.946846800368039 0 0 0
198 2 0.8170740101344115 9.057452806851131 7.965181148997809 0 0 0
214 1 2.8626321190044615 8.848930478705384 5.8262859910075315 0 0 0
215 2 2.6536780091988135 8.020867833980844 6.321943015763239 0 0 0
216 2 1.9881941415476592 9.092458025043243 5.437923568659811 0 0 0
217 1 5.542802269620716 9.227557011024523 8.700502585911407 0 0 0
218 2 5.184757178652902 10.009940805513445 8.256484064189062 0 0 0
241 1 5.523634086884365 8.310111786654241 4.8753866645895165 0 0 0
242 2 5.618079380763115 7.543165213574997 5.4846652405393925 0 0 0
243 2 4.6511212255413765 8.629158815290703 5.084892535997741 0 0 0
245 2 6.2771441387537035 7.876923181182343 0.8733448003539582 0 0 0
247 1 7.5073259089951065 10.11226871016235 2.526463819995333 0 0 0
249 2 6.546160134937711 10.27834341558103 2.5958849890549858 0 0 0
252 2 4.122904371497451 9.694851597727691 2.703661747150007 0 0 0
272 2 8.869924781938169 8.841442960367667 2.559466356617501 0 0 0
273 2 9.283683205143475 7.4035624639251125 2.0552612455763217 0 0 0
277 1 7.40364808707241 9.985488858989944 6.074863920690456 0 0 0
278 2 6.606136532575251 9.509238234738755 5.760200142992132 0 0 0
271 1 9.526772591306905 8.127253652648822 2.738122301230745 0 0 0
213 2 3.671140922103028 10.281711508760996 6.987179077234619 0 0 0
93 2 9.642014917358846 5.489597082677999 1.8526309807740133 0 0 0
196 1 1.141171350661356 9.7837065586865 8.598868183680985 0 0 0
9 2 0.9297632373632604 5.473561201658913 1.918484732589289 0 0 0
18 2 1.7651580303534242 1.106205620861981 2.785318360708931 0 0 0
108 2 7.709110206960303 0.9018356569623069 6.782884790543044 0 0 0
276 2 8.246478948087631 8.650031886297347 7.039690003653626 0 0 0
103 1 9.674250467786171 1.3581412398279877 2.580147806131311 0 0 0
96 2 8.99090479746848 2.6207012227788042 4.994562409474248 0 0 0
122 2 8.252905499354247 4.8934150541176145 7.5536940413313 0 0 0
117 2 9.56404781468711 7.430953705229616 4.201450172430236 0 0 0
250 1 4.832819506660276 10.389657706385258 2.607466539849659 0 0 0
264 2 8.948421804220281 10.07111240955476 5.169016538232822 0 0 0
98 2 11.216705543898104 3.849170365830844 1.335637445588915 0 0 0
37 1 -1.8233650806767052 4.634956601766876 7.489327953199289 0 0 0
7 1 0.4429070121161941 6.143433792472176 1.3364818346925877 0 0 0
20 2 -0.6400999981327523 1.9208316992934986 2.9116074889857058 0 0 0
279 2 7.113620002584523 10.87583728378424 6.320965823214355 0 0 0
87 2 10.419026056302352 3.9232207141056197 3.4445749920283735 0 0 0
120 2 8.744147987361451 7.169258430820325 8.937135921859646 0 0 0
94 1 9.85408224002174 3.151399754509397 4.99364402822256 0 0 0
85 1 10.709257621123921 4.639167381345273 2.867759992339039 0 0 0
274 1 8.874059954200792 8.055281670603389 7.4407036768773285 0 0 0
115 1 9.538343935400688 6.8515627469084865 5.007895528294231 0 0 0
275 2 9.449670576001568 7.515155871815785 6.9150138075763605 0 0 0
95 2 9.906098326483344 3.759108419272793 5.800148211616377 0 0 0
270 2 11.480690984667142 8.607467695353293 2.534408222399446 0 0 0
116 2 10.300976331893098 6.261688955107216 4.854342487061022 0 0 0
102 2 11.272973804494466 1.414215144210166 2.542036067278227 0 0 0
86 2 11.496779345245212 5.11042748313345 3.176588722275908 0 0 0
262 1 9.77561911004413 10.499644720089842 4.967836322383445 0 0 0
188 2 -0.44744341108304486 9.006806945753203 2.6152413515022688 0 0 0
73 1 5.267886243046059 0.84391627367686 4.91617753337837 0 0 0
47 2 2.655763673446013 0.9187674291332439 6.413349577931414 0 0 0
124 1 10.156438379215203 4.65446520886257 7.161095360907749 0 0 0
114 2 9.51874210133994 1.515177362182905 7.884351118662606 0 0 0
282 2 9.760853972001007 9.070673666761358 8.24821852748914 0 0 0
300 2 10.978726341640606 9.620496858721841 5.345656360121723 0 0 0
269 2 12.091493099359042 7.802103555873861 1.462393897442368 0 0 0
132 2 11.243810343166881 2.121550312252629 5.349503690635427 0 0 0
126 2 10.26002760594879 3.8937763307716 7.789487844024498 0 0 0
268 1 12.349477466393754 8.235200013761219 2.310489727215621 0 0 0
178 1 0.6920274415962391 10.41342549699969 4.701910213758306 0 0 0
125 2 10.887464729715516 5.252641722987343 7.325291110465812 0 0 0
280 1 10.105931179053492 9.839074328366769 8.83402915297196 0 0 0
112 1 9.814126412734266 2.3475143058938754 8.375548654969075 0 0 0
100 1 12.26193448167768 1.324944470623509 2.4616117671262665 0 0 0
88 1 12.189094525500522 6.275467505440094 4.195047158043301 0 0 0
90 2 12.536543961746972 6.965168878808556 3.5801828559828186 0 0 0
299 2 11.440140624162463 8.27914640882796 6.050796855914121 0 0 0
298 1 11.805828467567519 9.140893589630071 5.6713941007146 0 0 0
832 1 12.195654552569504 8.317828691446598 9.644391656834836 0 0 0
211 1 4.218641376477979 11.011451842306522 7.293052555180131 0 0 0
25 1 -1.896258209909286 2.4563072383361657 5.952113464187734 0 0 0
560 2 6.263555540050528 4.839279916638829 0.5206177678145861 0 0 0
219 2 6.2603708659198 9.507385706507113 9.309563562250249 0 0 0
328 1 15.821503826520013 8.532960832516165 0.2672401833681179 0 0 0
21 2 -0.3910948072350997 0.7479606571170572 1.9563379215201486 0 0 0
193 1 -1.8832734560872697 9.813019464998503 5.688519842845159 0 0 0
22 1 -0.20020576379714716 0.7971808026399871 7.172802851928617 0 0 0
105 2 9.423078997300454 0.6461616068664724 1.9483217498568568 0 0 0
248 2 7.6416357873893315 10.569781982944017 1.6980087638599441 0 0 0
130 1 12.042719234904046 1.7433122042980171 5.671251911542519 0 0 0
154 1 14.099974948569722 5.605666470853755 1.2090361064270598 0 0 0
336 2 13.692487515198103 9.573757247768452 2.3109629232170668 0 0 0
168 2 13.320215324052173 2.620127670619167 2.713194170213664 0 0 0
89 2 12.923224445445971 6.032024318379471 4.7703981302244625 0 0 0
142 1 11.776089864966554 6.812598642068079 7.264726696790757 0 0 0
167 2 13.764719416992842 4.138774390561676 2.329623654185433 0 0 0
131 2 11.815076218473466 0.905172299644456 6.156980007914619 0 0 0
155 2 14.241607921758542 6.42528151600596 1.6950691112556853 0 0 0
539 2 1.9434832549641388 6.7742754993198435 0.5314553023456936 0 0 0
281 2 10.835322264574144 9.410882343471851 9.320692191790192 0 0 0
29 2 1.664567241353764 2.0245444024992545 9.32607578227018 0 0 0
750 2 4.114248519595553 8.621250409922082 9.51595920930905 0 0 0
144 2 11.75767159575832 7.303834590322933 8.130544903666827 0 0 0
334 1 14.314049761702824 10.324051304375148 2.474493692377049 0 0 0
51 2 6.1994629842403945 1.850044985753751 9.467175213362284 0 0 0
166 1 13.980349450517208 3.378399326758885 2.9520574606171923 0 0 0
129 2 12.753024260201569 3.045178303403202 6.864306740803545 0 0 0
297 2 12.763362683539244 10.186312403777201 6.861450155998901 0 0 0
327 2 13.478366180471966 8.607758848915891 5.087871220550317 0 0 0
143 2 12.730854917813373 6.671435555055776 7.046983774717293 0 0 0
159 2 14.003759364123603 1.5335561171902716 4.62464634685051 0 0 0
603 2 8.543984617601476 2.634864396381236 9.510920248874916 0 0 0
17 2 2.6821441062404547 0.5038143451296238 1.6091112436482227 0 0 0
306 2 14.153041062158307 10.972447347491402 3.9393846069800897 0 0 0
92 2 8.615553430160134 5.610472982972049 0.6516894482474471 0 0 0
161 2 15.630575116957509 0.7132057843747253 0.9973342717945332 0 0 0
179 2 0.7120389051473455 11.058546641782412 5.424903068830442 0 0 0
687 2 -0.46058905886929413 10.152314961936177 9.241431702814413 0 0 0
101 2 12.47672015490428 1.006612178466643 1.579050520070998 0 0 0
685 1 -1.289351480958336 10.61524657779004 9.486326369114469 0 0 0
266 2 11.119206965542965 10.784765689749877 0.9054325635545516 0 0 0
27 2 -2.138864312892809 3.317247700297202 6.3292580778802545 0 0 0
135 2 -3.0051595975150156 2.0357724436478635 9.176413539190209 0 0 0
182 2 2.049594736154557 10.993107284437889 0.9983343391809164 0 0 0
77 2 6.306498854512854 0.912242433189584 1.1701781928335047 0 0 0
195 2 -1.9810793606653767 10.667779612421779 6.132397876615626 0 0 0
197 2 1.8299504422066897 9.46718288701976 9.246535206928728 0 0 0
72 2 3.9816472039656086 5.704307793599502 0.4759297188034905 0 0 0
156 2 13.284968939208266 5.733918793380799 0.6389394135474783 0 0 0
106 1 8.417353570354337 0.3249452823506422 7.142674412316089 0 0 0
644 2 15.698705060356103 5.198989531369984 0.5838057343085221 0 0 0
97 1 11.216685680216399 3.3167133923211214 0.49481511677026263 0 0 0
664 1 12.08475377019856 1.3496558590587289 9.668210240333677 0 0 0
113 2 10.630266690178694 2.1089252015007562 8.825962998255868 0 0 0
34 1 -0.4861571542827009 6.88210796399006 9.654960287018495 0 0 0
255 2 10.048422722574458 10.773784401316366 3.179806598795236 0 0 0
335 2 14.112648183459886 11.05801150126477 1.8350243505774373 0 0 0
582 2 3.870320615731707 1.2751100828871795 9.625152455366418 0 0 0
303 2 -2.7858977210704143 9.498402445862084 9.232766750886869 0 0 0
519 2 -0.6020981880098532 2.749562580335074 9.38547361819076 0 0 0
171 2 1.0568050502399546 11.17806292549224 3.127935208844316 0 0 0
138 2 14.245113570322852 4.27229168831388 4.464946942244821 0 0 0
295 1 13.435776892444258 10.874647476198078 7.157447879239041 0 0 0
251 2 4.4933877377872005 10.933341268013686 1.9006206209345287 0 0 0
769 1 7.6964460153009355 10.587520726681243 9.443768402195632 0 0 0
623 2 11.001977537841839 6.46496160402152 0.2470321029640315 0 0 0
771 2 8.702423050188925 10.317754278725344 9.408086766587898 0 0 0
559 1 7.151616043917066 4.525525907164475 0.25665408096896897 0 0 1
210 2 1.1146224733064733 11.218381568033124 7.415382711786375 0 0 0
263 2 9.948878350911155 11.09275745910435 5.7415148434712995 0 0 0
99 2 12.176932142837531 3.1879838048005418 0.29111557791345793 0 0 1
76 1 6.240689692252169 1.3335436365245223 0.2650438510951996 0 0 0
517 1 -1.525178365657988 3.0870403539635483 9.529158195301822 0 0 0
296 2 13.614682011002618 11.214364052977425 6.234730249974654 0 0 0
294 2 10.242568447726281 11.19505088642631 7.7487440994872765 0 0 0
369 2 0.2045838504563826 0.2717525299683616 4.164281016651544 0 1 0
331 1 17.031709758696707 10.59860968637237 2.3692658878379884 0 0 0
301 1 14.807065926144203 9.102943973327251 8.850357003627064 0 0 0
139 1 13.327717836470608 4.797327044266804 9.634936372305708 0 0 0
834 2 13.110602765920344 8.53029651988964 9.426357981996548 0 0 0
158 2 14.719327074033338 0.4264933634096757 5.511346664477168 0 0 0
152 2 17.006869957984726 4.678297964816299 3.7940030825273476 0 0 0
486 2 15.043206795249626 0.3700794485239419 3.0890821831469455 0 0 0
151 1 16.723694716426955 5.4817399043215715 4.272912817872286 0 0 0
643 1 16.624557818114024 4.940966033407498 0.38968703604345145 0 0 1
666 2 13.027222679099804 1.4691899117849065 9.60029084980738 0 0 0
26 2 15.702725686657745 2.0257818613150214 5.597981760340857 0 0 0
165 2 15.773096210698196 3.2608497735158752 2.6757783501673056 0 0 0
133 1 14.611826419536618 1.6247950564634586 8.778378392523717 0 0 0
333 2 16.06023407464086 10.392412739103872 2.3396495049136967 0 0 0
145 1 14.686408105084846 6.9967156099795496 7.290615179841499 0 0 0
194 2 15.638635125459988 9.486234103780179 5.4998391424335225 0 0 0
134 2 14.294795320075927 2.2618315973193193 8.08603657472883 0 0 0
127 1 13.469985182393813 3.5213936811772313 7.378038786604694 0 0 0
141 2 13.409125407481019 4.313374076461471 8.791891223953085 0 0 0
325 1 14.401139125875119 8.33215278756516 5.070147693859083 0 0 0
150 2 14.960405144052698 7.888265090548222 3.4770133994495067 0 0 0
157 1 14.721294711822189 0.947164679521582 4.690360456653225 0 0 0
148 1 15.411418111153486 7.3570135485906505 2.7998095447826796 0 0 0
128 2 13.840820349854473 4.1416081351662175 6.673068582846416 0 0 0
136 1 14.36291234651551 4.826975944792484 5.2454945838129285 0 0 0
329 2 15.777792845057562 7.978842916619882 1.098448945849103 0 0 0
163 1 16.749735311657144 3.3104118996456258 2.5136747606591725 0 0 0
8 2 18.121319560351264 5.6778034073758175 0.8255769305055584 0 0 0
146 2 14.889559943957115 7.589383797322895 8.07898108391997 0 0 0
147 2 15.293080700511387 6.240035741439418 7.375053904420713 0 0 0
332 2 17.24308144913973 11.112854523056578 1.58431952117028 0 0 0
137 2 15.24152832657925 5.231160007615588 5.027419937523735 0 0 0
302 2 14.482014404882207 9.655352467534554 8.106154788756507 0 0 0
149 2 16.145881284347595 6.824953292694502 3.171491430103655 0 0 0
164 2 16.731747859629134 3.8216942009397177 1.6570714492391392 0 0 0
326 2 14.553162786562806 7.797917175399497 5.826673216844565 0 0 0
605 2 8.977874040042947 0.5546635255572214 11.401442712535045 0 0 0
805 1 11.072781571183064 9.17395575900224 18.100723359198252 0 0 0
836 2 13.364610458678735 10.875852228946732 11.037385997417672 0 0 0
520 1 -0.2573008316021671 0.9079373161789692 11.785018103423266 0 0 0
661 1 10.843443271091088 1.1221638229753812 14.440947839186652 0 0 0
618 2 6.087663912278177 2.189296291704971 17.77911620511229 0 0 0
831 2 10.149619964508505 8.807415293428319 14.34319419944781 0 0 0
906 2 1.9794346270163605 0.48446582077886313 12.898299725203893 0 0 0
639 2 -6.626192585726762 2.1833010554945402 18.811066935327737 0 0 0
581 2 2.7665473229922113 0.6927692641463561 10.666478511643723 0 0 0
35 2 -1.410162625230905 6.528815889911429 9.801854932143327 0 0 0
160 1 8.477605690486147 1.0353851921385635 19.077030455274496 0 0 -1
246 2 0.11897797473348411 8.623512341044634 19.045152015744012 0 0 0
780 2 4.366800871125636 8.767783922284991 16.219203474104255 0 0 0
597 2 6.475495490581214 5.5044965297779775 11.249013207028526 0 0 0
635 2 8.00690090749902 0.8620683703778744 15.975310595858172 0 0 0
578 2 1.710198062853628 0.5368469629671975 15.113283630962584 0 0 0
717 2 -0.09393640062230976 10.035192046705928 16.247388408951974 0 0 0
526 1 -4.236042817139795 0.4665399603573589 16.703948925697347 0 0 0
802 1 8.712496768448727 8.964543886379692 15.389919984185534 0 0 0
702 2 -3.2333194541199117 9.183253226236289 17.610492560932055 0 0 0
119 2 7.806462457693956 6.562746606559312 9.971697239589323 0 0 0
596 2 5.313631857030978 5.812107023106414 10.31572609318571 0 0 0
806 2 10.940090533645854 9.825558920473574 17.40444351928535 0 0 0
660 2 10.063448761222825 5.7079554873986975 10.077513338682891 0 0 0
555 2 2.7415228919346415 2.2611665685524454 19.073363709238425 0 0 0
617 2 7.326704553162551 2.1303876931702583 18.6956404666639 0 0 0
683 2 -2.7192523996468703 10.859064792745528 15.255943619957545 0 0 0
804 2 7.881226879842401 9.412300922207189 15.191940334904121 0 0 0
505 1 -1.7844400269984277 4.264436178892176 12.028096325273145 0 0 0
506 2 -1.135268316160952 4.837082112626578 12.436925999674273 0 0 0
507 2 -2.3373755172559014 3.891145991998946 12.719392350553884 0 0 0
508 1 -0.6651390616443158 6.218854668602326 13.486061446938788 0 0 0
509 2 0.07518633201846282 5.904116536607188 13.999253148884382 0 0 0
510 2 -0.36210585837293185 7.02861446518346 13.143612445878357 0 0 0
665 2 11.843842172563127 0.9747006551075701 10.546247965699699 0 0 0
801 2 9.220739526086156 10.540756162161282 16.492990891213193 0 0 0
513 2 -2.6256491645956883 5.422551445834928 11.123188791700166 0 0 0
514 1 -2.7589336260968187 3.087393530828274 14.194805458602152 0 0 0
515 2 -2.358517743182966 3.765574926091536 14.82178067329034 0 0 0
516 2 -3.6980186901281553 3.1379762592157525 14.468302941252732 0 0 0
779 2 5.238719089044561 7.686852886567706 15.834473671769782 0 0 0
518 2 -1.4820159188366058 3.5307787096218495 10.43008213454911 0 0 0
785 2 7.239960019369862 9.147693837082 18.611676680189284 0 0 0
118 1 8.766885037452123 6.799710263366617 9.851035837507638 0 0 0
522 2 -1.1596844261201011 1.1854667348407424 12.070277940743532 0 0 0
511 1 -2.899351162052855 6.210794898963468 10.54902869611388 0 0 0
524 2 -3.8118119152471825 1.779307222968185 12.114296419234531 0 0 0
829 1 11.03625349006893 8.462671061516996 14.186336246198744 0 0 0
766 1 6.495808993452253 10.52962302813815 14.703337574692785 0 0 0
529 1 -5.437981363769928 2.5728935299133027 15.052093676387935 0 0 0
530 2 12.204277177433825 2.0027228200940583 14.895003534634894 0 0 0
531 2 -5.644987903606675 3.2385913555337305 15.691998820519338 0 0 0
532 1 -2.902694629158433 2.648013580723803 17.853992393105475 0 0 0
610 1 5.15087725246126 0.8815163541163631 16.81341977135906 0 0 0
534 2 -3.186413224044481 1.8743333571544571 17.338146491656552 0 0 0
535 1 -3.408687184474385 7.066498773375414 14.365973261473453 0 0 0
536 2 -2.5364551150106593 6.6319129762686275 14.41484286755939 0 0 0
537 2 -3.406775958375159 7.6944121454693075 13.614038364444768 0 0 0
723 2 2.533140785673293 9.548883904446747 18.728578876702446 0 0 0
637 1 11.028665512721236 1.7498960547473694 18.47659495326913 0 0 0
540 2 -4.3724410258864514 7.170056439511568 18.233842323489345 0 0 0
541 1 -5.647199128576876 4.918757489136627 16.795170200722314 0 0 0
542 2 -4.723965417942087 5.224469465841586 16.62138444751278 0 0 0
543 2 -5.705665662626304 4.464010644422569 17.690900953500698 0 0 0
544 1 -2.723126178738519 4.793694426293017 16.309906722944177 0 0 0
545 2 -2.012864206740686 5.36338869287415 16.65414169860156 0 0 0
546 2 -2.7297550419324375 4.010691005395096 16.929887197221575 0 0 0
547 1 0.6696765251038089 3.329980640231575 16.80323296826621 0 0 0
548 2 0.8055123906785974 4.110924032870144 16.288938526825525 0 0 0
549 2 -0.12621722427245743 2.9509883055389388 16.31228095066332 0 0 0
550 1 -0.8886336193616438 1.433689696469536 15.37638806163544 0 0 0
782 2 3.0817611816109114 9.58422150457433 14.65884119755699 0 0 0
552 2 -1.7351036911471407 1.7069088762843891 15.032807734181603 0 0 0
553 1 1.9283029835072334 1.7468861810015717 18.810911207085883 0 0 0
580 1 2.907516488053443 1.1313032336651254 9.81799897784606 0 0 0
682 1 -2.907652864473889 10.400837648591608 14.446770527389003 0 0 0
556 1 1.413024816970123 4.914667385897833 14.657277726062988 0 0 0
557 2 2.1885751582188684 5.472001582826384 14.497197025756746 0 0 0
558 2 1.3361434973019723 4.315126512658886 13.875324453156114 0 0 0
561 2 -0.015524014787445042 4.250122465079629 18.382381109614002 0 0 0
562 1 -0.9175962222071254 6.7591389196703435 16.999835943799667 0 0 0
563 2 0.026967224974611223 6.54467566283816 16.84055392768249 0 0 0
564 2 -0.9221186181718733 7.283994346060992 17.86051606174246 0 0 0
565 1 1.7761783585397244 7.002034240481601 16.776945732889686 0 0 0
566 2 1.8089548868987213 7.729835677984794 17.448073946687845 0 0 0
567 2 2.6017409743109945 6.519330780799052 16.804621625738747 0 0 0
568 1 3.0079592463623297 7.171214332640362 12.221644069243359 0 0 0
569 2 3.565181369524274 6.447736768746111 12.602038763216816 0 0 0
570 2 2.357519174959415 7.365924565666739 12.964157401881057 0 0 0
571 1 4.249993461916814 5.350602942661453 13.658749259161105 0 0 0
572 2 4.565227045929678 4.578871496363733 13.205500302243372 0 0 0
573 2 5.054133148228716 5.845110547315551 14.003826175148332 0 0 0
574 1 1.5020821693501751 5.407724685070174 10.886313330793055 0 0 0
575 2 1.9243887181846613 6.181093466450162 11.407329164926738 0 0 0
512 2 14.664474342504898 6.025111078236382 10.157736800757649 0 0 0
576 2 0.7953979232299551 5.914958248745959 10.487389639151079 0 0 0
699 2 -5.63877874196668 10.715350682222844 15.838144504190339 0 0 0
579 2 0.6476892234920244 1.4503998786761902 14.626654242494476 0 0 0
181 1 -5.102926696571113 10.515203611607005 19.170286932315268 0 0 -1
583 1 4.405322447743728 3.1349301386764066 11.99048815233677 0 0 0
584 2 4.359691054772611 3.4344394546343273 11.028050497080143 0 0 0
585 2 3.474995118527239 3.0424488564016436 12.25559269987033 0 0 0
586 1 1.4637009503331555 3.2430943235589096 12.224938462992133 0 0 0
587 2 1.2532125184733132 3.8715407158716317 11.501125589910659 0 0 0
588 2 0.8877425197550407 2.466563168201045 12.117409018112527 0 0 0
589 1 7.4607984283741935 4.33166587061365 12.244056498952284 0 0 0
590 2 8.055453525088563 4.982874436329192 12.7525333144801 0 0 0
591 2 7.052779699186711 3.7863545591153644 12.915666931153329 0 0 0
592 1 8.804220592510505 6.12288988089182 13.773174686659546 0 0 0
593 2 9.693355153127479 5.948616345449121 14.169667316959895 0 0 0
594 2 8.912812222114855 6.895550756346717 13.191424385032409 0 0 0
595 1 6.1537668595270345 6.197010605779561 10.627492149671637 0 0 0
330 2 9.56747811420507 8.946249375391206 19.22387199813119 0 0 0
533 2 -2.2099444892885787 2.2806068716973034 18.507379263047163 0 0 0
598 1 6.291457740586752 3.092113966603912 14.58013070847954 0 0 0
599 2 6.513251073139906 3.854099962002799 15.12772294177752 0 0 0
600 2 5.334772547088465 2.9343977129009358 14.714713252074707 0 0 0
551 2 -1.0958859906370528 0.683726232544972 16.04852615645104 0 0 0
602 2 7.713166024173513 3.1499880257350252 10.821609522502088 0 0 0
604 1 8.879560166593185 1.077113861383653 12.198474957006326 0 0 0
577 1 1.5318628802115666 1.1144208488459253 14.35231783951812 0 0 0
606 2 7.909509114278326 1.2630740344176308 12.119061086721548 0 0 0
748 1 3.199852787819851 8.300317484301473 9.777872030044875 0 0 0
608 2 5.438830738118689 1.761789854257976 11.930742894510077 0 0 0
624 2 4.762277973670031 7.141684057231143 18.273623064103916 0 0 0
830 2 11.276954298677953 7.920947215406212 14.939902838370925 0 0 0
612 2 4.505420913722229 1.4886038573019982 16.419161713069034 0 0 0
613 1 3.704305428739951 2.712927238351983 15.432393656693208 0 0 0
614 2 2.9426910458296804 2.3039185374135207 14.97686976382153 0 0 0
615 2 3.3698334993937173 3.553597397894736 15.835364027268305 0 0 0
616 1 6.509737699494054 2.666400191549262 18.492790027902306 0 0 0
803 2 8.554385593718642 8.182262387514665 16.01587750152791 0 0 0
807 2 -6.559773833500783 9.560183549710874 18.523452102201723 0 0 0
619 1 6.30395781108627 6.988622835397487 14.48365660957749 0 0 0
620 2 7.219137624064424 6.658429802774969 14.435614392516753 0 0 0
621 2 6.271980743639571 7.668326731440115 13.7509788634238 0 0 0
701 2 -2.0044552538255775 9.374239206661601 18.46472794016607 0 0 0
625 1 3.725446182331305 4.800471971318655 17.02888535272782 0 0 0
626 2 4.61285219576136 5.133973972179273 16.747763336216092 0 0 0
627 2 3.953420489379034 4.448220756236423 17.925939118076865 0 0 0
628 1 6.476418309063636 4.9344514235635035 16.626292543268878 0 0 0
629 2 7.01595780018202 5.72537497269624 16.77997539707211 0 0 0
630 2 6.641604816898529 4.346698963855036 17.401360973938115 0 0 0
631 1 9.841973154320813 3.6982269009522857 16.93677692344828 0 0 0
632 2 10.248292803430575 4.054448561289106 16.12614022746811 0 0 0
633 2 9.277584043365941 3.0110785334175034 16.568850220117795 0 0 0
634 1 8.333045801050362 1.783175167803078 15.750611644694203 0 0 0
523 1 -3.205860474520007 1.0166126252132495 12.201069580906111 0 0 0
636 2 7.720412075032879 2.0762144472973207 15.121337531771731 0 0 0
183 2 -4.193862752498903 10.219732541382292 19.055035464308155 0 0 0
638 2 10.693028176342922 2.545156412860269 17.96176827449467 0 0 0
902 2 1.9226516411749437 0.34017159012100356 17.38174035843887 0 1 0
640 1 10.618570911309545 4.57054702527049 14.704660470615572 0 0 0
641 2 11.497632826128426 4.931317369264744 14.901702620680489 0 0 0
642 2 10.821240940724685 3.9358792020216975 13.957633989599136 0 0 0
645 2 9.48713329197036 4.4718848100806365 18.589613860122896 0 0 0
646 1 8.481709565630977 6.84477590197491 16.982472488695677 0 0 0
647 2 9.355075249734627 6.465869184671407 16.788170353738348 0 0 0
648 2 8.583604790153943 7.29668351172111 17.814264692475234 0 0 0
649 1 11.156200995566321 7.083784629736546 16.537128894653396 0 0 0
650 2 11.172749888882585 7.795514952562621 17.231531005310263 0 0 0
651 2 11.641817663590446 6.372903567116493 16.91669501265548 0 0 0
652 1 11.864798502081596 7.057778073670243 12.074787704187017 0 0 0
653 2 12.329191420909455 6.421978082907016 12.657845486812406 0 0 0
654 2 11.420926674981256 7.610574090399862 12.728719939642787 0 0 0
655 1 13.117566625135263 5.379803106892034 13.607068033728211 0 0 0
656 2 13.404051551596808 4.635843857159615 13.008596645343747 0 0 0
657 2 -4.481042509850181 5.819201362875195 13.948596910003777 0 0 0
658 1 10.818337351543752 5.225042516519863 10.384723740688894 0 0 0
609 2 5.861228170423745 0.32086283070278876 11.36838816877114 0 0 0
528 2 -4.6489090550343475 0.9952893974607053 15.997754329954095 0 0 0
715 1 0.47890040519577415 10.647213986150577 16.817341089017244 0 0 0
838 1 10.65889763572976 10.555001778413098 12.216585136456233 0 0 0
663 2 9.90868789982834 1.3906897472291224 14.63948798909511 0 0 0
835 1 13.358388783840873 10.488913453805543 11.964412994552722 0 0 0
667 1 13.590122266070315 3.209112280843247 11.922099935272417 0 0 0
668 2 13.714739209731409 3.639071684150933 11.009293941758578 0 0 0
669 2 12.611654255655028 3.096542592211402 11.928296189696205 0 0 0
670 1 10.758338342583206 2.9854967046064322 12.170787022576507 0 0 0
671 2 10.500334488850811 3.647475619541786 11.517996880599888 0 0 0
672 2 9.922944179072125 2.469114988644837 12.171666120071048 0 0 0
659 2 11.109519400869589 5.961792603399377 11.034503241030988 0 0 0
837 2 12.36130879842571 10.519192270423465 12.122340911766115 0 0 0
684 2 -3.870003812559069 10.061186967126934 14.501880374895368 0 0 0