LAMMPS data file via write_data, version 8 Apr 2021, timestep = 21298000

576 atoms
2 atom types

0.2898334853542263 17.63016751464639 xlo xhi
0.08483248535639593 17.425166514646527 ylo yhi
0.43483348535451366 17.77516751464649 zlo zhi

Masses

1 16
2 2

Atoms # atomic

569 2 3.5410837094596697 2.4937788406431323 2.8020502686392863 1 -1 1
568 1 3.883054881252363 1.86639650983514 2.1372729393820116 1 -1 1
570 2 3.5913897591221784 2.0765896173033593 1.266893253701682 1 -1 1
61 1 0.5493207111569369 2.6350624049032927 4.235896785258003 -1 -1 0
436 1 3.3118324681867692 3.240716021643807 4.337022542502516 -2 0 1
437 2 2.382548036083305 3.1119740773949807 4.604285389917697 -2 0 1
394 1 2.010603719229335 4.3846222357938665 1.641001900181058 0 -1 3
242 2 3.6721403384548688 0.4851558252381666 2.9512884584370065 3 1 1
62 2 0.3014644863908664 3.495899918553191 3.8439871981933518 -1 -1 0
395 2 1.9010538694888324 4.050347863907176 0.7983406187248472 0 -1 3
509 2 5.32743357689243 2.1695422265716062 2.126095948591004 2 1 2
510 2 6.387614370550142 2.368173956189499 3.252595983485061 2 1 2
508 1 6.289568586529897 2.2133073463709585 2.315217393712555 2 1 2
314 2 7.402713295790632 1.0899596600363284 1.7664801477096947 -1 0 0
545 2 7.067188020748917 3.8433231942032857 2.1118856943073423 0 0 3
313 1 8.180294460469735 0.5249902229185233 1.5591913398683492 -1 0 0
422 2 7.774902028452329 3.446386108336092 4.756916973183081 0 1 1
315 2 8.953331291865469 0.9535333242380459 1.8896265884504206 -1 0 0
396 2 1.1197756209947227 4.67122036234547 2.050661783798707 0 -1 3
76 1 3.569301742147265 8.558908318421267 2.868426843201057 2 -1 3
374 2 3.2822249972700788 5.440366620140304 1.8881344916798442 -2 4 0
77 2 3.63872280639439 7.56359047396134 2.6279206004721707 2 -1 3
373 1 4.0075589230643995 6.009639240876464 2.2752054755472924 -2 4 0
78 2 3.2383794357695628 8.664002437420503 3.8412549393822766 2 -1 3
117 2 0.7945724339052267 5.473399824401589 4.200825565285192 1 -3 0
375 2 4.157609646801789 5.656045941414696 3.1999014566200654 -2 4 0
546 2 8.417777850882178 4.461761144526979 1.5378552985951643 0 0 3
544 1 7.469380124147894 4.676706264590158 1.723236504023513 0 0 3
25 1 7.760105319950438 6.819837271938708 3.2003262417076166 -1 1 -2
26 2 7.046584826848716 7.499419716611266 3.2204764450476535 -1 1 -2
27 2 7.528314231231869 6.045430124873233 2.661747641187524 -1 1 -2
210 2 4.103107283455975 9.273009299139142 1.3382167228221051 0 -1 2
342 2 1.8160676330424406 8.949584633235013 2.0263176015168107 2 -1 -1
340 1 1.0147520841335769 9.490668235637898 1.8720406325001882 2 -1 -1
341 2 1.0563821113902867 10.343607696916763 2.378220765038415 2 -1 -1
2 2 1.8113348232895068 11.72674346884738 3.77223748987689 4 0 1
3 2 0.3121539496643764 12.331364251465107 3.439783121935281 4 0 1
1 1 1.201028743435661 11.99048273766473 3.0621235578365207 4 0 1
162 2 0.9221989341405445 12.972904309612307 1.7930541441527525 -1 -1 1
208 1 4.482546083878867 9.30115372798424 0.44043598850911536 0 -1 2
53 2 6.259271089795288 8.895958965750232 0.5564608751534112 -1 0 1
557 2 5.2721362781851075 8.989045623192164 3.447972680339736 1 0 1
556 1 6.043793733939477 9.156421567754167 3.9667638413769337 1 0 1
558 2 6.565120109950054 9.840622516475587 3.5199966886012044 1 0 1
55 1 7.702278887428731 10.820904266304677 2.7904702248854467 1 1 -3
536 2 7.040389114233751 12.495777277207917 2.12468122966286 -1 -2 -1
57 2 7.611632163841367 10.176804276157752 2.088352659176605 1 1 -3
56 2 8.644246314211633 10.682732814332553 3.0304241699988212 1 1 -3
52 1 7.2572184055314635 8.936004862579761 0.5958258196968845 -1 0 1
243 2 2.881438264352381 16.541886392496597 2.894066420161695 3 0 1
241 1 3.5374486327112566 16.95279131439698 3.444669324586848 3 0 1
154 1 1.815829254232436 15.94046439706149 1.5029010923334858 2 -1 1
156 2 1.5090128205203035 15.036764381060625 1.4085724417471888 2 -1 1
155 2 0.9771018162297589 16.412185393650333 1.426848859718335 2 -1 1
160 1 0.7498078453697288 13.476050407717606 0.9817410097727088 -1 -1 1
161 2 1.5232682286395054 13.479934700481149 0.4420547546038627 -1 -1 1
166 1 8.812460068214047 15.001312666688294 1.660622713766205 1 -2 1
492 2 5.004604974940756 15.997982095437347 3.7375084222064516 0 0 -2
168 2 7.939450986679629 14.604849599906943 1.9408809976075094 1 -2 1
490 1 5.68130422494567 15.36666131103701 3.9505140407446087 0 0 -2
535 1 6.668806223030804 13.399646084739171 2.0848714540654596 -1 -2 -1
491 2 5.809187674591108 14.979423458563014 3.0515707990023735 0 0 -2
537 2 6.394495116465897 13.470478218301007 1.1444028778140682 -1 -2 -1
167 2 8.506263346469204 15.945731497576148 1.5480619134953533 1 -2 1
504 2 8.708867696008761 13.461973565525557 0.4476058598251501 0 -1 2
438 2 3.8103753059551573 2.77346289590362 5.027014010876295 -2 0 1
529 1 4.537400751304115 1.9781483489917386 6.373196542329067 2 1 1
530 2 4.2272702110931055 2.0774022663468537 7.320334651831381 2 1 1
571 1 3.8889126164923633 2.2152813517100887 8.908501315706065 2 1 -1
95 2 0.447241656194586 3.552804441642395 7.9582205894993185 -1 -1 0
336 2 2.1688477685941008 2.444996732659561 9.058788234539955 1 1 -1
296 2 2.968420539016877 0.22348251761504656 8.728051400330795 0 0 0
334 1 1.1971130927899678 2.531427411339216 9.04124886706674 1 1 -1
531 2 5.221280487014897 1.2669976483791627 6.534069190334526 2 1 1
421 1 6.828680956252659 3.3141121731513707 4.806875028094976 0 1 1
176 2 7.953528046391157 2.13006833611625 8.1829858970934 -1 0 4
345 2 6.923889389097647 0.23877332982030033 6.739481060228998 0 3 0
343 1 7.57669713548846 0.9789154582971804 6.671953729762529 0 3 0
344 2 8.154542830780223 0.6408389162731678 5.938892931072214 0 3 0
423 2 6.472050345259444 2.6599157098557886 5.407430404336687 0 1 1
175 1 8.463692222009996 2.876964974880394 8.43358863934895 -1 0 4
516 2 4.146484020911331 4.5217087720438505 4.775422233114581 3 -2 1
365 2 1.080589192840187 6.693072321188777 5.640584864696977 0 -1 -1
366 2 2.505798185213142 6.089434549727819 5.739423604111864 0 -1 -1
364 1 1.6006944297116836 5.820342837241295 5.709361285156865 0 -1 -1
448 1 2.4984587327148633 7.161179237132445 8.714996037158231 -1 3 3
449 2 3.3711040255082145 7.017621419371458 8.21831765309311 -1 3 3
498 2 3.688358185598924 8.455026678994088 6.015451240679684 -2 0 1
96 2 0.7421478652230322 4.7116583913720715 6.917662977298983 -1 -1 0
249 2 0.7676394752573398 7.157360898633429 8.926314366774099 2 1 1
514 1 4.755595594341207 5.268715792708155 4.870193308692545 3 -2 1
515 2 5.61786554719675 4.837124391100156 4.900048030996319 3 -2 1
466 1 4.853038758328983 7.253656910228632 6.951530759941752 -1 2 -1
468 2 4.952718091669433 6.523160925857755 6.339993108395356 -1 2 -1
467 2 5.763882277032985 7.447298069019612 7.391330305053472 -1 2 -1
339 2 8.254009591766959 6.85915353423468 6.571741966631329 -1 0 0
550 1 7.12557301711877 7.459473356917665 7.866588881850456 -3 -1 -1
551 2 7.604323358006303 8.3507155543331 8.037195864635594 -3 -1 -1
552 2 7.382596052314929 6.800085355688568 8.587751889737866 -3 -1 -1
338 2 8.356650905623738 6.420863166034591 4.9434754175403155 -1 0 0
337 1 8.852309311357656 6.511287338564322 5.809978915366038 -1 0 0
496 1 3.0443060508978843 8.797238152425471 5.349299054687455 -2 0 1
497 2 2.913870333636919 9.748916724285548 5.516432801276774 -2 0 1
459 2 0.9374400806169778 12.05800247312329 7.9622659418954305 1 -2 -1
458 2 2.2025467032984887 11.18600445934514 8.109124222390129 1 -2 -1
457 1 1.4445154055832004 11.42734359870775 7.514343760453165 1 -2 -1
440 2 2.0159715608340467 11.43312627092514 5.946183375918287 -2 1 -1
439 1 2.511108576444077 11.31496060618435 5.15458082429935 -2 1 -1
441 2 3.3087079796300944 11.86256533900522 5.278295389681366 -2 1 -1
462 2 3.252240798485006 9.355169571607952 8.536762876538019 -1 -2 -1
460 1 3.2909380972297906 10.241840587323766 8.955945521185532 -1 -2 -1
356 2 0.36468957137021196 10.024527885503982 7.458626373877775 -1 -2 1
217 1 8.900458480710585 9.473680678716613 8.516247382562714 0 -1 -3
87 2 5.322724170728237 12.517655737364555 5.645014083633371 1 0 3
452 2 5.0326460447010355 10.425093667487502 9.09491685769342 2 2 -1
108 2 8.893185303123804 12.838459265781916 8.565855865356724 -2 -1 1
453 2 5.991873867125207 11.626525617186683 8.911883324619742 2 2 -1
451 1 5.949816955133271 10.693871953936183 8.941051273509503 2 2 -1
256 1 7.860566704340776 12.69198015065218 5.358782339775546 2 0 -1
17 2 5.940056835377634 10.184634901194096 5.619856043125729 -2 0 1
257 2 7.375129593851256 12.069393187178257 4.819911157747841 2 0 -1
16 1 5.606734564989962 10.880040055811598 6.212655468661158 -2 0 1
18 2 5.765879897862321 10.556026222639288 7.117016299142692 -2 0 1
258 2 8.66993397527465 12.146598991758182 5.520718485422771 2 0 -1
219 2 8.602560638778103 10.371143097828435 8.41290146951258 0 -1 -3
85 1 4.61327703985523 13.169180243240495 5.4698155423935475 1 0 3
14 2 2.1146972139149516 16.81551496561726 4.827378309857878 0 0 -1
112 1 0.43298067257787304 13.554511766135338 8.443471531677766 -1 -2 -1
295 1 3.0396550722134146 16.899379259006587 7.990243688866197 0 -1 0
303 2 4.385957750434197 13.6595775848759 8.590004750181432 0 -1 -2
45 2 3.544975170764982 14.099700748217403 6.667519011825439 -1 0 1
13 1 1.5119284879567376 16.99102435421105 5.620112453531679 0 0 -1
43 1 3.1420472646440643 14.19717771223375 7.543994133491128 -1 0 1
44 2 3.1388987089243345 15.159470923519585 7.770843633807071 -1 0 1
15 2 2.0914082575981503 17.102891840019126 6.3632336433726335 0 0 -1
114 2 1.2219216730626175 14.05540761033498 8.202158657200698 -1 -2 -1
297 2 3.913992021750008 17.113593106209066 7.622618341730367 0 -1 0
560 2 8.785424692411171 17.105349783818667 8.915532754585808 0 -2 1
86 2 4.872531096370856 13.828227445659515 4.793283657214188 1 0 3
397 1 7.029979032067808 14.165473027552196 7.393866757451812 1 -1 -1
32 2 5.674995041352855 16.139080879308427 5.661775553352233 2 -2 1
419 2 8.774020288203937 15.025537684901684 7.9644957786765 -1 0 2
399 2 6.373061897060964 13.757049754833107 8.012910806179203 1 -1 -1
33 2 5.991079458949364 15.452188835894775 6.977623996745546 2 -2 1
31 1 5.584986926602736 16.274030250249844 6.6263299609630035 2 -2 1
398 2 7.2201673282576575 13.51011722391913 6.655758737305954 1 -1 -1
24 2 1.0196524380623928 3.8056584988837794 10.257823873921337 1 0 -3
284 2 1.140380345683521 3.0558412085142814 12.630559827208916 2 1 -1
22 1 0.8143300831256435 4.41630859027983 11.022473670768775 1 0 -3
147 2 4.440193071289599 2.294523222699588 12.466085343195578 -1 -2 -1
335 2 0.7090345184239362 1.8159300861401375 9.467784985344588 1 1 -1
572 2 4.398899897394534 2.994707332757616 9.176148245319649 2 1 -1
573 2 4.473694711549474 1.51800339717965 9.31527205530688 2 1 -1
283 1 1.6194377054701878 2.740481610689803 13.417712760854599 2 1 -1
527 2 5.157733188136026 3.7756957444941732 10.914980324354298 1 1 -1
526 1 5.006061816408522 4.308044193852754 10.11053885066586 1 1 -1
146 2 5.436918414101125 1.7246779257227802 11.417162237067162 -1 -2 -1
145 1 5.2333271027727335 2.5634422873438107 11.957218037969476 -1 -2 -1
376 1 7.959580482210332 3.167833892630384 12.987917361506465 -1 3 0
378 2 7.041590248356772 2.93399608879205 12.95907360296277 -1 3 0
561 2 8.83838844201107 0.7629957434767185 10.100969345096914 0 -1 1
177 2 8.553254189791694 2.60487144391435 9.375168201648343 -1 0 4
266 2 6.499885063768687 0.4455647362090498 9.850622523774792 2 2 -1
265 1 5.623008127435315 0.5389197393937971 10.235295736269935 2 2 -1
349 1 3.2356378950013505 5.815155416164759 11.35710053647518 3 1 -2
350 2 3.8392987873521696 5.225351592295897 10.876283727758267 3 1 -2
351 2 3.627892926292204 6.662297563325264 11.536776621665862 3 1 -2
23 2 1.6343792325472117 4.935704822579932 11.324245690406775 1 0 -3
486 2 3.8236722829612004 8.75307402956443 11.983579363154858 -1 -1 1
484 1 4.601310112243257 8.097796222327942 11.859218408971401 -1 -1 1
34 1 0.3277073326322411 8.0025049361884 11.896932443378173 0 -1 -3
450 2 2.788032680869564 7.196927229408845 9.642035563003907 -1 3 3
528 2 5.812307828903217 4.766264267029636 9.835825509251139 1 1 -1
203 2 8.07453233308648 5.373857671042429 10.35301255670732 -1 2 0
485 2 4.90030053064217 8.062451028833006 12.816748553625528 -1 -1 1
202 1 7.596071938716972 5.299405567037542 9.484641847524372 -1 2 0
165 2 8.158901388329072 6.509344382134267 12.868635430874198 2 0 0
164 2 8.210233046792704 4.998869901340981 12.521201601541746 2 0 0
163 1 8.475259046488047 5.894071725971328 12.137709048939493 2 0 0
204 2 8.05835368018232 4.5174141327187884 9.110624130988388 -1 2 0
308 2 1.5347943494219822 9.133009721936256 11.611929918051926 -2 -3 -1
307 1 2.34045594042657 9.711543733900783 11.531144260036113 -2 -3 -1
309 2 2.037558002276633 10.491202877768853 12.111770893855788 -2 -3 -1
102 2 1.4393354707569619 12.730575950529431 11.794077644184336 -1 -1 1
100 1 2.0169779778411945 12.236557521694841 12.41545464436439 -1 -1 1
461 2 3.002823876794195 10.116501663851704 9.90369767562021 -1 -2 -1
101 2 1.4168259643825434 12.20625564302984 13.175033087986309 -1 -1 1
111 2 4.51277194077869 10.950705217446918 12.892844197352225 -2 0 -1
178 1 8.717405582087364 10.245078836644701 12.800022432014531 0 1 3
21 2 6.006106329706077 8.915458165073897 11.592472647668494 3 0 0
19 1 6.779697876331404 9.34023242415786 11.216168971318108 3 0 0
414 2 4.628640662876008 12.151642908636047 10.648678748790575 2 -1 0
413 2 5.832820526242457 12.383917530791656 11.516923090655403 2 -1 0
20 2 6.495835704627913 9.805549511966753 10.42961576318658 3 0 0
412 1 4.922487164697914 12.03894511078457 11.536644247345587 2 -1 0
118 1 7.681466161176118 12.820186070478426 11.490991608289345 1 2 -1
119 2 8.027062718752484 12.290496327881657 12.211461396711904 1 2 -1
107 2 8.29570519084928 12.396279973148568 9.971574627774698 -2 -1 1
179 2 7.95996354503517 10.017040173060169 12.160486852210832 0 1 3
106 1 8.930117124671039 12.141987911137093 9.25977074354895 -2 -1 1
291 2 0.9278800927898203 16.1601453316154 12.42143276046558 -2 0 -2
68 2 3.318205092496236 13.408068059543345 12.859320040483778 -1 0 -1
67 1 3.8449047558584186 14.20819492115538 13.088155810068777 -1 0 -1
69 2 3.2668703426915986 14.951260053003889 13.310248962114963 -1 0 -1
301 1 5.18566342637743 13.392920448667816 9.118746456027043 0 -1 -2
11 2 4.991352754428723 14.825130283427793 11.836345317633594 -2 1 0
559 1 8.288615091877627 17.404911429292696 9.698598819396937 0 -2 1
120 2 7.994756181979397 13.679947831761348 11.65433295266391 1 2 -1
267 2 5.3137699484141665 16.892706170778688 10.415517051381043 2 1 -1
10 1 5.574217810901536 15.176842408427554 11.12519932841863 -2 1 0
567 2 8.383283795519429 15.807888637881211 12.43277959530084 -1 1 -1
565 1 8.406103388153257 15.287505147187911 11.60203030881661 -1 1 -1
566 2 8.24626788564869 16.05783291677147 10.970653659148455 -1 1 -1
12 2 6.481943826693421 15.149031093767409 11.505806324557355 -2 1 0
302 2 5.231302157041887 14.06397200117493 9.870064658668273 0 -1 -2
144 2 3.019480883080515 1.8024652371132566 13.841329460426284 1 3 1
142 1 3.7853642918442842 1.2446080893825988 13.907687522285569 1 3 1
246 2 1.4890431954200887 3.480841413746087 15.081271870823365 3 -2 -1
555 2 2.6214296307353937 0.36905578445148474 16.568971509911876 -2 1 -2
285 2 0.8766174074846527 2.1064639721059573 13.805267759092649 2 1 -1
244 1 1.7591871366433809 3.897143139196639 15.950792475503645 3 -2 -1
143 2 4.380803752793446 1.5817822464048201 14.597975240555598 1 3 1
187 1 3.571931746325573 2.0038224039094272 16.90607858540158 0 1 0
189 2 2.981656655100272 2.7412899707810894 16.61744937406764 0 1 0
188 2 4.471116392970142 2.206401069191278 16.447159715138802 0 1 0
377 2 8.232439896764513 3.3937929664923177 13.884431516929402 -1 3 0
170 2 8.65573811354106 1.78550968280977 16.048636188434305 1 0 1
171 2 8.301981415623342 0.8038915019801431 17.28223129154484 1 0 1
221 2 6.615141036566762 1.792838286456909 16.108169360117515 2 0 1
169 1 8.217731487427969 0.9259067560914991 16.289871117404772 1 0 1
220 1 5.875468866935863 2.376064034953722 15.811043634852526 2 0 1
222 2 6.20819386640854 3.3103667982161085 15.947744998177624 2 0 1
455 2 2.664621391704552 6.137570219387594 13.861307632996688 2 1 -1
245 2 1.9276084066150285 4.81534437820926 15.671009961400452 3 -2 -1
84 2 4.292993114335609 7.609499939566106 17.22905871049295 -1 -1 2
456 2 1.3227556701663647 6.357948019827602 14.414220290904959 2 1 -1
454 1 2.2262499566599283 6.162625114171537 14.718108471521381 2 1 -1
83 2 3.312994292195444 6.697741801647065 16.438774013239243 -1 -1 2
82 1 4.258379302782597 6.910638811404441 16.532027403174105 -1 -1 2
306 2 6.413026963835185 5.0032596532972065 17.609777328125368 0 1 -2
354 2 8.198942576733847 8.543313181861517 13.530162944481114 0 -2 -1
352 1 7.844830215253983 7.708101766771547 13.821369912619309 0 -2 -1
353 2 6.901691760421023 7.859612659954624 14.075782656862067 0 -2 -1
80 2 8.394515449911797 7.077186368490375 15.551243066379003 1 0 1
132 2 4.939107700337092 7.671422005452233 15.221927153854839 1 -1 0
304 1 6.0401736034140034 5.065868379707547 16.736886544280395 0 1 -2
79 1 8.263064702617436 6.698194914319939 16.423012834405252 1 0 1
81 2 7.514328105176642 6.06064484274453 16.344637999625498 1 0 1
130 1 5.306578489028296 8.121100211802192 14.452629775041434 1 -1 0
305 2 5.255094547595407 5.670449725906858 16.848234791155573 0 1 -2
54 2 7.587782154441074 8.114574709917983 17.5393138756515 -1 0 0
238 1 0.2920414026963343 9.739940055696797 16.80724359106661 0 1 -1
110 2 3.775787406054747 10.894841525270586 14.225204086389438 -2 0 -1
70 1 2.8746523142379217 10.910708392260378 15.712671972735734 1 0 -2
71 2 2.9306164394849223 11.883134564964772 15.867716522444686 1 0 -2
72 2 1.9442137506849055 10.667459375512564 16.008836343539933 1 0 -2
209 2 4.0099243569123475 9.980957682085572 17.250648601846546 0 -1 1
109 1 4.615913438667768 10.734085428476169 13.84806113489523 -2 0 -1
240 2 0.4988221415949622 9.621385197265978 17.768403640331528 0 1 -1
193 1 7.981353212901527 10.34091168228372 15.675571269246174 -1 -1 1
180 2 8.29335471389554 10.601216859502788 13.610408245166278 0 1 3
195 2 8.224244674450127 11.214957589949746 16.009906826025848 -1 -1 1
149 2 5.995506203611812 12.129167931377916 14.183609888586924 0 -1 0
131 2 4.915835991250436 9.051868771072417 14.463423929342278 1 -1 0
194 2 7.545212793844757 9.960946185316251 16.485876470569572 -1 -1 1
99 2 4.520722258620248 16.916687257976694 16.985286893115887 1 -3 1
8 2 2.4084042515686583 14.1007568062095 15.7636119379094 2 2 -1
9 2 3.731592066110109 13.7615079673751 16.521072174639944 2 2 -1
360 2 3.0466791656419057 17.125770934669784 13.714565489777197 1 -1 0
359 2 1.9468666014279183 16.18473620611967 14.460663577574733 1 -1 0
358 1 2.3676987268744836 16.45325898165302 13.55766543387643 1 -1 0
553 1 2.9560004364843535 16.799489354031852 16.426495046224055 -2 0 -2
7 1 2.780289207025676 13.46834263820262 16.409046958030967 2 2 -1
554 2 2.619205508436447 16.372312022944435 17.24916907285998 -2 0 -2
98 2 5.972989563075305 17.17613877391841 17.477701042349782 1 -3 1
186 2 8.783087068743036 13.58302210426533 15.45366782697018 -2 1 -1
126 2 8.496749700177007 17.301579864931057 14.96244186006578 0 3 1
125 2 8.936255766431282 15.906096742497063 14.539976213209496 0 3 1
97 1 5.344149087392941 16.523765184039288 17.24915202816678 1 -3 1
148 1 5.949113351847783 13.12768660638135 14.293301466640232 0 -1 0
184 1 8.595977017112382 13.820453497168687 14.474265175784158 -2 1 -1
185 2 7.587614551656156 13.566992249795556 14.423089951828342 -2 1 -1
124 1 8.864433105680677 16.794776087849264 14.256521588208628 0 3 1
150 2 5.187864779173538 13.443797442089904 13.73032507982748 0 -1 0
386 2 5.637212842123509 13.68572208627207 15.868302641611331 2 -2 -1
387 2 5.522824588785509 14.934787411035709 16.827800156010866 2 -2 -1
385 1 5.363851174893234 13.956288656963912 16.749043486061446 2 -2 -1
505 1 10.141708058990414 1.8212506145622562 2.5548809225755704 -2 0 3
215 2 10.192287596439646 3.0802309768657175 1.3464966870210764 2 0 0
428 2 10.050308599399294 4.2120779541870395 4.376650461905316 0 1 1
506 2 10.935568601992882 1.3622753739567794 2.8770069361691566 -2 0 3
214 1 10.05207975648997 3.7135372728435727 0.615178296943931 2 0 0
507 2 9.802888812398201 2.412298897342853 3.3092292334267226 -2 0 3
133 1 13.245271606427393 3.925376251291657 2.2877471208221225 1 -1 0
134 2 13.17862367550861 4.414221531486642 1.4200202486797482 1 -1 0
403 1 12.4157915164593 0.6595860080726783 4.144080430612928 1 -2 -2
427 1 9.460751211927207 3.44521236382562 4.574727084004042 0 1 1
542 2 14.25894785331795 0.9989269124396745 0.6456515160507749 -2 1 0
135 2 13.730824472008774 3.0862853568675477 2.3013610933543105 1 -1 0
91 1 14.127558345609852 1.6817545968006598 2.409273431673555 3 0 0
92 2 14.96068379217223 1.4318546620775159 2.8487704200380746 3 0 0
93 2 13.421704452386116 1.2813385182337027 2.9302285734111804 3 0 0
472 1 16.295231068274756 0.1726893656767444 4.535184068063037 0 -1 3
576 2 17.38406207363936 1.657933850079638 2.7868786845216107 -1 3 3
575 2 17.15936060842026 2.0828516037490292 1.2999890882575516 -1 3 3
574 1 17.135018722076808 1.3083436465561555 1.8886683582099533 -1 3 3
192 2 11.919218018866841 4.781522216812802 3.0613627815139535 0 1 -2
264 2 9.386582060734556 7.429480800607028 2.7226994965299207 -1 1 1
262 1 10.368485981574239 7.601813167603021 2.601025670810517 -1 1 1
190 1 11.215122212061093 5.220853690353756 3.5821123792515435 0 1 -2
191 2 11.027964878908865 6.1477061374785364 3.2596997851631007 0 1 -2
263 2 10.536176372748375 7.144749138707274 1.7281583969154313 -1 1 1
231 2 13.293737969378203 7.887312793340289 3.490721000096693 -2 -1 -1
216 2 10.502232753582334 4.604284752514893 0.7238564668031156 2 0 0
197 2 14.343074874648954 4.854838048823445 3.147479393508525 2 -2 -1
229 1 13.732284027469488 7.685508052593302 4.304950521828984 -2 -1 -1
116 2 16.665151814749404 5.510637278601439 3.4771273542516457 0 -3 0
136 1 16.32188386198802 8.026214056444179 2.788378245737993 1 0 3
196 1 14.873519100864142 5.39094424146121 3.750231210004827 2 -2 -1
137 2 16.493624903855576 7.98379406279625 3.7437846300106608 1 0 3
198 2 14.420434470934952 6.294428762871627 3.8517350449646925 2 -2 -1
138 2 17.012959189499938 8.584526593507105 2.4362421792293 1 0 3
408 2 16.330662028651638 6.585909819244125 1.4542492263636997 -1 2 2
115 1 17.56048140210331 5.17153253079361 3.4297360506500323 0 -3 0
201 2 14.866055827578966 8.66401793959476 1.9313514234460414 0 0 -1
406 1 16.458981897812322 6.102553392238984 0.5830601866497245 -1 2 2
470 2 10.353219908335094 9.390147222034217 2.78378380349394 -2 5 0
38 2 11.741031207423182 10.77367185698308 2.464440734958251 1 0 -1
469 1 10.237991836917692 10.336805423783025 2.9171466602909097 -2 5 0
471 2 10.5762480665421 10.570813460443832 3.8319810846213476 -2 5 0
37 1 12.699962677959997 10.912820907201116 2.3456904152544507 1 0 -1
39 2 13.238099140679912 11.08175707720481 3.1728947148613473 1 0 -1
272 2 12.891645987234892 12.490554491106284 1.71306791046548 1 -1 0
477 2 15.499759718934557 12.539095107791304 4.237220756755069 1 0 0
199 1 14.373358225523722 9.180777658019739 1.2280221272167509 0 0 -1
200 2 13.698468451680238 9.736703010242968 1.7275780036010038 0 0 -1
40 1 14.110843754508313 11.63927342952717 4.439039052798759 -2 -5 1
42 2 13.542740720674525 12.375142356871923 4.707953149724373 -2 -5 1
405 2 12.461650081199883 17.03797779360992 3.862384408949278 1 -3 -2
287 2 13.025597244530736 15.244801964816357 2.349361075162136 -4 0 2
271 1 13.14521112716843 13.42652420530486 1.5746884183964418 1 -1 0
128 2 9.819626912451156 14.629153168704793 3.172281352098926 -1 2 0
127 1 9.847175873876102 14.397504832627101 4.079275375221613 -1 2 0
30 2 12.643117791420469 14.398654166388066 4.201005517674958 0 1 -1
29 2 11.38209271787474 13.656504427016927 4.683623827960721 0 1 -1
129 2 8.96795443575464 13.962363614309774 4.168134234354116 -1 2 0
434 2 16.719193429984404 17.334720747985227 0.9508079987617697 4 -1 1
212 2 16.125299806037617 14.61830037396113 3.2856727396851895 0 1 1
288 2 14.239649569719585 15.651961822379146 3.219762192453905 -4 0 2
286 1 13.300367680948828 15.72349288603944 3.106742932707414 -4 0 2
211 1 16.06898465652716 15.53267250597128 2.8623565924774783 0 1 1
213 2 16.24968244445261 15.542021315130794 1.931469647004224 0 1 1
273 2 13.988262967433005 13.429353364532009 1.0558311342430637 1 -1 0
474 2 16.240316269219267 16.761825808244772 3.872869049673878 0 -2 3
475 1 16.288439154859663 13.155845440782192 4.2447832410852415 1 0 0
433 1 16.298731143173082 16.557113356234225 0.47988178538828374 4 -1 1
429 2 9.767816241395687 2.994215500635076 5.3574449586550505 0 1 1
404 2 13.042698663762517 0.8356568250696661 4.870812141219757 1 -2 -2
409 1 10.510335007645592 2.4099220758171245 6.843144386636575 -2 0 1
411 2 11.228469487055055 2.0388448884924886 7.417226547087124 -2 0 1
410 2 9.797380950026222 2.517996159423256 7.479090925871159 -2 0 1
361 1 12.618732472774967 1.368975611703195 7.985716789724797 -3 1 0
363 2 12.265789883913873 0.46541788845371956 8.171783830975262 -3 1 0
362 2 13.23512230984542 1.1975513817738914 7.274183051310761 -3 1 0
227 2 10.777907834932584 3.9909985439535944 6.969067325780336 -2 2 1
480 2 15.110763623302468 0.42292001815610014 7.482358993308394 -2 -3 0
269 2 15.137832219135106 0.5390467945779751 5.4309154889053035 0 0 2
268 1 14.442293244827077 1.125363015415011 5.938311516704366 0 0 2
270 2 14.688273099286786 2.0736006200334822 5.771897736444921 0 0 2
499 1 15.440322430104334 3.6291437082071147 5.7356006184908646 0 -2 0
500 2 16.2919520769522 3.8327070712043505 6.244603834270252 0 -2 0
501 2 15.117724354769818 4.418495406006939 5.1763583249867935 0 -2 0
94 1 17.371752290607912 4.244614936942487 7.414438160857068 -2 -1 0
63 2 17.15674265888956 2.452768936855352 4.834085865634051 -2 -1 0
230 2 13.08358033915807 7.3018905504632645 4.906390888610488 -2 -1 -1
237 2 12.07010871933724 6.046297089377828 6.793371613143114 0 -2 -1
228 2 10.01880437282953 5.252491260889269 6.7947209382045095 -2 2 1
226 1 10.872450862618075 4.961058584329164 7.178982235975648 -2 2 1
381 2 9.886632152418262 8.024692909917588 5.811161840437525 -2 -2 0
235 1 12.446217895623107 6.851244948421637 6.4976246396564274 0 -2 -1
380 2 11.290945115895491 7.904121549149753 6.498911618945649 -2 -2 0
447 2 10.905238938679604 5.44988157169098 8.67574078285612 0 1 -1
379 1 10.5632468313679 8.618919615759973 6.241600746472722 -2 -2 0
247 1 17.232760701564278 7.609968166388771 9.059079951668883 1 1 1
329 2 16.186773012727343 4.626282099421432 8.808414062544083 0 0 0
236 2 13.35051942906322 6.9144001564180755 6.7835416159673665 0 -2 -1
547 1 17.030489164275725 7.6622466143442844 5.314493106580475 -1 -3 0
332 2 15.019097669481608 5.456804898557459 7.011745415669308 -1 0 -3
331 1 15.203634099752389 6.395447582380999 7.148768196134878 -1 0 -3
333 2 15.717830513976557 6.484754072536191 8.000267715880382 -1 0 -3
548 2 16.360185426593972 7.125359201014523 5.781448447291706 -1 -3 0
549 2 17.17807491398901 8.497497046156905 5.8797798734012545 -1 -3 0
357 2 17.04377277105703 8.699240855973626 8.019837669058266 -2 -2 1
218 2 9.52038686274252 9.220999162627319 7.821025307105045 0 -1 -3
493 1 10.130178323127193 11.323772400888746 5.642830549903541 1 0 -1
495 2 10.147672118243575 10.388359317275746 5.86252573385872 1 0 -1
494 2 10.860123576554408 11.561714180809295 6.250694241937879 1 0 -1
382 1 12.190597302148657 11.723722973404444 7.583789505258406 2 -1 0
383 2 11.758329818556215 11.864989347917161 8.416654297284364 2 -1 0
384 2 12.540629867920133 12.608001301639598 7.369219977620133 2 -1 0
103 1 15.199199577627459 11.865520019824327 8.710846449172465 0 1 -3
105 2 15.199807351059205 12.127294239447357 7.776923339228044 0 1 -3
519 2 13.852999770973224 9.81547355695069 7.09248149886425 -3 3 0
41 2 14.3118773801919 10.926116138547854 5.143660232578405 -2 -5 1
355 1 17.005265944153532 9.319760440663117 7.271020359039243 -2 -2 1
517 1 14.566159501285815 10.010560995006044 6.448780411414937 -3 3 0
518 2 15.397144136001874 9.702027812720923 6.901043210162869 -3 3 0
104 2 14.916998800189157 10.93627035305544 8.75595901934297 0 1 -3
174 2 10.283726635065578 17.390280535701667 5.077029553471581 -1 0 0
420 2 9.236863570821072 16.051507898017555 6.912074528446567 -1 0 2
172 1 9.44107430472758 17.008654597497245 5.238225709699113 -1 0 0
311 2 13.106182580578277 14.690530920352582 7.862227017480778 -1 0 1
173 2 9.441934343479613 16.110198197432243 4.8421462966852244 -1 0 0
418 1 9.370223438968225 15.774035559805741 7.861741783109579 -1 0 2
28 1 12.361700369978474 13.648446994194964 4.827553306587946 0 1 -1
158 2 11.001045310055911 16.24203833102207 8.033809494784164 0 1 1
157 1 11.90233280234828 16.264870951800035 8.471123949388584 0 1 1
346 1 16.20665705340014 14.75456659952809 6.779297740300336 -2 1 -3
348 2 16.7694486488693 14.266437052692888 7.41240147355731 -2 1 -3
478 1 15.61215807516349 17.205369757065732 8.149218743152852 -2 -4 0
479 2 15.78091588773705 16.324938133004473 7.692667336331593 -2 -4 0
347 2 15.252955607520628 14.481233187419615 6.924137632607491 -2 1 -3
476 2 16.312339289388273 13.626640347183978 5.114445076232853 1 0 0
310 1 13.547477522242822 14.160135277365974 7.164528170354772 -1 0 1
312 2 13.325051906329843 14.543319974259616 6.3081142542982045 -1 0 1
473 2 17.17078226743845 17.386531046036165 5.0017183968470285 0 -2 3
390 2 12.456789990852824 3.4790399860000383 11.116143131578175 3 -2 2
278 2 10.408791810285509 2.4939850455481167 10.896224365127924 0 2 -2
388 1 11.716815427672001 3.885627232200936 11.538849677797597 3 -2 2
539 2 11.384100268457306 3.416927830062937 13.149210587896432 1 0 1
277 1 9.409124763028506 2.356893374111702 10.790918043904815 0 2 -2
318 2 11.401276005435566 0.14371237768984582 12.752240382424928 1 0 -3
279 2 9.02375688612531 2.7605543814243543 11.587725239416041 0 2 -2
88 1 13.84107929628982 2.6605636080926187 10.173655588307664 -1 4 0
255 2 15.379855054525896 1.4220440559294705 12.862198492824607 1 2 -1