LAMMPS data file via write_data, version 8 Apr 2021, timestep = 0

768 atoms
2 atom types

-1.2162364155542231 31.159583359008423 xlo xhi
0 14.157303113842975 ylo yhi
0 13.542221053873282 zlo zhi
5.104135456105687 5.065400495441253 3.5537542676892073 xy xz yz

Masses

1 16
2 2

Atoms # atomic

161 2 20.788916221615477 17.160360084619803 11.484703335253778 0 -1 0
48 2 24.488179206713895 17.44007026906784 13.361662677838526 0 0 0
295 1 7.688760926129407 5.493861646407639 6.2928112637662394 0 1 -1
297 2 8.511891189356746 5.659772411108456 5.830387924055679 0 1 -1
164 2 16.262121648780166 8.305519123978694 4.700237758645205 0 0 0
220 1 5.9267512448224124 4.330073770110879 1.6749828327807699 0 -1 0
371 2 4.83103811460485 2.368046746522555 6.767541192345537 0 1 1
10 1 3.6051745782738713 6.574019880711816 7.675717037547568 0 1 0
352 1 9.916777886903946 6.125444089514762 4.679977422130323 0 0 1
150 2 7.929923761490833 4.933106512897956 1.9319440202290208 0 0 1
298 1 12.568344920086327 7.843654232694099 8.8522951596426 0 1 0
101 2 7.39048227614943 7.642270274898311 9.474907140446062 0 0 0
60 2 7.904769864319191 2.7619699552110246 5.056757301731208 0 1 0
148 1 8.724162631437206 5.521813868118177 1.9934891778971562 0 0 1
249 2 5.14250860399516 10.690548144772578 6.307308887562679 0 0 0
105 2 10.453397768593467 3.129019357785077 7.766113908530391 0 0 -1
39 2 18.46168427190098 7.352818285892069 6.488740300218568 0 0 0
732 2 23.305162161011197 15.079604605541611 10.549966934426202 0 0 0
162 2 17.073904291664537 3.4879645938505153 11.991457662260258 0 0 0
31 1 7.627912158153717 9.067217082009572 8.18361961900862 0 0 1
58 1 7.101196462765386 3.308764176709913 4.7377954876765775 0 1 0
59 2 7.138669182037083 4.155968097039872 5.159675785338343 0 1 0
149 2 8.454949928446359 6.465852317444807 1.8693851412463045 0 0 1
50 2 12.601968481144297 6.530922373744821 2.7192558321061524 0 0 -1
127 1 8.12870747900684 5.42521750807997 13.252975325764508 0 1 -2
27 2 6.442248640394547 4.801956531123134 12.653675222240194 0 0 -1
169 1 2.7775931387657318 4.335064583216554 6.019500957070517 0 -1 0
218 2 7.617093215131855 8.629276964971417 12.824036609735579 0 0 -1
351 2 12.923920831543377 4.6530376449702695 2.1170441931480903 0 0 0
172 1 6.101620756571935 10.940407271634353 9.355692561008215 0 -1 1
237 2 14.419219361379973 8.094318109165986 1.804304587742909 0 0 0
124 1 6.518874003699303 10.13823914034123 13.306459453630794 0 -1 0
353 2 10.72723111138234 5.566592605329901 4.836531354496875 0 0 1
219 2 7.915452551432542 7.682650305684621 11.547543483979188 0 0 -1
61 1 8.054141359854473 2.5732821829191743 2.3339609971074884 0 0 0
315 2 4.979879870902324 8.129044230640453 3.5291213639694887 0 0 0
92 2 4.657219951417292 6.0051402704960335 3.8210610215877696 0 0 0
324 2 6.6938195036222305 11.890593068674555 0.12881763202876964 0 0 -1
65 2 14.58357804312019 5.974547020417277 8.950574832597772 0 0 0
233 2 15.819761919176207 3.1861670179199555 7.728554647826387 0 0 0
217 1 8.256536135038807 7.953849681265432 12.41672665426408 0 0 -1
257 2 16.664414441190708 6.697539308304136 7.5525699510137 0 0 0
38 2 18.083821979485613 8.688617003303644 5.759274451934325 0 0 0
94 1 13.758721224799965 6.280227180146468 6.96849023979034 0 0 0
230 2 12.141134032863809 0.4594029172949707 1.3635550655707456 0 0 0
128 2 8.308347095872605 6.372371170757638 13.007024379422885 0 1 -2
372 2 5.596083047946391 2.690368588008527 5.488502437468393 0 1 1
274 1 2.040059149308573 1.5144129593975393 4.001769121707289 0 0 1
140 2 5.768059346989684 8.136020350711071 5.551831055110515 0 -1 1
100 1 7.19888216407914 6.935244639540089 10.196436931162763 0 0 0
63 2 7.595875622925095 2.830173991015231 3.1451660655047826 0 0 0
129 2 3.3392266946654416 1.7951802265170844 0.6063768302997538 0 1 -1
222 2 5.855348001063186 4.681446395940045 0.7610133903756221 0 -1 0
64 1 15.262275717437825 5.545352317431336 9.512322662686296 0 0 0
111 2 7.811673188861595 0.9389411573049963 1.3311578878344 0 0 1
13 1 15.168020606088723 6.886746349885102 4.788207198614705 0 0 0
62 2 8.995411584755058 2.601239214112507 2.596938708914862 0 0 0
332 2 9.579155253898492 4.852111697471212 0.7378356038728975 0 0 0
275 2 1.6177602972865988 2.360433803667671 4.202083297890411 0 0 1
250 1 9.225603138631321 3.298761697999534 9.138125590536978 0 1 0
368 2 5.97521160301984 4.532142831045922 8.862350982571657 0 1 -1
102 2 7.191647612228002 6.042879971732168 9.701205119503506 0 0 0
349 1 11.991830925579315 4.927973098153116 2.342114314550431 0 0 0
81 2 4.663092556006543 2.9313032283015055 2.2510941209841877 0 0 -1
85 1 10.875169988086396 8.729495256164753 12.798825576904022 0 -1 0
302 2 12.959035237355748 6.302716657666965 11.74926391998486 0 0 -1
301 1 12.218136149334226 6.755258690511612 11.37707173513541 0 0 -1
103 1 11.064125429956283 2.8508081241855368 7.095831299896712 0 0 -1
6 2 11.152881934369912 3.1818780766208214 2.9450741315792603 0 -1 0
303 2 11.563600585686505 6.077220580018739 11.306103121706897 0 0 -1
305 2 15.08353225237199 8.567370173922162 7.384219107032051 0 0 0
239 2 18.66277576516195 9.52471432397482 8.687140226914451 0 0 0
107 2 2.6931503827398027 7.296266753023685 2.7045354987310155 0 1 0
333 2 15.670322078346347 8.676639089812726 13.114016085803701 0 0 -1
346 1 4.413780110091139 4.40601552863347 9.16706526922676 0 1 0
110 2 13.617088652699788 4.3239661410027095 13.488872419561854 0 0 0
331 1 10.260690894362032 4.445966267425893 0.12431078978326657 0 0 0
9 2 10.643643291881535 4.139477358441247 11.576208243676286 0 0 -1
4 1 10.752516619007942 2.292540927469494 3.074862291170091 0 -1 0
8 2 9.29410233218277 4.800231515815922 11.748946678769535 0 0 -1
5 2 11.401661272351557 1.820664247420276 2.4324064268094583 0 -1 0
7 1 10.06281188108839 4.820295220318499 11.193585858319974 0 0 -1
377 2 16.871105953621313 8.797764760325137 11.063149357590637 0 0 0
112 1 14.299081471002836 5.717313340516273 12.48774903022078 0 0 0
304 1 15.899856035126957 8.233263394341456 7.834172034550574 0 0 0
367 1 6.9720975618550165 4.657062619573554 8.778021695371711 0 1 -1
350 2 11.50621941518117 4.641512530137458 1.5096145978340987 0 0 0
113 2 14.91346312495522 5.352751375082493 11.831402177756553 0 0 0
376 1 16.757169510133426 9.584369905197104 11.61041305687134 0 0 0
114 2 14.803373196984255 6.408580897249148 12.996169939060081 0 0 0
66 2 15.092291773418664 4.577591573195588 9.499439605970935 0 0 0
14 2 14.743637929881565 6.554142781072797 5.628825860946016 0 0 0
296 2 7.272528551613703 6.363168357464167 6.220825175227188 0 1 -1
369 2 7.2029202616897345 4.9248884121024625 7.824465596497378 0 1 -1
280 1 19.41255856476185 7.765213214661613 9.130117559079151 0 0 0
109 1 8.161594996787056 0.27427309370878417 0.7205023813470285 0 0 1
87 2 11.429431719386008 8.141167146727495 12.274199812180985 0 -1 0
184 1 18.69501314046828 6.207182614408494 12.997868239105587 0 0 0
277 1 16.681237669081522 5.9555559446068465 2.6172401052998255 0 0 0
93 2 5.403425230326388 5.69145881999812 2.607697130438403 0 0 0
15 2 14.436200761146232 7.188423954833702 4.256065187662697 0 0 0
299 2 12.615439128887006 7.36396174044398 9.715054324301644 0 1 0
170 2 3.512571502113185 3.705775664955558 5.754409155971832 0 -1 0
160 1 16.418248349229263 3.7305035068956665 11.384320218282067 0 0 0
17 2 16.68209324896194 6.391210969671351 10.198970679297801 0 0 0
37 1 18.868616276784177 8.22391394847984 6.186434992938844 0 0 0
18 2 17.977100092613515 7.195929041943003 10.040207558048339 0 0 0
231 2 12.944575177062406 1.67754086948016 0.9332960017960599 0 0 0
104 2 11.68589985281469 2.367014103125482 7.608599424021156 0 0 -1
205 1 15.278345876916342 2.3249995186865147 2.830465547448202 0 0 0
210 2 17.24551534322414 4.320932418720448 9.932754180981197 0 0 0
186 2 18.143641030587396 6.587499219749803 12.27047667964035 0 0 0
232 1 15.437434952112648 2.8784027110634822 8.524103517915501 0 0 0
354 2 9.678222932829005 5.886304646807471 3.758289791767799 0 0 1
156 2 6.18493344745733 11.642846849827208 10.935017579559231 0 0 0
183 2 16.668718098774594 4.844404741709898 6.28475825758756 0 0 0
40 1 21.155434485566133 9.840879421138062 13.389637626471105 0 0 0
207 2 15.085321179141568 3.2315631286815165 2.5059596743598367 0 0 0
208 1 17.978133085577987 4.532358278420959 9.29848478406454 0 0 0
279 2 16.328695243349326 6.6798656469214635 2.090139497003195 0 0 0
254 2 14.832645181474168 5.308698275657229 0.9721129378355516 0 0 0
181 1 16.250642359307637 4.065236922453717 5.888629812801037 0 0 0
182 2 15.446276230043784 4.387409256430357 5.495965475542624 0 0 0
256 1 17.381431655543714 6.073965217517446 7.304942954925507 0 0 0
255 2 14.215972651777777 3.8530849169730192 0.67850821890289 0 0 0
253 1 14.403437588746728 4.518343411787321 1.3947789898543697 0 0 0
157 1 13.98636007574854 2.184797748909082 5.1175399903821015 0 0 0
185 2 19.417230557997193 5.873581447292232 12.516039291035714 0 0 0
278 2 16.061990830494192 5.931592917805749 3.3819258572099153 0 0 0
159 2 14.344778686059763 2.01510525017042 4.2548363704503 0 0 0
16 1 17.345039707567015 6.882199791774315 10.729132657095132 0 0 0
258 2 17.57672359617953 5.607177882354485 8.137848288984774 0 0 0
370 1 4.674716356535511 2.528998016209883 5.836813781921735 0 1 1
80 2 3.4774146826292496 2.1099514774280377 2.830960928947255 0 0 -1
306 2 16.441820756689438 9.039967504457534 7.861906725193388 0 0 0
79 1 4.195698070681366 2.1020497011888444 2.1588938163967257 0 0 -1
246 2 9.810857867202856 7.853302295083387 5.013261038617326 0 0 0
459 2 15.685511778256489 1.5112644797280166 1.113489606572672 0 0 0
300 2 13.133462931332607 8.649027586888545 8.895252485324443 0 1 0
221 2 6.360611937231854 3.4923394440178654 1.5194545560847785 0 -1 0
348 2 3.8913842700298167 4.445935361117097 10.003842784000243 0 1 0
251 2 9.711601152035485 3.946403173258193 9.75278219116085 0 1 0
139 1 6.0960457519899975 7.78355232298811 6.405272625129544 0 -1 1
276 2 1.6250217018042508 1.1264111455514332 3.22522429782299 0 0 1
313 1 5.281807460885356 8.88742265974227 4.038064830179203 0 0 0
252 2 8.420200809569485 3.8028654242305375 8.893305540072276 0 1 0
91 1 4.901406436164484 6.404447193600777 3.025712401942889 0 0 0
195 2 12.591533801875714 4.296187171797482 4.911926356630248 0 0 0
229 1 12.817991247145526 1.0498406016395256 1.6686634904428217 0 0 0
194 2 11.635213021804327 3.9264268252827437 6.213093986934655 0 0 0
193 1 11.991022539191396 4.665433960387085 5.601486284111414 0 0 0
141 2 5.331415697046588 7.717532972959479 6.942981640298704 0 -1 1
234 2 14.552433954519561 2.469694189489379 8.297543114902913 0 0 0
96 2 13.295511869804875 7.008710466051074 7.383709059712996 0 0 0
34 1 16.515222717287003 17.08409034344535 12.453546656426326 0 0 0
380 2 11.43923799413819 1.4038214228472776 4.483060879511001 0 1 0
158 2 13.114706039782318 1.6995702605229128 5.222740124313082 0 0 0
212 2 19.168693494335862 9.999977395170339 2.88670063650428 0 0 0
35 2 17.10685440934238 17.28423686366797 13.20133194775424 0 0 0
267 2 13.861468619113696 15.582823529960162 6.488468386112264 0 -1 0
266 2 9.956493388360759 2.0984600807322926 5.9408486057949075 0 0 0
167 2 18.526456994072294 10.081406337538235 11.367049932394927 0 0 0
86 2 10.027122722181966 8.44693918433432 12.388747140217701 0 -1 0
226 1 13.084422642431022 11.628201486755612 5.214679008722053 0 0 1
77 2 10.843234639462256 10.975315413202075 7.872578306053872 0 0 0
227 2 12.67960856102527 10.83458819854034 4.7728362925013466 0 0 1
82 1 10.160800421338495 13.92864631723421 9.453978396328028 0 -1 -1
166 1 19.189507180244448 10.780039997076257 11.259295083421867 0 0 0
228 2 13.136962399613441 12.413903363123175 4.685630838691009 0 0 1
330 2 11.838310618482708 10.295906331448142 3.279586605339299 0 0 1
509 2 19.5017938012968 4.812877749521895 10.561513935072165 0 0 0
123 2 5.3840658065868805 13.678502136323786 2.826745085641929 0 0 -1
120 2 18.02857973105555 13.360996508751102 13.127934447515607 0 0 0
176 2 9.536059993648161 15.544014406202752 12.005315803322771 0 -1 -1
294 2 9.07501657480052 13.621256313474948 10.915694219146802 0 0 1
270 2 8.223753900888621 16.146324121511586 9.021683569936659 0 0 -1
118 1 17.61577113731051 12.781218182781432 12.40286607069934 0 0 0
322 1 7.302273896432095 11.975448033100074 0.8823812124197181 0 0 -1
238 1 17.95358189468905 10.163312634095835 8.365880433312327 0 0 0
12 2 3.2546423356362464 6.1135367516326715 6.862537616849884 0 1 0
196 1 13.36738768155433 11.291096729620657 0.5797987250964858 0 -1 0
83 2 10.893166756654146 13.917599952051264 10.097323152206046 0 -1 -1
290 2 7.964612725144165 8.733143971064928 1.9762281213951767 0 0 0
334 1 15.773696999506155 13.761083304410574 7.113125779430056 0 0 0
285 2 18.91764529066198 13.72640040407366 2.186656143484086 0 0 0
134 2 7.400867738856296 14.926749549856162 10.737346251926729 0 -1 0
147 2 12.95681685345709 14.088586795199907 10.82401523853659 0 -1 1
364 1 7.337368575900517 10.024939341394848 2.859738093816545 0 0 1
320 2 9.137992733474306 13.609673056754652 5.842078131523495 0 0 0
344 2 14.07899600764239 13.789455967854567 7.428601118803849 0 0 0
242 2 3.605614765593103 8.921267290451613 0.7612689172797724 0 1 1
244 1 9.957636703424738 8.783434061003447 5.179829199036527 0 0 0
25 1 5.588217724168638 4.50133033004527 12.373557754149086 0 0 -1
281 2 20.149545527720065 7.852299607385926 9.75670545465281 0 0 0
56 2 14.993284484834893 13.333377149177847 13.09356259943667 0 0 -1
168 2 18.690382885216316 11.618013877790478 11.478019464934345 0 0 0
245 2 9.181785796574147 9.375090325319475 5.280941147235932 0 0 0
145 1 12.047974607669158 13.936204519228944 11.18175877567776 0 -1 1
57 2 14.968141118815952 12.090676466503009 12.14523356013778 0 0 -1
328 1 12.196781305088535 9.65004115919624 3.916698141105124 0 0 1
199 1 8.278743639852605 10.715155849265235 5.132121857774358 0 0 1
28 1 11.248448379197761 11.632811549012954 2.2837565771746653 0 0 1
336 2 16.18679510062338 14.265963882255589 6.444895497056885 0 0 0
366 2 7.849735223681383 10.469823986126231 3.625885514240723 0 0 1
287 2 21.571076058435168 15.535616588992786 8.841337474224913 0 0 0
224 2 12.203152951482132 14.421245098133202 3.4451992054653346 0 0 0
55 1 15.090828164275822 12.39012291500024 13.069809955941263 0 0 -1
216 2 20.53948626610982 12.337293031636765 8.808778913297095 0 0 0
329 2 11.307542150759154 9.292622974397693 4.343918946075816 0 0 1
33 2 8.610086489493398 8.96103920358656 7.965604770296632 0 0 1
312 2 17.93089317956671 15.271362724455674 9.169581582012537 0 0 0
335 2 16.5809950670946 13.361209850886857 7.616107468347381 0 0 0
97 1 13.88425682708132 13.98533595294991 3.7948241961769464 0 -2 0
268 1 8.986677115050727 15.997094718684824 8.457513823148892 0 0 -1
98 2 14.518218543493036 13.86392931117829 3.0422681262244997 0 -2 0
310 1 18.09102049004412 15.636067312913127 8.270734290143427 0 0 0
273 2 14.330069603063219 15.869354566153454 10.211692039458793 0 -1 0
197 2 14.003115975712818 11.02972249695782 1.310591935739067 0 -1 0
241 1 4.272726060824172 9.37389988405768 0.23921949176645296 0 1 1
345 2 12.571508316930952 13.449099071770842 7.940015608669073 0 0 0
319 1 9.947165915616086 13.03499296618262 5.632100758943351 0 0 0
272 2 14.079096692125981 14.569122642875591 9.320751008416599 0 -1 0
264 2 19.518551312951754 12.803594348484866 6.954965142254541 0 0 0
142 1 14.964612377791655 11.286223282566406 10.426638703741402 0 0 0
263 2 20.46502268392309 14.003124299648052 6.992899070630844 0 0 0
121 1 6.0242575180709705 14.117389146088605 2.202036256104266 0 0 -1
269 2 9.447134983797337 15.25946594905976 8.823579091057773 0 0 -1
26 2 5.3738209987336 5.001888461318345 11.553332376330538 0 0 -1
215 2 19.887658948989593 11.33037712519561 9.810081985357039 0 0 0
271 1 14.320885404174993 14.885314077733206 10.186675869253909 0 -1 0
262 1 19.712010894148545 13.59909264133312 7.50190430774255 0 0 0
44 2 15.477562470523692 1.5265861007986046 5.76738520532544 0 1 0
192 2 21.584966505608904 13.609543441504131 13.007352141967733 0 0 0
214 1 20.630698850152154 11.4795202452253 9.201251695766615 0 0 0
240 2 18.16797951155761 10.389930573944632 7.451562485454791 0 0 0
321 2 10.393504413276306 13.538526129258903 4.935685288688406 0 0 0
343 1 13.314716534291197 14.090851337093342 7.925100394414279 0 0 0
153 2 15.36036935640801 15.779092145312946 13.198293309627228 0 -1 -1
132 2 10.886293686508237 8.519625354546173 8.338897371538616 0 0 1
291 2 8.854285517728332 8.07782480511158 0.8011651789369064 0 0 0
173 2 6.591654619276329 10.345169488897744 8.789687493459198 0 -1 1
51 2 12.771396015222246 8.100816725721717 3.186919844174105 0 0 -1
200 2 7.568636203323773 10.917135591588641 5.803279669882623 0 0 1
88 1 13.711526962628582 10.858445472519263 8.111582912083108 0 0 0
198 2 12.565604632028789 11.622955264046713 1.021442355068764 0 -1 0
84 2 10.43079604778441 13.121018156766768 8.962023694360184 0 -1 -1
152 2 8.775055671198347 11.823077210857518 0.22822144703459418 0 -1 0
311 2 18.372547084104774 14.792130133448723 7.887087485986833 0 0 0
359 2 17.173387748958003 14.246250178115773 11.10210163343586 0 0 0
265 1 9.058884769249445 1.8374329378740955 5.659460948962982 0 0 0
465 2 18.106066358892914 8.66579186495196 1.4178624320641435 0 0 0
72 2 17.83014875730432 11.772001251631838 8.81110165654497 0 0 0
42 2 20.64827839775429 10.353409825533552 12.764503862663302 0 0 0
177 2 10.194435206983519 16.958071471820553 12.385722112237387 0 -1 -1
190 1 21.1416142340286 12.863976947869208 12.596055060934098 0 0 0
223 1 11.261033676422727 14.261881123210369 3.3360796166072078 0 0 0
191 2 21.904921356359548 12.40628427039056 12.158099017832527 0 0 0
382 1 19.602318622696934 16.251120309998946 11.882425569750351 0 0 0
19 1 17.32697919418286 12.547011054083917 4.13549162961283 0 0 0
20 2 18.014727977683762 12.518263729730853 3.4017718882318353 0 0 0
21 2 16.56006458878994 12.006084762240866 3.7869786901431457 0 0 0
379 1 16.891945610187328 14.905322783977443 5.059456927574537 0 0 0
43 1 21.3922578155979 15.16517549707443 6.015930133093889 0 0 0
381 2 16.978017582322448 14.006249542605984 4.593205120780354 0 0 0
67 1 15.146946132385315 11.11957805678575 2.731444283629376 0 0 0
68 2 14.560177801209372 10.94641972890942 3.4888096171066603 0 0 0
69 2 15.50277503323631 10.219022662297911 2.5836302642058073 0 0 0
119 2 16.780094646127264 12.47018503059506 12.754411130404034 0 0 0
146 2 12.129880405212598 13.187876939946428 11.834031609143524 0 -1 1
360 2 15.975096996470791 14.790694368200656 10.311783300611646 0 0 0
115 1 15.453323942165175 11.193248380636485 6.107866951585521 0 0 0
116 2 14.685838153096197 11.411458776371944 5.613428000667975 0 0 0
365 2 7.21041044563477 10.726658914345919 2.1618983555800244 0 0 1
136 1 11.211315774057503 11.475641656205019 12.845705599222905 0 0 0
144 2 14.222095412769537 11.058528851992945 9.751824340618912 0 0 0
383 2 19.82824072457071 15.504030238112856 11.286575401863812 0 0 0
163 1 16.817633367714496 9.131024108173323 4.817903953594485 0 0 0
286 1 21.995864211675833 14.829628544811913 9.344079901038954 0 0 0
165 2 16.253738686426868 9.847723692798876 5.244003387932826 0 0 0
187 1 18.875874426319193 11.314663834303332 5.903892107832946 0 0 0
188 2 19.531276363836273 10.968242357725863 5.268994774057023 0 0 0
189 2 18.21240998314087 11.839393753946426 5.374138764148184 0 0 0
30 2 10.614530781071505 11.467413211926726 1.5113601826021745 0 0 1
211 1 18.244543857684196 9.965753201364901 2.5362205751915377 0 0 0
213 2 17.67739903057728 9.670754806508862 3.3063541068920768 0 0 0
235 1 15.349706534188316 8.3383782893316 1.578704009992213 0 0 0
236 2 15.413976695425264 8.532710846167323 0.6645045561907793 0 0 0
78 2 10.922204298670938 12.34093106321005 7.027580798650729 0 0 0
260 2 17.835820443117505 12.160985806703296 0.424336897133725 0 0 0
209 2 18.106597029723215 3.794187417826904 8.747633629736509 0 0 0
259 1 17.257129331228498 11.386930063732011 0.5909033942604509 0 0 0
117 2 15.910453149323166 11.998663068393693 6.3819820878363505 0 0 0
261 2 17.61711243597825 10.86748112351536 1.3380586024887962 0 0 0
283 1 19.192842408081678 12.838686136192427 2.3926421593980485 0 0 0
347 2 4.372074998593647 3.4579516004838156 8.937637957416907 0 1 0
126 2 1.854585354467469 6.972881530387028 0.5873350755937158 0 -1 1
307 1 15.687778747034182 13.616380083964836 1.543871950716095 0 0 0
89 2 14.444835493105291 11.202667293069995 7.544151927573118 0 0 0
309 2 15.995561493312072 12.706127462707034 1.2712123869288994 0 0 0
29 2 11.21433151595114 12.607615248222917 2.463529639882197 0 0 1
49 1 13.22403813016872 7.2624923130076775 3.029470795332881 0 0 -1
175 1 10.131434873137563 15.98108630879585 12.65390923639077 0 -1 -1
326 2 7.578603812768809 14.923505636515433 5.2848426916336955 0 0 -1
358 1 16.876564548137733 15.021812712601712 10.612689999805964 0 0 0
289 1 8.003827174952786 7.95032922513676 1.3553802312485757 0 0 0
22 1 19.715508239058003 13.924014042440783 10.54054462849613 0 0 0
23 2 20.502587610827465 14.102110600194212 10.011109910393797 0 0 0
24 2 19.959962479036612 13.44647796656453 11.335033696458016 0 0 0
143 2 15.554196818465522 11.814712442668272 9.864228634366869 0 0 0
46 1 23.733863161967445 16.94125992516231 12.997639194048626 0 0 0
70 1 17.519993212470904 12.688577784131384 9.002727021837346 0 0 0
71 2 18.28658755256445 13.139990314464997 9.387888068643704 0 0 0
325 1 7.766275618169495 14.462400396146709 6.172614285182009 0 0 -1
130 1 10.304852340230278 9.200819999720329 7.838501197962144 0 0 1
151 1 9.739163616546946 11.5340640672245 0.05962794701671605 0 -1 0
201 2 8.892173289023829 11.509532573192407 5.163072509172998 0 0 1
323 2 7.03102159928195 12.767318241032541 1.362360069576186 0 0 -1
131 2 10.338693395783402 8.974266672919345 6.869910302062185 0 0 1
76 1 11.190347127824227 11.914465305864884 7.917736485534194 0 0 0
327 2 8.168365697386552 15.123091375737856 6.745294183062038 0 0 -1
32 2 7.083464442223884 8.707488710758925 7.4165140540129215 0 0 1
293 2 8.800695907470114 13.529332931550556 12.555172090412528 0 0 1
243 2 4.989497139124732 8.758188047102847 0.061765247795454156 0 1 1
54 2 4.804049736035408 7.291214884104314 10.357644054090878 0 2 0
99 2 14.26479385498001 14.665388718218454 4.389918192761219 0 -2 0
384 2 19.33345051831873 15.732295949550535 12.661795479782555 0 0 0
41 2 16.80106018238097 6.9222604935622885 0.07399553711794829 0 0 1
374 2 3.8439351776172668 9.976403757401645 4.251548885911999 0 1 0
247 1 5.844733404685804 11.265227256452462 5.997252273882613 0 0 0
314 2 5.987906258757766 9.284017923720393 3.458766345961365 0 0 0
292 1 8.375755011714041 13.743754285207768 11.62332624757277 0 0 1
180 2 6.8405852243768 13.531924445719895 7.378816096172786 0 -1 1
106 1 2.554255225477056 7.894413338601923 1.8719825999746622 0 1 0
90 2 12.872165309475147 11.203702192148768 7.772314134034155 0 0 0
1 1 3.6933764943803773 11.708161729318618 1.3665558340179482 0 0 -1
308 2 14.775873820034008 13.784847806304356 1.2528251400460053 0 0 0
137 2 11.067314196347343 10.521277790311844 12.596289924095494 0 0 0
122 2 5.432209177035532 14.439347858345416 1.4625617756337368 0 0 -1
378 2 16.35408182196801 10.263313591346934 11.072318841793027 0 0 0
36 2 16.92209368815951 16.4723218502494 11.784079071891043 0 0 0
95 2 13.16930516466533 5.668944818292379 6.471593877128253 0 0 0
225 2 5.684344521478908 0.9135648703518539 3.0042516469016642 0 1 0
171 2 2.500220743173477 4.8338852677311 5.200734062830274 0 -1 0
138 2 11.869770458736507 11.363096481972743 13.507737250051205 0 0 0
2 2 3.9163053120461537 10.809726951142812 1.1037179010587441 0 0 -1
248 2 5.774568350748792 11.982862483097016 6.622854143610379 0 0 0
179 2 6.35655934354267 12.514810874277854 8.427107855515779 0 -1 1
11 2 3.8856124534569645 5.840311884491999 8.246865417548925 0 1 0
3 2 3.9672839405188185 12.36419007481821 0.6359763469225806 0 0 -1
282 2 19.841494497534132 7.164926251905579 8.527768087820066 0 0 0
284 2 19.80261547955467 12.419010905406221 1.74602069499867 0 0 0
45 2 21.4435295295372 14.540036192572648 5.268612303666748 0 0 0
206 2 16.258345646513426 2.3457456790423503 3.0855586672591593 0 0 0
178 1 6.059400796456081 13.29872659581329 7.967862009618935 0 -1 1
47 2 24.094094754657643 16.4390797728892 12.248857344565915 0 0 0
288 2 22.551899995084085 14.381436696408453 8.682036289189593 0 0 0
125 2 6.530188198497528 10.789008268347034 12.558258696172093 0 -1 0
507 2 17.42304991862595 3.38781595676954 4.599960333786859 0 0 0
155 2 7.103686401931321 12.652417226239832 11.673312845866969 0 0 0
375 2 3.7158882413699423 10.957042824333707 3.0595442966067155 0 1 0
467 2 20.881594358356985 10.343874246664226 7.834266233335141 0 0 0
385 1 22.441966945619022 5.012689213500465 4.00143426018594 0 0 0
386 2 22.104983090437678 5.912998888129677 4.290204307552722 0 0 0
387 2 21.782169102102742 4.552902043028379 3.480773372696946 0 0 0
409 1 26.22540746521983 8.02370269825825 6.193094864423101 0 0 0
483 2 19.325020186722494 3.6894791066378985 6.216543529483437 0 0 0
425 2 37.40279976099287 9.422857615110587 13.127890596498341 0 0 0
468 2 20.374762273038055 9.282399729782352 6.640941311111608 0 0 0
433 1 20.136875373468584 3.7047971987319794 2.7630272222353054 0 0 0
434 2 20.40527213021151 2.8917921383477014 2.3072806633338443 0 0 0
435 2 19.584647473398537 4.105309438792368 2.029213925327173 0 0 0
602 2 21.13575673995732 0.6123341742072504 1.9846047102800994 0 0 0
460 1 18.45279784530065 2.690740288228965 7.236856819986366 0 0 0
677 2 22.58244613115459 8.896614106966002 7.750343400170146 0 0 0
481 1 20.06802549126981 4.25837614957428 5.819590877374189 0 0 0
482 2 19.677808488244814 4.877729302116187 5.094547212906549 0 0 0
650 2 25.210048099299982 6.32003405162352 3.1747353017474147 0 0 0
133 1 39.50568070422366 15.83631199345078 10.53027938236139 -1 -1 0
506 2 18.615381904316557 3.120109690555026 3.5724632607839446 0 0 0
529 1 21.735089412595187 2.262510885174221 4.957313867799888 0 0 0
530 2 21.231784438453666 3.0871888655877004 5.203342920034465 0 0 0
531 2 22.119657550019877 2.429851034868248 4.028750860512816 0 0 0
553 1 24.09952586361188 4.338010641729524 6.227297926920655 0 0 0
554 2 23.343234397463846 4.4915521645541805 5.632431607003813 0 0 0
745 1 21.65589191062443 7.366340900963025 4.971642908070176 0 0 0
577 1 23.351583696475032 2.5391318933080873 2.57912075798999 0 0 0
579 2 22.944636143679144 3.3697604172188758 2.0932427774080056 0 0 0
601 1 20.508068974891323 1.295025602948511 1.6822599509912541 0 0 0
666 2 35.08972865835428 7.775316654355601 9.98393193678624 0 0 0
603 2 20.66214896521811 1.489589263646333 0.7372262638546639 0 0 0
410 2 26.99872724928055 8.403731598227655 6.690648776414737 0 0 0
625 1 22.22663726904424 4.592631236520311 0.8325187406634129 0 0 0
627 2 21.543352094896107 5.181123922554466 1.3157805342246758 0 0 0
649 1 24.53335201189895 6.111893083180271 2.495140905955527 0 0 0
578 2 23.158423307155154 1.802768465895365 1.9847195002838165 0 0 0
651 2 23.80098937859615 5.688654443863305 3.0039874400235256 0 0 0
673 1 20.739637805841316 6.797344414433856 1.8389732959682001 0 0 0
692 2 31.238909417418032 14.490263961784155 1.9637440850562518 0 0 0
675 2 20.241705378193515 6.849785230699157 2.6942721347950624 0 0 0
697 1 18.418619170373653 4.332954634840368 0.8245391001644994 0 0 0
593 2 32.67207001078306 4.173386692121007 10.168632062761702 0 0 0
361 1 36.82371815816421 13.42950302286092 4.179298149405076 -1 0 -1
746 2 21.506609266698185 7.071186120367974 5.8874310522653515 0 0 0
721 1 19.14328255610323 6.2683419639047075 4.084628368280966 0 0 0
626 2 22.863698944821724 5.177365083933771 0.4034109886263988 0 0 0
357 2 35.492825486646744 8.912878867871047 6.541549077195501 -1 1 -1
411 2 25.79700063081064 7.430558882480721 6.856511566264189 0 0 0
678 2 22.70699403034059 8.378628722566363 9.193350421830168 0 0 0
388 1 24.739558426925747 7.14620465477526 10.668422683581092 0 0 0
389 2 24.455048978003735 8.007257896923438 11.062142042413608 0 0 0
390 2 25.15380682141323 6.778989685079248 11.489053079810008 0 0 0
412 1 28.79948058133058 9.882969856024284 12.90338132055991 0 0 0
427 1 36.719656670224985 15.480220832499375 6.210486196530172 0 0 0
436 1 22.505408417585215 5.554260942627983 9.618893608147003 0 0 0
437 2 21.756139107659717 5.389658979417278 10.30008874491972 0 0 0
438 2 23.162037656218477 6.128542653621996 10.036466199015088 0 0 0
457 1 16.030442589440348 0.9862302869246657 0.3716964584652763 0 0 0
654 2 27.774803119347833 7.397566693657921 10.149373343512776 0 0 0
748 1 24.252390690252586 9.39084765927768 12.20955049166044 0 0 0
485 2 23.023137121779897 6.598942035867666 13.347015204020122 0 0 0
484 1 22.65095838164309 6.113875338589949 12.579027933133343 0 0 0
508 1 20.3392933467433 4.817070059842328 11.062044546462506 0 0 0
510 2 20.56358401530471 3.945922142371525 11.345464482067534 0 0 0
558 2 26.664200418847 6.988217798356329 13.263162830384948 0 0 0
532 1 24.188820872550025 3.927858147341332 11.934494262280296 0 0 0
533 2 23.85467279325271 4.737890911803975 12.339294952949052 0 0 0
204 2 33.5985101170821 6.338415753857791 3.8507060046926775 -1 1 0
556 1 26.211602922447085 6.2068604718732034 12.809746348652968 0 0 0
557 2 26.89274480842253 5.730864290779903 12.274943210198337 0 0 0
580 1 25.75634116403722 4.36872336385149 9.689897109281606 0 0 0
581 2 25.08819324998226 4.367024910736863 10.378011914677154 0 0 0
582 2 25.531265785565694 5.153157105110997 9.091737772506589 0 0 0
630 2 24.615866541940484 5.524186093787546 7.08524138412089 0 0 0
604 1 22.891658353145466 3.1856685272415257 8.43535502580522 0 0 0
605 2 22.834327470652436 3.9411519388865424 9.062594216936944 0 0 0
154 1 38.694498949125375 12.102705569745796 11.800209884604955 -1 0 0
462 2 19.1602911300592 2.0806902151274302 7.594094162263395 0 0 0
628 1 25.151348744105885 6.066584082611303 7.68691876603933 0 0 0
629 2 24.522759121695124 6.610868814727287 8.220564912933767 0 0 0
318 2 32.23048981656985 3.7746255978120367 4.739480007350692 -1 0 0
542 2 28.438161855512984 1.5020390310294067 5.593078901943494 0 0 0