LAMMPS data file via write_data, version 8 Apr 2021, timestep = 500000

384 atoms
2 atom types

0.08266214492158949 14.987435855078253 xlo xhi
0.04963983699736733 14.120593163002386 ylo yhi
0.0802200233826983 13.625502976616978 zlo zhi
5.076730589330971 5.045680446256855 3.506315008148229 xy xz yz

Masses

1 16
2 2

Atoms # atomic

1 1 7.433623301176226 5.276613935961085 4.123487952409917 0 0 0
2 2 7.099339763339138 6.103277311761417 4.598700559372107 0 0 0
3 2 6.696212756221967 4.8994705831298315 3.5970264368375826 0 0 0
4 1 10.031490454778988 6.786118742880423 10.685569713244263 0 0 0
5 2 9.704514315854627 7.611494642738331 11.115744271030197 0 0 0
6 2 10.50026851227338 6.235404431890937 11.382995483271088 0 0 0
7 1 9.871427200285256 11.978047093358155 3.97420516174516 0 0 0
8 2 10.363055830377144 11.760971802942754 4.807917698093911 0 0 0
9 2 9.595350175789774 12.910306606825381 4.134536819445434 0 0 0
10 1 12.682886900346594 14.062568195669254 10.726226176306705 0 0 0
11 2 13.371535846812822 14.379174924659313 10.049217388660086 0 0 0
12 2 11.964346304048023 13.563491243507219 10.32261975519338 0 0 0
25 1 11.736451150466985 7.9525813045692875 6.077657917256516 0 0 0
364 1 9.658445977707864 9.231819276236186 12.054752765516282 0 0 0
27 2 11.106765223368512 7.466440511036561 6.630551164152182 0 0 0
28 1 14.114121057794247 9.791930260837008 13.118071071664579 0 0 0
29 2 13.422057529503627 10.322359823331817 12.671618990046968 0 0 0
339 2 3.4104309369906547 6.014429926324106 3.6783946315656326 0 0 0
31 1 13.91984655619858 15.107515859533544 6.192590987352209 0 0 0
83 2 6.159937326913171 10.352373552955147 8.501516698458152 0 0 0
33 2 13.06708958748849 15.518555192865197 5.86365682795515 0 0 0
34 1 16.409036749041658 16.890091644687516 13.377834950505543 0 0 0
47 2 9.446854450532532 16.36245330732468 12.131372861510073 1 0 0
372 2 12.983285039414358 16.8567729238373 11.674051308262268 0 0 0
49 1 5.111537684135311 3.798457254630944 2.9172956296473544 0 0 0
50 2 5.398279137630952 2.886766145290165 2.6008140355533182 0 0 0
51 2 4.557804779677967 4.19238216201546 2.2083049089415123 0 0 0
52 1 7.733018427509754 5.6484626077348 9.409762184845535 0 0 0
53 2 7.112743665337235 5.313307715138783 10.133295883946365 0 0 0
54 2 8.580663127683371 5.973607721812862 9.794135093489555 0 0 0
55 1 7.408071956943269 10.733957546985822 2.8351171221794154 0 0 0
56 2 7.795113114613272 9.817816503126862 2.5468224966615534 0 0 0
57 2 8.129937123036742 11.266023916247319 3.1963649416681155 0 0 0
58 1 10.498148879571396 12.437495880431518 9.677513230011366 0 0 0
59 2 10.007157709009082 12.7632501693349 8.89644008773328 0 0 0
60 2 10.585218839258904 11.514380902257475 9.41991795946983 0 0 0
73 1 1.115077790273479 0.6712798083486656 0.6799300285189522 0 0 0
74 2 6.862246968834611 14.150101565360162 1.0535594286419085 0 -1 0
371 2 12.267633086519501 15.57055914350822 11.324646108408894 0 0 0
76 1 3.6405465968492985 2.6449700800697946 7.3394269582929645 0 0 0
367 1 9.617005921296924 14.501165370068472 5.084369664169342 0 0 0
78 2 4.3863338849631095 2.0408762955890793 7.633690984302029 0 0 0
273 2 12.648435920678578 13.019567623586422 3.342696044959055 0 0 0
80 2 4.454754474099849 7.585741556290658 0.934806710220772 0 0 0
370 1 12.120955911560612 16.437833496284128 11.861299386587694 0 0 0
82 1 6.504680344469134 9.793792604178273 7.757695674132373 0 0 0
338 2 4.086252430606205 7.002761115314598 4.650646529419172 0 0 0
79 1 3.635333065525162 8.098284193030182 0.6583550075862827 0 0 0
97 1 5.139676671784261 4.215849271522954 6.0193602332987775 0 0 0
98 2 4.760137753296205 4.778464077471255 5.3154574591813 0 0 0
99 2 4.464189740122045 3.7281856833870632 6.483620892822272 0 0 0
100 1 7.781082582465128 6.135567748504485 12.654597811597759 0 0 0
101 2 7.964152519203468 6.908085853833859 13.217596203059763 0 0 0
102 2 7.149334747049499 5.604609609845412 13.150089411028 0 0 0
103 1 7.884043841484717 11.299463044347448 6.027604679990285 0 0 0
104 2 7.227973530413394 10.86696287418821 6.622644545810316 0 0 0
105 2 7.4363826083805105 11.811502039309696 5.383819286769293 0 0 0
106 1 10.357437438791003 13.171109086353107 12.337568184783636 0 0 0
107 2 10.78855080441822 13.728963820973272 13.14813580639542 0 0 0
108 2 9.69224408304382 12.568830972057354 12.735969127370883 0 0 0
121 1 3.125690136444642 2.5325252315546427 4.114134378679914 0 0 0
122 2 3.802700107303837 3.1911297641057805 3.708999461350169 0 0 0
366 2 9.187512679742921 10.068971230996835 11.744552701543787 0 0 0
124 1 5.654889685515322 4.788833612917956 10.976404562459656 0 0 0
365 2 10.574439145850933 9.551987200101445 12.019125055467402 0 0 0
126 2 5.998330717753394 3.8991108089379987 11.016621842025492 0 0 0
127 1 5.390768460214225 9.730017497449854 4.63230732640926 0 0 0
128 2 5.875430276876516 8.901129572673012 4.876308919537073 0 0 0
129 2 6.070465699355348 10.175657340399537 4.043244039839374 0 0 0
130 1 8.439172706239434 11.461525280129614 10.97586727296646 0 0 0
35 2 12.279362286564348 13.541448497585748 0.10660943034427822 0 0 1
132 2 9.101011834061168 12.021641115989256 10.580162519837282 0 0 0
145 1 6.708044667251794 2.04016659418363 4.959830744333725 0 0 0
146 2 6.2526976059694475 2.828154316650027 5.306779597713801 0 0 0
147 2 7.146253225789851 2.2352204456353792 4.08150222190647 0 0 0
148 1 9.312356654642848 3.9572263714926623 11.92732357695262 0 0 0
149 2 8.884776553009111 4.819673832501163 12.237956294751058 0 0 0
150 2 9.911935961687645 3.7743873874315588 12.624574977786038 0 0 0
151 1 9.235869529829264 9.036820005956585 5.0960253985092425 0 0 0
152 2 8.84648053972645 9.894571885017195 5.476386178938217 0 0 0
153 2 10.037908004775831 8.809278514183672 5.576752203873929 0 0 0
154 1 12.041253052543258 10.798440546315149 11.936240442653219 0 0 0
155 2 11.59499395148482 11.662125613300638 12.072815819196038 0 0 0
156 2 12.090301949609028 10.867596082999194 10.976751643548985 0 0 0
169 1 9.097902229050243 4.393933643518202 6.128119461526827 0 0 0
170 2 8.369536284051149 4.702278002993263 5.59985761338055 0 0 0
171 2 8.727521539357737 3.8294642777266805 6.828795463878633 0 0 0
172 1 11.535690527768052 6.044917456221898 13.110437213782117 0 0 0
173 2 12.28924421729814 5.429190650201863 13.152667067183625 0 0 0
174 2 6.621934153144234 3.3266317618725543 0.15991566827083048 0 0 1
175 1 11.470714287960844 11.13245513812199 6.37863549250051 0 0 0
176 2 11.337093400419974 10.468448692392668 7.06468523688658 0 0 0
177 2 12.042776267332554 10.606330448054926 5.7026419179918 0 0 0
178 1 13.977102090120244 13.065921010782485 12.889855223817143 0 0 0
179 2 13.36496850001376 13.525508822570199 12.224607720160943 0 0 0
180 2 14.692218783539667 12.723777853092505 12.371192676078133 0 0 0
193 1 8.052291887642712 2.528845978005121 2.8243681273810237 0 0 0
30 2 14.863201941746363 10.308311254367924 13.522901327019614 0 0 0
195 2 7.823457291909797 3.3832964253041706 2.436823480018484 0 0 0
196 1 10.974048632945347 4.30863174094651 9.390471209354306 0 0 0
197 2 10.48555918194005 4.116852615655986 10.272653407243167 0 0 0
198 2 10.72538290417998 5.195242913653271 8.996004249682526 0 0 0
199 1 10.967000109548215 9.339472519045717 2.8469746014470694 0 0 0
200 2 10.669384369773313 10.206771232056271 2.3787383512037668 0 0 0
201 2 10.213993295224427 9.250197516913019 3.543746408397243 0 0 0
202 1 13.707496922190892 11.534144400157363 9.374175916503109 0 0 0
203 2 13.398299228201516 12.171177152100814 8.679373805912627 0 0 0
363 2 7.81489771045432 8.180286625053347 5.322638305910477 0 0 0
217 1 5.479398616981295 1.343641599669997 1.810584797094131 0 0 0
218 2 6.169827564250003 0.6896816862592117 1.9570397840525373 0 0 0
219 2 5.640047313304402 1.732041465199281 0.9485507001540966 0 0 0
220 1 8.160823097529628 3.1943940533385735 8.435447161694526 0 0 0
221 2 8.221407703897961 4.113758921678572 8.755950279094726 0 0 0
222 2 7.24024025136777 2.9078238005356183 8.29163656251816 0 0 0
223 1 8.188590508013862 8.499097398405901 1.7299529086447598 0 0 0
224 2 8.697002303701634 7.7479767052899176 1.9187235124451352 0 0 0
225 2 8.544617630544272 8.777278666497732 0.8329699746689995 0 0 0
226 1 10.830235401831846 9.957222742848439 8.857451305045277 0 0 0
227 2 11.527643912682699 9.317202546379596 9.18019917922856 0 0 0
228 2 9.974515502448012 9.501756606126547 8.896386922565608 0 0 0
241 1 7.25222448953519 4.644231206968228 0.982305586408027 0 0 0
242 2 7.969771236393486 5.106159908266864 0.523881827181855 0 0 0
243 2 6.727255737956933 5.39882660886865 1.3120818795020859 0 0 0
244 1 10.162741719519309 6.496491131720991 7.576829333595886 0 0 0
245 2 9.44724526864295 7.008046034961401 7.9826666518746165 0 0 0
246 2 9.705166779380288 5.868900779363029 6.971359355258013 0 0 0
247 1 9.697748074918392 11.411291405031069 1.0682166114360374 0 0 0
248 2 10.4062102318512 11.8520361288823 0.603955534110811 0 0 0
249 2 9.451447888261697 10.638561557076805 0.519530829363377 0 0 0
250 1 12.49643295113799 13.256527914028934 7.570741707140275 0 0 0
251 2 13.024760376121776 13.69277566518611 6.901521361479302 0 0 0
252 2 12.02565113539114 12.4464558675108 7.217188107346423 0 0 0
265 1 9.4812306186666 6.108497668572914 2.541873025209898 0 0 0
344 2 6.017816660699141 13.327622545085898 3.9520280771852616 0 0 0
267 2 8.778262696766934 5.843797198240582 3.189733335383486 0 0 0
268 1 12.443980969409884 7.545372652099687 9.5080639848454 0 0 0
269 2 11.775701017337356 7.092011749842194 10.017988630378639 0 0 0
123 2 2.6052262438418783 2.96865554004463 4.8769270449695625 0 0 0
271 1 11.980676924778873 13.023921370089013 2.6255549296810674 0 0 0
272 2 11.244697146574776 12.546310894408826 2.9721736234376555 0 0 0
348 2 8.96179117407541 15.01648223196214 10.333819524144545 0 0 0
274 1 14.824099143140065 15.19437284278155 9.522319284540833 0 0 0
275 2 14.486040496647906 15.923105715770458 9.022574452882184 0 0 0
369 2 10.468293415282867 15.085629660577283 5.167166390512327 0 0 0
289 1 5.818089384748709 6.779771148727565 1.957646802923215 0 0 0
290 2 6.454375679970966 7.442540012983324 2.1370515716262806 0 0 0
291 2 5.431899347415344 6.489459045536772 2.837722412430622 0 0 0
292 1 8.5636778117435 8.41615775674602 8.894669614447025 0 0 0
293 2 7.845117159165512 8.898678351575906 8.406671699323526 0 0 0
294 2 8.056017043968968 8.288727878713198 9.787139096032726 0 0 0
295 1 8.451058607217462 13.868124799286587 2.2353788202336315 0 0 0
296 2 8.71660946434581 13.019302676539192 1.7742749109549918 0 0 0
297 2 9.180474413236272 14.602138542455208 2.0386356363088973 0 0 0
298 1 10.91702275964996 15.578765953798436 8.127694935609686 0 0 0
299 2 10.600474224092132 15.348630450659067 9.043593834033828 0 0 0
300 2 11.496425431384232 14.824765728633828 7.87642344552568 0 0 0
313 1 3.6558529897779044 4.795317113296436 0.897961788308839 0 0 0
314 2 9.072121049540145 8.695904640210488 13.609842864036581 0 0 -1
315 2 2.9695157076608854 5.362434684011223 1.280780862023075 0 0 0
316 1 5.844591712744039 6.555410551586164 7.579816125581393 0 0 0
317 2 5.523743869015072 5.755062281179743 7.096183879203046 0 0 0
318 2 6.423214165130355 6.178658345665572 8.267942902731987 0 0 0
319 1 6.069154894530621 11.53347491956649 0.5491248107768898 0 0 0
320 2 6.633702254905985 11.32058774153474 1.3267933968964536 0 0 0
321 2 11.538249589685776 15.560771685973288 13.361376784747163 0 0 -1
322 1 8.879853158061833 13.357774409872503 7.496790409470718 0 0 0
323 2 9.257982442592251 13.842903818960986 6.706175634877419 0 0 0
324 2 8.38158895954748 12.620798981689026 7.135368794654612 0 0 0
337 1 4.276229034302945 6.172891809107213 4.182422173687316 0 0 0
368 2 8.914120342035783 15.108058053316483 4.790693783585299 0 0 0
125 2 4.84102678517872 4.686657085168685 10.389609336363776 0 0 0
340 1 6.876108919096508 8.079472483631418 11.045472478064394 0 0 0
84 2 5.77720630670019 9.11136402167942 7.610039925030649 0 0 0
342 2 7.138093300259468 7.2465028227170665 11.473897581193159 0 0 0
343 1 6.95693909864678 13.250113359668806 4.304422171256953 0 0 0
194 2 8.271532616019242 2.0186000790217142 2.0214448422415283 0 0 0
345 2 7.457970005421227 13.512198443862095 3.3924829057316863 0 0 0
346 1 9.810406836893286 15.256147702346535 10.744538731740507 0 0 0
347 2 10.090988431130803 14.39020303489162 11.13774532763769 0 0 0
36 2 16.546821413912856 16.395864264407454 12.548006746028067 0 0 0
361 1 6.985062091767702 7.596216722097767 5.298613608531131 0 0 0
362 2 6.894864459485102 7.274562012371498 6.220312402023576 0 0 0
131 2 7.651125871866974 11.484328755847386 10.415859221972347 0 0 0
32 2 9.432755663117783 1.7527918360496995 6.480112561069103 0 1 0
266 2 10.344214219967958 6.195258672255119 3.087451196127123 0 0 0
341 2 6.811443300611637 8.7270522176512 11.784989882998234 0 0 0
45 2 6.97830619931516 14.393518855141943 5.815936730938972 1 0 0
134 2 10.049637939243869 3.448217110687238 4.901034807217979 0 0 0
77 2 2.963924392892057 2.01821659777402 7.089065729882614 0 0 0
276 2 15.168215239546623 14.599866127953376 8.787202662035316 0 0 0
89 2 10.880752550716908 3.269318387428944 8.083626215925424 0 0 0
13 1 14.778265265031097 5.359947561062799 3.9736880539037593 0 0 0
14 2 14.170899385410564 4.707246878247339 3.607590495529784 0 0 0
15 2 15.367224317510741 4.838036176695219 4.590634636515656 0 0 0
16 1 17.486359526553635 6.898730430124617 10.939770329462629 0 0 0
17 2 16.844930891916587 6.344956347323268 10.489759426423134 0 0 0
18 2 18.185589448066988 7.082697787615741 10.250002666678368 0 0 0
19 1 17.51145076037562 12.303984445855958 4.165330734433181 0 0 0
20 2 18.221954335229814 12.366182506985487 3.4858850091721583 0 0 0
21 2 16.79634579921855 11.72512305696524 3.7868658636186687 0 0 0
22 1 19.763522977992366 14.007213552985618 10.656337278799485 0 0 0
23 2 20.539957304202062 14.138097701691066 10.133029387627621 0 0 0
24 2 20.199073890512224 13.545592331246787 11.443919644254718 0 0 0
48 2 24.797525388714234 17.348213601048947 13.344956111684493 0 0 0
38 2 18.021443053251687 8.534566031391655 6.069551811628332 0 0 0
39 2 18.230142188140086 7.370752146871237 7.038369177884147 0 0 0
40 1 21.43329302846919 9.859635535539264 12.878541683643087 0 0 0
37 1 18.695076878212824 8.18332215493086 6.672972457067243 0 0 0
42 2 20.7728054043645 10.490376409913546 12.502077496736813 0 0 0
43 1 21.39039148874996 14.93408023355647 6.4322724446762205 0 0 0
44 2 20.574947148889983 15.19516107712281 6.002193454021301 0 0 0
384 2 19.447834536692046 15.631008305761409 11.597121774109247 0 0 0
46 1 24.05803880593718 16.823341494931107 12.966448854081772 0 0 0
383 2 19.380154600852208 15.99770483708379 13.0550330076094 0 0 0
282 2 19.787125772803986 7.194441629119075 8.777441000867684 0 0 0
61 1 12.92226066387994 3.6687942822988155 3.133424931865341 0 0 0
62 2 12.157226468066089 3.5921837611739433 3.7325162033333736 0 0 0
63 2 12.536714500310074 3.9715659160389296 2.2972791779548203 0 0 0
64 1 15.459780689019945 5.3133832957597305 9.57515889545813 0 0 0
65 2 15.04151890621619 5.781527883398937 8.801699146997404 0 0 0
66 2 14.736811300018225 5.067704025434031 10.236263697002217 0 0 0
67 1 15.34440799051049 10.821990235347682 3.0208698350739023 0 0 0
68 2 15.654201520774722 9.943147689486766 2.758389671035339 0 0 0
69 2 14.53277393693246 10.657685465038155 3.6120273648895402 0 0 0
70 1 17.46522283298547 12.508520478322591 9.670174082766314 0 0 0
71 2 18.231128935362598 13.054520758428545 9.87613175914055 0 0 0
72 2 17.747038696519972 11.548157780385539 9.524510502860945 0 0 0
85 1 8.562517199284075 1.0014513531243814 0.644395738640732 0 0 0
86 2 9.169473838186866 0.28863921237746537 0.9710932502582965 0 0 0
87 2 14.221386430036894 4.907389480905787 13.468833627371328 0 0 -1
88 1 11.148120227202966 2.683679259077273 7.330008757171198 0 0 0
377 2 17.232667465362326 8.588570856957968 11.405836347736138 0 0 0
90 2 11.887015036953356 2.145369116217686 7.701494960945836 0 0 0
91 1 11.11900210279843 7.7816025956858015 0.5845915862311166 0 0 0
92 2 11.896900423563846 7.184249118979129 0.8144030155962211 0 0 0
382 1 19.6260147429701 16.393140706572964 12.167947730993497 0 0 0
94 1 13.729109520578984 9.464787234441443 7.603274838446197 0 0 0
95 2 14.546549879216732 8.915006476216043 7.834713149863262 0 0 0
96 2 14.126164183719068 10.21855033240658 7.036416493889932 0 0 0
109 1 12.737584647568308 4.38583242973563 6.216917464555186 0 0 0
110 2 11.965935765206158 3.796351931005119 6.4847986518895135 0 0 0
111 2 13.419787969192486 3.679259163015167 5.939184582424149 0 0 0
112 1 15.279394732879743 5.93766302494931 12.652975654914778 0 0 0
113 2 16.01345393424665 5.32352116060181 12.478724134768527 0 0 0
114 2 15.683788458303743 6.6216437901264635 13.211737565723347 0 0 0
115 1 14.914355362215828 11.31058766566299 6.36791717749807 0 0 0
116 2 14.469186208793383 11.71667148396188 5.595748847130121 0 0 0
117 2 15.44791862082877 12.076695787715975 6.7731536084950585 0 0 0
118 1 17.63468912957034 13.45168261450524 12.933550639372907 0 0 0
119 2 12.973373153717306 10.450937167468805 0.13202889121558398 0 0 1
120 2 17.07433243273482 12.77173491435426 13.349549261877074 0 0 0
133 1 10.482626866853574 3.0222248303240993 4.136548754368735 0 0 0
26 2 12.5166102394183 8.234935759332474 6.638078571747214 0 0 0
360 2 16.405068440700045 15.38124305939318 10.626821776163727 0 0 0
136 1 13.322373902182647 4.4757330386501275 10.90900245887347 0 0 0
137 2 13.63134159311672 3.6361744933797144 11.34118332821342 0 0 0
206 2 16.615247832586398 2.662243093331862 3.0499839987439463 0 0 0
139 1 13.214220644170235 10.001506366218955 4.439914742491177 0 0 0
140 2 13.475709180083538 9.053888029971507 4.638961378541234 0 0 0
379 1 17.010765112808716 14.810471689879993 5.206741389973512 0 0 0
142 1 15.490962996045232 11.725585997604615 11.217829365859016 0 0 0
143 2 16.24009176534451 12.095560137968617 10.716032035847169 0 0 0
350 2 11.835881092729037 6.987183422044619 4.763335453633144 0 0 0
157 1 14.401452068816747 2.1367785175809293 5.175046602446011 0 0 0
158 2 13.530848442803208 1.6669887286381486 5.142846477563496 0 0 0
159 2 14.639435223028546 2.23870425621916 4.274242767868998 0 0 0
160 1 16.73095230592269 3.8336555321391748 11.919520715924822 0 0 0
161 2 21.177930782666195 17.149251889301365 12.01950331311605 0 -1 0
162 2 17.596520357828755 3.5986849551732973 12.338746916756525 0 0 0
163 1 16.69461558057907 9.129851277768108 4.964928334696551 0 0 0
164 2 15.881299896122579 8.571019818653994 5.216819270675117 0 0 0
165 2 16.54267585829214 10.061069702626314 5.1950664697903886 0 0 0
166 1 19.321951099609443 11.21572091565195 11.89199696253761 0 0 0
167 2 18.540695048523816 10.514941810270711 11.861807780358694 0 0 0
168 2 18.857241482040767 12.006945546614862 12.179018979756526 0 0 0
181 1 16.383198913571952 4.132871244800522 5.735313582077057 0 0 0
182 2 15.92752121445378 3.5423311577026073 6.443317307685098 0 0 0
183 2 16.78180216655747 4.843304607053652 6.268639729753446 0 0 0
184 1 18.96964827931628 5.874916669898359 13.04520823846474 0 0 0
185 2 19.615051697859887 5.499599750349411 12.448591597256899 0 0 0
186 2 18.349468004352268 6.323963154604632 12.469163742291913 0 0 0
187 1 18.840067574592865 11.455232334578744 6.292792483095525 0 0 0
188 2 19.508369410100137 10.917786806549257 5.887546833827903 0 0 0
189 2 18.32425271660764 11.829808317298575 5.53691565285845 0 0 0
190 1 21.284999080209626 13.01628764906843 12.593958420547041 0 0 0
191 2 22.079550160799617 12.547973786171147 12.294030312834035 0 0 0
192 2 21.670064334709274 13.899586323378532 12.986796105650095 0 0 0
205 1 15.738109176815664 2.563352376204311 2.5958531068818695 0 0 0
376 1 17.265268727613723 9.531417628011647 11.804221804469543 0 0 0
207 2 15.622557828299488 3.441319589814556 2.1524223542965855 0 0 0
208 1 18.31559930596568 4.366322705011357 9.406153693949312 0 0 0
138 2 12.591714902443314 4.181418170542889 10.32446967434749 0 0 0
210 2 17.637339849333483 4.176294807064567 10.068609075778863 0 0 0
211 1 18.2025153157259 9.712115919044184 2.7365274142420755 0 0 0
375 2 14.306851685126183 7.4437655654997 6.017758202296805 0 0 0
213 2 17.549832940957124 9.432599491106703 3.4047514884441226 0 0 0
214 1 20.966180610725374 11.552125635166902 9.805232685755259 0 0 0
215 2 20.307678185813185 11.386785546259006 10.541349522826332 0 0 0
216 2 20.629045160020446 12.24796816955709 9.180315835744599 0 0 0
229 1 13.047590194971658 1.0874700004072204 1.6661370290891364 0 0 0
230 2 13.035006272824212 1.7428220323880343 2.3532810450682096 0 0 0
231 2 13.36362380755309 1.4727798621801584 0.8019708115918216 0 0 0
232 1 15.704962590669393 3.0027524783973467 8.349180070057912 0 0 0
233 2 15.642614921254529 3.8692828242079336 8.8872280674927 0 0 0
234 2 14.803592254155596 2.6152217217739873 8.369696420176814 0 0 0
235 1 15.628319104064929 8.299344306614733 1.6765554801260696 0 0 0
236 2 15.702994262228923 8.779208887724165 0.8058971277616798 0 0 0
237 2 14.763252128262431 7.794467264113782 1.639486586516708 0 0 0
238 1 17.822889408746345 10.024786183102691 8.523521419134285 0 0 0
239 2 18.501340780101582 9.348191594589359 8.837420481606374 0 0 0
240 2 18.096952363532417 10.349627046795653 7.653291851058201 0 0 0
253 1 14.988789318092767 4.672722409874939 0.8570454326335173 0 0 0
254 2 15.62607835203919 5.2165255711207505 0.37574415086981566 0 0 0
255 2 14.578930451798511 4.046853520868971 0.29473172443425905 0 0 0
256 1 17.219879465804855 6.209921699559485 7.5417604678555366 0 0 0
257 2 16.614252304080523 6.853078019442866 7.970966400542963 0 0 0
258 2 17.451089134283126 5.544568247913076 8.259035056625198 0 0 0
259 1 17.29816207526774 11.559265453499025 0.5317737909692933 0 0 0
260 2 18.049042794764862 12.103190166301413 0.195546196686547 0 0 0
261 2 17.67146552579208 10.96983914988154 1.1696419725271072 0 0 0
262 1 19.978697004449096 13.205784755073187 7.81524554520709 0 0 0
263 2 20.61215319901272 13.809495840768152 7.342636154329575 0 0 0
264 2 19.66216647627653 12.594252149177146 7.14238808547811 0 0 0
277 1 17.05331473962897 5.969670134228433 2.557493257778168 0 0 0
278 2 16.296047301987 5.550917964741957 3.072144058677643 0 0 0
279 2 16.849239092116616 6.924306781507831 2.4516299080563067 0 0 0
280 1 19.52020169882591 7.779641608197227 9.532045762838228 0 0 0
378 2 16.431092195860124 9.980812454035364 11.575000921428389 0 0 0
93 2 10.901878991449147 8.172247474339539 1.438883627037019 0 0 0
283 1 19.510735687681585 13.036408996702976 2.557356588307574 0 0 0
284 2 19.19569665928168 13.784808768216386 2.0290942738661757 0 0 0
381 2 17.087601581605742 13.991933559101632 4.661819816892764 0 0 0
286 1 22.184483627526134 14.863444995356815 9.424136485880627 0 0 0
287 2 21.686920330651724 15.677904416210758 9.29981866619802 0 0 0
380 2 11.247341310228235 1.3709386886977846 4.850114189640008 0 1 0
301 1 13.333373828227122 6.735428044489582 1.6678269086508668 0 0 0
302 2 13.729534778688508 5.945152764829805 1.2879584846879828 0 0 0
303 2 12.884255077151241 6.492960743058309 2.4937272985665686 0 0 0
304 1 15.934972108210353 8.232866813701007 8.720492047802527 0 0 0
305 2 15.41412248775492 8.304036875733276 9.517108152446603 0 0 0
306 2 16.449980872925288 9.069840244413347 8.563114698004519 0 0 0
307 1 15.770111289115624 13.62901436011717 1.6686545621432343 0 0 0
308 2 16.489456187590093 14.272481520591754 1.7503710842579399 0 0 0
309 2 16.337283546249743 12.785972818857447 1.3269056795465175 0 0 0
310 1 18.352942769323583 15.55766124812486 8.566591023960465 0 0 0
311 2 18.805828010923864 14.730080074803588 8.263022055370728 0 0 0
312 2 18.121535588887266 15.39787186397328 9.535987575743173 0 0 0
325 1 11.357791281046403 4.52435971926383 0.5604329601432726 0 0 0
326 2 10.77571596469078 5.057163096895881 1.0652469375113633 0 0 0
327 2 16.63629663127479 8.600487110176568 13.348127409993936 0 0 -1
328 1 13.870565728471002 6.37694683004102 7.566334650545981 0 0 0
329 2 13.254940956251842 6.8087783504822195 8.203000514713889 0 0 0
330 2 13.41744953537571 5.525710909223457 7.318455143510142 0 0 0
331 1 13.621032614492426 11.653936133550967 1.041150355069281 0 0 0
332 2 12.97901805963682 12.181334751122765 1.611722064002348 0 0 0
333 2 14.330849013337705 11.48692466491031 1.6927666930468792 0 0 0
334 1 16.136457505295297 13.33837178433457 7.557700908916727 0 0 0
335 2 16.91971750481603 13.099801917013446 8.108770112622581 0 0 0
336 2 16.5287578013195 13.815348957464892 6.742974281792491 0 0 0
349 1 11.730038732152364 6.338917556130947 4.037659012620857 0 0 0
141 2 12.44765318236201 9.819204145729396 3.7392641413296537 0 0 0
351 2 12.071467026231968 5.597729975871549 4.592996692817583 0 0 0
352 1 14.545773534651618 8.106349408672509 11.064273925962997 0 0 0
81 2 18.362114467984593 8.644438441270715 1.4707091288195129 -1 0 0
354 2 14.965549023051157 7.28627276796214 11.478352104236999 0 0 0
355 1 14.23254448567384 13.229141271546483 4.250478812973402 0 0 0
356 2 14.314839634652548 13.990054460202094 4.83177773109854 0 0 0
357 2 14.865887099014362 13.398938056976096 3.571870512522424 0 0 0
358 1 17.22683384819603 15.441274659719623 11.099244960087997 0 0 0
359 2 17.325543978181148 14.616518363380209 11.59744212187534 0 0 0
41 2 22.14191043278116 10.417625409792606 13.246406065244633 0 0 0
373 1 14.38543313587922 7.682459055572246 5.082425395450402 0 0 0
374 2 14.498946748698359 6.838471247835054 4.571406116546039 0 0 0
135 2 9.637815317497608 2.867047012497018 3.6202281565871326 0 0 0
270 2 13.175246613217439 7.766066008062722 10.122656759333541 0 0 0
209 2 18.27250865276066 3.630481068628496 8.727303226457074 0 0 0
285 2 19.915767011507164 12.448106297900528 1.9337834159104246 0 0 0
212 2 18.903602355774694 9.785874854863279 3.428344741012226 0 0 0
281 2 20.23246311385426 7.83613834874657 10.147070554410389 0 0 0
353 2 14.449688628271641 8.734570945527942 11.83922062531474 0 0 0
288 2 22.579714971981726 14.56718934914874 8.593766831579137 0 0 0
144 2 14.774091727746809 11.854965488979701 10.602196396445448 0 0 0
204 2 13.844232447927018 10.707148113666875 8.836343642842804 0 0 0
75 2 15.770648334561194 1.1936628612387088 1.4553579840401714 -1 0 0

Velocities

1 -0.9103533146227408 -0.1933096417949808 5.937509807492829
2 1.235913238490944 -11.41059855559141 24.417361279314616
3 -7.023802080699657 -19.384427212805384 0.16912913105523958
4 -5.515456399655458 -1.8126497110083801 -6.070953324369458
5 -7.158894061116675 -3.8521445705761583 8.105062045214058
6 2.198380553452969 -16.676727775962103 -2.9645086921006425
7 1.2352091062787396 1.0936303978302908 0.8040529099832949
8 3.427844173539248 2.693160195908805 4.755365507912642
9 4.363976129732483 -1.4263298297315883 18.95946037353591
10 4.568862954138151 -3.5062487466613708 -1.2902934412768752
11 -20.400659115832074 -0.6624236195330987 -21.164447592034108
12 12.171953441266316 -9.856289381775627 11.740310946409824
25 0.21767763056117323 5.561984867458441 -4.708636748109039
364 0.8959470833570122 2.783024298989226 -4.874670122245927
27 -7.516854484308956 -11.867779149944731 -3.2803194235427817
28 7.665457044196079 1.9440631506623811 1.2949450742384527
29 -6.350701775783823 6.191803617891175 -20.68727071662099
339 -17.678447116122978 1.3148366121434036 -2.1152904036129883
31 -0.9346265587681346 3.916402193197469 -2.8761474784874985
83 -11.964038751007674 20.208682836834875 -12.134644536394855
33 -15.41388732197092 -5.902228995640441 -23.934489756611658
34 -2.6026647061971175 4.642723543316229 -0.22650405430767953
47 -8.115810571757633 -19.652331788526052 -10.660089139010136
372 9.632335780738936 3.90025029896467 5.990998270956423
49 -1.331421951337941 -2.322202990031307 -4.990919001921945
50 -6.342971858200311 -7.292857515521311 -18.645549304714127
51 4.933008101204064 13.690275757782171 21.841527630922545
52 -1.1500171885118582 -2.076813321328035 -1.1099200073403057
53 15.080355178159445 -13.501913262443853 -5.8182085060507704
54 -17.016814531685533 2.9458445991606554 6.406853225119685
55 -6.366553411151945 2.005023812758496 1.058130885049809
56 7.686511454009682 11.494196533831492 -11.392835990144434
57 -5.563144474669817 1.716546529027204 14.337630713269904
58 -7.592652561389453 -3.677613602132664 -1.945362467125637
59 -6.6048021055642465 -0.07821693081393814 25.471099712586295
60 -2.3002796771555314 -2.9605742518430316 -10.04553584942686
73 -4.239132179133736 3.8204545975291895 -1.1909913252683155
74 16.123814540974315 7.078387046215745 10.829364835524556
371 -6.157557944607407 -0.6048890924955954 -19.804503517139622
76 8.167544709183893 8.63758582108108 -2.602908969445291
367 0.4943224804798536 -6.886268762014505 -7.239613926715536
78 2.3098842490437708 -6.7063446158558 14.775014540143589
273 -2.9031370424996066 4.44080457154004 9.845174908329575
80 4.206416133029037 -7.780209154443118 9.74133201065194
370 3.381557364840333 -5.05749664019253 -6.554526450999228
82 0.5099326473988438 -1.7419969488264186 3.256567368751466
338 10.219927188704775 7.428730999063368 -18.096724943821858
79 1.2962861762445625 1.5438255046106628 1.9846345173791644
97 0.4894665025693129 2.687872647674522 -2.4196765056066556
98 24.7643051246749 3.3719117140105026 11.337273031657297
99 6.584235428989622 -8.4078970116445 -9.895404649656372
100 -11.530842339961357 0.0975495041913067 3.83794158928304
101 5.230064698709706 9.285549115532053 -2.5786574019526247
102 24.423097266706936 -3.2214970265637213 -4.617126774439419
103 0.22038212569919557 -1.209682148124997 -0.2607488655105682
104 -3.9041094742112987 10.82520053544559 21.469186972557072
105 10.315645845267161 14.229590217466635 -5.4664779885507215
106 -5.953939116317057 1.8008763237701313 3.5008295270712493
107 1.7426350543276614 -20.053645115421446 -7.254651929382961
108 -6.268192151447408 5.723181680509364 -15.486676896186449
121 -3.471895719944307 0.5410046621190341 -3.0722145401179795
122 -3.3797106983209773 -5.136964132483222 6.664496087339194
366 -21.587611841324804 -3.57718875432849 -2.748368904767846
124 1.4768023055972659 -0.07310084406563634 4.392887327220554
365 -22.148021192686368 -7.56195135660937 13.351238571070608