LAMMPS data file via write_data, version 15 Apr 2020, timestep = 16480000

6144 atoms
2 atom types

-2.1787278967119263e+00 6.2147017025201407e+01 xlo xhi
0.0000000000000000e+00 2.8127522840204104e+01 ylo yhi
0.0000000000000000e+00 2.7189108292053362e+01 zlo zhi
1.0156089513576553e+01 1.0179951762610116e+01 7.1185000331930404e+00 xy xz yz

Masses

1 16
2 2

Atoms # atomic

2623 1 1.2272402420075164e+01 5.1044728127099770e+00 1.5708524208615199e+01 0 0 0
1687 1 1.4271674505250772e+01 3.0685548595415842e+01 1.3156178295793868e+01 0 -1 0
1790 2 2.3649201906783624e+01 2.2040869412700964e+01 2.1368987082528449e+01 0 -1 0
414 2 2.5148259888902814e+01 2.9663837271560404e+01 2.1765919891744097e+01 0 -1 0
2509 1 9.0642409497942822e+00 8.4657931993862192e+00 1.0750302942242346e+01 0 1 0
2498 2 2.3499770964699323e+01 1.9450113458270124e+01 1.5301745912732574e+01 0 0 0
987 2 1.9662218848452682e+01 5.5310000474197363e+00 1.9092022583622562e+01 0 0 0
1493 2 2.2731160031584956e+01 3.2717561578714722e+01 2.3246593788386434e+01 0 0 -1
2681 2 1.1714596094926691e+01 2.7168192363866421e+01 9.2118807966424743e-01 0 0 2
123 2 8.3122124227955503e+00 1.6227488182530141e+01 1.5377305772445959e+01 0 -1 0
833 2 1.1450683740449545e+01 7.2383944186347611e+00 3.1099223043050732e+00 0 0 0
946 1 1.7412302649618720e+01 1.1745318159451489e+01 1.1026943895071083e+01 0 0 0
1779 2 2.4792443810187443e+01 3.2050062151794997e+01 1.7282163730927600e+01 0 -1 -1
842 2 1.2998329182619049e+01 2.0149187601465073e+01 2.3440922537682507e+01 0 1 -1
336 2 2.4297714595323704e+01 2.8294738321733359e+01 2.0460775338167217e+01 0 0 0
722 2 1.4150000776546825e+01 1.6234045760829815e+01 5.5605342846694414e+00 0 0 0
2693 2 1.2044745862570849e+00 1.5635946618620404e+00 2.6905698780843815e-02 0 1 1
810 2 1.6779094924858896e+01 2.8054321991271507e+01 2.3432579360530195e+00 0 -1 0
1919 2 1.4571124354318492e+01 2.1625916785582348e+01 1.2982708423105192e+01 0 0 1
3051 2 1.1984923844092615e+01 1.0747792523404591e+01 2.0406405148711769e+01 0 1 0
2464 1 1.6046247374411283e+01 1.7977245311066717e+01 2.1242147979780874e+01 0 1 -1
1767 2 2.0509903777208976e+01 2.0677047604439760e+01 1.1402367304409562e+01 0 -1 0
1591 1 1.4280864770597859e+01 1.8752635668758952e+01 1.6839495664381861e+01 0 0 0
1734 2 2.0212120770319608e+01 1.9455557300785713e+01 1.9171792608540741e+01 0 0 -1
1014 2 1.2247936777365208e+01 3.0737834252431138e+00 2.6702529022360944e+00 0 -1 1
2543 2 1.4178091030729693e+01 6.5620675505479031e+00 1.1135544630889363e+01 0 1 0
1582 1 1.3239703507222671e+01 1.1692535713354413e+01 1.6293193937910363e+01 0 0 1
1305 2 2.2705509794564641e+01 2.3204325083386397e+01 6.3761860887551398e+00 0 0 0
321 2 1.6044324201771822e+01 2.3596781240478631e+01 2.4377513935122160e+01 0 0 -1
325 1 1.1550331302438810e+01 2.0859230180410904e+01 1.1619704717560404e+01 0 0 -1
198 2 6.5741605230521820e+00 9.7938431533794947e+00 4.3112550818537683e+00 0 -1 1
1692 2 8.0863718104163063e+00 8.7534424188061823e+00 1.3546142375678690e+01 0 0 1
939 2 1.6730631542182831e+01 7.5745877549922174e+00 1.8748766304354199e+01 0 2 -1
2390 2 2.9598398475491097e+00 8.9280414690998331e+00 3.7991802724976367e+00 0 0 0
1973 2 1.6571686417729858e+01 1.7224932408249238e+01 1.8234602905679953e+01 0 0 0
1744 1 1.1250292648003814e+01 1.1717181815985995e+01 1.8690270420978404e+01 0 0 0
2780 2 1.4558029370371209e+01 1.2458648354045868e+01 1.0042785205891171e+01 0 1 0
2522 2 7.7559357630093260e+00 2.9465687654127324e+00 8.8866578360209605e+00 0 1 0
1762 1 1.2492322054291575e+01 1.5765594880156641e+01 7.7247910170544962e+00 0 0 0
4267 1 1.9908273633917680e+01 2.6812721978413382e+01 9.6556264806778227e+00 1 0 0
2537 2 1.3406768037129941e+01 1.5484754132642720e+01 2.0552733141182625e+01 0 1 1
976 1 1.8473989169750684e+01 2.5509922028040954e+01 1.1485210841490938e+01 0 -1 1
5035 1 1.4850477715116579e+01 1.3867247147833996e+01 1.3281996867939611e+01 1 0 0
966 2 1.2426984244522084e+01 6.5212518932156751e+00 8.5093349697587009e+00 0 0 0
2545 1 8.3894423186499338e+00 8.5487638461134949e+00 2.2087404747456212e+01 0 1 0
220 1 2.8118244163219245e+01 3.4121972564299824e+01 2.4397988267388715e+01 0 -1 -1
2585 2 2.0543001194773908e+01 2.3283594190908612e+01 9.3746088795321523e+00 0 0 1
2611 1 2.6823067433855904e+01 2.8590008502481329e+01 2.4578031890539503e+01 0 0 1
376 1 1.7439043993528415e+01 1.3612995995671540e+01 2.2502574487073161e+01 0 0 0
1017 2 1.5078590379930269e+01 1.5914924812709417e+01 1.5498690775991513e+01 0 0 -1
295 1 7.7891739166671883e+00 4.7668279748005276e+00 8.6007311876537962e+00 0 0 0
1099 1 1.0469463622291219e+01 1.8885106108822750e+01 1.6361656744127885e+01 0 0 -1
1038 2 1.5712326009807342e+01 1.5883690706434972e+01 2.6029249944180123e+01 0 1 -1
2364 2 1.9020418413427425e+01 1.6083062475753866e+01 1.5706557982318579e+01 0 0 0
588 2 1.2245367421786501e+01 1.4673663849753860e+01 2.5633540467303767e+01 0 0 -1
1133 2 1.1806418733609021e+01 7.3125549620428707e+00 1.2049222155766934e+01 0 1 0
383 2 1.7651386763185684e+01 3.3503213418867084e+01 2.1747777509396219e+01 0 0 0
2312 2 2.3296941813962526e+01 2.2922403382824555e+01 1.8816245842616478e+01 0 1 -1
1147 1 6.8307332147323212e+00 1.3228695350025195e+01 1.0895218521660929e-01 0 0 0
3012 2 1.5860201884168522e+01 2.8911678737568973e+01 1.5310396271947472e+01 0 0 1
1763 2 1.3411696197397756e+01 1.5728043019890515e+01 7.4001966062961380e+00 0 0 0
243 2 1.3831859424040751e+01 1.6114926280742885e+01 2.2868093292640427e+01 0 0 -1
1722 2 1.6638351939280252e+01 3.0451979002892287e+01 2.1376696784785320e+01 0 0 0
1852 1 1.8661578820550620e+01 3.1639879953237710e+01 1.5610713142871258e+01 0 -1 0
324 2 8.7793198315029901e+00 1.2297066574206883e+00 2.4660592251518572e+00 0 1 0
1920 2 1.3969314213617622e+01 2.1714579483522694e+01 1.4447393840777611e+01 0 0 1
463 1 1.9774716869800312e+01 3.1996671269071200e+01 1.8697645627308450e+01 0 0 -1
65 2 4.6471712077099152e+00 1.1634432976505021e+01 5.4824513545533904e+00 0 0 0
881 2 8.3640739154531367e+00 6.6590452775471300e+00 1.4815413705308659e+01 0 0 0
1498 1 1.7173983534197255e+01 6.3157680533120599e+00 2.1488378055400077e+01 0 1 0
2514 2 4.7002365435156301e+00 1.5718530891106447e+01 3.2076644576090079e+00 0 0 1
2476 1 1.2513362708894299e+01 2.8820510823224858e+01 1.4262982995573971e+01 0 -1 1
5945 2 1.5863778538329068e+01 1.0177954832129304e+01 2.5147002420385065e+00 1 0 1
347 2 7.4815924819267572e+00 9.7254657779246294e+00 6.2690585684838682e+00 0 0 0
2313 2 2.2224464516296138e+01 2.1997135989605614e+01 1.9391291502188768e+01 0 1 -1
2477 2 1.2910996592623510e+01 2.8435376775254266e+01 1.5181760482636447e+01 0 -1 1
2323 1 1.3828168583468013e+01 1.3532225926401306e+01 2.6778256990298637e+01 0 1 0
2458 1 1.5193410870858067e+01 1.1223792099866467e+01 1.4233869664076966e+01 0 1 0
2442 2 1.7100847916440948e+01 1.3477336759439250e+01 1.8984507263916846e+01 0 1 0
2622 2 2.5627081556649124e+01 2.8431936309683685e+01 1.4381159614018834e+01 0 0 0
2493 2 8.8011666634333174e+00 7.6270799644557599e+00 1.3988680144757417e+00 0 0 1
95 2 2.4836019361886635e+01 1.3975822678382841e+01 2.2917275987730378e+01 0 0 0
2982 2 1.5796647181395219e+01 1.3337312947305834e+01 2.9657916088642744e+00 0 0 1
3662 2 2.3461123864960598e+01 2.6472511005968467e+01 8.5316308119099631e+00 1 -1 0
5966 2 1.0312016033375809e+01 1.4314291899987719e+01 2.2452832739110736e+01 1 0 0
2385 2 5.5283494265012472e+00 1.3731364072645839e+01 5.9690511388409631e+00 0 0 0
138 2 7.0230357664392500e+00 1.6769018719747379e+01 8.1207539455571762e+00 0 -1 0
1629 2 3.5902049108799066e+00 1.3931280437186418e+01 2.8127659974382230e-01 0 0 1
93 2 1.6541963524619050e+01 1.9152005399604754e+01 7.2401325664734424e+00 0 -1 -1
2656 1 2.1268506601301176e+01 1.8078837889904463e+01 2.4093689128009135e+01 0 0 0
517 1 2.4619339782186731e+01 2.5750722681209702e+01 1.5116578835549634e+01 0 0 0
201 2 2.5867351612421203e+01 2.9557626200855289e+01 1.6259550734940820e+01 0 -1 -1
1492 1 2.2686629276419257e+01 3.3360473595618160e+01 2.3974255986644913e+01 0 0 -1
587 2 1.1832556336340332e+01 1.6122225023558538e+01 2.5808548371664067e+01 0 0 -1
2596 1 9.3484407131202456e+00 6.7962675037483233e+00 8.5291670672107802e+00 0 0 1
704 2 1.8714886173697824e+01 1.4705023956043151e+01 2.1861488994462789e+01 0 0 0
2122 1 2.1178491742496650e+01 2.3645752787343497e+01 6.8488633140749693e+00 0 0 1
1081 1 1.8281891793040792e+01 1.1249357986575086e+01 2.8206712731185197e+00 0 0 -1
381 2 2.4837835165261204e+01 1.9643172069205555e+01 2.3934694659472527e+01 0 0 -1
1301 2 1.8490714587476557e+01 2.1505822514904231e+01 6.3452322161833257e+00 0 0 0
2573 2 1.1764925794824810e+01 1.5017755840092107e+01 1.4940930335692121e-01 0 0 1
2618 2 1.5644181595167652e+01 2.7650258287653770e+01 2.2916775585614644e+01 0 1 -1
733 1 1.5618284073913159e+01 8.2527527465479515e+00 2.2266704233994563e+01 0 1 0
2592 2 2.3077599496260884e+01 2.7686842162740660e+01 1.1390290096482442e+01 0 0 1
634 1 8.3104871185733700e+00 5.8554050403149631e+00 4.3134347836626636e+00 0 1 0
358 1 7.0419610894077884e+00 1.1082131128040370e+01 1.5190638399959413e+01 0 1 0
2394 2 1.3804329303974136e+01 2.6541498763167159e+01 1.5628004182944528e+01 0 1 0
553 1 3.6423737859476200e+00 3.5543386901482199e+00 1.0567614966291881e+01 0 1 -1
1578 2 2.9152081571773397e+01 3.1789995540716820e+01 1.8363161679018980e+01 0 -1 1
3010 1 1.6308084369228531e+01 2.8224418238405956e+01 1.4794013954733490e+01 0 0 1
1839 2 9.3563385478325181e+00 1.1587799342221217e+01 1.2322929111799832e+01 0 0 0
489 2 1.1471849504774134e+01 2.0242388606911291e+01 1.0179357672283764e+01 0 -1 0
1871 2 1.6688793321587760e+01 9.3270661575001732e+00 1.9693817534081074e+01 0 0 0
97 1 2.9672112649554883e+01 2.5998111451089287e+01 2.5093400542392509e+01 0 0 -1
2694 2 1.2749696767307892e+01 9.2805927936687844e+00 2.6541458301421727e+01 0 1 0
473 2 2.5566170213972661e+01 1.7886026028259774e+01 2.2536998962916858e+01 0 0 -1
2525 2 2.0767460917171562e+01 7.6006429899157846e+00 2.6510529689422118e+01 0 1 0
1101 2 1.0191374495063725e+01 1.9832086093175395e+01 1.6217154503832347e+01 0 0 -1
389 2 2.1539245104421639e+01 1.5302539440969140e+01 1.7331593836972083e+01 0 0 -1
72 2 1.4934972153508554e+01 2.5573348687703174e+01 1.9253470048049927e+01 0 0 0
5029 1 3.9177736307215572e+00 1.0920333806807491e+01 1.3805832423016053e+00 1 -1 1
125 2 1.6167135094495144e+01 1.1744443043854570e+01 1.7396744526298072e+01 0 0 -1
2241 2 2.2006934805737295e+01 1.3028882375607258e+01 1.2215620109346364e+01 0 1 0
1233 2 2.3806019161696771e+01 1.7374166019975306e+01 2.1105343066991484e+01 0 0 0
2486 2 2.0298576235936327e+01 2.8572063690267512e+01 2.0374731457767503e+01 0 0 0
683 2 1.4986195871229569e+01 2.8659965279039621e+01 1.0181107852236511e+01 0 0 0
197 2 6.1521932209913430e+00 9.0786316534085589e+00 2.9405655922559126e+00 0 -1 1
2426 2 1.1618160693694449e+01 1.9436593844307282e+01 3.5688545396349092e+00 0 -1 1
360 2 7.9158887014473613e+00 1.1414907179007816e+01 1.5472811638426363e+01 0 1 0
830 2 1.3450803975069322e+01 4.7376731016138809e+00 6.4066212723642590e-01 0 0 0
1836 2 1.1890246580611931e+01 1.7107417732132113e+01 1.0603179124040013e+01 0 -1 0
633 2 1.1511758366167939e+01 1.0452664548728938e+01 1.0263356579919899e+01 0 0 0
610 1 1.2197224658770901e+01 1.8958210803327610e+01 5.2416406982827501e+00 0 0 0
3497 2 1.0030623531240513e+01 1.8065281767041498e+01 2.7157819867877503e-01 1 0 0
2635 1 2.1673111059554678e+01 1.9677934024620967e+01 2.2105941830367513e+01 0 0 0
1113 2 1.4323969972857157e+01 2.5080912969646718e+01 1.3635459856973833e+01 0 0 0
4512 2 1.5126283873949486e+01 3.1308547547477499e+01 1.6165993761535749e+01 1 0 0
180 2 2.0061526846537888e+01 3.1014349641345657e+01 1.1071765559898326e+01 0 0 0
2688 2 6.6641699108596590e+00 5.9527447239425069e+00 1.1166083060551756e+01 0 1 0
2333 2 1.0863177975537544e+01 2.5831603954987855e+01 3.8423884876999517e+00 0 -1 1
278 2 1.9607467085592901e+01 2.2415295308289249e+01 3.1986695766470690e+00 0 -1 0
2642 2 1.2419781530897520e+01 2.7403085915713845e+01 4.0034794024274722e+00 0 -1 2
770 2 1.5692975936859444e+01 1.4169519791748654e+01 9.7360281682611660e+00 0 0 -1
3029 2 1.5735495476712792e+01 2.3022149176524970e+01 1.7679576364344680e+01 0 -1 1
1807 1 6.5560209486397909e+00 7.5957225314471319e+00 6.2280183760339023e+00 0 0 1
1423 1 1.3874054274228861e+01 7.6838533576500776e+00 7.4501033077868617e-01 0 1 0
82 1 1.7555728564650011e+01 1.6369499514535853e+01 9.5869733055414965e+00 0 0 -1
2257 1 2.7936068176538171e+01 2.2283197491551658e+01 2.3689130747222229e+01 0 0 0
2602 1 8.1499681087422999e+00 1.5803430568962602e+01 3.3807980311322230e+00 0 1 1
2392 1 1.3537295025862893e+01 2.7190276355869631e+01 1.6365312648707992e+01 0 1 0
2934 2 1.3024193250937996e+01 3.8165538051338608e+00 1.3149823084887959e+01 0 1 0
2483 2 2.0091463470064635e+01 2.0858664080302795e+01 2.1872968811411763e+01 0 0 0
148 1 1.3786226180359773e+01 3.4977528424588393e+00 2.0271559233447674e+00 0 -1 0
2959 1 1.7232259623111965e+01 2.1036779855560525e+01 9.5987324420234170e+00 0 0 0
1717 1 1.5743700556027044e+01 4.7770939814278019e+00 7.8151491163946893e+00 0 0 0
1205 2 4.6664603025753717e+00 7.5132013539791522e+00 5.3553322719055609e+00 0 1 0
2123 2 2.1367134150358755e+01 2.4509581535319477e+01 7.2386076882997505e+00 0 0 1
270 2 1.3737629869712947e+01 2.3784582955899452e+01 1.7366996902044345e+01 0 -1 -1
5198 2 2.2073956662566719e+01 2.4541062420956838e+01 1.3487389759715246e+01 1 -1 0
195 2 1.4446623973557614e+01 2.8513732573437093e+01 7.0397870622418681e+00 0 -1 0
98 2 2.9423076789536260e+01 2.5089952794536288e+01 2.5408501240926249e+01 0 0 -1
860 2 2.1650757260138711e+01 2.8813751688421647e+01 7.0402233375029359e+00 0 0 0
1715 2 8.9132548668673373e+00 2.4464911828442997e+01 8.2869610128566840e-01 0 -1 1
1592 2 1.4945199646116542e+01 1.9347708249135568e+01 1.7301522542512881e+01 0 0 0
1071 2 1.5015481351980281e+01 2.0310573021980652e+01 3.5433869727557452e+00 0 0 0
2020 1 9.5586319872457395e+00 1.2737822050457218e+01 2.2269170191417984e+01 0 0 0
906 2 1.6361345372584903e+01 2.0965923884542100e+01 1.8144007600648532e+01 0 -1 0
4268 2 2.0359367948178075e+01 2.7706618953334910e+01 9.8490383854959056e+00 1 0 0
2511 2 1.0083808525930827e+01 8.6959784470606127e+00 1.0669440398947998e+01 0 1 0
1105 1 1.2481081539215943e+01 1.3970862157624072e+01 1.2233506584547142e+01 0 0 0
1865 2 2.0219592025344134e+01 2.9007364050413980e+01 1.2975573352449679e+01 0 -1 0
88 1 1.5811117172358767e+01 1.7564069130719329e+01 2.6243447929278703e+00 0 -1 -1
2796 2 1.5548786055256720e+01 1.7895142761541010e+01 1.2401704712669558e+01 0 1 0
216 2 1.0925625377572363e+01 9.2769575053173448e+00 1.6937552419956123e+01 0 1 0
2640 2 6.6307145700186751e+00 3.5632034429535206e+00 5.8639742753890918e+00 0 2 0
237 2 2.0073331432087414e+01 2.8854418909676951e+01 2.3228546238320774e+01 0 -1 0
2978 2 1.2791244174731657e+01 1.8386205441601362e+01 2.5325895089481882e+01 0 0 0
2161 1 1.5500438231584123e+01 2.3787072794566658e+01 9.7028334178757056e+00 0 0 0
185 2 2.3177680261260853e+01 2.8488818778167101e+01 1.5970313757015022e+01 0 0 0
276 2 1.4333436936661279e+01 2.6517409195784655e+01 1.0845176991614000e+01 0 0 0
2403 2 2.4809505518823602e+01 1.7574942096340799e+01 1.6419803408074245e+01 0 0 -1
94 1 2.5554947899727143e+01 1.4628016572370512e+01 2.3098824982375817e+01 0 0 0
2259 2 2.8323787563247638e+01 2.3017655910664924e+01 2.3100838412706430e+01 0 0 0
2546 2 9.3158949243094789e+00 8.7600527751581012e+00 2.2356586132917634e+01 0 1 0
908 2 2.0743205649903935e+01 2.6709621326669023e+01 2.4330575541540632e+01 0 0 -1
139 1 2.0082936752028118e+01 1.7389668771710351e+01 1.5067627815343121e+01 0 0 -1
3036 2 2.7397805426512022e+01 1.8366150811558853e+01 2.6033799480170444e+01 0 0 0
179 2 1.9061210041003466e+01 3.0956486025216531e+01 1.2286169208031950e+01 0 0 0
1135 1 2.0523352987959246e+01 2.1241250730068941e+01 1.8990841523210015e+01 0 1 -1
385 1 8.9144087787874717e+00 1.4670547544593868e+01 8.0672607863965551e-01 0 0 0
1043 2 2.0228175336631953e+01 2.0131369265845954e+01 1.3538048778029506e+01 0 1 0
1058 2 -7.4630332071899819e-01 1.0185577649234228e+00 1.9234515118103752e+00 0 1 0
905 2 1.5688790951950182e+01 2.0333278794768233e+01 1.9422273483269826e+01 0 -1 0
4262 2 4.5151247721045209e+00 6.1716332087614738e+00 7.7082003415102642e+00 1 1 0
5804 2 1.7746164030787376e+01 2.7249498421842947e+01 2.2798606431084671e+01 1 0 0
274 1 1.4015143978776784e+01 2.7057098016901772e+01 1.0069776383584001e+01 0 0 0
2422 1 2.2887222735761664e+01 2.9604725582782734e+01 1.8677450699816575e+01 0 0 0
1000 1 1.6214355764267374e+01 1.7640941209240157e+01 4.0669008479419892e-03 0 0 0
1719 2 1.5011913128567983e+01 4.2515630903793076e+00 7.4323945637156843e+00 0 0 0
226 1 1.1697167518930582e+01 4.1508643944416752e+00 5.4793582819892235e+00 0 1 0
1612 1 2.6379795098586115e+01 2.3203461858283472e+01 1.9885639460228010e+01 0 -2 0
1841 2 1.0597129314435357e+01 6.9560837659304910e+00 5.2964000962474707e+00 0 -1 1
1253 2 1.8461359437821940e+01 2.2691956650117472e+01 9.3822395166143089e+00 0 0 0
1833 2 2.2774214777550561e+01 2.9891586986317094e+01 2.5867203119530540e+01 0 -1 -1
1616 2 1.1213944160967781e+01 2.1587175558723612e+01 2.6092649063504592e-01 0 -1 1
885 2 2.4918263102329274e+01 2.6228785038485064e+01 2.1071661362919915e+01 0 0 -1
1693 1 1.3363455202307035e+01 2.2173973255863167e+01 9.4247259846423344e+00 0 -1 0
2637 2 2.2339937712460884e+01 2.0452393409749895e+01 2.2187659356717369e+01 0 0 0
2265 2 1.1818236298604983e+01 1.3152563641647381e+01 8.4697304182636635e-01 0 0 1
936 2 1.8617833732648684e+01 1.0693160601997757e+01 1.0438472622230632e+01 0 1 0
930 2 1.2297239002913745e+01 8.1660669836424518e+00 2.0496503781045408e+01 0 0 0
299 2 4.7284697005806198e+00 5.3711318005718374e+00 2.5243452808342486e+00 0 0 0
2359 1 2.5822192907920368e+01 1.6458267923618671e+01 2.4852249953976202e+01 0 0 0
1015 1 1.5606139962922882e+01 1.6733957512133472e+01 1.5326123517943897e+01 0 0 -1
51 2 1.0364810137941740e+01 1.5182113145792247e+01 1.9302982813536950e+01 0 0 -1
1232 2 2.2457160269576647e+01 1.6924347867874275e+01 2.0351923679616196e+01 0 0 0
904 1 1.5943471058336229e+01 2.0127777539700944e+01 1.8515822684513356e+01 0 -1 0
190 1 1.2824286964061177e+01 1.1756306870586572e+01 2.4534854841162523e-01 0 0 0
1050 2 1.6940732830077685e+01 8.1247531789554639e+00 1.5188423620247971e+01 0 1 -1
2548 1 1.1608283037674660e+01 1.1946233204774742e+01 2.6488047837939874e+01 0 1 0
15 2 5.8013015725143635e-01 3.1349586383818715e+00 2.5511755174478639e+00 0 0 0
304 1 1.3148956751529873e+01 2.2760233468781209e+01 5.1808046468100422e+00 0 0 -1
585 2 1.6645034924319816e+01 1.4371183390875920e+01 2.5059451550463489e+01 0 1 -1
684 2 1.5563728709993647e+01 3.0009456377458640e+01 1.0542947050933874e+01 0 0 0
586 1 1.1541397512533067e+01 1.5300929021495451e+01 2.5356297047287764e+01 0 0 -1
922 1 1.6526634113980156e+00 5.8358366003581104e+00 5.7979858810009954e+00 0 0 0
824 2 2.5685541482940245e+01 3.1415881351287627e+01 2.1111359378488853e+01 0 0 -1
2789 2 1.8477481578820012e+01 2.7237205414816152e+01 2.9307535547286365e+00 0 0 2
2264 2 1.0345258949260995e+01 1.3928583676208639e+01 1.0020250587042456e+00 0 0 1
1641 2 2.8083400261263677e+01 3.0793910032279253e+01 1.2129297570691110e+01 0 0 0
2399 2 1.6174477743277350e+01 2.1792749912518374e+01 2.1467067515084825e+01 0 0 -1
708 2 1.7655987974101425e+01 4.4032175031303318e+00 1.3564786219182688e+01 0 0 0
1106 2 1.3437866782474917e+01 1.3832230373643700e+01 1.2615393284908132e+01 0 0 0
2616 2 1.6016826336754164e+01 2.7382840291264579e+01 2.5761859228487303e+01 0 0 0
1740 2 1.6717758276204815e+01 1.6088595807789620e+01 1.1253741890764433e+01 0 0 0
3011 2 1.6566432096194198e+01 2.7468940410509084e+01 1.5371036901585137e+01 0 0 1
1495 1 8.2493817024982512e+00 1.1670263608784364e+01 1.8956220083962005e+01 0 1 -2
2691 2 1.8637120492170236e+01 2.5566144732004894e+01 6.3462215528326755e+00 0 0 1
2626 1 2.0992370869183588e+01 2.1180695991944237e+01 1.6363848318440422e+01 0 0 0
2912 2 2.0901749772517146e+01 1.9768554321004732e+01 4.6092029618983537e+00 0 0 1
970 1 1.4504699529051347e+01 1.3695848377178748e+01 4.0723992773566540e+00 0 0 0
186 2 2.3700285563232924e+01 2.7024099102209863e+01 1.6131365456406783e+01 0 0 0
1201 1 1.2419162617985947e+01 8.7558806549345256e+00 1.7619082715852112e+01 0 1 -1
1665 2 2.1581184118793942e+01 2.9943584156114611e+01 1.9794909943090072e+01 0 0 0
25 1 6.9533277193116891e+00 2.1902989591688922e+01 1.5651148336148744e+00 0 -1 -1
1112 2 1.3611844939482580e+01 2.4709814855658149e+01 1.4985545551206890e+01 0 0 0
73 1 9.4060172164822333e+00 2.1197668691648008e+01 3.0664367598546205e+00 0 -1 1
2423 2 2.2932285406880101e+01 3.0442329391637983e+01 1.8163283895463920e+01 0 0 0
519 2 2.5196849997992057e+01 2.6447845727224617e+01 1.4583865625379499e+01 0 0 0
914 2 1.9288031585438262e+01 2.5785788160058807e+01 2.3507335121923280e+01 0 0 -1
631 1 1.1581567063407190e+01 9.4977648754517965e+00 1.0164527377738699e+01 0 0 0
41 2 1.4805978669861251e+01 2.4527680698273073e+01 1.1384044445908954e+01 0 -1 0
352 1 1.7007165958145041e+01 2.3847124525280385e+01 7.3058958670797942e+00 0 0 0
3033 2 1.5627762409370831e+01 9.2049939853309599e+00 6.8687375712202750e+00 0 0 1
834 2 1.0949646792694924e+01 7.7472728279269658e+00 1.7714386290578623e+00 0 0 0
5967 2 1.0976702381386465e+01 1.5295962361497674e+01 2.3571257567223121e+01 1 0 0
918 2 1.9433910045717624e+01 3.3300719773262308e+01 2.4558624412269971e+01 0 0 0
681 2 2.0844004389752875e+01 1.6787927033319860e+01 1.3608072310070716e+01 0 -1 0
2620 1 2.5553975135341723e+01 2.7645525108597912e+01 1.3736518050645042e+01 0 0 0
1206 2 3.2683658556020232e+00 6.9303528551085050e+00 5.1458347596538339e+00 0 1 0
859 1 2.1772764391440646e+01 2.9465672341734411e+01 7.8177654768213323e+00 0 0 0
907 1 2.1182340292677935e+01 2.7541230092996493e+01 2.4541934116386575e+01 0 0 -1
1635 2 1.5509050475194741e+01 1.9752566177148129e+01 2.1374409297558266e+01 0 0 0
300 2 4.5097630405835067e+00 6.8093076094098448e+00 3.1713587174432298e+00 0 0 0
1051 1 1.5203698647144776e+01 2.6878056591630674e+01 7.5476164645240571e+00 0 0 0
485 2 1.8183843423590631e+01 1.3717706622561428e+01 1.5656529729276329e+01 0 0 0
1688 2 1.4999365586191118e+01 3.0997222254976133e+01 1.3769734230024776e+01 0 -1 0
2523 2 1.7124705315432688e+01 2.9795303883092160e+01 9.2052016046488490e+00 0 0 0
2484 2 1.9980103224858425e+01 2.1259817525744598e+01 2.3198232130501623e+01 0 0 0
1829 2 2.1560972844215684e+01 3.0564692434756871e+01 1.5904137767179233e+01 0 -1 0
1517 2 2.3493600998465954e+01 2.0553618006120200e+01 8.8182676505087159e+00 0 0 0
2069 2 1.7399882736453542e+01 7.0782182091764092e+00 5.0589645608674187e+00 0 0 1
2443 1 2.3246627296365602e+01 2.6585547992336505e+01 2.5939627713234913e+01 0 1 -1
2237 2 1.0551028397936207e+01 8.7122491178490424e+00 2.4811214375124159e+01 0 0 1
29 2 1.3219483413977024e+01 1.1072652168532642e+01 3.6636656879373137e+00 0 0 1
290 2 1.3801850774490433e+01 1.3455417735181742e+01 1.6129120038436891e+01 0 0 -1
1617 2 1.2496982596210090e+01 2.2135974266959813e+01 9.1453758189161460e-01 0 -1 1
1057 1 8.9059948896851555e+00 2.8386640054139285e+01 1.6122834038836888e+00 0 0 0
1088 2 1.6960775465477422e+01 1.6310907034640330e+01 2.9977322270206392e+00 0 0 0
348 2 8.4808733667627880e+00 1.0634021635006897e+01 5.9191701443408711e+00 0 0 0
1721 2 1.7549743287832413e+01 2.9399525597741128e+01 2.0663959129719981e+01 0 0 0
3496 1 1.0958332857412268e+01 1.7865321423160189e+01 5.4589167473509481e-01 1 0 0
42 2 1.5422908023853722e+01 2.5782641910709117e+01 1.2236302788816786e+01 0 -1 0
1500 2 1.6940483287946378e+01 5.5325422710078369e+00 2.0978878562977517e+01 0 1 0
977 2 1.8712475661079459e+01 2.5126880402417953e+01 1.2335092929959748e+01 0 -1 1
1086 2 2.5855432763974385e+01 1.9849651973149847e+01 2.6610705103249050e+01 0 0 -1
843 2 1.2738749047123036e+01 2.1479478416937059e+01 2.2761025150027510e+01 0 1 -1
1835 2 1.2249765770224190e+01 1.8244321052868926e+01 9.7125522297059010e+00 0 -1 0
2354 2 9.5799159820482132e+00 1.8821177866177234e+01 9.4809585508776095e+00 0 0 1
2961 2 1.6482763200220884e+01 2.1207657493237171e+01 1.0196469633550674e+01 0 0 0
2021 2 9.1090874735267597e+00 1.3053070861799792e+01 2.1449667555137921e+01 0 0 0
2598 2 9.1124680846088761e+00 7.3496921187688482e+00 9.2940693224767124e+00 0 0 1
845 2 1.9209725917532516e+01 3.2661313200475746e+01 2.0651208266237550e+01 0 -1 -1
3661 1 2.4357992870476203e+01 2.6791874899596568e+01 8.2964270631148338e+00 1 -1 0
255 2 1.2552102312097482e+01 5.6749433627798069e+00 1.9893643767774286e+01 0 0 -2
636 2 9.2364943449333694e+00 6.0153286208878178e+00 4.4774682022502379e+00 0 1 0
2669 2 6.4933351404416761e+00 4.8475925387756345e+00 3.8071210034768882e-01 0 1 1
2791 1 2.5615336168957249e+01 2.7757665096539583e+01 2.6953675713927243e+01 0 0 0
521 2 1.6291595530668275e+01 5.9997387871847021e+00 1.4478662022776630e+01 0 0 0
745 1 1.1543183085962442e+01 1.1679201856088202e+01 2.3673322218946634e+01 0 0 -1
1542 2 2.6763527647346621e+01 2.8328107796900639e+01 1.8199652424631157e+01 0 0 0
2985 2 2.3643079037766928e+01 2.5692273459493514e+01 2.2764420594127103e+01 0 0 0
2535 2 2.2594433694381969e+01 1.9369022094925612e+01 2.4661187978223264e+01 0 1 -2
1824 2 1.8392411634832275e+01 2.8972995236598663e+01 1.8058741179176195e+01 0 -1 0
891 2 1.6165782044793948e+00 5.6068178188539104e+00 2.6480537155536301e+00 0 1 -1
1145 2 9.1014347326512954e+00 1.8600143087724970e+01 6.8699641845226980e+00 0 0 2
2524 1 3.1385399188317919e+01 3.4903365980645503e+01 2.6404389562362990e+01 0 0 0
1838 2 1.0910532938384847e+01 1.1830679976971584e+01 1.2824952724506449e+01 0 0 0
927 2 2.2597486070881573e+01 1.7287553082934814e+01 1.6776325794952967e+01 0 0 1
1378 1 1.9026689341497494e+01 2.4074298170820303e+01 1.4020882515705161e+01 0 0 0
775 1 1.0460478658665011e+01 1.7388894234558080e+01 6.5907440397770429e+00 0 0 0
80 2 9.0604239618217441e+00 2.2309913619602245e+01 7.9950949621116267e+00 0 -1 0
2162 2 1.6053161154230086e+01 2.3805291650463023e+01 8.8651870443975085e+00 0 0 0
5972 2 1.0295351029264779e+01 1.4779094972734026e+01 1.5727603023159023e+01 1 1 0
844 1 1.8820557386902941e+01 3.2276128993044445e+01 2.1504622756298556e+01 0 -1 -1
1602 2 7.3561153057698601e+00 1.2731884126542301e+01 6.0522930176771057e+00 0 0 1
1969 1 2.4988745419448094e+01 2.2746129857206725e+01 2.3686265712674544e+01 0 0 -1
413 2 2.4848526565260244e+01 3.0248853201648604e+01 2.3163201629162213e+01 0 -1 0
512 2 9.5082144484317528e+00 2.1377614621679468e+00 4.8083922736956747e-01 0 0 0
971 2 1.3772232437411143e+01 1.4282301101665373e+01 3.8473234452386862e+00 0 0 0
1778 2 2.3368033691782315e+01 3.2373638667184551e+01 1.6800381682240165e+01 0 -1 -1
4511 2 1.6716435473635705e+01 3.1246092758060023e+01 1.6143290254415547e+01 1 0 0
353 2 1.7764605421203260e+01 2.3925049064942389e+01 7.9484460480175372e+00 0 0 0
1521 2 1.3243595310805413e+01 9.0263529336492283e+00 1.0306032420981371e+01 0 0 0
1647 2 1.3020913369885413e+01 2.3868234122501534e+01 2.1681314021628744e+01 0 0 -1
841 1 1.2994075150628809e+01 2.0596390319490098e+01 2.2564314848605722e+01 0 1 -1
239 2 2.7752342035131946e+01 2.8882280666876998e+01 2.2229579672406270e+01 0 0 -1
1870 1 1.5932798309313288e+01 8.6963151725815084e+00 1.9625202230371968e+01 0 0 0
2365 1 2.7445183152997430e+01 2.6862919640628540e+01 1.8318845821140968e+01 0 -1 -1
178 1 9.4067777735267200e+00 3.4553392273722370e+00 1.1706517292877475e+01 0 1 0
92 2 1.6897756011935911e+01 2.0402184944759650e+01 6.4367437578620628e+00 0 -1 -1
298 1 4.8417799229610807e+00 6.3134451759005872e+00 2.3588357688650050e+00 0 0 0
1615 1 1.1852760560526313e+01 2.2342374010071527e+01 2.6807749178617102e-01 0 -1 1
2643 2 1.3011477127403655e+01 2.6263241540467618e+01 3.1433414394945376e+00 0 -1 2
297 2 8.3202429621722107e+00 5.6003023051445346e+00 8.5286908470960245e+00 0 0 0
2163 2 1.4720454946783597e+01 2.3210720446174552e+01 9.4792385707481852e+00 0 0 0
2689 1 1.9351839273266169e+01 2.5469261843879348e+01 5.6683467158718601e+00 0 0 1
2533 1 2.3304718820261431e+01 1.9999760299223688e+01 2.4796331893158637e+01 0 1 -2
2215 1 1.9106532475306079e+01 2.0543467580431816e+01 8.2134403637254577e-02 0 0 1
279 2 1.9853067876535135e+01 2.3912957584176269e+01 3.5531459472248068e+00 0 -1 0
370 1 9.4801866936755452e+00 1.2030960603466021e+01 1.5534681189215130e+01 0 0 0
2617 1 1.5073133690588428e+01 2.7047446698904881e+01 2.2407419231952819e+01 0 1 -1
848 2 2.1037254842314354e+01 1.5315341868233123e+01 2.1168445135275096e+01 0 0 -1
1645 1 1.3198404120143486e+01 2.3351344915721970e+01 2.2467925586361172e+01 0 0 -1
2330 2 2.1551669282090216e+01 2.2307812644501659e+01 1.2360444618031055e+01 0 0 0
1148 2 1.6811991192574517e+01 1.9909843922699302e+01 2.6472465952759972e+01 0 0 -1
484 1 1.8390907399149121e+01 1.2804280224443525e+01 1.5365424042905765e+01 0 0 0
2633 2 7.8037898212050578e+00 1.2276735093143570e+01 3.2958714563638951e+00 0 0 1
5031 2 3.9194884726707233e+00 1.1907139075661261e+01 1.2800461922585495e+00 1 -1 1
1576 1 2.9970866738310953e+01 3.2321006494516446e+01 1.8210716107263142e+01 0 -1 1
879 2 1.9960224859030493e+01 1.6197793857924736e+01 5.8946961573482728e+00 0 -1 0
2813 2 6.8322553859299724e+00 6.5345047278563069e+00 1.7283099256604238e+01 0 1 0
2349 2 1.5468789071376897e+01 2.7475922739116520e+01 1.8785012316108947e+01 0 0 0
2449 1 8.3049686012308861e+00 6.7512026059663688e+00 2.5414708342905229e+01 0 0 0
823 1 2.5887506842717130e+01 3.2245257626447000e+01 2.0670402765503834e+01 0 0 -1
2398 1 1.6940386171164022e+01 2.2459884747371802e+01 2.1512389213981940e+01 0 0 -1
1918 1 1.4417131689294990e+01 2.2248323899838233e+01 1.3730411076272551e+01 0 0 1
1254 2 1.8584241777086934e+01 2.4147658802017318e+01 9.9679180169966415e+00 0 0 0
235 1 1.9580816297541251e+01 2.9676879176763489e+01 2.3272928372814459e+01 0 -1 0
5976 2 2.3412067692569085e+01 2.2449204695431195e+01 1.2485085946809031e+01 1 0 0
2578 1 1.7898981453615562e+01 8.8414434353609455e+00 1.6400591725509084e+01 0 0 0