LAMMPS data file via write_data, version 15 Apr 2020, timestep = 0

6144 atoms
2 atom types

-2.1556533233363311e+00 6.2123942454517987e+01 xlo xhi
0.0000000000000000e+00 2.8127522840204104e+01 ylo yhi
0.0000000000000000e+00 2.7189108292053362e+01 zlo zhi
1.0156089513576553e+01 1.0179951762610116e+01 7.1185000331930404e+00 xy xz yz

Masses

1 16
2 2

Atoms # atomic

1595 2 2.0878301781969782e+01 2.1812232136912435e+01 1.6548562648113947e+01 0 0 0
1604 2 1.6152853254588415e+01 2.0972907256442518e+01 2.4850582648298406e+01 0 0 0
67 1 2.4708800706710097e+01 2.2066128953255685e+01 1.0639130928696863e+01 0 -1 -1
987 2 1.4556524905098957e+01 1.1075969479364232e+01 2.2586767137750510e+01 0 0 0
225 2 4.6171316896039443e+00 3.9721707011546501e+00 5.1608669133196070e+00 0 0 0
52 1 1.5713648937698466e+01 2.7201285493455455e+01 8.0321382802520311e+00 0 -1 0
25 1 7.9828534084102714e+00 1.3957549924587966e+01 1.1245745551256910e+01 0 0 -1
1625 2 1.5824396137757564e+01 1.9186993286217739e+01 1.9512023290667006e+01 0 0 0
2464 1 1.0037723924059572e+01 1.5219398552801657e+01 5.9688660961440956e+00 0 1 0
886 1 1.5988443380627128e+01 2.1960014725438619e+01 1.8084000180976922e+01 0 1 -1
1633 1 1.7704342586963499e+01 1.5992497427113857e+01 2.0150534778548330e+01 0 0 0
849 2 1.2051635922799917e+01 1.5452452678567941e+01 1.5273531286881934e+01 0 0 -1
2443 1 1.3916907561172007e+01 1.3859378045616195e+01 8.7740532052613371e+00 0 1 0
2480 2 2.2244517126634072e+01 9.4961714269005455e+00 2.2428650406414015e+01 0 1 -1
2466 2 9.2398752192909122e+00 1.4841737853762870e+01 6.4107796739874967e+00 0 1 0
1895 2 7.6828891486941160e+00 1.3190889178449931e+01 6.9370325863459419e+00 0 0 1
1670 2 3.4227256332143128e+00 3.9356641998179573e+00 1.3471305582913731e+00 0 0 0
1634 2 1.7718648713747278e+01 1.5343588393795127e+01 2.0875051756720573e+01 0 0 0
1064 2 2.0858774003043163e+01 3.2438093750030646e+01 2.0891886274168606e+01 0 0 -1
1894 1 8.2157048388928811e+00 1.3844537211392359e+01 7.4570903980862129e+00 0 0 1
1740 2 1.7070475996712013e+01 2.2866619542857237e+01 2.7049886764970452e+01 0 0 0
1916 2 1.5686371195568977e+01 2.6533061911389396e+01 1.6275958572324075e+01 0 0 0
611 2 7.3204339193632961e+00 4.0697818235756120e+00 1.3864284048313859e+01 0 1 0
1709 2 1.1391312225713165e+01 6.9878961559437514e+00 1.5941535640987318e+01 0 0 0
487 1 1.5956231471057492e+01 2.6782726190793021e+01 2.5206025602767198e+01 0 0 -1
53 2 1.6168190799141254e+01 2.6601530507949555e+01 7.3790426206657500e+00 0 -1 0
1587 2 1.1545267584289796e+01 1.1446273846600214e+01 1.5127868884446308e+01 0 0 0
1586 2 1.1413212865587113e+01 1.2280041574391202e+01 1.4001164507593590e+01 0 0 0
1675 1 1.1552916858845602e+01 1.7770708993683094e+01 1.7904001335239151e+01 0 0 0
2564 2 8.8202695240957034e+00 1.2774816553916743e+01 1.4037711818121761e+00 0 1 0
416 2 1.3699835858356600e+01 2.0023478128338027e+01 1.6142313399510815e+01 0 0 0
1871 2 1.3998643758451145e+01 2.5604642581876231e+01 2.0399301703683296e+01 0 0 0
610 1 8.0417858363912664e+00 4.6562166302172638e+00 1.4178179786745730e+01 0 1 0
1275 2 4.3054870402607230e+00 8.0433835254846038e+00 9.7286589499133358e-01 0 0 0
632 2 9.2881149678208033e+00 1.4769464717802325e+01 1.5793600265428115e+01 0 0 0
2450 2 1.4628974983900633e+01 2.3354031885574589e+01 2.3669801858827036e+01 0 0 0
1708 1 1.0692621511171627e+01 6.6862484512242064e+00 1.5293739987970028e+01 0 0 0
27 2 8.2301275159799534e+00 1.3233441411000271e+01 1.1948254289313203e+01 0 0 -1
907 1 1.6912114191852069e+01 2.6835139101240092e+01 2.1836434640025526e+01 0 0 -1
99 2 1.1306581462988554e+01 1.1616103209520769e+01 4.6872592424550836e+00 0 0 0
1561 1 1.5575099673786259e+01 1.6102224743289945e+01 1.2023178396654892e+01 0 0 0
1901 2 1.1209419896293763e+01 7.0206034435530213e+00 2.6556993036143201e+01 0 0 0
174 2 2.0522516459578490e+01 6.3641619062778778e+00 1.8258002204463580e+01 0 0 -1
1521 2 1.3109716906232032e+01 1.1571590499155924e+01 5.5378134711201534e+00 0 0 0
924 2 1.7878810882765812e+01 2.1309572299239601e+01 1.0078619976296011e+01 0 0 0
149 2 1.0772166761956832e+01 8.7865878835238647e+00 2.3418674274945019e+01 0 0 -1
224 2 6.1003437880547864e+00 4.0447576702443735e+00 5.5801483299775203e+00 0 0 0
1781 2 7.9700304009670013e+00 1.2107669182507744e+01 1.3862299232909177e+01 0 0 0
1710 2 1.0091116266979427e+01 6.0871020266625830e+00 1.5692853071453570e+01 0 0 0
1689 2 1.1628819641974914e+01 1.0029344912181470e+01 1.3245669918112760e+01 0 0 0
1705 1 1.3878078681568478e+01 1.7729668344683507e+01 1.3333948474229960e+01 0 0 -1
1773 2 2.1139111174778527e+01 3.0537431562087683e+01 2.3979602326450490e+01 0 0 -1
101 2 4.7372786818922563e+00 7.5873657677194650e+00 8.0978004518225575e+00 0 0 0
1570 1 1.3072819248606642e+01 1.1574826557498021e+01 1.6199601294164140e+01 0 0 1
2314 1 2.0095867394275473e+01 2.4473493039178130e+01 4.6937441995001636e+00 0 0 1
1129 1 1.1722733901140325e+01 1.4730943192778760e+01 2.2722484095632122e+01 0 0 -1
2244 2 2.3043524680068558e+01 1.2006094245878213e+01 1.8525061627583653e+01 0 0 0
1635 2 1.8174425368758030e+01 1.6793805451046111e+01 2.0506018294266486e+01 0 0 0
1017 2 6.5457876000051698e+00 2.9965598294467535e+00 8.3924595539798243e+00 0 1 -1
228 2 1.1430862917519484e+01 2.8719620882046588e+01 6.0180778527083971e+00 0 0 0
821 2 6.9883120898445945e+00 1.9044575833048064e+01 5.6657022759824949e-01 0 0 0
1059 2 1.0286552796221713e+01 2.4421631692120332e+01 3.1435897087584913e-01 0 0 0
896 2 2.0019651052407525e+01 2.9480555281853533e+01 2.2560027790607087e+01 0 0 -1
868 1 6.5731544247799008e+00 1.5797866442057053e+01 8.6963974343105352e+00 0 0 0
944 2 4.7545711154821317e+00 1.4638789520823787e+01 1.9867541577722021e+00 0 1 0
1571 2 1.3056518142117898e+01 1.0618888894551951e+01 1.6449309123971357e+01 0 0 1
1659 2 1.7008571393154590e+01 2.8987169351188051e+01 1.7955850168955301e+01 0 -1 0
894 2 1.4397379988254595e+01 1.9913361663496971e+01 8.0365884376587271e+00 0 0 0
1912 1 1.8853638260487379e+01 3.3433338901028925e+01 2.5742739074291592e+01 0 0 0
1274 2 4.5604026354636638e+00 7.6229096335939310e+00 2.4171038290516860e+00 0 0 0
1113 2 1.5929380422622881e+01 2.5001676305025526e+01 1.0054951773954025e+01 0 0 0
1669 1 3.3900069046198658e+00 4.8799352290634284e+00 1.0317542683890455e+00 0 0 0
1063 1 2.0544718285399412e+01 3.1562733010769392e+01 2.0725257904503458e+01 0 0 -1
1671 2 4.0989829383642054e+00 4.9285938545373735e+00 4.0950435756600251e-01 0 0 0
1791 2 3.6448882856678733e+00 8.2314109935608641e+00 4.7882884016037952e+00 0 0 1
465 2 1.8270722205300274e+01 1.1906258792754297e+01 8.9458172308262043e+00 0 1 -1
846 2 1.4659881210160208e+01 1.8319509210865501e+01 2.3318149619077388e+01 0 0 -1
2458 1 2.2836069978677049e+01 1.3983277169700376e+01 2.0958416792686112e+01 0 0 0
1739 2 1.8245573758190709e+01 2.2605966855142768e+01 2.6008772266509144e+01 0 0 0
822 2 1.6040181128112046e+01 2.6700776529411691e+01 2.6734285460332622e+01 0 0 -1
2471 2 2.0236728271716665e+01 9.7424327694656352e+00 1.9690258596324647e+01 0 1 0
1112 2 1.6242512882369233e+01 2.4769105512063348e+01 8.5164804554433200e+00 0 0 0
887 2 1.6187596586906920e+01 2.2926518027070639e+01 1.8204751194678977e+01 0 1 -1
2465 2 1.0115264510567744e+01 1.6201903599680630e+01 6.2918828195948144e+00 0 1 0
54 2 1.4808224387039825e+01 2.6820245253414555e+01 8.1339490171559188e+00 0 -1 0
102 2 4.9157549336017468e+00 9.2309969489226411e+00 8.2368398162620977e+00 0 0 0
223 1 5.2152430468791744e+00 3.9058716768351269e+00 5.9433584665074104e+00 0 0 0
1917 2 1.4352108948293441e+01 2.7261135455314168e+01 1.6676020926570139e+01 0 0 0
353 2 6.1215940259145825e+00 1.1281950895364613e+01 8.8851215210300811e+00 0 0 0
2407 1 8.5295722288464653e+00 1.8479466639055524e+01 1.0158289296253956e+01 0 0 0
1687 1 1.1956334862246523e+01 9.1065945608206196e+00 1.3075391695587136e+01 0 0 0
986 2 1.5290203038399440e+01 1.1657026269714798e+01 2.3818647835593051e+01 0 0 0
1706 2 1.3474802201779148e+01 1.7026263962558666e+01 1.3732899815628420e+01 0 0 -1
1703 2 1.1221676057513266e+01 1.4541644135070388e+01 1.6975501107572949e+01 0 0 0
1374 2 1.6794333567091581e+01 1.8995107854094744e+01 2.2909076928219161e+00 0 0 0
1688 2 1.2759211613025693e+01 9.3974199640621237e+00 1.2645578701672353e+01 0 0 0
1826 2 5.2494416227409131e+00 7.2285197736483404e+00 1.4561826498098311e+01 0 0 0
2145 2 2.0779148478546777e+01 1.7623568270559094e+01 6.4905485105115774e+00 0 0 0
922 1 1.8206811633251085e+01 2.1048383139957309e+01 1.1016437499106919e+01 0 0 0
1610 2 6.6976650232947179e+00 1.6600134085948163e+01 5.6270833121627009e+00 0 -1 0
845 2 1.4130748547300620e+01 1.7029670632664828e+01 2.4135527485523458e+01 0 0 -1
1563 2 1.6529829706103651e+01 1.6150335488086398e+01 1.2202652693149080e+01 0 0 0
908 2 1.5999823575566673e+01 2.6460587596561858e+01 2.1968556432227665e+01 0 0 -1
893 2 1.4454334114442108e+01 1.9931609511255534e+01 9.6233600548464260e+00 0 0 0
28 1 2.1354427019679719e+01 2.4864076325707718e+01 1.4232086877144583e+01 0 0 0
359 2 1.3876905776902667e+01 2.5338343788710432e+01 2.2488823608203511e+01 0 0 0
273 2 1.0880134778169548e+01 1.2812909644195798e+01 2.4944263005678462e+01 0 0 0
300 2 1.0257004217404095e+01 1.8407225250105032e+01 6.6435066390024842e+00 0 0 0
1585 1 1.1065084861730661e+01 1.1410159838194561e+01 1.4290533367151108e+01 0 0 0
2414 2 1.3760796425721304e+01 2.1218425920697996e+01 1.1559117910578522e+01 0 0 1
2436 2 2.2545541692995034e+01 2.2625297642266315e+01 1.4160782774319578e+01 0 0 0
2441 2 1.6364481901162740e+01 2.2465305419818733e+01 9.1200753402667711e+00 0 0 1
847 1 1.2813435181239992e+01 1.5445288400486854e+01 1.4587129308722176e+01 0 0 -1
1562 2 1.5169063790989934e+01 1.6828764264076938e+01 1.2585414226897964e+01 0 0 0
1015 1 7.1272392646451586e+00 3.8146576286745155e+00 8.5532615137302983e+00 0 1 -1
1738 1 1.7600832771315190e+01 2.3274336769709503e+01 2.6351880041191873e+01 0 0 0
949 1 2.3283729772180870e+01 2.5331672404147913e+01 1.8346895866326797e+01 0 -1 0
30 2 2.0456534956092533e+01 2.5221485558394438e+01 1.4030844280525750e+01 0 0 0
2672 2 4.0755093295064313e+00 6.0261492249415696e+00 1.3168850812130273e+01 0 1 0
2625 2 1.0320105670585539e+01 1.7636168171470015e+01 2.1332282628820309e+01 0 0 0
150 2 1.1047713804426557e+01 7.4368093424758568e+00 2.4171335046277967e+01 0 0 -1
2440 1 1.6888189810460808e+01 2.1692175569319161e+01 8.7849272490378727e+00 0 0 1
98 2 1.1224960897280294e+01 1.1554006073270283e+01 6.2995946329902512e+00 0 0 0
2408 2 9.3721728969516658e+00 1.8762635247806809e+01 9.7073312323075616e+00 0 0 0
369 2 1.5267538068760928e+01 1.4565029698995227e+01 1.2445141706643870e+01 0 0 -1
1065 2 2.0478869424824950e+01 3.1088336499374869e+01 2.1563279461691668e+01 0 0 -1
1130 2 1.1323676137230692e+01 1.4079040325361778e+01 2.3334402273325320e+01 0 0 -1
2355 2 1.9038613500614151e+01 2.8565061974160820e+01 1.9016462352911500e+01 0 0 0
962 2 2.2810481364449053e+01 2.9427223644228125e+01 2.4573722286553259e+01 0 0 -1
888 2 1.6685726349418523e+01 2.1593610505274292e+01 1.7489699110492797e+01 0 1 -1
1135 1 1.0936647624929025e+01 1.0511698714513813e+01 2.2760183687588992e+01 0 1 -1
299 2 1.0906279773129674e+01 1.7539565521416204e+01 7.8700704978083724e+00 0 0 0
626 2 9.3155321979682668e+00 7.5322909085631480e+00 1.3470487099943473e+00 0 0 0
873 2 1.1932748619235817e+01 1.2691310105611809e+01 1.7462428162166681e+01 0 0 0
105 2 6.5911443630912530e+00 1.3202661964270458e+01 1.0438705093075740e+01 0 0 0
2311 1 8.9098284299620865e+00 9.2327321764971391e+00 9.7311403193770207e-01 0 1 0
1515 2 1.2603354632465372e+01 1.7565879485319147e+01 6.1209420652547388e+00 0 0 0
1896 2 8.6638768146380940e+00 1.3283304063741483e+01 8.1156005516889849e+00 0 0 1
1546 1 1.3024126076645258e+01 1.6135715120899164e+01 2.4998283440620536e+01 0 1 0
984 2 1.6743547953287720e+01 8.5632078727078422e+00 1.3685639868228670e+01 0 1 -1
588 2 5.9885953914616579e+00 1.1832157905770247e+01 4.5317592743035950e+00 0 0 0
909 2 1.7214148692514833e+01 2.6428059277128902e+01 2.1027879921847788e+01 0 0 -1
2668 1 2.2868460994935855e+01 2.5735259888931793e+01 1.1241548799818119e+01 0 0 0
2354 2 2.0218595544301813e+01 2.8233849934318659e+01 2.0018302764701353e+01 0 0 0
2509 1 1.7745891138067222e+01 7.8572778625643718e+00 5.6606138412176756e+00 0 1 0
1539 2 9.2902442977163116e+00 1.5599067126683533e+01 2.0229185792445879e+01 0 0 0
1273 1 3.8930750585982130e+00 8.0961806604308588e+00 1.8424264809782385e+00 0 0 0
1132 1 8.1284104812668065e+00 6.7889438191458176e+00 8.3362682476929493e+00 0 1 0
1780 1 8.6222121703252483e+00 1.2775688773750620e+01 1.3486108479157666e+01 0 0 0
1001 2 5.3550169177061662e+00 1.4409945390789115e+01 5.8288956085303347e+00 0 0 0
1514 2 1.2303926623794379e+01 1.8135158849447695e+01 4.7026731944895461e+00 0 0 0
945 2 3.7833250699299343e+00 1.3733657945208275e+01 2.7305801875339832e+00 0 1 0
352 1 6.3110369737667895e+00 1.0647281436487262e+01 8.1727254527969055e+00 0 0 0
961 1 2.3006931840600554e+01 2.8474496343104459e+01 2.4791542054698859e+01 0 0 -1
885 2 1.5057187760628484e+01 4.8625983049462986e+00 1.6129962468328252e+01 0 1 -1
829 1 1.0422812600046070e+01 2.4651735080381755e+01 9.4416211988523475e+00 0 0 0
2316 2 2.0240668281938451e+01 2.5294147343344495e+01 5.2394718839738124e+00 0 0 1
975 2 1.2844336179661951e+01 2.2934730517714865e+01 9.0256603174247481e+00 0 0 0
818 2 1.9367994410706565e+01 2.7584440799797029e+01 1.5604297070547549e+01 0 0 -1
775 1 1.1693966460674371e+01 2.3656350646396646e+01 5.6777385173500310e+00 0 0 0
1603 1 1.5588764878105788e+01 2.1228482925695026e+01 2.5627154141532614e+01 0 0 0
1715 2 9.0471881155983489e+00 7.9814443207688051e+00 2.2261069965674078e+01 0 0 0
1605 2 1.5929143080031892e+01 2.0714780672156834e+01 2.6395016619824645e+01 0 0 0
2532 2 1.4623260406378439e+01 2.1878626584827291e+01 1.7007857206796956e+01 0 0 0
1857 2 7.1287951191335397e-01 3.5441727900767122e+00 3.4267157312095615e+00 0 1 0
100 1 4.3489924788668066e+00 8.4361488469679404e+00 8.4390789114043443e+00 0 0 0
1877 2 1.0868911248971564e+01 6.5667172016539439e+00 2.1930788958812840e+01 0 0 0
2669 2 2.2968704566414864e+01 2.5047031398426181e+01 1.1907986104043687e+01 0 0 0
2323 1 7.2466799387281888e+00 2.0411564080094546e+01 2.7252811892822599e+00 0 1 1
20 2 3.1130721226140935e+01 3.3083977595786649e+01 2.3095085536786062e+01 0 -1 -1
1016 2 7.8102511416996467e+00 3.6018214871934973e+00 9.1441302777805653e+00 0 1 -1
2283 2 1.1567580844989740e+01 2.2201002827803414e+01 7.0920191609924803e+00 0 -1 0
995 2 4.0988409101402157e+00 1.1152878026996705e+01 2.9974567759070929e+00 0 1 0
97 1 1.1164816390742967e+01 1.1041599492768059e+01 5.4844035579285002e+00 0 0 0
1115 2 5.2182015507005479e+00 8.8172564163014933e+00 1.2723058652177839e+01 0 1 0
2378 2 7.9452950698501326e+00 1.9765355284075021e+01 7.0201063794809331e+00 0 0 0
1513 1 1.3068515498293729e+01 1.7721139679481755e+01 5.2810825746801600e+00 0 0 0
1078 1 1.7068518719892186e+01 2.5574245817622515e+01 1.6296483302109852e+01 0 0 0
963 2 2.3864100974849137e+01 2.8631134943028869e+01 2.5241410612452682e+01 0 0 -1
1547 2 1.2644821773082771e+01 1.5681902758361076e+01 2.4195090978732424e+01 0 1 0
2353 1 2.0003137119125537e+01 2.8348261133869535e+01 1.9013250969637681e+01 0 0 0
917 2 1.0750822865075415e+01 1.2002098509026947e+01 2.7112732487665028e+01 0 1 -1
417 2 1.4261221406374418e+01 1.8612982204957671e+01 1.6195254476642180e+01 0 0 0
985 1 1.5216299641336747e+01 1.0847869728611098e+01 2.3300057490529714e+01 0 0 0
1884 2 1.2427816427881382e+01 1.8223133321947948e+01 1.2360025749750395e+01 0 0 0
76 1 9.0626317283618132e+00 2.4270817915254000e+01 2.3813547584116916e+00 0 -1 0
298 1 1.0787110827634470e+01 1.7605916777680619e+01 6.8909887182725909e+00 0 0 0
1707 2 1.4013087703419103e+01 1.8374537972141923e+01 1.4023000798249004e+01 0 0 -1
1632 2 1.8983260517249562e+01 4.9922198540795408e+00 1.2854761295441760e+01 0 0 0
612 2 8.6643298189078486e+00 4.0583340836466606e+00 1.4617140812522594e+01 0 1 0
2396 2 2.8109514778173716e+00 2.6912348999353073e+00 1.0165909038062260e+01 0 1 0
1079 2 1.6733808005910692e+01 2.5106166100946119e+01 1.7147645894608665e+01 0 0 0
883 1 1.5752191575600705e+01 5.3290104450192750e+00 1.6604887074944941e+01 0 1 -1
2442 2 1.6279935488333429e+01 2.0896855463418330e+01 8.7153165426724115e+00 0 0 1
1915 1 1.4923107363886061e+01 2.7059917756438370e+01 1.5930158065079318e+01 0 0 0
2451 2 1.3553399717064261e+01 2.3072622288888127e+01 2.2428607166290213e+01 0 0 0
2315 2 2.0179756139328475e+01 2.3682491705061391e+01 5.2817920502454374e+00 0 0 1
959 2 1.2305048036954403e+01 2.4027841808422279e+00 5.5836052145845363e+00 0 1 0
983 2 1.8007791848558121e+01 8.1920346697993409e+00 1.4634932081140194e+01 0 1 -1
923 2 1.8256946525766327e+01 2.1881335010300578e+01 1.1524717904494237e+01 0 0 0
2572 1 1.2582106874652201e+01 2.4061072618721212e+01 1.6236836993058002e+01 0 0 0
354 2 7.1886325094312422e+00 1.0343135553665789e+01 8.5188716181807020e+00 0 0 0
156 2 1.8012558306618565e+01 2.8428142783950559e+01 6.0097547943453726e+00 0 -1 0
1589 2 1.1034845308379046e+01 2.0376915898822137e+01 4.1181113842439308e+00 0 -1 1
1616 2 1.7443561225445499e+01 2.4437703295756396e+01 1.5062163218611637e+01 0 -1 0
1050 2 1.1530039231999055e+01 1.8839518256893498e+01 3.0504900424542591e+00 0 0 0
1081 1 2.0939941412696800e+01 1.3705227831582304e+01 1.8765142855528143e+01 0 0 -1
1594 1 2.0497826949767681e+01 2.2703002054069170e+01 1.6421071773571480e+01 0 0 0
2445 2 1.4074215829363919e+01 1.4820129726374171e+01 9.0976575706447811e+00 0 1 0
1588 1 1.1000568474942543e+01 2.1403192927909885e+01 4.1136101891732082e+00 0 -1 1
1150 1 1.7782889010326304e+01 2.1170904511779504e+01 1.6366994705305231e+01 0 0 0
1841 2 1.0456650160314766e+01 3.8612387502941163e+00 7.4938461289469427e-01 0 0 1
313 1 1.1828365129335129e+01 1.3482692496408387e+01 1.2833946564788359e+01 0 0 -1
1118 2 2.3211079271620648e+01 2.7996224432693008e+01 2.3199764229191111e+01 0 0 -1
1874 2 1.1130871635168196e+01 2.4509984728194414e+01 1.3410132860238162e+01 0 -1 0
2613 2 2.0172809611719302e+01 2.9232863480862036e+01 9.0197378672713260e+00 0 0 1
1133 2 8.0172527521610046e+00 5.8356113386037851e+00 8.5039470435834819e+00 0 1 0
1762 1 8.7895246568659395e+00 1.0158532603361767e+01 9.4357846659708766e+00 0 0 0
2556 2 1.8913628901463547e+01 1.6951567432071169e+01 2.3217541065430744e+01 0 0 0
2548 1 1.8162443596342335e+01 1.1764570148580887e+01 2.5413991489414293e+01 0 1 0
1870 1 1.3897051797215944e+01 2.5438846573111594e+01 1.9403715872006590e+01 0 0 0
1662 2 5.8420709123003576e+00 1.6560869878507987e+01 2.0714809892259733e+00 0 -1 1
1136 2 1.0170881959690695e+01 1.0469209201709774e+01 2.2092548673809773e+01 0 1 -1
1736 2 1.6791574353224252e+01 1.2180282915171432e+01 6.7129810225618858e+00 0 0 0
376 1 9.1007733402726796e+00 4.6705302624378113e+00 1.6910795589201438e+01 0 0 0
1109 2 1.4138191987891346e+01 1.0632520838382307e+01 1.1170075103579528e+01 0 0 0
372 2 1.3182347135506074e+01 1.2007526963803567e+01 2.1193527157361039e+01 0 0 0
333 2 1.6566908248024305e+01 3.1026946630910214e+01 1.6261555930034493e+01 0 0 0
2555 2 1.9042135429685878e+01 1.5574272277800787e+01 2.2521731415353887e+01 0 0 0
374 2 4.8541949108848650e+00 9.9579405192370434e+00 5.4903311321613586e+00 0 0 0
1801 1 1.5290780283754767e+01 2.2377379850553453e+01 1.3873076027300487e+01 0 -1 0
442 1 7.4947542395890867e+00 4.9488254502802604e+00 1.6420417373685277e+00 0 0 0
2601 2 2.0736191215898593e+01 2.2587031644077683e+01 7.0882422587120049e+00 0 0 0
2600 2 1.9580688604929691e+01 2.2029461482413975e+01 6.1922547276193693e+00 0 0 0
188 2 9.7545432545567454e+00 2.0132419511769218e+01 7.7191205179973261e+00 0 0 0
2444 2 1.4679883010702355e+01 1.3637025895932556e+01 8.2255303600879000e+00 0 1 0
747 2 1.5918978707678235e+01 6.7888630017682576e+00 2.4523848505771193e+00 0 0 0
2642 2 5.4102363418564110e+00 2.3882731064578993e+00 6.8378111647771975e+00 0 0 1
2307 2 8.7171873516980316e+00 9.3837785500938808e-01 3.1807935333898336e+00 0 0 0
1119 2 2.3543217593681330e+01 2.6891741760317245e+01 2.2127104434650519e+01 0 0 -1
1088 2 8.9224219105842550e+00 2.2563819426521267e+01 9.6346288198711638e-01 0 0 0
2391 2 1.0324931155877962e+01 2.7334103492672305e+01 7.7801127452076360e+00 0 0 0
269 2 1.7731152636337423e+01 2.0510584742248724e+01 2.0749466973934943e+01 0 -1 -1
2306 2 1.8943159031542308e+01 2.7622294478942639e+01 2.5465454708792774e+00 0 -1 0
198 2 1.6682428439167012e+01 2.7976227324065764e+01 9.4047376100079738e+00 0 -1 0
1089 2 1.8577416975212898e+01 2.8936174761522196e+01 2.6920679214197047e+01 0 0 -1
2468 2 1.2377455670093390e+01 1.2723628099934514e+01 3.0226993172001397e+00 0 0 1
1568 2 1.6725190279055660e+01 3.3889998228727279e+01 2.2505253179965205e+01 0 0 0
776 2 1.1512430858666091e+01 2.2922141289037391e+01 5.0508558425463965e+00 0 0 0
755 2 1.3204934163368574e+01 2.3377696217005983e+01 1.1200574646806809e+01 0 0 0
1658 2 1.6918635117780489e+01 2.9689256791208930e+01 1.9313836343464803e+01 0 -1 0
2257 1 2.8142080983783799e+01 2.1568931293890394e+01 2.5472010614441203e+01 0 0 0
2604 2 1.4804134650802858e+01 1.6297768133511298e+01 2.2208824192724986e+01 0 1 0
636 2 2.8216704401118911e+01 2.5667171458743397e+01 1.9164764501223086e+01 0 0 0
1134 2 7.5690671299514829e+00 7.1060013790368126e+00 9.0272009638444484e+00 0 1 0
2644 1 1.3209687173299374e+01 9.3170104855385354e+00 1.9477156181860522e+01 0 0 0
3026 2 2.8684979326487412e+01 3.2008081902235517e+01 1.7907912427314962e+01 0 0 0
332 2 1.7643677468437367e+01 3.1962940269845554e+01 1.6845183389553942e+01 0 0 0
1735 1 1.5981654182684174e+01 1.2609697979013649e+01 6.9875205519077470e+00 0 0 0
2646 2 1.2253045795172760e+01 9.1491080918660384e+00 1.9087985747721088e+01 0 0 0
2413 1 1.4005194929734401e+01 2.0297706448118188e+01 1.1272875248557085e+01 0 0 1
895 1 1.9920333935675892e+01 3.0205811481085838e+01 2.3211725697257307e+01 0 0 -1
2603 2 1.3963582936650994e+01 1.6127053920404343e+01 2.0906530911444605e+01 0 1 0
2554 1 1.9567220434636869e+01 1.6289311801986059e+01 2.2877671003322291e+01 0 0 0
2629 1 6.7187965098890157e+00 7.1841793601186446e+00 1.0728394027090026e+01 0 0 0
2305 1 1.8537328216051499e+01 2.8135539100856629e+01 3.3331291816649102e+00 0 -1 0
443 2 6.8372328752019484e+00 5.0135784642370789e+00 8.8079803369183740e-01 0 0 0
1716 2 7.6810718106969169e+00 7.4096628845537493e+00 2.1715046567887281e+01 0 0 0
1880 2 8.2110588282629102e+00 1.1350820773584065e+01 2.1156301219708510e+01 0 0 0
994 1 3.3276075677102330e+00 1.0596229084939967e+01 2.7756757656363602e+00 0 1 0
2641 1 1.5542947369040007e+01 3.0068786543588747e+01 7.7051245628752856e+00 0 -1 1
897 2 1.9331244302132582e+01 2.9953601436003197e+01 2.3944014183311072e+01 0 0 -1
318 2 2.1942369215844469e+01 2.8231180964469011e+01 2.6238567711951870e+01 0 -1 -1
725 2 5.0091428008760106e+00 1.9776011968458254e+00 1.7534849963850234e+00 0 0 1
2456 2 1.3306052343383026e+01 2.0885586258192181e+01 6.7750596179899221e+00 0 0 1
1672 1 1.3376685482145678e+01 2.5748669249557032e+01 7.6213839091081717e+00 0 -1 0
1617 2 1.6704796349188523e+01 2.3197938763414349e+01 1.4300197985448278e+01 0 -1 0
1117 1 2.3280938818039758e+01 2.7810825464480384e+01 2.2222329013034290e+01 0 0 -1
1737 2 1.5207916994572990e+01 1.2155105320699306e+01 6.5437812135416635e+00 0 0 0
1909 1 1.6755498687097926e+01 1.1496764067697203e+01 1.9380639976084314e+01 0 0 0
1682 2 4.7039650781773990e+00 5.4099193959730512e+00 8.7297764613291857e+00 0 0 0
368 2 1.4759254192949026e+01 1.3064482152200393e+01 1.2120696444902247e+01 0 0 -1
197 2 1.8078621473068672e+01 2.8418361330286352e+01 9.8832546176476903e+00 0 -1 0
759 2 2.4200426556274319e+01 2.7254138021597658e+01 6.9900805362936147e+00 0 -1 0
2576 2 1.3998457259174849e+01 3.0021823246308173e+01 8.2428580006482477e+00 0 0 0
444 2 8.2558782776889856e+00 5.5638766416341348e+00 1.4855187587071783e+00 0 0 0
2513 2 1.7137074498333902e+01 2.4755388907645340e+01 1.9038731339575197e+01 0 0 0
1226 2 2.2281689093445348e+01 1.9780662025185467e+01 4.9590918737892036e+00 0 0 0
1681 1 4.6664675525401007e+00 5.9444173160024008e+00 7.8227068188609197e+00 0 0 0
2467 1 1.1441684856403347e+01 1.2536158672533531e+01 3.1783281069181348e+00 0 0 1
1596 2 2.0537407508788284e+01 2.2899762716671560e+01 1.5476665964816656e+01 0 0 0
1621 1 9.6022300488952652e+00 1.0910880758203977e+01 1.8474262219272315e+01 0 0 -1
1622 2 1.0110482013240233e+01 1.1748915651107156e+01 1.8578308578219673e+01 0 0 -1
1151 2 1.7902424181231225e+01 2.1953426363124322e+01 1.5852766953705384e+01 0 0 0
1691 2 1.5407509208423178e+01 2.2981907450844755e+01 2.5539717363461021e+00 0 -1 1
316 1 2.1400509831693938e+01 2.8012751455565510e+01 2.7030091619041681e+01 0 -1 -1
2612 2 1.9888045084434282e+01 2.7921401554233338e+01 9.7468951127943608e+00 0 0 1
2491 1 8.6608155170296435e+00 1.8187243972095906e+01 3.1400925220427141e+00 0 0 1
163 1 2.0201494481616386e+01 1.4787281620579408e+01 4.1491375465682410e+00 0 0 0
1110 2 1.4805548674680349e+01 9.3393717859944889e+00 1.1679402514375866e+01 0 0 0
1876 1 1.1401202802829939e+01 5.8518422061851991e+00 2.1591901584729868e+01 0 0 0
2563 1 8.0818060087471881e+00 1.2510775697294521e+01 1.9577895858478342e+00 0 1 0
2630 2 6.1056229649142182e+00 6.4606216605186297e+00 1.0538533417777391e+01 0 0 0
216 2 1.9942945135354080e+01 2.4263652612897662e+01 8.6789529407933355e+00 0 0 0
819 2 1.9882468170648458e+01 2.8549383241528783e+01 1.4444652394429140e+01 0 0 -1
373 1 5.2966564198984711e+00 9.3350295736635811e+00 4.9169477025151203e+00 0 0 0
1049 2 1.0304991367425654e+01 1.8401160934020190e+01 3.9355199563439904e+00 0 0 0
2512 1 1.6274060687516950e+01 2.4478465962183542e+01 1.8573824361342623e+01 0 0 0
214 1 1.9426065521311756e+01 2.5134028470859512e+01 8.7436589734408106e+00 0 0 0
1900 1 2.1382886721658611e+01 3.4497844341113456e+01 2.5829594604753499e+01 0 -1 0
375 2 5.7792556502324013e+00 8.7868545594961081e+00 5.5348987076395204e+00 0 0 0
1668 2 5.0998717876064514e+00 1.2873095858550290e+01 1.0638118864465298e+00 0 0 1
2439 2 8.5878067160593137e+00 9.7126765298718372e+00 4.3748113279091001e+00 0 1 0
189 2 9.7106274316727372e+00 2.1060973333011397e+01 8.9470691175292458e+00 0 0 0
844 1 1.4819921307852319e+01 1.7336431959614195e+01 2.3492839167523684e+01 0 0 -1
187 1 1.0125569970175281e+01 2.0187385412484449e+01 8.6201906628711491e+00 0 0 0
206 2 2.2229261770552860e+01 1.1567556023081099e+01 2.2729351178901499e+01 0 0 -1
314 2 1.1311985702634516e+01 1.3973791242743818e+01 1.2153933023993986e+01 0 0 -1
2602 1 1.4715083903621363e+01 1.5757815774513547e+01 2.1396521228437823e+01 0 1 0
1548 2 1.2302978030402155e+01 1.6506149562471329e+01 2.5511715856589241e+01 0 1 0
1560 2 1.4316151440517491e+01 2.5619085522945554e+01 6.8972156631913606e-01 0 0 1
631 1 8.3188406732575544e+00 1.4638299000373603e+01 1.5543191030677191e+01 0 0 0
70 1 8.9035565466900763e+00 1.9893183091352221e+01 1.2292567647747417e+01 0 0 0
2469 2 1.1014970991838251e+01 1.3475638808345625e+01 3.2500024475096132e+00 0 0 1
1657 1 1.6966331325746296e+01 2.8786224057970614e+01 1.8909207772074470e+01 0 -1 0
385 1 1.0320456279868399e+01 1.2859330649661409e+01 1.2630508196179666e-01 0 0 0
154 1 1.8702782623713890e+01 2.9082693387334206e+01 6.2676226529289938e+00 0 -1 0
29 2 2.1817694274014020e+01 2.5567078174226374e+01 1.4743119729394255e+01 0 0 0
1152 2 1.7519574918781203e+01 2.0472993194254531e+01 1.5775019912978685e+01 0 0 0
625 1 9.6712332025621155e+00 6.5317960521096783e+00 1.5149168378985329e+00 0 0 0
1878 2 1.2125419916209632e+01 6.1919793511854575e+00 2.1028114415283408e+01 0 0 0
2437 1 9.1739305395579791e+00 9.1642401854827842e+00 5.0187681983643522e+00 0 1 0
1615 1 1.7604133673698058e+01 2.3530003958700906e+01 1.4689325705743048e+01 0 -1 0
920 2 2.1487114058372942e+01 2.2380353465342701e+01 2.0573153892915318e+01 0 0 -1
284 2 1.5434624593544395e+01 5.3540622582863220e+00 1.8200387667758200e+01 0 1 -1
871 1 1.1282092081727614e+01 1.2995979560187227e+01 1.8062722045152160e+01 0 0 0
820 1 6.0465466790663722e+00 1.9459183546483636e+01 5.3088033138024593e-01 0 0 0
2670 2 2.3487240418971677e+01 2.6444490628000253e+01 1.1523640952382136e+01 0 0 0
117 2 1.0535861879109978e+01 1.6476517501734474e+01 2.3922701279788672e-01 0 0 0
32 2 1.0056835998285539e+01 2.4169326239592131e+01 6.2288867165526920e+00 0 0 0
2492 2 8.2330387077910121e+00 1.7735531464572993e+01 3.9464038039924900e+00 0 0 1
1085 2 1.7391463611252014e+01 1.6363242838865197e+01 5.4090506851231055e+00 0 0 0
848 2 1.3549193821267119e+01 1.4948811840373793e+01 1.5042171608344479e+01 0 0 -1
1014 2 2.3086688452855963e+01 9.5225371850175549e+00 2.5843127633335719e+01 0 0 0
1084 1 1.8076986989600623e+01 1.6898355361100663e+01 5.0559421723229319e+00 0 0 0
1910 2 1.7169499679202719e+01 1.0897770430936824e+01 2.0024769296778160e+01 0 0 0
1087 1 8.1322472642577424e+00 2.2098389307370141e+01 6.2801525981924722e-01 0 0 0
1300 1 2.3363763588657065e+01 1.7548546345377858e+01 1.2108709387575876e+01 0 0 0
196 1 1.7188929992678482e+01 2.8125511201401501e+01 1.0227114005589460e+01 0 -1 0
777 2 1.2495809879382778e+01 2.4088278995598952e+01 5.3903056396056979e+00 0 0 0
308 2 2.4865482945464986e+01 3.2367207643234380e+01 2.1753925629650681e+01 0 0 -1
309 2 2.5016856044156530e+01 3.0959823282457624e+01 2.0986299088661539e+01 0 0 -1
3003 2 6.2410630190910457e+00 6.5291037036201134e+00 4.2081489479008827e+00 0 1 0
1809 2 1.6878737471249472e+01 1.8236333094654150e+01 1.5302849926825695e+01 0 0 0
880 1 1.4573139532561065e+01 1.9954372428633476e+01 2.2312378094534719e+01 0 0 0
315 2 1.2391136352849733e+01 1.4226711958006344e+01 1.3269516607989488e+01 0 0 -1
283 1 1.5367840581341678e+01 5.6544483249270971e+00 1.9147385891657226e+01 0 1 -1
386 2 1.1084972700436914e+01 1.3447247367197606e+01 1.4231610107428719e-01 0 0 0
2590 1 3.1455588310616669e+01 3.1389828368965311e+01 2.3091131239018516e+01 0 0 0
726 2 3.4881477441791198e+00 1.8036041316893541e+00 1.4036084736180101e+00 0 0 1
1545 2 7.5653130926265284e+00 1.0422720943688807e+01 1.4154365866400061e+01 0 0 0