LAMMPS data file via write_data, version 15 Apr 2020, timestep = 500000

3072 atoms
2 atom types

1.0551636369423711e-01 3.0034677636303922e+01 xlo xhi
1.0009931965956653e-01 2.8240366680336408e+01 ylo yhi
1.2070684807819099e-01 2.7290738151915811e+01 zlo zhi
1.0191550022955420e+01 1.0213795222431214e+01 7.1251860938982121e+00 xy xz yz

Masses

1 16
2 2

Atoms # atomic

1 1 7.4527157440453173e+00 5.2643989232945536e+00 3.9877771022058783e+00 0 0 0
2 2 6.6194045162808992e+00 4.8708815887232406e+00 3.7287971746056785e+00 0 0 0
3 2 7.2475564253711937e+00 6.1510791978434227e+00 4.3716647559968722e+00 0 0 0
4 1 1.0279756090470359e+01 6.8187026795145798e+00 1.0599708648832646e+01 0 0 0
5 2 1.0668579305908199e+01 6.4148983299027407e+00 1.1418385847549480e+01 0 0 0
6 2 1.0020897753311017e+01 7.7210096582013712e+00 1.0917676718642500e+01 0 0 0
7 1 9.9288183777859782e+00 1.2263627212998001e+01 4.0300884010316462e+00 0 0 0
8 2 1.0357648006526670e+01 1.1814732038704834e+01 4.7552306114344054e+00 0 0 0
9 2 9.5454675490730327e+00 1.3060641282340494e+01 4.4520593967962077e+00 0 0 0
10 1 1.2709823004076224e+01 1.4081761197595563e+01 1.0771539739756342e+01 0 0 0
11 2 1.3509595737626276e+01 1.4337038499425166e+01 1.0255189575737027e+01 0 0 0
12 2 1.2238197798096300e+01 1.3495573853041588e+01 1.0191111179321428e+01 0 0 0
13 1 1.4856403938935971e+01 5.3715597775197876e+00 4.0072128633949911e+00 0 0 0
14 2 1.5424269487470301e+01 4.9838732113035826e+00 4.7865325728631483e+00 0 0 0
15 2 1.4781534442702858e+01 6.2830374959549307e+00 4.3816188436425163e+00 0 0 0
16 1 1.7455401918032990e+01 7.2731905809322770e+00 1.0869293358235376e+01 0 0 0
17 2 1.7723753206576212e+01 6.6872811435139115e+00 1.1619757077713006e+01 0 0 0
18 2 1.8300494974441179e+01 7.4563032652261541e+00 1.0361835218791699e+01 0 0 0
19 1 1.7536448136877233e+01 1.2326182163520459e+01 3.9548136934875551e+00 0 0 0
20 2 1.8313048855966329e+01 1.2620774284083065e+01 3.4294160333228016e+00 0 0 0
21 2 1.7933703455195307e+01 1.2038944820213263e+01 4.7875279121239043e+00 0 0 0
22 1 2.0165970195084874e+01 1.3991216306103237e+01 1.0949817710597577e+01 0 0 0
23 2 2.1028717701372059e+01 1.4229968231343927e+01 1.0430835183347583e+01 0 0 0
24 2 2.0002232477181551e+01 1.4821544702875098e+01 1.1460343990290758e+01 0 0 0
25 1 1.1818490767595224e+01 7.9470798077718081e+00 6.4313038474492012e+00 0 0 0
26 2 1.1343160991963893e+01 8.7126849245601861e+00 6.0307469399036906e+00 0 0 0
27 2 1.1212495285623040e+01 7.4892004429222290e+00 7.0401158853985990e+00 0 0 0
28 1 1.4152449487750745e+01 1.0325802665823232e+01 1.2885173497784782e+01 0 0 0
29 2 1.4406053474425187e+01 9.7366737877059908e+00 1.2140079093922550e+01 0 0 0
30 2 1.3370929712858699e+01 1.0930153580878640e+01 1.2675233191936906e+01 0 0 0
31 1 1.4192258385490058e+01 1.5104112983999284e+01 6.4981616421196344e+00 0 0 0
32 2 1.4628601417003656e+01 1.4767180839090438e+01 5.6658119242863743e+00 0 0 0
33 2 1.3468342458852272e+01 1.5557401195371710e+01 6.0113154367028399e+00 0 0 0
34 1 1.6767574270923362e+01 1.6629166016488774e+01 1.3222898423872495e+01 0 0 0
35 2 1.6064609135266231e+01 1.7135573033741959e+01 1.2793221047927171e+01 0 0 0
174 2 1.1494588868344373e+01 5.5328844223380944e+00 1.3560046942298804e+01 0 0 0
37 1 1.9049846291649523e+01 8.2207709099932025e+00 6.6186807896661559e+00 0 0 0
38 2 1.8295442865587987e+01 8.6245022866368295e+00 6.1778947318346384e+00 0 0 0
39 2 1.8548275571947038e+01 7.7457412343187642e+00 7.3101238156880708e+00 0 0 0
40 1 2.1780588525336356e+01 1.0070522586669487e+01 1.3214875203545368e+01 0 0 0
1152 2 2.4198754119959204e+01 3.1066400201800427e+01 1.1873767745120913e+01 0 0 0
42 2 2.0952204602712037e+01 1.0539242590498606e+01 1.2833783351231963e+01 0 0 0
43 1 2.1723576928392191e+01 1.5360940595873350e+01 6.5252617977669845e+00 0 0 0
44 2 2.0971510288538248e+01 1.5791997734302125e+01 6.0389094423071574e+00 0 0 0
114 2 1.4593230411959674e+01 5.7069734111399040e+00 1.3241503555092962e+01 0 0 0
1053 2 2.5483759655017124e+01 2.7235355460868337e+01 3.0604679275940092e+00 0 0 0
47 2 2.3478016198011353e+01 1.7265431564778225e+01 1.2753945395771085e+01 0 0 0
897 2 1.0490994852663063e+01 2.4565583088986937e+01 5.0343514156773095e+00 0 0 0
49 1 5.1931985856826302e+00 3.8897755280148791e+00 2.9530307462403993e+00 0 0 0
50 2 5.4512422955300952e+00 2.9723335477788972e+00 2.7425072130262373e+00 0 0 0
51 2 4.5830024842251644e+00 3.7551772662136966e+00 3.6759940313908861e+00 0 0 0
52 1 7.9588960121895411e+00 5.4209931015046706e+00 9.5965393436552215e+00 0 0 0
53 2 7.5516432565705740e+00 5.8708687437212141e+00 8.8506368841626788e+00 0 0 0
54 2 8.8187502977175374e+00 5.7394033394335100e+00 9.8859364500812532e+00 0 0 0
55 1 7.6952510593764991e+00 1.0624398763293652e+01 2.7024942732109807e+00 0 0 0
56 2 7.9550343693769268e+00 9.7955909170456383e+00 2.2852642636398470e+00 0 0 0
57 2 8.4763118432491265e+00 1.1206797699148032e+01 2.8623449220500272e+00 0 0 0
58 1 1.0549194347337199e+01 1.2801484555167193e+01 9.6005592748136426e+00 0 0 0
59 2 9.8822550455494795e+00 1.3144398959637035e+01 8.9280219895977471e+00 0 0 0
60 2 1.0888745438385486e+01 1.1936071124232843e+01 9.3592392735663772e+00 0 0 0
61 1 1.2700890590265285e+01 3.8222676415320209e+00 2.9454000005784655e+00 0 0 0
62 2 1.3359838968621730e+01 4.5120352775603800e+00 3.1620170326097234e+00 0 0 0
63 2 1.2457820200164067e+01 4.1036070093891803e+00 2.0193834362788343e+00 0 0 0
64 1 1.5158121181496357e+01 5.3065265931995054e+00 9.7816225988189984e+00 0 0 0
65 2 1.5799480530831739e+01 5.9050459800693273e+00 1.0264240497857955e+01 0 0 0
66 2 1.5541096949987148e+01 4.5622828980545975e+00 9.3547837045744089e+00 0 0 0
67 1 1.5467912655642326e+01 1.0714518272761101e+01 2.7787795049120176e+00 0 0 0
68 2 1.6166590160551685e+01 1.1141843181179603e+01 3.2635854763914813e+00 0 0 0
69 2 1.5849134767721413e+01 9.8939499257210635e+00 2.4881167345173307e+00 0 0 0
70 1 1.8108542604173820e+01 1.2627025132837691e+01 9.8262538049445087e+00 0 0 0
71 2 1.7630854338263433e+01 1.3106755385730967e+01 9.1078168317705845e+00 0 0 0
72 2 1.8836520975341763e+01 1.3230805522857056e+01 1.0169886188298017e+01 0 0 0
890 2 7.7992564280446928e+00 1.7529388538112144e+01 5.0069733701153947e+00 0 0 0
216 2 2.0999479316086543e+01 1.0735816400250945e+01 9.2427198678447677e+00 0 0 0
282 2 2.0323479174015361e+01 8.0019342837240082e+00 1.0402500043880027e+01 0 0 0
76 1 3.4987575367615866e+00 2.5442149041084412e+00 7.2995224500603149e+00 0 0 0
77 2 1.4480904257787328e+01 3.0176815962594539e+01 7.6138020946738134e+00 0 -1 0
1151 2 2.4730051936549138e+01 3.0204499526240692e+01 1.3060682232696204e+01 0 0 0
79 1 3.5674288498635547e+00 8.0359491977452251e+00 4.4453706801794074e-01 0 0 0
1082 2 8.3060067904862720e+00 1.8015907228480781e+01 5.5171381611992421e-01 0 0 0
81 2 4.1577325622436074e+00 7.3816100767195634e+00 7.4745561167155528e-01 0 0 0
82 1 6.3514722289218195e+00 9.6566220182227696e+00 7.7499155280306358e+00 0 0 0
1150 1 2.4944694854513671e+01 3.0471937233001814e+01 1.2093497423921352e+01 0 0 0
84 2 6.9482325728609293e+00 8.9746673619725925e+00 8.0611365437691767e+00 0 0 0
85 1 8.7032401430058659e+00 7.0738527590624201e-01 8.7050092377286648e-01 0 0 0
978 2 2.3584791540846638e+01 1.7563771095009010e+01 9.0779851892398806e+00 0 0 0
87 2 8.7052387985581667e+00 1.1982942464230928e+00 1.6977945407321584e+00 0 0 0
88 1 1.1041236003662481e+01 2.6442381320833639e+00 7.3838791829418273e+00 0 0 0
89 2 1.1850378310553001e+01 2.1555930023567553e+00 7.7359433149705055e+00 0 0 0
90 2 1.1453002585895257e+01 3.4568443964215252e+00 7.0451285549174267e+00 0 0 0
91 1 1.1021835088258927e+01 7.8836643561298212e+00 6.2416282329447825e-01 0 0 0
952 1 2.3996983517493824e+01 2.0216322570196933e+01 1.2666590320394057e+01 0 0 0
93 2 1.1783716947945983e+01 7.3248350576145267e+00 8.2682800073960916e-01 0 0 0
94 1 1.3847779709830917e+01 9.8274284392292479e+00 7.4644936985399877e+00 0 0 0
95 2 1.4482240606677125e+01 9.2126673714705465e+00 7.8934612128177157e+00 0 0 0
96 2 1.3096812277449134e+01 9.2263415563938445e+00 7.2684687215593655e+00 0 0 0
97 1 5.0560644359200078e+00 4.4071864993581533e+00 5.8246924811657905e+00 0 0 0
98 2 5.3827709539172055e+00 4.8772089790510709e+00 6.5980885345708487e+00 0 0 0
99 2 4.3112015227447014e+00 3.9454093039958962e+00 6.1748390570146441e+00 0 0 0
100 1 7.8492326809475275e+00 6.1899370285727837e+00 1.2852518473973539e+01 0 0 0
101 2 7.4259157847371018e+00 6.6385649486395373e+00 1.2083086457161530e+01 0 0 0
102 2 8.4274992321244486e+00 5.5132117749138665e+00 1.2449978340520515e+01 0 0 0
103 1 8.1151343184585425e+00 1.1396715148230088e+01 6.3619110250608468e+00 0 0 0
104 2 7.5972469732790398e+00 1.1858422461196396e+01 5.7238956879656042e+00 0 0 0
105 2 7.4568169355485718e+00 1.0748250990368280e+01 6.7843737176809062e+00 0 0 0
106 1 1.0238195458748079e+01 1.3282875590629235e+01 1.2796669854336560e+01 0 0 0
808 1 2.6959913517196433e+01 2.4078692670503379e+01 1.3245872102521050e+01 0 0 0
108 2 1.0853503816412998e+01 1.2610694889509773e+01 1.2460803181423058e+01 0 0 0
109 1 1.2636900127604207e+01 4.6597794032404476e+00 6.2971490319407000e+00 0 0 0
110 2 1.3329258457373120e+01 4.0206861954197191e+00 5.9701386874851998e+00 0 0 0
111 2 1.2377902113163980e+01 5.1746983991630824e+00 5.5052090526044424e+00 0 0 0
112 1 1.5279856134581463e+01 6.2265204905923293e+00 1.2706157544036078e+01 0 0 0
798 2 1.8904586868348986e+01 2.3301446900316030e+01 1.3511977455958686e+01 0 0 0
881 2 2.1000662625792053e+01 2.0436919740236011e+01 1.3522409471456655e+01 0 0 0
115 1 1.5521812231790001e+01 1.1589228993981804e+01 5.9073698528040319e+00 0 0 0
116 2 1.4872767521431021e+01 1.1118928605233334e+01 6.4662813335333249e+00 0 0 0
117 2 1.5926093303004940e+01 1.2368987849727313e+01 6.4293179770629134e+00 0 0 0
118 1 1.7962557781441021e+01 1.3370185963053997e+01 1.2869361347675992e+01 0 0 0
1136 2 1.4478543631818081e+01 2.8570664712937596e+01 6.0285918930394482e+00 0 0 0
120 2 1.7577250749133377e+01 1.3998288283000461e+01 1.2191854886096026e+01 0 0 0
207 2 1.5765368353976815e+01 1.9867802349435280e+00 2.2315887247892210e+00 0 0 0
1149 2 2.2480820371611976e+01 2.8207313776603037e+01 5.0718265044880066e+00 0 0 0
123 2 3.3716148948693219e+00 2.1788040373557318e+00 4.7522370758779990e+00 0 0 0
124 1 5.7355614184724946e+00 4.7750779435984470e+00 1.0964126781942952e+01 0 0 0
125 2 6.4848755225825334e+00 5.1425608976805055e+00 1.0446314288248802e+01 0 0 0
126 2 6.1138516579052737e+00 4.0020826664400868e+00 1.1437955955455102e+01 0 0 0
127 1 5.5483203792679987e+00 9.8880314765031780e+00 4.4036119581446753e+00 0 0 0
1135 1 1.4657210355017307e+01 2.8981004450849120e+01 5.1474637619962396e+00 0 0 0
129 2 6.2824580502352134e+00 1.0371410516995365e+01 3.8928090830169739e+00 0 0 0
130 1 8.2908828082836195e+00 1.1556147039621532e+01 1.1108552730511988e+01 0 0 0
1722 2 1.3494217501904215e+01 2.1599384031828870e+00 2.3281329719413890e-01 0 0 1
132 2 8.8808860934982246e+00 1.2198846987666471e+01 1.0754370033311821e+01 0 0 0
133 1 1.0867196974445656e+01 2.8573308926413290e+00 4.5493156471648417e+00 0 0 0
134 2 1.1109880773001660e+01 2.0352020443225980e+00 5.0062412183801017e+00 0 0 0
135 2 1.1665139916675205e+01 3.3282072258049347e+00 4.1753899696342875e+00 0 0 0
136 1 1.2964946326325839e+01 4.5050306192044749e+00 1.0924350673740857e+01 0 0 0
137 2 1.3822825132921571e+01 4.8079016486223614e+00 1.0605448318735240e+01 0 0 0
138 2 1.2763466366551219e+01 5.0313605921625060e+00 1.1739941338002302e+01 0 0 0
139 1 1.3290960948502011e+01 1.0169016267729790e+01 4.5023869030065091e+00 0 0 0
140 2 1.3984879163870072e+01 1.0688039825397494e+01 4.0220200177793188e+00 0 0 0
141 2 1.3614304293121339e+01 9.2842433024401014e+00 4.5789296873868315e+00 0 0 0
142 1 1.5926999128963102e+01 1.1584582458754184e+01 1.1028741775451522e+01 0 0 0
143 2 1.6530873550150119e+01 1.2214039642258244e+01 1.0664537411537575e+01 0 0 0
144 2 1.6466872586119429e+01 1.0874441667295571e+01 1.1476028147209277e+01 0 0 0
145 1 6.7099646427822037e+00 2.0773069805600661e+00 5.2170872528802112e+00 0 0 0
146 2 7.5721360897166026e+00 1.8094764450864931e+00 5.5904001347910715e+00 0 0 0
147 2 6.4866788210867528e+00 2.8529849414877351e+00 5.7760171447999991e+00 0 0 0
148 1 9.3342068235302218e+00 4.0342641534330692e+00 1.2121878335013784e+01 0 0 0
149 2 9.7754502875251621e+00 3.9802381557879931e+00 1.1250563566678389e+01 0 0 0
150 2 1.0027325882712192e+01 3.9561781082774519e+00 1.2781618795984821e+01 0 0 0
151 1 9.5635017882541895e+00 9.1658603596660573e+00 5.2578811625430513e+00 0 0 0
152 2 9.0938881881319951e+00 9.9355631074885586e+00 5.7559182622290921e+00 0 0 0
153 2 9.9001152631289795e+00 9.5671307894317632e+00 4.3699100094299590e+00 0 0 0
154 1 1.1895685543337366e+01 1.1239878096537460e+01 1.1986925583461757e+01 0 0 0
155 2 1.1371172843626555e+01 1.0427563490486824e+01 1.1828029489505383e+01 0 0 0
156 2 1.2349144746715078e+01 1.1390129999909664e+01 1.1137989172294692e+01 0 0 0
157 1 1.4335405059204373e+01 2.5310586736786966e+00 5.0107188035554140e+00 0 0 0
158 2 1.5152036123424901e+01 2.2938785825097789e+00 5.4497330085919300e+00 0 0 0
159 2 1.4656605671258125e+01 2.9469124370074304e+00 4.1363363843454577e+00 0 0 0
160 1 1.6971590636486759e+01 3.9575108262307044e+00 1.2073240686626567e+01 0 0 0
161 2 1.6523549467382750e+01 4.7899741917047827e+00 1.2417325733368084e+01 0 0 0
162 2 1.6177055175523179e+01 3.3801411834755459e+00 1.2036552164357321e+01 0 0 0
163 1 1.6935476450626339e+01 9.3332764095807725e+00 5.1443426876112639e+00 0 0 0
164 2 1.6655043959448349e+01 1.0212281230945965e+01 5.5052302499891033e+00 0 0 0
165 2 1.7338662569212197e+01 9.4696488755631538e+00 4.2796622734292313e+00 0 0 0
166 1 1.9633866927056218e+01 1.1188354096727361e+01 1.2076420636465510e+01 0 0 0
167 2 1.9228932579474304e+01 1.2012189891577716e+01 1.2336765417499004e+01 0 0 0
168 2 1.9999168198645705e+01 1.1432550950752749e+01 1.1141205143887879e+01 0 0 0
169 1 9.2178981815583949e+00 4.4395843788430547e+00 5.9391034904030100e+00 0 0 0
170 2 9.7823612826231514e+00 3.9634040019227244e+00 5.3462197937789755e+00 0 0 0
171 2 8.4484714747332923e+00 4.7001680849179870e+00 5.3727439834306265e+00 0 0 0
172 1 1.1785193795101859e+01 6.0835758911729405e+00 1.2809629462367532e+01 0 0 0
341 2 6.9602333513783297e+00 8.8097491608468843e+00 1.1466178893013483e+01 0 0 0
107 2 1.0768709957026569e+01 1.3958859025561980e+01 1.3274490567188241e+01 0 0 0
175 1 1.1555580282636187e+01 1.1628598580130889e+01 6.4878228972508163e+00 0 0 0
176 2 1.2357030138345261e+01 1.1516326939306348e+01 6.0334027656397593e+00 0 0 0
177 2 1.1696926009127814e+01 1.2525473369169450e+01 6.9151307368670176e+00 0 0 0
178 1 1.4383511564856502e+01 1.3587369659599782e+01 1.2711238056070108e+01 0 0 0
179 2 1.3561077011129823e+01 1.3595304463149406e+01 1.2099568056046525e+01 0 0 0
180 2 1.4967874382266491e+01 1.3012481211516693e+01 1.2222433021378690e+01 0 0 0
181 1 1.6453197680511352e+01 4.5170807555443879e+00 5.8843453133496277e+00 0 0 0
182 2 1.7088440937432829e+01 3.7919949166561029e+00 5.8256471133707874e+00 0 0 0
183 2 1.6744387039896139e+01 5.1352106251223244e+00 6.6404976331850820e+00 0 0 0
184 1 1.8805922458650898e+01 6.0648684347196955e+00 1.2999673816237218e+01 0 0 0
1437 2 1.0389683932562875e+01 2.6632499404560242e+01 1.7299447949295306e+00 1 0 0
860 2 1.5817651493399246e+01 2.1747072338986463e+01 6.7065043775200628e-01 0 0 0
187 1 1.8650864546343293e+01 1.1331450705152637e+01 6.2894235273845034e+00 0 0 0
188 2 1.8542495649727329e+01 1.0633169257982878e+01 6.9846677259851280e+00 0 0 0
189 2 1.9030335775771718e+01 1.2131595135071681e+01 6.7592845895243467e+00 0 0 0
190 1 2.1763872333142743e+01 1.3462111684090173e+01 1.3110404440889827e+01 0 0 0
941 2 1.6422869470398687e+01 1.9779841671719606e+01 1.3319997306400616e+01 0 0 0
192 2 2.1093955453252775e+01 1.3547984636454338e+01 1.2388538328087360e+01 0 0 0
193 1 8.5578916760856298e+00 2.6111997627435217e+00 2.7642548406699357e+00 0 0 0
194 2 7.9087968949118563e+00 2.2860991041645633e+00 3.4493367635426297e+00 0 0 0
195 2 9.3665445169694745e+00 2.5944473120284508e+00 3.2653882864906278e+00 0 0 0
196 1 1.0781599459635441e+01 4.2644244506177182e+00 9.5617536822323768e+00 0 0 0
197 2 1.0701112281701894e+01 3.5702982302240880e+00 8.8524556326298818e+00 0 0 0
198 2 1.1663836089117829e+01 4.1454726053142101e+00 9.9448084989225816e+00 0 0 0
199 1 1.1125200667207960e+01 9.5196687536440692e+00 2.9037158832000798e+00 0 0 0
200 2 1.1295921820336062e+01 8.8834884786457007e+00 2.2098650091310947e+00 0 0 0
201 2 1.1944977401368828e+01 9.7930268283087027e+00 3.3042013062386464e+00 0 0 0
202 1 1.3530783385993097e+01 1.1520550724033733e+01 9.6894580185679686e+00 0 0 0
203 2 1.4493166909363007e+01 1.1442070398178398e+01 9.9636220115233947e+00 0 0 0
204 2 1.3524100296003828e+01 1.0922421205483476e+01 8.8879150843014472e+00 0 0 0
205 1 1.5671761478243141e+01 2.7908812968520524e+00 2.7620003414067513e+00 0 0 0
1106 2 8.6917074862218637e+00 2.0592010754609593e+01 4.0281726145120356e+00 0 0 0
1011 2 1.3269778166603739e+01 1.9267407442552003e+01 6.3553834011424892e-01 0 0 0
208 1 1.8270847211476742e+01 4.5765827571138704e+00 9.6148666423167555e+00 0 0 0
209 2 1.7701206144018535e+01 4.4249453411959916e+00 1.0440139629650767e+01 0 0 0
953 2 2.4483646652015537e+01 2.0918972479460784e+01 1.3218962086908409e+01 0 0 0
211 1 1.8545900248704939e+01 9.5406732878804750e+00 2.9475075319826112e+00 0 0 0
1132 1 1.4695185091265886e+01 2.3590706171204715e+01 1.2137662686054608e+01 0 0 0
213 2 1.8182092338617807e+01 1.0345401470681038e+01 2.4796335927906497e+00 0 0 0
214 1 2.0961227180418959e+01 1.1552934277024903e+01 9.7568944098416175e+00 0 0 0
314 2 3.1843071172838364e+00 3.9799954314917461e+00 5.9278532753708357e-01 0 0 0
847 1 8.7285274537235455e+00 2.1938913333643679e+01 6.5930101064093605e-01 0 0 0
217 1 5.7868944212458064e+00 1.4684061683243961e+00 1.9813403921594368e+00 0 0 0
218 2 4.9945975305441470e+00 9.2212532774356215e-01 1.9425283598018817e+00 0 0 0
219 2 5.9098275156792566e+00 1.5944582967962138e+00 1.0164981638455228e+00 0 0 0
220 1 8.1557593114756504e+00 3.0818220522678517e+00 8.3158752231657758e+00 0 0 0
221 2 8.1364167640999892e+00 3.8625325232188139e+00 8.9020998786806818e+00 0 0 0
222 2 8.6536511875551234e+00 3.3917637674920762e+00 7.5932305460397282e+00 0 0 0
223 1 7.9966431544255503e+00 8.1956916507842053e+00 1.8063294205280938e+00 0 0 0
224 2 8.6009356396774006e+00 7.6029360974981230e+00 2.3020888930743952e+00 0 0 0
225 2 8.5159720981157907e+00 8.3889598516250210e+00 9.6543830926714003e-01 0 0 0
226 1 1.0814716488968772e+01 1.0078872405151726e+01 8.7818559034948951e+00 0 0 0
227 2 1.1335448898038962e+01 9.2852974593832460e+00 9.0039978554776319e+00 0 0 0
228 2 1.0930454939797860e+01 1.0329934322163977e+01 7.8434770477549955e+00 0 0 0
229 1 1.3271223267694843e+01 1.2419486383079799e+00 1.6172738486013583e+00 0 0 0
230 2 1.2341243052759451e+01 8.0295862227464876e-01 1.7148885587063571e+00 0 0 0
231 2 1.3160209030193300e+01 2.0538150089604015e+00 2.1270299519574167e+00 0 0 0
232 1 1.5535475545316652e+01 3.2163590850216184e+00 8.2258698649242028e+00 0 0 0
233 2 1.6131887514589735e+01 2.5779073664529939e+00 8.6044309113541058e+00 0 0 0
234 2 1.5774180451073262e+01 3.6493566604512591e+00 7.3633820439236146e+00 0 0 0
235 1 1.5785539228044128e+01 8.2714843760682335e+00 1.9177735426299447e+00 0 0 0
236 2 1.5933693056219724e+01 8.4267423271637405e+00 9.7985558941997475e-01 0 0 0
237 2 1.6424837538404070e+01 7.5451340395360553e+00 2.0792460585387911e+00 0 0 0
238 1 1.8129350997525236e+01 1.0238635435331856e+01 8.6867115202792444e+00 0 0 0
239 2 1.8832047891375119e+01 9.6480422132992132e+00 8.9430607596390139e+00 0 0 0
240 2 1.8084275240987715e+01 1.1039953720570306e+01 9.2269381539545421e+00 0 0 0
241 1 7.5361759507022663e+00 4.6776541769566657e+00 1.0563592553019077e+00 0 0 0
242 2 7.8237331369915459e+00 4.0333477690913799e+00 1.7816984075614264e+00 0 0 0
243 2 6.7600077948278452e+00 5.1413246485013451e+00 1.3921742247540305e+00 0 0 0
244 1 1.0125689509546278e+01 6.3769757133927358e+00 7.6504209267072829e+00 0 0 0
245 2 1.0478830043966928e+01 5.7062714107036907e+00 8.2455973380569638e+00 0 0 0
246 2 9.7476024036092355e+00 5.8275880024133793e+00 6.9702119234707371e+00 0 0 0
247 1 1.0227857420662792e+01 1.1504822704076881e+01 1.1035099318233377e+00 0 0 0
248 2 9.5776663794289245e+00 1.2221323082209237e+01 1.3439774256447261e+00 0 0 0
249 2 1.0565559429079752e+01 1.1091512650522869e+01 1.9880775868958722e+00 0 0 0
250 1 1.2523192704509267e+01 1.3504251419989229e+01 7.8834308080550448e+00 0 0 0
251 2 1.2986375183461076e+01 1.2768975950638746e+01 8.3165239195854550e+00 0 0 0
252 2 1.3130307487127874e+01 1.4123578344670216e+01 7.4271697946492194e+00 0 0 0
253 1 1.4738791867054376e+01 5.1505102299241434e+00 8.4244899059841183e-01 0 0 0
254 2 1.5286209781631557e+01 4.9433139170119178e+00 1.5690447291231997e+00 0 0 0
255 2 1.4258365052035826e+01 5.9335361703164589e+00 1.2298412516942860e+00 0 0 0
256 1 1.7216307118692910e+01 6.4056352421463529e+00 7.7928909550514254e+00 0 0 0
257 2 1.7595289836069512e+01 5.9132729536550093e+00 8.5530625783785563e+00 0 0 0
258 2 1.6725266911033771e+01 7.1887429957944295e+00 8.1395173299997019e+00 0 0 0
259 1 1.7742794811720820e+01 1.1592264542147230e+01 9.5994008869441239e-01 0 0 0
260 2 1.6877715579900013e+01 1.1998341217868489e+01 1.2639051304699922e+00 0 0 0
320 2 5.6443800273212306e+00 1.1116922662841148e+01 4.3950056411772626e-01 0 0 0
262 1 1.9851762416468027e+01 1.3693727203058017e+01 7.8064965795700170e+00 0 0 0
263 2 2.0217084624903215e+01 1.3091008297527788e+01 8.4616715535330815e+00 0 0 0
264 2 2.0583539872625458e+01 1.4033021376977276e+01 7.2762443346835548e+00 0 0 0
265 1 9.8818060560439420e+00 5.9414390607205574e+00 2.7164749040575220e+00 0 0 0
266 2 9.1964108008909076e+00 5.4881569901848470e+00 3.1884126451235768e+00 0 0 0
267 2 1.0273106774317901e+01 5.2696884681506404e+00 2.1402785698937574e+00 0 0 0
268 1 1.2457628034045996e+01 7.9976089669974657e+00 9.4063344231132469e+00 0 0 0
269 2 1.2836070165594782e+01 7.4202311537556636e+00 8.6584005422582404e+00 0 0 0
270 2 1.1866875588569181e+01 7.4425841165999334e+00 9.9251951496950603e+00 0 0 0
271 1 1.2117187725043022e+01 1.3343010699136979e+01 2.7991910011623009e+00 0 0 0
272 2 1.2798743106474509e+01 1.3660057641306388e+01 3.3131612211504442e+00 0 0 0
273 2 1.1397616165570383e+01 1.2997176102097901e+01 3.3587827959517917e+00 0 0 0
274 1 1.4860523623840836e+01 1.4826703800097940e+01 9.3460874767651898e+00 0 0 0
275 2 1.4341185163407269e+01 1.5616218923304812e+01 9.0797344719738504e+00 0 0 0
276 2 1.5437886410312716e+01 1.5007857147111958e+01 1.0077518429063321e+01 0 0 0
277 1 1.7341597837384832e+01 6.0891193639052661e+00 2.6849571949159241e+00 0 0 0
278 2 1.6535027697426123e+01 5.8000102549379831e+00 3.0866870338107155e+00 0 0 0
1148 2 2.3114260136634378e+01 2.9595618513921149e+01 5.3464457084400356e+00 0 0 0
280 1 1.9745597165536125e+01 7.7365887751803211e+00 9.6736749634640731e+00 0 0 0
261 2 1.7500306622170733e+01 1.1031859776976706e+01 2.4457122600572101e-01 0 0 0
2384 2 1.4405677054252434e+01 2.5941477223851486e+01 1.3646513974796537e+01 0 0 0
283 1 1.9892201560283382e+01 1.3135078579689655e+01 2.6606846253026410e+00 0 0 0
1022 2 1.9676336867703903e+01 1.8201993568683385e+01 1.9389889234604243e-01 0 0 0
1095 2 1.6388585417315383e+01 1.7946844702993957e+01 2.6890265589148932e-01 0 0 0
286 1 2.2472453620964217e+01 1.4602088716224792e+01 9.5202421454519595e+00 0 0 0
1016 2 1.5789819723233629e+01 2.6377654171103785e+01 7.7915781473070522e-01 0 0 0
288 2 2.2249242739339401e+01 1.5616450140056065e+01 9.4545340322822682e+00 0 0 0
289 1 5.7266636274063929e+00 6.8034913511753619e+00 1.7287326989092293e+00 0 0 0
290 2 5.3532332367093849e+00 6.6994667214307437e+00 2.6094954299737703e+00 0 0 0
291 2 6.4821481186073084e+00 7.3888038464657999e+00 1.7239374262517455e+00 0 0 0
292 1 8.4725474946658625e+00 8.4358524877278782e+00 8.6682778403418084e+00 0 0 0
293 2 9.0429246219884387e+00 7.6922806781086273e+00 8.3708215055151225e+00 0 0 0
294 2 9.1625116201687700e+00 9.1419045969336672e+00 8.8261390073680701e+00 0 0 0
295 1 8.3212953253420512e+00 1.3456470877408252e+01 1.8081974182825034e+00 0 0 0
296 2 8.0312827905217397e+00 1.3324648743236249e+01 2.7351009407078073e+00 0 0 0
297 2 7.5434490527388558e+00 1.3907405527233145e+01 1.3247622546412132e+00 0 0 0
298 1 1.0941894535836346e+01 1.5841652526971606e+01 8.9124024017156085e+00 0 0 0
299 2 1.1179197531468615e+01 1.4949967842035971e+01 8.6823467270264789e+00 0 0 0
300 2 1.0039300548917586e+01 1.5990665760953995e+01 8.5084564012021353e+00 0 0 0
301 1 1.3247466638914085e+01 7.1882593135930186e+00 2.0279570606902890e+00 0 0 0
302 2 1.2904056534791536e+01 7.1486221419280529e+00 2.9361889184636696e+00 0 0 0
303 2 1.4099508081629589e+01 7.6932132347271107e+00 2.1603098063500998e+00 0 0 0
304 1 1.6021458639610913e+01 8.5972420317732041e+00 8.5817443211925752e+00 0 0 0
305 2 1.5643115133540537e+01 8.4292263857099599e+00 9.4448399731770607e+00 0 0 0
306 2 1.6589747674754697e+01 9.3662868763159182e+00 8.6316705489635730e+00 0 0 0
307 1 1.6106545119463995e+01 1.3793017687274446e+01 1.8744613080625918e+00 0 0 0
308 2 1.5292903476565487e+01 1.4114313766782011e+01 1.4291439811089133e+00 0 0 0
309 2 1.6755022244945330e+01 1.4398408905629783e+01 1.5715038648607866e+00 0 0 0
310 1 1.8508283883087131e+01 1.5861591338900149e+01 8.8123726421396249e+00 0 0 0
311 2 1.8972373860728439e+01 1.5050477516781740e+01 8.4574291717046410e+00 0 0 0
312 2 1.7974845118297168e+01 1.6142664560777732e+01 8.0847991868518818e+00 0 0 0
313 1 3.6705228600660411e+00 4.7554478277846712e+00 9.8839404259575370e-01 0 0 0
882 2 1.9785188670952394e+01 1.9476080792120499e+01 1.3184725482627938e+01 0 0 0
315 2 4.3530085535939271e+00 4.3756247577680973e+00 1.6142692425871601e+00 0 0 0
316 1 6.1710206013758722e+00 6.2721775200001133e+00 7.6559805501954967e+00 0 0 0
317 2 6.5173033713147301e+00 6.8878717571859589e+00 7.0127921402772992e+00 0 0 0
318 2 5.4811600559281040e+00 6.7740419795224494e+00 8.2181692181286135e+00 0 0 0
319 1 5.9535486579692432e+00 1.1818968052078727e+01 1.0390722907826919e+00 0 0 0
1617 2 9.2101132088870852e+00 1.2169473944643203e+01 1.3656429515604151e+01 0 0 0
321 2 6.6586743590067732e+00 1.1358781065282649e+01 1.5565313218831860e+00 0 0 0
322 1 8.7636040242113697e+00 1.3769237142544814e+01 7.8965122404061043e+00 0 0 0
323 2 8.0984273479828577e+00 1.4263347221659565e+01 8.4532188447697028e+00 0 0 0
324 2 8.4630946494595207e+00 1.2956993067863378e+01 7.4006431901988270e+00 0 0 0
325 1 1.1574128455055549e+01 4.5203825085306795e+00 8.3049855008152107e-01 0 0 0
1139 2 1.7138469765484587e+01 3.0085903083568478e+01 1.2961497874977436e+01 0 0 0
121 1 2.8787756397903754e+00 2.9742292100077048e+00 4.3773480393139854e+00 0 0 0
328 1 1.4080209503712926e+01 6.4918334524815480e+00 7.7088480268849340e+00 0 0 0
329 2 1.3531663956056718e+01 5.9029512794229451e+00 7.1823931604635263e+00 0 0 0
330 2 1.4510394667085619e+01 5.9973609944070319e+00 8.4099694050266205e+00 0 0 0
331 1 1.3533747684420520e+01 1.1595196150880481e+01 1.1218263881918660e+00 0 0 0
332 2 1.2908512532949993e+01 1.2167331557833808e+01 1.5853287884654619e+00 0 0 0
333 2 1.4322808415671437e+01 1.1437018769766951e+01 1.6697110897876939e+00 0 0 0
334 1 1.6485679173734738e+01 1.3393655856316402e+01 7.7436509393620661e+00 0 0 0
335 2 1.6884812657978173e+01 1.3818642082849433e+01 6.9730371875659829e+00 0 0 0
336 2 1.5754681504586706e+01 1.4011016437063283e+01 8.0813053696119006e+00 0 0 0
1109 2 1.2029654633289612e+01 2.2901754686790518e+01 1.1713835331811211e+01 0 0 0
338 2 4.5316073267286390e+00 5.6533416715536804e+00 4.9522792472089376e+00 0 0 0
1131 2 1.2610904012959912e+01 2.0882377610312425e+01 4.9074271937605811e+00 0 0 0
340 1 6.8901841334656551e+00 8.0606450929653697e+00 1.0883242025179062e+01 0 0 0
344 2 6.7481618896953108e+00 1.3943414256706635e+01 5.2102573379175592e+00 0 0 0
342 2 7.6926513917060424e+00 8.2824619235149939e+00 1.0347348957759847e+01 0 0 0
343 1 6.8865344655387926e+00 1.3181942421400970e+01 4.6227539042056858e+00 0 0 0
119 2 1.7232347043255658e+01 1.2753831808301010e+01 1.3277728222530362e+01 0 0 0
1028 2 2.2260673968393085e+01 2.5540156222548628e+01 1.7865400224039224e-01 0 0 0
346 1 9.4712955398116296e+00 1.5451413797495757e+01 1.1217443670575225e+01 0 0 0
347 2 1.0239680238232889e+01 1.5653956342511220e+01 1.0651496494752179e+01 0 0 0
348 2 9.5893235690734517e+00 1.4579216094966405e+01 1.1719596566925507e+01 0 0 0
349 1 1.2045065481092246e+01 6.6161280753412521e+00 4.2105787187725614e+00 0 0 0
350 2 1.1973810473881642e+01 7.0370749963805324e+00 5.1161716100062771e+00 0 0 0
351 2 1.1134655661112422e+01 6.4264001758220610e+00 3.8987719101634535e+00 0 0 0
352 1 1.4454517759127240e+01 8.2661646149527730e+00 1.0941312442440749e+01 0 0 0
353 2 1.4814726780571720e+01 7.4761655844689887e+00 1.1363604090036281e+01 0 0 0
354 2 1.3658927155932011e+01 8.0717903571126630e+00 1.0369763940583148e+01 0 0 0
355 1 1.4479058348318643e+01 1.3389042135928873e+01 4.2221958046687149e+00 0 0 0
356 2 1.4819192062262998e+01 1.2661745490143971e+01 4.7342057158722692e+00 0 0 0
357 2 1.5051726972467639e+01 1.3610939329307520e+01 3.4881000334878247e+00 0 0 0
358 1 1.6991627842932331e+01 1.5148342381093721e+01 1.0860015103846456e+01 0 0 0
359 2 1.7084521908650117e+01 1.5845095358126226e+01 1.1546773438242756e+01 0 0 0
360 2 1.7677365728458220e+01 1.5367492855005825e+01 1.0168558057406786e+01 0 0 0
361 1 6.9692561251131799e+00 7.6458524556508589e+00 5.0572037936117971e+00 0 0 0
362 2 6.6311868613510079e+00 8.4662613378936804e+00 4.6428712967389760e+00 0 0 0
363 2 7.9041686721825313e+00 7.8243652665073053e+00 5.1009597376891858e+00 0 0 0
364 1 9.9312342681499945e+00 9.3098754349992596e+00 1.1780824121956686e+01 0 0 0
365 2 9.3561309372418453e+00 9.9845794893239699e+00 1.1455142436906320e+01 0 0 0
366 2 9.5646454345955423e+00 9.0588390962297680e+00 1.2686245084369085e+01 0 0 0