LAMMPS data file via write_data, version 15 Apr 2020, timestep = 40098000

576 atoms
2 atom types

1.7755001753338462e-01 1.7742450982432256e+01 xlo xhi
-2.7450982466490359e-02 1.7537449982432381e+01 ylo yhi
3.2255001753356538e-01 1.7887450982432437e+01 zlo zhi

Masses

1 16
2 2

Atoms # atomic

563 2 2.8494919594711772e+00 3.7665834494270789e+00 3.5513422203603588e+00 -8 -6 -2
564 2 4.1997135481252643e+00 4.0293425032314438e+00 2.9149502247867618e+00 -8 -6 -2
85 1 1.7956225473813447e+00 2.7857062917351958e+00 4.3827327236539491e+00 -3 5 2
87 2 2.0313137511539097e+00 1.8627396192524766e+00 4.6043885708690251e+00 -3 5 2
275 2 2.8223459857371302e-01 2.5572020345623674e+00 4.0504712396384370e+00 -8 3 -1
271 1 6.1785728207860098e+00 6.9402806108347681e-01 2.4804452179590148e+00 6 -2 2
46 1 5.6195114243682074e+00 3.3359251837184516e+00 2.9371588503126853e+00 4 2 2
48 2 5.6712805601599516e+00 2.3729894962749483e+00 2.5996508708370802e+00 4 2 2
47 2 6.2065728187582332e+00 3.9098324096057735e+00 2.3529822541901164e+00 4 2 2
377 2 6.2464225783555554e+00 3.6600327381754933e+00 4.4441505689037841e+00 -5 -3 -4
273 2 6.7668855939273822e+00 3.8843896132030847e-01 3.1886839145075401e+00 6 -2 2
272 2 5.4377919497256713e+00 1.1783489002620087e-01 2.5475999132097606e+00 6 -2 2
351 2 8.4033108430227959e+00 4.1496128203065492e+00 1.6105635715779238e+00 -2 -5 -1
160 1 1.0807014723113380e+01 3.3670272503026708e+00 3.5585085782127850e+00 -3 7 4
350 2 9.6532105887315538e+00 3.4526540414808107e+00 2.2047811376491593e+00 -2 -5 -1
434 2 1.2158309629395008e+01 2.7042675026488867e+00 3.1798319524988714e+00 -6 5 -2
162 2 1.0135467159230407e+01 2.8660715732325102e+00 4.1566224632746156e+00 -3 7 4
433 1 1.3085093235987101e+01 2.3333780109996622e+00 3.0825032994598995e+00 -6 5 -2
349 1 9.1116781137869225e+00 3.5657506351492549e+00 1.3714556373084521e+00 -2 -5 -1
161 2 1.0942905764250057e+01 4.2818707076426223e+00 3.7801443554603193e+00 -3 7 4
287 2 1.2517191720552415e+01 3.4092952401245469e-01 2.5291590529085686e+00 2 -1 -2
435 2 1.3430167705646054e+01 2.4448112218829174e+00 2.1687521620360815e+00 -6 5 -2
274 1 1.6911640378892638e+01 2.5547412684510227e+00 3.5673628141913718e+00 -9 3 -1
329 2 1.4730577716536974e+01 1.0550332964354583e+00 1.3115287548475050e+00 0 4 6
152 2 1.6140948888529739e+01 1.3495465060465699e+00 2.9572774588465065e+00 5 1 1
392 2 1.6830690409463976e+01 4.1268975055028090e+00 2.4719581259929200e+00 0 -7 9
276 2 1.6335937376668554e+01 3.1805936740613960e+00 4.0790426466143686e+00 -9 3 -1
342 2 1.4085993720439022e+01 3.5911548104237592e+00 3.9013563405121974e+00 0 3 4
151 1 1.5666777647588473e+01 5.0421377489529251e-01 2.6281681818483094e+00 5 1 1
340 1 1.4718838001935445e+01 4.0782896936875517e+00 4.3984188267908646e+00 0 3 4
153 2 1.5026140357085300e+01 3.3874051310034448e-01 3.3233696927784573e+00 5 1 1
328 1 1.4079689845901450e+01 1.6127630798729233e+00 7.5216525702737513e-01 0 4 6
393 2 1.6376691753182129e+01 4.2668486576891924e+00 9.0986776030622507e-01 0 -7 9
456 2 8.7503482344863859e-01 4.6180721985543531e+00 1.1877319128316999e+00 0 1 -2
454 1 1.7183082378556773e+00 4.3964020586571433e+00 7.8838505212751675e-01 0 1 -2
455 2 2.2902064791106818e+00 4.4238873560200194e+00 1.5622172419016553e+00 0 1 -2
562 1 3.2905003753386728e+00 4.4378741674350213e+00 2.9869152666632917e+00 -8 -6 -2
443 2 1.3641802933216229e+00 7.5587374063755872e+00 2.9599300564434663e+00 -7 1 -3
359 2 3.2166174046721618e+00 6.1584620764586271e+00 3.0231105118279173e+00 -1 0 3
358 1 3.1965346604313907e+00 7.1144797262150750e+00 3.3018156996145751e+00 -1 0 3
360 2 3.9765792531092363e+00 7.5682595443221006e+00 2.7848592557940042e+00 -1 0 3
442 1 4.8966979143173373e-01 7.5681316557797755e+00 2.4857785528367740e+00 -7 1 -3
12 2 7.1200257795261201e-01 7.0272139401059430e+00 8.3485621380624475e-01 7 1 2
432 2 4.4542465176872934e+00 8.5271876452511997e+00 1.2150570158380822e+00 -6 -6 2
345 2 8.0109569843208170e+00 8.2680192091122127e+00 1.4040711661553229e+00 0 0 0
344 2 7.8615570025588788e+00 7.7057494888218763e+00 2.8697882898595242e+00 0 0 0
343 1 7.3749247438730396e+00 7.7418492516105459e+00 1.9650398052788685e+00 0 0 0
495 2 7.1000516214331864e+00 6.1069022185946551e+00 1.5600619701351386e+00 4 -2 2
493 1 7.0050219805746075e+00 5.1707404581216920e+00 1.2943872166298678e+00 4 -2 2
430 1 4.8358520297570831e+00 8.6285298756816236e+00 2.0657004992647154e+00 -6 -6 2
431 2 5.7974503008693210e+00 8.4216600480082704e+00 1.8878388156054449e+00 -6 -6 2
76 1 8.6109859101508075e+00 7.4961795240873101e+00 4.2955198433515616e+00 -1 -7 -3
19 1 1.1904214378036878e+01 6.6671204893840645e+00 7.7306641657977204e-01 3 0 2
62 2 1.1420057597319776e+01 8.0799701891771480e+00 1.5620440185034321e+00 3 -3 5
524 2 1.1784178187143864e+01 7.8142534336674148e+00 4.4999019373779818e+00 4 4 -4
21 2 1.2624247470133312e+01 6.1329349196286351e+00 1.1863985329125111e+00 3 0 2
421 1 1.1271815022191769e+01 6.1662185128775002e+00 4.3332712509427873e+00 -3 3 3
423 2 1.0310037971845075e+01 6.3581028753396787e+00 4.3876991056201193e+00 -3 3 3
20 2 1.1132848718721055e+01 6.1129713099579330e+00 4.0694984156439551e-01 3 0 2
391 1 1.6664388348748332e+01 4.7432268649154965e+00 1.7370281944632597e+00 0 -7 9
36 2 1.4723214923075576e+01 8.6722942830179512e+00 3.2850804539946448e+00 -4 -5 -5
321 2 1.3693763701407889e+01 6.1881657138225981e+00 2.9570590815332465e+00 -6 1 0
555 2 1.4603895736995103e+01 8.5556294853405905e+00 6.8900642938272427e-01 -1 5 8
320 2 1.4688270589032353e+01 5.3908129338025805e+00 2.1400824548600745e+00 -6 1 0
444 2 1.7524453831600415e+01 6.8166932867163395e+00 2.8325625733445792e+00 -8 1 -3
319 1 1.3736112869423046e+01 5.5329084941786562e+00 2.2513392525609559e+00 -6 1 0
58 1 1.6234649990753695e+01 6.1206671407032331e+00 4.4422715048180805e+00 -1 -6 3
59 2 1.5607518270607695e+01 5.3539743206087893e+00 4.1960427534934555e+00 -1 -6 3
60 2 1.5592172792232416e+01 6.8081369533322640e+00 4.6482195147625962e+00 -1 -6 3
34 1 1.4571422479474981e+01 8.4034624968260729e+00 4.1989556322519803e+00 -4 -5 -5
492 2 3.2959424546591127e+00 4.5245060735342912e-01 8.4026605003915638e+00 2 -1 -10
514 1 3.5295484664517689e+00 3.3531068740066532e+00 8.6524962157140823e+00 4 4 -1
519 2 1.1578254116415649e+00 1.1107497340025454e+00 8.6427483017795250e+00 4 2 -7
86 2 1.7848653738893496e+00 3.2113906020887275e+00 5.2618041609874009e+00 -3 5 2
270 2 2.5282888949909852e+00 3.8392521134674342e+00 7.3863836702596579e+00 12 5 9
268 1 2.0332006666513660e+00 4.2507128167782584e+00 6.5995839426805327e+00 12 5 9
515 2 4.3546454908272434e+00 3.0494955879849530e+00 8.1762609794857610e+00 4 4 -1
125 2 2.7302963277102519e+00 1.6248307609698717e-01 5.7259709278314421e+00 2 -6 7
490 1 2.5503465587290641e+00 9.0386771578504041e-02 7.9159097864186228e+00 2 -1 -10
173 2 4.3704628655024930e-01 4.2510979628748782e+00 6.6227522542983461e+00 1 -3 1
190 1 7.7757779895915045e+00 1.3719952433329534e+00 8.7921969853098094e+00 1 -3 -5
191 2 8.4902591975615067e+00 2.0074167703674592e+00 8.7615695613903117e+00 1 -3 -5
95 2 6.2283346934599848e+00 1.9724648809316327e+00 7.7639039803999328e+00 -3 0 -7
378 2 7.4036341141754844e+00 3.0614920270419668e+00 5.1581411162506106e+00 -5 -3 -4
376 1 6.5590039578524095e+00 3.5442055538764334e+00 5.3617238622072936e+00 -5 -3 -4
94 1 5.4324362122749204e+00 2.2377918501016851e+00 7.2664786655299416e+00 -3 0 -7
96 2 5.6876351092439883e+00 2.7109242612414977e+00 6.4779714378400151e+00 -3 0 -7
362 2 8.7448294296700873e+00 1.2780077644708672e+00 4.9133665366262704e+00 -5 5 -5
122 2 5.6314657613193235e+00 6.7524459073563925e-01 6.5906797250260487e+00 -4 2 -1
572 2 1.0460961312751236e+01 2.8043406308579657e+00 8.3107573991429504e+00 -2 2 -2
361 1 9.0574246472093360e+00 2.2217493561545480e+00 5.1195212796743697e+00 -5 5 -5
363 2 9.8180204175785448e+00 2.1487920011742725e+00 5.7186472766175198e+00 -5 5 -5
147 2 1.1744328117108681e+01 2.4841431045447666e+00 6.1665654189974761e+00 0 -1 1
145 1 1.1093282482731585e+01 2.0483476452418663e+00 6.7540915950354714e+00 0 -1 1
146 2 1.1540827861599691e+01 1.1853707020332889e+00 6.9212620920000720e+00 0 -1 1
571 1 9.7442557571934785e+00 3.3193455096105824e+00 8.7385211663682316e+00 -2 2 -2
93 2 1.3750823185977907e+01 1.3467706700618629e+00 4.7735441726252761e+00 5 -6 0
91 1 1.4162375812101763e+01 5.6730418585433440e-01 5.1668390447275936e+00 5 -6 0
111 2 1.3691012167192797e+01 1.6982434548692871e+00 9.0013399527557159e+00 -2 -5 -5
520 1 1.3633559327883937e+01 4.1604957872537094e+00 6.6764049810568347e+00 2 2 3
518 2 1.7626219418943361e+01 2.3828986081921073e+00 8.9003768095835714e+00 3 2 -7
150 2 1.6602266126641847e+01 4.0834424540678835e+00 8.2770133610192751e+00 -1 -5 -5
521 2 1.3874774614730324e+01 3.7921270591503258e+00 7.5062675816681752e+00 2 2 3
92 2 1.4910594119784962e+01 9.4249409001317164e-01 5.7019660826582177e+00 5 -6 0
109 1 1.3941621613200168e+01 8.9899095162175457e-01 8.4615723251058572e+00 -2 -5 -5
551 2 1.6511279866773378e+01 2.5201512522507938e+00 6.6287124261865760e+00 2 1 7
552 2 1.5412507219220991e+01 1.7200502212597755e+00 7.4799491141441434e+00 2 1 7
550 1 1.6082879489900215e+01 1.6803317599392478e+00 6.7915030297429739e+00 2 1 7
341 2 1.4394151606879353e+01 4.1386787671038494e+00 5.3267857057733581e+00 0 3 4
172 1 1.7054079883574378e+01 4.1608579811034243e+00 6.4645978870119789e+00 0 -3 1
237 2 1.9073835482290473e+00 8.2998249505733614e+00 7.8708998868107045e+00 0 3 2
235 1 1.8087332758949934e+00 8.6061344329930396e+00 6.9746386158293383e+00 0 3 2
269 2 2.5333938971790397e+00 5.0741034006162637e+00 6.2429440030212424e+00 12 5 9
117 2 3.3913119170258321e+00 6.7783843717485004e+00 4.9866927882658008e+00 5 -3 3
116 2 3.9803136012433984e+00 6.7676230600682006e+00 6.5408847788516375e+00 5 -3 3
115 1 3.1913038568076666e+00 6.6046362339050919e+00 5.9426245248692950e+00 5 -3 3
236 2 2.1366129620972356e+00 7.8249918221131178e+00 6.5086813480081682e+00 0 3 2
77 2 8.5499505172964199e+00 8.3583712957187899e+00 4.7691261666040203e+00 -1 -7 -3
541 1 4.9945552305850249e+00 7.2382409674790225e+00 7.7010697382599176e+00 3 4 7
543 2 5.1920775161456518e+00 8.1536284652312592e+00 7.9026507766964906e+00 3 4 7
108 2 6.8636540321189141e+00 5.2069372214356058e+00 5.9778926841749227e+00 -3 -2 1
542 2 5.7761533186129137e+00 6.8311510007183536e+00 7.2697758679464553e+00 3 4 7
78 2 8.1346717717161425e+00 6.9392276268980337e+00 4.9083387705919330e+00 -1 -7 -3
107 2 7.9485789074380548e+00 6.0843895435784781e+00 6.8679820741759130e+00 -3 -2 1
106 1 7.1259148293864643e+00 6.1039435674005178e+00 6.2535478372697808e+00 -3 -2 1
225 2 1.2911916675384852e+01 8.4980660769697085e+00 8.7453237620368185e+00 1 0 -1
120 2 9.3073584899776645e+00 6.6195405590281604e+00 8.7173135160159276e+00 4 -3 -1
119 2 9.3165461773865470e+00 5.1913557085985236e+00 8.1089919096330885e+00 4 -3 -1
118 1 9.4823734499928829e+00 6.0989385036021933e+00 7.8874473877324283e+00 4 -3 -1
522 2 1.3291711908134186e+01 5.1066646196216725e+00 6.8768821697133431e+00 2 2 3
39 2 1.0964469934777163e+01 6.2979216619915492e+00 7.1759159749060952e+00 -4 -8 -2
38 2 1.2246069758903085e+01 6.8156739570427876e+00 7.5937132678856587e+00 -4 -8 -2
37 1 1.1900250906285436e+01 6.2003071704027333e+00 6.8671472320295379e+00 -4 -8 -2
422 2 1.1575033484694414e+01 6.0541664583295880e+00 5.2725278483003981e+00 -3 3 3
223 1 1.2812296013422594e+01 7.5044389196742207e+00 8.8804073815610636e+00 1 0 -1
570 2 1.7738207518476962e+01 8.2277604438531817e+00 7.3358912229019060e+00 -1 -3 -5
218 2 1.5860328856811066e+01 6.8068086055881700e+00 8.4272000548719426e+00 -2 3 -1
174 2 1.6741955537749394e+01 4.9525610821418740e+00 5.9633530757116242e+00 0 -3 1
224 2 1.3680101966442763e+01 7.0888717200165798e+00 8.8870993110556231e+00 1 0 -1
568 1 1.6929589197146388e+01 8.2608529898466365e+00 7.8657048229994704e+00 -1 -3 -5
217 1 1.5135639014124711e+01 6.3390822396837603e+00 8.9199399126556926e+00 -2 3 -1
575 2 2.9394865973389868e+00 2.5997701240176236e+00 1.0185567738660197e+01 -3 3 -4
574 1 2.4308405317096322e+00 2.2501056637488626e+00 1.0941081081691555e+01 -3 3 -4
89 2 1.8125858230809098e+00 3.5730003725371771e+00 1.2005148899499678e+01 3 2 5
576 2 1.6001786059344090e+00 2.0317859873746515e+00 1.0386613808593541e+01 -3 3 -4
296 2 2.6002401766208423e+00 4.6506378964188866e-01 1.1328497426281832e+01 0 -1 2
517 1 5.3789211986305951e-01 1.6178132209314606e+00 9.2565587305019648e+00 4 2 -7
516 2 3.8501890485148120e+00 4.1002830623491340e+00 9.1432643909992457e+00 4 4 -1
546 2 5.5923395397880151e+00 1.7077208094022962e+00 1.0688723598198878e+01 0 4 2
75 2 7.8345213915546648e+00 2.3068635329792091e+00 1.1689160355254867e+01 8 -4 0
544 1 6.0698421304924075e+00 2.5534743655715233e+00 1.0669384182889349e+01 0 4 2
545 2 6.6095508497008639e+00 2.4567026307515483e+00 9.8427238983428698e+00 0 4 2
177 2 5.8205411893888019e+00 3.8940110073270593e+00 1.1676279543256767e+01 -2 -3 -4
73 1 8.5428466895051223e+00 2.6477872161475187e+00 1.2267641551833457e+01 8 -4 0
429 2 8.3100778641753781e+00 3.9785575900005323e+00 1.3150028543313725e+01 3 1 -13
192 2 7.8909400172417037e+00 9.0876740346982732e-01 9.6859713521054545e+00 1 -3 -5
74 2 8.9389866943871059e+00 1.8700016870532910e+00 1.2659062283403491e+01 8 -4 0
538 1 6.4584409530561837e+00 6.4182047600278358e-01 1.2993493397154209e+01 7 7 -1
540 2 5.4975637114753289e+00 4.9868803802888606e-01 1.2967200491758977e+01 7 7 -1
157 1 4.8722347440937748e+00 8.7316469499653437e-02 1.0009162600303211e+01 -5 6 -12
180 2 1.1179742029969818e+01 7.9504422471049063e-01 1.2033948294459229e+01 -1 5 0
178 1 1.1795609162527459e+01 9.3351324390612755e-01 1.1288166077140339e+01 -1 5 0
573 2 1.0069800222847562e+01 3.5189702587915930e+00 9.6079572759739751e+00 -2 2 -2
312 2 1.1743440310101517e+01 2.8027372524309384e+00 1.1102947658265172e+01 -2 -1 2
310 1 1.1623986822329327e+01 3.7045997768313694e+00 1.0773425402877034e+01 -2 -1 2
311 2 1.1403794722281143e+01 4.2267819483781226e+00 1.1567639768478816e+01 -2 -1 2
527 2 1.2970562359779162e+01 3.6801217791642213e+00 9.6051250791741225e+00 -5 -3 -2
179 2 1.1526596241979478e+01 1.7054752065021966e-01 1.0710370628425526e+01 -1 5 0
170 2 1.6843452693388077e+01 5.8882690743476507e-01 1.0191348029252365e+01 -1 3 -7
533 2 1.3785067358168437e+01 1.1013372581028285e+00 1.2016077176658586e+01 2 4 5
209 2 1.4727700185675282e+01 2.9797225937043481e+00 1.2819142842740657e+01 -3 3 4
532 1 1.4641115444014483e+01 1.3465093345234156e+00 1.2402162899583681e+01 2 4 5
534 2 1.5348257189278952e+01 1.0452314570288510e+00 1.1774060262023079e+01 2 4 5
208 1 1.4951078073365165e+01 3.9134366871045057e+00 1.3149215188151611e+01 -3 3 4
528 2 1.4558739597514220e+01 3.9919674424716467e+00 9.4459867122510417e+00 -5 -3 -2
210 2 1.5930621659305375e+01 3.9757584978522535e+00 1.3383768676985998e+01 -3 3 4
110 2 1.4297418288539095e+01 2.4583965465175700e-01 9.1288970267647205e+00 -2 -5 -5
169 1 1.6274310826311677e+01 1.3325563855042316e-01 1.0785919521132998e+01 -1 3 -7
149 2 1.6991459465567591e+01 4.1808689469900635e+00 9.7451231108629077e+00 -1 -5 -5
526 1 1.3821544747397473e+01 3.3802731380126581e+00 9.2778708921102417e+00 -5 -3 -2
148 1 1.6541017971844830e+01 3.6238504317055966e+00 9.1118662490418103e+00 -1 -5 -5
114 2 1.4542092056961422e+01 -9.6694895302964004e-04 1.3425183111066559e+01 0 1 -3
88 1 1.5167356161675458e+00 4.4324439411497201e+00 1.2446703970952717e+01 3 2 5
90 2 2.2386504009070394e+00 4.7560152845442119e+00 1.3031521971074817e+01 3 2 5
102 2 1.3354746184718225e+00 7.1063603620644056e+00 9.8699952016508110e+00 -2 2 6
100 1 2.0250661340258098e+00 7.7572873051880320e+00 9.4485350784109219e+00 -2 2 6
101 2 2.7781275558073069e+00 7.1414470818893383e+00 9.4105137398280512e+00 -2 2 6
305 2 1.2104960049955249e+00 5.2826334398817085e+00 1.0948386552284926e+01 1 3 -2
55 1 4.2461828572448637e+00 5.6806015349592469e+00 9.6905211829138853e+00 3 -1 2
304 1 6.9570737451602915e-01 5.8502242691174615e+00 1.0335486101460752e+01 1 3 -2
141 2 2.5567819053926395e+00 8.5524501248935039e+00 1.0807958159755545e+01 -2 0 0
175 1 5.8625123725743240e+00 4.7239047911635641e+00 1.2186612631578431e+01 -2 -3 -4
176 2 6.7843122272569927e+00 4.7057867576480898e+00 1.2513795115151991e+01 -2 -3 -4
348 2 4.7455997772802041e+00 4.9745208423818852e+00 1.3324328628509303e+01 1 3 -2
57 2 4.7252488978896565e+00 5.4769853708077978e+00 1.0520152050639552e+01 3 -1 2
29 2 6.4406467832333165e+00 7.0746952275851216e+00 1.2171837847820061e+01 1 0 8
28 1 6.9828125939512322e+00 7.8515721071592735e+00 1.1972936310871884e+01 1 0 8
230 2 8.2267440781517216e+00 7.6116288975030129e+00 1.0774777631414816e+01 3 10 2
231 2 8.7159856497571084e+00 8.5183892927355416e+00 9.6280092272532105e+00 3 10 2
30 2 6.4866073338908778e+00 8.6669502454417096e+00 1.1652268254718132e+01 1 0 8
56 2 4.7198684851212773e+00 6.2971008269105964e+00 9.1460742395286410e+00 3 -1 2
260 2 1.1626124818988659e+01 8.3900994910905879e+00 1.1759393680095966e+01 -3 0 0
229 1 8.9688368321079572e+00 7.7930209679098343e+00 1.0141695331806092e+01 3 10 2
259 1 1.2115685291430115e+01 7.5540471445158399e+00 1.1753280613976255e+01 -3 0 0
314 2 1.1351277252635766e+01 6.0821346843358697e+00 1.2398183488123081e+01 0 4 -1
313 1 1.0876785613322065e+01 5.2994938952599897e+00 1.2732855543822742e+01 0 4 -1
315 2 9.8783224361432165e+00 5.3349301681325469e+00 1.2646607102633636e+01 0 4 -1
261 2 1.2387424105422454e+01 7.4092532290729123e+00 1.0822347355583753e+01 -3 0 0
219 2 1.5480026461585602e+01 6.2821291964093682e+00 9.8341758060259838e+00 -2 3 -1
365 2 1.3675685030199729e+01 7.8171143837011989e+00 1.2625287735065440e+01 3 2 -5
364 1 1.4500001831000441e+01 8.1282436519583001e+00 1.3125782165666333e+01 3 2 -5
383 2 1.5155981463853763e+01 6.6278298110220106e+00 1.2026154917154591e+01 2 -3 0
306 2 1.7433353799511664e+01 6.0265234599111013e+00 1.0870232456514882e+01 0 3 -2
382 1 1.5621066462010981e+01 6.0225412020217961e+00 1.1413087985076519e+01 2 -3 0
384 2 1.5358530850003602e+01 5.1332635659806369e+00 1.1816035450115335e+01 2 -3 0
416 2 4.5916158427547699e-01 4.1118009171302790e+00 1.3657317548701286e+01 1 1 -2
447 2 2.1313779176563470e+00 1.1112456179423627e+00 1.7368939772233482e+01 -2 6 7
445 1 2.2697655226799407e+00 2.0179823335790510e+00 1.7047037063443295e+01 -2 6 7
258 2 3.1675050898062276e+00 2.4883174521949085e+00 1.5844590806924545e+01 -2 4 2
347 2 3.7399629167300015e+00 4.1379205910658472e+00 1.4326706018049483e+01 1 3 -2
374 2 3.7596466605991776e+00 9.6828931201912527e-01 1.4370106695438151e+01 4 -1 9
256 1 3.7946750243723448e+00 2.7215404093681568e+00 1.5116495853796891e+01 -2 4 2
507 2 6.9674320429283298e-01 1.8401942943861791e+00 1.6282403171615417e+01 0 -3 6
373 1 3.8554170532531384e+00 1.5010529681652560e-01 1.3895966927293811e+01 4 -1 9
446 2 2.0889173600736850e+00 2.7186093601720018e+00 1.7682222205211119e+01 -2 6 7
257 2 4.7499564703823083e+00 2.5625335202752328e+00 1.5341857588822691e+01 -2 4 2
252 2 6.5090221310446550e+00 1.9418744396862526e+00 1.4185032158648584e+01 4 2 1
250 1 6.5167180087347996e+00 2.4488752037493478e+00 1.5028411060704098e+01 4 2 1
251 2 7.3781203054628701e+00 2.2123872772274775e+00 1.5453076461269132e+01 4 2 1
195 2 6.4552051338400336e+00 4.2841698211600479e+00 1.6007028729412351e+01 3 3 -2
187 1 8.5909206933853905e+00 1.8762035511635551e+00 1.6632507853005102e+01 -2 7 -4
188 2 8.7266032386871100e+00 2.5171929466471230e+00 1.7385578327133388e+01 -2 7 -4
426 2 8.1040414658850466e+00 4.7338543407294986e-01 1.7468352519833665e+01 1 -1 2
539 2 6.8083307721967108e+00 -1.3595934516113078e-02 1.3596169318105925e+01 7 7 -1
379 1 1.0015672417670734e+01 6.9569942377906424e-01 1.3512421817142553e+01 2 -7 4
381 2 1.0321703612887632e+01 9.0832187620597671e-01 1.4417958114972370e+01 2 -7 4
98 2 1.1651185506120401e+01 1.0852528910560602e+00 1.6196079986038683e+01 -3 1 1
99 2 1.1218671827947446e+01 2.5271496277387957e+00 1.5552156522329252e+01 -3 1 1
97 1 1.0976688661503674e+01 1.6423805337575847e+00 1.5804425738692522e+01 -3 1 1
189 2 9.5101626598234379e+00 1.6844514453423809e+00 1.6279054722569740e+01 -2 7 -4
136 1 1.1308906065120121e+01 4.3542993655667885e+00 1.5381730365087680e+01 5 -6 -1
292 1 1.3065755288057364e+01 5.9695072973180718e-03 1.6253687598259177e+01 2 3 0
513 2 1.4723685282167985e+01 4.0379541749575161e+00 1.6166306994158042e+01 3 3 -6
417 2 1.7511776724204701e+01 3.1644003455562828e+00 1.4923913828251131e+01 0 1 -2
566 2 1.4991662059948357e+01 2.7140612418621850e+00 1.7674313256767935e+01 -4 3 0
505 1 1.7469548824874440e+01 1.5278571955323803e+00 1.5868270075222171e+01 -1 -3 6
506 2 1.7526484044144432e+01 5.9781598661708657e-01 1.5644602090387698e+01 -1 -3 6
415 1 1.7333123554385455e+01 3.9807841374595547e+00 1.4348883799675269e+01 0 1 -2
567 2 1.6222273556680602e+01 2.4848671338787507e+00 1.6746198091935476e+01 -4 3 0
565 1 1.5716311786800361e+01 3.1986258596857673e+00 1.7239244481217916e+01 -4 3 0
512 2 1.4304622055799976e+01 4.1084303065500958e+00 1.4662228118949917e+01 3 3 -6
330 2 1.3617568606093984e+01 1.0439332128665342e+00 1.7635193114058890e+01 0 4 5
163 1 1.2503867941444662e+00 8.2462375819149685e+00 1.3924471422611315e+01 7 -3 -2
472 1 3.3146495589709200e+00 8.4507238342536155e+00 1.7358430952782015e+01 -4 -8 0
346 1 3.9061821474265459e+00 5.0238965089081100e+00 1.3876239455149406e+01 1 3 -2
473 2 2.4533339903365623e+00 7.9462104760542251e+00 1.7549028728167716e+01 -4 -8 0
164 2 6.0679808266937163e-01 7.6696678051674434e+00 1.4375694701592080e+01 7 -3 -2
480 2 4.1008343923670765e+00 7.3975178630551808e+00 1.6105486205654891e+01 -1 0 -1
548 2 2.3909951474707469e-01 6.4526707261302221e+00 1.6178301074276234e+01 1 4 -5
479 2 4.2516531886713755e+00 6.1374138166901275e+00 1.5029534456439071e+01 -1 0 -1
10 1 1.1313706597250088e+00 6.9037375967577583e+00 1.7526124569083883e+01 7 1 1
11 2 1.6877763176453766e+00 6.0474056468422575e+00 1.7583825214889309e+01 7 1 1
427 1 8.1854464821849913e+00 4.9347190648081387e+00 1.3515269327398311e+01 3 1 -13
478 1 4.7721242403008768e+00 6.7941856747541856e+00 1.5597479286805225e+01 -1 0 -1
428 2 7.7370294546297931e+00 4.7440940368208446e+00 1.4385467829468876e+01 3 1 -13
464 2 8.2482593940068298e+00 7.8701657854507721e+00 1.5565705303647258e+01 2 4 4
193 1 6.6994835926725855e+00 5.1586239179225775e+00 1.6277464755685433e+01 3 3 -2
194 2 5.9102470668569529e+00 5.7085558900087232e+00 1.6096560312452635e+01 3 3 -2
300 2 6.0455464012847084e+00 7.8201944162401649e+00 1.5105070968355289e+01 2 2 2
298 1 6.7523327095880470e+00 8.4626034683664830e+00 1.4806321546979245e+01 2 2 2
299 2 6.8667862197858831e+00 8.4367538663294148e+00 1.3816607390160812e+01 2 2 2
494 2 6.8741823876933896e+00 5.2105710715445950e+00 1.7853621841555221e+01 4 -2 1
9 2 1.2871510918230051e+01 8.1810138662200220e+00 1.7478537942728831e+01 5 1 5
463 1 9.2120694149052262e+00 7.8358018663378290e+00 1.5842995201345573e+01 2 4 4
166 1 9.8822809414527910e+00 5.4899157297537142e+00 1.7195599288170264e+01 -6 3 -5
137 2 1.2270959600056724e+01 4.4416813248164297e+00 1.5503813021639131e+01 5 -6 -1
465 2 9.4853611699815161e+00 6.9199637976399018e+00 1.6182744669513276e+01 2 4 4
168 2 1.0440504951736742e+01 4.9334951701302607e+00 1.6562808537634499e+01 -6 3 -5
138 2 1.1101862740351290e+01 4.8611795309851695e+00 1.4540105895363405e+01 5 -6 -1
167 2 9.3778006584523812e+00 4.8751709925404993e+00 1.7734481684078954e+01 -6 3 -5
17 2 1.4379196568313729e+01 6.0026705378354626e+00 1.5478528632793024e+01 8 4 -6
511 1 1.4040619829241111e+01 4.3829793809261828e+00 1.5561778167809724e+01 3 3 -6
18 2 1.5719197353292419e+01 6.7438314279326477e+00 1.5320686276801815e+01 8 4 -6
547 1 1.7327222764397124e+01 6.4341234142002008e+00 1.5282849829472420e+01 0 4 -5
366 2 1.4433712909615963e+01 7.7078486149229493e+00 1.4048769016926570e+01 3 2 -5
549 2 1.7311685873304977e+01 5.5125657911547155e+00 1.4968414917668854e+01 0 4 -5
7 1 1.3495890199695772e+01 8.6063914900360157e+00 1.6840924235584083e+01 5 1 5
8 2 1.4064024084711022e+01 7.9199682201752433e+00 1.6364054553215638e+01 5 1 5
16 1 1.4738080474117519e+01 6.9024512652115950e+00 1.5342473144252745e+01 8 4 -6
291 2 1.0240837701114955e+00 1.1606717356163065e+01 1.1452031209609166e+00 6 1 -3
409 1 2.8438134021828171e-01 9.9769576256994519e+00 3.7279337686890992e+00 2 0 -1
290 2 1.7385634705823190e+00 1.2008645086250169e+01 2.4848887887442173e+00 6 1 -3
389 2 3.8170896715317313e+00 1.0753332958643362e+01 4.3589449996831169e+00 6 -3 2
289 1 1.4832626091239793e+00 1.2364007034988743e+01 1.6254987286382871e+00 6 1 -3
201 2 3.2132070106500450e+00 1.2770451230638068e+01 1.7977344227554368e+00 5 -7 0
390 2 4.4424507416413377e+00 1.0164170207428054e+01 3.0331996879814054e+00 6 -3 2
388 1 4.5661998199823772e+00 1.0847439135174797e+01 3.7689605191532798e+00 6 -3 2
200 2 4.3919437888108543e+00 1.2685585198013271e+01 2.8903131783127165e+00 5 -7 0
396 2 7.5425910326964551e+00 1.1296147075764262e+01 3.3245341723420752e+00 9 0 0
309 2 7.4306695954978226e+00 1.1949425513926760e+01 1.2989777229595401e+00 6 -4 6
307 1 8.2647043677276120e+00 1.1671150354766469e+01 1.8197001448849808e+00 6 -4 6
308 2 8.5423636326125880e+00 1.0903782712215671e+01 1.3143705341848841e+00 6 -4 6
395 2 6.2404589614816715e+00 1.1275320665412579e+01 4.0994616259217462e+00 9 0 0
323 2 5.3307049906746684e+00 1.2958375686190964e+01 9.4088921273176440e-01 2 6 -3
322 1 6.0452742989551851e+00 1.2788718653638174e+01 3.2719893678949341e-01 2 6 -3
394 1 7.1959499919928591e+00 1.1436688381247848e+01 4.2228449955756684e+00 9 0 0
25 1 9.1126070565402912e+00 9.5114918094732239e+00 5.1151119681574819e-01 -1 -4 1
26 2 9.9930812507205538e+00 9.3331311049302563e+00 9.2793022318352836e-01 -1 -4 1
453 2 9.4581708785047525e+00 1.3121162523000613e+01 1.1204764008711725e+00 -8 13 1
317 2 1.1400010319214756e+01 1.1097348934187758e+01 1.8121746281327511e+00 3 2 9
318 2 1.2828037800023889e+01 1.1923174791471469e+01 1.5955877797031388e+00 3 2 9
316 1 1.1895047685395085e+01 1.1900924267636272e+01 1.9469544335515043e+00 3 2 9
452 2 1.0960200060399282e+01 1.2963255657983641e+01 1.3540428705790646e+00 -8 13 1
254 2 1.2183726166615841e+01 1.2171339629183974e+01 3.8269997708338432e+00 -5 3 0
253 1 1.2767279308055018e+01 1.2544293281417119e+01 4.5373883978250165e+00 -5 3 0
61 1 1.1380541217185760e+01 9.0042724410046873e+00 1.8293798042574831e+00 3 -3 5
63 2 1.1597729115444542e+01 9.0360442958266436e+00 2.7778293694968097e+00 3 -3 5
523 1 1.2060917303424668e+01 8.7746256540374787e+00 4.5174700145975164e+00 4 4 -4
411 2 1.7693242140440187e+01 9.1273579891343797e+00 3.2887041318511279e+00 1 0 -1
410 2 1.7106968164324115e+01 9.9043667659988834e+00 4.3575805735814148e+00 1 0 -1
371 2 1.6653142946754887e+01 1.1513753457416636e+01 3.3323418341283682e+00 13 0 0
476 2 1.5115872248875133e+01 1.2037269680189645e+01 1.9944860040116339e+00 1 0 -6
553 1 1.4974470188584007e+01 8.9489521122888203e+00 1.5101203357360273e+00 -1 5 8
554 2 1.4770878320735291e+01 9.8910511509937198e+00 1.4597838267320595e+00 -1 5 8
370 1 1.5985756244949176e+01 1.2215240476440426e+01 3.2911830791694956e+00 13 0 0
475 1 1.4389454127965255e+01 1.1888401430666841e+01 1.3297373897431697e+00 1 0 -6
33 2 1.6945084755519627e+01 9.9679409517296218e+00 5.7975131981143024e-01 -10 4 6
372 2 1.6422195212672086e+01 1.2954368246731676e+01 3.7485582094458856e+00 13 0 0
477 2 1.4727538242811910e+01 1.2096987259772749e+01 4.1351446358226429e-01 1 0 -6
35 2 1.3633256753496580e+01 8.7774401740655712e+00 4.3354396537676365e+00 -4 -5 -5
199 1 4.0587202202631314e+00 1.3176825674641204e+01 2.1310747616109351e+00 5 -7 0
248 2 1.2457678287779856e+00 1.4087871269072538e+01 8.0491220041453615e-01 -4 2 8
441 2 3.4088454249792535e+00 1.6789565973552332e+01 1.0308924267822805e+00 7 -3 2
509 2 3.5859355359790315e+00 1.6727703481901425e+01 3.5697039043138532e+00 -2 -1 -1
508 1 4.1927316692028773e+00 1.6392364292453607e+01 2.8587263264141733e+00 -2 -1 -1
510 2 4.4639249395625802e+00 1.5494899474110420e+01 3.0940846802895563e+00 -2 -1 -1
247 1 6.7816931872892605e-01 1.4814969774963572e+01 6.5218005348801800e-01 -4 2 8
424 1 7.8290382208392000e+00 1.7241763209487857e+01 4.0120988419668369e-01 1 -2 3
488 2 8.5502262720302546e+00 1.6601049604158643e+01 4.4914771917154805e+00 -7 -2 -2
83 2 7.9761290874251154e+00 1.4266771126333655e+01 4.6189854195638747e+00 -2 -2 2
487 1 7.9763827398624958e+00 1.7450069480678316e+01 4.5603660325961988e+00 -7 -2 -2
425 2 7.1810098936724982e+00 1.7507099249349277e+01 1.1376362071638875e+00 1 -2 3
255 2 1.3346604162721913e+01 1.3264386163540861e+01 4.1606658784235648e+00 -5 3 0
196 1 9.4130399062203924e+00 1.5356223413317668e+01 4.1671569553841579e+00 -2 -9 -7
451 1 1.0249821500784163e+01 1.3630039821674076e+01 1.0391018487807506e+00 -8 13 1
41 2 9.3072708884159194e+00 1.6399935774454374e+01 1.1036749800339516e+00 0 -2 4
198 2 9.6074463392324425e+00 1.5377509841341224e+01 3.2459623132530115e+00 -2 -9 -7
286 1 1.2381373593249876e+01 1.7011865417774963e+01 2.2778669314558964e+00 2 -2 -2
40 1 1.0038686358566020e+01 1.6028026568864995e+01 1.6250435888083503e+00 0 -2 4
288 2 1.1419749143896620e+01 1.6788911370969863e+01 2.1306387330304686e+00 2 -2 -2
42 2 1.0188561088637034e+01 1.5086224506810133e+01 1.2905345031565343e+00 0 -2 4
65 2 1.2924208083156607e+01 1.5884304992603882e+01 1.0297683752925502e+00 1 -3 0
105 2 1.3451851426061731e+01 1.5868908690789404e+01 3.5327786319039554e+00 0 -4 4
281 2 1.7467188107508683e+01 1.5486119654061762e+01 4.1164474182589377e+00 -1 0 -6
216 2 1.7155556029746563e+01 1.5213634248824686e+01 1.7244311887456012e+00 2 -8 1
103 1 1.4100056013409741e+01 1.5234098504218318e+01 3.7911126963061306e+00 0 -4 4
214 1 1.6593142563905612e+01 1.5469210027671931e+01 2.5418455108630815e+00 2 -8 1
104 2 1.4891328513418237e+01 1.5379198902068817e+01 3.1856210473213147e+00 0 -4 4
215 2 1.6559575672795582e+01 1.6441271090705378e+01 2.5022454328375741e+00 2 -8 1
467 2 1.5607329135644072e+00 1.0348497782965978e+01 4.8165505611784134e+00 1 -3 -3
466 1 2.2411543696196978e+00 1.0876651775179079e+01 5.2952575880996422e+00 1 -3 -3