LAMMPS data file via write_data, version 8 Apr 2021, timestep = 4131000

1008 atoms
2 atom types

0.19146226119857906 18.208092738800065 xlo xhi
0.0274745492748306 22.54291445071356 ylo yhi
0.18456093138473037 19.32115506863279 zlo zhi
-0.14632519345187037 -6.541439477772238 -0.15140693422375345 xy xz yz

Masses

1 16
2 2

Atoms # atomic

1 1 6.59344061854358 1.3218156158309935 4.708978289280015 0 0 0
3 2 6.694814176711729 1.6218461035404876 3.7811022038876168 0 0 0
4 1 3.9712131121187157 1.2791303912409213 4.858719940925492 0 0 0
6 2 3.8431973117577916 1.6577345156030165 5.735698361337227 0 0 0
7 1 -0.5264082516611532 6.359984026639697 5.128557852998232 0 0 0
8 2 -0.6191901859514499 5.886030130911026 5.966854064327242 0 0 0
10 1 2.319456238468112 6.365454973413988 4.666265977188208 0 0 0
11 2 1.3906394041948917 6.519348018533316 4.945820306116443 0 0 0
12 2 2.6854149733996406 7.290540969383406 4.567712311886984 0 0 0
18 2 5.506473553943095 5.1130198170686 0.9322031815309472 0 0 0
25 1 4.515799356202241 6.318356212881432 6.953934850844062 0 0 0
26 2 4.974784468833746 7.042825384987848 7.316293532114961 0 0 0
27 2 3.678780891094147 6.44004801534808 7.437251479870549 0 0 0
28 1 5.77369889887607 6.468517570505932 2.2587307491187723 0 0 0
29 2 5.7736257742916735 6.273188929580148 3.182692359657894 0 0 0
30 2 5.087289216262503 7.165264071803023 2.119891637801992 0 0 0
31 1 1.285217014766272 1.3242213093292172 2.457882754768229 0 0 0
33 2 1.0919116825303326 1.854842736185251 3.288457652008124 0 0 0
34 1 0.20051194894603622 1.222208027133039 7.245571715397411 0 0 0
36 2 0.34206055376765065 1.6306560599737905 8.082529439355607 0 0 0
37 1 6.576392226235217 2.5027198598494693 2.381068544934292 0 0 0
38 2 5.7540711413202965 3.0247884164546943 2.442603179186688 0 0 0
39 2 7.3385533385029005 3.0055775177321746 2.6247268460145303 0 0 0
40 1 4.09672740178874 2.7294057824520017 7.345846922666184 0 0 0
41 2 5.041240711994231 2.9257477300513433 7.114577313537368 0 0 0
42 2 3.590989901099595 3.5794440632921365 7.209485821532304 0 0 0
43 1 -0.45634614760948217 4.705006102536763 7.309997819389083 0 0 0
44 2 -1.1498646531817853 4.006386040566501 7.224400867100414 0 0 0
45 2 -0.6236639706574143 5.221178938114305 8.12410484985808 0 0 0
46 1 1.836837214226675 4.7720766145507945 2.516552082918883 0 0 0
47 2 0.9721521389884396 4.3306651388588335 2.6603373870662383 0 0 0
48 2 1.9816119578508664 5.377451856410124 3.296381747698358 0 0 0
49 1 6.581291324460802 3.3974299871059395 6.480868365108431 0 0 0
50 2 6.289656563814855 4.197924819932971 5.999519443327268 0 0 0
51 2 6.654806076850175 2.6952188664081818 5.77730091142515 0 0 0
52 1 4.0427547716163765 3.235551164456997 2.9288959655298674 0 0 0
53 2 3.2246471635418086 3.643990967724563 2.537494453764312 0 0 0
54 2 3.9261651476387986 2.5981138528836376 3.6485212815570525 0 0 0
57 2 -0.6551251546347763 3.515107167494956 4.118611117654663 0 0 0
58 1 1.917054996110888 4.137961361473566 6.478127475189154 0 0 0
59 2 2.0454290285118346 4.99820758158279 6.093515887405303 0 0 0
60 2 1.0847438066659452 4.235388267799446 7.066983194221285 0 0 0
61 1 8.366821624202672 7.266515994874861 1.8216730786263202 0 0 0
62 2 7.529110212750493 7.085150680686753 2.2954739411274123 0 0 0
64 1 2.0689579075035485 6.91316028746796 8.598883002714272 0 0 0
65 2 1.374530362638406 7.44908146226019 8.165341848078864 0 0 0
72 2 4.118660482114189 1.4755178206028654 1.3156536170651547 0 0 0
73 1 5.3222600630800505 5.330787671832945 4.713135403487069 0 0 0
74 2 4.816940496129402 5.797448135519041 5.389892967307153 0 0 0
75 2 4.649455667962721 4.816237578126125 4.20940314793838 0 0 0
76 1 0.5739205423753253 2.3702908893282166 4.93883635297125 0 0 0
77 2 0.3762792030723703 1.7858730763581048 5.684126809142527 0 0 0
78 2 1.2925423344917 2.9417520927270444 5.401655695147057 0 0 0
91 1 8.1922440663396 6.109665272120192 5.226801322514841 0 0 0
92 2 8.039377536395692 5.40482623821599 4.48541360377147 0 0 0
93 2 9.096081668510834 6.490552870163693 5.105097562373924 0 0 0
116 2 10.212591349676618 1.8245898336630024 2.0029265307284096 0 0 0
127 1 8.750555747573138 4.673866367097901 7.3559259015181775 0 0 0
128 2 8.023895969375923 4.059021158000891 7.180904253675001 0 0 0
129 2 8.602624109679534 5.394149992614996 6.686222637885766 0 0 0
139 1 8.321568441686479 4.283226522103731 3.397074282983605 0 0 0
140 2 9.097050422446916 4.68936134091724 2.9420318662147835 0 0 0
141 2 8.808239723363382 3.7025252675008278 4.039475864610423 0 0 0
169 1 6.463139468319822 8.23866221885173 4.840821028439568 0 0 0
170 2 6.947109983839026 7.479687262627712 5.139843187608089 0 0 0
171 2 6.573748633902075 9.046244964895054 5.415880021518998 0 0 0
172 1 3.864466061132106 8.719609824371846 4.810163370197512 0 0 0
173 2 3.8618321086123895 9.569806904336916 4.3626494761633685 0 0 0
174 2 4.8420906713375125 8.463232993312946 4.772450618274212 0 0 0
199 1 1.0619914801151673 8.80158112323429 2.58359438135436 0 0 0
200 2 0.9383934373378018 9.516149565112082 1.8707977701112317 0 0 0
201 2 0.3219930306073684 8.152839021845365 2.4348960945537055 0 0 0
202 1 0.34608026470067543 8.708688138093347 7.569688283645539 0 0 0
203 2 -0.5679745032353432 8.557750579836675 7.657805836074198 0 0 0
204 2 0.41763727149462243 9.120575406238183 6.7054836121966845 0 0 0
205 1 6.323452936430173 10.051858707320942 2.6170306744884315 0 0 0
206 2 6.3246160284391335 9.255550174900835 3.2241654886686093 0 0 0
207 2 6.513987378000141 9.725683747366832 1.6976056125127172 0 0 0
208 1 4.153578157841497 9.975739017460105 7.421807913130386 0 0 0
238 1 3.580230733127054 8.040420822639323 1.6131063143925033 0 0 0
239 2 2.7413784035714746 8.415833287350594 1.9727504682310886 0 0 0
240 2 3.880243342772613 8.788102025821555 1.0839491823915144 0 0 0
244 1 0.5793069075662127 9.88865574889132 5.137243448121617 0 0 0
245 2 0.9664056062064164 9.541119266378852 4.330844080050333 0 0 0
283 1 10.483412095413911 8.775419495326803 2.656711844323543 0 0 0
285 2 9.77995003368103 8.154321416998894 2.553771876484691 0 0 0
288 2 8.454107769771928 8.36243959152549 7.146616172905486 0 0 0
319 1 6.570204788592722 7.832189438070971 8.392122365635855 0 0 0
66 2 2.6101384225829234 7.633189824249489 9.033487918763756 0 0 0
21 2 1.0345503018166804 2.1204093649335203 1.0391774289942455 0 0 0
321 2 7.212983051092911 7.182229588931489 8.771727396399633 0 0 0
120 2 9.51496829753823 1.0504557379994524 6.457039231225259 0 0 0
192 2 0.5512318958093767 9.991630253489769 8.851348728715166 0 0 0
5 2 4.976210523275682 1.258488391650756 4.813242491692868 0 0 0
153 2 6.662353891548542 1.0949694299767785 9.096038458205983 0 0 0
320 2 6.721770302895665 8.622071764617875 9.023889640775007 0 0 0
115 1 10.368853661217875 1.2901822491812933 2.787224536282154 0 0 0
118 1 9.438571907068027 0.7056634642263306 7.363798262750677 0 0 0
130 1 10.932342502375521 5.176902170084064 2.491982951491411 0 0 0
160 1 9.607107076156577 2.647329466768612 4.950758654710272 0 0 0
162 2 10.004938438765231 2.107865845206742 4.225775407923796 0 0 0
284 2 10.370295807297856 9.222544538316438 3.5485523760814988 0 0 0
329 2 9.655982353192465 9.67918080250634 5.701691791610537 0 0 0
286 1 9.36435467489317 8.592656347597606 7.110627633809798 0 0 0
328 1 9.986242380049772 10.076934810149027 4.919671144755843 0 0 0
14 2 5.468710222076278 4.918240091269841 8.627101161773876 0 0 0
63 2 8.390883119889413 6.458653868456384 1.2919653564532219 0 0 0
210 2 3.8761818562674373 9.292139554852012 6.756590635518235 0 0 0
70 1 3.906903695994963 0.6345795107649803 1.7498922333835127 0 0 0
272 2 10.010242782951972 9.643423115405069 1.30738025777991 0 0 0
330 2 9.21897788111779 10.409845710939805 4.39383862593636 0 0 0
585 2 3.7752258441937676 1.9138343228159724 8.80942864911573 0 0 0
132 2 11.012269953122876 5.748101039303259 3.300636429183661 0 0 0
94 1 11.268505580065254 6.4463743074600774 4.941539836993136 0 0 0
119 2 9.51082502145517 1.439667899986568 7.985256250566285 0 0 0
131 2 11.532484986777758 4.438065719488895 2.6708862317046167 0 0 0
161 2 10.339726576579134 2.986776840846289 5.541444237722987 0 0 0
287 2 9.836774865015313 7.74126390591391 7.107525976790062 0 0 0
144 2 10.733234948620606 4.18247008642335 7.095488202257501 0 0 0
323 2 12.276598016528801 8.438308742269768 2.249363774413719 0 0 0
276 2 9.854219883192808 9.60323172462052 8.931601695803566 0 0 0
96 2 11.639000313953744 5.664566064036257 5.37805044182717 0 0 0
95 2 11.90467437089447 7.188826121151311 5.096111182852225 0 0 0
322 1 12.847142742126755 8.23138792976541 1.4685068518999265 0 0 0
142 1 11.455647834927401 3.941523664017002 6.491966541236953 0 0 0
155 2 12.682529440164753 1.5330792063161325 1.0889798578420362 0 0 0
148 1 11.549904724751613 6.995198970819178 8.377726727617937 0 0 0
149 2 11.452519219921843 6.0782498786971395 8.764862983221215 0 0 0
324 2 12.283630123616911 7.619663777502649 0.960981838429663 0 0 0
136 1 12.546602812817236 3.1897869533498513 3.6517108897456585 0 0 0
143 2 12.07760593431402 3.4777414535161046 7.0081323955088495 0 0 0
246 2 1.2057444903930643 10.586521550595402 5.360593639073132 0 0 0
32 2 2.3205455241281223 1.0602339273610555 2.4539765406158125 0 0 0
221 2 4.509540465303027 10.743516448867583 2.6876305495358617 0 0 0
35 2 -0.747541002859434 0.9735691748595001 7.375865140906389 0 0 0
167 2 10.960634639974943 5.8561255694133285 1.029812577201667 0 0 0
671 2 8.709952235246915 5.380549584552062 8.933713239846105 0 0 0
219 2 5.838307683667999 10.371661503785434 6.9647398751408565 0 0 0
602 2 16.122117995496534 4.598553233473359 0.3735176142314666 0 0 0
273 2 10.965146029132821 10.382131137863853 0.3552689414471312 0 0 1
601 1 17.11236609968676 4.6726373602100075 0.24602838521891643 0 0 1
68 2 -2.3152486886420762 1.0446625197175146 8.804037121357718 0 0 0
83 2 2.187495787737076 5.404091210653292 0.6470937737384709 0 0 0
89 2 12.64093777321819 1.6623683004952898 4.514487677699957 0 0 0
258 2 12.446370172268852 9.326910843063288 5.048834060752963 0 0 0
138 2 13.439351563742875 3.0094886349127705 3.4235801785240936 0 0 0
150 2 11.970856333302534 7.6281712351856115 8.940762653369543 0 0 0
256 1 12.694572595668554 8.65347048390614 5.6503071045416196 0 0 0
88 1 12.819969653660628 0.8809949496929502 5.10211594469151 0 0 0
137 2 12.607489870135336 3.8206813982316525 4.337717237992094 0 0 0
101 2 14.161809907147441 5.384601003503736 1.1225628718356915 0 0 0
113 2 14.08258176671747 7.115858355413529 2.2864893479521715 0 0 0
9 2 -1.2950152087807567 6.996117218120961 5.077276680102972 0 0 0
587 2 -1.2368078380944956 6.93579856617059 9.457158119255231 0 0 0
56 2 -1.0461699190022438 4.928106184649361 3.9254112044054437 0 0 0
235 1 -2.2296673292719715 8.338031604413784 8.351130677825966 0 0 0
776 2 7.958084794779796 10.330208441252845 9.715360615997778 0 0 0
306 2 13.519641096465799 10.507732994633693 3.3171984874354887 0 0 0
152 2 7.630140550042526 0.6629743497146506 7.926993934885807 0 0 0
71 2 3.611892967657703 0.0912263797744188 0.9493354614230057 0 1 0
146 2 17.253825101749783 6.136799352543156 1.2308328347192903 0 0 0
67 1 -2.1090920526415995 0.27862794638695754 8.233937731004128 0 0 0
271 1 10.020707988306489 10.170520073592996 0.46208049914900434 0 0 0
151 1 6.84598531302245 0.4338068618874379 8.459390999007372 0 0 0
751 1 3.7483989443232026 8.634285142276978 9.69825881060943 0 0 0
80 2 6.8467942555122825 2.065883986071318 0.6662359727006626 0 0 0
247 1 6.9019352880937035 8.812474379960646 0.34476076750406665 0 0 0
55 1 -0.903072399337524 4.124611482016117 3.4404681626444438 0 0 0
304 1 12.845804546797524 10.848847449530647 3.928187334606444 0 0 0
84 2 3.0444888821414944 6.645266220812824 0.6514615279069474 0 0 0
521 2 1.9905800798656956 5.328284919490133 9.242375462166628 0 0 0
220 1 3.910913855508595 11.130965915775514 3.322290647112949 0 0 0
236 2 -2.4140576489578214 8.971374737360861 9.005731017586385 0 0 0
134 2 14.87188310357987 4.020133608451526 5.756887372397973 0 0 0
290 2 15.747160029867356 10.359918004437976 3.0533539748659417 0 0 0
217 1 6.5920625176366805 10.627790069382288 6.359709828335285 0 0 0
753 2 3.90640961535008 9.186725133949396 8.878514630020153 0 0 0
2 2 7.094724426166358 0.45343260221798554 4.794499629802709 0 0 0
69 2 15.016590341513117 -0.009384970810356757 7.815894618147803 0 0 0
100 1 14.455106200099424 4.974939360687279 0.27132157235619475 0 0 0
97 1 14.107296389618261 4.437090265691718 9.701734451987654 0 0 0
237 2 15.049762817125297 7.830290666821822 8.014092918915052 0 0 0
584 2 2.90461716528979 0.8094524189001909 9.52072831831016 0 0 0
301 1 15.633013853821483 10.785244859799391 6.591282891824592 0 0 0
302 2 15.243840970727534 10.188060486871889 7.188957822107208 0 0 0
117 2 10.007226498197914 0.4413163432987653 2.4104769909384767 0 0 0
209 2 3.4630790439477455 10.71141794528833 7.254756444322938 0 0 0
166 1 11.314445420670546 6.250288426124562 0.19758875982581287 0 0 1
156 2 12.29656261793018 0.9325435283344711 2.4049191835816037 0 0 0
110 2 14.254200940658862 5.628139011538379 7.95513399436642 0 0 0
253 1 15.305198903993618 8.329672150588381 5.071828171382742 0 0 0
190 1 0.5557338303340666 10.504721215056033 9.690439309537183 0 0 0
122 2 15.799124972253903 3.116395890269203 2.9529791098041334 0 0 0
248 2 7.587138186586814 8.244136953559382 0.7129209927741867 0 0 0
399 2 8.235457621861476 0.4133002727387774 0.9688868529551385 0 0 0
114 2 15.453420938562278 6.444527328081755 2.376402776186906 0 0 0
163 1 15.863705333292026 1.534657449691214 0.3939037264988141 0 0 0
154 1 12.842075369812807 0.6944296984549793 1.6383391225514932 0 0 0
165 2 16.567047627919326 1.0308688469126186 0.7875274895346903 0 0 0
99 2 13.134072269349955 4.261046439057207 9.602457350177607 0 0 0
293 2 12.252149529161555 11.149397247895182 7.357235075679347 0 0 0
126 2 12.958580176259805 1.5152779845360482 7.039508350673448 0 0 0
294 2 12.848950569445453 9.747529246517786 7.10166676714088 0 0 0
90 2 13.731208998058385 0.6545041010574458 4.86974241740503 0 0 0
111 2 13.314046102483324 6.699996543157112 7.404511101735273 0 0 0
159 2 13.896989794699712 5.760256583941102 5.871808758998346 0 0 0
257 2 13.622161175751055 8.518604472069734 5.456390985256524 0 0 0
123 2 15.209372618631633 2.174052336762342 1.9178008132691293 0 0 0
112 1 14.493969493401158 6.3033297840326945 2.592098626362512 0 0 0
158 2 14.167036290698398 5.752683095528423 4.255325740751892 0 0 0
145 1 17.13227833431597 6.998234990708131 1.7208559753239208 0 0 0
147 2 16.67777074330862 7.588197111218024 1.1182286508789403 0 0 0
520 1 2.2505706346416727 4.471932531452313 9.633492517944184 0 0 0
292 1 12.99146573279175 10.549734411049327 7.598271670523741 0 0 0
124 1 13.232574594323317 2.1471192060921362 7.773194367622078 0 0 0
157 1 13.898938805472833 5.238041788165846 5.037264158821196 0 0 0
668 2 12.732465812246858 1.7735592222260574 9.27487587796071 0 0 0
289 1 15.034652345906359 9.730557786899924 2.819095196610086 0 0 0
291 2 15.275520426248276 9.455800353054553 1.8784066538190902 0 0 0
109 1 14.276189821642529 6.373408930622255 7.35748020359943 0 0 0
121 1 15.027735956483031 2.5292534383808962 2.828743211367576 0 0 0
836 2 13.25471978308685 9.560838326834341 9.356655579059332 0 0 0
125 2 14.051786892541715 2.6498227017788687 7.391894970275375 0 0 0
255 2 15.221054953042543 8.583403939596018 4.071933489795147 0 0 0
85 1 15.50298775354195 0.8111797982561219 5.130448565516028 0 0 0
87 2 15.915019355695069 0.8502409823382846 4.2467499541682185 0 0 0
254 2 15.841542265310459 9.028623660514226 5.3982001504395445 0 0 0
583 1 3.5858061155601657 1.4429836609043436 9.68205079400961 0 0 0
133 1 15.375088157440391 3.3498078956028103 6.387542565100192 0 0 0
15 2 4.212796782429649 4.3739401046780015 9.23148630050098 0 0 0
103 1 10.029506743343045 2.995495332073265 0.3549307162588532 0 0 0
670 1 8.30786825352668 5.956060311925747 9.67293256722732 0 0 0
309 2 7.571799340578707 10.865420649355332 3.1264709510338857 0 0 0
20 2 18.13395048359833 3.175317010965712 0.32818957532014165 -1 0 0
224 2 -0.3960691427975532 11.046381591561554 4.159583206666174 0 0 0
135 2 15.547239550415101 2.6166495426280436 5.765012504542724 0 0 0
13 1 5.107255966776475 4.609897507802409 9.462877719292235 0 0 0
780 2 12.982741945373373 9.603217254571607 0.6348306971612047 0 0 0
604 1 11.419424399906283 4.536381549626203 9.741503052573998 0 0 0
218 2 7.141971717912829 11.192493759985386 6.875041179185121 0 0 0
483 2 0.14339639383683767 0.03492669286329319 2.0308419722291684 1 1 0
805 1 12.610456107142172 10.552305603514471 15.821813759440076 0 0 0
797 2 11.014637343144079 10.12751877378391 16.785359935956826 0 0 0
654 2 7.798961411389637 5.844715977517325 18.101816836479458 0 0 0
509 2 0.036188618965856706 0.18265404921650513 14.544611828105554 0 0 0
79 1 0.48824525269337216 1.478717160267605 18.95076431284755 0 0 0
837 2 12.603155444898226 8.99046516402441 10.652655151936598 0 0 0
82 1 -3.971644236316181 5.901373983147288 19.168694037190683 0 0 0
574 1 0.7042284084931354 0.08632775258585808 11.199898501906903 0 0 0
620 2 6.373370444851723 0.5312762617522396 12.22309400717665 0 0 0
711 2 2.1745099391460276 10.723069601611545 11.996039005453087 0 0 0
835 1 13.001744019393865 8.713736053849427 9.802814763369586 0 0 0
609 2 6.684964539826303 2.4543251214025714 11.152425352472987 0 0 0
658 1 9.31055186546351 0.39801134302452923 11.268665697896907 0 0 0
752 2 3.472589447983155 9.356791617705339 10.34424119216874 0 0 0
189 2 -4.273526269419335 10.303595692692628 19.100669063921337 0 0 -1
608 2 6.174747071292491 3.3400604640790634 9.925743638793028 0 0 0
606 2 10.769841512495123 3.817918492929539 9.80756839294334 0 0 0
810 2 8.956745819095866 10.989345937843794 12.659363751089558 0 0 0
505 1 3.24056422652641 0.692398448333936 14.152800848369488 0 0 0
506 2 3.4143223650310417 1.241268534447619 14.91335110312632 0 0 0
749 2 -1.7578458506347854 10.34394086916772 14.611923600425126 0 0 0
508 1 0.5804054168107518 1.0070024339276467 14.73391320350482 0 0 0
168 2 4.242052007180738 6.797141106920413 18.86202842185608 0 0 0
527 2 -2.572713158124704 2.042498343261698 18.291069719017045 0 0 0
511 1 -3.7279290261403877 6.322876705563777 14.703178502068086 0 0 0
512 2 -3.925281390002723 5.675033723680876 14.012851711540153 0 0 0
513 2 -3.7386104525060553 5.820589644753192 15.522392218850715 0 0 0
514 1 -0.8849196897373588 6.44398355330593 14.16558691462622 0 0 0
515 2 -0.791381181044569 5.577880409825357 14.63998182625946 0 0 0
516 2 -1.8620607273096172 6.593591541483283 14.165396702818272 0 0 0
332 2 9.68789300895256 9.127999399022247 18.756638392020662 0 0 0
519 2 1.7688167064392644 5.5621584777981745 18.238766170897744 0 0 0
828 2 8.732840308633563 7.953023450450955 11.65670888604376 0 0 0
522 2 2.2380473696313667 4.765018018109669 10.591534327548885 0 0 0
834 2 5.930789484929572 10.85134465370686 14.101744749618762 0 0 0
19 1 -5.618129165475319 2.4701033501326566 19.311923825372297 0 0 -1
510 2 1.468830431415702 0.7202251186170556 14.366110256284784 0 0 0
798 2 9.94170785403686 9.092580753066807 16.604112368325648 0 0 0
809 2 10.24171085235519 10.161587201060335 12.510043801426162 0 0 0
529 1 1.6285053496185313 6.6349347798366525 16.435604880128565 0 0 0
530 2 1.7216498269116358 5.9410336196332745 15.792594314459354 0 0 0
531 2 0.646173127032927 6.719444055324156 16.59263163243917 0 0 0
532 1 2.332584404321509 6.2637585398141375 11.960031609526743 0 0 0
533 2 3.3330408302484584 6.224274004351233 11.826922415322816 0 0 0
534 2 2.2205069081876645 5.891656685806225 12.867609947838828 0 0 0
535 1 -1.9026370102043455 0.7423429875071393 12.2651201483976 0 0 0
525 2 -2.2735024622488806 2.1231261762729923 10.802469208169036 0 0 0
331 1 9.233402611252778 8.448180146077405 19.300803324031925 0 0 -1
538 1 -2.678699615768291 1.0215592944046459 16.951211654206016 0 0 0
623 2 5.119540461814872 0.7285147440738274 17.031835225965374 0 0 0
540 2 -2.640112879714821 1.5658439952988803 16.130179131477448 0 0 0
541 1 2.913116046915395 2.538092744046198 12.284237216879005 0 0 0
542 2 3.01491798914081 1.80447747775564 12.913910591304878 0 0 0
543 2 2.9674520014876533 2.2206632094947105 11.35610318108071 0 0 0
544 1 0.9898763529909311 2.7815377855332755 16.752952709750513 0 0 0
545 2 0.727737764217647 2.4276790686091476 17.678799318113516 0 0 0
546 2 0.8796740127222407 1.9416519019462235 16.17256338738592 0 0 0
547 1 -3.5478198203696802 4.703311408584522 16.8275735462753 0 0 0
548 2 -4.196731434533801 4.030498666849085 16.52362554466299 0 0 0
549 2 -3.8792555297630806 5.050188382432615 17.67973252979591 0 0 0
550 1 -1.6766251469296662 4.979789019358001 11.996695215650268 0 0 0
551 2 -1.1582835612642028 4.195182603132661 12.134494113642477 0 0 0
552 2 -1.3339147696475384 5.53698091353633 12.746777629306468 0 0 0
553 1 3.501357257380067 2.9870141248319366 15.791376685423264 0 0 0
554 2 2.6746301027541257 3.0067632126786945 16.322354740760883 0 0 0
555 2 4.12009138799566 3.6735113072966743 16.16660208187534 0 0 0
556 1 0.3987019604233163 3.1500369172480425 12.942141754015026 0 0 0
557 2 1.3291039174926107 3.0580394124857317 12.641852282160693 0 0 0
558 2 0.17484952491613853 2.2973252581706056 13.395474351155764 0 0 0
559 1 -4.00358321489297 4.055835236232317 13.201280231979906 0 0 0
560 2 -3.1430276501677508 4.367865812803536 12.750659831997453 0 0 0
561 2 -3.689636862747906 3.256940743209 13.677076805576046 0 0 0
562 1 -1.2580114937320743 4.080215923668447 15.51904393730821 0 0 0
563 2 -0.4822749604188114 3.6482214399511514 16.01349979563406 0 0 0
564 2 -2.044552121112243 4.221842034333191 16.045575100713993 0 0 0
565 1 4.937346251294011 6.7319386947451765 11.228419292762196 0 0 0
743 2 0.418943559450736 7.346822601114085 10.706635472340267 0 0 0
669 2 12.26600180070189 1.9774867903945013 10.804556722573533 0 0 0
568 1 -1.0541035417419398 7.118207879057293 17.701090572002183 0 0 0
603 2 10.600841746091511 4.937934782377443 18.47232769832965 0 0 0
721 1 3.5434565582306483 10.872318670571763 15.924897298128897 0 0 0
672 2 9.09208191819202 6.5390071571048445 9.986253309339832 0 0 0
572 2 -5.4557555698958655 0.9423510967626216 18.25189965388613 0 0 0
827 2 9.988555268392627 7.060318769656781 11.702158612824414 0 0 0
570 2 -0.816879151926224 7.5022033373359855 18.56386214537113 0 0 0
576 2 0.7509004825351471 0.9070368689323429 10.72597171330226 0 0 0
577 1 1.854243018406368 4.92570292147016 14.491690391400121 0 0 0
578 2 1.2473315118722648 4.244200300692223 14.085845005218061 0 0 0
579 2 2.55049115783831 4.374898852573816 14.950981875967292 0 0 0
580 1 -2.644641834380328 2.072604197267746 14.415314083594366 0 0 0
581 2 -2.539377801925101 1.444712665395941 13.64886921530085 0 0 0
582 2 -1.9048282592581793 2.6941278614246595 14.459084087619935 0 0 0
22 1 0.42193913220344326 2.383217412797565 9.834859314821662 0 0 0
612 2 5.184924237579569 2.9258103240877142 19.312722508694495 0 0 -1
589 1 12.089410337304372 0.8280460985284601 14.317261741089325 0 0 0
17 2 -1.6491660235114587 3.8202694333362808 19.25124079623287 0 0 -1
591 2 12.607392030580591 1.4692129189530574 14.866577188601232 0 0 0
592 1 9.415912404675932 1.2189085416866758 14.827493718602168 0 0 0
826 1 9.5262112847261 7.754182125649145 11.151877960641718 0 0 0
594 2 9.415646106674012 1.8853134490901584 14.10926955737949 0 0 0
595 1 4.842669159617831 6.538501612589129 14.684557400158043 0 0 0
596 2 4.620286318504387 6.2814631844997235 15.575804966418657 0 0 0
597 2 4.604152689356513 5.748795447139349 14.116059732203148 0 0 0
598 1 7.52237758307747 6.575508651692673 14.463157759461195 0 0 0
599 2 6.5447682672338745 6.772775403838476 14.66530628904642 0 0 0
600 2 7.426440228184428 6.138035998577166 13.58370659130631 0 0 0
105 2 3.1301213033320407 2.0931768888190296 19.00527827575479 0 0 0
106 1 9.693501228737135 2.744678234736733 9.93496475974491 0 0 0
607 1 6.894047834124462 2.696022745771511 10.194048714830998 0 0 0
605 2 11.424501704030737 5.017809636332726 10.548480131174273 0 0 0
832 1 6.373012800686707 10.108675191719673 14.495907291843487 0 0 0
686 2 2.388310345777076 11.06561365470543 19.210635757250177 0 0 -1
825 2 3.579232030634532 8.660671018116519 18.708602427735975 0 0 0
590 2 11.173905869316052 0.8517039954288844 14.640573232876816 0 0 0
566 2 5.130639406956951 6.19049470399052 10.499173423699592 0 0 0
611 2 6.271712156040141 2.316340094523303 18.429239921321663 0 0 0
613 1 10.832254778236505 6.140432532215518 16.735128711570344 0 0 0
614 2 11.56007904528541 6.8038659372600545 16.976203950867486 0 0 0
615 2 9.975162945276344 6.629068762361823 16.878515297244455 0 0 0
616 1 11.586498123212316 6.056319601111752 12.032591503827915 0 0 0
617 2 11.508275572573393 5.609979203507947 12.883234282068733 0 0 0
618 2 12.5289369391075 6.297655645966115 11.897190873436468 0 0 0
619 1 7.031942111396401 1.2018726994055584 12.489010923980802 0 0 0
621 2 7.906326851560317 0.8871802215851354 12.12220957665223 0 0 0
191 2 0.6888831246791997 9.802714416532478 10.381687634851353 0 0 0
622 1 5.968078747117382 1.1466314716877792 16.952298670317457 0 0 0
249 2 0.613991035219249 9.159959771816673 18.65575082962159 0 0 0
624 2 6.081643575197604 1.475150028890444 16.021637472304715 0 0 0
625 1 11.883001644597538 2.545410939735586 12.235683578832143 0 0 0
626 2 11.818829895032584 1.9375268475326954 12.966728382696372 0 0 0
627 2 12.59610254054184 3.1856381782363914 12.500554495238884 0 0 0
628 1 9.804331889616796 2.7564677875812422 17.119382746464186 0 0 0
629 2 9.731546899780358 2.123754370397648 17.88849746477113 0 0 0
630 2 9.676163015929728 2.1424860514906285 16.339042330009782 0 0 0
631 1 4.9716205845825 4.906684894651797 16.935321816545734 0 0 0
632 2 4.905483350562736 4.904796822165545 17.88958732457064 0 0 0
633 2 5.912970788693601 4.702009933840416 16.747346494244947 0 0 0
634 1 7.27166206707323 5.294850014337622 12.139180923177186 0 0 0
635 2 6.340860046025735 5.069371730381916 12.125453792696351 0 0 0
636 2 7.559468937883009 5.621741423532746 11.226703161131985 0 0 0
637 1 12.475343271955863 3.0602499330443345 16.20105989205151 0 0 0
638 2 12.127215112724738 3.7082211026382037 15.574702579203963 0 0 0
639 2 11.716364123103677 2.915937935178136 16.8632158883351 0 0 0
640 1 9.319092768488893 3.554946624316748 12.987733632362739 0 0 0
641 2 8.583696332116254 3.958209897696574 12.515143125172536 0 0 0
642 2 10.006555994598028 3.5059656992514006 12.358304380475422 0 0 0
643 1 4.988083985532355 4.257666173346791 13.109568620587833 0 0 0
644 2 4.34355732072339 3.6908983424534902 12.637713106097326 0 0 0
645 2 5.312113097301194 3.643876876722904 13.825590615568387 0 0 0
646 1 7.654236795759587 4.129702570495668 16.154931593498624 0 0 0
647 2 8.466565135028139 4.083929363080788 16.74453684396905 0 0 0
648 2 7.637140475434757 5.088769329502824 15.802787556759661 0 0 0
649 1 14.044890642832913 6.793753778922943 11.20027593751384 0 0 0
650 2 13.891894349720381 7.666830117632339 10.745630445642155 0 0 0
651 2 -3.1585667708980707 6.939500061303832 11.734057436272572 0 0 0
652 1 8.176271646234524 6.573929665860098 17.490435046440524 0 0 0
653 2 7.483630768108398 7.143222550689024 17.302265567535425 0 0 0
16 1 -0.9333027209632332 4.476176150049835 19.21578646445407 0 0 -1
808 1 9.622800572389203 10.509402037895068 13.154026875115466 0 0 0
986 2 13.635759722226782 0.13913565201934922 10.832439073554305 0 0 0
661 1 11.124117214391031 5.00299765609507 14.66106156244771 0 0 0
662 2 10.793830486909027 5.583124876336483 15.400195033969752 0 0 0
663 2 10.396945533841404 4.471312583199086 14.311918681412585 0 0 0
664 1 6.3348875525255925 2.513836512032521 14.726437987119647 0 0 0
665 2 6.930442281065808 3.2122735054440037 15.162951473220959 0 0 0
666 2 6.834058823120238 2.084563544900294 14.011431616349336 0 0 0
667 1 12.535582310993558 1.2553563179263734 10.142237282486274 0 0 0
796 1 10.207532725850502 9.797540077026087 17.22264221809119 0 0 0
778 1 6.209774218760258 10.180570067152994 19.092564677687154 0 0 0
673 1 3.391516790345264 8.922481199799016 14.094634271055632 0 0 0
674 2 3.8650325985647616 8.103994615690963 14.364558165832104 0 0 0
675 2 3.517631991327517 9.71602605785192 14.700834380927631 0 0 0
676 1 0.44183086651205383 8.95283781416917 14.268915244441043 0 0 0
677 2 1.3747649410693719 8.881124496499377 14.220991562886136 0 0 0
678 2 0.14349115093315437 8.056291533929102 14.112937398204277 0 0 0
537 2 -0.984931331869487 0.3953083433375083 12.13624093890184 0 0 0
903 2 4.440962847801302 0.24409805918987096 10.559525376821536 0 0 0
187 1 -5.2543899769177775 10.169927878318664 19.225821926200823 0 0 -1
807 2 12.426922360028975 9.605800227303671 15.547040118465285 0 0 0
695 2 -2.6536800789546517 9.748725207653747 17.953140164984724 0 0 0
275 2 9.681217323571131 9.172500191544843 10.332897441440709 0 0 0
703 1 -1.7849383935540275 8.516088605800652 11.782560814638899 0 0 0
704 2 -1.9672318794748997 9.377339956221205 11.283896480097498 0 0 0
705 2 -0.8502369889466372 8.261541527924438 11.649213093157588 0 0 0
706 1 -2.8613079147846885 8.732576484085174 16.46277129523286 0 0 0
707 2 -2.7481222846124966 8.915538996962487 15.518426859714879 0 0 0
708 2 -2.0604032244141806 8.219951897868484 16.66054952354714 0 0 0
709 1 3.0572427808002947 10.311532219823889 11.807038917482629 0 0 0
710 2 3.128459281246275 9.631856334247166 12.544476687262565 0 0 0
795 2 12.174176313396378 9.217267460471506 12.917681347395972 0 0 0
712 1 0.737815936543694 9.916943089816899 16.902609298313216 0 0 0
713 2 0.5631776641355499 9.37274672778119 16.07102521941621 0 0 0
794 2 12.639557799598172 10.47761213438628 12.33835074566254 0 0 0
569 2 -1.44679972022092 6.2351936569709885 17.977672109271474 0 0 0
693 2 -1.4840538395146412 10.712886611363482 9.981788020751676 0 0 0
696 2 -2.103349902078417 10.771729181486329 19.043252505302004 0 0 0
726 2 0.20818234957669482 10.574945974014893 13.193178989091509 0 0 0
823 1 3.5895404281594 7.871037175465517 18.12429792004248 0 0 0
655 1 3.4270913185958825 0.3301378455091973 17.903440425969162 0 0 0
739 1 -5.18940018683597 7.937601082506197 17.516559994365874 0 0 0