LAMMPS data file via write_data, version 15 Apr 2020, timestep = 200000

972 atoms
2 atom types

1.3965840488201309e-01 1.9851394595120130e+01 xlo xhi
5.2475036423826893e-02 1.9938577963576549e+01 ylo yhi
2.0241259460255101e-01 2.0598359405396174e+01 zlo zhi
-2.8630718096747043e-01 1.3297007189121882e-01 -1.4272357163566260e-01 xy xz yz

Masses

1 16
2 2

Atoms # atomic

4 1 4.0717748443419834e+00 1.0975412625260819e+00 3.5960643982331550e+00 0 0 0
5 2 4.2114515221649915e+00 1.8560581864808232e+00 3.0273517122897209e+00 0 0 0
6 2 3.1885390345274924e+00 1.1224408831956021e+00 4.0224291057885022e+00 0 0 0
7 1 5.6884908938757306e+00 4.4392747173463034e+00 5.4480242966784722e+00 0 0 0
8 2 6.5959379400448048e+00 4.3546705972099762e+00 4.9744794545452145e+00 0 0 0
9 2 5.1689392105223124e+00 4.1678176342282889e+00 4.6519353921005342e+00 0 0 0
10 1 1.2677205514440308e+00 4.1240392717147758e+00 3.9707958928397575e+00 0 0 0
59 2 8.9401401357783996e+00 9.5577068000078091e-01 4.6369895115484949e+00 0 0 0
12 2 1.2770408196105330e+00 4.8990966741723909e+00 3.3842368336775785e+00 0 0 0
13 1 4.8423714679027396e+00 6.2184040663253564e+00 1.7717863470643256e+00 0 0 0
14 2 4.5951429078000450e+00 6.9906930395354685e+00 2.2678482039913082e+00 0 0 0
15 2 4.4693353119694974e+00 6.3321518046721641e+00 8.3814966917880218e-01 0 0 0
16 1 4.0327855876733008e+00 3.8671845154701452e+00 3.2606151107195291e+00 0 0 0
17 2 4.2353932110407086e+00 4.5631512231197213e+00 2.6079250258945210e+00 0 0 0
18 2 3.0951513987759198e+00 4.0866104173763711e+00 3.5164875328611376e+00 0 0 0
19 1 8.9320411140363509e-01 6.0331806716374050e+00 2.0359394775603201e+00 0 0 0
20 2 1.0560681024271448e+00 7.0400865490284694e+00 2.2268705212035771e+00 0 0 0
22 1 1.8630109392161633e+00 1.1628723553101583e+00 5.0056843938250450e+00 0 0 0
23 2 8.7567248458767932e-01 9.8377571775956418e-01 5.1859627870438674e+00 0 0 0
24 2 2.1499257845528130e+00 1.9614928591623837e+00 5.4715000633493185e+00 0 0 0
25 1 2.4385655108851467e+00 5.8576334034674211e+00 6.8891282626489483e+00 0 0 0
26 2 2.4499022267823696e+00 6.3917495222311400e+00 6.0547132405494084e+00 0 0 0
27 2 3.1554209935277155e+00 6.2655518322852739e+00 7.4828212818720727e+00 0 0 0
28 1 5.8161425388379202e+00 4.3440395704949342e-01 5.5882504786118012e+00 0 0 0
29 2 5.2977540913390921e+00 5.9173777614286582e-01 4.7629652715068609e+00 0 0 0
30 2 5.6314896582940239e+00 1.9331049821162424e+01 5.5745889762474006e+00 0 0 0
31 1 1.0171374809596014e+00 1.9867202525201368e+00 2.2521562215636943e+00 0 0 0
335 2 1.1955422933883910e+00 3.8143383799442918e+00 1.0157332209540785e+01 0 0 0
33 2 8.9902271675011092e-01 2.7782185676099882e+00 2.8075328731744946e+00 0 0 0
392 2 7.3157257254314247e+00 2.8122350825806279e+00 1.0046124143019769e+01 0 0 0
35 2 5.4936823164479271e+00 2.7102792655816064e+00 9.7381517984670785e-01 0 0 0
46 1 8.1522077408548199e+00 3.9797843735684593e+00 3.9670211762984122e+00 0 0 0
47 2 9.1071035953184758e+00 3.7573311245393448e+00 3.9165048340617350e+00 0 0 0
48 2 8.1028753753665814e+00 4.7269816449318647e+00 3.3838192207157580e+00 0 0 0
55 1 7.3330183695835176e+00 5.8951526553787241e+00 2.3341166214991098e+00 0 0 0
56 2 7.4982492525925606e+00 6.8168545937170117e+00 2.4541535775615801e+00 0 0 0
57 2 6.4110005770819960e+00 5.9136727227565933e+00 2.1743447239754969e+00 0 0 0
58 1 8.5779783094981408e+00 1.0999807631580538e+00 5.5207505990928389e+00 0 0 0
150 2 9.8634767354356931e+00 7.5505590129292308e+00 4.1644942313152953e+00 0 0 0
60 2 7.6055931970105393e+00 1.0556998342147301e+00 5.4998947291632625e+00 0 0 0
147 2 8.6904606485825280e+00 9.0154486432819763e+00 8.5570622937707097e-01 0 0 0
62 2 9.2905183676528154e+00 4.4635375959450068e+00 7.0230221364616483e+00 0 0 0
63 2 8.6506076368983269e+00 5.7098860813760535e+00 7.8431518789144423e+00 0 0 0
67 1 7.1317225761066068e+00 2.4847231786657957e+00 2.1229028084840014e+00 0 0 0
68 2 7.4056539422831049e+00 3.1335806375416695e+00 2.7836734849396336e+00 0 0 0
69 2 7.7450431081480389e+00 2.6622831979625792e+00 1.3880807747606003e+00 0 0 0
343 1 6.8550863760014946e-01 6.2498524955272483e+00 8.9708577740159043e+00 0 0 0
609 2 7.0609430327864668e+00 1.6017244466663971e+01 9.5050760638416900e+00 0 0 0
572 2 2.5329565417389677e-02 1.5688195002879258e+01 8.7248057259604952e+00 0 0 0
112 1 4.4896730089258821e+00 8.1587196801413171e+00 3.5682964115868909e+00 0 0 0
113 2 5.1856771059330784e+00 7.9353281484118838e+00 4.2401651389304487e+00 0 0 0
114 2 4.6420053680181717e+00 9.0599999794725701e+00 3.3209742912096329e+00 0 0 0
115 1 5.7382460770816355e+00 1.1017384627369374e+01 5.6471275799675862e+00 0 0 0
116 2 5.6403527141731447e+00 1.1981975328413615e+01 5.6912183304542046e+00 0 0 0
117 2 5.4014558750016715e+00 1.0661300579887001e+01 6.4670891377153463e+00 0 0 0
118 1 1.3028669788138179e+00 1.0773873034985472e+01 3.7472518724804962e+00 0 0 0
119 2 9.2796243219728070e-01 1.0703564451996714e+01 4.6623386407705736e+00 0 0 0
120 2 2.3017927704532801e+00 1.0707282809420642e+01 3.7831776058044038e+00 0 0 0
121 1 4.4300413594192891e+00 1.2743039260740845e+01 1.8307812851688772e+00 0 0 0
122 2 5.3505093464854090e+00 1.2795976738273959e+01 1.5782658311352438e+00 0 0 0
123 2 3.8523413595414504e+00 1.2725988712191404e+01 9.8668606595633479e-01 0 0 0
124 1 3.9816763234733332e+00 1.0823674452593352e+01 3.6086940197371744e+00 0 0 0
125 2 4.0338770671385147e+00 1.1596585522705556e+01 3.0387996917787983e+00 0 0 0
126 2 4.4810841787000228e+00 1.1118551219701290e+01 4.4485220398062326e+00 0 0 0
127 1 5.8651245652891426e-01 1.2950140891690323e+01 2.0829867668977817e+00 0 0 0
128 2 1.2996487124843767e+00 1.2749596076928155e+01 1.4272830457924814e+00 0 0 0
129 2 5.8579684865246873e-01 1.2204618978342161e+01 2.7807804735735551e+00 0 0 0
130 1 2.2251509005245751e+00 7.8600703575801560e+00 5.0486202347185456e+00 0 0 0
131 2 2.9807156512890018e+00 7.9131535252140841e+00 4.3775685749266557e+00 0 0 0
132 2 2.3737990037255390e+00 8.5010505728312680e+00 5.7398514617316181e+00 0 0 0
133 1 2.4597074641971464e+00 1.1879173336069982e+01 6.8500929822975483e+00 0 0 0
134 2 1.8070399579542256e+00 1.2395424847814365e+01 7.3636849030025564e+00 0 0 0
135 2 2.5015310796039238e+00 1.2497304767518697e+01 6.0520876693384658e+00 0 0 0
136 1 6.0810546178470695e+00 7.2259986493174440e+00 5.5614061655910501e+00 0 0 0
137 2 5.9378247217875835e+00 6.2301120212277299e+00 5.4913393156390091e+00 0 0 0
138 2 7.0745599471179013e+00 7.3278448215997010e+00 5.5356649396776270e+00 0 0 0
139 1 9.1215545550055532e-01 8.6062639707783326e+00 2.3330991077262007e+00 0 0 0
140 2 9.9757943778116343e-01 9.4454023099491717e+00 2.9364501218441355e+00 0 0 0
61 1 9.2255696537938015e+00 5.4485393821077892e+00 7.1257978786371634e+00 0 0 0
500 2 7.2068939814016639e+00 9.5446286995668022e+00 1.0052475599014535e+01 0 0 0
558 2 4.0193914727745153e+00 1.7668123965902907e+01 9.4740820672550665e+00 0 0 0
154 1 8.0163387909866390e+00 1.1255681065034826e+01 3.9051058504887277e+00 0 0 0
155 2 7.4841529068889425e+00 1.1345139433587807e+01 4.7278124185662698e+00 0 0 0
156 2 8.8423952684434415e+00 1.1026336250484578e+01 4.2975163375286591e+00 0 0 0
163 1 7.3020394833091364e+00 1.2848615455834540e+01 1.8348477199727635e+00 0 0 0
164 2 7.5963621611401884e+00 1.2288916061493886e+01 2.6301227032508194e+00 0 0 0
165 2 7.9430825391136359e+00 1.2506845954637919e+01 1.2010584024886355e+00 0 0 0
166 1 8.7159725129004517e+00 7.4368585298048133e+00 5.4778651411695867e+00 0 0 0
167 2 8.8782466206618391e+00 8.2357103789999808e+00 5.9876202772562337e+00 0 0 0
168 2 8.9984112146238502e+00 6.6099758832240605e+00 5.9646761329641595e+00 0 0 0
169 1 9.0291039757301146e+00 1.2173656788737480e+01 6.7850653854734500e+00 0 0 0
171 2 9.1635538392911950e+00 1.2928601270395388e+01 6.1883002344659621e+00 0 0 0
175 1 7.4745360677781560e+00 8.8564390786920626e+00 2.1905950266273937e+00 0 0 0
176 2 7.5862143172678564e+00 9.5018347328595780e+00 2.9273015683153001e+00 0 0 0
177 2 6.7210447002463845e+00 9.1571947916752094e+00 1.5902454443593055e+00 0 0 0
450 2 4.0411591660704360e+00 1.1281831908877882e+01 9.6947331376178756e+00 0 0 0
3 2 2.0772306251669388e+00 2.7872910567323634e+00 9.0347490241142914e-01 0 0 0
711 2 8.3562008581658489e+00 5.7591544605724847e+00 6.8506342060121095e-01 0 0 0
255 2 9.5031822260518712e+00 1.5982655262266315e+01 3.1517890970053197e-01 0 0 0
451 1 6.5978043453516577e-01 1.2671036842773105e+01 8.9102881516402412e+00 0 0 0
220 1 3.8318897440118849e+00 1.4386946134282116e+01 3.6893819170917896e+00 0 0 0
221 2 4.0071102545831732e+00 1.5276618795951155e+01 3.3123928106505045e+00 0 0 0
222 2 3.7945527071869249e+00 1.3810744147076786e+01 2.9638721810112760e+00 0 0 0
223 1 5.8525952308857665e+00 1.7723744379449116e+01 5.2562551218029760e+00 0 0 0
224 2 6.7167533301187028e+00 1.7429322415211914e+01 5.0115016887833654e+00 0 0 0
225 2 5.3838518875371202e+00 1.7105782383284641e+01 5.8907432001301689e+00 0 0 0
226 1 1.2800355264059491e+00 1.7604718871310396e+01 3.7510497136971903e+00 0 0 0
227 2 1.2149521085582327e+00 1.8228183570009577e+01 3.0155301037791746e+00 0 0 0
228 2 1.1441675957016348e+00 1.6708544809789402e+01 3.3328553838838433e+00 0 0 0
229 1 4.4925628560473578e+00 1.9155973065826750e+01 1.6829761886235703e+00 0 0 0
230 2 4.2073850745311940e+00 1.8278474515136026e+01 2.0996474101789930e+00 0 0 0
231 2 4.0854958531789478e+00 1.9755385103889225e+01 2.3640310309099677e+00 0 -1 0
232 1 4.0449897571403239e+00 1.7227145140770894e+01 3.3936194769336825e+00 0 0 0
233 2 3.1337477012832724e+00 1.7156694404700993e+01 3.7911057148358709e+00 0 0 0
234 2 4.7793805079435234e+00 1.7491131105604246e+01 4.0481501427557092e+00 0 0 0
235 1 5.2226799010375324e-01 1.9275805112823427e+01 1.8166930360481466e+00 0 0 0
236 2 8.1664648939839235e-01 3.1402452538242182e-01 2.0543285245579632e+00 0 0 0
237 2 1.0123674269012586e+00 1.9087587927455893e+01 1.0246864010938908e+00 0 0 0
238 1 1.7299798533849686e+00 1.4232531839041789e+01 5.5207195785165748e+00 0 0 0
239 2 2.3153221902616110e+00 1.4369746014021128e+01 4.7166578387643350e+00 0 0 0
240 2 7.9992926219960669e-01 1.4083464882435646e+01 5.2308063966670941e+00 0 0 0
241 1 2.7308761856691528e+00 1.9091699701222510e+01 6.4497082002700088e+00 0 0 0
242 2 2.2851501852903970e+00 1.9499385560291252e+01 5.6991083607318842e+00 0 0 0
243 2 2.4719399527616890e+00 1.8141158061473938e+01 6.5215159151905384e+00 0 0 0
244 1 5.6676864708180972e+00 1.3665868607710722e+01 5.4747021552679804e+00 0 0 0
245 2 5.3315438445695982e+00 1.4213420460918142e+01 6.2289248138456825e+00 0 0 0
246 2 5.0219450092842193e+00 1.3866039523531624e+01 4.7842984050236481e+00 0 0 0
247 1 7.0295362311875098e-01 1.5553373113564042e+01 2.3359725324738356e+00 0 0 0
248 2 6.7439632605688971e-01 1.4602909964730001e+01 2.5607140716253558e+00 0 0 0
249 2 1.4104770792157124e+00 1.5570359764860216e+01 1.6024172146874796e+00 0 0 0
251 2 5.4823469895956398e+00 1.5906419332515545e+01 9.9583782026361589e-01 0 0 0
170 2 9.7402671885968708e+00 1.2325904385213208e+01 7.3977110486925053e+00 0 0 0
262 1 8.0168499854622048e+00 1.7511761474099295e+01 3.9270239484190022e+00 0 0 0
263 2 8.9641611337774183e+00 1.7360918509130251e+01 3.8869513366021122e+00 0 0 0
264 2 7.8298842537985793e+00 1.8267978245357931e+01 3.3745130435570698e+00 0 0 0
271 1 7.0521268174482712e+00 1.9717539222275420e+01 2.2335681865947170e+00 0 0 0
272 2 7.3397304327041244e+00 8.3280103540555372e-01 2.4248080194288315e+00 0 0 0
273 2 6.1475839820567897e+00 1.9537736094259934e+01 1.8783283271042797e+00 0 0 0
274 1 8.5621651194221329e+00 1.4184525487185258e+01 4.9333651293425413e+00 0 0 0
275 2 8.5823581246110727e+00 1.4824114971146667e+01 5.6621219630110939e+00 0 0 0
276 2 7.6592403706753815e+00 1.3858529528614557e+01 4.9345081110655391e+00 0 0 0
277 1 8.9917835343436749e+00 1.8684609414912160e+01 6.6862377424409569e+00 0 0 0
278 2 8.7248333420530564e+00 1.9278871975374166e+01 5.9480720572717258e+00 0 0 0
279 2 8.3186958643671307e+00 1.8879040073591099e+01 7.3983441231300384e+00 0 0 0
283 1 6.8928621562310823e+00 1.5313220681214242e+01 2.1921342819657483e+00 0 0 0
284 2 7.0644750571744188e+00 1.5760049989074069e+01 3.0209419604128889e+00 0 0 0
285 2 7.2398785523072426e+00 1.4416864233183418e+01 2.2363876915576348e+00 0 0 0
452 2 6.9956432414955894e-01 1.3595541417329084e+01 9.1633141923209500e+00 0 0 0
325 1 2.3455497799978775e+00 3.0876010020905742e+00 6.6711115597082546e+00 0 0 0
326 2 2.5172494104356908e+00 4.0889995665242891e+00 6.8185040601774984e+00 0 0 0
327 2 3.1609695946319327e+00 2.7741092095712436e+00 7.0776555684443734e+00 0 0 0
329 2 4.4028602745610099e+00 7.2178829350460338e-01 9.7719938799371100e+00 0 0 0
337 1 4.5568526238424125e+00 6.2229669874045639e+00 8.7205574725021258e+00 0 0 0
338 2 4.6377497038264579e+00 5.4332360408306535e+00 9.2569527019249165e+00 0 0 0
339 2 4.2509887436883869e+00 6.8876857957716267e+00 9.3984072582328757e+00 0 0 0
38 2 9.9034784637865645e+00 2.3768675193703581e+00 3.8369478213105546e-01 0 0 0
344 2 1.0656771763131774e+00 5.7094070976261300e+00 9.7258134891510402e+00 0 0 0
345 2 1.1229142271110200e+00 6.0311861449195634e+00 8.1693834185243190e+00 0 0 0
355 1 9.0524642761525231e-01 2.6939921133013232e+00 8.8411551750243884e+00 0 0 0
544 1 3.8919927834683925e+00 1.4686715966755630e+01 1.0346080279097956e+01 0 0 0
357 2 1.3395012587468671e+00 2.7485234805403183e+00 7.9145040958380335e+00 0 0 0
358 1 5.0174407658729692e+00 2.4279537834228431e+00 7.3889368230083372e+00 0 0 0
359 2 5.3452712117467760e+00 3.2094464536107083e+00 6.8718863715229714e+00 0 0 0
360 2 5.3410607430968966e+00 1.6336723293830233e+00 6.8618118855156824e+00 0 0 0
361 1 9.1961180838269971e+00 2.8742472930552641e+00 7.2731180888156191e+00 0 0 0
362 2 9.0425199289189067e+00 2.1962348641362341e+00 6.6135047179333668e+00 0 0 0
363 2 8.5511855862458148e+00 2.7059529936715712e+00 7.9533938392728007e+00 0 0 0
254 2 7.9608558486607626e+00 1.5647699087011338e+01 8.7424842026930760e-01 0 0 0
379 1 7.3075740696385729e+00 6.2456707060593759e+00 9.2833024599907592e+00 0 0 0
380 2 7.3326966732276855e+00 7.1425753736269417e+00 9.5913174950309799e+00 0 0 0
381 2 6.4433040403439330e+00 6.1202051526474328e+00 8.9461856632411383e+00 0 0 0
391 1 7.2319843749529333e+00 2.0623363852739760e+00 9.3792017278860609e+00 0 0 0
11 2 7.3558657747861300e-01 4.2778262049275497e+00 4.7494731429450754e+00 0 0 0
393 2 6.4098619648526363e+00 2.3419600928265281e+00 8.8526227588915756e+00 0 0 0
217 1 2.3587544358768184e+00 1.6198365486207848e+01 4.3868621238075622e-01 0 0 0
433 1 2.6294856318804056e+00 9.2892041933109866e+00 7.3096704478740753e+00 0 0 0
434 2 2.5913892583125748e+00 1.0326176168484331e+01 7.2653332432957027e+00 0 0 0
435 2 1.8428121990559494e+00 8.9559695444364120e+00 7.8831311890616789e+00 0 0 0
927 2 8.0500685181788221e+00 1.9370081286343726e+01 7.0245671562024248e-01 0 0 0
445 1 4.5895331146782050e+00 1.2684319446862382e+01 8.5255496239318180e+00 0 0 0
446 2 4.2467699834043371e+00 1.3446213291343195e+01 8.9518958956181951e+00 0 0 0
447 2 3.9976956298670170e+00 1.2477955536498362e+01 7.8031502322825848e+00 0 0 0
550 1 1.2869162672183534e+00 1.7786104752341288e+01 1.0393397528884956e+01 0 0 0
145 1 9.4423542886536129e+00 9.3053626533804419e+00 2.7943128238690962e-01 0 0 0
143 2 4.2005070697930096e+00 9.4171006932392558e+00 5.2245724251312786e-01 0 0 0
463 1 5.0410679177950568e-01 8.8294663375776832e+00 9.0477909448623048e+00 0 0 0
469 1 9.0387784845759889e+00 9.0049127544134979e+00 7.4450558450642621e+00 0 0 0
466 1 5.2485728712291131e+00 9.1849195038502245e+00 7.5284116944471764e+00 0 0 0
467 2 5.6487737328402821e+00 8.4503314022361327e+00 7.0073259763626394e+00 0 0 0
468 2 4.3717525228409864e+00 8.9014553894603790e+00 7.7093059100359760e+00 0 0 0
32 2 1.8259629330567195e-01 2.0028073766206287e+00 1.7408106374217653e+00 0 0 0
470 2 8.7816220554159301e+00 9.9453921641018201e+00 7.2968916626454288e+00 0 0 0
471 2 8.4808937595390912e+00 8.7726782195301034e+00 8.2159390739922120e+00 0 0 0
573 2 9.6697382603190851e-01 1.6162908443306492e+01 9.8737868072953372e+00 0 0 0
487 1 7.1440786001159147e+00 1.2619262066385049e+01 9.0452973092393236e+00 0 0 0
488 2 7.6779770694637977e+00 1.2706407436586916e+01 8.2128878287685882e+00 0 0 0
489 2 6.2254240406489361e+00 1.2494953826092887e+01 8.7154418832788707e+00 0 0 0
499 1 7.1942950294816965e+00 8.8367500860750177e+00 9.4033105498319483e+00 0 0 0
111 2 1.8175942300104975e+00 9.2690233137647304e+00 8.3520198179629801e-01 0 0 0
501 2 6.3900802802483820e+00 8.9705782972927715e+00 8.8591735659273922e+00 0 0 0
608 2 6.9207008447327203e+00 1.4544528582465510e+01 9.2091113871474803e+00 0 0 0
465 2 4.5797923610179736e-01 7.8167580985163916e+00 9.0589462948941062e+00 0 0 0
541 1 2.1051937611861535e+00 1.6564949918214211e+01 7.0370345057957131e+00 0 0 0
542 2 1.8571184871288646e+00 1.6124349181856445e+01 7.8336289001385548e+00 0 0 0
543 2 2.0170187195149620e+00 1.5819662295820995e+01 6.4465677225176474e+00 0 0 0
553 1 4.4442262226911957e+00 1.9413602245488320e+01 8.6594666627743049e+00 0 0 0
554 2 5.4092448898416583e+00 1.9433053701238251e+01 8.3842448520735982e+00 0 0 0
555 2 3.9794674030409873e+00 1.9555337533959175e+01 7.8331197305873079e+00 0 0 0
557 2 3.7886995197580569e+00 1.6315679844346910e+01 1.0377035126599980e+01 0 0 0
559 1 8.7335807835749746e-01 1.9710360420017885e+01 8.3767200053998945e+00 0 0 0
560 2 1.4938577694895139e+00 1.9478160297911856e+01 7.6254270601081995e+00 0 0 0
561 2 1.1368829570319634e+00 1.9091563386297032e+01 9.0469997719734607e+00 0 0 0
571 1 8.1730283640769075e-01 1.5425602912600977e+01 9.2306888602833013e+00 0 0 0
574 1 4.7253335113225221e+00 1.5954652385336429e+01 6.8415308610675005e+00 0 0 0
575 2 5.1404660186138447e+00 1.5867555863190372e+01 7.7359324759314871e+00 0 0 0
576 2 3.7857232363202047e+00 1.6098126635837090e+01 6.9281769273376357e+00 0 0 0
577 1 8.8232341999106669e+00 1.5992356309854861e+01 6.8975124366669567e+00 0 0 0
578 2 8.8685987170699345e+00 1.6973327301039490e+01 6.7423049073526231e+00 0 0 0
579 2 8.1036701857824962e+00 1.5976931194961367e+01 7.5385476017839688e+00 0 0 0
210 2 3.1553845408840731e-01 7.7076778431157127e+00 4.8891324437305483e+00 0 0 0
595 1 7.3286091959688360e+00 1.9333101249147589e+01 8.6623031033907303e+00 0 0 0
596 2 7.4925187103418933e+00 3.8804125194990086e-01 8.9494789636053991e+00 0 0 0
597 2 7.5450238284807858e+00 1.8757744325634135e+01 9.4308072148296969e+00 0 0 0
607 1 6.6530575012574076e+00 1.5391182957512010e+01 8.8922973876644082e+00 0 0 0
356 2 9.6389019119612129e-01 1.7698119774166767e+00 9.0024000221155820e+00 0 0 0
218 2 3.3766133268589327e+00 1.6204764932959520e+01 4.6087433713433423e-01 0 0 0
142 1 5.2260679524054181e+00 9.4669796929097991e+00 5.3876731285111501e-01 0 0 0
675 2 1.9899506436190857e+00 6.0587938430546258e+00 7.7243787309769130e-01 0 0 0
444 2 9.8746471752917875e-01 1.1551662994009092e+01 1.0212702991885623e+01 0 0 0
556 1 4.0294489895132992e+00 1.7262552839311525e+01 1.0335677512127599e+01 0 0 0
891 2 3.1781922181678457e+00 1.9184888765172822e+01 4.9577243734318410e-01 0 0 0
443 2 9.4214911655286071e-01 1.0033671289150460e+01 1.0094730425249905e+01 0 0 0
109 1 2.4865499370632111e+00 9.5588456027160458e+00 2.0975621954581755e-01 0 0 0
372 2 7.7360804926620643e+00 4.8287936004272778e+00 1.0294607135629033e+01 0 0 0
384 2 9.2448335930222481e+00 1.3175884703275655e+00 1.1045202447686599e+01 0 0 0
902 2 8.9116626471209290e+00 1.7232897425907730e+01 1.3298080158075441e+01 0 0 0
370 1 7.8795432759981168e+00 4.0604526126355367e+00 1.0822661125209857e+01 0 0 0
681 2 1.1183421924495676e+00 9.2264062859292739e-01 1.5516026054165261e+01 0 0 0
707 2 9.4066613361619389e+00 1.0397691938426075e+00 1.7895894827578594e+01 0 0 0
817 1 9.3125681651888854e+00 1.1796495744131796e+01 2.0307178703316879e+01 0 0 0
331 1 5.7730910279037877e+00 4.5065474194750426e+00 1.2496782046047809e+01 0 0 0
332 2 6.6340770307781032e+00 4.4489449504281708e+00 1.2030643107238928e+01 0 0 0
333 2 5.0245826855032840e+00 4.2849577531440000e+00 1.1857055273948035e+01 0 0 0
794 2 9.2528323122838554e+00 1.0404153450968986e+01 1.3673877026840023e+01 0 0 0
39 2 9.1215624523992194e+00 2.2204360238657337e+00 1.9579862444760245e+01 0 0 0
858 2 4.9795953685760336e-01 7.2374039013887694e+00 1.8449964334815007e+01 0 0 0
346 1 2.0935759546703010e+00 8.8211688908135644e-01 1.1764099291399868e+01 0 0 0
347 2 2.7592652691827828e+00 1.0422643800525484e+00 1.1060063582108066e+01 0 0 0
348 2 2.1400746910200978e+00 1.6754507549861990e+00 1.2319336047790930e+01 0 0 0
349 1 2.9985556679141183e+00 5.4002669467713451e+00 1.3724612749402153e+01 0 0 0
350 2 2.6793300972963476e+00 6.0157710203523775e+00 1.2970277350211205e+01 0 0 0
351 2 2.9636049992280653e+00 4.4202103732906517e+00 1.3541295554482030e+01 0 0 0
352 1 6.0475571020842276e+00 5.8005225522464254e-01 1.2299096893797813e+01 0 0 0
353 2 6.9341915691774343e+00 9.2938688232467048e-01 1.2005097974166691e+01 0 0 0
354 2 5.6577242671770644e+00 1.9461403965429589e+01 1.2335563522895157e+01 0 0 0
330 2 4.9764308871935974e+00 1.0477863349040462e+00 1.1142139774819254e+01 0 0 0
382 1 8.7614984922328105e+00 1.2336260972040429e+00 1.1834159209714379e+01 0 0 0
383 2 9.0750304845431078e+00 4.1996302142712494e-01 1.2288100002801849e+01 0 0 0
533 2 2.4399150586118645e-01 7.3194575229056209e+00 1.2553948260356202e+01 0 0 0
385 1 9.5371146109923011e+00 5.4741436733850408e+00 1.3621332847613690e+01 0 0 0
386 2 9.3994809289233014e+00 4.5102820977815048e+00 1.3280548368049338e+01 0 0 0
387 2 8.8060660760361333e+00 5.5243996340757580e+00 1.4338161908594154e+01 0 0 0
901 1 9.0812468877490691e+00 1.6327126980979031e+01 1.3655978159847695e+01 0 0 0
110 2 2.2529027472568797e+00 9.1835883293706910e+00 1.9762317615454030e+01 0 0 0
439 1 5.4908999888450829e+00 1.1136191965415071e+01 1.2518832448066561e+01 0 0 0
440 2 5.5606265119008587e+00 1.2121424166580290e+01 1.2694925858316148e+01 0 0 0
441 2 4.7405540919323608e+00 1.1210980876119049e+01 1.1911321417301918e+01 0 0 0
685 1 9.5931782099977934e+00 2.7170317619165854e+00 1.4048287707378300e+01 0 0 0
454 1 2.0390833246200515e+00 7.4868905421287488e+00 1.2410480455130973e+01 0 0 0
455 2 2.6889268253104901e+00 7.4258490642430690e+00 1.1723608983051923e+01 0 0 0
456 2 2.4326161243179736e+00 8.1436806869376657e+00 1.3092024336972722e+01 0 0 0
457 1 2.5967895762904307e+00 1.1834229459453132e+01 1.3899764326299092e+01 0 0 0
458 2 3.4854614104864821e+00 1.1908804655957148e+01 1.4368485329532305e+01 0 0 0
459 2 1.9786345072966451e+00 1.2128180723936650e+01 1.4604359344896398e+01 0 0 0
460 1 6.0647444158349337e+00 7.2512961369815994e+00 1.2261574084234148e+01 0 0 0
461 2 5.9999330547409508e+00 6.2979740503890698e+00 1.2563308599934915e+01 0 0 0
462 2 7.0069918500415556e+00 7.4379362622846790e+00 1.2293648827422439e+01 0 0 0
667 1 6.7800028883719965e-01 5.6181459815588815e+00 1.5542813324924351e+01 0 0 0
480 2 7.3657062306024921e+00 1.1181698467230369e+01 1.1729601538986985e+01 0 0 0
599 2 9.2168783824338831e+00 1.4020205851619101e+01 1.1237613420472933e+01 0 0 0
490 1 8.7255486938285376e+00 7.5538078692228741e+00 1.2010053258563062e+01 0 0 0
491 2 9.1151344290980312e+00 6.7875305555022543e+00 1.2418385914837678e+01 0 0 0
492 2 8.9718980789028642e+00 8.3688091566909275e+00 1.2537449371389105e+01 0 0 0
493 1 9.1948251260927698e+00 1.2365065998306285e+01 1.3779238793724669e+01 0 0 0
494 2 8.6758628566224463e+00 1.2509586508835804e+01 1.4611184491112720e+01 0 0 0
495 2 8.9759564640846161e+00 1.2936376901646263e+01 1.3036861996076755e+01 0 0 0
905 2 9.7153213328126746e+00 1.4136008385491770e+01 1.7398163219412140e+01 0 0 0
883 1 4.1043007911936702e-01 1.9131182497468345e+01 1.5257247920891910e+01 0 0 0
219 2 2.1119508554235953e+00 1.6926298858452824e+01 2.0590801947543021e+01 0 0 -1
932 2 7.5879752815362860e+00 1.6159369455228905e+01 1.6502811977038725e+01 0 0 0
668 2 6.7953458452963522e-01 6.5965524095011698e+00 1.5720052494057546e+01 0 0 0
889 1 2.5266236441236840e+00 1.8748791523489729e+01 2.0401290607439144e+01 0 0 0
547 1 5.6472331035464878e+00 1.7752041295214561e+01 1.2458345557566094e+01 0 0 0
548 2 5.0910203887729901e+00 1.7581857182025210e+01 1.1689395735529748e+01 0 0 0
549 2 5.4533290876046729e+00 1.7010757860036584e+01 1.3047303988446130e+01 0 0 0
551 2 1.0172947184050063e+00 1.7841073774617769e+01 1.1340655620921364e+01 0 0 0
562 1 1.9612012146355653e+00 1.3757650848339999e+01 1.2038422873094728e+01 0 0 0
563 2 9.9708709760072289e-01 1.3908976259169361e+01 1.2132064724183797e+01 0 0 0
564 2 2.1166447232177665e+00 1.2936401991054749e+01 1.2660718624305520e+01 0 0 0
565 1 2.3142079912089280e+00 1.8516809117034306e+01 1.3349193423124001e+01 0 0 0
566 2 2.2117491904117381e+00 1.9363466140803574e+01 1.2812865738137754e+01 0 0 0
567 2 3.1201442674543665e+00 1.8621890364102754e+01 1.3928328692665437e+01 0 0 0
568 1 5.8392207815873887e+00 1.3714705883550712e+01 1.2076057362649310e+01 0 0 0
569 2 6.8114276000926548e+00 1.3832334966977259e+01 1.1903265236035935e+01 0 0 0
570 2 5.7011692306599260e+00 1.4365461581669576e+01 1.2758743389177051e+01 0 0 0
146 2 9.4527454776325843e+00 1.0089020617178440e+01 2.0532317327705542e+01 0 0 0
710 2 9.1826518231381016e+00 4.5267830171794117e+00 2.0280826870760038e+01 0 0 0
588 2 7.1245919818110197e+00 1.7420562754555547e+01 1.1398461116727248e+01 0 0 0
598 1 8.5986263482485015e+00 1.4050080361226938e+01 1.1971354085909201e+01 0 0 0
336 2 8.8940501081044931e-01 4.4772657485870297e+00 1.1513170546694429e+01 0 0 0
600 2 8.6637646243330035e+00 1.4912127071997904e+01 1.2317151710852540e+01 0 0 0
601 1 8.7799784848890994e+00 1.8993642907268125e+01 1.3339718891509662e+01 0 0 0
603 2 8.1304652706039882e+00 1.9358109086338224e+01 1.4009757626666662e+01 0 0 0
680 2 2.8836270878374581e-01 2.1542923996619052e+00 1.5186063257235855e+01 0 0 0
545 2 3.1676983204621609e+00 1.4217978048782491e+01 1.0830525458817386e+01 0 0 0
649 1 2.8030158229461235e+00 2.7040032832961844e+00 1.3459009344149521e+01 0 0 0
650 2 3.6954306685506277e+00 2.3581353510931207e+00 1.3663990552487370e+01 0 0 0
651 2 2.2757851726918723e+00 2.6910524856371159e+00 1.4253988126236123e+01 0 0 0
652 1 4.1917550001097732e+00 7.9414626725984860e-01 1.6768848853476236e+01 0 0 0
653 2 4.4870441189095889e+00 1.6904275579398536e+00 1.6764464252094989e+01 0 0 0
654 2 4.7196954000391607e+00 4.9298879748983382e-01 1.7623577928475385e+01 0 0 0
655 1 6.2036718537846145e+00 4.9916313345108811e+00 1.9095701660657760e+01 0 0 0
656 2 6.2606075027453958e+00 5.9136886496543539e+00 1.9345231866052686e+01 0 0 0
657 2 7.0230381316582751e+00 4.7264820592970951e+00 1.8695233282987651e+01 0 0 0
658 1 1.7950611093890563e+00 3.8550696577710526e+00 1.7680879246680384e+01 0 0 0
659 2 1.5063235571683036e+00 3.1969590942152997e+00 1.7022195605671911e+01 0 0 0
660 2 1.4960005496633217e+00 4.7359368875252992e+00 1.7308377168780865e+01 0 0 0
661 1 5.3395899621589837e+00 5.3217039435658426e+00 1.5595983534309614e+01 0 0 0
662 2 4.8314813521755520e+00 4.7204596662007239e+00 1.6192728669074512e+01 0 0 0
663 2 4.9168390784767144e+00 5.2190930151147201e+00 1.4744354187772332e+01 0 0 0
664 1 4.5439790312576473e+00 3.5724574229805137e+00 1.7356290260545741e+01 0 0 0
665 2 3.6437705294539917e+00 3.9036915514836927e+00 1.7557843826438663e+01 0 0 0
666 2 5.0677973913639880e+00 4.0185876156883857e+00 1.8096937703397970e+01 0 0 0
546 2 4.7422552837599987e+00 1.4313070497095875e+01 1.0715811973708410e+01 0 0 0
673 1 2.8480460642409322e+00 5.9856665266192435e+00 2.0471422348632174e+01 0 0 0
669 2 1.4998433845681216e+00 5.3944512730934697e+00 1.5056042672932090e+01 0 0 0
670 1 1.9402057978974308e+00 7.6596125712028984e-01 1.8831833314040757e+01 0 0 0
671 2 1.9261387440593818e+00 1.5604371419598033e+00 1.9385219005347530e+01 0 0 0
672 2 2.3759606325606719e+00 9.6480895698243307e-01 1.8012489639236087e+01 0 0 0
676 1 5.9666036051499765e+00 6.0222213814058700e-01 1.8762783663193616e+01 0 0 0
677 2 5.8137418301334884e+00 1.3367944095532349e+00 1.9382794896818602e+01 0 0 0
678 2 6.8945903703532894e+00 7.6310980402524065e-01 1.8488898745181658e+01 0 0 0
679 1 1.1605811474683116e+00 1.8963699338299336e+00 1.5589132974594776e+01 0 0 0
371 2 8.7982547065064249e+00 3.9253387135641264e+00 1.0879667042836227e+01 0 0 0
602 2 9.6027704159689939e+00 1.9100110691285344e+01 1.3892728850585614e+01 0 0 0
682 1 5.2768017146372959e+00 2.4728451319696720e+00 1.4064257640471562e+01 0 0 0
683 2 5.3316719469320875e+00 3.3156374442147496e+00 1.3511571384714642e+01 0 0 0
684 2 5.6026541562576790e+00 1.6545679584939210e+00 1.3617946606128159e+01 0 0 0
486 2 9.5722183518390302e+00 1.0620739882076418e+01 1.0695997492200322e+01 0 0 0
687 2 9.4708356713418045e+00 2.2963229720752540e+00 1.3143105894595546e+01 0 0 0
694 1 8.5693115638392108e+00 4.2403987047260507e+00 1.7648984741383899e+01 0 0 0
695 2 9.5125593601054383e+00 4.0753156591481758e+00 1.7505296249922445e+01 0 0 0
696 2 8.1370204036303662e+00 3.5325037612101911e+00 1.7176775890674598e+01 0 0 0
703 1 7.9634912261415316e+00 5.9993409200844292e+00 1.5658363321460506e+01 0 0 0
704 2 8.3482472139707919e+00 5.5113929367706103e+00 1.6369403072363475e+01 0 0 0
705 2 7.0045817517128404e+00 5.8134781707032985e+00 1.5651246841623420e+01 0 0 0
706 1 8.6364984265371643e+00 9.0328520163368631e-01 1.8519507597018602e+01 0 0 0
1 1 2.6367372443790082e+00 2.8575788410166574e+00 2.0424877607036642e+01 0 0 -1
708 2 8.8287939843653351e+00 1.8934917361296966e-01 1.9105320172659845e+01 0 0 0
715 1 7.5584640854505549e+00 2.5126223896728388e+00 1.5792406766964518e+01 0 0 0
716 2 6.7555266324809224e+00 2.8252556523024257e+00 1.5292110780158035e+01 0 0 0
717 2 8.3163010355818230e+00 2.6601077026078905e+00 1.5146728015294638e+01 0 0 0
36 2 5.6626163507469256e+00 3.6276529732782388e+00 2.0153929250548174e+01 0 0 0
426 2 4.7461609552271594e-01 7.5683639336646347e-01 1.1776192757678102e+01 0 0 0
757 1 2.7250077798205656e+00 9.1179493238474763e+00 1.4436033183333381e+01 0 0 0
758 2 3.6544868658971716e+00 8.8705938749311564e+00 1.4599943485862919e+01 0 0 0