LAMMPS data file via write_data, version 15 Apr 2020, timestep = 0

1944 atoms
2 atom types

-1.8255376609572949e-01 4.0164658766097446e+01 xlo xhi
0.0000000000000000e+00 1.9756144667606197e+01 ylo yhi
0.0000000000000000e+00 2.0424588169151900e+01 zlo zhi
-2.0955907295871157e-02 -8.2127278402808201e-03 1.5289756179264202e-02 xy xz yz

Masses

1 16
2 2

Atoms # atomic

1576 1 1.9790851278934923e+01 8.9338102213449808e+00 5.3421951249594928e+00 0 0 1
1823 2 1.8121938124020168e+01 5.3246010005649511e+00 5.3191214092083134e+00 0 0 1
107 2 1.1614910647659618e+01 3.8986985542440551e+00 7.1681572553926181e+00 0 0 1
75 2 1.7433974864082060e+01 1.1423694553580072e+01 9.9836584129453367e+00 0 0 0
1553 2 5.8607541751766190e+00 1.9245877743944803e+01 1.1864092286352308e+00 0 -1 1
439 1 2.5372199583549890e+00 1.4901057869727977e+01 8.2648649379225727e+00 0 0 -1
1085 2 5.8913603557924192e+00 4.6786849082155584e+00 4.8249845410558247e+00 0 0 0
502 1 1.7728115773092892e+01 1.5250226263362501e+01 3.6373409711950715e+00 0 1 0
1155 2 1.8201136399694519e+01 1.8654558970167155e+01 8.6023217668434704e+00 0 1 0
909 2 4.6159976698801612e+00 3.6618165349233305e+00 2.1862247144044726e+00 0 0 0
471 2 1.4593950142292840e+01 1.1072069922958960e+01 7.6490902353161463e+00 0 0 -1
488 2 1.9227802801944126e+01 1.2950521097873194e+01 2.1490515223466544e+00 0 1 -1
1383 2 1.0722131602194452e+01 1.4862556631467946e+01 9.9451547369720537e+00 0 -1 0
269 2 1.9594100977556732e+01 1.3446274574923812e+01 5.4753770501987482e+00 0 0 0
696 2 1.4680033422578951e+01 1.9004925342917687e+01 5.5952483216052160e+00 0 -1 0
20 2 1.2550238528216930e+00 3.4588248663908233e-01 6.6651046562543828e+00 1 0 0
286 1 1.6004656210348099e+01 1.3725598596253711e+01 5.4949713615315741e+00 0 0 0
1153 1 1.7304541537465063e+01 1.9016019062310527e+01 8.4091473310765874e+00 0 1 0
1340 2 1.8675843063504324e+01 1.1657021446300652e+01 6.5546462362487512e+00 0 0 1
1175 2 3.1408424829669861e+00 5.5511628413961480e+00 5.9878144385392620e+00 0 1 0
723 2 3.9676868338076909e-01 5.3910951127742806e+00 3.4625555653428282e+00 0 0 0
1567 1 4.4894308327523336e-01 9.3380351292794010e+00 2.8757291267842477e+00 0 0 1
662 2 1.3425879237858573e-01 3.2649075826838638e+00 3.2914920596033497e+00 0 0 1
1824 2 1.6523919717107901e+01 5.0994091585616488e+00 5.2892887803044317e+00 0 0 1
453 2 4.5617267652010547e+00 1.9503745088023145e+01 7.4886281997531565e+00 0 -1 -1
10 1 -1.0678383286912971e-01 5.1386221297029161e-02 2.2895041644013596e+00 0 0 0
55 1 7.0231128926246091e+00 1.2504231754399273e+01 3.8288099679317505e-01 0 0 -1
9 2 4.5287083681102791e-01 1.2498294655339897e+01 8.3526201441559493e+00 0 -1 0
954 2 1.6512531942201448e+01 1.8198228049226632e+01 4.3043721125551189e+00 0 0 1
749 2 1.2302010375095845e+01 8.0935377845947194e+00 3.9528637234923520e+00 0 0 1
236 2 1.2509850719429057e+01 1.1748906977014974e+01 7.0595006797985596e+00 0 0 0
1098 2 8.2464631199422778e-01 7.4456574611273396e+00 6.7234535390464174e+00 0 1 0
288 2 1.6928303308410406e+01 1.3476809252200471e+01 5.7602961298512563e+00 0 0 0
697 1 6.9955028569631414e+00 1.4143227892781276e+00 5.9687590778817814e+00 0 1 1
452 2 5.7112618992920288e+00 1.8884121137435794e-01 6.5274708278264528e+00 0 1 -1
1314 2 9.2366373066318737e+00 1.0271705912261412e+01 3.5010934899394281e+00 0 0 1
1370 2 1.0123909414077612e+00 2.8387825388946606e+00 1.0298134599180302e+00 0 0 1
1097 2 1.0322737668753028e+00 8.8670822823057911e+00 6.0483952384939306e+00 0 1 0
504 2 1.7813608665116845e+01 1.6262488156546716e+01 3.7057050137579566e+00 0 1 1
253 1 1.1047956630876913e+01 1.0457064524509741e+01 1.0027694189755980e+00 0 0 0
478 1 1.5764517828859971e+01 9.4119833917619626e+00 6.9324640920144445e+00 0 1 -1
942 2 1.9095625679374542e+01 4.2362668747280408e+00 7.1272071402393085e+00 0 1 1
1608 2 1.4698700090282294e+01 5.9581258886729485e+00 6.3337345838407444e+00 0 -2 0
1369 1 1.8336123385830154e+00 3.0839884134769617e+00 4.9729074422027519e-01 0 0 1
1614 2 1.0985897675967107e+00 6.2157312366597308e+00 1.1583559061306896e+00 0 1 1
1086 2 5.1612333357933915e+00 3.4339594287645143e+00 4.3698367153930757e+00 0 0 0
1597 1 1.6333999419683529e+01 3.6056284014376931e+00 7.8732529069139119e+00 0 1 0
1788 2 1.8038502988557978e+00 1.3552055215316713e+01 9.0406001907618627e-01 0 0 1
47 2 1.4286150698171895e+01 8.0701017266133324e+00 6.3704312025820826e+00 0 -1 0
1560 2 1.9248382973454785e+01 1.8981793023634562e+01 6.2552720312996311e+00 0 0 1
1803 2 9.5302648186052874e+00 5.8377050766965706e+00 3.9359427639616209e+00 0 1 1
1577 2 1.9535329751393238e+01 9.1342729914453216e+00 6.2558062749651988e+00 0 0 1
1568 2 3.9250020532858954e-01 9.9597616427646987e+00 3.6890088743847955e+00 0 0 1
947 2 1.7831052659248591e+01 9.0943324997106589e-01 9.4499718708839975e+00 0 1 -1
1793 2 1.8256312106403932e+01 1.4222371853027882e+01 8.2076059420486143e+00 0 -1 1
1169 2 1.1924091257571805e+01 1.9333837931244226e+01 3.1963322984493150e+00 0 -1 0
1187 2 9.6985407786105355e+00 5.7135597282478967e+00 9.7255249771784342e+00 0 0 -1
290 2 1.6594170723407313e+00 1.8383015300345281e+01 4.2915210435700404e+00 0 -1 -1
58 1 8.5865807197031452e-01 3.9652886513193173e+00 7.1425476495067404e+00 0 0 -1
528 2 1.4096477666937648e+01 1.1013676111034453e+01 4.9424384376751966e+00 0 0 0
891 2 1.4854522479281749e+00 1.3812749116924801e+01 5.8220458414026464e+00 0 0 0
663 2 1.2182785774216875e-01 1.7246935225373512e+00 2.6075658937097539e+00 0 0 1
1128 2 8.0987843212571544e+00 1.8521026165669792e+01 3.8231709638030171e+00 0 0 1
44 2 1.3114116759081517e+01 6.9513745122972219e+00 8.5660858217899829e+00 0 0 0
1760 2 1.3948334447720612e+00 1.1075632056472797e+01 5.3892333897809248e+00 0 0 1
1322 2 1.0659509737502151e+00 1.0429228078174900e+01 8.8679857043583628e+00 0 0 1
1543 1 2.9773397905927697e+00 1.2263415976862888e+01 2.6862402226037663e+00 0 0 0
880 1 4.6530154586729795e+00 1.0088026454636944e+01 5.2049717992297406e+00 0 0 0
1565 2 1.0983078027809666e+01 9.8466224053355109e+00 4.3630836154859436e+00 0 0 0
503 2 1.6915928746287303e+01 1.5104080539797508e+01 4.1526877114814473e+00 0 1 1
283 1 1.9336465134439283e+01 6.1408276075118566e+00 6.0051610180598640e+00 0 0 0
229 1 2.3436461363043573e+00 1.2325061357994171e+01 6.2763539620790301e+00 0 0 0
1620 2 7.7046999780234016e+00 1.7901601423543319e+01 6.7608452618302461e+00 0 -1 0
1578 2 1.8908095221649816e+01 8.7689789141538963e+00 4.8210900065959006e+00 0 0 1
1404 2 6.8246078000076578e+00 1.1738167642178695e+01 8.1595673979187779e+00 0 -1 0
1084 1 5.4958035254753881e+00 3.7989979727189103e+00 5.2093001085907806e+00 0 0 0
298 1 1.6627451997161444e+01 1.4592262022280403e+01 9.5279000775016154e-01 0 -1 1
274 1 8.8195237643886735e+00 8.2456687512935130e+00 2.3904819338686023e+00 0 0 0
733 1 1.4922990021820910e+01 1.3814290867152463e+01 3.0511717784560557e+00 0 0 0
507 2 9.3101543578337633e+00 1.7993922533328760e+01 9.1682786965100416e+00 0 -1 1
890 2 1.2270918189854414e+00 1.5420723349965385e+01 5.5239462135315378e+00 0 0 0
1124 2 1.3297634390394929e+01 1.4887719590228052e+01 7.1597409163708168e+00 0 0 0
1158 2 1.9334108029237310e+01 9.5646415747955142e+00 8.4579289519508780e+00 0 0 0
727 1 1.7225053804225340e+01 6.8444247730922647e-01 2.7964501691171040e-02 0 0 1
676 1 7.3541558491448611e-02 1.2276070497673716e+01 2.9905273764065790e+00 0 0 0
538 1 1.5355503241160086e+01 1.2154338201678982e+01 5.3764201264643219e-01 0 0 1
519 2 1.9896112890143332e+01 1.6028673400867742e+01 7.8835676646086892e+00 0 0 0
1313 2 1.0317305040182495e+01 1.0718313176511664e+01 2.4500578076517452e+00 0 0 1
1127 2 7.5943340945245748e+00 1.7368221471273195e+01 4.6439348480857081e+00 0 0 1
299 2 1.7417432420811910e+01 1.5150196609281767e+01 1.1280635638983967e+00 0 -1 1
1738 1 8.4788584019090223e+00 1.5039784710538585e+01 7.5771589316597980e+00 0 0 0
1397 2 1.5081421139342144e+01 7.6723977512730670e+00 9.6388196050005206e+00 0 0 1
1339 1 1.8373624499491537e+01 1.2272796072073076e+01 5.8956401775188239e+00 0 0 1
446 2 2.8698951908110355e+00 8.3036128058159324e+00 7.2924104202865854e+00 0 0 -1
698 2 7.5646205473410708e+00 8.4455475964466753e-01 5.3955754841432926e+00 0 1 1
1523 2 4.4597197949297076e+00 4.0717940321476238e+00 6.6114356116006201e+00 0 0 1
672 2 7.4149440894530532e+00 6.6840573782497641e+00 5.1206252179934397e+00 0 -1 0
1154 2 1.6825222159473295e+01 1.8176238521313199e+01 8.4715032908341001e+00 0 1 0
23 2 3.9880793348119550e+00 1.4072637051981651e+01 7.9341847272565786e+00 0 -1 -1
59 2 5.0087283547529537e-01 3.6761919266690675e+00 8.0388256215632232e+00 0 0 -1
1830 2 1.5175865460843633e+01 7.2715668299169440e+00 2.4358743193339536e+00 0 0 0
226 1 1.3988852469921881e-01 1.5663902135698153e+01 2.8072018728950625e+00 0 0 0
459 2 8.4311766247979545e+00 1.2377891422575814e+01 6.0399215090210046e+00 0 1 0
100 1 1.7550352310802403e+01 8.4629035332085394e+00 4.0965365946184997e+00 0 0 0
1181 2 1.3678568161521701e+01 5.0808166848381013e+00 1.0105972513222078e+01 0 1 0
1747 1 6.4254641593370092e+00 9.5905681507271368e+00 1.5456760399738445e+00 0 0 1
964 1 6.1713534596003372e+00 2.6113604971280657e+00 8.5446346240889000e+00 0 1 0
1741 1 4.0974225188801014e+00 5.3230149246780041e+00 1.6148221735528807e+00 0 1 0
492 2 1.0740929333182040e+01 1.9031731764528235e+01 1.1528792979405464e+00 0 0 0
291 2 1.4370128629793172e-01 1.8179700728707012e+01 4.8228394956009817e+00 0 -1 -1
1564 1 1.1565066426102906e+01 9.4495580101335896e+00 5.0617189810983234e+00 0 0 0
724 1 1.9112423354469016e+01 1.0787617686760722e+00 6.1415614788543484e+00 0 0 0
679 1 -1.0337821848727194e-01 9.3578364995015360e+00 9.7758437238804738e+00 0 0 0
1395 2 1.7239665187422112e+01 1.9035742929992480e+01 8.9830478820995474e-01 0 -1 0
737 2 1.8496379517012244e+01 1.1922083695355928e+01 1.9295555832367642e-01 0 0 0
467 2 1.2103711283233325e+01 1.9537906094431470e+01 7.0774656917387571e+00 0 0 0
938 2 4.2767010410749098e+00 1.4780249902226078e+01 3.1483188406126286e+00 0 0 0
932 2 1.4143012843653413e+01 1.0746764438916125e+01 1.3216218567468803e+00 0 1 0
1522 1 3.7186669275247586e+00 4.4099774866049932e+00 7.1114107846985242e+00 0 0 1
1170 2 1.1800118998311429e+01 1.1728672325392373e+00 3.3899543173578683e+00 0 0 0
443 2 1.0158148953271917e+01 1.4183067908533886e+01 5.4390297583490881e+00 0 1 0
1832 2 9.0196254748380582e+00 2.8544294461995188e+00 6.0090178200956403e+00 0 0 0
235 1 1.2498704765764748e+01 1.1887691854542735e+01 6.0840630437755436e+00 0 0 0
227 2 6.3120407066837025e-01 1.6405188614120068e+01 3.1394928858513924e+00 0 0 0
505 1 9.6199798639518495e+00 1.7956894985726507e+01 1.0096301284055949e+01 0 -1 0
494 2 3.8811576388567570e-01 6.6175194110108961e+00 8.5951983115299520e+00 0 0 -1
1573 1 9.1927435029667546e+00 2.3275320982809578e+00 7.9600743353140651e+00 0 1 1
307 1 1.1528057908325517e+01 5.9648281094594315e+00 1.1623004543210538e+00 0 0 0
17 2 3.7281745992214632e+00 1.2050367889595735e+01 3.1078905046833422e-01 0 0 0
1307 2 9.2335913040658362e+00 1.5512134156624695e+01 1.9214023158758249e+00 0 -1 1
1321 1 1.7448568261274726e+00 1.1088167962311887e+01 8.5011512021804059e+00 0 0 1
309 2 1.2016693900882057e+01 5.4822616723677884e+00 5.0212059181958246e-01 0 0 0
694 1 1.4796536114393458e+01 1.8275986800900569e+01 4.9459116507272771e+00 0 -1 0
479 2 1.6036110543040625e+01 8.8931255992065203e+00 7.6962038952676863e+00 0 1 -1
231 2 3.1512306453757635e+00 1.2080751020142705e+01 5.7763315368501962e+00 0 0 0
678 2 1.0302780738214798e+00 1.2435209563901282e+01 3.1216074048953919e+00 0 0 0
45 2 1.2912948568703088e+01 7.4400512207009966e+00 1.0017951584507150e+01 0 0 0
284 2 1.9415274339559094e+01 7.0987814581113566e+00 5.8562064726700589e+00 0 0 0
11 2 2.0962061454658637e-01 1.9195908358949723e+01 2.9544563207906882e+00 0 -1 0
1161 2 7.5392813978150235e+00 2.6233842221743022e+00 1.8642166602907344e+00 0 1 0
1552 1 6.4287809739098609e+00 4.3847002293319289e-02 6.2801498085768581e-01 0 0 1
561 2 1.9733007059285860e+01 1.7476482216438988e-01 2.2493102396092870e+00 0 0 0
939 2 4.4878403468650658e+00 1.4787045058451739e+01 4.6942073039765866e+00 0 0 0
1096 1 1.4555089154241583e+00 8.0392414814508033e+00 6.3100264792059955e+00 0 1 0
1583 2 9.6357237655418437e+00 1.2678436249339958e+01 3.8349496778203238e+00 0 0 0
101 2 1.7085922194746672e+01 7.9789202046432415e+00 3.4022266459586672e+00 0 0 0
108 2 1.1702687911060410e+01 3.9389697177765424e+00 8.8200612584126521e+00 0 0 1
316 1 9.9035906942271144e+00 1.1841672460920250e+01 9.2039505393496395e+00 0 -1 0
731 2 1.0931494109804573e+01 1.4615204499049870e+01 7.1831027039189765e-01 0 -1 1
529 1 1.1323113150934347e+01 7.7256630681075835e+00 8.2010466561505719e+00 0 1 -1
748 1 1.2395783655970655e+01 7.1347170862172415e+00 3.8588492089490600e+00 0 0 1
884 2 3.1459350147124798e+00 5.2785632722856670e+00 9.8747882979998849e+00 0 0 0
237 2 1.1823950769918177e+01 1.2611891234358609e+01 5.9328615874925550e+00 0 0 0
249 2 6.3262675073789438e+00 1.8126088438061576e+01 8.3690436155837062e+00 0 0 -1
1356 2 5.9480243548844767e+00 1.0227628671763179e+01 9.3176808213717308e+00 0 0 2
140 2 1.9485360997681795e+01 2.8545748307572243e+00 2.4159483350189621e+00 0 0 0
1378 1 1.8795283644570077e+01 1.6050598059101777e+01 8.6592309140033374e-01 0 0 1
904 1 1.0630743481457266e+01 1.0076024051547627e+00 1.0123583288015595e+01 0 0 0
32 2 2.3961645441223607e+00 1.2124976287797729e+00 2.7044647431648374e+00 1 0 0
1160 2 7.3966128019120152e+00 1.1019011058149037e+00 1.4947119263182040e+00 0 1 0
1555 1 8.4011008913099516e+00 4.5951683648418973e+00 9.8045556201571973e+00 0 0 1
1306 1 8.3197108091388099e+00 1.5348769624160903e+01 2.3414980152295950e+00 0 -1 1
710 2 1.6537760746940798e+01 1.5640978350967535e+01 8.5852977368112615e+00 0 -1 0
1598 2 1.5862402192751837e+01 4.3456679838940193e+00 7.3592908110784236e+00 0 1 0
470 2 1.4244734444501093e+01 1.2558077645473583e+01 7.9762171814524567e+00 0 0 -1
715 1 1.4558548001386933e+01 5.5100953651020239e+00 2.6473981576797478e+00 0 0 1
923 2 1.7735948506100122e+01 1.6660644074928022e+01 1.0118402061891064e+01 0 -2 0
489 2 1.7690146574925414e+01 1.3324929905838268e+01 2.0704131864661615e+00 0 1 -1
951 2 1.3342116497101635e+01 1.7609654343939614e+01 2.1939515459901973e+00 0 0 0
60 2 1.8395010980207362e+00 4.2002820331166770e+00 7.1248642278059240e+00 0 0 -1
729 2 1.6288675862671091e+01 6.7971221883187727e-01 1.9800342442399452e-02 0 0 1
1157 2 1.7821909655752552e+01 9.9388781265036670e+00 8.1475663548099497e+00 0 0 0
1787 2 1.0986873521155518e+00 1.4907312080701617e+01 1.4664817270523891e+00 0 0 1
933 2 1.2781516897976914e+01 1.0146180401311247e+01 1.5153125019973648e+00 0 1 0
965 2 6.7683386116064765e+00 2.3190498806075555e+00 9.1944923232638800e+00 0 1 0
709 1 1.6318605261944249e+01 1.6564923589381973e+01 9.0009291016489499e+00 0 -1 0
1556 2 8.3792877530288834e+00 3.8615275514327543e+00 9.1119611976166350e+00 0 0 1
1818 2 1.7814515825089813e+01 3.3235999885386280e+00 1.9967984681366662e+00 0 2 1
1774 1 1.2601555911982917e+01 2.9848912422520373e+00 2.9311631001756417e+00 0 1 1
1775 2 1.2639033820149855e+01 3.0684617265796943e+00 3.9120770364758619e+00 0 1 1
699 2 6.6430382919145403e+00 2.1070965519406055e+00 5.3973253804049612e+00 0 1 1
726 2 1.9113018372510940e+01 1.8137534421232211e+00 6.7941057878540914e+00 0 0 0
1106 2 4.0635817365670845e-02 7.8055362672959570e+00 2.5528445616156383e+00 0 1 1
949 1 1.2948924886304766e+01 1.7893902003655867e+01 3.0094454914287536e+00 0 0 0
1575 2 9.9923549529689382e+00 2.8800609225561367e+00 8.0841876161365924e+00 0 1 0
535 1 1.2496465558967074e+01 1.5159860532333600e+01 3.5031713079049061e+00 0 0 0
1381 1 1.0614899871239848e+01 1.4375026389006679e+01 9.0936601371909340e+00 0 -1 0
460 1 8.3869729444173058e-01 1.6688703561517459e+00 5.5559862148499972e+00 0 1 0
971 2 1.3440530903827852e+01 2.9704950219943043e+00 1.2462794912269677e+00 0 0 0
1171 1 1.2378378562941394e+01 1.7330047420741856e+01 9.7933893448342655e+00 0 0 0
1172 2 1.2184283308024220e+01 1.6786586535005508e+01 9.0014653398919542e+00 0 -1 0
1618 1 7.3236151505201423e+00 1.7090958739914285e+01 6.3249456702325304e+00 0 -1 0
1582 1 9.0040740970534578e+00 1.3352810687702782e+01 4.1760237083191694e+00 0 0 0
941 2 1.7919316664816723e+01 3.4229039526319660e+00 7.7111378274595754e+00 0 1 1
1354 1 6.0654079210715022e+00 9.2564505089538773e+00 9.4556667099011538e+00 0 0 2
689 2 1.1440148147001096e+01 3.3099935907101790e+00 5.5064535719058245e+00 0 0 0
268 1 1.9882194395487343e+01 1.4312798966448598e+01 5.1024375510045870e+00 0 0 0
1742 2 3.2960332693662417e+00 5.6310259440847483e+00 1.2223258783607394e+00 0 0 0
893 2 9.7470001569582507e+00 1.9012924661664190e+01 6.8116231888290928e+00 0 0 0
881 2 4.2722744814443301e+00 9.4283565748588529e+00 5.8646316108729435e+00 0 0 0
1174 1 2.7941627498878341e+00 6.0126390075832230e+00 5.2134347688493801e+00 0 1 0
1771 1 1.4261264937374811e+01 1.0876608110779422e+00 5.8332485427096508e+00 0 1 0
530 2 1.0816232409721223e+01 7.2307755593307173e+00 7.5066973156352974e+00 0 1 -1
1524 2 3.8882412152991863e+00 4.2897120749550579e+00 8.0631409829269067e+00 0 0 1
102 2 1.7144678712629322e+01 9.3763241273222011e+00 3.9955271763485811e+00 0 1 0
962 2 7.2356638816456025e+00 1.2505107417441891e+01 3.5308610651209076e+00 0 0 0
448 1 1.5228975115357587e+01 9.1983190291951533e-01 8.3493789637617262e+00 0 1 -1
1584 2 8.7623921496280932e+00 1.4083953048301316e+01 3.5066179681018750e+00 0 0 0
1606 1 1.4977012893112818e+01 5.0088994845832691e+00 6.2426091873355247e+00 0 -2 0
687 2 1.0273163781666544e-01 1.4855909366936546e+01 9.5661150425194048e+00 0 0 0
1743 2 4.1348734667712401e+00 5.9368448787538144e+00 2.4009751119735649e+00 0 1 0
1374 2 4.6592400494706325e+00 1.5322935984494135e+00 8.5886039501232325e+00 0 0 1
487 1 1.8339082732409349e+01 1.2621360366896825e+01 1.9813556791012257e+00 0 1 -1
1599 2 1.6543431791129940e+01 3.9463319244368087e+00 8.7199606957928779e+00 0 1 0
1136 2 1.2661961280829596e+01 1.9075707793584968e+01 8.9790359958197463e+00 0 1 -1
1126 1 7.6499192151769542e+00 1.7672007715315928e+01 3.6738952535817675e+00 0 0 1
1105 1 5.0954497908321766e-02 6.8797104404134988e+00 2.2760968865830384e+00 0 1 1
702 2 9.7572264047838626e+00 8.3098974983275156e+00 1.0988006217984430e+00 0 0 -1
1731 2 5.8672109309166158e+00 1.4627092958944893e+01 9.1349230121731431e+00 0 0 -1
1373 2 3.5389246659158493e+00 1.1356349503191931e+00 9.5800538644956674e+00 0 0 1
1607 2 1.4183625846294431e+01 4.4684366613903528e+00 6.0477692169818713e+00 0 -2 0
440 2 1.8746194639857197e+00 1.4183570137941572e+01 8.1529549805983947e+00 0 0 -1
1325 2 4.3065615678976199e+00 1.6616429997843913e+01 1.6753002164386901e+00 0 -1 0
1326 2 3.1074341402064616e+00 1.5684064970876658e+01 1.1981063997987049e+00 0 0 0
518 2 1.9398634421080327e+01 1.5364483879602631e+01 6.6102094162611218e+00 0 0 0
289 1 7.6998331266585274e-01 1.8063389675053784e+01 4.0180151723344162e+00 0 -1 -1
1137 2 1.3578643740142976e+01 6.6262865280930316e-01 8.7938837888213062e+00 0 2 -1
1368 2 1.7384265993223003e+01 1.5576602137238831e+00 5.1314032239329119e+00 0 1 1
730 1 1.0729479121223555e+01 1.5416901036220629e+01 1.2314157599941922e+00 0 -1 1
885 2 4.6929783602261095e+00 5.0512220914231074e+00 1.0165680547846447e+01 1 0 0
1795 1 1.8561946269264734e+01 9.2520994725706345e+00 1.2827127923907298e+00 0 1 1
1141 1 1.7296980814738891e+01 1.0942284584626643e+01 3.6664665988814233e+00 0 0 0
897 2 9.0261432346881918e+00 2.3425093985567762e+00 4.1351816403067121e-01 1 0 0
255 2 1.0908052960646295e+01 1.1301598424890038e+01 4.7212314352736667e-01 0 0 1
888 2 8.0764705297644106e+00 9.8320259781757322e+00 5.5507021529927609e+00 0 0 0
1739 2 8.4638762777430792e+00 1.4103422422655212e+01 7.2352934651669356e+00 0 0 0
1722 2 3.1938825480224482e+00 9.2080630675696415e+00 1.7032646928492379e+00 1 0 1
690 2 1.2817613366643261e+01 2.6345449124886184e+00 5.9477441301452858e+00 0 0 0
5 2 2.3797031225602354e+00 1.1969989588546928e+00 4.6928745554455836e-01 0 1 0
1561 1 1.6314730976736960e+00 7.1822490071403129e+00 9.8204421620429141e+00 0 1 0
966 2 6.7334064991074136e+00 2.5533304286419187e+00 7.7573851983867446e+00 0 1 0
449 2 1.5779070180330770e+01 1.7516297864326336e+00 8.3286895612887619e+00 0 1 -1
671 2 5.9650381983311380e+00 6.9184175510980914e+00 4.3537398105566893e+00 0 -1 0
1355 2 5.9725540795971499e+00 8.8794626702410291e+00 8.5737425297476459e+00 0 0 2
908 2 4.2970302754224372e+00 2.1898539569275073e+00 2.7694133714155753e+00 0 0 0
1796 2 1.9453686083007490e+01 9.5137853868658002e+00 1.5398870509756921e+00 0 1 1
950 2 1.3652021000271690e+01 1.8063553438117737e+01 3.7296715757249825e+00 0 0 0
468 2 1.1765366935463804e+01 1.9622968097072370e+01 5.5256207934371613e+00 0 0 1
1544 2 3.2077445732675596e+00 1.1277883874398276e+01 2.7814319455679284e+00 0 0 0
1323 2 2.0666682021371137e+00 1.1287475253252993e+01 9.4237066323240359e+00 0 0 0
688 1 1.2378551036847472e+01 3.5039945161288504e+00 5.6712005035273583e+00 0 0 0
517 1 1.9109536957048451e+01 1.5867609905073790e+01 7.3668655226731170e+00 0 0 0
1740 2 9.3225091198620387e+00 1.4974914333233810e+01 8.1204151627140266e+00 0 0 0
716 2 1.4022729215107045e+01 4.8025920954684338e+00 3.1065993855076703e+00 0 0 1
276 2 7.9908598524393266e+00 8.7168799833093455e+00 2.2301726376830699e+00 0 0 0
270 2 1.9184834467187610e+01 1.4569667755811917e+01 4.4168320543338933e+00 0 0 0
1372 1 3.9721971839433436e+00 8.5623089902008021e-01 8.7363119572483008e+00 0 0 1
84 2 6.2565495859599203e+00 6.4042022046025204e+00 9.1508161125317038e+00 0 0 -1
230 2 2.1936018155021482e+00 1.1769828703213395e+01 7.0846977152493977e+00 0 0 0
711 2 1.5677848757098472e+01 1.6236657518024771e+01 9.6609825457579799e+00 0 -1 0
490 1 9.9660496540817274e+00 1.8448232645917592e+01 1.3854752136946691e+00 0 0 0
1371 2 1.8977156180759347e+00 4.0658040942489677e+00 5.8369946906256998e-01 0 0 1
668 2 -1.0292321093727151e-01 1.9207097070149725e+01 9.9485573492985395e+00 0 0 0
1143 2 1.6362039131576186e+01 1.1125985389048612e+01 3.5003500206345826e+00 0 0 0
1342 1 8.9510536314901827e+00 2.6806325878718301e-01 3.9847812142083199e+00 0 0 0
106 1 1.1208252761000399e+01 4.1567529588400882e+00 8.0425908871296041e+00 0 0 0
1396 1 1.5945664550620311e+01 8.1571238119508731e+00 9.4522772313071890e+00 0 -1 1
275 2 8.9116543253611713e+00 7.8193747008971739e+00 3.2374152744692264e+00 0 0 0
243 2 6.1695516235934553e+00 1.7898840296053883e+01 2.6011223622540376e+00 0 0 0
913 1 1.1367205129930293e+01 1.6620016184129241e+01 7.2929229262369812e+00 0 0 0
906 2 1.1396223683925074e+01 7.5648585858950279e-01 9.5425011539191633e+00 0 0 0
451 1 5.1237075362786362e+00 1.9194229660078832e+01 6.7377070248262552e+00 0 0 -1
74 2 1.6394959499257372e+01 1.1447677040992488e+01 8.7292130290237075e+00 0 0 0
1566 2 1.2069949520938604e+01 1.0220122354874229e+01 5.4005083264809093e+00 0 0 0
1792 1 1.7437991786748476e+01 1.4061341194606490e+01 8.7440865157092009e+00 0 -1 1
1535 2 3.4833056823754598e+00 1.9637630919955217e+01 4.2369470757033563e+00 0 -2 0
728 2 1.7471720548486065e+01 1.4872855727212007e+00 5.7496469992800070e-01 0 0 1
1341 2 1.8100942291957480e+01 1.1678519742949407e+01 5.2181911603178914e+00 0 0 1
969 2 6.0289987340928270e+00 1.6349890401335099e+01 6.2400508876313774e+00 0 0 0
87 2 2.3636783943079038e+00 1.7764945593839823e+01 6.4481167769897523e+00 0 -1 0
537 2 1.1990274734913859e+01 1.5207760863391671e+01 2.6698465727589378e+00 0 0 0
506 2 1.0553553761039643e+01 1.7714999844257392e+01 1.0033774869813300e+01 0 -1 0
321 2 5.8122901439466634e+00 1.5327415754659917e+01 7.0448352638639711e-01 0 -1 2
539 2 1.5938665267326918e+01 1.2884836184181884e+01 2.9631786950273381e-01 0 0 2
712 1 4.4848115087470637e+00 7.2932798896519744e+00 3.6348694536314352e+00 0 0 1
1176 2 2.2834582060606712e+00 6.8467332702544699e+00 5.5380626378260089e+00 0 1 0
21 2 2.4342787608857757e+00 3.2659803898670225e-01 7.6397045572481463e+00 0 0 0
1536 2 4.3520387432398326e+00 1.8658721641182840e+01 5.1782305362310916e+00 0 -2 0
970 1 1.3402623222103077e+01 3.3248237942767589e+00 3.0363815399723826e-01 0 0 0
458 2 9.0047266182544146e+00 1.2241932442739429e+01 7.5681458495296976e+00 0 1 0
1113 2 7.7188600065151585e+00 8.8198117349276082e+00 9.6357033290936602e+00 0 0 0
1833 2 9.4321915915671166e+00 3.2777397965965260e+00 4.4520512062193971e+00 0 0 0
721 1 7.3173879508383388e-01 4.6163914773913612e+00 4.0099729935937534e+00 0 0 0
442 1 1.1081778025841468e+01 1.4260387891502827e+01 5.6928845821973653e+00 0 1 0
1375 1 6.3494001637799196e+00 7.1026247648063716e+00 7.7199246065480738e+00 0 0 1
1168 1 1.1538329464739819e+01 3.0744952915301721e-01 3.7561377411922390e+00 0 0 0
1773 2 1.5087550417412126e+01 1.4527975001303661e+00 5.4951588260034789e+00 0 1 0
221 2 9.1611223118959018e+00 5.7186093509904037e+00 7.4337583856200311e+00 0 1 -1
1815 2 1.7347224728244825e+01 9.8052692953847682e+00 1.9748038428269149e-01 0 1 1
33 2 2.1860736447826121e+00 1.6761093939276075e+00 4.1973578184338676e+00 0 0 0
241 1 5.3147616146225021e+00 1.8056682195327728e+01 2.2389398423820666e+00 0 0 0
915 2 1.1426613217149972e+01 1.7170461268571799e+01 6.4980484323926930e+00 0 0 0
7 1 2.8653319054803128e-01 1.3419638999087363e+01 8.5018549985167144e+00 0 -1 0
1801 1 9.6927784516858431e+00 6.6799130541908145e+00 4.4296625368076814e+00 0 1 1
1167 2 9.2894557715297790e+00 8.8468562272563389e+00 7.4996709432363673e+00 0 1 0
308 2 1.1126996306495689e+01 6.8085302293660117e+00 7.3613716042574717e-01 0 0 0
1380 2 1.8567467981642210e+01 1.7007550661034692e+01 9.7349157995008606e-01 0 0 1
968 2 4.3794099568868763e+00 1.6533946178765301e+01 6.1015986772979733e+00 0 0 0
476 2 7.3684898579474680e+00 5.4997890377464085e+00 2.8881885486702532e+00 0 1 1
1376 2 5.6437563287963686e+00 6.8031488668370912e+00 7.0862605844996436e+00 0 0 1
248 2 6.4467966324692210e+00 1.6847943141805978e+01 9.2730573304361616e+00 0 0 -1
1817 2 1.7488362670514132e+01 2.0883374441214477e+00 2.8510067325199668e+00 0 2 1
19 1 1.5926041427236495e+00 1.9622694387631157e+01 7.4379519103165741e+00 0 -1 0
865 1 1.4709234668283720e+01 1.7164221318830688e+01 1.1486914925344285e+00 0 -1 1
447 2 3.2714966888713684e+00 9.7016211089530486e+00 7.7488442472880994e+00 0 0 -1
287 2 1.5795501141027128e+01 1.3226650150267842e+01 4.6959353301146418e+00 0 0 1
65 2 1.8017809868594867e+01 5.6920218291697573e+00 9.9242783679448294e+00 0 0 -1
4 1 2.3543863301450076e+00 3.0313835669438294e-01 8.6296814174809389e-01 0 1 0
1545 2 3.4978755425356547e+00 1.2790872865608971e+01 3.3631217891591061e+00 1 0 0
1308 2 8.1454548294968099e+00 1.6121789816977380e+01 2.8475416981803452e+00 0 -1 1
1826 2 1.8308712497530308e+01 5.6724684963858749e+00 1.1826515781077644e+00 0 1 1
48 2 1.3029561881051610e+01 7.4141733937088699e+00 5.8488071518145768e+00 0 -1 0
732 2 1.0675759393355127e+01 1.6195697036976942e+01 7.0364153074177671e-01 0 -1 1
56 2 7.1570658403893272e+00 1.2385834498257690e+01 1.3722847888727447e+00 0 0 -1
714 2 3.8641649428785643e+00 8.0150762984910546e+00 3.3086546308775917e+00 0 1 1
929 2 1.5177105791134945e+01 1.5013172900107278e+01 5.9725580997452647e+00 0 0 0
1366 1 1.6806548854610753e+01 2.0892458109073293e+00 4.5862346535447056e+00 0 1 1
46 1 1.3791768088825108e+01 7.2117860574781067e+00 6.3925995471769683e+00 0 -1 0
937 1 4.0747676637982853e+00 1.4244854950391209e+01 3.9535988338812325e+00 0 0 0
967 1 5.1344009465627538e+00 1.5996516298662259e+01 5.8461063764792955e+00 0 0 0
85 1 2.5021934891803510e+00 1.6820936905720625e+01 6.2883003021126376e+00 0 -1 0
958 1 1.7188489086348604e+01 4.8612799200065604e+00 2.2055544374661427e+00 0 1 0
931 1 1.3695675982600774e+01 1.0076327361064513e+01 1.7847997097765587e+00 0 1 0
1534 1 3.6680102459945632e+00 1.8671202377290491e+01 4.4689860729463176e+00 0 -2 0
695 2 1.4722172589650752e+01 1.7386429202377826e+01 5.4515246434623474e+00 0 -1 0
1730 2 7.4595670494543622e+00 1.5021883866569297e+01 8.9459196340450955e+00 0 0 -1
1382 2 1.0306390267234145e+01 1.3485569919595108e+01 9.3426968260129133e+00 0 -1 0
1828 1 1.5820002907503500e+01 7.9128711430180037e+00 2.1496085835934893e+00 0 0 0
1112 2 8.8081384759000301e+00 9.7774497735873460e+00 9.1984398026546046e+00 0 0 0
953 2 1.8082122877670880e+01 1.8072014179286569e+01 4.7340547853101000e+00 0 0 1
1794 2 1.7385971242178943e+01 1.3069714525882418e+01 8.4447320852881198e+00 0 -1 1
222 2 9.4711077101204602e+00 6.4765713541145589e+00 5.9971286598103850e+00 0 1 -1
670 1 6.6179487915822470e+00 6.2555212936438158e+00 4.7099489143589093e+00 0 -1 0
886 1 7.6847711957007299e+00 1.0035895517363702e+01 4.6987012022506747e+00 0 0 0
889 1 8.1646589726885677e-01 1.4545226792878701e+01 5.5557947258450158e+00 0 0 0
1324 1 4.0735839895455879e+00 1.5739820614742694e+01 1.2457479525051229e+00 0 -1 0
722 2 1.5025069043648032e+00 4.9238939176957244e+00 4.6059680004615204e+00 0 0 0
1165 1 9.4352103286415314e+00 9.6171112705484774e+00 6.9074904549653056e+00 0 1 0
866 2 1.4852312705772023e+01 1.6232159574276544e+01 1.0522934485389235e+00 0 -1 1
961 1 6.4627957557275000e+00 1.2421321116140893e+01 2.9373151867114533e+00 0 0 0
1619 2 7.8893854398672669e+00 1.6361435118115683e+01 6.6702937514974892e+00 0 -1 0
1344 2 9.9299744718921694e+00 3.0308687533254641e-01 3.8972329129624170e+00 0 0 0
1612 1 1.7285553610938360e+00 5.9068796565137820e+00 4.0908460079549686e-01 0 1 1
1736 2 9.7370195763264056e-02 2.1065164234010787e+00 9.4205644678447928e+00 0 1 0
959 2 1.7355307144101921e+01 4.8967933859059274e+00 3.1757592096229339e+00 0 1 0
1831 1 9.6719519454054819e+00 3.1703741476805076e+00 5.3957307712385427e+00 0 0 0
247 1 6.3045167658265662e+00 1.7865754169378988e+01 9.2797180802605386e+00 0 0 -1
6 2 2.9075447185077983e+00 1.9452420636548872e+01 4.1734210288478080e-01 0 0 0
940 1 1.8914269789184413e+01 3.3973309908973137e+00 7.5651731676327030e+00 0 1 1
1558 1 1.9202125153092865e+01 1.8084096582750007e+01 5.8690804143796047e+00 0 0 1
495 2 9.9297064713606331e-02 5.5061241300742907e+00 7.5927754968653085e+00 0 0 -1
669 2 3.3636747779889453e-01 7.4626398852659023e-02 8.6048196977344116e+00 0 1 0
86 2 2.3948284812143483e+00 1.6284275647190029e+01 7.1004192803940551e+00 0 -1 0