LAMMPS data file via write_data, version 15 Apr 2020, timestep = 250000

6144 atoms
2 atom types

-1.7505584116876953e+00 6.1718847542869320e+01 xlo xhi
1.5200568323870201e-01 2.8188460316759532e+01 ylo yhi
1.6430577842339211e-01 2.7247139221575964e+01 zlo zhi
1.0122158982762334e+01 1.0188543700293909e+01 7.1154925215373144e+00 xy xz yz

Masses

1 16
2 2

Atoms # atomic

1595 2 1.7275481813453428e+01 2.1691133429585697e+01 2.0242713281482459e+01 0 0 0
1604 2 1.7160286193068405e+01 1.9069080274531757e+01 2.5811565014964806e+01 0 0 0
2323 1 7.4375366426867657e+00 2.0757198568168093e+01 2.1047939608623807e+00 0 1 1
987 2 1.1780318703952268e+01 1.7695657365827344e+01 1.9286453886220102e+01 0 0 0
225 2 5.7466142172515671e+00 6.5760219407394445e+00 5.6108509804562079e+00 0 0 0
52 1 1.4541197330593977e+01 2.7072879640104915e+01 7.9696736296854551e+00 0 -1 0
25 1 9.2099081349611414e+00 1.5048400071863133e+01 8.1012755922626631e+00 0 0 -1
1625 2 1.6129921307556128e+01 1.9586442486019326e+01 2.0114762830480984e+01 0 0 0
2464 1 1.3337795120485975e+01 1.7466487083232533e+01 6.7424353568099216e+00 0 1 0
886 1 1.6567183762900203e+01 2.4766165671539053e+01 2.0958745829479575e+01 0 1 -1
1633 1 1.5423275616622941e+01 1.3830396728054716e+01 2.2207591774674313e+01 0 0 0
849 2 1.4322340566605227e+01 2.1289674889567571e+01 1.2425169418667453e+01 0 0 -1
2443 1 1.1803975528093108e+01 1.4028296095421585e+01 7.2883557764010103e+00 0 1 0
358 1 1.7777977218092154e+01 2.5008286578136243e+01 2.3565136782097596e+01 0 0 0
2466 2 1.3924773903366772e+01 1.8225077710906326e+01 6.4028207843057681e+00 0 1 0
1895 2 7.9900029895753342e+00 1.5403719956710043e+01 5.6845666606247338e+00 0 0 1
1670 2 4.1682455588660474e+00 3.5898741894674462e+00 4.4535434487875786e-01 0 0 0
1634 2 1.5997108183529399e+01 1.4619023260986269e+01 2.2259322276276755e+01 0 0 0
1064 2 2.0262697795888549e+01 3.3841465418343290e+01 2.1880692133851142e+01 0 0 -1
1894 1 8.1935005744186000e+00 1.5689551513600001e+01 4.8007419979613353e+00 0 0 1
1740 2 6.4324591555612010e+00 1.4320395942782923e+01 4.2362199727907790e-01 0 0 1
1916 2 1.5161533016678767e+01 2.4055679545857764e+01 1.6041263667917825e+01 0 0 0
611 2 5.4642691306857287e+00 6.7627212310035079e+00 1.3263782010644517e+01 0 1 0
1709 2 1.2504292177039972e+01 7.7672848746158909e+00 1.7317432751378199e+01 0 0 0
487 1 1.7089655181699928e+01 2.6345584999104538e+01 2.6931479777929482e+01 0 0 -1
53 2 1.4115763025072784e+01 2.6207069488009498e+01 7.8922776082003363e+00 0 -1 0
1587 2 1.0925062475136169e+01 1.4842086933197473e+01 1.3607306836478370e+01 0 0 0
1586 2 1.0473682823733219e+01 1.4320525227104479e+01 1.2172479588922421e+01 0 0 0
1675 1 9.4985141366514050e+00 1.7237166717780980e+01 1.6034891005355327e+01 0 0 0
2564 2 9.6248758485686583e+00 1.0757125603454536e+01 3.3034271045010766e-01 0 1 0
416 2 1.6281402210887762e+01 1.7604325607921208e+01 2.0769971945759728e+01 0 0 0
1871 2 1.4971308529553450e+01 2.4405891081471839e+01 2.0208578002274265e+01 0 0 0
610 1 5.7261647156670819e+00 5.9876360708532692e+00 1.2736205780269467e+01 0 1 0
1275 2 6.3405344566418709e+00 9.4819818986955884e+00 4.3015422248461110e+00 0 0 0
1014 2 2.2166876042273074e+01 8.0246546559226015e+00 2.4345966007266384e+01 0 0 0
2450 2 1.5027117960173690e+01 2.3731898995552303e+01 2.5362001467566230e+01 0 0 0
1708 1 1.1771033148546751e+01 7.5855171768536547e+00 1.7890269532118523e+01 0 0 0
27 2 1.0051640680919409e+01 1.4863812257934676e+01 7.6842048270176795e+00 0 0 -1
907 1 1.8053184486818882e+01 2.8002461460039761e+01 2.2266803629829525e+01 0 0 -1
99 2 1.0933464514020168e+01 7.3066870865337101e+00 7.6835165011288371e+00 0 0 0
1561 1 1.1406730474740886e+01 1.5907029597720232e+01 1.4748874888918937e+01 0 0 0
1901 2 1.1511333624943383e+01 9.6161324188501300e+00 2.3353415781871995e+01 0 0 0
1732 1 1.1008108661695662e+01 1.1993992643114289e+01 2.6936456262791140e+01 0 1 -1
1059 2 7.4884445640037356e-01 7.6497323262902084e-01 2.5096363740155575e-01 0 1 0
924 2 1.8550118916721182e+01 2.0318242672962132e+01 1.0059257611793150e+01 0 0 0
1637 2 9.5787781022884460e+00 1.1896343379878651e+01 1.8748358723749490e+01 0 0 0
224 2 5.9304656385878882e+00 5.8933148102272082e+00 6.9083636082993971e+00 0 0 0
1781 2 9.8726546362390053e+00 1.3050152219617289e+01 1.4216479727140303e+01 0 0 0
1710 2 1.1711386127390465e+01 6.6167567253041959e+00 1.8089794929426212e+01 0 0 0
1689 2 9.3116401629866683e+00 6.5614002636615512e+00 1.5138722262649436e+01 0 0 0
1705 1 1.5354725713282569e+01 1.5315479340285883e+01 1.6554523338073352e+01 0 0 -1
1773 2 9.0566408547097321e+00 2.3705774475697453e+01 1.3483386009215323e+00 0 0 0
101 2 5.9979763487722497e+00 8.1793882766470283e+00 9.0990885421126428e+00 0 0 0
1570 1 1.2922976535434389e+01 1.2428696510982077e+01 1.6662869512070621e+01 0 0 1
2314 1 1.4271633134894099e+01 2.4953934666683857e+01 1.2426748603527422e+01 0 0 1
1129 1 1.2959329637117435e+01 1.4584441950753789e+01 2.1144525440679395e+01 0 0 -1
2360 2 8.5709093997061210e+00 1.4188352279014669e+01 1.1271447716592981e+01 0 0 0
1635 2 1.4506665390431383e+01 1.4144543009158614e+01 2.1937999250799905e+01 0 0 0
1017 2 1.1287140034339249e+01 4.8434420603907808e+00 1.1673466099452337e+01 0 1 -1
781 1 1.4639341199879691e+01 2.8600379248476081e+01 1.6629897532971633e+01 0 0 0
821 2 1.0078744896540950e+01 1.7711163812330089e+01 2.1141537110859101e+00 0 0 0
974 2 1.3881096212065387e+01 2.9993127497754621e+01 7.6008777293874772e+00 0 0 0
896 2 1.8290842814038957e+01 3.0617993981368350e+01 2.0501267279143498e+01 0 0 -1
868 1 9.4187728225656517e+00 1.7676102069276059e+01 8.7649255960834882e+00 0 0 0
944 2 5.4660941504533342e+00 1.4435693290150343e+01 2.3673746701956229e+00 0 1 0
1571 2 1.2596920582951171e+01 1.1761044583588390e+01 1.6036271884856031e+01 0 0 1
1659 2 1.5636702369944182e+01 2.6549339737625321e+01 1.8149164817646593e+01 0 -1 0
894 2 1.2718348771590035e+01 2.1300746618680865e+01 8.9842625951755686e+00 0 0 0
1750 1 2.7064501109657837e+01 2.2473914708416778e+01 1.7719112411325433e+01 0 0 0
1274 2 6.0157598112728063e+00 8.1542804214762956e+00 3.4548794848120439e+00 0 0 0
1113 2 1.0739952025938305e+01 2.1720669478256166e+01 1.1878366576526412e+01 0 0 0
1669 1 4.7331200654641190e+00 4.4233923515580953e+00 5.7040374095571567e-01 0 0 0
1063 1 9.5284339272512621e+00 6.6165105148428056e+00 2.2008078320937948e+01 0 1 -1
1671 2 5.1289852301828036e+00 4.4089145918699311e+00 1.4815510710438735e+00 0 0 0
1791 2 4.4826857681172143e+00 7.2613325294729627e+00 7.7188616960215848e+00 0 0 1
1001 2 7.6768780905152170e+00 1.4647892493201285e+01 7.5934462954170314e+00 0 0 0
846 2 1.5914491709464553e+01 1.7958340067760034e+01 2.4510126134968402e+01 0 0 -1
359 2 1.6947619552984715e+01 2.4860419194214838e+01 2.3977741930671307e+01 0 0 0
1739 2 1.6006827726489743e+01 2.0755846842754611e+01 2.6290669719034099e+01 0 0 0
822 2 9.4916717183622143e+00 1.8287286554132034e+01 8.6908832996680729e-01 0 0 0
2471 2 1.9656783474424632e+01 8.1013016062875813e+00 2.1088642694092584e+01 0 1 0
1112 2 1.0712554400140014e+01 2.3217915660287233e+01 1.2563004457438177e+01 0 0 0
887 2 1.6879777710447872e+01 2.4157445391776161e+01 2.1642466187409227e+01 0 1 -1
2465 2 1.3003557443966882e+01 1.6900666417285358e+01 5.9651367532784390e+00 0 1 0
54 2 1.4853651460083103e+01 2.7424330107325130e+01 7.1211658083191969e+00 0 -1 0
754 1 1.1783658305029050e+01 2.5592240227721003e+01 1.5293405916641079e+01 0 0 0
223 1 5.8032716854504223e+00 6.7736807624137043e+00 6.5190781034291048e+00 0 0 0
1917 2 1.4260543459646865e+01 2.5394610099469478e+01 1.6760085232543261e+01 0 0 0
353 2 6.4166373230399820e+00 9.7243623613888488e+00 7.1154555826059838e+00 0 0 0
2407 1 1.2157351714917976e+01 1.8172951094676588e+01 9.0250706733088553e+00 0 0 0
1687 1 8.7962240384979999e+00 7.4408837424769620e+00 1.5276766982008914e+01 0 0 0
986 2 1.1264070745766954e+01 1.7288549954804676e+01 1.7852889228071383e+01 0 0 0
1706 2 1.4797468231563627e+01 1.4994321386658084e+01 1.5797331651301118e+01 0 0 -1
1703 2 1.1375350811303747e+01 1.3738540523441632e+01 1.6908774687851604e+01 0 0 0
1374 2 1.9337442550089811e+01 2.2137580658502145e+01 2.5800742143693687e+00 0 0 0
1688 2 9.2164120612601366e+00 8.0539706479859241e+00 1.5961574924969471e+01 0 0 0
1002 2 6.0789581035232816e+00 1.4066159835777491e+01 7.3718167564663162e+00 0 0 0
1610 2 7.7416948672546280e+00 1.8304259143300257e+01 2.9234875596283225e+00 0 -1 0
922 1 1.8042069361566547e+01 1.9930618313634852e+01 9.3266556231469249e+00 0 0 0
2409 2 1.2174150954883874e+01 1.9157699728254411e+01 8.8661682397383235e+00 0 0 0
845 2 1.5357639511186971e+01 1.6487496103486233e+01 2.4903300222847058e+01 0 0 -1
1563 2 1.2014219076714493e+01 1.6677723974003690e+01 1.4552710678573879e+01 0 0 0
908 2 1.8860942675019317e+01 2.7848582728826887e+01 2.2755085654675099e+01 0 0 -1
893 2 1.1743561737820647e+01 2.1118512994714457e+01 7.7775585038372990e+00 0 0 0
28 1 1.8570328109590914e+01 2.1999938430375671e+01 1.4367959917949159e+01 0 0 0
2652 2 2.7087511802433969e+01 2.4298558424855148e+01 2.4899959076994165e+01 0 0 0
870 2 1.0359042667763294e+01 1.7769704454789490e+01 8.9636183597290522e+00 0 0 0
300 2 1.3529218152257286e+01 2.2339445753924434e+01 6.0885270443279644e+00 0 0 0
1585 1 1.0831885816424570e+01 1.4034116954587457e+01 1.3038978823899077e+01 0 0 0
2414 2 1.2873026316484797e+01 1.8478968861760745e+01 1.4062820353527236e+01 0 0 1
752 2 1.0700885894854574e+01 1.9753358250954843e+01 1.7613643007884562e+01 0 0 0
2441 2 1.4478894613624039e+01 2.1357926600459756e+01 1.0121965571154050e+01 0 0 1
847 1 1.4894072121609966e+01 2.0846702472941029e+01 1.1767026518447812e+01 0 0 -1
1562 2 1.0723025934781523e+01 1.6307537865452488e+01 1.5321285504567232e+01 0 0 0
1015 1 1.0715089518634439e+01 4.2077189087609206e+00 1.2217576945523659e+01 0 1 -1
1738 1 1.6250352766236706e+01 2.1633922673501228e+01 2.6624714380786131e+01 0 0 0
1897 1 1.5305603421977164e+01 2.6802382229520958e+01 2.2705165413883002e+01 0 0 0
30 2 1.9463956570402349e+01 2.2080243064274807e+01 1.4841728167296456e+01 0 0 0
232 1 1.4659609361602985e+01 2.0109063654683474e+01 2.2860826208061752e+01 0 -1 0
233 2 1.4810761780286352e+01 1.9213979367194327e+01 2.2541651340027201e+01 0 -1 0
234 2 1.3939716593276156e+01 2.0442272681992385e+01 2.2245164744938066e+01 0 -1 0
2440 1 1.4208672149782890e+01 2.1931718986544816e+01 9.3289414781595603e+00 0 0 1
98 2 1.1242698732696663e+01 8.4164895651705613e+00 8.7935146122039818e+00 0 0 0
2408 2 1.2618545601914390e+01 1.7835104133137239e+01 8.2027686335425614e+00 0 0 0
369 2 1.2096303225654449e+01 1.2824143377340317e+01 1.2147113515575759e+01 0 0 -1
1065 2 9.9223270685650959e+00 7.2934253527243129e+00 2.1436182677118452e+01 0 1 -1
1130 2 1.3145085203408813e+01 1.4862021472288816e+01 2.0196908970016210e+01 0 0 -1
2355 2 1.8325406191409570e+01 2.8537221298618221e+01 2.0712304437232405e+01 0 0 0
962 2 2.1752871486420641e+01 3.1694479713746382e+01 2.6147279373886057e+01 0 0 -1
888 2 1.6250027209436883e+01 2.5574146606157619e+01 2.1471034467874425e+01 0 1 -1
1135 1 9.4898374161125290e+00 1.1546190504888610e+01 2.2149649595314543e+01 0 1 -1
299 2 1.4887503465191660e+01 2.3000562761823186e+01 6.3399145746650802e+00 0 0 0
626 2 7.3455893767061387e+00 5.9889930478946312e+00 8.2181493961256591e-01 0 0 0
287 2 2.1587528269328896e+01 2.1015956718464285e+01 3.4333433048172197e+00 0 0 0
105 2 7.1865445351529331e+00 1.2716619416745530e+01 9.9363912311539053e+00 0 0 0
2311 1 7.0657512059912921e+00 8.8950941594407045e+00 6.8071965381195609e-01 0 1 0
1515 2 1.1072347336392166e+01 1.9797254796115716e+01 3.8113680344706138e+00 0 0 0
1896 2 8.7298646614547977e+00 1.6494390647302019e+01 4.9732598776282906e+00 0 0 1
1546 1 1.2087856820074698e+01 1.4570934124784571e+01 2.4981646938221452e+01 0 1 0
984 2 1.8328024460398481e+01 1.0817423172378321e+01 1.3514287498342775e+01 0 1 -1
588 2 6.5728679251460704e+00 1.1167808833718713e+01 5.1280786196400321e+00 0 0 0
909 2 1.7529401745409228e+01 2.8766296057475316e+01 2.2709877971300848e+01 0 0 -1
2668 1 2.0668116585656396e+01 2.7676808182196293e+01 1.3153527239063038e+01 0 0 0
2354 2 1.8990470933187002e+01 2.8592869573991070e+01 1.9245012309488892e+01 0 0 0
24 2 2.3170581666494712e+01 1.7380222063637422e+01 1.1691567434515839e+01 0 0 0
1811 2 3.3266585817451553e+00 3.1047731039462292e+00 9.7452473494895226e+00 0 1 0
1273 1 6.5636179246357944e+00 8.9528270012990312e+00 3.4716248878527942e+00 0 0 0
1132 1 8.1637370030460268e+00 5.9846178417348739e+00 9.7207560605323291e+00 0 1 0
1780 1 9.6419206182076298e+00 1.2450784608195587e+01 1.4922548319068440e+01 0 0 0
898 1 1.3760861331211448e+01 2.6285595513791009e+01 1.8023786588806388e+01 0 0 0
1514 2 1.2206792613503760e+01 1.8875315220464866e+01 4.4584663798773079e+00 0 0 0
489 2 1.6865596165628769e+01 2.5433405057478911e+01 2.7210811804891833e+01 0 0 -1
352 1 6.5161865044758862e+00 9.5635051181467663e+00 8.0776782080332730e+00 0 0 0
961 1 2.2547214298992220e+01 3.2190171267279041e+01 2.6385119678974220e+01 0 0 -1
885 2 1.4658462322971410e+01 6.6355482736754832e+00 1.6492135510096382e+01 0 1 -1
632 2 8.1144090537572602e+00 1.4716005786125599e+01 1.5550468615335568e+01 0 0 0
2316 2 1.4886633481281613e+01 2.4807303682551890e+01 1.1639052574791599e+01 0 0 1
975 2 1.2954815557726972e+01 2.9677906565614659e+01 6.4670803534862102e+00 0 0 0
818 2 8.7229281219379704e+00 5.1238253264866298e+00 1.8128592055530021e+01 0 1 -1
775 1 1.1320818290650493e+01 2.5163312876616665e+01 4.8243898325610051e+00 0 0 0
1603 1 1.6315241009954217e+01 1.9152752035484916e+01 2.6209934670533464e+01 0 0 0
218 2 9.9738573259752812e+00 2.4225799299915657e+01 8.7681290667469920e+00 0 -1 0
1605 2 1.6491064238684494e+01 1.8923191240233709e+01 2.7171532968597624e+01 0 0 0
2532 2 1.1920751858061102e+01 2.2319777585993194e+01 1.6191276538698830e+01 0 0 0
77 2 1.0940503056634631e+01 2.7104116274392887e+01 2.5284074079458052e+00 0 -1 0
100 1 6.0145204905924032e+00 7.5769813091918330e+00 9.8775809807825112e+00 0 0 0
1877 2 1.1258200603744170e+01 8.1418821748085577e+00 1.9648394750967427e+01 0 0 0
2669 2 2.0893736302484189e+01 2.6824784889628777e+01 1.3705772165243726e+01 0 0 0
1754 2 2.2317741465765799e+01 2.1682604635676022e+01 1.2685287298655663e+01 0 -1 0
1058 2 2.3713167549965486e-01 1.8904480781191895e+00 1.1942385313758044e+00 0 1 0
1016 2 1.1377552586855188e+01 3.6805360304654706e+00 1.2690700701732109e+01 0 1 -1
2283 2 1.7086810691514213e+01 2.4135429546058102e+01 7.0361603109172135e+00 0 -1 0
995 2 3.5278888844154350e+00 9.1256910313180644e+00 2.1983026327565831e+00 0 1 0
97 1 1.1624408187829619e+01 7.8929171072505024e+00 8.0613195657706171e+00 0 0 0
2361 2 9.1730298450175969e+00 1.4002356224579813e+01 9.7805292782983653e+00 0 0 0
113 2 1.5209141121667908e+01 3.0012602804060311e+01 2.0515489903382971e+01 0 -1 0
1513 1 1.1593214020267490e+01 1.9590233090590267e+01 4.6771272900603105e+00 0 0 0
1078 1 1.5435617608961980e+01 2.6484892285508995e+01 1.4527930247657528e+01 0 0 0
963 2 2.3203001743874513e+01 3.1484719441008668e+01 2.6457522631401240e+01 0 0 -1
1547 2 1.2808778515307198e+01 1.3981712767503833e+01 2.4718827744674137e+01 0 1 0
2353 1 1.8329689199622383e+01 2.9052987321150365e+01 1.9835475866442714e+01 0 0 0
917 2 3.6474690778793537e+00 5.8717018343513541e+00 2.8108090529173746e-01 0 1 0
417 2 1.6794229611709451e+01 1.8490775062410581e+01 2.2018648029359504e+01 0 0 0
985 1 1.2020345773140853e+01 1.7500623557072089e+01 1.8360026485535343e+01 0 0 0
1884 2 1.0018681574077164e+01 1.8894796703365436e+01 1.1679521437707123e+01 0 0 0
76 1 1.0693855304511729e+01 2.7368661953888576e+01 3.4342606581861341e+00 0 -1 0
298 1 1.4477189502674769e+01 2.2229214276721425e+01 5.8527616451473543e+00 0 0 0
1707 2 1.5383866434696632e+01 1.6295173403793118e+01 1.6562293969669703e+01 0 0 -1
488 2 1.6431672922552092e+01 2.6595038058000672e+01 2.6254932490805849e+01 0 0 -1
612 2 5.1053562329157778e+00 5.9383230163954233e+00 1.2011390780021966e+01 0 1 0
2396 2 1.5259051541937740e+01 2.9489989318934011e+01 9.6426583450692558e+00 0 0 0
1079 2 1.5316173618875176e+01 2.5715261252161067e+01 1.5117625643993728e+01 0 0 0
883 1 1.5434435797399985e+01 6.3159953674131879e+00 1.6988345899973062e+01 0 1 -1
2442 2 1.4835572991919943e+01 2.1663792773079919e+01 8.6518443231074151e+00 0 0 1
1915 1 1.4383974478130099e+01 2.4619337826917754e+01 1.6078370842669599e+01 0 0 0
2451 2 1.5698576750741051e+01 2.2996420143767303e+01 2.4002888662052115e+01 0 0 0
2315 2 1.4750195265149362e+01 2.5501837923645226e+01 1.3069285256173025e+01 0 0 1
2401 1 1.6034534637326399e+01 2.7955433081769311e+01 2.5063873674088128e+01 0 0 0
983 2 1.9320500111319515e+01 1.0107853398091837e+01 1.4417678382491264e+01 0 1 -1
923 2 1.8713021590257657e+01 1.9575417475698551e+01 8.7255391616533533e+00 0 0 0
2572 1 1.3756071839935814e+01 2.1821015740311811e+01 1.8966946672163978e+01 0 0 0
354 2 6.2467196166804335e+00 1.0386852058362781e+01 8.5450058566348019e+00 0 0 0
156 2 9.2147301464704388e+00 4.9405375299627243e+00 6.9707041950802715e+00 0 0 0
1589 2 1.1251412241977850e+01 2.4282830809331134e+01 1.8751478569833984e+00 0 -1 1
1616 2 1.2545309117455307e+01 2.2488774343695827e+01 1.2874453015704912e+01 0 -1 0
1050 2 1.1855274481893481e+01 2.0890248126275818e+01 5.7542957530377787e+00 0 0 0
1081 1 1.9463341683729794e+01 1.6446352792758567e+01 2.1975737588329217e+01 0 0 -1
1594 1 1.7827135438831576e+01 2.2409980330612701e+01 2.0580992280388401e+01 0 0 0
2445 2 1.2588117577746120e+01 1.3771039156765740e+01 7.8651657919531388e+00 0 1 0
1588 1 1.1909110527930869e+01 2.3777901065833547e+01 2.4057874123367942e+00 0 -1 1
1150 1 1.7387790155916985e+01 2.0095914148741784e+01 1.7029471868982185e+01 0 0 0
1841 2 1.1970027683102925e+01 7.2969121326083330e+00 2.0092489137855809e+00 0 0 1
313 1 1.3103912846138659e+01 1.9253879834008828e+01 1.5663791238500774e+01 0 0 -1
1118 2 2.1616690138353231e+01 2.9744942770566016e+01 2.0646973957770761e+01 0 0 -1
1872 2 1.3964153445346827e+01 2.3360420060190332e+01 1.9633801461690055e+01 0 0 0
2613 2 1.3883147381706449e+01 2.9159269339443330e+01 1.1651313890257795e+01 0 0 1
1133 2 7.4261391803306900e+00 6.6625664326739802e+00 9.7946580212226504e+00 0 1 0
1762 1 9.9441035746737683e+00 1.1173701016394507e+01 1.1314320787199783e+01 0 0 0
2556 2 1.8608873085020864e+01 1.9078663428529342e+01 2.3663505827120716e+01 0 0 0
2548 1 1.9661728672203328e+01 9.9797075737544763e+00 2.5360908864359459e+01 0 1 0
1870 1 1.4032393853465077e+01 2.4275554020883764e+01 1.9981837848728176e+01 0 0 0
1662 2 7.2414536423833500e+00 1.6122596108093873e+01 2.3053577602514470e+00 0 -1 1
1136 2 8.8239573231555752e+00 1.0937116364031997e+01 2.1828497650296519e+01 0 1 -1
1736 2 1.4363754827272299e+01 1.3366394536924146e+01 9.5261517803516291e+00 0 0 0
376 1 2.0950912541028909e+01 3.1066411014688953e+01 1.9534344403190417e+01 0 -1 0
1109 2 1.1608035880238553e+01 1.0002851566134879e+01 1.4103409119476256e+01 0 0 0
372 2 1.3279279126502850e+01 9.7107802848156712e+00 2.1532825508144150e+01 0 0 0
333 2 1.5985655825790815e+01 3.1503337036758321e+01 1.5068342409929846e+01 0 0 0
2555 2 1.7430805801594584e+01 2.0071714204917324e+01 2.3420891058636094e+01 0 0 0
374 2 8.2209616029888988e+00 9.3181902695772347e+00 6.2282931269763049e+00 0 0 0
1801 1 1.4573514319205223e+01 2.1453322875023815e+01 1.5360423818814931e+01 0 -1 0
442 1 7.6969138433683622e+00 5.5198245457729627e+00 3.9021304520117646e+00 0 0 0
2601 2 1.5291529565463410e+01 2.3256584487503488e+01 1.0147780203888136e+01 0 0 0
2600 2 1.6618419024061080e+01 2.4050961166037375e+01 1.0448482409822633e+01 0 0 0
188 2 1.2516740406694471e+01 2.4506005537968843e+01 7.7213780181854199e+00 0 0 0
2444 2 1.1983255993547401e+01 1.4853397186360263e+01 6.8418166012468689e+00 0 1 0
1755 2 2.1190542316737972e+01 2.2693399307340098e+01 1.3302711065438420e+01 0 -1 0
2642 2 5.3955114055250455e+00 2.9911451825226409e+00 3.3423246078266731e+00 0 0 1
2307 2 8.1851643145445365e+00 2.2746029272935147e+00 4.3318973838401202e+00 0 0 0
1119 2 2.2772048536526700e+01 2.8686273506000585e+01 2.0583093845073911e+01 0 0 -1
1088 2 2.1301802013537891e+01 3.1850856232471887e+01 2.1395499652468459e+01 0 0 -1
756 2 1.2671025975306693e+01 2.5175543773197152e+01 1.5314351471899403e+01 0 0 0
269 2 2.1345675820579842e+01 2.1230640866093204e+01 2.0185299040762175e+01 0 -1 -1
2306 2 7.2630447220337366e+00 2.8135868016739982e+00 5.5821765569569255e+00 0 0 0
198 2 2.0572120566174949e+01 3.0809265394888961e+01 1.1254758643446657e+01 0 -1 0
1089 2 2.2109259867305521e+01 3.2415407075257548e+01 2.2762951075440164e+01 0 0 -1
2468 2 8.7037868138122825e+00 1.2280568543853558e+01 3.1951713679462634e+00 0 0 1
2570 2 1.7920077957161840e+01 2.6618104881608613e+01 1.1787138394110556e+01 0 0 0
776 2 1.0649061520624944e+01 2.5115790991770996e+01 5.5296158385429717e+00 0 0 0
830 2 1.3433571082126781e+01 2.7904316540765262e+01 9.1854711013963968e+00 0 0 0
1658 2 1.7069210546598722e+01 2.6747738708837780e+01 1.7664650081576134e+01 0 -1 0
1103 2 1.2608667559794874e+01 1.0257067625410571e+01 2.5203115673511213e+01 0 1 -1
2604 2 1.7127694552589578e+01 1.5268157111410311e+01 2.3804473392591170e+01 0 1 0
2397 2 5.7216746827154150e+00 2.8386889425368800e+00 9.9382760452075445e+00 0 1 0
1134 2 8.8200349918270042e+00 6.1236861370347437e+00 1.0440551882207735e+01 0 1 0
2644 1 1.6415892463832829e+01 1.1166260687987238e+01 1.9272808612180967e+01 0 0 0
3026 2 2.8575363304940097e+01 3.0856544686255930e+01 1.8375592307235614e+01 0 0 0
332 2 6.9065731441548266e+00 3.9697522178127653e+00 1.4114201666376170e+01 0 1 0
1735 1 1.3759760288000251e+01 1.4012944374642434e+01 9.0964617413920674e+00 0 0 0
2646 2 1.6413013319338699e+01 1.1385026634964948e+01 2.0236457679209799e+01 0 0 0
2413 1 1.2655012685999068e+01 1.7969975947888184e+01 1.3232830068898689e+01 0 0 1
895 1 1.8450735347380782e+01 3.1525862690901285e+01 2.0898295587903426e+01 0 0 -1
2603 2 1.6463425075827093e+01 1.6531646687496025e+01 2.3245297313951738e+01 0 1 0
2554 1 1.7635486376742850e+01 1.9123092633913519e+01 2.3578662018445790e+01 0 0 0
2629 1 9.8142784754821051e+00 6.7283356344077756e+00 1.1630878645306053e+01 0 0 0
2305 1 7.9037166603303959e+00 2.1810511564343522e+00 5.2690406233634119e+00 0 0 0
443 2 8.5270021394732076e+00 5.0870986337497968e+00 4.2967003486682973e+00 0 0 0
829 1 1.3160906515669470e+01 2.8364183055792953e+01 1.0006271462303339e+01 0 0 0
2375 2 1.6467186684272484e+01 2.8326231123759047e+01 6.0206098485638853e+00 0 0 1
994 1 3.7197176959801785e+00 9.9940550523545717e+00 2.5550955127703352e+00 0 1 0
2641 1 5.4546558713020055e+00 4.0162328018275160e+00 3.3530766732241837e+00 0 0 1
897 2 1.7743001768709124e+01 3.2071361695755208e+01 2.0547554829700900e+01 0 0 -1
318 2 2.1824975138797971e+01 2.9171886872498867e+01 2.4985744580491634e+01 0 -1 -1
725 2 4.0687627458239657e+00 7.0273866462399432e+00 3.4478783404527404e+00 0 0 1
2456 2 2.2388760780225017e+01 2.5475110149029476e+01 2.7178986189225874e+01 0 0 0
1672 1 1.8595234775131235e+01 2.9129819587891678e+01 9.3237776022127470e+00 0 -1 0
1617 2 1.3917331413049615e+01 2.3300121810854261e+01 1.2888542076557332e+01 0 -1 0
1117 1 2.2250612823609274e+01 2.9257628789762283e+01 2.1158821982600713e+01 0 0 -1
1737 2 1.4363721793684068e+01 1.4713376529521973e+01 8.6083491272148276e+00 0 0 0
1909 1 1.3916723657250660e+01 1.4071361930141716e+01 1.4626002641375750e+01 0 0 0
1682 2 7.2959131110250244e+00 5.5233022947870740e+00 1.2489904955867384e+01 0 0 0
368 2 1.3582028122655368e+01 1.2259454743966863e+01 1.1968201035988765e+01 0 0 -1
197 2 1.9982854932863724e+01 2.9566781869390038e+01 1.0513169399105303e+01 0 -1 0
759 2 2.3118764024045969e+01 2.9603656284690963e+01 7.1194039119378676e+00 0 -1 0
2576 2 6.1171491283219241e+00 3.4222247397877066e+00 7.7632135501060890e+00 0 1 0
444 2 7.6650102864873713e+00 6.3188966175063754e+00 4.4521141606559320e+00 0 0 0
2513 2 1.7343276026910726e+01 2.3386168384482627e+01 1.9149416625453675e+01 0 0 0
1733 2 1.1758430455919061e+01 1.1438339044989469e+01 2.6814544609009786e+01 0 1 -1
1681 1 8.0497725883549158e+00 4.9457312898778687e+00 1.2689308652609816e+01 0 0 0
2467 1 8.3185053443303634e+00 1.1531592684381220e+01 2.7471682705717173e+00 0 0 1
1596 2 1.8721475367413170e+01 2.2066263700301516e+01 2.0764494371890507e+01 0 0 0
1621 1 1.3757129579778553e+01 1.0760244310028696e+01 1.8771243939798360e+01 0 0 -1
1622 2 1.3389682238808740e+01 1.1471399000673397e+01 1.8156722022786212e+01 0 0 -1
1151 2 1.7617943828450940e+01 1.9141361868633400e+01 1.7188366286008694e+01 0 0 0
1691 2 2.5096654249701590e+01 2.9808987752549907e+01 2.6696083692703183e+01 0 -1 0
316 1 2.1421311312165649e+01 2.8893921741686594e+01 2.5872661859642342e+01 0 -1 -1
2612 2 1.3250869930752382e+01 2.8769501597138550e+01 1.3023229638871495e+01 0 0 1
2491 1 1.0023276618190920e+01 2.0719598576436795e+01 2.8706955344218295e+00 0 0 1
1062 2 1.0033795721312050e+01 1.1738797706865624e+01 2.5161383838500960e+01 0 1 -1
1110 2 1.0797600709333999e+01 1.1291760292475008e+01 1.4782781550459482e+01 0 0 0
1876 1 1.0670240846140544e+01 8.4544855613159520e+00 2.0413880227501302e+01 0 0 0
2563 1 1.9027409111240924e+01 1.8457022936988015e+01 2.7235445917181167e+01 0 1 -1
2630 2 9.2846475770966173e+00 7.5344244590274663e+00 1.1854460080387179e+01 0 0 0
216 2 1.6679419838134969e+01 2.1246110725318580e+01 1.1787265020277321e+01 0 0 0
819 2 9.1355102874623171e+00 4.7559708686016711e+00 1.6636588316161294e+01 0 1 -1
373 1 8.1162648487088909e+00 8.3803659879644972e+00 5.9583509087313669e+00 0 0 0
1049 2 1.0966215380618852e+01 2.2022465232950839e+01 5.9831256489540543e+00 0 0 0
2512 1 1.7263334092060060e+01 2.3886908715664202e+01 1.8305621774245097e+01 0 0 0
214 1 1.7622578400567303e+01 2.1627019239783589e+01 1.1668775863626600e+01 0 0 0
1900 1 1.1398148111009986e+01 9.5048740593089214e+00 2.4302472059028837e+01 0 0 0
375 2 7.2078115777794096e+00 8.2461301851373232e+00 6.2759925898052913e+00 0 0 0
1668 2 5.4310943486548995e+00 1.2398526606302658e+01 1.8972069534114600e+00 0 0 1
2439 2 7.1796421361495568e+00 1.3362096056024201e+01 5.6012562869671694e+00 0 1 0
189 2 1.3465426937689697e+01 2.3780426368049376e+01 8.6427461947966222e+00 0 0 0
844 1 1.5310408762422714e+01 1.7192882707165573e+01 2.4203534681217576e+01 0 0 -1
187 1 1.3466401836985122e+01 2.4489313523825516e+01 7.9658577026301494e+00 0 0 0
1611 2 7.1702958502466494e+00 1.7355633320951515e+01 3.9646312342714891e+00 0 -1 0
314 2 1.3568942820348379e+01 2.0157966746091400e+01 1.5735302430399779e+01 0 0 -1
2602 1 1.7074054068869703e+01 1.5862453585230671e+01 2.3033375136824148e+01 0 1 0
1548 2 1.2451804620226724e+01 1.5332539801802518e+01 2.4526165037335879e+01 0 1 0
1560 2 1.2749089133375270e+01 2.7729985993324593e+01 1.0560351703682413e+00 0 0 1
1539 2 1.2088814139078394e+01 1.0811582985543682e+01 1.9160188493304894e+01 0 0 0
271 1 1.3636831896735494e+01 1.5333033165525151e+01 1.8667669715268616e+01 0 0 0
2469 2 8.8439555365878686e+00 1.0717860070840000e+01 3.0698853948550746e+00 0 0 1
1657 1 1.6562538047673744e+01 2.6492499006479573e+01 1.8503942569863405e+01 0 -1 0
385 1 1.1349695037672225e+01 1.0238672461690506e+01 2.3898423677774477e-01 0 0 0
154 1 9.1844490184792313e+00 3.9609008791834199e+00 7.0936810137252184e+00 0 0 0
29 2 1.7942838108131692e+01 2.2379125493989751e+01 1.5052022979783553e+01 0 0 0
1152 2 1.6915259499764613e+01 2.0087024337537351e+01 1.6216624569034451e+01 0 0 0
625 1 7.7349132932110578e+00 5.2754818759428446e+00 1.2832038132164212e+00 0 0 0
1878 2 1.1360374673226165e+01 8.9130060079453450e+00 2.1040315536722666e+01 0 0 0
2437 1 7.5295291787542613e+00 1.2510465593590679e+01 5.2767172698751370e+00 0 1 0
1615 1 1.3457882852188986e+01 2.2507155547862592e+01 1.3243351799693329e+01 0 -1 0
920 2 2.0482617537711935e+01 2.4600852554506005e+01 1.9760833094359157e+01 0 0 -1
284 2 2.4423189418181217e+01 3.1830314159706678e+01 2.0142688867693820e+01 0 0 -1
900 2 1.3580981574470464e+01 2.5656177276052492e+01 1.8786821728688594e+01 0 0 0
820 1 9.2894934786759027e+00 1.8132965293419559e+01 1.7726876980474300e+00 0 0 0
2670 2 2.0593380101207654e+01 2.7313551188421460e+01 1.2269337586274853e+01 0 0 0
117 2 1.0366324644356878e+01 1.3880782984558826e+01 8.4898734443304769e-01 0 0 0
2433 2 1.6070554858662174e+01 2.7747473986776459e+01 1.9852322966990911e+01 0 0 0
2492 2 9.7507773275986676e+00 2.1437323579896372e+01 3.5104633160894601e+00 0 0 1
1085 2 1.4596151228032149e+01 1.6429150926096110e+01 7.3250407041060415e+00 0 0 0
848 2 1.4608880594795920e+01 1.9917776487330748e+01 1.1609168355110103e+01 0 0 -1
273 2 1.4107021779847098e+01 1.5044376891996464e+01 1.7833408057738311e+01 0 0 0
1084 1 1.5330096642480999e+01 1.5862922370008022e+01 7.6665146006974343e+00 0 0 0
1910 2 1.3180318962501953e+01 1.4657296332291615e+01 1.4349174896254864e+01 0 0 0
1087 1 2.1226645680813341e+01 3.2371641999860188e+01 2.2187563399686667e+01 0 0 -1
360 2 1.8279890594419097e+01 2.5588772307977322e+01 2.4177068163931324e+01 0 0 0
196 1 2.0761740968276388e+01 3.0127345589505303e+01 1.0567089722372563e+01 0 -1 0
777 2 1.1326268382626028e+01 2.4344660626547991e+01 4.2787604395718031e+00 0 0 0
308 2 2.3644486106072993e+01 3.2953890337902976e+01 2.3966618607790949e+01 0 0 -1
309 2 2.3566136454726827e+01 3.1332429941701189e+01 2.3751334169498861e+01 0 0 -1
3003 2 9.1368842777703669e+00 6.7218538761967803e+00 8.2670308714091050e+00 0 1 0
1809 2 1.7204420377897375e+01 1.4829863711652642e+01 1.1678827604822615e+01 0 0 0
880 1 1.6527924651067377e+01 2.1723501700732502e+01 2.3084636346524107e+01 0 0 0
315 2 1.2259128285080333e+01 1.9484280021570523e+01 1.6149594672808298e+01 0 0 -1
283 1 2.3936544066559247e+01 3.2685857699845101e+01 2.0358392403430202e+01 0 0 -1
386 2 1.1489233692363779e+01 9.6064609150160916e+00 9.8765348949790110e-01 0 0 0
2376 2 1.5605560383417551e+01 2.9554225628524410e+01 6.1720360783960349e+00 0 0 1
726 2 4.7957138297637627e+00 5.6801908950589421e+00 3.8361946180550053e+00 0 0 1
33 2 9.6783432018043314e+00 2.6144431430772709e+01 7.1061277831111545e+00 0 0 0