LAMMPS data file via write_data, version 15 Apr 2020, timestep = 100000

6144 atoms
2 atom types

1.5604943440758490e-01 5.9812239696776196e+01 xlo xhi
1.5200568323870201e-01 2.8188460316759532e+01 ylo yhi
1.6430577842339211e-01 2.7247139221575964e+01 zlo zhi
1.0122158982762334e+01 1.0188543700293909e+01 7.1154925215373144e+00 xy xz yz

Masses

1 16
2 2

Atoms # atomic

1 1 7.4738528883102067e+00 5.3012337066759176e+00 4.1149192723991455e+00 0 0 0
2 2 6.7488564080785087e+00 4.8122745144286814e+00 3.6935281778799784e+00 0 0 0
3 2 7.1454219005752044e+00 6.1039812646621705e+00 4.5775560671008506e+00 0 0 0
4 1 1.0481474246513482e+01 7.0392767173357313e+00 1.0937986136609569e+01 0 0 0
5 2 1.0656614909587695e+01 6.5189487873929099e+00 1.1750075157361080e+01 0 0 0
6 2 1.0329842566948983e+01 7.8932659513454215e+00 1.1311425027507029e+01 0 0 0
7 1 1.0103292675178714e+01 1.2158752493934088e+01 4.2739585679607481e+00 0 0 0
8 2 1.0416546416766908e+01 1.1805655738293051e+01 5.1827429330713874e+00 0 0 0
9 2 9.9075835230543507e+00 1.3141660637665090e+01 4.5553561271309775e+00 0 0 0
10 1 1.2599818938305049e+01 1.4088200996571793e+01 1.0977818201789814e+01 0 0 0
11 2 1.3349855733835625e+01 1.4245191924698968e+01 1.0305251286485717e+01 0 0 0
12 2 1.2070079280148647e+01 1.3322002500025041e+01 1.0720612989452290e+01 0 0 0
13 1 1.5032340403458626e+01 5.3391346911979092e+00 3.9356788042820390e+00 0 0 0
14 2 1.5388268951873885e+01 4.9719330002752207e+00 4.7930913890542408e+00 0 0 0
15 2 1.4651697716554889e+01 6.2314799225325661e+00 4.1961820526384761e+00 0 0 0
16 1 1.7357970662852814e+01 7.1785210953109333e+00 1.0951410312013785e+01 0 0 0
17 2 1.7896079852121574e+01 6.6861386200605573e+00 1.1579783439455365e+01 0 0 0
18 2 1.7975749209307750e+01 7.4271670609918417e+00 1.0203030077619953e+01 0 0 0
19 1 1.7311036153956792e+01 1.2353032728989156e+01 4.0392557868671624e+00 0 0 0
20 2 1.8072277247603715e+01 1.2603373398546564e+01 3.4625954176341951e+00 0 0 0
21 2 1.7829600911867480e+01 1.1977430133402857e+01 4.8125897254019145e+00 0 0 0
22 1 1.9985997067138300e+01 1.4155962004287447e+01 1.0801935770566207e+01 0 0 0
23 2 2.0762672150396781e+01 1.4431482585142142e+01 1.0298891391298877e+01 0 0 0
24 2 1.9686662659195456e+01 1.4980751010714393e+01 1.1272660550274333e+01 0 0 0
25 1 1.1743107166018154e+01 8.0995664158915979e+00 6.3484405040898881e+00 0 0 0
26 2 1.1132204999026186e+01 8.7582528726613837e+00 5.8950538093163658e+00 0 0 0
27 2 1.1129406312918679e+01 7.5310171359139080e+00 6.9214716306356037e+00 0 0 0
28 1 1.4140966625665053e+01 1.0089528196380906e+01 1.3358744850176846e+01 0 0 0
29 2 1.4402904908729731e+01 9.6158512649978629e+00 1.2524096649882205e+01 0 0 0
30 2 1.3326658872608373e+01 1.0591575811044805e+01 1.3027948322772980e+01 0 0 0
31 1 1.4142700726340420e+01 1.5032355256152201e+01 6.5950112957774056e+00 0 0 0
32 2 1.4638335381242666e+01 1.4633205115346687e+01 5.8537119791987458e+00 0 0 0
33 2 1.3442711164444397e+01 1.5557567232147175e+01 6.1177030952652522e+00 0 0 0
34 1 1.6900287411898525e+01 1.7032629501454604e+01 1.3110798209830550e+01 0 0 0
35 2 1.6331103737091489e+01 1.7729426878149795e+01 1.2796334716180171e+01 0 0 0
45 2 2.1503144278811590e+01 1.4604864988426669e+01 5.7157151133312007e+00 0 0 0
37 1 1.8840822536845508e+01 8.2832132352206695e+00 6.3012799065053144e+00 0 0 0
38 2 1.8106457944413993e+01 8.8427849504235354e+00 5.9931842627742951e+00 0 0 0
39 2 1.8414209878481504e+01 7.6663576998024405e+00 6.9222824635958089e+00 0 0 0
40 1 2.1794128866339658e+01 1.0144831678648533e+01 1.3268602290917949e+01 0 0 0
1152 2 2.4044389939215066e+01 3.1163922271207912e+01 1.1803155011060898e+01 0 0 0
42 2 2.0944075843136840e+01 1.0587435440019034e+01 1.3112912852167646e+01 0 0 0
43 1 2.1470670931931743e+01 1.5267911731546906e+01 6.4221507226810211e+00 0 0 0
44 2 2.0681943131115499e+01 1.5814587804948349e+01 6.0937729491770716e+00 0 0 0
1151 2 2.4474674074380683e+01 3.0230157609670954e+01 1.3008017596534504e+01 0 0 0
46 1 2.4406954692626456e+01 1.7143487469834135e+01 1.2991177767567455e+01 0 0 0
47 2 2.3533016492495211e+01 1.7532851122838245e+01 1.3097302860890919e+01 0 0 0
2378 2 1.1892771609529063e+01 1.9026979600667456e+01 1.3507958667210726e+01 0 0 0
49 1 5.4775649326965272e+00 4.0143855750475836e+00 3.0093001501538366e+00 0 0 0
50 2 5.6951479433534020e+00 3.0667054670053178e+00 2.7991285127541219e+00 0 0 0
51 2 4.6878543571001527e+00 3.9107992179906583e+00 3.6344830761172302e+00 0 0 0
52 1 8.0729156997378304e+00 5.3886786113641421e+00 9.8168087201932472e+00 0 0 0
53 2 7.5927526004709280e+00 5.8665609111409509e+00 9.1322884303002212e+00 0 0 0
54 2 8.7641127655397177e+00 5.9816425944744784e+00 1.0113926023760987e+01 0 0 0
55 1 7.7638115670840593e+00 1.0650879536619895e+01 2.7978848437309516e+00 0 0 0
56 2 8.0682889176564920e+00 9.7961406380894029e+00 2.3846884313904262e+00 0 0 0
57 2 8.5389528788916564e+00 1.1060735847203111e+01 3.1464792818116427e+00 0 0 0
58 1 1.0459060803341716e+01 1.2431084593969558e+01 9.6442594171463991e+00 0 0 0
59 2 1.0056419108525587e+01 1.2918544532976107e+01 8.8953685173512174e+00 0 0 0
60 2 1.0802256060244899e+01 1.1574326957557361e+01 9.2682267104245550e+00 0 0 0
61 1 1.2695887415441721e+01 3.8268128929545915e+00 2.7804308498655379e+00 0 0 0
62 2 1.3264858993180678e+01 4.5193989096306773e+00 3.1640328375405824e+00 0 0 0
63 2 1.2205765170863174e+01 4.2895598290588453e+00 1.9862790289793415e+00 0 0 0
64 1 1.5122154848412794e+01 5.5730395262810255e+00 9.7691285953029734e+00 0 0 0
65 2 1.5879173569670222e+01 6.0130044913298146e+00 1.0152045146048200e+01 0 0 0
66 2 1.5324012306311634e+01 4.6468477124131695e+00 9.5325591283003384e+00 0 0 0
67 1 1.5167865517366529e+01 1.0847620703157741e+01 2.9993901327346491e+00 0 0 0
68 2 1.5976687772332102e+01 1.1167057989065313e+01 3.4545760432259063e+00 0 0 0
69 2 1.5482416043406767e+01 9.9406897219728343e+00 2.7075602677392450e+00 0 0 0
70 1 1.7913672059099031e+01 1.2706340156141753e+01 9.6376346909569666e+00 0 0 0
71 2 1.7541982125838118e+01 1.3312694621961018e+01 8.8947094067150303e+00 0 0 0
72 2 1.8558254516948416e+01 1.3271735331385912e+01 1.0152435284776759e+01 0 0 0
73 1 1.2300425925897447e+00 9.8534752093127931e-01 8.7287486934090130e-01 0 0 0
48 2 2.4243583144328106e+01 1.6286960555420183e+01 1.3512773752399500e+01 0 0 0
900 2 1.2722327022483540e+01 2.5806394176966329e+01 1.0321270898935106e+01 0 0 0
76 1 3.8755218714588726e+00 2.5235431449081274e+00 7.6493910908048797e+00 0 0 0
77 2 1.4818177209809379e+01 3.0111909681704180e+01 7.9468635421938636e+00 0 -1 0
1150 1 2.4654906742117340e+01 3.0510123652104571e+01 1.2063590186422587e+01 0 0 0
79 1 3.8353644759272139e+00 7.9628956952026337e+00 5.8864282746298990e-01 0 0 0
92 2 1.0425128290485416e+01 7.3296737889224861e+00 2.1140440303461247e-01 0 0 0
81 2 4.5307000429940709e+00 7.2699433658032904e+00 8.8780400288789363e-01 0 0 0
82 1 6.3903241825257666e+00 9.6051100270091574e+00 7.4148943540200953e+00 0 0 0
339 2 3.8673177533892575e+00 6.4904379133753318e+00 4.0798228587230145e+00 0 0 0
84 2 7.0736253115436387e+00 9.0376395030051988e+00 7.8448243739255865e+00 0 0 0
85 1 8.6245620248590189e+00 9.0394481135389981e-01 7.7086309430607791e-01 0 0 0
131 2 7.6016532307760905e+00 1.1340954640212711e+01 1.0409237809112275e+01 0 0 0
87 2 8.3938838951539516e+00 1.5450584234029785e+00 1.5211447050954008e+00 0 0 0
88 1 1.1219418918772659e+01 2.5428826601063603e+00 7.3865228793289930e+00 0 0 0
89 2 2.1996181316828462e+01 2.9997559924045987e+01 7.8485861032518249e+00 0 -1 0
90 2 1.1704860590885993e+01 3.2179124725643224e+00 6.8747848246670547e+00 0 0 0
91 1 1.1111867489571491e+01 7.9552134187918098e+00 5.8661046830966690e-01 0 0 0
1133 2 1.5014357476707275e+01 2.2939432670801239e+01 1.1602774082102959e+01 0 0 0
93 2 1.1856272980598796e+01 7.4472553789301914e+00 9.9682389084914558e-01 0 0 0
94 1 1.3776516231643342e+01 9.5670802559616632e+00 7.6428577047196784e+00 0 0 0
95 2 1.4577600308640106e+01 9.1094254111541701e+00 7.7304850996503038e+00 0 0 0
96 2 1.3174860022968012e+01 9.0324297964471256e+00 7.0347195044818891e+00 0 0 0
97 1 5.2662573837610029e+00 4.3330368722019061e+00 6.1604244322793642e+00 0 0 0
98 2 5.6554631038637506e+00 4.9753500762982288e+00 6.7801666303753905e+00 0 0 0
99 2 4.6640269045423040e+00 3.7459617564462362e+00 6.6409272907908932e+00 0 0 0
100 1 7.7742492447966800e+00 6.1158423952950738e+00 1.2875658644485817e+01 0 0 0
101 2 7.5349214506498745e+00 6.7857191844905209e+00 1.2229867458593960e+01 0 0 0
102 2 8.5834669714602132e+00 5.6792171648873779e+00 1.2582649877255733e+01 0 0 0
103 1 8.1101873665375361e+00 1.1343842692381525e+01 6.1096449957966410e+00 0 0 0
104 2 7.7202843449974230e+00 1.1847438573920796e+01 5.3619497246170242e+00 0 0 0
105 2 7.3204320493224149e+00 1.0837653034286628e+01 6.4829684834147869e+00 0 0 0
106 1 1.0207114736769391e+01 1.3204550452842579e+01 1.2755254218939768e+01 0 0 0
206 2 1.6643626089284890e+01 2.8062609666492038e+00 3.0728275452846985e+00 0 0 0
108 2 1.0919521964339808e+01 1.2537368889645805e+01 1.2518454416986065e+01 0 0 0
109 1 1.2908984568612663e+01 4.2129237055591569e+00 6.2299756148094989e+00 0 0 0
110 2 1.3432220785603858e+01 3.4633846621331794e+00 5.8441812352720044e+00 0 0 0
111 2 1.2605611858324014e+01 4.7503467472925349e+00 5.4883298262874067e+00 0 0 0
112 1 1.5025284279847691e+01 6.4401524299357771e+00 1.2968787256074430e+01 0 0 0
983 2 2.5965151564365282e+01 2.4718601738731003e+01 9.1424097160682738e+00 0 0 0
1584 2 1.8373304669013525e+01 1.2834177392775771e+01 3.7894801068996542e-01 0 0 1
115 1 1.5314448241494453e+01 1.1302028167444835e+01 6.2747987206918783e+00 0 0 0
116 2 1.4594850770843600e+01 1.0805199279944105e+01 6.6364974343005541e+00 0 0 0
117 2 1.5576421306208488e+01 1.1980371641113507e+01 6.9272911589374040e+00 0 0 0
118 1 1.8059924021122541e+01 1.3138996039618025e+01 1.2820964913455073e+01 0 0 0
1566 2 8.6511257042871677e+00 5.5913301951811061e+00 1.6620976300457510e-01 0 0 1
120 2 1.7557160528812545e+01 1.3883545553434672e+01 1.2352459750253658e+01 0 0 0
121 1 3.2878911975714082e+00 3.1566663933148376e+00 4.1014906996883838e+00 0 0 0
1149 2 2.2311633274597245e+01 2.7872253392142330e+01 4.8510757515286098e+00 0 0 0
123 2 3.6366240992413621e+00 2.2915759597511389e+00 4.4643960378443976e+00 0 0 0
124 1 5.9664404673095461e+00 4.5319248025266692e+00 1.1131356049638987e+01 0 0 0
125 2 6.7294195898008020e+00 4.9790356009809908e+00 1.0733746001058066e+01 0 0 0
126 2 6.3143084121593498e+00 3.7049605798378442e+00 1.1543910456082301e+01 0 0 0
127 1 5.7774795302637685e+00 9.9620623786789793e+00 4.5315711471401494e+00 0 0 0
1857 2 1.1738186225248805e+01 1.5748767332890848e+01 1.3556456071789357e+01 0 0 0
129 2 6.5417370129661716e+00 1.0236992510931060e+01 3.9308053974929904e+00 0 0 0
130 1 8.3935859127291774e+00 1.1502001628821322e+01 1.0976568492337860e+01 0 0 0
282 2 2.0425584229273404e+01 8.0638343005345767e+00 1.0074647839969661e+01 0 0 0
132 2 9.0461340502210028e+00 1.1805150821240533e+01 1.0366297509100329e+01 0 0 0
133 1 1.0713582299522436e+01 2.5337327939198984e+00 4.1665645806591538e+00 0 0 0
134 2 1.1083041907230843e+01 1.7842679046672203e+00 4.6915453972323524e+00 0 0 0
135 2 1.1435300341811024e+01 3.0606437729586915e+00 3.7443989881304782e+00 0 0 0
136 1 1.2997265423620565e+01 4.6965879265715156e+00 1.1186700981260994e+01 0 0 0
137 2 1.3779035548310329e+01 5.1178050591138966e+00 1.0739928296464932e+01 0 0 0
138 2 1.2792712406171027e+01 5.2883755815153330e+00 1.1980036814590616e+01 0 0 0
139 1 1.2951668272071638e+01 9.9432634096624870e+00 4.5287950564544293e+00 0 0 0
140 2 1.3750057328321928e+01 1.0364617092658719e+01 4.1678694336799831e+00 0 0 0
141 2 1.3255221182143327e+01 9.0781660066211565e+00 4.8527331502344540e+00 0 0 0
142 1 1.5807289377082760e+01 1.1699817035493089e+01 1.1230317759814010e+01 0 0 0
143 2 1.6581962076902677e+01 1.2054839394261055e+01 1.0760260412810831e+01 0 0 0
144 2 1.6168114166066566e+01 1.0871587718147843e+01 1.1621033691104426e+01 0 0 0
145 1 6.6927031334096956e+00 2.2871121241048318e+00 5.1091228431421412e+00 0 0 0
146 2 7.4715721114250053e+00 1.9006134052278132e+00 5.6502514814670288e+00 0 0 0
147 2 6.4806687504833675e+00 3.1412520780618181e+00 5.4952169112915401e+00 0 0 0
148 1 9.4917614203268226e+00 4.0303807520239943e+00 1.1960434503173104e+01 0 0 0
149 2 9.7940175026791536e+00 3.8443163463080889e+00 1.1092896712853900e+01 0 0 0
150 2 1.0116119192234414e+01 3.6630592716971746e+00 1.2620843434440246e+01 0 0 0
151 1 9.4471696820675817e+00 9.3479127787186194e+00 5.1657800510850604e+00 0 0 0
152 2 9.0544614918597581e+00 1.0213581516696738e+01 5.5107734185836579e+00 0 0 0
153 2 9.8516188647754870e+00 9.5860875972294597e+00 4.2948034451271537e+00 0 0 0
154 1 1.2097252970835907e+01 1.1312864456071143e+01 1.2204568092430398e+01 0 0 0
155 2 1.1448917420379374e+01 1.0668366575526804e+01 1.2069647975243345e+01 0 0 0
156 2 1.2440887272146394e+01 1.1355089294541003e+01 1.1255301340657947e+01 0 0 0
157 1 1.4346348382029429e+01 2.2151282768094549e+00 4.8968831751560504e+00 0 0 0
158 2 1.5083215151822067e+01 1.9897349794513888e+00 5.4787794982508000e+00 0 0 0
159 2 1.4774573371869032e+01 2.6082458076788804e+00 4.1025989573238828e+00 0 0 0
160 1 1.6728503780351371e+01 4.0368770651032744e+00 1.1957092133392093e+01 0 0 0
161 2 1.6362073308559289e+01 4.8569424718295711e+00 1.2325348776615190e+01 0 0 0
162 2 1.6002104203536867e+01 3.3577066554302926e+00 1.1952370638093182e+01 0 0 0
163 1 1.6597496628324159e+01 9.1443454458873390e+00 5.1492726413432912e+00 0 0 0
164 2 1.6297823222909656e+01 1.0006377553650610e+01 5.4921939557246384e+00 0 0 0
165 2 1.7100417835184683e+01 9.2881716478473333e+00 4.3464910496630980e+00 0 0 0
166 1 1.9608491709136125e+01 1.0937796344434169e+01 1.2107944094167184e+01 0 0 0
167 2 1.9040689959185265e+01 1.1740448587893839e+01 1.2234527616594315e+01 0 0 0
168 2 1.9913050658760586e+01 1.0972565320993054e+01 1.1159595349162258e+01 0 0 0
169 1 9.3418005617601754e+00 4.2645343543393297e+00 5.9606226289676707e+00 0 0 0
170 2 9.9150387758371679e+00 3.7210694576535288e+00 5.3497317407519400e+00 0 0 0
171 2 8.6924083517294903e+00 4.5329295501140159e+00 5.3276527937980163e+00 0 0 0
172 1 1.1384077871634180e+01 6.2527106401006591e+00 1.3223645414906425e+01 0 0 0
1116 2 1.4615329358956458e+01 2.9903902832677243e+01 1.1513400335451793e+01 0 0 0
812 2 2.7204196208002173e+01 2.9634167475756627e+01 6.9012489082943684e+00 0 0 0
175 1 1.1292314225179490e+01 1.1261461951407133e+01 6.4657586370071352e+00 0 0 0
176 2 1.2024397120000598e+01 1.0919427555691117e+01 5.9216665627329625e+00 0 0 0
177 2 1.1749368498537871e+01 1.2118048927197176e+01 6.8846832999715994e+00 0 0 0
178 1 1.4466604491942451e+01 1.3340149031376658e+01 1.2915614203859466e+01 0 0 0
179 2 1.3762895075668776e+01 1.3473139564854870e+01 1.2326817525229698e+01 0 0 0
180 2 1.5034869195990145e+01 1.2714575081436102e+01 1.2367213267281080e+01 0 0 0
181 1 1.6366985052162040e+01 4.5247597476698882e+00 5.9750968654294025e+00 0 0 0
182 2 1.6967857909308261e+01 3.9149567047372082e+00 5.5165060037096989e+00 0 0 0
183 2 1.6837690509842087e+01 5.1782842649801548e+00 6.5090939719624696e+00 0 0 0
184 1 1.9090898756414656e+01 6.1388218547437869e+00 1.2880786406511783e+01 0 0 0
465 2 1.7675503474254832e+01 7.4452941477042263e+00 3.6127421437351204e-01 0 0 0
281 2 1.9989125894185079e+01 7.4599322797133896e+00 8.7504097164262920e+00 0 0 0
187 1 1.8829401233784555e+01 1.1288233789168640e+01 6.0183438521928618e+00 0 0 0
188 2 1.8364805110523278e+01 1.0851225623381808e+01 6.7693554641835805e+00 0 0 0
189 2 1.9270504169341162e+01 1.2070530126249849e+01 6.5013889096988020e+00 0 0 0
190 1 2.1579683260852217e+01 1.3232134857298595e+01 1.2835457391682141e+01 0 0 0
320 2 5.7431798759660646e+00 1.0868431508940350e+01 9.0408998453000811e-01 0 0 0
192 2 2.0847438700649672e+01 1.3429024883214820e+01 1.2154175781744524e+01 0 0 0
193 1 8.3439446832087647e+00 2.6389228020665363e+00 2.7838509734699404e+00 0 0 0
194 2 7.7217763399214894e+00 2.2782760823321557e+00 3.4061185575286932e+00 0 0 0
195 2 9.2260332040530777e+00 2.5269414953011036e+00 3.2283260694511680e+00 0 0 0
196 1 1.0990571766659279e+01 4.2100218719020432e+00 9.5784392489888397e+00 0 0 0
197 2 1.1211567192510230e+01 3.6255437469451506e+00 8.8036620688635114e+00 0 0 0
198 2 1.1742422775562099e+01 4.4671943306620632e+00 1.0143282422620095e+01 0 0 0
199 1 1.0904388498154425e+01 9.7270247013738746e+00 2.8796419545465146e+00 0 0 0
200 2 1.0901254324360293e+01 9.0329976478168312e+00 2.2034541907144192e+00 0 0 0
201 2 1.1751646034049699e+01 9.7570152139090531e+00 3.4149400326637886e+00 0 0 0
202 1 1.3609583479837585e+01 1.1462141387899205e+01 9.4259989075416435e+00 0 0 0
203 2 1.4509254368197421e+01 1.1553840169520543e+01 9.7796402379401055e+00 0 0 0
204 2 1.3648182131878830e+01 1.0549607183422971e+01 9.0004696740597812e+00 0 0 0
205 1 1.5855715981558719e+01 3.0018184079332659e+00 2.5220337536286990e+00 0 0 0
284 2 2.0059771405960390e+01 1.2561828036133337e+01 2.1038754200448260e+00 0 0 0
1023 2 2.0682215939335165e+01 1.9242568001978210e+01 5.7211153114247715e-01 0 0 0
208 1 1.8337154988907209e+01 4.5455796523397591e+00 9.7406837909255160e+00 0 0 0
209 2 1.7675504665129779e+01 4.2747027489513609e+00 1.0370657691772861e+01 0 0 0
953 2 2.4738596585956564e+01 2.0917401747195999e+01 1.3005609076700198e+01 0 0 0
211 1 1.8254965849682158e+01 9.6474941308550530e+00 2.9313678300936994e+00 0 0 0
1022 2 1.9748406387590364e+01 1.8057399583088223e+01 4.5789151066401956e-01 0 0 0
213 2 1.7982520558484641e+01 1.0456599635322357e+01 2.3636926801622247e+00 0 0 0
214 1 2.0705192556087077e+01 1.1662895473593860e+01 9.3997165582258191e+00 0 0 0
287 2 2.2740928195850106e+01 1.5274704039700222e+01 9.9602310748628540e+00 0 0 0
882 2 1.9845593594041929e+01 1.9759504576451384e+01 1.3361067478748268e+01 0 0 0
217 1 5.9416815002120540e+00 1.2632521658344622e+00 1.8255504653211103e+00 0 0 0
218 2 5.0325006849630523e+00 8.3609367395382239e-01 1.6781617147184440e+00 0 0 0
219 2 6.2901307009114200e+00 1.7430352271939440e+00 1.0203056407633115e+00 0 0 0
220 1 8.5172673502069909e+00 3.0630440411893631e+00 8.4902037200816345e+00 0 0 0
221 2 8.4232323832030840e+00 3.9125110127854508e+00 9.0348043054917468e+00 0 0 0
222 2 8.8700119642881141e+00 3.3358570460958337e+00 7.6398394199288067e+00 0 0 0
223 1 8.1647922428486428e+00 8.2983956680982871e+00 1.5721577106424272e+00 0 0 0
224 2 8.7923966328174021e+00 7.6361156725425712e+00 1.9600972714383309e+00 0 0 0
225 2 8.5535035489710651e+00 8.5272881354273053e+00 7.0907573294318360e-01 0 0 0
226 1 1.0824310311038065e+01 9.8256746388708933e+00 8.7500541280257451e+00 0 0 0
227 2 1.1461498607781241e+01 9.0722396325052213e+00 8.8633794687066718e+00 0 0 0
228 2 1.0965554364326593e+01 1.0373191985857945e+01 7.9481638498756100e+00 0 0 0
229 1 1.3299875722002847e+01 1.4366179579303597e+00 1.7092365761105410e+00 0 0 0
230 2 1.2370189044539316e+01 1.1155054454790292e+00 1.7986283898206163e+00 0 0 0
231 2 1.3206294046408331e+01 2.2153051791318630e+00 2.3323362407343571e+00 0 0 0
232 1 1.5188109012181044e+01 3.2564439774843033e+00 8.4255116531518990e+00 0 0 0
233 2 1.5714488336222322e+01 2.5279141490362567e+00 8.8648982787471322e+00 0 0 0
234 2 1.5551772577094557e+01 3.3126297262654356e+00 7.5186396243573634e+00 0 0 0
235 1 1.5636281852243734e+01 8.3965878359144508e+00 1.9013869749504015e+00 0 0 0
236 2 1.6068868330893224e+01 8.6918478188989905e+00 1.0785617093437367e+00 0 0 0
237 2 1.6221330527516514e+01 7.7594797128534001e+00 2.3395363159248710e+00 0 0 0
238 1 1.7961951975565768e+01 1.0242763025869344e+01 8.4609195734712763e+00 0 0 0
239 2 1.8731219957019459e+01 9.6403258930614371e+00 8.7379550256820462e+00 0 0 0
240 2 1.7981243950807418e+01 1.1023012968142714e+01 9.0744205848765631e+00 0 0 0
241 1 7.6325085627090834e+00 4.6002442420774354e+00 9.9598341912097965e-01 0 0 0
242 2 7.8635402294532799e+00 3.8474013333522703e+00 1.6009124297386712e+00 0 0 0
243 2 6.8315139884403573e+00 5.1112423378364831e+00 1.3453015198560019e+00 0 0 0
244 1 1.0124832265519096e+01 6.2994397298841411e+00 7.7748181008623387e+00 0 0 0
245 2 1.0347703944909496e+01 5.7020763471166802e+00 8.4743856540061735e+00 0 0 0
246 2 9.7142576538807504e+00 5.6923868622076066e+00 7.0679467028468119e+00 0 0 0
247 1 1.0075630716825673e+01 1.1432472041213241e+01 9.2492051356945804e-01 0 0 0
248 2 9.3705923871098680e+00 1.2061137367506571e+01 1.3179789714509680e+00 0 0 0
249 2 1.0499278022844555e+01 1.1130066037725211e+01 1.7824174001607540e+00 0 0 0
250 1 1.2582540950341581e+01 1.3114126914605857e+01 7.6496203083396521e+00 0 0 0
251 2 1.3091704117422998e+01 1.2683691230049806e+01 8.3708570417639425e+00 0 0 0
252 2 1.3178966401464510e+01 1.3779029159811753e+01 7.2109441278395838e+00 0 0 0
253 1 1.5052463483954400e+01 5.0331155054093042e+00 9.7703866311882537e-01 0 0 0
254 2 1.5525519126110620e+01 4.5219420023336871e+00 1.6930323836687551e+00 0 0 0
255 2 1.4315584067617053e+01 5.5448156578679830e+00 1.3625388967799550e+00 0 0 0
256 1 1.7684877201069682e+01 6.3833420428100727e+00 7.7771817908277150e+00 0 0 0
257 2 1.7878601389260815e+01 5.8084760357217409e+00 8.5714414795701490e+00 0 0 0
258 2 1.6972931681514492e+01 6.9545500000220972e+00 8.0704048236669941e+00 0 0 0
259 1 1.7402348119738306e+01 1.1504081896651774e+01 1.2360657765142127e+00 0 0 0
260 2 1.6751701571188583e+01 1.2236289080098206e+01 1.3918946431129884e+00 0 0 0
345 2 6.2588072681051941e+00 1.3248981699684741e+01 4.0742109216494899e+00 0 0 0
262 1 1.9712389015663735e+01 1.3609035647237629e+01 7.5965792790228344e+00 0 0 0
263 2 2.0086063624438651e+01 1.3057974781142747e+01 8.3936428387825330e+00 0 0 0
264 2 2.0514538387898199e+01 1.4101513186619776e+01 7.2137751678892892e+00 0 0 0
265 1 9.6243203444399601e+00 6.2372634878119211e+00 2.6236989501403163e+00 0 0 0
266 2 8.8182612062635322e+00 5.7985229955953272e+00 2.9283542275475076e+00 0 0 0
267 2 1.0053942071194577e+01 5.6634015548375496e+00 1.9614142025862227e+00 0 0 0
268 1 1.2364457214940272e+01 7.6951726111904000e+00 9.2381087824627386e+00 0 0 0
269 2 1.2736719411344263e+01 7.1185905820665507e+00 8.5469277656398557e+00 0 0 0
270 2 1.1712080493646068e+01 7.2068180725787325e+00 9.7852943820585399e+00 0 0 0
271 1 1.2141841203310374e+01 1.3329242730495858e+01 3.0609568241382910e+00 0 0 0
272 2 1.2896179005481750e+01 1.3275957828746254e+01 3.6828780175143039e+00 0 0 0
273 2 1.1379653987281506e+01 1.2913439597793133e+01 3.5405812653401791e+00 0 0 0
274 1 1.4828739596676623e+01 1.4616578788170349e+01 9.5012750843037317e+00 0 0 0
275 2 1.4675291602136094e+01 1.5556877515793659e+01 9.3120065162546499e+00 0 0 0
276 2 1.5440514468110493e+01 1.4668832185485089e+01 1.0232330474539978e+01 0 0 0
277 1 1.7255742112334186e+01 6.2267320916579454e+00 2.6724524346961669e+00 0 0 0
278 2 1.6593392753553768e+01 5.7968988178262641e+00 3.2542652620848402e+00 0 0 0
1132 1 1.4813349664663059e+01 2.3806809358059425e+01 1.2034863696423027e+01 0 0 0
280 1 1.9627352636887451e+01 7.7730699856740326e+00 9.5707104182831220e+00 0 0 0
113 2 1.5536321995071445e+01 6.8770936703275094e+00 1.3670788783504873e+01 0 0 0
815 2 2.8948682469184273e+01 3.0286290087306618e+01 1.3318613981470881e+01 0 0 0
283 1 1.9633254084711098e+01 1.3150511855668316e+01 2.8348104308989299e+00 0 0 0
1109 2 1.1842598349814011e+01 2.3080180153296865e+01 1.1677612529839779e+01 0 0 0
1113 2 1.1897084672094786e+01 2.8232615302576960e+01 4.9261143733447277e+00 0 0 0
286 1 2.2029734766043333e+01 1.4960937891633362e+01 9.3391654105310629e+00 0 0 0
978 2 2.3538189789357414e+01 1.7926294554519178e+01 8.9235402724762594e+00 0 0 0
288 2 2.1685624789755952e+01 1.5800227757143364e+01 8.9503584839394428e+00 0 0 0
289 1 5.8922693469815997e+00 6.7227445574250524e+00 1.6177713363667496e+00 0 0 0
290 2 5.5227713071630991e+00 6.6610371973622353e+00 2.5143031961446858e+00 0 0 0
291 2 6.5540314876369994e+00 7.4468245075464772e+00 1.6965073358838711e+00 0 0 0
292 1 8.4674459502235759e+00 8.3491397521305011e+00 8.5594059938249831e+00 0 0 0
293 2 8.9413828990632211e+00 7.5259307810358873e+00 8.3121598526382474e+00 0 0 0
294 2 9.2221406300010464e+00 8.9645097190244165e+00 8.6204916697019627e+00 0 0 0
295 1 8.5945843373114901e+00 1.3455221611069803e+01 1.9949955740576664e+00 0 0 0
296 2 8.2075045469756489e+00 1.3460954537928366e+01 2.8861801924063673e+00 0 0 0
297 2 7.8578329545802825e+00 1.3837918713592661e+01 1.4473987631288101e+00 0 0 0
298 1 1.1437881215070568e+01 1.5567192891356020e+01 8.3865780544166135e+00 0 0 0
299 2 1.1529708043309640e+01 1.4582216986446024e+01 8.2364707633603658e+00 0 0 0
300 2 1.0528278060913959e+01 1.5746647166114871e+01 7.9798443087228472e+00 0 0 0
301 1 1.3208453705925173e+01 7.0034522387129998e+00 2.0594181814066843e+00 0 0 0
302 2 1.2989593402550556e+01 6.9256499044419604e+00 2.9896034399735485e+00 0 0 0
303 2 1.3943267088011433e+01 7.6154558362475404e+00 1.8871916236711650e+00 0 0 0
304 1 1.5980717867994386e+01 8.4071228171825823e+00 8.6237644136505232e+00 0 0 0
305 2 1.5638377605291168e+01 8.3482924930956397e+00 9.5375667637640920e+00 0 0 0
306 2 1.6613167123277453e+01 9.1874861109867307e+00 8.6591731105899044e+00 0 0 0
307 1 1.5777499779153812e+01 1.3469248940173838e+01 2.2329281666862317e+00 0 0 0
308 2 1.4971986980626887e+01 1.3908354917850911e+01 1.7595090846167476e+00 0 0 0
309 2 1.6497334395875509e+01 1.4123716384990084e+01 2.3840652436652157e+00 0 0 0
310 1 1.8440880133967585e+01 1.5707884297817921e+01 8.5284171102723416e+00 0 0 0
311 2 1.8872509730332730e+01 1.4908640157229724e+01 8.0709574071238244e+00 0 0 0
312 2 1.7592733093314841e+01 1.5779231802530761e+01 8.0938792631951895e+00 0 0 0
313 1 3.5484149249524135e+00 4.7930429691976846e+00 1.0838573462975134e+00 0 0 0
315 2 4.3291337899020395e+00 4.5595265932373019e+00 1.6830212723701814e+00 0 0 0
316 1 6.4720943789815157e+00 6.3574134899794625e+00 7.7888650707046807e+00 0 0 0
317 2 6.8409393705284245e+00 6.9076695309915799e+00 7.0537036699159517e+00 0 0 0
318 2 5.7370892280370089e+00 6.8937539678289195e+00 8.1455999514052841e+00 0 0 0
319 1 5.9449063317021746e+00 1.1716067800967329e+01 1.2804984133751192e+00 0 0 0
846 2 8.6916204154583703e+00 1.7289119719269493e+01 8.2199856555430966e+00 0 0 0
321 2 6.8677809434078672e+00 1.1644489551433432e+01 1.6637215369321525e+00 0 0 0
322 1 9.0361428306241649e+00 1.3505197774371840e+01 7.4976181418847565e+00 0 0 0
323 2 8.4591316453100358e+00 1.4001942587973733e+01 8.0842672507319389e+00 0 0 0
324 2 8.6061876919522735e+00 1.2686536377348741e+01 7.1343141936016661e+00 0 0 0
325 1 1.1158756551038225e+01 4.6489663003504242e+00 7.3421289775615872e-01 0 0 0
1143 2 2.0562713888959117e+01 2.2337889019017084e+01 5.4034403715612456e+00 0 0 0
285 2 2.0302656839511812e+01 1.3208833727512580e+01 3.5337749184320510e+00 0 0 0
328 1 1.3965551599765792e+01 6.3192814194440476e+00 7.5291188634701109e+00 0 0 0
329 2 1.3651371913539752e+01 5.4049640322776451e+00 7.2518784632830284e+00 0 0 0
330 2 1.4483725363907027e+01 6.1547345362136490e+00 8.3423278812790400e+00 0 0 0
331 1 1.3580916811371907e+01 1.1704615745168770e+01 1.0049374638307034e+00 0 0 0
332 2 1.3082164758159282e+01 1.2243976551050167e+01 1.6023288339388848e+00 0 0 0
333 2 1.4333832711960946e+01 1.1360482369360014e+01 1.4585157384833050e+00 0 0 0
334 1 1.6408941742189285e+01 1.3307520662846079e+01 7.4662505473870864e+00 0 0 0
335 2 1.6719730633634345e+01 1.3918480487838160e+01 6.7695517460235450e+00 0 0 0
336 2 1.5760966533652041e+01 1.3875929564776726e+01 7.9210956120551748e+00 0 0 0
337 1 4.8152380339702106e+00 6.4614244271185761e+00 4.2756313049817782e+00 0 0 0
338 2 4.9420022635168603e+00 5.6304034720703662e+00 4.7597430269660217e+00 0 0 0
806 2 2.5064156591533035e+01 2.2807598292931047e+01 6.8197724154856543e+00 0 0 0
340 1 7.1027578393531456e+00 7.9112650420788846e+00 1.0884274340012894e+01 0 0 0
342 2 7.7900744256624339e+00 7.9770248213973929e+00 1.0186102929904056e+01 0 0 0
343 1 7.2430819876275372e+00 1.3295233860890658e+01 4.2977321265685156e+00 0 0 0
314 2 3.2712208753380780e+00 3.9133995572155555e+00 7.3006562140736120e-01 0 0 0
1140 2 1.8304455685444488e+01 3.0740608960068826e+01 1.2361126049358569e+01 0 0 0
346 1 9.6133239133218424e+00 1.5308241104818240e+01 1.0878566159799629e+01 0 0 0
347 2 1.0290706545920639e+01 1.5389638339119649e+01 1.0210156402396906e+01 0 0 0
348 2 9.8416912739650932e+00 1.4465777120751168e+01 1.1328535615939751e+01 0 0 0
349 1 1.2014577395887615e+01 6.3084486457852700e+00 4.3606799750029950e+00 0 0 0
350 2 1.2094416512373419e+01 6.9235236381288523e+00 5.1107048488531461e+00 0 0 0
351 2 1.1110036923240370e+01 6.3465776312310167e+00 3.9849108221612819e+00 0 0 0
352 1 1.4469350187820705e+01 8.3863929072042662e+00 1.0959270258943070e+01 0 0 0
353 2 1.4728702816764590e+01 7.6920565597792789e+00 1.1527980895942747e+01 0 0 0
354 2 1.3732628756308088e+01 8.0862265959376600e+00 1.0434808873945791e+01 0 0 0
355 1 1.4483876103818424e+01 1.3272183588868534e+01 4.4977622123509118e+00 0 0 0
356 2 1.4577538303247366e+01 1.2391177317966825e+01 4.9420664469245335e+00 0 0 0
357 2 1.5095714021120193e+01 1.3254165287457319e+01 3.7238215108127708e+00 0 0 0
358 1 1.6939191522505880e+01 1.5031212989766255e+01 1.1341414327607167e+01 0 0 0
359 2 1.6899872674393748e+01 1.5900759355799490e+01 1.1796234042400558e+01 0 0 0
360 2 1.7688563409550412e+01 1.5222826210281216e+01 1.0799002603652182e+01 0 0 0
361 1 7.3442223818063130e+00 7.4972718559765070e+00 5.4565453512936095e+00 0 0 0
362 2 6.7710636348128537e+00 8.2214157523364992e+00 5.1595996566000029e+00 0 0 0
363 2 8.2607739781701497e+00 7.8621855771185043e+00 5.3555984366351801e+00 0 0 0
364 1 9.9425648925876438e+00 9.5077495094968558e+00 1.2027475708370028e+01 0 0 0
365 2 9.2545896587101559e+00 1.0062097012907472e+01 1.1664476023670479e+01 0 0 0
366 2 9.5488507739133137e+00 9.2397326875783161e+00 1.2895760337766356e+01 0 0 0
367 1 9.7439804814942157e+00 1.4821819038458903e+01 5.1971786511087421e+00 0 0 0
368 2 9.1997184629009627e+00 1.5537262324384892e+01 4.7681227314463177e+00 0 0 0