LAMMPS data file via write_data, version 15 Apr 2020, timestep = 350000

6144 atoms
2 atom types

-1.4168739289808130e+00 6.1385163060162640e+01 xlo xhi
1.5200568323870201e-01 2.8188460316759532e+01 ylo yhi
1.6430577842339211e-01 2.7247139221575964e+01 zlo zhi
1.0122158982762334e+01 1.0188543700293909e+01 7.1154925215373144e+00 xy xz yz

Masses

1 16
2 2

Atoms # atomic

1595 2 1.7620433157461527e+01 2.2219397147210564e+01 1.8025526252338430e+01 0 0 0
1604 2 1.8089138020797115e+01 2.0067039914894639e+01 2.5306646700841171e+01 0 0 0
2401 1 1.6014929024711154e+01 2.8992185722512279e+01 2.3594684965229170e+01 0 0 0
987 2 1.3640400183409007e+01 1.3335385265392787e+01 2.0132051194368188e+01 0 0 0
225 2 7.2030384106602607e+00 6.2723563034981042e+00 4.9238389693163844e+00 0 0 0
52 1 1.3202286395335371e+01 2.5755254987150721e+01 8.5653262449811187e+00 0 -1 0
25 1 9.7844039115579733e+00 1.4843469276051179e+01 7.5943658008163890e+00 0 0 -1
1625 2 1.4976254561804641e+01 1.8960896844782077e+01 1.8609510620688880e+01 0 0 0
2464 1 1.2498227936959559e+01 1.7262550040579079e+01 7.5034039577212353e+00 0 1 0
886 1 1.7728435558713471e+01 2.3700843821401783e+01 2.0522504538092214e+01 0 1 -1
1633 1 1.6159281585390879e+01 1.6343235649548848e+01 2.0686339207888714e+01 0 0 0
849 2 1.6169303150458170e+01 1.9698169429163958e+01 1.0880495941598012e+01 0 0 -1
2443 1 1.3415582482081707e+01 1.4687604760651473e+01 7.7610420011380006e+00 0 1 0
358 1 1.6175028097731772e+01 2.5754304608058366e+01 2.3550813804110497e+01 0 0 0
2466 2 1.3233778623848735e+01 1.7883335123999903e+01 7.5202868910225487e+00 0 1 0
1895 2 1.1432252793288672e+01 1.4828705264931614e+01 4.8587803141004429e+00 0 0 1
1670 2 5.8036531754546479e+00 4.3508072969333051e+00 7.6352174561436059e-01 0 0 0
1634 2 1.6266563446617731e+01 1.5517484424492647e+01 2.1281527925004518e+01 0 0 0
1064 2 9.3561285017086320e+00 5.7763276808007715e+00 2.1376193965320937e+01 0 1 -1
1894 1 1.0564725886954538e+01 1.5299583353429989e+01 4.8782552431515764e+00 0 0 1
1740 2 7.1777733852142145e+00 1.5725286863843825e+01 1.6449666958366796e-01 0 0 1
1916 2 1.6140191256366453e+01 2.4041414261130761e+01 1.6711301024905957e+01 0 0 0
611 2 6.6006175868135344e+00 5.1233681761742691e+00 1.4193108711353176e+01 0 1 0
1709 2 1.2203786303986316e+01 6.0120883457287926e+00 1.8625530961858331e+01 0 0 0
487 1 7.4704431426831270e+00 1.9654967154900717e+01 6.4197896048754566e-01 0 0 0
53 2 1.2874023255768266e+01 2.4890415433710704e+01 8.7656880948347062e+00 0 -1 0
1587 2 1.2421506581154457e+01 1.4716773805587691e+01 1.3608911269137325e+01 0 0 0
1586 2 1.1382979182246141e+01 1.4596175452392965e+01 1.2422895742555847e+01 0 0 0
1675 1 1.0898703141784132e+01 1.7034484676758819e+01 1.5787815661012836e+01 0 0 0
2564 2 2.0089892910359158e+01 1.8118615352094569e+01 2.5943243973469976e+01 0 1 -1
416 2 1.2993377706266900e+01 1.7867094494247034e+01 1.8917905199310837e+01 0 0 0
1871 2 1.6841842276855797e+01 2.5436205470887007e+01 1.9733256837829046e+01 0 0 0
610 1 7.3268071613529315e+00 4.6944453548490923e+00 1.4647747044205287e+01 0 1 0
1275 2 5.7345720410428322e+00 6.3337727161524633e+00 2.3477950930434952e+00 0 0 0
2481 2 2.2580116249523527e+01 9.8722055984519450e+00 2.0190278119445004e+01 0 1 -1
2450 2 1.5989891040764988e+01 2.4194484307550542e+01 2.2764641245907100e+01 0 0 0
1708 1 1.1550789090977551e+01 5.9598578258444714e+00 1.7892077192195472e+01 0 0 0
27 2 1.0075715977143311e+01 1.5666586021623472e+01 7.9619266494054433e+00 0 0 -1
907 1 1.9987932785867471e+01 2.6955475952543669e+01 2.1954007502100694e+01 0 0 -1
99 2 1.2236662031240865e+01 7.3862918022019137e+00 6.2326107941477868e+00 0 0 0
1561 1 1.3558328510168112e+01 1.5680282860557684e+01 1.4588929779452474e+01 0 0 0
1901 2 1.2336493888521350e+01 1.0451372586303076e+01 2.5399954427853636e+01 0 0 0
174 2 2.0469390694274470e+01 5.3484162872124212e+00 1.8721612785471301e+01 0 0 -1
1059 2 8.4037072460794882e-01 1.1252987257344014e+00 1.6275845612009148e+00 0 1 0
924 2 1.8452523669010660e+01 1.9269763611474716e+01 1.1883752924882263e+01 0 0 0
1637 2 9.8168390023132392e+00 1.1054977052583993e+01 1.7531737392186258e+01 0 0 0
224 2 6.9081168116253888e+00 6.5743692043492308e+00 6.4874755921171916e+00 0 0 0
1781 2 1.1172113558104193e+01 1.2699555026304640e+01 1.3569827868803333e+01 0 0 0
1710 2 1.2091434035126078e+01 5.6678621278981050e+00 1.7152875598634552e+01 0 0 0
1689 2 8.3930004623053236e+00 6.5447016314669737e+00 1.2539852029106664e+01 0 0 0
1705 1 1.5571871670396725e+01 1.6936387811056999e+01 1.6530117312582497e+01 0 0 -1
1773 2 2.1280335532962098e+01 3.2533226462742846e+01 2.7007798378416958e+01 0 0 -1
101 2 5.6480221374280450e+00 8.6803080875798635e+00 9.0866307950548659e+00 0 0 0
1570 1 1.3100392366337086e+01 1.2712131323365139e+01 1.6133766470874946e+01 0 0 1
2314 1 1.5265332243496758e+01 2.2892506369764654e+01 1.0716073610833940e+01 0 0 1
1129 1 1.3675887528398201e+01 1.4641607712335546e+01 2.2773073462166870e+01 0 0 -1
2360 2 9.3179903343612995e+00 1.4491144016897204e+01 1.0898463966618284e+01 0 0 0
1635 2 1.5301733852531974e+01 1.6330962744594764e+01 2.0270000409070036e+01 0 0 0
1017 2 1.1854180012275677e+01 4.3053138919215490e+00 1.1169580694209195e+01 0 1 -1
1202 2 2.3522088632147945e+01 1.6182385493497225e+01 1.5750919598241612e+01 0 1 -1
821 2 1.0356906535091614e+01 1.8445957182549382e+01 1.8283739559373802e+00 0 0 0
974 2 1.2276237267190393e+01 2.9664815248429679e+01 8.1936353082925670e+00 0 0 0
896 2 2.0576366406882279e+01 2.9857474073990403e+01 2.0698168473094043e+01 0 0 -1
868 1 8.1421545220730707e+00 1.6546929370680324e+01 9.4690151354963472e+00 0 0 0
944 2 6.0602560057171226e+00 1.4413674605648611e+01 2.2480202574959871e+00 0 1 0
1571 2 1.3815304700822644e+01 1.3003115321413931e+01 1.5459270638220275e+01 0 0 1
1659 2 1.5854130084970947e+01 2.8030680548718649e+01 1.6989901305687034e+01 0 -1 0
894 2 1.3798244871027633e+01 2.0265362214368018e+01 1.0015368636154681e+01 0 0 0
1107 2 5.9614552226206596e+00 1.8003570651525010e+01 2.1458207065785864e+00 0 0 0
1274 2 6.2948472316700377e+00 7.8153922808346410e+00 2.3688301566637824e+00 0 0 0
1113 2 1.1114792274735638e+01 2.1469011727172056e+01 1.1737621794437421e+01 0 0 0
1669 1 6.2266839022105493e+00 4.8739112650221994e+00 1.4411636242616375e+00 0 0 0
1063 1 1.9710387010604997e+01 3.3401158018243507e+01 2.0565891937193058e+01 0 0 -1
1671 2 7.1741941554550621e+00 4.7326422383949067e+00 1.2459223134783501e+00 0 0 0
1791 2 4.9532522566965369e+00 7.4629456226684789e+00 5.1810475136397791e+00 0 0 1
1001 2 8.3074241860683795e+00 1.5282934253871611e+01 6.4440183808062779e+00 0 0 0
846 2 1.6561725432516113e+01 1.7935500935309978e+01 2.4266748990092132e+01 0 0 -1
359 2 1.5256425985696836e+01 2.5827805585984894e+01 2.3931083514540525e+01 0 0 0
1739 2 1.7368107101409706e+01 2.2134189184343878e+01 2.5898288610199685e+01 0 0 0
822 2 8.9908400297905988e+00 1.9180343533879579e+01 1.7836200572378715e+00 0 0 0
2471 2 1.9672307333013098e+01 8.1088929906358374e+00 2.0223971167898824e+01 0 1 0
1112 2 1.1509686937635134e+01 2.2954908300466027e+01 1.2149617572034257e+01 0 0 0
887 2 1.7886634508956607e+01 2.2888033975661418e+01 2.0050249206283844e+01 0 1 -1
2465 2 1.2794814791762116e+01 1.6289822783024629e+01 7.5039765279882991e+00 0 1 0
54 2 1.2413859939787390e+01 2.6355011413558589e+01 8.4306760380300059e+00 0 -1 0
2671 1 5.0651060239734615e+00 5.9984834722547866e+00 1.3230039738747024e+01 0 1 0
223 1 6.8821469030679818e+00 6.9199934490397776e+00 5.5757539082423140e+00 0 0 0
1917 2 1.5146281065767386e+01 2.5167627586681824e+01 1.7216690886249005e+01 0 0 0
353 2 7.1734505065023413e+00 1.0365903602947219e+01 8.9839376713922086e+00 0 0 0
2407 1 1.0600092692214552e+01 1.7701555947840223e+01 9.2978688660750954e+00 0 0 0
1687 1 9.0341138657187479e+00 6.8991721167587299e+00 1.3172758952733279e+01 0 0 0
986 2 1.4003570295221868e+01 1.4627857776470293e+01 1.9320966453103168e+01 0 0 0
1706 2 1.5811686793056680e+01 1.6458048016378921e+01 1.5703598338891720e+01 0 0 -1
1703 2 1.0197047935059665e+01 1.4483806726771206e+01 1.6747989895456392e+01 0 0 0
1374 2 1.7969564377266288e+01 1.9249760337981417e+01 1.6556413584211460e+00 0 0 0
1688 2 9.4353220450968394e+00 6.1366534143506772e+00 1.3549145979296513e+01 0 0 0
1002 2 6.9938187979043001e+00 1.4457094263658060e+01 6.5529791825279879e+00 0 0 0
1610 2 8.1918706985590095e+00 1.7775302729457948e+01 2.7062694300152166e+00 0 -1 0
922 1 1.9226488218978567e+01 1.8812905839696178e+01 1.2312225746147782e+01 0 0 0
2409 2 1.0390032063554120e+01 1.8622828885496094e+01 9.5441307666738453e+00 0 0 0
845 2 1.5831488919209178e+01 1.6694261807671069e+01 2.4707719746137528e+01 0 0 -1
1563 2 1.3906111334978700e+01 1.6064306561076087e+01 1.3785362580330199e+01 0 0 0
908 2 2.0541614726245029e+01 2.6813652519812912e+01 2.2737277049826524e+01 0 0 -1
893 2 1.3695665718042278e+01 2.0000775348115035e+01 8.4636850830205077e+00 0 0 0
28 1 1.8775459954579013e+01 2.3119122659527431e+01 1.4705328014791904e+01 0 0 0
2652 2 2.7449482701908448e+01 2.5694974688899602e+01 2.3968809061810717e+01 0 0 0
870 2 9.0799015076424965e+00 1.6802520081384596e+01 9.4089945080977309e+00 0 0 0
300 2 1.5031442730523306e+01 1.9090144835453319e+01 6.9248568137454427e+00 0 0 0
1585 1 1.1902145754435548e+01 1.4076959603543523e+01 1.3045270029736241e+01 0 0 0
2414 2 1.3334151121461524e+01 1.8849211796839555e+01 1.3949278604820369e+01 0 0 1
2436 2 2.3995423626110085e+01 2.5779250015739088e+01 1.1893087871136066e+01 0 0 0
2441 2 1.7616924480996879e+01 2.1485173203503617e+01 1.1420449162623472e+01 0 0 1
847 1 1.5308940985514418e+01 1.9318601263015609e+01 1.0720358836161020e+01 0 0 -1
1562 2 1.2790525918344512e+01 1.6262901322716392e+01 1.4898713868965141e+01 0 0 0
1015 1 1.1427094573913978e+01 3.8414208271263020e+00 1.1880594834734135e+01 0 1 -1
1738 1 1.7250754914004514e+01 2.3007170657447897e+01 2.6298253257477739e+01 0 0 0
850 1 7.2289026683470361e+00 1.2854876523763640e+01 1.2502184049760144e+01 0 1 0
30 2 1.9477618696232405e+01 2.3817525018318399e+01 1.4764978990231642e+01 0 0 0
219 2 1.0045561490214414e+01 2.3844566815393069e+01 9.6540408898442855e+00 0 -1 0
1057 1 5.2640754951360336e-02 1.7669202251026250e+00 1.6590981433862160e+00 0 1 0
150 2 1.0403965352135472e+01 9.2505024952208892e+00 2.4877679388795670e+01 0 0 -1
2440 1 1.7808419263386948e+01 2.0591506824930388e+01 1.1115343061244644e+01 0 0 1
98 2 1.3118228847240704e+01 7.7545715233113874e+00 5.0431325999119485e+00 0 0 0
2408 2 1.1099930707884097e+01 1.7757999102661287e+01 8.4431600547484376e+00 0 0 0
369 2 1.3266435496156539e+01 1.3587154442358184e+01 1.1702442460878054e+01 0 0 -1
1065 2 9.3149138691586231e+00 5.9417942631148231e+00 1.9846057039216866e+01 0 1 -1
1130 2 1.2745608907219269e+01 1.4719366523427666e+01 2.2852907492551395e+01 0 0 -1
2355 2 2.1483092523508002e+01 2.6117726004701634e+01 1.9250189523866986e+01 0 0 0
962 2 2.3599674894215219e+01 3.2359167556566646e+01 2.6701438228896258e+01 0 0 -1
888 2 1.6854434212767707e+01 2.3554032685803556e+01 2.1014964503018923e+01 0 1 -1
1135 1 1.1082436600046510e+01 1.0506795641195641e+01 2.2032226413089653e+01 0 1 -1
299 2 1.3786004353754326e+01 1.9846735925574951e+01 6.2439989632585089e+00 0 0 0
626 2 1.0417594924779989e+01 7.1089034658082095e+00 1.4437218486716099e+00 0 0 0
873 2 1.1936820431757415e+01 1.5314355546682995e+01 1.8170946364787504e+01 0 0 0
105 2 7.8601267350832380e+00 1.2766415484476465e+01 9.8737992744434475e+00 0 0 0
2311 1 8.9966567246540130e+00 8.1489231678252665e+00 9.3322187672924117e-01 0 1 0
1515 2 1.0801067370946930e+01 1.8738379553601543e+01 5.1352233044477629e+00 0 0 0
1896 2 1.0750527376255448e+01 1.6194361228022018e+01 5.2394786475569308e+00 0 0 1
1546 1 1.4634801586507514e+01 1.5348070401831560e+01 2.5337061598726528e+01 0 1 0
984 2 1.6552049364021613e+01 9.2711956393363053e+00 1.4099455652759167e+01 0 1 -1
588 2 7.2899161830031503e+00 1.2130655830925891e+01 4.1699617854953717e+00 0 0 0
909 2 1.9037906482896872e+01 2.7031598619278860e+01 2.2165564107589020e+01 0 0 -1
2668 1 2.0234464071785752e+01 2.6717891733774792e+01 1.2126786565138433e+01 0 0 0
2354 2 2.2796980393850667e+01 2.5834290585378781e+01 1.8598847316874533e+01 0 0 0
1879 1 8.3912238728378625e+00 9.8436927257912679e+00 2.2007088006683588e+01 0 0 0
435 2 1.9148324404174513e+01 1.2207769659134492e+01 1.4179281501134392e+01 0 0 -1
1273 1 5.7330792360359375e+00 7.1894631964843363e+00 2.8527893908013926e+00 0 0 0
1132 1 1.0440327063070063e+01 6.6349841209477383e+00 9.0998706635968372e+00 0 1 0
1780 1 1.0813263669414823e+01 1.2143570929700244e+01 1.4278564433341376e+01 0 0 0
898 1 1.3931109115459687e+01 2.5843572560381975e+01 1.8403693357813872e+01 0 0 0
1514 2 1.1455578110421971e+01 1.7795985436213154e+01 6.3210988001396347e+00 0 0 0
1655 2 7.7658201379673848e+00 2.4996798003228790e+01 9.1569038294749783e-01 0 0 2
352 1 7.2830355963252913e+00 9.4117626104958489e+00 9.0682385578182458e+00 0 0 0
961 1 2.4452703040048632e+01 3.2046961498012358e+01 2.6291737819029507e+01 0 0 -1
885 2 1.5509351558781930e+01 7.2024831538029304e+00 1.7579576211649290e+01 0 1 -1
632 2 8.7557040561142081e+00 1.4671101388966310e+01 1.4903745132769313e+01 0 0 0
2316 2 1.4547163054423265e+01 2.2864155220474828e+01 1.0040464940751381e+01 0 0 1
975 2 1.3606358199324982e+01 2.9377926217466928e+01 8.8816603113998607e+00 0 0 0
818 2 2.0776031693409799e+01 3.2524794829143673e+01 1.7875804244712555e+01 0 0 -1
775 1 1.2634686368037208e+01 2.5650789995929955e+01 4.7420040109238837e+00 0 0 0
1603 1 1.7142944670679242e+01 1.9934662909365219e+01 2.5498524261104485e+01 0 0 0
218 2 1.0425723345084776e+01 2.4891655026071703e+01 8.4737334540849094e+00 0 -1 0
1605 2 1.7275244369638116e+01 1.9449280027904059e+01 2.6369614691232130e+01 0 0 0
2532 2 1.2538726010946929e+01 2.2472834819449510e+01 1.5346874371348745e+01 0 0 0
77 2 1.0964482318578423e+01 2.5788662258559722e+01 3.4714512830562301e+00 0 -1 0
100 1 4.7983790606362202e+00 8.2187790247071302e+00 8.9561739425067568e+00 0 0 0
1877 2 1.0550108703724499e+01 7.4471943155040901e+00 2.2360452580318203e+01 0 0 0
2669 2 2.0334909414644425e+01 2.6516316852729108e+01 1.3096140614238037e+01 0 0 0
1593 2 6.4081299858486833e+00 1.0560715251579968e+01 1.4401077231659091e+01 0 0 0
756 2 1.2125454585886150e+01 2.4570257344376202e+01 1.5988166915201877e+01 0 0 0
1016 2 1.1286407065869604e+01 4.3460548807970021e+00 1.2741198701246173e+01 0 1 -1
2283 2 1.3497451005985397e+01 2.3245281949578555e+01 6.8931586023302511e+00 0 -1 0
995 2 5.1643084002713460e+00 9.4427290122245946e+00 2.2198758645480967e+00 0 1 0
97 1 1.3123926401774092e+01 7.3267165203387172e+00 5.9226115523335379e+00 0 0 0
2361 2 9.2247886637546674e+00 1.4015196406200420e+01 9.3395505066234268e+00 0 0 0
2673 2 4.2838529168465547e+00 5.4504074427617066e+00 1.3590247317101248e+01 0 1 0
1513 1 1.0738669843056934e+01 1.7908802838323680e+01 5.6850358039441042e+00 0 0 0
1078 1 1.7583343316490765e+01 2.6872158414430640e+01 1.4736301008094882e+01 0 0 0
963 2 2.4446867131850457e+01 3.1123955482878610e+01 2.6593292058852846e+01 0 0 -1
1547 2 1.4371080836129998e+01 1.5011608773125198e+01 2.4446732291251095e+01 0 1 0
2353 1 2.2192920976670582e+01 2.6593067994661236e+01 1.8812184144591399e+01 0 0 0
917 2 3.7762372092880474e+00 6.5388466051673193e+00 7.2775709156732149e-01 0 1 0
417 2 1.3836341675380082e+01 1.7907832395374417e+01 2.0253681595531866e+01 0 0 0
985 1 1.4185295076980118e+01 1.4147698354557859e+01 2.0155522905942675e+01 0 0 0
1884 2 1.0016205475777086e+01 1.9117741467441437e+01 1.1933673729976062e+01 0 0 0
76 1 1.0437447874623743e+01 2.6211599159325598e+01 2.7563452713722607e+00 0 -1 0
298 1 1.4119236416826418e+01 1.9377017728455890e+01 7.0898796967393345e+00 0 0 0
1707 2 1.4869580701268909e+01 1.7635056032753244e+01 1.6298984658046763e+01 0 0 -1
2521 1 1.4415128589531138e+01 2.8123014116990408e+01 1.5762487106332863e+01 0 0 0
612 2 7.7583435224588513e+00 4.2470309255901579e+00 1.3892360754933863e+01 0 1 0
2396 2 1.4337228526485053e+01 2.8786693425620481e+01 1.1082829453466623e+01 0 0 0
1079 2 1.7039292951902738e+01 2.6341105139710255e+01 1.5359891636049927e+01 0 0 0
883 1 1.5410931468468391e+01 6.2099943194998515e+00 1.7610580136316187e+01 0 1 -1
2442 2 1.8564032013826470e+01 2.0645465897843938e+01 1.0527951091924319e+01 0 0 1
1915 1 1.5939004838987355e+01 2.5014869630031793e+01 1.6708462411687620e+01 0 0 0
2451 2 1.4700025198566159e+01 2.3843423326092452e+01 2.1890288722681682e+01 0 0 0
2315 2 1.6038652299231408e+01 2.2890751862593945e+01 1.0097233111808681e+01 0 0 1
241 1 4.7249966705866093e+00 1.1575906526947225e+01 6.0684896154356531e+00 0 0 0
983 2 1.7339570086344253e+01 8.4095679468596867e+00 1.5144709904836347e+01 0 1 -1
923 2 1.9957787244886219e+01 1.9462290801404876e+01 1.2136649667077167e+01 0 0 0
2572 1 1.4032440716701590e+01 2.1925709719933092e+01 1.8053499363001002e+01 0 0 0
354 2 7.3726000788331021e+00 9.2539371267787836e+00 1.0035315217479889e+01 0 0 0
156 2 9.1807496548771912e+00 5.3879462402294021e+00 9.0573812772151729e+00 0 0 0
1589 2 1.0286451774953958e+01 2.3120880231851366e+01 3.2092147112221761e+00 0 -1 1
1616 2 1.3534924933635249e+01 2.1091088294761118e+01 1.2643822824409067e+01 0 -1 0
1050 2 1.2436973835473518e+01 2.0594959479708248e+01 4.6231986812738644e+00 0 0 0
1081 1 1.9838961422106493e+01 1.5684609444307272e+01 2.0638974725049501e+01 0 0 -1
1594 1 1.8127165827550154e+01 2.1695692600636981e+01 1.8720596719732406e+01 0 0 0
2445 2 1.2909449022532055e+01 1.3946528513203573e+01 7.3640173114949024e+00 0 1 0
1588 1 1.0225762125242618e+01 2.3152397711056619e+01 2.2318528106938955e+00 0 -1 1
1150 1 1.8470518891474647e+01 1.9136719181341594e+01 1.7197149839547407e+01 0 0 0
1841 2 2.2517273884228338e+01 1.2809189933599608e+01 2.5612308509775772e+01 0 0 0
313 1 1.3806401193512071e+01 1.8934969574551420e+01 1.5927050835613169e+01 0 0 -1
1118 2 2.3001817495327195e+01 2.8438605796339129e+01 2.1259475213894071e+01 0 0 -1
1872 2 1.6510600530774806e+01 2.6652846597357328e+01 1.8797983077485533e+01 0 0 0
2613 2 1.7001833604933758e+01 2.6823772046397380e+01 1.1955290102467609e+01 0 0 1
1133 2 1.1281000467498153e+01 6.2377248276664119e+00 9.2132293352135672e+00 0 1 0
1762 1 1.1343125190529717e+01 1.2017261225418141e+01 1.0310607117279833e+01 0 0 0
2556 2 1.8989453724947843e+01 2.0023180893987746e+01 2.3177189103256659e+01 0 0 0
2548 1 2.0554259749784883e+01 1.0741169202659545e+01 2.6614685364324792e+01 0 1 0
1870 1 1.6255434416569749e+01 2.6205073268048420e+01 1.9635292980151824e+01 0 0 0
1662 2 7.3594389569970353e+00 1.5910192857122254e+01 2.5541696595152499e+00 0 -1 1
1136 2 1.0094939936514205e+01 1.0447506441182338e+01 2.1928797797644606e+01 0 1 -1
1736 2 1.4992443558327562e+01 1.3493859986310811e+01 9.7588274884265740e+00 0 0 0
376 1 2.1594402998316138e+01 3.1482690275460687e+01 2.1043734493473018e+01 0 -1 0
1109 2 1.2141256426040314e+01 9.3217660142854974e+00 1.3727859582645554e+01 0 0 0
372 2 1.4402342611464992e+01 1.0538405279367881e+01 2.3110578832547091e+01 0 0 0
333 2 1.6847632452545792e+01 3.2198868040719631e+01 1.7815387163165987e+01 0 0 0
2555 2 1.7622785811737149e+01 2.0794480432002587e+01 2.3524189894917036e+01 0 0 0
374 2 7.5737403111985984e+00 9.8724184329987814e+00 3.8275162095056818e+00 0 0 0
1801 1 1.5797269332732988e+01 2.0559948361648654e+01 1.5032795117271196e+01 0 -1 0
442 1 8.9731562170798558e+00 6.2788439399942062e+00 3.7639231792944869e+00 0 0 0
2601 2 1.8397298987116784e+01 2.2761610392398286e+01 9.2568544786949900e+00 0 0 0
2600 2 1.7517809301590063e+01 2.4095982389522668e+01 9.0725453049269404e+00 0 0 0
188 2 1.2008779308880175e+01 2.3030892435188090e+01 8.8072179126486212e+00 0 0 0
2444 2 1.4189678541050700e+01 1.4243300545081052e+01 8.0991922388590076e+00 0 1 0
1755 2 2.3960545428461465e+01 2.1093571474630366e+01 1.2702339988280023e+01 0 -1 0
2642 2 7.1370331885815865e+00 4.0608354853623378e+00 5.7057831658061149e+00 0 0 1
2307 2 1.8898153071493656e+01 2.7272942035428411e+01 4.8916302659602042e+00 0 -1 0
1119 2 2.2922394416567439e+01 2.7510086267531765e+01 2.0036831807531527e+01 0 0 -1
1088 2 2.1283487623536374e+01 3.1261027249216401e+01 2.2749955499816849e+01 0 0 -1
2623 1 1.1050206878430970e+01 1.7544274926502858e+01 2.1354943036463624e+01 0 0 0
269 2 1.6651945001771285e+01 1.9148294472961137e+01 1.9928629557523074e+01 0 -1 -1
2306 2 1.9119514921408779e+01 2.8693401680040623e+01 4.2892804421086801e+00 0 -1 0
198 2 8.9288512095295740e+00 3.0507424874576223e+00 9.4527553068723762e+00 0 0 0
1089 2 2.0792296541501397e+01 3.1247402855305570e+01 2.4269114617430041e+01 0 0 -1
2468 2 9.8038453533814938e+00 1.2849915830684788e+01 2.0592213509984587e+00 0 0 1
2570 2 1.8674889467478103e+01 2.5885177366054837e+01 8.5226712345627540e+00 0 0 0
776 2 1.2600523043667977e+01 2.4858116918936858e+01 5.2314072062038717e+00 0 0 0
830 2 1.5006845963958188e+01 2.6507701394064583e+01 1.1132687358065205e+01 0 0 0
1658 2 1.7174792580506175e+01 2.8559932724378111e+01 1.7683638825075107e+01 0 -1 0
1103 2 1.1752541611329987e+01 1.2705470568404552e+01 2.5368542043664398e+01 0 1 -1
2604 2 1.9278299580284237e+01 1.5611609532618001e+01 2.3831518936932135e+01 0 1 0
2397 2 1.5409773231430449e+01 2.9766817419456917e+01 1.1617506999223378e+01 0 0 0
1134 2 1.0420019658386561e+01 7.5080786393485237e+00 9.5650590332063654e+00 0 1 0
2644 1 1.3943347386933389e+01 9.1458797276164585e+00 2.0544537715912419e+01 0 0 0
3026 2 2.8736240726654913e+01 3.0445213491862045e+01 1.8388523884700170e+01 0 0 0
332 2 1.6635760346814941e+01 3.2254392077681018e+01 1.6276433156685265e+01 0 0 0
1735 1 1.5410608169331191e+01 1.3924447316639318e+01 9.0341807743750007e+00 0 0 0
2646 2 1.4874022107587393e+01 9.2987843598109343e+00 2.0283288023105918e+01 0 0 0
2413 1 1.2738413145829540e+01 1.8661323320828988e+01 1.3176727638682056e+01 0 0 1
895 1 1.9709415406508917e+01 2.9406177307821523e+01 2.0690697765898221e+01 0 0 -1
2603 2 1.7834491512564124e+01 1.6090231692307018e+01 2.3412130172696102e+01 0 1 0
2554 1 1.8598868296619621e+01 2.0888605364675104e+01 2.3339154983869712e+01 0 0 0
2629 1 1.0061766069701982e+01 8.4277453670715641e+00 1.0956725009614567e+01 0 0 0
2305 1 1.9040852243732800e+01 2.8234439066512579e+01 5.1717527631221953e+00 0 -1 0
443 2 8.8066164569967285e+00 7.1153274807410547e+00 3.3144855791592311e+00 0 0 0
829 1 1.4846654074531013e+01 2.7217243180794792e+01 1.0464663130922752e+01 0 0 0
2375 2 3.8071141500380570e+00 2.3732216035247036e+00 6.3927795281878241e+00 0 1 1
994 1 4.7707788469234256e+00 1.0206149037204545e+01 2.7027572420541537e+00 0 1 0
2641 1 7.7155242777777939e+00 3.9183216356215347e+00 6.5148988440128077e+00 0 0 1
897 2 1.9843188821101343e+01 2.8521556951938184e+01 2.1145054121800229e+01 0 0 -1
318 2 2.2635095961640005e+01 2.8241919042958546e+01 2.5106819672815362e+01 0 -1 -1
725 2 6.5753218231065036e+00 4.3839413072758369e+00 3.2441480625070009e+00 0 0 1
2456 2 1.2885806455898825e+01 1.9887559145481912e+01 2.0771993943133604e+00 0 0 1
1672 1 1.6339012294687240e+01 2.9231587326630404e+01 9.1346839529754522e+00 0 -1 0
1617 2 1.4595720578978188e+01 2.1988267050909094e+01 1.2210367965838907e+01 0 -1 0
1117 1 2.3371717449966997e+01 2.8312108515842407e+01 2.0382605519826051e+01 0 0 -1
1737 2 1.6304751100984756e+01 1.3490618878524197e+01 9.0333629554660870e+00 0 0 0
1909 1 1.5208178044512309e+01 1.3393246766543818e+01 1.4904193249176783e+01 0 0 0
1682 2 5.6257045399004264e+00 6.7660853528579015e+00 8.2651836269103587e+00 0 0 0
368 2 1.4092478209634390e+01 1.2273814297200278e+01 1.1746578870572254e+01 0 0 -1
197 2 1.8254091240923564e+01 2.9780012745652062e+01 9.5751864120185690e+00 0 -1 0
759 2 2.0623824189098151e+01 2.8174143481846446e+01 6.0177007655867163e+00 0 -1 0
2576 2 5.4560561209781504e+00 4.3783900543906702e+00 8.6845108678109799e+00 0 1 0
444 2 9.5758120183352879e+00 6.5204975710399440e+00 4.4384966945960462e+00 0 0 0
2513 2 1.7946356744873146e+01 2.5303953058528897e+01 1.7340701059252396e+01 0 0 0
838 1 2.6591706265841772e+01 2.8204287797364330e+01 8.7953326869677113e+00 0 0 0
1681 1 6.3484817899761934e+00 6.0677637675689242e+00 8.1154492983050197e+00 0 0 0
2467 1 9.4013077612823786e+00 1.2031647999330609e+01 1.7281681667600481e+00 0 0 1
1596 2 1.7860980307290852e+01 2.0821532527816576e+01 1.8492610713895260e+01 0 0 0
1621 1 1.0238266796470725e+01 1.2140999288391670e+01 1.8801223655505467e+01 0 0 -1
1622 2 1.0431811394178094e+01 1.3120411365919139e+01 1.8723964902964312e+01 0 0 -1
1151 2 1.8306992190771247e+01 1.8627738602192892e+01 1.6421043922124660e+01 0 0 0
1691 2 1.3188567602481182e+01 2.2165206827146132e+01 6.0048500354226420e-01 0 -1 1
316 1 2.1896321439324431e+01 2.7953951977350133e+01 2.5674206067871445e+01 0 -1 -1
2612 2 1.8483916139746988e+01 2.6951847359070438e+01 1.1675636658826493e+01 0 0 1
2491 1 1.0754318672976643e+01 2.0226787079643373e+01 4.3140840789100521e+00 0 0 1
1733 2 9.0615560383079297e-01 4.6800076429713249e+00 5.6471469743373848e-01 0 1 0
1110 2 1.1278285151851769e+01 1.0250324413261144e+01 1.4638127332620888e+01 0 0 0
1876 1 1.1524110797888490e+01 7.7017358421805824e+00 2.2218580172296448e+01 0 0 0
2563 1 1.9982456848043071e+01 1.9083134070963080e+01 2.6075007929906228e+01 0 1 -1
2630 2 9.5276313018802696e+00 9.2993036598499650e+00 1.0982003615667052e+01 0 0 0
216 2 1.7271165956379470e+01 2.3977294005942472e+01 1.1915044445076411e+01 0 0 0
819 2 2.1107717684923699e+01 3.1014488332456544e+01 1.8285587519803371e+01 0 0 -1
373 1 7.9684548499320158e+00 8.9843205371057078e+00 3.7871543759207511e+00 0 0 0
1049 2 1.3415367300275641e+01 2.1636010201406144e+01 5.2567305697313884e+00 0 0 0
2512 1 1.8784468916840705e+01 2.5212965366025205e+01 1.7818262945484726e+01 0 0 0
214 1 1.7947858664608702e+01 2.3243846428001902e+01 1.2017555224087644e+01 0 0 0
1900 1 1.2103116825252823e+01 9.6028828308677063e+00 2.4954094634791254e+01 0 0 0
375 2 7.4476598539655825e+00 8.4505715000168919e+00 4.4937217836961842e+00 0 0 0
1668 2 6.0925148911438578e+00 1.2551443221231118e+01 1.3517534136018452e+00 0 0 1
2439 2 8.0865364805782800e+00 1.3867418504897540e+01 4.6935761849690101e+00 0 1 0
189 2 1.3116719469041341e+01 2.2007605970519137e+01 8.8603081661476644e+00 0 0 0
844 1 1.6297041129372168e+01 1.7058972925832567e+01 2.3939238421318571e+01 0 0 -1
187 1 1.2997359248581134e+01 2.2922834562921352e+01 8.5895015016653602e+00 0 0 0
1611 2 7.3503050062474848e+00 1.7698461378050265e+01 4.0158984629273471e+00 0 -1 0
314 2 1.4364421937671393e+01 1.9757427215188425e+01 1.5938917894335681e+01 0 0 -1
2602 1 1.8740594675772815e+01 1.6037069616812836e+01 2.3121901016331456e+01 0 1 0
1548 2 1.3940229921978624e+01 1.5966091070417146e+01 2.5593879353686262e+01 0 1 0
1560 2 1.2859769671982116e+01 2.8336030882244462e+01 2.1306627804886524e+00 0 0 1
1579 1 2.3944899088969279e+01 1.3072742778216714e+01 1.8586773539075075e+01 0 0 0
271 1 1.2628550654875863e+01 1.1721547798825103e+01 2.0133876285420811e+01 0 0 0
2469 2 9.8055451971068237e+00 1.1293904576337109e+01 2.2339214786173582e+00 0 0 1
1657 1 1.6349154440305966e+01 2.8074090564613929e+01 1.7836878338011388e+01 0 -1 0
385 1 2.0665627096099037e+01 1.6586664133744502e+01 2.6306233869211894e+01 0 0 -1
154 1 8.6517718957877001e+00 4.5750545572252053e+00 9.0559633958886447e+00 0 0 0
29 2 1.9250455020549179e+01 2.2302490605856608e+01 1.5030677619678350e+01 0 0 0
1152 2 1.8517464361759362e+01 1.8546355192106560e+01 1.7927460804585877e+01 0 0 0
625 1 1.1381130106589488e+01 6.9064511940554834e+00 1.5422446129843372e+00 0 0 0
1878 2 1.1922582787956291e+01 7.1761291258320847e+00 2.1455201291541989e+01 0 0 0
2437 1 8.3952868005910162e+00 1.3263185100905440e+01 3.9591390019780275e+00 0 1 0
1615 1 1.4310793448525310e+01 2.1539426136276138e+01 1.3025646362563057e+01 0 -1 0
920 2 2.2926793826543584e+01 2.3193903117861151e+01 2.0485399380722669e+01 0 0 -1
284 2 2.4947536709479497e+01 3.1696914791467908e+01 2.0813027369898030e+01 0 0 -1
900 2 1.4523991161138067e+01 2.6255905681885935e+01 1.9096292300978064e+01 0 0 0
820 1 9.5590334975752036e+00 1.8701880389032940e+01 2.3481009310885490e+00 0 0 0
2670 2 2.0749932940085920e+01 2.6021647339456756e+01 1.1683615344641673e+01 0 0 0
117 2 2.2405775916680966e+01 2.0793147475841604e+01 2.6206369158335171e+01 0 0 -1
2433 2 1.5327702425990275e+01 2.8738426427788433e+01 1.8947500536176790e+01 0 0 0
2492 2 1.0155091050767220e+01 2.0998064354452016e+01 4.4685042931051751e+00 0 0 1
1085 2 1.5782026097311402e+01 1.6102997427805210e+01 5.5842709704083271e+00 0 0 0
848 2 1.5348798866128824e+01 1.8619865566098301e+01 1.0039318034536839e+01 0 0 -1
273 2 1.3272492332280720e+01 1.0954132391969036e+01 2.0028835231859759e+01 0 0 0
1084 1 1.5089240405105063e+01 1.6633894390625876e+01 6.0885483150783442e+00 0 0 0
1910 2 1.5212211948674586e+01 1.4341579599707570e+01 1.4751365896328226e+01 0 0 0
1087 1 2.1596674485540284e+01 3.1330791092639881e+01 2.3702056865386119e+01 0 0 -1
360 2 1.6365583064656221e+01 2.6363120689336260e+01 2.2873666198437014e+01 0 0 0
196 1 1.9121696682403620e+01 3.0193449013943553e+01 9.8107899557291471e+00 0 -1 0
777 2 1.3532172535367215e+01 2.5601485398225911e+01 4.3295908489083610e+00 0 0 0
308 2 2.4731378662513087e+01 3.2292953033794177e+01 2.4724769428501972e+01 0 0 -1
309 2 2.5691667990476532e+01 3.1768245386439226e+01 2.3694516204185128e+01 0 0 -1
3003 2 1.0403831175678519e+01 6.9612903980985070e+00 7.3080934239016635e+00 0 1 0
1809 2 1.7039999605136316e+01 1.4681756852870981e+01 1.1529366440585433e+01 0 0 0
880 1 1.5792589475376982e+01 2.0820971453612188e+01 2.2688752350091200e+01 0 0 0
315 2 1.2949229860932512e+01 1.9267701882600196e+01 1.6217623604189448e+01 0 0 -1
283 1 2.4353906380628999e+01 3.2450324183808107e+01 2.1153527861489735e+01 0 0 -1
386 2 2.0739290009946657e+01 1.6251156156117606e+01 2.5401904360429526e+01 0 0 -1
2376 2 4.2103998358180368e+00 3.5777396000056383e+00 7.1332231406600606e+00 0 1 1
726 2 5.4837471541401577e+00 4.3136076440068081e+00 4.2818281190249907e+00 0 0 1
1545 2 8.4179350991427562e+00 8.9763071956653011e+00 1.4498877988038581e+01 0 0 0