LAMMPS data file via write_data, version 8 Apr 2021, timestep = 4428000

1008 atoms
2 atom types

0.10597662895150754 18.377423371049062 xlo xhi
0.12121817330690345 22.295981826691463 ylo yhi
0.22088262921053126 19.169299370778454 zlo zhi
0.016967755757768665 -6.743771411700769 -0.14055704921685858 xy xz yz

Masses

1 16
2 2

Atoms # atomic

1 1 1.5944739603930256 4.0435339126010446 2.517461904397428 0 0 0
2 2 2.293116545663671 4.608410369085354 2.9189859717172495 0 0 0
3 2 1.3459990547069682 3.477141724852557 3.215764651461542 0 0 0
4 1 2.8727808474046204 5.993120063227999 3.9754401167683224 0 0 0
5 2 3.7311045779596292 5.534341073952616 4.114610995013953 0 0 0
6 2 3.057641513104654 6.866249329858843 3.5662114941963856 0 0 0
10 1 0.7373940835976385 3.061045902799734 4.841665637366347 0 0 0
11 2 0.661201239936104 3.529873004824878 5.673769416785237 0 0 0
12 2 0.01110954617577821 2.395592633128425 4.8307050496316135 0 0 0
14 2 1.9079251551519365 3.578295206274938 0.985939558611343 0 0 0
16 1 3.1552736193954347 0.9242847877324095 2.261556941035864 0 0 0
18 2 2.357649675545347 1.1145931210840647 2.686827855911251 0 0 0
19 1 0.1324314974864198 0.6085342796276214 2.776995388463092 0 0 0
24 2 -1.149160283447269 1.0189188038599029 7.161334604013267 0 0 0
28 1 1.031165473007895 1.896937880019372 9.118741338150857 0 0 0
30 2 0.6564944862010956 1.252205063263095 8.517822768703914 0 0 0
31 1 0.48549521433174414 6.835990943382746 4.659867456266171 0 0 0
32 2 1.3076086308839423 6.4982901040857 4.362998576083815 0 0 0
33 2 0.2860871368553728 7.5286797524335265 4.0284718604624 0 0 0
36 2 -0.28777516173553425 7.3161395550142325 8.684384034135023 0 0 0
37 1 -1.7262037594801054 4.314468550831679 7.632537933271021 0 0 0
38 2 -0.7412290363721821 4.434112341489445 7.546503968223684 0 0 0
39 2 -1.6728446196451479 3.8395668700636323 8.489904004851816 0 0 0
40 1 0.9408435770495912 4.057537170570633 7.397213130195267 0 0 0
41 2 1.3876695870633338 4.918347865490135 7.537804950787207 0 0 0
42 2 1.1751245242346677 3.5088912794628118 8.166832850734878 0 0 0
43 1 3.966855850117989 3.341493514664631 7.163966494863886 0 0 0
44 2 4.361324533652098 3.8862684779900247 6.473037214182659 0 0 0
45 2 3.294220941965834 2.794925246144747 6.748775378369191 0 0 0
46 1 2.6209943355146876 1.6253207983685964 5.747727204169922 0 0 0
48 2 1.9042552266192212 2.124552018606328 5.346585157570037 0 0 0
49 1 5.621264335627497 1.628973646800375 8.82282440891362 0 0 0
50 2 5.346250554672297 2.3774192703385943 8.192675697625603 0 0 0
52 1 5.139557769223185 4.2736400053808055 4.848724275426357 0 0 0
53 2 6.002340155602701 4.608648292957129 5.030683503343718 0 0 0
54 2 5.255243407271454 3.7091460967349987 4.053296904784599 0 0 0
57 2 3.999153434065027 4.16054632211662 9.048731153096663 0 0 0
58 1 2.415104195622274 6.3803083769908335 7.400553698627888 0 0 0
59 2 3.2877688636421696 6.198128594632272 7.006886571311008 0 0 0
60 2 2.6547956646304844 6.727381107891298 8.25580882490018 0 0 0
61 1 5.49888111715463 6.534149882110295 6.9519009266392215 0 0 0
62 2 5.638275339759058 7.313356058489473 7.578928160191442 0 0 0
63 2 6.2414172194133775 5.9087569372191355 7.0649817294674015 0 0 0
64 1 6.21787726007385 6.740428882079143 2.694809226039095 0 0 0
65 2 6.908026284430902 6.288945228155715 3.108396533734266 0 0 0
66 2 5.773204567800643 7.309328884826564 3.4227535611831925 0 0 0
67 1 7.733481108219225 5.249992162408327 4.3453513631354985 0 0 0
68 2 7.985973520813727 4.433737889208922 3.8950564147188755 0 0 0
69 2 8.434524686974552 5.632924656578753 4.8771337171506355 0 0 0
70 1 5.0207558594117785 5.241908709993666 0.7454477329459342 0 0 0
71 2 5.444539066905038 5.876036316380673 1.4208950813782157 0 0 0
75 2 4.464276853400474 1.2178295870914895 4.709667428140351 0 0 0
79 1 7.963373510587259 2.8441800366892687 2.240267248598025 0 0 0
80 2 8.082731920160398 3.3566399912413085 1.42707414319441 0 0 0
81 2 7.010134603716943 2.730495597798222 2.3261031351052797 0 0 0
82 1 4.95284837002309 3.1552371302067117 2.348767669132566 0 0 0
83 2 4.861787871604736 3.896558604507058 1.7229966650897495 0 0 0
84 2 4.204867601191943 2.5402087882885973 2.3333307274670587 0 0 0
91 1 9.234530733245197 6.086982961312134 1.234505840754037 0 0 0
104 2 8.788185920768516 1.4257644648768784 2.7732100456291473 0 0 0
109 1 7.207666195573242 2.409329596898405 5.890377650222635 0 0 0
110 2 6.319509025812235 2.109708730277979 5.590670292365201 0 0 0
111 2 7.031385988085018 3.2957749306931405 6.267894037663336 0 0 0
121 1 7.517262902475755 4.635453778722982 7.493183986729497 0 0 0
123 2 7.430417127047198 4.366106679241447 8.471613036719685 0 0 0
153 2 -0.70160503826397 5.667005521403668 4.4180580130760925 0 0 0
180 2 -0.002094897353889527 10.080710075253737 4.805023153080729 0 0 0
184 1 3.2481614881305356 8.385829185610119 2.57493595290444 0 0 0
185 2 3.5818693653825133 7.882281762465728 1.853249178613633 0 0 0
186 2 2.234961181755752 8.513118327458539 2.521465358669138 0 0 0
187 1 0.690660287414709 8.509042180712465 2.513362610410802 0 0 0
189 2 0.4433813176692168 7.750190617270522 1.921078670472957 0 0 0
190 1 -0.12623351382538206 8.002595594162788 7.244559017744454 0 0 0
191 2 0.3205267790356298 7.576513618992843 6.52375775778265 0 0 0
192 2 -0.7716413881016378 8.512625305380283 6.686049250034478 0 0 0
198 2 0.91777882647162 8.885344735129063 8.314762163579344 0 0 0
214 1 2.877715370430156 9.065281758066828 6.013809785307636 0 0 0
215 2 2.5221426902501194 8.280848752341782 6.464398088046632 0 0 0
216 2 2.0994745258632164 9.51394941820046 5.572746921643237 0 0 0
217 1 5.711444755427026 8.859277639099199 8.503780997484322 0 0 0
218 2 5.16659843809503 9.506304249681142 7.955219677104716 0 0 0
241 1 5.434232835053264 8.210704316601662 4.807803669787001 0 0 0
242 2 5.535484741737137 7.553824196498865 5.592994635402924 0 0 0
243 2 4.552157474964909 8.610782847129942 4.9342532501069245 0 0 0
245 2 6.586944429697629 7.659099352372525 1.4090575869662696 0 0 0
247 1 7.725652143707439 10.14341267269757 2.362411058036081 0 0 0
249 2 6.72827371063765 10.230779919176896 2.529756343472018 0 0 0
250 1 5.034599549811031 10.373995732581449 2.917439260187491 0 0 0
252 2 4.296483315816851 9.710639200950085 2.8665547728605834 0 0 0
272 2 9.14168898010898 8.959066560534506 2.535448421617925 0 0 0
273 2 9.492092545655169 7.393920264668488 2.1023509697634832 0 0 0
277 1 7.62096264011499 9.787392666463425 5.529468268284038 0 0 0
278 2 6.786849604952222 9.315752590559917 5.244720177598397 0 0 0
271 1 9.643304767885983 8.102905308057018 2.7759458530342904 0 0 0
108 2 8.050340458376667 1.035384942820924 6.930381906140732 0 0 0
122 2 8.463055592615708 4.756728683991601 7.359244054312631 0 0 0
276 2 8.272290178133238 8.732082465595964 6.918036032191961 0 0 0
213 2 3.538465720494001 10.466306927838094 7.147054678578336 0 0 0
103 1 9.389012806429777 0.7019300200325369 2.9446265997534287 0 0 0
96 2 8.972154874259175 2.6031256218429166 5.066267972130312 0 0 0
274 1 8.87060380014681 8.0317505174092 7.252711148041608 0 0 0
264 2 9.244674079291213 10.021918434181481 4.954181246696123 0 0 0
47 2 2.3321371376165145 0.8628324021641534 6.27570228780187 0 0 0
93 2 9.701287979216652 5.3874578293488025 1.7990319778377013 0 0 0
196 1 1.3347402832864648 9.657839016868033 8.79416456261855 0 0 0
9 2 0.5393537179925815 5.536424174069322 1.7983031730177221 0 0 0
178 1 0.8148227022376113 10.539543815639956 4.847848537771533 0 0 0
188 2 -0.06593427299184897 9.076719925209666 2.3887816673240856 0 0 0
117 2 9.637331164182859 7.284763757020926 4.099653386531805 0 0 0
115 1 9.809200986681395 6.880453205882844 4.99742922279226 0 0 0
94 1 9.870261062730771 2.908678037063769 4.877116546746202 0 0 0
98 2 11.116855216789295 3.137198018053256 0.912419553502109 0 0 0
275 2 9.151182079141565 7.461251346621692 6.488108514290899 0 0 0
20 2 -0.435908359979928 1.4052068716607258 2.777072851214034 0 0 0
73 1 5.41269437533065 0.9564084511757376 4.801227213575924 0 0 0
279 2 7.438599370894392 10.756096141927273 5.779593579371854 0 0 0
87 2 10.52412828339773 3.5567016794403212 3.143970024165406 0 0 0
85 1 10.93169163680334 4.1866192030071625 2.455654977207934 0 0 0
120 2 8.395402852509655 7.2854204638758 8.814147101178918 0 0 0
95 2 10.026766833098716 3.633928388373577 5.543115449790327 0 0 0
262 1 10.138097923894863 10.348245308089396 4.7042075417127585 0 0 0
116 2 10.743335088305148 6.638913711173735 4.871230521664188 0 0 0
270 2 11.472211364875626 8.603253776381047 2.5096635765051025 0 0 0
114 2 9.684098513848886 1.8636286750933113 8.304686813096152 0 0 0
102 2 10.98549697612876 0.8997883539707591 2.6845222353210874 0 0 0
86 2 11.367053636648068 4.895585812758361 3.0132164555952112 0 0 0
124 1 10.222255972193071 4.525236152944328 7.121502298448137 0 0 0
282 2 9.837548569398699 8.87015952128984 8.090443873157522 0 0 0
269 2 12.417042331988897 7.887069848035241 1.5317652089339027 0 0 0
100 1 11.942616859765426 0.8314556209165554 2.5573872180600916 0 0 0
132 2 11.024621223174343 1.5950983540263246 5.327914753668205 0 0 0
300 2 11.244746711963145 8.931620257285372 5.3015056608965025 0 0 0
126 2 10.390174359591708 3.783843924968263 7.755292867321827 0 0 0
268 1 12.441670365873396 8.425419875413873 2.3889922360636895 0 0 0
112 1 10.325698026965327 2.4460614693573377 8.719612281856167 0 0 0
125 2 11.011274608883836 5.113024485006142 7.176110950012804 0 0 0
280 1 10.39545920249075 9.554644216021522 8.66980663521031 0 0 0
88 1 12.276600337545974 5.907467898373708 3.8090454131683495 0 0 0
90 2 12.657644344433024 6.760588189839454 3.494877623467167 0 0 0
130 1 11.853347246186857 1.075726516966661 5.678860108766772 0 0 0
131 2 11.552545897912479 0.269347443290199 6.117477192734348 0 0 0
298 1 12.100651158809747 8.71011882066795 5.843918748850274 0 0 0
299 2 11.873566873787524 7.874690807733691 6.382015565828614 0 0 0
336 2 13.702238074310662 9.681584147075089 2.5604072324578824 0 0 0
154 1 14.263256672446431 5.082852471862114 0.944283399193958 0 0 0
168 2 12.993207277320332 2.1814230597482465 2.7862553787246465 0 0 0
89 2 12.97652555288765 5.313086167804804 4.17518235965866 0 0 0
142 1 12.237150517813415 6.44764349604356 7.0951415788669046 0 0 0
144 2 12.297115298524876 6.874573434390679 8.001273005740641 0 0 0
167 2 13.825605684481525 3.216291068957308 1.9669332956073458 0 0 0
155 2 14.76971282428595 5.7365777452627755 1.4156139056047852 0 0 0
334 1 14.395320982953484 10.331806283077887 2.6660664647704717 0 0 0
166 1 13.845895547902943 2.632922666982069 2.710105136728058 0 0 0
129 2 13.178631262171479 2.3655565609800115 6.5934096803406765 0 0 0
143 2 13.15652662649856 6.188649162909637 6.9905867365870415 0 0 0
7 1 0.19403446985739092 6.234216193858058 1.2106012817422143 0 0 0
246 2 7.386784024367145 8.512239033975321 0.28581374278779986 0 0 1
72 2 4.203644972707023 5.666536982815259 0.478566687803551 0 0 0
327 2 13.796570725742004 8.183808517480193 5.307649284308924 0 0 0
211 1 4.335031450349897 10.970315559825488 7.3571851111814635 0 0 0
34 1 -0.3913295244524868 6.724707431433651 9.455567420200321 0 0 0
832 1 12.641797185599152 7.94702412869595 9.509793357329524 0 0 0
138 2 14.180422571610027 3.5544375203203162 4.088712524049751 0 0 0
197 2 2.1206720469305047 9.325743136703721 9.290390002070247 0 0 0
582 2 4.140581465019759 0.9754837645667088 9.488690895762032 0 0 0
22 1 -0.5663764045584954 0.30157230306435634 7.491404048113512 0 0 0
29 2 1.9538223677985782 1.5371303528183062 9.492194996327692 0 0 0
335 2 14.112564836091542 11.084658245509232 2.0865057130544225 0 0 0
137 2 15.227794953968704 4.693911481468017 4.547294344757351 0 0 0
161 2 15.579275214306634 1.0561980870921028 1.1600320454780724 0 0 0
139 1 13.165835423757725 4.401216385424765 9.458248329813648 0 0 0
193 1 -1.6130637031698185 9.660616271277675 5.836916603676461 0 0 0
135 2 -2.546014463067875 1.8204439927933043 9.201366319929791 0 0 0
152 2 -1.043518244655129 4.410536508166983 3.6282915272425202 1 0 0
77 2 6.759346812319787 0.7733951128052257 1.100977894842704 0 0 0
580 1 3.289762519191552 0.5695299934868217 9.569037883976446 0 0 0
539 2 1.8833392036571681 6.573419170116667 0.2767406977824559 0 0 0
771 2 8.627304971923602 10.082505231715956 9.335198936191228 0 0 0
92 2 8.545238834111268 5.647020700713253 0.695013711176926 0 0 0
160 1 15.624611591489888 1.3597565986782707 0.2288203706351321 0 0 0
133 1 14.940625948300402 1.4650781793258114 8.75551133111603 0 0 0
156 2 13.502790823434752 5.602161185515232 0.5812463891907534 0 0 0
219 2 6.442322459720126 9.429856488699507 8.74413675354123 0 0 0
149 2 16.009908121142765 6.390199215820669 3.1915992513368248 0 0 0
330 2 16.579800485099256 8.703819558018143 0.302709623535265 0 0 1
27 2 -1.9653004278264612 2.9205199809840807 6.474827112677495 0 0 0
195 2 -1.831630844018966 10.406168687879786 6.454922497241906 0 0 0
140 2 12.195841018511603 4.591350997719108 9.484347916372204 0 0 0
769 1 7.682050376654428 10.451285517799219 9.308951347336972 0 0 0
106 1 8.700661538392295 0.4145528178077002 7.360386097508328 0 0 0
486 2 14.678378927380292 0.2993780823260241 3.2184090810432515 0 0 0
294 2 10.565454211114364 10.92596532593654 7.566075288515213 0 0 0
159 2 13.451762727681475 0.6686680852211171 5.143876103609693 0 0 0
297 2 13.023568667749874 9.896395616669993 6.92543129890883 0 0 0
113 2 10.952428332482988 1.8722804574295062 9.168387714849848 0 0 0
332 2 16.88558021047902 10.990532822781125 1.4226173578473196 0 0 0
165 2 15.951933943417862 2.9080391110918207 2.579768825644577 0 0 0
127 1 13.50614933300635 3.160861289401727 7.0338549053326735 0 0 0
329 2 15.62903662665861 8.063182976096387 1.3366895243504289 0 0 0
295 1 13.737259213744005 10.499115002218296 7.271615378406153 0 0 0
128 2 13.969684295059755 3.6178240097766623 6.283901622465512 0 0 0
150 2 14.981283302228045 7.503201965444553 3.4452769934074623 0 0 0
136 1 14.31681359019272 4.318600485683443 4.717617524640666 0 0 0
148 1 15.502153076574055 7.08054392017728 2.68992353044829 0 0 0
325 1 14.71122010230672 8.042645617035804 4.9636471459881095 0 0 0
25 1 -1.8288909979164711 2.0289928805381447 6.078541269727293 0 0 0
163 1 16.836897341291262 3.0565790022804276 2.3789796930077687 0 0 0
74 2 5.404770638994633 0.3134619050200571 5.544451003023114 0 0 0
51 2 6.341288162424711 1.956675978064798 9.332678805570641 0 0 0
266 2 10.72045694910019 10.775774788597786 0.8497614389323925 0 0 0
302 2 14.939255646360369 9.575358599415445 8.269130196379015 0 0 0
157 1 14.402954189802186 0.5993462992784189 4.908834947187864 0 0 0
182 2 2.468552092176245 11.037883232071488 1.2927532607484316 0 0 0
244 1 6.464293443441366 8.20826480245253 0.5976553898080407 0 0 0
303 2 -2.279897525519342 9.097206078873153 9.340048315964859 0 0 0
248 2 7.95586371392762 10.799936172464912 1.7163837829557158 0 0 0
326 2 15.022412716938936 7.372347221781541 5.624354344500035 0 0 0
331 1 17.07752257481349 10.438080009890571 2.233170731916757 0 0 0
301 1 15.127138669001624 8.817995971393236 8.882578353986208 0 0 0
402 2 5.959263081110341 0.20709407068038332 3.317333854362194 0 0 0
141 2 13.424660451404627 4.095735124791601 8.525389407795116 0 0 0
333 2 16.17473229938741 10.183615772073509 2.497143871885362 0 0 0
151 1 16.789897849334565 5.120930049293639 4.102641098924226 0 0 0
164 2 16.85177449488656 3.4415470265034127 1.478470703613681 0 0 0
8 2 17.794658429962112 5.70695272979277 0.7031572487359181 0 0 0
644 2 15.938699230339372 4.839809978551112 0.3355752204057299 0 0 0
622 1 12.019641440396367 6.721494072775564 0.24007850942511352 0 0 1
398 2 5.711832471648798 0.15098014208796062 7.807758185102418 0 1 0
263 2 10.382528128887754 10.93986085174767 5.47491185484713 0 0 0
687 2 -0.3358991959703027 10.221230158020093 9.649531880642714 0 0 0
26 2 15.61434967300343 1.6908559378613506 5.702964410938915 0 0 0
17 2 3.023422835038878 0.42185167181066535 1.4315864009074206 0 0 0
134 2 14.545752029309421 2.1119751787038337 8.126814443607621 0 0 0
194 2 15.84797764282152 9.389015396439206 5.439143834794524 0 0 0
666 2 13.315021662151949 1.1791979175909375 9.501117010329276 0 0 0
147 2 15.566929783270608 6.037589636052845 7.602818207391781 0 0 0
181 1 2.291888781693091 10.74418192401755 0.39519263493873047 0 0 0
101 2 12.054625776771541 0.45731243305833386 1.686559714019815 0 0 0
296 2 13.855335292977069 11.101427786221794 6.509041607872938 0 0 0
328 1 15.653332011594127 8.37122063566795 0.4100200906559102 0 0 0
281 2 11.27651179546801 9.101058613170332 8.878918230759423 0 0 0
146 2 15.008076585668825 7.385015182565374 7.7935646533989935 0 0 0
145 1 14.948194588602842 6.635832494612087 7.174229986224837 0 0 0
35 2 -1.3051600625559268 6.4461460006584455 9.50897088567251 0 0 0
834 2 13.544859741411775 8.293500081352661 9.299847009305987 0 0 0
251 2 4.8241287155977055 11.128716950783913 2.2915423347224992 0 0 0
118 1 8.60902209012575 6.917493846620961 9.68701114405932 0 0 0
682 1 -2.529608879840089 10.574907582448924 14.387113884508992 0 0 0
805 1 11.598860075909025 8.961498206070134 18.279116678234058 0 0 0
607 1 6.368286394502663 0.7552401983112667 12.307994042694576 0 0 0
559 1 0.7671414330566668 4.125295790460299 18.898247907838375 0 0 0
990 2 11.450352625446722 0.3407557743906006 12.961099919331103 0 0 0
576 2 0.7055784083261395 5.389189364409546 10.197266681633183 0 0 0
831 2 10.51780316523334 8.497649075980316 14.557446140102611 0 0 0
76 1 -0.1307493390622249 0.9272089977579311 19.128503406818528 0 0 -1
643 1 10.121657458515237 4.493806401980878 18.976051705406164 0 0 0
783 2 3.6393778472403584 10.378274228572126 15.36714578892016 0 0 0
699 2 12.762930348793478 10.641429260499901 15.58290757511228 -1 0 0
750 2 4.33168504224809 8.260972623544932 9.88363675014314 0 0 0
661 1 10.785212021696832 0.8613795977627662 14.47978838103155 0 0 0
780 2 4.885984957554424 8.460006850987464 16.54431866594267 0 0 0
597 2 6.726512600416443 5.290718051238386 11.488681070354447 0 0 0
660 2 10.055578535195762 5.875905401215525 9.949031526410826 0 0 0
726 2 1.7423138255615567 11.073642941732144 13.5636544673438 0 0 0
717 2 0.21694509530091166 10.270875916838168 16.152974778997145 0 0 0
748 1 3.4615871763114128 7.8599635817914075 9.72874036763893 0 0 0
802 1 8.89193079763504 9.103411259099195 15.599824298045608 0 0 0
609 2 6.077343358001675 0.18059956001664135 11.557475371851762 0 0 0
601 1 7.739134666546655 3.197315679326086 10.080875543910963 0 0 0
603 2 8.681462356197624 2.9601399428716726 9.832278699544114 0 0 0
806 2 11.203268322903948 9.553777490366349 17.582099193501723 0 0 0
183 2 -3.4836573561054185 10.408691777952539 19.059284718312423 0 0 0
665 2 12.308867683028545 0.7455520134941953 10.676570196040066 0 0 0
267 2 5.0220100097603995 10.024226567231853 18.815685915575028 0 0 0
752 2 4.707471359684959 10.605097874972039 11.160730079448625 0 0 0
804 2 8.152443842619192 9.349118341540533 15.009064043386866 0 0 0
505 1 -2.1131210751037615 4.023857866548051 12.272646942068688 0 0 0
506 2 -1.3739934590182035 4.584875801901135 12.690912950132155 0 0 0
507 2 -2.3803433676411627 3.482814329779945 13.012184922619936 0 0 0
508 1 -0.513793053869801 5.668794157202692 13.614191487208421 0 0 0
509 2 0.2839852583131379 5.219615636393001 13.899708558546047 0 0 0
510 2 -0.2691652892215173 6.342276395561073 12.98111232008074 0 0 0
511 1 -3.2528096381663225 6.105147638587662 10.460161328990264 0 0 0
555 2 3.0406634993786588 1.9566018289464977 18.185373037744395 0 0 0
513 2 -2.944475229950549 5.360852138707204 11.025463532517735 0 0 0
514 1 -2.7128963021820742 2.7926118815336567 14.551914011991741 0 0 0
515 2 -2.5823692857046847 3.630856377384202 15.061399380704598 0 0 0
516 2 -3.6740386354691377 2.494394737804853 14.521410858853239 0 0 0
779 2 5.839100184550581 7.296799072274175 16.11884053570275 0 0 0
518 2 -1.5251431680652021 3.2080145319179194 10.790560761441704 0 0 0
611 2 5.688526526283789 0.08843920557057688 16.136674474717527 0 1 0
520 1 -0.32527889923797537 0.9239681871428883 12.190286044382235 0 0 0
522 2 -1.2738452273057435 1.2074237747705765 12.182099058278913 0 0 0
13 1 -4.784583239340562 3.312456194160226 18.952298659284438 0 0 -1
524 2 -3.7618907324418656 1.7137483371284936 11.92170835946917 0 0 0
829 1 11.404090470888676 8.056722683493723 14.385981875209984 0 0 0
528 2 -4.471174775994551 0.8992947362493722 16.41895786256147 0 0 0
529 1 -5.21371264343667 2.21521088825491 15.264192258855095 0 0 0
530 2 12.299051513226894 1.8799627068521547 14.784687159425362 0 0 0
531 2 12.916263512167976 3.1513245190572783 15.461450224018977 -1 0 0
532 1 -2.2714087482936214 2.224316801078413 18.146695599830654 0 0 0
56 2 3.253735981000332 4.685881216127845 10.189819529623529 0 0 0
534 2 -2.767674160626105 1.6161511448574264 17.58222321915591 0 0 0
535 1 -2.881930180908378 6.652350029515973 14.428430593005967 0 0 0
536 2 -2.0333461859424977 6.227711320088203 14.487994042082605 0 0 0
537 2 -2.7915646048077774 7.121305338519013 13.55259722413434 0 0 0
873 2 -2.9762688421142216 0.173591617945003 13.822889979216031 0 1 0
637 1 11.700690371524384 1.4057141300678693 18.12393324877092 0 0 0
540 2 -3.8337047994384847 7.120183765814135 18.254043591256618 0 0 0
541 1 -4.802772671360193 4.806591384035834 16.677001581019034 0 0 0
542 2 -3.8516816258261684 4.959960969824555 16.607985120626875 0 0 0
543 2 -4.727493891497943 4.490679351173166 17.621539311536853 0 0 0
544 1 -2.10290963920532 4.6361172116571865 16.715900367524824 0 0 0
545 2 -1.446055393129161 5.311637408673931 17.004944237768846 0 0 0
546 2 -1.9561216527772263 3.894778238391101 17.323365760505474 0 0 0
547 1 0.9760008345639133 3.206060239485739 16.500804222044092 0 0 0
548 2 1.2899814298256822 3.7641796457974794 15.722588867833254 0 0 0
549 2 0.28204884054875073 2.6405963384775335 16.08076413043713 0 0 0
550 1 -0.5939517102385358 1.4014178817032348 15.492672077526352 0 0 0
782 2 3.1950464181574554 9.005562083921072 14.971782353255945 0 0 0
552 2 -1.5036705046975782 1.7336323308411368 15.18889997029484 0 0 0
553 1 2.3105633565096824 1.446962699179773 17.723762963814366 0 0 0
554 2 1.9414780208361047 2.0884828721578312 17.07343312018641 0 0 0
801 2 9.658169853459036 10.27110531706456 16.540684743684537 0 0 0
556 1 1.7347279975443404 4.421125633178168 14.433548541307637 0 0 0
557 2 2.6238880013270203 4.7944755797428815 14.453186576708697 0 0 0
558 2 1.6421264678136478 3.8851637194590167 13.607234651232632 0 0 0
561 2 0.8446553009035828 3.7968700420726407 17.99591330024962 0 0 0
562 1 -0.37130553764942864 6.64414489166029 17.1443554879604 0 0 0
563 2 0.5212509857736425 6.282888043439284 17.194583315936047 0 0 0
564 2 -0.4214682288943106 7.2020621452701015 17.961533109387453 0 0 0
565 1 2.2654349787513026 6.505667966750007 16.744246516229875 0 0 0
566 2 2.38325022563877 7.26039194337487 17.3506226790687 0 0 0
567 2 3.0306105179269567 5.903832535780614 16.792705544014478 0 0 0
568 1 2.6369707944257064 6.825124155021872 12.25060450386257 0 0 0
569 2 3.386463019537331 6.247206411330155 12.668980096473494 0 0 0
570 2 2.1736164144583707 7.18385241354953 13.009844557133489 0 0 0
571 1 4.192414023483327 5.134182149798583 13.330487926762677 0 0 0
572 2 4.3218210674375666 4.333297264626883 12.806426056494267 0 0 0
573 2 5.062076156495206 5.261373517012395 13.794340737968009 0 0 0
574 1 1.4344121360628286 4.987920538395968 10.779120200850334 0 0 0
575 2 1.7938813374182594 5.753895253843673 11.30707442806784 0 0 0
610 1 5.299124731442852 0.51021020699134 16.935198668056355 0 0 0
517 1 -1.282741398371246 2.875848803182812 9.861475799551451 0 0 0
807 2 -5.988485722344682 9.467016633086155 18.74832227125826 0 0 0
579 2 1.178862294495531 0.8726829487653248 14.800741250480764 0 0 0
162 2 9.849841552474247 1.2762361946669516 18.95984007537681 0 0 0
583 1 4.347585580601524 2.7412217341830516 12.049564352334432 0 0 0
584 2 4.283071506147805 3.233190986074104 11.266044048261959 0 0 0
585 2 3.416923515733217 2.506033803394947 12.170323379921632 0 0 0
586 1 1.433490947084569 2.9779923564764954 12.334420379622857 0 0 0
587 2 1.2927713200895523 3.6431864038514923 11.6660540804321 0 0 0
588 2 0.8128708379262162 2.210106086167755 12.315054571963861 0 0 0
589 1 7.5743170940811035 4.183433330239234 12.40213650298879 0 0 0
590 2 8.10322031876239 4.97519156918207 12.792724026963182 0 0 0
591 2 7.056422961172287 3.789820350124324 13.149989391973445 0 0 0
592 1 8.816360651589694 6.272216187033595 13.432190401184931 0 0 0
593 2 9.657768345542259 5.9752981316679525 13.84411340416333 0 0 0
594 2 8.96833035901809 7.146308765329527 13.001495099721604 0 0 0
595 1 6.358349364179508 5.88130754620214 10.788101611734165 0 0 0
596 2 5.679698535258676 5.340996266642207 10.363637364566998 0 0 0
526 1 -3.8486861464965685 0.3276400320274163 16.880100730212348 0 0 0
598 1 6.379748553077994 3.187283037736794 14.715070536427438 0 0 0
599 2 6.648230720268514 3.795266817754461 15.532395213824499 0 0 0
600 2 5.477336393254318 2.8074928379892756 14.842198670485127 0 0 0
119 2 7.770779673814369 6.4888343567370965 9.959193372918127 0 0 0
602 2 7.776632158395439 3.355430668747375 11.063032031584825 0 0 0
604 1 9.100555239716265 0.8303748674364083 12.08209853415379 0 0 0
723 2 2.757974270320591 9.078603809543269 18.55486607168307 0 0 0
606 2 8.250976146293414 1.06484916487777 12.450160203092052 0 0 0
639 2 -5.865167363410653 1.4887036474088144 18.74041490598883 0 0 0
608 2 5.7240315636472845 1.5151336681343117 12.435771819455143 0 0 0
624 2 5.373465727401753 7.0328028578291875 18.28311761887681 0 0 0
830 2 11.437300236426713 7.361142649288706 15.131999203197157 0 0 0
612 2 4.6183660165239715 1.0925286368605316 16.48931066719863 0 0 0
613 1 4.011967113954526 2.3166355957585756 15.477858333433435 0 0 0
614 2 3.188187225516556 1.8609877175618512 15.139798485247969 0 0 0
615 2 3.6467283627011677 3.114920863675507 15.829563302473199 0 0 0
616 1 6.858649389894057 2.4347957093190815 18.037898587589417 0 0 0
803 2 8.626081766460834 8.352983002836504 16.161684412031985 0 0 0
618 2 6.3799463580950055 1.6556707812147173 17.566826194852432 0 0 0
619 1 6.202153754603142 6.664385811441191 14.491468700799066 0 0 0
620 2 7.025427435019855 6.256755859514723 14.427238214882275 0 0 0
621 2 6.0970701322759435 7.356739406702073 13.792223944562434 0 0 0
55 1 4.169409172367392 4.52278941423401 9.95466654679054 0 0 0
625 1 4.116749240261341 4.706515102587371 16.824509390304424 0 0 0
626 2 5.059945969800246 4.964417310530705 16.65412321359626 0 0 0
627 2 4.102461835593196 4.477219979703308 17.753570741717972 0 0 0
628 1 6.95055834331016 4.6981969300995745 16.791190485911038 0 0 0
629 2 7.752292338768885 5.264845173049985 16.78292824352913 0 0 0
630 2 7.056424270493858 3.8855869753288785 17.412814696432317 0 0 0
631 1 9.890733131503644 3.8050774047687304 16.466802789219013 0 0 0
632 2 10.141697245598893 4.1958817243414535 15.612474929255596 0 0 0
633 2 9.455648747096363 2.9441961593800605 16.25712543926089 0 0 0
634 1 8.435983142197406 1.5386741811553166 15.222493723052983 0 0 0
523 1 -3.0074687182721527 1.1085831623440687 12.106801665138798 0 0 0
636 2 7.667257223887546 2.107212128058491 15.13385121128235 0 0 0
836 2 13.6555437065267 11.02727961261972 11.123629377204356 0 0 0
638 2 11.657302949553443 2.3158885625686874 17.688789868062543 0 0 0
785 2 7.6542350948607 9.322113753416913 18.89678748396354 0 0 0
640 1 10.782789941398258 4.595399483220466 14.06522030898711 0 0 0
641 2 11.682948141171913 4.941728756915449 13.900853223714309 0 0 0
642 2 10.683875650870608 3.963742524260937 13.359860323968139 0 0 0
645 2 10.055387277224344 4.473355279811515 18.026896568264604 0 0 0
646 1 8.546946665672241 6.908987587011709 17.090833281755025 0 0 0
647 2 9.440649841963388 6.72444205177643 16.75879439483216 0 0 0
648 2 8.698816051867885 7.271253600654403 17.93794572081821 0 0 0
649 1 11.629940193996168 6.699573600378784 16.605731475052345 0 0 0
650 2 11.699315970151469 7.394343206805684 17.31727215998303 0 0 0
651 2 12.417345790484212 6.120318588473991 16.78250792862442 0 0 0
652 1 12.057260343965078 7.083697758937211 11.951974051975077 0 0 0
653 2 12.771701940826514 6.473032834938644 12.16982110553518 0 0 0
654 2 11.692844908550768 7.377527279452443 12.816996011074066 0 0 0
655 1 13.312760547679487 5.1516947685429475 13.414734371379813 0 0 0
656 2 13.49960159685594 4.450889675805328 12.718578026285028 0 0 0
657 2 -4.127111522766502 5.665762750031648 13.650383282945345 0 0 0
658 1 10.716865179509817 5.216015082080917 10.266061029843998 0 0 0
659 2 11.183939282478061 5.699477625199721 10.979280580850814 0 0 0
799 1 10.418130405020465 10.726846282385951 16.941108536798314 0 0 0
533 2 -1.514985380603395 1.7609133588173649 18.545062840676447 0 0 0
838 1 10.718261420209906 10.329539710001423 12.555764093635704 0 0 0
663 2 9.921768219937917 1.2296326430451918 14.655781612906647 0 0 0
835 1 13.66625598605557 10.397978401426162 11.88477418701846 0 0 0
667 1 13.469275925619703 3.073257694096352 11.650304436932997 0 0 0
668 2 13.468605058042424 3.470583902152784 10.680448694503035 0 0 0
669 2 12.627149247795604 2.6135430305225893 11.652545220026731 0 0 0
670 1 10.82851053966285 2.8329466682891304 11.859699941038015 0 0 0
671 2 10.542038803009413 3.3924127115548446 11.08077394373676 0 0 0
672 2 10.145483262857908 2.128362994642746 11.897774254374141 0 0 0
15 2 -3.894655519620714 3.020014225134348 18.741128162424946 0 0 0
837 2 12.94978707150109 9.768047223126494 11.800854296378391 0 0 0
684 2 -3.412511850099287 10.242687621630077 14.610360013627542 0 0 0
688 1 -0.10109923816256848 8.163819353750506 11.901638794351383 0 0 0
689 2 -0.2710637299542949 7.6428622281575365 11.070135590642886 0 0 0
690 2 -1.0733737384149231 8.383429377521747 12.16176194531805 0 0 0
691 1 -2.736797335851717 8.358374167981736 12.200523995524536 0 0 0
692 2 -3.3034606313349264 9.148115490438924 11.958608510218815 0 0 0
693 2 -2.917138787375885 7.815271456604189 11.44012243228139 0 0 0
694 1 -3.642903304233615 8.006526926885847 16.681515197236713 0 0 0
695 2 -3.3769705625015867 7.430353881970792 15.9169058720018 0 0 0
696 2 -4.253635356733295 8.704763880683956 16.33229946235119 0 0 0