LAMMPS data file via write_data, version 3 Mar 2020, timestep = 0

2016 atoms
2 atom types

0.0000000000000000e+00 1.7961712400221725e+01 xlo xhi
-1.5886121206837593e+00 4.6584772097600876e+01 ylo yhi
0.0000000000000000e+00 1.9102065507980704e+01 zlo zhi
4.4643948367450489e-02 -6.6814844905044843e+00 -2.1400558509228063e-02 xy xz yz

Masses

1 16
2 2

Atoms # atomic

579 2 4.9540363001047041e+00 4.3656847139426507e+00 1.5515252662917359e+01 0 0 0
223 1 1.5883813446588642e+00 6.5109391313169098e+00 1.8340755087826000e+01 -2 0 -2
995 2 6.6650574529047217e+00 6.3337174009230930e+00 8.8129589481032404e+00 3 0 1
654 2 1.4196715793681706e+01 3.0519700147209576e+00 4.7934392935173715e+00 -2 0 0
394 1 1.1017415789116338e+01 5.0796297951047125e+00 4.6702858191964198e+00 -3 0 -3
578 2 4.0718131496041394e+00 4.7556597126302922e+00 1.6771134894700584e+01 0 0 0
929 2 1.2711933355275892e+01 3.5243245429154921e+00 1.4670649767507973e+00 0 0 0
460 1 9.6909564008986884e+00 8.7219090856316654e+00 1.4851870944368651e+01 -4 0 -2
705 2 -4.6662655596450362e+00 7.2523975427936573e+00 1.4664421273020563e+01 -2 0 -1
302 2 3.0215448654632944e+00 5.3430347035964605e+00 1.8477966078436889e+01 0 0 -1
299 2 -4.5112597293595291e+00 3.7732449840978699e+00 1.6930360866960438e+01 -2 0 -2
87 2 9.9368482831419769e+00 1.2578522421306859e-02 1.8424362709437535e+01 1 0 -3
150 2 8.3737041861976582e+00 5.3836527598990322e+00 1.3610519156408557e+01 -4 0 -1
406 1 -1.9770253090865413e+00 3.3363659463828945e+00 1.1085846770331463e+01 -2 0 -2
252 2 2.6918961641527348e+00 8.7147893715841338e+00 1.0129107125361701e+01 -3 0 1
596 2 2.2020966745918769e-01 3.2554038336779589e+00 2.5952256727888510e+00 3 0 -2
736 1 1.2377762712319942e+01 7.6419507053783526e+00 6.2687817003373230e+00 -1 0 1
925 1 -4.1718343878135098e+00 -1.3789877961729171e+00 1.2748989118096345e+01 2 0 2
881 2 1.1156837384041687e+01 1.6589381098323579e+00 1.0218959160298771e+01 -3 0 2
319 1 1.0203236780246762e+01 -9.0608894580727428e-01 1.4426702358964480e+01 -4 0 -3
53 2 9.7054882776256530e+00 1.6911735939356927e+00 2.6014791250526050e+00 2 0 0
429 2 -3.2571015775699763e+00 6.8805856605026960e+00 1.8056302239217665e+01 0 0 -1
609 2 2.4442773802977342e+00 2.1708806255750730e+00 2.2695715811634796e+00 -3 0 0
1583 2 -4.5240580983976439e+00 3.2382740626904321e+00 1.4519839434459211e+01 0 1 1
122 2 6.6761954118204008e+00 4.2284686250534094e+00 1.4317214460765749e+01 -2 0 -1
295 1 1.4132728762438907e+01 6.3545671828018317e+00 4.6165961977233048e+00 1 0 3
407 2 -2.6440286114103602e+00 3.1885495139759996e+00 1.0422925255488831e+01 -2 0 -2
707 2 1.0975872224358607e-01 7.2571414263330052e+00 1.5332800365219532e+01 -1 0 -1
972 2 3.5758646019474281e+00 6.3297769496796867e+00 3.6475101267542480e+00 0 0 1
448 1 1.7249041383412278e-01 5.2311658989461884e+00 1.0551619878334064e+01 -1 0 1
244 1 9.7722229466229109e+00 6.3872778428540045e+00 1.6239898591516646e+01 -4 0 -4
949 1 -2.7234539932566144e+00 5.0987641579502307e-01 1.5600921462415563e+01 -1 0 1
738 2 1.2827419630089770e+01 8.4495857565677834e+00 6.5807061506486955e+00 -1 0 1
1407 2 1.1944095100937483e+01 8.9920763371703423e+00 3.7633844249534643e+00 2 0 0
618 2 9.5476754210318671e-01 8.9492437913314475e+00 5.2424089081340686e+00 -2 0 -1
301 1 3.5953449041575922e+00 4.5269016444608585e+00 1.8536725165731376e+01 0 0 -1
149 2 7.7467768111901583e+00 6.6747222748022512e+00 1.3971180186137660e+01 -4 0 -1
184 1 -8.9197189604944516e-01 -5.6298300060341178e-01 1.9094622200939515e+01 -4 0 -7
463 1 2.1931918892269882e+00 6.2963374221534307e+00 6.9481679333772650e+00 2 0 0
449 2 -8.0074707806344403e-01 5.2181154824607061e+00 1.0704755372562401e+01 -1 0 1
524 2 -2.5035578649034651e-01 2.7155936158673368e+00 1.0846041022227093e+01 -2 0 -4
585 2 -4.2945319020687176e+00 9.8713685947884500e+00 1.3971394104263414e+01 -4 0 -4
523 1 4.7245357297620449e-01 2.2456912922767898e+00 1.0475174843985116e+01 -2 0 -4
658 1 3.9561506640100932e+00 2.4070938640170767e+00 1.2497072561502174e+01 -1 0 -2
206 2 1.3190196180840807e+00 1.3793995491630571e+00 1.1440595669836860e+01 3 0 0
96 2 -1.6107014078640143e+00 5.0028609361047538e+00 6.4330175520969632e+00 -1 0 -1
441 2 -3.5176436913428866e-02 6.1869466473095169e+00 1.3739273424127308e+01 -2 0 -1
151 1 5.3796126687210482e+00 1.2565409247426782e+00 1.9473979093524758e+00 3 0 0
781 1 8.4672383298530107e-02 4.8425119893919071e+00 3.5087714506260004e+00 -2 0 -2
880 1 1.0235681714761210e+01 1.3951201880891824e+00 1.0062320561994540e+01 -3 0 2
626 2 4.4463974103239368e+00 -2.4963175894112966e-01 1.7492774742539673e+01 0 0 -1
186 2 -9.9893554531805329e-01 1.1779663610420954e-01 1.8378843576374226e+01 -4 0 -6
703 1 -4.3579864808934738e+00 6.5325862339988401e+00 1.5268236076778045e+01 -2 0 -1
382 1 1.4812774149113256e+01 7.1764153436336677e+00 2.1453961105815225e+00 -2 0 1
185 2 6.7937214933638206e+00 -8.4083879049838450e-01 3.7793029329144197e-02 -4 0 -6
962 2 1.7425887705928869e+00 -2.6331038217794767e-01 1.3764024368682596e+01 -3 0 -1
54 2 1.1060607548529600e+01 2.5816615731215320e+00 2.7678905469738102e+00 2 0 0
575 2 5.8947250350405636e+00 8.0037605059673087e+00 1.4441690041545275e+01 0 0 0
689 2 2.5057982319167644e+00 1.3710796879152465e+00 5.0243935684140988e+00 -2 0 0
921 2 1.0712439503345854e+01 -1.3521693860149075e-01 9.7960570884022182e+00 0 0 -2
274 1 1.4000180089165861e+01 -6.3945812930104429e-01 7.8098736235449828e-01 2 0 0
652 1 1.4490329106847193e+01 3.3060558295879741e+00 3.8486539461976892e+00 -2 0 0
52 1 1.0492565318917030e+01 1.8488694115802429e+00 3.1380730889670283e+00 2 0 0
356 2 2.7189028482043387e+00 5.1651463466682923e+00 2.7836273216580204e-01 -4 0 -2
477 2 5.1230513547230050e+00 3.0216424079408286e+00 1.1382709770491980e+01 -1 0 2
500 2 1.2760905816840456e+01 1.4683078243120509e+00 1.3473699734601182e+01 0 0 0
334 1 5.4498960449895772e+00 9.6417430039097933e+00 6.4672265555133963e+00 -2 0 -1
806 2 1.0479711560661027e+01 9.5704479152157749e+00 9.4888827489225065e+00 -4 0 1
789 2 4.5942947739933508e+00 5.3184868820566820e+00 1.9445835795262667e+00 -2 0 0
810 2 5.2629768158759855e+00 6.2472860115889679e+00 7.1841151055619719e+00 -4 0 -1
930 2 1.3096884096552213e+01 3.3168461938872191e+00 2.9786218968925664e+00 0 0 0
702 2 2.0803600062571865e+00 2.0243354602496133e+00 1.7202891084556608e+01 -3 0 -3
501 2 1.2742478141431118e+01 1.6764912335387838e-01 1.2704828972669887e+01 0 0 0
625 1 4.0545736885672570e+00 6.2625910613542723e-02 1.8321752035473018e+01 0 0 -1
923 2 3.4786507796193478e+00 9.7242201011226630e+00 1.6620593022304590e+01 -3 0 -3
101 2 8.9320609732484968e-01 5.3850764575873349e+00 1.2009022487086668e+01 -1 0 -1
384 2 1.4875193727429899e+01 8.1253135562875531e+00 2.0044517160721083e+00 -2 0 1
245 2 8.8427523708461067e+00 6.2101004611060118e+00 1.6658337200300263e+01 -4 0 -4
311 2 7.0251624514856230e+00 9.5756054976124556e+00 1.2970110379341685e+01 0 0 -2
831 2 1.5307049654283453e+01 8.9664855483805610e+00 6.9703437161497046e+00 -4 0 0
175 1 5.3714301316185402e+00 -1.5517957570589540e+00 1.2491933208446678e+01 -5 0 1
65 2 5.0970879297177696e+00 9.1068593254966190e-02 6.1548909419145046e+00 -2 0 -3
713 2 -9.6054798628970595e-01 -1.3824410577639024e+00 1.1954534509664940e+01 0 0 3
320 2 1.0305887957775534e+01 -1.5852237794375661e+00 1.3705856336387447e+01 -4 0 -3
584 2 1.2717759702583823e+01 9.1346763746999109e+00 1.3203001148108291e+01 -5 0 -4
600 2 -5.0881887244148771e-01 1.2249789991756668e+00 9.5705911702361988e+00 -3 0 1
49 1 6.1633933109274741e+00 2.2006382955465909e+00 8.4444684542609743e+00 -1 0 0
183 2 1.1271585892903275e+01 7.8501688472126236e+00 7.7050835623786798e+00 -1 0 0
464 2 1.3312748154006027e+00 6.6233610479218665e+00 7.2535775337460997e+00 2 0 0
952 1 -5.0170103040879432e-02 7.7657466028642830e+00 4.5293535423249445e+00 0 0 1
1582 1 6.7582821421525585e+00 8.4051760251796637e+00 1.4114664272871755e+01 0 0 0
671 2 -6.8362494209757840e-01 -1.4617253449751244e-01 6.6908189994728131e+00 -3 0 -1
135 2 -1.8422981723718523e+00 3.6226596386184369e+00 8.0275504373191513e+00 1 0 -1
778 1 8.5169565190410168e+00 6.1374402266246841e+00 3.4151748263652784e+00 1 0 0
66 2 5.2906808560554826e+00 9.8398645493620140e-01 7.5265923431815507e+00 -2 0 -3
598 1 -1.0806135342803538e+00 4.0321138577314275e-01 9.3657316164726296e+00 -3 0 1
120 2 7.9211233834295482e+00 2.6934055417341227e+00 2.0869696334434149e+00 -2 0 -2
858 2 -2.7571974408373547e+00 5.3374645755295598e+00 8.8732308208673967e+00 -1 0 -3
640 1 -2.1894955902596456e+00 7.4225805177159376e+00 1.2082461635435736e+01 4 0 -1
753 2 1.1025778687185205e+01 6.3920796182634332e+00 1.9005322211838685e+01 -1 0 2
547 1 7.3258213946038406e+00 5.8161961125758124e+00 1.7097146877516444e+01 -3 0 -4
119 2 8.2358735604604973e+00 2.1097071716048763e+00 6.3581133662309519e-01 -2 0 -2
525 2 9.2806777689380660e-01 2.8383530074033665e+00 9.8844598274111597e+00 -2 0 -4
992 2 1.2589479618632804e+01 -1.3607032298619779e+00 9.2806100071429718e+00 1 0 1
971 2 3.8047878773290922e+00 7.6939427066116295e+00 3.0545885407971585e+00 0 0 1
559 1 8.0094915957935946e+00 -7.8727481536847466e-01 7.3524533479485266e+00 -2 0 1
212 2 8.6556199947627359e+00 6.2394211879184471e+00 9.5199022155326372e+00 -5 0 -2
701 2 3.1141999472839332e+00 1.4755956405252642e+00 1.8320863941267422e+01 -3 0 -3
5 2 3.5659257909477793e-01 8.1516103866226874e+00 8.6201266611074825e+00 1 0 0
470 2 1.6672213713182160e+01 1.4618200744523810e+00 2.7259673835002758e+00 -7 0 -2
471 2 1.5252817075597910e+01 1.7907523075295049e+00 3.3986146707590166e+00 -6 0 -2
708 2 1.0277871036360304e+00 7.4246485857655866e+00 1.6662491532224241e+01 -1 0 -1
352 1 7.5734914604519581e+00 9.3134063990352676e+00 9.5309653706740765e+00 -1 0 0
46 1 1.2194793381469754e+01 4.5337350153939289e+00 7.3968909259872717e+00 -3 0 0
368 2 1.3721964346569248e+01 1.0322460652573536e+01 2.5110884472423840e+00 -2 0 0
856 1 -2.9948352659929309e+00 4.3872609264338758e+00 8.8823542196998293e+00 -1 0 -3
627 2 4.8490391201527272e+00 4.8859062839311074e-02 1.8928606709924669e+01 0 0 -1
111 2 -1.5996600302039798e+00 1.7472234458231517e+00 1.6664756180609206e+01 1 0 -4
869 2 1.0493401558993005e+01 6.2541206451645595e+00 1.0790822848281421e+01 1 0 0
16 1 -1.4175050801960793e+00 4.1450723806320067e+00 1.5114862880241226e+01 0 0 1
746 2 -3.6657012883762241e+00 1.0290043867131118e+01 1.7482887084912466e+01 -2 0 0
974 2 8.3625662752677528e+00 1.5967195286727911e+00 1.4931216869291521e+01 -4 0 -2
118 1 8.2215558736020569e+00 1.8706909877311637e+00 1.6146435457209354e+00 -2 0 -2
253 1 1.0912422087542815e+01 9.4917519605850256e+00 1.8175923992240143e+01 -3 0 -3
985 1 7.0222777680713522e+00 1.0145182297184132e+01 1.8947949853583739e+00 -2 0 -2
1668 2 3.1598282276215732e+00 1.8932909055778646e+00 1.2225564958503810e+01 -1 1 -2
644 2 7.4623223304943407e+00 2.8745110692282889e+00 1.1486741389436986e+01 -4 0 -3
617 2 2.0879733272525267e+00 9.9450068284070525e+00 4.7361205464204801e+00 -2 0 -1
839 2 -2.4554903192148636e-01 9.5495440003215659e+00 2.4084436357288568e+00 0 0 -2
239 2 2.9202762442468302e+00 4.2694436209721500e+00 1.4871282342144998e+01 0 0 0
716 2 9.6479391733554003e+00 3.8670266471527501e+00 5.2145889159303609e+00 1 0 2
717 2 9.0631562780373915e+00 2.4212922710067550e+00 5.1159844801051708e+00 1 0 2
240 2 1.8952715401357345e+00 4.4561913243704412e+00 1.3664544569500675e+01 0 0 0
904 1 8.6861636489364802e+00 8.1114843140953017e+00 1.3104149253134494e+00 -3 0 2
17 2 -2.3155730928169382e+00 4.0273221480135728e+00 1.4839214800482706e+01 0 0 1
779 2 7.7200251823042443e+00 6.5667003379842637e+00 3.8372864210217306e+00 1 0 0
712 1 -1.7185933454626658e+00 -7.1785135120299570e-01 1.1727113855043450e+01 0 0 3
645 2 8.7121585241267177e+00 3.3728575529100340e+00 1.2117901889070765e+01 -4 0 -3
613 1 -3.9613650493790415e+00 3.3832692441154304e+00 1.8555715405149567e+01 -2 0 -1
493 1 1.0754758650652616e+00 9.1155750137655378e+00 9.8196010860885661e+00 -3 0 -2
238 1 2.3201618180841335e+00 3.8038698500185726e+00 1.4333263146464922e+01 0 0 0
522 2 6.3173482936230689e+00 -2.9676121726817328e-01 9.8427794037804173e+00 -5 0 -2
715 1 9.1581524672157002e+00 3.1552247503290660e+00 5.6763098077249889e+00 1 0 2
115 1 1.0385771214615406e+01 3.9170480254557889e+00 1.5706016066143141e+01 -5 0 -5
426 2 1.1412038105881019e+01 8.2996097595708829e-01 4.3973235409544555e+00 -2 0 1
504 2 4.8554858589711358e+00 -8.4346188191439031e-01 8.6358411857124135e+00 0 0 -1
714 2 -1.6159714257294771e+00 -4.7042861194613783e-01 1.0778954779303213e+01 0 0 3
246 2 1.0357554059968868e+01 6.4276563226182422e+00 1.7013758470163346e+01 -4 0 -4
933 2 -1.4813466473700490e+00 7.4770272382565395e-01 1.2866360871522231e+01 -2 0 -1
857 2 1.4063274326804395e+01 4.4226593798427052e+00 8.4548996636343166e+00 -2 0 -3
868 1 1.1018675007068737e+01 6.2253277718500630e+00 1.1600949220799082e+01 1 0 0
954 2 -5.0798013467468284e-01 7.0774957013132660e+00 5.0225012309454273e+00 0 0 1
18 2 -9.5228310556647600e-01 3.4710715444796332e+00 1.4575166542300519e+01 0 0 1
843 2 6.1154656269743590e-02 -1.2838434477879017e+00 1.5040090062793213e+01 -5 0 -5
760 1 8.4044518128191914e+00 -1.1061988033241794e+00 2.7392238887810894e-01 -3 0 2
785 2 1.3879228516151418e+00 7.5392763629583692e-01 1.0458658465641779e+00 -3 0 -2
870 2 1.1277366796593292e+01 7.1639748406945412e+00 1.1887912575908159e+01 1 0 0
211 1 9.6414651622181200e+00 5.9958111995194265e+00 9.5298979768193330e+00 -5 0 -2
387 2 3.4484094918526020e+00 2.6274003771807433e+00 3.9475527078961097e+00 0 0 -2
312 2 7.1338002891522958e+00 9.5076641912589626e+00 1.1447781921111531e+01 0 0 -2
643 1 8.3995692799656148e+00 2.6631248987168767e+00 1.1545740539432282e+01 -4 0 -3
845 2 7.9063473100381918e+00 -8.4360040681969639e-01 1.0884729249040699e+01 1 0 1
540 2 1.4369187222432636e+00 9.7135576770741361e-02 3.2197765607668360e+00 -4 0 -3
624 2 -3.6903768793246741e+00 -4.3015906536586113e-01 1.7031497046726962e+01 -2 0 -2
116 2 1.1315615353013090e+01 3.8132184390200008e+00 1.6041195059488139e+01 -5 0 -5
224 2 7.2715389314323353e-01 6.0559732297967486e+00 1.8383278125387413e+01 -2 0 -2
735 2 5.0804514884385856e+00 1.0043916600363797e+01 4.7607295892998183e+00 -3 0 -1
48 2 1.1871560526351505e+01 5.0165888514468548e+00 6.6243881943446095e+00 -3 0 0
117 2 1.0255666417314661e+01 4.8929218875480247e+00 1.5969142299405734e+01 -5 0 -5
931 1 -1.2921087694051936e+00 1.5762192415086673e+00 1.3374713200281299e+01 -2 0 -1
670 1 -4.9534046291069211e-01 -9.5050182113488557e-01 7.2564370732198009e+00 -3 0 -1
385 1 3.6018903296354257e+00 2.8559346476817797e+00 4.9383375882500626e+00 0 0 -2
672 2 -5.6149374391476670e-01 -5.8731909539209926e-01 8.1684184247133658e+00 -3 0 -1
961 1 1.5986988784696630e+00 -4.3064662936991582e-01 1.4725042516665681e+01 -3 0 -1
42 2 4.5951680815823392e-01 3.8289126667187698e+00 7.7100075289263534e+00 -2 0 3
726 2 1.3873747056967414e+01 1.4618872613112317e+00 9.1381590749893853e+00 1 0 1
876 2 1.0412330616737684e+01 8.7392061397730920e+00 1.3188937897543141e+01 -3 0 1
769 1 1.3148030711889191e+01 8.2692014041318185e+00 9.7080281325075397e+00 0 0 -3
1002 2 9.5951268632573683e+00 3.4212982932638649e+00 7.3018341472635511e+00 -1 0 1
4 1 -4.8468093032624893e-02 7.4898611642540800e+00 8.0721346699010592e+00 1 0 0
905 2 9.4214668596017184e+00 8.6146086710716148e+00 9.8220627200870037e-01 -3 0 2
41 2 1.7629316507494015e+00 4.7385861362067292e+00 7.6602525139272686e+00 -2 0 3
747 2 -2.8735448131891528e+00 8.9054358792355917e+00 1.7654115857478438e+01 -2 0 0
812 2 1.0329599975290272e+01 5.0727111177674011e+00 1.2844882391028246e+01 -2 0 -1
932 2 -3.7762448865837506e-01 1.4480853702823655e+00 1.3630955380266437e+01 -2 0 -1
435 2 9.1866360762526824e+00 9.4744587735197054e+00 1.8585624273498539e+01 -2 0 0
213 2 9.6749234253004186e+00 5.2499237060410762e+00 8.9737884787683004e+00 -5 0 -2
250 1 3.6043858786795591e+00 8.5672812507045748e+00 1.0315535299155220e+01 -3 0 2
507 2 1.4573198561751500e+01 9.2585838925263850e+00 4.7191226912022453e+00 -4 0 -2
338 2 1.7723153922210517e+00 5.0387575955923536e+00 4.1705674775545498e+00 -1 0 -1
938 2 1.2091833980228675e+01 5.7551697072653702e+00 1.9878152922263885e+00 1 0 1
969 2 2.0609007200311695e+00 2.0081370364914926e+00 7.7881432838345894e+00 -1 0 1
545 2 1.5901147801467230e+00 2.5048955874845884e+00 1.5424397417197140e+01 2 0 1
386 2 4.5340783334400738e+00 2.9982344083776420e+00 5.0970991207902738e+00 0 0 -2
937 1 1.2274579435922959e+01 6.6520273728483676e+00 1.6432549204097506e+00 1 0 2
40 1 1.3325319417170562e+00 3.9592412467556484e+00 8.0875166229961941e+00 -2 0 3
786 2 -4.5266809774058423e+00 2.7234381980707290e-01 1.8871023669391814e+01 -3 0 -3
1584 2 7.1589338274273899e+00 8.7389352547923540e+00 1.4934819492653867e+01 0 0 0
724 1 1.4422839681720617e+01 1.0556424188540956e+00 8.4135192317964371e+00 1 0 1
784 1 1.7981323895625183e+00 1.0614089149957668e+00 2.2525551652760484e-01 -3 0 -2
967 1 2.1669586592201737e+00 9.9433290631647298e-01 7.8521112556688246e+00 -1 0 1
553 1 9.7781526884653740e+00 3.2686287079390288e+00 1.9012403782357080e+01 -5 0 -2
681 2 4.8817003282649249e+00 6.2816177444700410e+00 1.7619768272486724e+01 -3 0 -3
649 1 8.0873118047361316e+00 8.7338653574608971e-01 5.0012438229108040e+00 -4 0 0
650 2 7.1425951772254468e+00 9.6293235042570835e-01 5.2329276111401954e+00 -4 0 0
51 2 6.7011467240849498e+00 1.5444933814749819e+00 9.0250456590824513e+00 -1 0 0
36 2 1.5857405095319232e-01 1.4313287124283414e+00 5.3674767748783312e+00 -1 0 0
945 2 6.2684675602642708e+00 4.1288291416159302e+00 2.7514999272330147e+00 0 0 3
673 1 1.5453953194740486e+00 7.8028708083471212e+00 2.5061048217447799e+00 0 0 -3
939 2 1.1983190406380363e+01 6.7913474658037423e+00 7.2960431983171936e-01 1 0 1
397 1 1.1396378277721174e+01 8.1921011924873746e+00 3.8050229522494954e+00 2 0 0
127 1 6.2069810799343763e+00 4.0223027792946091e+00 1.8628423778355607e+01 -2 0 -2
128 2 6.6285117137203979e+00 3.1249469660441784e+00 1.8598847429656736e+01 -2 0 -2
987 2 6.4021449435066833e+00 9.8784572636550152e+00 2.5609328099153310e+00 -2 0 -2
34 1 -7.8049978319333357e-01 1.2943292964647082e+00 5.6349862430716042e+00 -1 0 0
928 1 1.2347845016188771e+01 3.4368683111430709e+00 2.3625795310885387e+00 0 0 0
777 2 1.1079946841102227e+01 3.4338785339598887e-01 2.4250977853896143e+00 -2 0 2
152 2 6.2663804173543358e+00 1.6812155948912144e+00 1.8430434596159442e+00 3 0 0
439 1 -7.6882323596443314e-01 6.5493040374668112e+00 1.4283569959798267e+01 -2 0 -2
350 2 7.3942368189215690e+00 8.0384133490220622e-01 1.8559993666911410e+01 2 0 3
761 2 9.1468311757694707e+00 -6.1401737163537129e-01 5.0933990236124577e-03 -3 0 2
176 2 5.1983908827236167e+00 -6.8424102832239175e-01 1.2965357002138214e+01 -5 0 1
783 2 -1.1384415680459259e-01 5.2524699944499487e+00 2.6480495968902620e+00 -2 0 -2
148 1 7.4776992643928617e+00 5.7604425129030501e+00 1.3901171768796539e+01 -4 0 -1
994 1 7.1239530825637818e+00 6.6548018000610423e+00 9.6229214803663830e+00 3 0 1
725 2 1.4177936471225472e+01 1.4629911056962377e+00 7.5825484901610727e+00 1 0 1
160 1 -2.3770766938318575e+00 6.8472042560028541e+00 9.3300886219045154e+00 1 0 -5
129 2 5.2812592362069752e+00 3.9862153285855575e+00 1.8774188685918610e+01 -2 0 -2
82 1 1.3847268531572254e+01 9.5747431150124616e+00 7.6315959281615529e+00 -1 0 -2
173 2 8.3165876882019187e+00 1.5039230123721197e+00 1.2692116914722192e+01 -1 0 -2
549 2 7.1522532720463543e+00 5.5403794061778378e+00 1.6206212710454086e+01 -3 0 -4
745 1 -3.2195057927463835e+00 9.7046709684201460e+00 1.8143200243126255e+01 -2 0 0
433 1 8.2662480444015394e+00 9.1940949348304404e+00 1.8730639405323771e+01 -2 0 0
275 2 1.4974643043455707e+01 -5.3879858615064968e-01 6.9318798517989955e-01 2 0 0
651 2 8.0321914679795192e+00 1.6706228691386515e-01 4.3281104830667125e+00 -5 0 0
996 2 6.5815024621271920e+00 6.4432549630161340e+00 1.0431325700090051e+01 3 0 1
611 2 1.2713355719428773e+01 3.0360728363467775e+00 1.0349970370331564e+01 -1 0 2
494 2 1.2292008678187831e+00 9.9673158389450141e+00 9.3510738726450828e+00 -3 0 -2
750 2 3.3784876334679286e+00 7.5937299565261647e+00 1.1667893246207917e+01 -3 0 1
749 2 3.7448089937998708e+00 7.3011321858697613e+00 1.3256986828710497e+01 -3 0 1
102 2 2.0850882224471015e+00 6.2640439460072130e+00 1.2548066353884812e+01 -1 0 -1
497 2 6.3407912822084578e+00 2.9446255908340184e+00 7.0189583914192726e+00 0 0 1
498 2 6.8545872738903819e+00 3.3722739350675814e+00 5.5189877418144322e+00 0 0 1
395 2 1.1634596277778815e+01 4.7189381750663362e+00 4.0478054642763341e+00 -3 0 -3
20 2 9.6984791743630954e+00 8.4530821327031074e+00 4.4599304943658673e+00 -3 0 -3
349 1 7.6055921132128663e+00 1.7305175310714875e+00 1.8329639063558776e+01 2 0 3
679 1 4.9241705012786445e+00 7.0396791280864903e+00 1.8183964817575621e+01 -3 0 -3
398 2 1.1540293768850942e+01 7.6684388025398764e+00 3.0048687468116060e+00 2 0 0
560 2 7.4649654752989010e+00 -1.5275616688261666e+00 7.0044932570291056e+00 -2 0 1
895 1 6.6258716037178660e+00 9.6920006712056601e+00 1.6554999198130609e+01 -2 0 -1
321 2 1.0083869748296660e+01 -8.7294149643615260e-02 1.3965743836851535e+01 -4 0 -3
943 1 7.1617136338452578e+00 3.8341053098701199e+00 3.0659847939391449e+00 0 0 3
251 2 3.9767539641877212e+00 8.5607761936846636e+00 9.3620844591061161e+00 -3 0 1
458 2 1.6708309624389592e+01 -5.7044672650757500e-01 3.2025229987735835e+00 -3 0 -2
846 2 7.0525342835715419e+00 -1.3989720955542719e+00 1.2034684731429596e+01 1 0 1
172 1 8.2165819409960132e+00 7.6223730927700473e-01 1.3399613821432816e+01 -1 0 -2
298 1 -4.8535720066237182e+00 4.0392091342654250e+00 1.6043742265600805e+01 -2 0 -2
680 2 5.6922067346232783e+00 7.5648818232375277e+00 1.7892721967649965e+01 -3 0 -3
427 1 -2.8306020177804694e+00 7.0055299672420848e+00 1.7179953057291225e+01 0 0 -1
538 1 1.6125977888722780e+00 -3.2445524055160657e-01 2.3274417335822188e+00 -4 0 -3
944 2 7.6843729571759347e+00 4.7104717248286834e+00 3.1610182665822428e+00 0 0 3
100 1 1.2791987778432441e+00 5.7702513577936960e+00 1.2852575593623881e+01 -1 0 -1
1667 2 3.6324341373712699e+00 3.0487219129114429e+00 1.3107629698765798e+01 -1 1 -2
978 2 5.3315899823429769e+00 -1.8054186136158745e-01 1.5371876113993395e+01 -3 0 -1
174 2 8.1890421944964871e+00 -8.4183996397027006e-02 1.2823282990931077e+01 -1 0 -2
388 1 1.4132741485525631e+01 -7.6390521927988342e-01 4.3029065035603145e+00 -1 0 0
465 2 2.1358839597050241e+00 6.0579078423477037e+00 5.9822130078491957e+00 2 0 0
687 2 2.0074386683568957e+00 -5.4717151876777059e-02 9.0959357605943190e+00 -3 0 0
844 1 7.9660697755543506e+00 -1.3650883201108062e+00 1.1735558166831707e+01 1 0 1
607 1 3.3051960127027251e+00 2.6039323107563384e+00 2.3300024764209040e+00 -3 0 0
919 1 1.1006460448932902e+01 -9.8998351873133195e-01 9.3365724550096001e+00 0 0 -2
963 2 2.2384978812359426e+00 -1.0802287760250815e+00 1.5045747687742711e+01 -3 0 -1
976 1 5.4532908069377797e+00 -7.6583341316689790e-01 1.6102235383006839e+01 -3 0 -1
595 1 -1.3122462724315853e-01 2.4162822844629677e+00 2.2092245708027947e+00 3 0 -2
528 2 5.6080379876021169e+00 2.4537552854187639e-01 3.5874401215339664e+00 -2 0 -1
109 1 -1.1899706172792630e+00 2.0269354925797178e+00 1.7516107423645305e+01 1 0 -4
615 2 -4.2607342757426760e+00 2.4339461625632222e+00 1.8848572269460856e+01 -2 0 -1
548 2 6.9342893271870114e+00 5.0377013475793815e+00 1.7642808151926832e+01 -3 0 -4
461 2 9.6044869757843117e+00 7.9414458844870364e+00 1.5469362050442166e+01 -4 0 -2
599 2 -1.8579667869786864e+00 6.5843027714299796e-01 8.8477577859133305e+00 -3 0 1
408 2 -2.1688287643217481e+00 2.8651051226648692e+00 1.1920103114507285e+01 -2 0 -2
775 1 1.1711450353225828e+01 -2.6153882599470268e-01 2.0235858363073138e+00 -2 0 2
182 2 1.0304835292812838e+01 7.3639087994210861e+00 8.7862056602673970e+00 -1 0 0
35 2 -1.3439971332504685e+00 1.2449119597914455e+00 4.7911810195349647e+00 -1 0 0
277 1 4.0251930065071333e+00 7.8902408281089240e+00 8.0190656832488987e+00 -4 0 -1
922 1 3.0544323009805909e+00 9.3177913901213465e+00 1.5838087655758557e+01 -3 0 -3
475 1 5.8393699152193879e+00 3.4106574940809979e+00 1.0890700512152344e+01 -1 0 2
68 2 4.2180705420760658e+00 6.6066765317736476e+00 1.5236366973879369e+01 -4 0 -3
526 1 5.5407152180171577e+00 -3.2154207151066716e-01 4.3881845630598582e+00 -2 0 0
133 1 -1.1494027627793775e+00 3.5358074266904334e+00 7.3090657021133474e+00 1 0 -1
610 1 1.2740841450505725e+01 2.0904809009589735e+00 1.0248356253573213e+01 -1 0 2
675 2 1.8227155746020496e+00 6.9917325564482553e+00 2.0032747561986937e+00 0 0 -3
733 1 4.8911017557320671e+00 1.0283060748763550e+01 3.8484120320213226e+00 -3 0 -1
300 2 -4.7127780888605848e+00 4.9742290501935944e+00 1.5851734008709254e+01 -2 0 -2
21 2 8.1442274256895395e+00 8.5355202045661134e+00 4.7143399665875965e+00 -3 0 -3
782 2 -5.9736051751096453e-01 5.1621202835857751e+00 4.0918897964014684e+00 -2 0 -2
690 2 2.0605353981049692e+00 -2.4355569048213122e-02 5.4978276040939500e+00 -2 0 0
561 2 8.1876651195376837e+00 -1.4774414853075757e-01 6.6448051498091862e+00 -2 0 1
728 2 4.9778745280565353e+00 6.1930064282594905e+00 1.2056673705957460e+01 0 0 1
113 2 6.4519001536201959e+00 9.2775967119230041e-01 1.3722063322436096e+01 -2 0 -1
788 2 4.3099358068045985e+00 3.7398029331347189e+00 1.7129796774162869e+00 -2 0 0
776 2 1.1576468927316188e+01 -1.0929612292540083e+00 2.4923332183551858e+00 -2 0 2
685 1 2.2831175280155622e+00 -7.1594517815117498e-01 9.7861869472238894e+00 -3 0 1
428 2 -2.1609928140417258e+00 6.2798566947987764e+00 1.7219217768632991e+01 0 0 -1
67 1 4.3702504965248865e+00 7.4563121168272790e+00 1.4708178505976106e+01 -4 0 -3
727 1 5.8916963240772509e+00 5.9317744355605200e+00 1.1808327279002008e+01 0 0 1
114 2 5.0819418471819073e+00 1.3619920746665350e+00 1.3281484045475839e+01 -2 0 -1
425 2 1.1398298983223141e+01 -6.4613899215220538e-02 5.6532648566057802e+00 -2 0 1
544 1 1.1257781589914222e+00 1.8025068432743421e+00 1.5872504516788291e+01 2 0 1
875 2 1.0823616711951402e+01 9.6059417267916682e+00 1.1854794770936433e+01 -3 0 1
1001 2 9.8153282660488568e+00 2.7800906352170989e+00 8.8780842348811913e+00 -1 0 1
496 1 6.0988622431133956e+00 3.4357425942155153e+00 6.1813702261593555e+00 0 0 1
291 2 8.8004382806119459e+00 9.6632454099567777e+00 6.3682117456439604e+00 0 0 3
337 1 2.6435510157964943e+00 5.2334569766011523e+00 4.5939861711229177e+00 -1 0 -1
179 2 1.1632572203327921e+01 9.7118742920250725e+00 1.4807857176192005e+00 -3 0 0
531 2 8.4600310574994975e+00 -1.1222200832281293e+00 2.1206823979817817e+00 -1 0 0
621 2 1.5251092786433937e+00 9.0236396165549042e+00 1.1618434385414311e+00 -3 0 0
583 1 -4.4358732098998424e+00 8.9776606131675631e+00 1.3694286500792749e+01 -4 0 -4
392 2 -1.4504462191903871e+00 8.9211121827581970e+00 1.2011659766881522e+01 -1 0 -1
641 2 -2.8976081118287569e+00 7.9994875195518453e+00 1.2358233927610232e+01 4 0 -1
110 2 -2.4663463072634517e-01 2.0147302457453491e+00 1.7180954321637930e+01 1 0 -4
389 2 1.3481567763917923e+01 -2.3843461719453418e-01 4.8465757341006599e+00 -1 0 0
47 2 1.1431159343870755e+01 4.0548372269972273e+00 7.7874149906969921e+00 -3 0 0
207 2 1.9788010261795641e+00 -4.0558713890398446e-02 1.1396326295352111e+01 3 0 0
808 1 6.1479986496156478e+00 5.8573298180312081e+00 7.0906365364442614e+00 -4 0 -1
950 2 -2.6591642589602462e+00 8.4158077319327518e-01 1.4671815266338605e+01 -1 0 1
577 1 4.2081747752759142e+00 5.0366804050137022e+00 1.5804501801659223e+01 0 0 0
336 2 6.4426266778270875e+00 9.8196097951494821e+00 6.4576210686775584e+00 -2 0 -2
1000 1 9.9160004257696972e+00 3.5907514933178799e+00 8.2216036794420368e+00 -1 0 1
294 2 1.3874468397113917e+01 5.0539889136534182e+00 1.1145055854896388e+01 0 0 -3
390 2 1.4860092481607307e+01 -1.9745323398119741e-01 3.9978146304772286e+00 -1 0 0
297 2 1.4321090530879024e+01 6.8294440982590938e+00 3.7876942462989494e+00 1 0 3
521 2 7.4925957315949763e+00 -1.1748561098249288e-01 8.8326982661846856e+00 -5 0 -2
813 2 9.9502544200467948e+00 4.3013441502443355e+00 1.4109422693238258e+01 -2 0 -1
912 2 1.2884488263768990e+01 1.7671090175094086e+00 5.8110979878807001e+00 -2 0 1
951 2 -2.1748724637183896e+00 -2.7287958664960166e-01 1.5600390390269963e+01 -1 0 1
279 2 4.3569401231537075e+00 8.5657416572819933e+00 7.3889099055610066e+00 -4 0 -1
771 2 1.3021756426796422e+01 8.9627604290894656e+00 1.0350255541110943e+01 0 0 -3
161 2 -2.2384882254070559e+00 6.9584476282612648e+00 1.0321926919901976e+01 1 0 -5
809 2 5.9959604781034468e+00 4.9339726951446066e+00 6.7680470598731457e+00 -4 0 -1
866 2 -9.5186634236317769e-01 4.8629476156316480e+00 1.8955682722713100e+01 -3 0 -1
94 1 -1.4762672264002781e+00 5.7787990918925356e+00 5.7699918831253978e+00 -1 0 -1
225 2 1.6219944483191737e+00 7.2406848949581235e+00 1.8943674460452414e+01 -2 0 -2
770 2 1.2199279518415912e+01 8.1957622056969583e+00 9.3237578495168503e+00 0 0 -3
123 2 6.6751703357823873e+00 2.9799668842781362e+00 1.5261778100254107e+01 -2 0 -1
440 2 -1.1816598096393607e+00 5.7569015768938518e+00 1.4718008799213058e+01 -2 0 -2
383 2 1.3822439059303038e+01 6.9188776863912356e+00 1.8855377575320365e+00 -2 0 1
6 2 -7.9960883726046017e-01 7.1459804043049076e+00 8.6246664683725189e+00 1 0 0
499 1 1.2287439066496116e+01 1.0585494786682523e+00 1.2718394792042774e+01 0 0 1
910 1 1.3551845283103301e+01 2.3155107385663434e+00 6.2599372596516698e+00 -2 0 1
546 2 1.4383484127944675e+00 9.6224310153277415e-01 1.5426813744392328e+01 2 0 1
462 2 1.0118656142502736e+01 9.3958037153429679e+00 1.5390853280668534e+01 -4 0 -2
729 2 6.4140927654546021e+00 6.1001637564767215e+00 1.2645583088099571e+01 0 0 1
612 2 1.2827451057504261e+01 1.7331989689707110e+00 1.1195174571192796e+01 -1 0 1
674 2 9.1929387958975717e-01 7.5865948514227632e+00 3.1945702165443493e+00 0 0 -3
121 1 6.0856564318134874e+00 3.5995001179473718e+00 1.4775103466265909e+01 -2 0 -1
911 2 1.3065891567453111e+01 3.0398972035310692e+00 6.6874378014184321e+00 -2 0 1
424 1 1.1957810028396274e+01 5.3761988072983868e-01 5.1208860610519915e+00 -2 0 1
811 1 9.6157504883162588e+00 4.5579872994430266e+00 1.3205063522892639e+01 -2 0 -1