LAMMPS data file via write_data, version 8 Apr 2021, timestep = 1690000

1008 atoms
2 atom types

0.2463271057654896 18.153227894228074 xlo xhi
-0.008567578203441189 22.57895657820848 ylo yhi
0.21970470629549874 19.286011293701993 zlo zhi
0.06857713308724184 -6.693218757065819 0.131286466598487 xy xz yz

Masses

1 16
2 2

Atoms # atomic

1 1 6.5243439806896255 1.0366009719733587 4.925899760655781 0 0 0
3 2 6.783203670184441 1.332806890046907 4.022015532521387 0 0 0
4 1 3.7972598057799565 1.1979385389889925 5.237046592079908 0 0 0
6 2 3.741613916527012 1.5942980414914552 6.160153445121005 0 0 0
7 1 -0.3256659864108086 6.331677017606388 5.069752866756878 0 0 0
8 2 -0.501153255008038 6.197284890044279 6.032777577205377 0 0 0
10 1 2.4744332114803957 6.367243144846608 5.006738833290963 0 0 0
11 2 1.4833741468872612 6.52655258672262 4.835316294237851 0 0 0
12 2 2.9332973408741636 7.240166490367362 5.100021634248548 0 0 0
18 2 5.828993342941334 5.145975857013383 1.170885296204821 0 0 0
25 1 4.875090171532657 6.365784269471148 7.3507455168944364 0 0 0
26 2 5.398886050943439 7.154776944629419 7.556503410287161 0 0 0
27 2 3.9660171952181593 6.782127287659346 7.3386278980341935 0 0 0
28 1 6.172483900419955 6.30590943981353 2.4099070424091624 0 0 0
29 2 6.162549968420099 6.012371771973985 3.323168299391194 0 0 0
30 2 5.530446969590791 7.049842269513054 2.357588299917641 0 0 0
31 1 1.318928462565926 1.0793751088744543 2.8457142984645247 0 0 0
33 2 1.2399946439020217 1.567794068830758 3.706899265802984 0 0 0
34 1 0.31242158116710245 1.5741868993638826 7.4026666090181354 0 0 0
36 2 0.46554030578885225 2.063736838531061 8.256886023992662 0 0 0
37 1 6.379331529794446 2.6293972642915646 2.5607506861590235 0 0 0
38 2 5.546409781489164 2.95529448678265 3.020365946850805 0 0 0
39 2 7.0562559858482885 3.305647428557652 2.7158261613791757 0 0 0
40 1 4.134977023857178 2.507257329915814 7.455077936161485 0 0 0
41 2 5.083664111759143 2.7724004083208764 7.315876384373526 0 0 0
42 2 3.565756247323226 3.3180235275930476 7.164740255661714 0 0 0
43 1 -0.13112911242116504 5.040195012954945 7.485652479103871 0 0 0
44 2 -0.8697430956917396 4.40493244621658 7.245561839756811 0 0 0
45 2 -0.4520881734859777 5.439467172723969 8.342365252855451 0 0 0
46 1 2.3064072820788772 5.013726793958334 2.8573915585408227 0 0 0
47 2 1.3768346170160077 4.6712236738733495 2.932465489962332 0 0 0
48 2 2.5053034293498677 5.630406890137808 3.531342164120319 0 0 0
49 1 6.70707047228169 3.3139974329960786 6.596111392793352 0 0 0
50 2 6.430156242946101 4.0831896167048525 6.018945627134205 0 0 0
51 2 6.872949166090558 2.5776773669433286 5.988200038347935 0 0 0
52 1 4.230416654677226 3.481006518188332 3.9414327351540894 0 0 0
53 2 3.4229994999826023 3.7857627124175592 3.377054697076173 0 0 0
54 2 4.066863362755102 2.5832507592526075 4.394931362752756 0 0 0
57 2 -0.08151826954162855 3.7362712918920393 3.899986828534541 0 0 0
58 1 2.1893134047598983 4.168421472586875 6.755299307541505 0 0 0
59 2 2.304155279785061 5.070754526511869 6.320851251696952 0 0 0
60 2 1.3511277304737082 4.262629653538867 7.2859033867902925 0 0 0
61 1 8.538790040912312 7.263913552850112 1.4635128411751832 0 0 0
62 2 7.708937666831043 7.21307467162272 1.9295314922323634 0 0 0
64 1 2.4788209567268376 7.301064575433794 8.346512841758 0 0 0
65 2 1.6437232741959065 7.561297329679727 7.980740543981172 0 0 0
72 2 4.548059091157614 1.2842706390950462 2.1171051543978336 0 0 0
73 1 5.81349199269441 5.297960303306762 5.058037929489856 0 0 0
74 2 5.412153458602887 5.921494960262415 5.667193074105361 0 0 0
75 2 5.086309354779382 4.715558641301087 4.719312794967729 0 0 0
76 1 0.7503525743990012 2.40049372897396 4.93995965734586 0 0 0
77 2 0.20927206142205887 1.9283353584375629 5.585585899380312 0 0 0
78 2 1.206435427173998 3.0759877694406867 5.518074721414188 0 0 0
91 1 8.55044862515792 6.735099597826283 4.9066090017117086 0 0 0
92 2 8.324021338692512 5.880202904878432 4.429188359793003 0 0 0
93 2 9.49683788258853 6.950099895518186 4.7714403415473745 0 0 0
115 1 10.56740119346123 1.32428008262181 2.7793377033770073 0 0 0
116 2 10.440066163759743 1.9873387888613276 2.0681736861352955 0 0 0
118 1 9.111582652990958 1.4067485058779932 7.38816420596383 0 0 0
120 2 9.365855554353772 1.8887620652637296 6.554012599910522 0 0 0
127 1 8.446534186318646 5.270463510546684 7.425037860304657 0 0 0
128 2 7.856518785339152 4.53051314956384 7.1505273812424806 0 0 0
129 2 8.459253742680938 5.903530719871299 6.640954485960503 0 0 0
130 1 11.17977354810436 4.976845012163846 2.3597016301346123 0 0 0
139 1 8.504696340335368 4.398684513300005 3.5317344762093548 0 0 0
140 2 9.246370787806637 4.421413784319589 2.9870022175972117 0 0 0
141 2 8.839024166122368 3.7357960008015825 4.1991331568427395 0 0 0
153 2 6.409543394810885 1.3906088143119653 8.846414186748923 0 0 0
160 1 9.98392981642598 2.591129620326638 5.0834495153400745 0 0 0
162 2 10.19039233919415 2.0456647917320803 4.264297605982786 0 0 0
169 1 6.628208410330387 8.772045197015613 4.847646678097222 0 0 0
170 2 7.278047968280398 7.994909251394735 5.002743240175055 0 0 0
171 2 6.923988988536303 9.486004459201402 5.420653002345724 0 0 0
172 1 4.0371598654548935 8.57069415966428 5.221077890240697 0 0 0
173 2 3.7912905628799463 9.246603691178354 4.525584449568879 0 0 0
174 2 4.986314663114307 8.465287458373682 5.108937833158555 0 0 0
199 1 1.3563955912147907 8.669326005467704 2.5754724439589043 0 0 0
200 2 1.048312451692102 9.408381287930457 1.9944852968725648 0 0 0
201 2 0.7342518977960659 7.9708051398722795 2.444670204586541 0 0 0
202 1 0.26204523774304295 8.589916596005633 7.50377160090165 0 0 0
203 2 -0.6976033973667504 8.477241581984531 7.621673827071654 0 0 0
204 2 0.33314560331227017 9.018348079520855 6.57602467054482 0 0 0
205 1 6.405737887045585 10.226090475660225 2.5048458793091237 0 0 0
206 2 6.598821686698894 9.518735508339907 3.1571098317705513 0 0 0
207 2 6.679854701408792 9.874158025833184 1.6226792803947288 0 0 0
208 1 4.1336155566198745 10.293952560108085 7.51721532857904 0 0 0
210 2 4.191077185624276 9.643942575564663 6.797877588382672 0 0 0
238 1 4.045030727635937 8.173005626635645 1.8048268654175676 0 0 0
239 2 3.1216356248183494 8.210668906321988 2.084854010738857 0 0 0
240 2 4.165231593072628 8.82519084224893 1.06950703623689 0 0 0
244 1 0.8551264851591076 9.73699005538447 5.03257036162613 0 0 0
245 2 1.2285280920728388 9.242842713400568 4.2642954505010815 0 0 0
283 1 10.518633619177972 8.769783721127938 2.6242566288337894 0 0 0
284 2 10.35947128072491 9.094105981206798 3.5509658942287987 0 0 0
285 2 9.93957916974198 8.023095814838172 2.457747662599256 0 0 0
288 2 8.392147165931563 8.35311731203307 7.425593555627867 0 0 0
319 1 6.824856230042171 8.148435219651306 7.976062768677952 0 0 0
329 2 9.55419208318832 9.338774137568334 5.882171106937002 0 0 0
330 2 9.241126223881983 10.443771613440221 4.561228521851033 0 0 0
14 2 5.146135621823533 5.31466865181453 8.722142061524414 0 0 0
66 2 2.8125387659693657 8.09376932776783 8.846036787946646 0 0 0
32 2 2.332879716817674 0.9690968291285021 2.810678612111005 0 0 0
21 2 1.1049912623501554 2.6682544780743727 1.6364039998075408 0 0 0
132 2 11.150796678984136 5.702869088568623 3.0396716342921515 0 0 0
286 1 9.350839759093256 8.756531115623044 7.371752077363623 0 0 0
328 1 9.856376684002605 9.832574316070556 5.032754464463039 0 0 0
94 1 11.110571323400407 6.608951654201513 4.475120256515773 0 0 0
119 2 9.150316861843084 2.075947737087444 8.109093075629126 0 0 0
131 2 11.734703886593753 4.295433989031094 2.771740201597449 0 0 0
161 2 10.68978429631121 3.1989073820787848 5.305135808171768 0 0 0
287 2 9.97538823309384 8.174951046244168 7.823302727957982 0 0 0
96 2 11.427342482935748 5.9542337712776865 5.102965369308105 0 0 0
5 2 4.708239057145085 0.80665209805479 5.158081318789844 0 0 0
324 2 12.712411445999315 7.551601380507069 1.2491722305703723 0 0 0
272 2 10.329188714354489 9.75480321059398 0.8509901908748045 0 0 0
323 2 12.083042392363224 8.514589227036847 2.231618636121548 0 0 0
155 2 13.053461880228198 1.1856831691214231 0.7200528683549468 0 0 0
144 2 10.550160625864198 4.49191290865354 6.876308921386616 0 0 0
142 1 11.439459723848122 4.449937353989588 6.479070079963607 0 0 0
95 2 11.73470458418422 7.387899163208839 4.606829170460723 0 0 0
322 1 12.98998340449593 8.317795896935433 1.8641034146370195 0 0 0
246 2 1.584777751384107 10.371658918353479 5.280320717303489 0 0 0
80 2 6.786955198986796 2.0179922721638617 0.9614310334926445 0 0 0
148 1 11.125909376970121 7.270626163739845 8.57744857970472 0 0 0
143 2 12.01183193438431 3.9742470193411323 7.137752999524742 0 0 0
320 2 6.637544262178405 9.053152170888628 8.39725248825323 0 0 0
63 2 8.565599539967591 6.379270742990404 0.9884532207094753 0 0 0
136 1 12.984053448162742 3.4231596504551427 3.7484890646216993 0 0 0
149 2 10.901644641134984 6.385197583664306 8.897632339153704 0 0 0
256 1 12.81743282420615 8.495737655104211 5.1801439226678525 0 0 0
89 2 12.648157865732871 1.7571759240878415 4.544708444840098 0 0 0
138 2 13.765405004129462 3.017791723091715 3.366322145091897 0 0 0
258 2 12.683849771052868 9.38731116212209 4.778595903905753 0 0 0
88 1 12.724601643557234 0.8724002519093391 4.953326981394298 0 0 0
137 2 13.343187315442275 4.2425625719910185 4.14008462845099 0 0 0
113 2 14.220093274561531 7.268699548603082 2.688786786643113 0 0 0
150 2 11.535496548839241 7.68390889967772 9.382371147113926 0 0 0
321 2 7.111783229145672 7.547774198950421 8.769310951245686 0 0 0
219 2 6.0597089211046935 10.984747451815286 7.056841448219836 0 0 0
83 2 2.2902134004053707 5.684012223878183 1.2062639330730784 0 0 0
276 2 9.401547657874545 9.941719987807522 8.606550033050565 0 0 0
248 2 7.729019478143011 8.448060691911532 0.41717657299108485 0 0 0
101 2 14.339443644766991 5.253438536214327 1.6674618197123798 0 0 0
111 2 12.726397809135957 6.389752597835864 7.749846876089191 0 0 0
126 2 12.98229089823799 1.8273747972388437 6.595636491731447 0 0 0
90 2 13.738345804548086 0.7342977744731883 4.916080394423245 0 0 0
294 2 12.969308120882664 8.987712250946336 7.250075212433615 0 0 0
257 2 13.781452180874926 8.398690323650651 5.315602266000093 0 0 0
235 1 -2.3264255004292207 8.02870573126376 8.405962324751451 0 0 0
152 2 7.189528545780614 0.8646348366624694 7.7207189764688255 0 0 0
35 2 -0.5699039765962017 1.1964964422428062 7.565374125414206 0 0 0
306 2 13.695015039332011 10.520636125858719 3.0721616125486553 0 0 0
585 2 3.5897482699812264 1.8773831239024295 9.124986039956733 0 0 0
304 1 12.94662734857822 10.795288011803882 3.71281327611811 0 0 0
528 2 2.9282148221647497 2.874151582824563 0.5332862788768284 0 0 0
290 2 15.838773824249314 10.858014757582811 2.915298296221058 0 0 0
671 2 8.465070994307046 6.067235865027973 8.904689463251506 0 0 0
68 2 -2.6394941988283995 1.083506885838198 9.065154157916895 0 0 0
167 2 11.063878680841947 5.60720574760952 0.6955498801484293 0 0 0
56 2 -0.6901324507144551 5.053559844404361 3.6100360728603857 0 0 0
253 1 15.594681832145325 8.398178971293712 4.9385328599151315 0 0 0
521 2 2.222431090577965 5.717025075761188 9.069812528350791 0 0 0
192 2 0.4571365632452141 10.02522321779382 8.961096419083987 0 0 0
237 2 14.759272814508673 7.572076786465769 8.103090826964237 0 0 0
55 1 -0.31630210452935065 4.288654667511063 3.14822019916472 0 0 0
209 2 3.5011216232184936 10.946759063437195 7.09860309680538 0 0 0
836 2 12.855702384617913 9.494191728397825 9.290155152107253 0 0 0
16 1 5.8181946582901825 4.78764087718989 0.2626500802768686 0 0 0
236 2 -2.6045649613661426 8.909699397677935 8.771749027981029 0 0 0
124 1 13.14508939022251 2.3474583914558695 7.440575611420192 0 0 0
291 2 15.462215608561035 9.668708375964375 1.9216812096303828 0 0 0
292 1 13.134883517575668 9.90464930730386 7.661764295750935 0 0 0
114 2 15.77769766686274 7.08000849911445 2.7040007096850327 0 0 0
112 1 14.949750939403346 6.6944699135110595 3.0636135639418423 0 0 0
158 2 14.388858410696 5.9796752179158235 4.618783659184767 0 0 0
121 1 15.315046056202782 2.5512147330302306 2.6414386204647218 0 0 0
123 2 15.302880295780062 2.089474965311588 1.7286417286497529 0 0 0
159 2 13.59048080953288 5.651882575904079 6.035358214661022 0 0 0
157 1 13.978615736701345 5.326382790568239 5.197719190022365 0 0 0
220 1 4.038811971836913 10.59378484997355 3.3633137864528564 0 0 0
289 1 15.17964556331407 10.128995019709363 2.7144424381578554 0 0 0
109 1 13.67819321251421 6.267299067868035 7.732207833713317 0 0 0
79 1 7.343731763149856 1.6262944819532155 0.2337845618907403 0 0 1
19 1 1.070818882770379 2.778319286377589 0.6344812048490786 0 0 0
777 2 6.002797919742042 11.166485789071531 9.621374327234474 0 0 0
9 2 -0.7798976200552503 7.1666389872433625 4.8511650193141005 0 0 0
102 2 13.865421525159775 4.187757333524799 0.551234580938554 0 0 0
82 1 2.54566657944771 6.21862089120263 0.4356860992138653 0 0 1
668 2 12.608670062817572 1.9813301319974013 9.14038384133942 0 0 0
154 1 12.690372110292321 0.3670316209266655 1.1793971098301166 0 0 0
156 2 11.987998858109535 0.728392014680168 1.8277402230981938 0 0 0
222 2 3.3596792192040428 10.697082556662632 2.668107339361784 0 0 0
86 2 15.966963695497078 0.06728518194302698 5.065771837145831 0 0 0
254 2 15.920119187350068 9.181705118760766 5.397377837751338 0 0 0
84 2 3.2647222896056527 6.761307496486228 0.7855502404362298 0 0 0
67 1 -2.2707658365455443 0.3590967664754388 8.542086119847253 0 0 0
221 2 4.923981993954502 10.364488112244873 2.802255195082826 0 0 0
87 2 15.653528773276703 1.2636322989414213 4.111752670696321 0 0 0
217 1 6.701807012849794 11.132571230563443 6.323264730387846 0 0 0
165 2 16.646556878175787 0.600561323659954 0.8066178066714979 0 0 0
753 2 3.816341904529774 9.923889858902523 9.10767853365475 0 0 0
122 2 16.144492779331237 3.079352023151005 2.6769736823212313 0 0 0
311 2 11.111604048681558 10.9261299306002 5.810809479044127 0 0 0
305 2 12.343882094805547 11.226396518173068 3.085370505391131 0 0 0
71 2 3.776359952223568 0.1051970657329745 1.5167634198483815 0 1 0
117 2 9.87690612159403 0.6235457482661433 2.718913950142172 0 0 0
274 1 9.45190413392104 10.339290148698195 9.487743549458239 0 0 0
2 2 7.272048698312361 0.41242043666025874 5.180424057160579 0 0 0
584 2 2.651306926840749 0.5904818210249789 9.445515761232397 0 0 0
151 1 6.510071866216657 0.5989810493631785 8.307057215612234 0 0 0
135 2 15.757835935121566 2.504502236369086 5.984441179477248 0 0 0
85 1 15.500138463023426 0.9374582803592277 4.9861783980781995 0 0 0
125 2 14.000616879036352 2.7839437871043327 7.293036630340935 0 0 0
602 2 16.3321523129539 4.533862727554081 0.23201240111145713 0 0 0
399 2 8.201386756419055 0.35645417424448145 1.552792856705663 0 0 0
110 2 13.86831341450761 5.618859700981216 8.512351400065176 0 0 0
22 1 0.5729728558587597 2.8287396415505883 9.660295051238096 0 0 0
293 2 12.505705883432329 10.523992544321521 7.266876272153009 0 0 0
103 1 10.350394002299657 2.8564528905779083 0.4932133520371405 0 0 0
100 1 14.474231613236087 4.95325265507174 0.7290084343153688 0 0 0
134 2 15.138881351526999 3.9366959849816348 5.867705128629756 0 0 0
780 2 13.137178737189622 9.886617186081725 0.6475261741069429 0 0 0
309 2 7.815257386098617 11.235109801317574 3.049762495529769 0 0 0
485 2 10.652970059957118 0.21269951356833625 7.48985152470148 0 0 0
302 2 15.10468369388812 10.779505650898066 7.290194245574769 0 0 0
670 1 8.05700428954391 6.60050691802215 9.647155821559254 0 0 0
13 1 5.070396139734334 4.947010787579025 9.635608379411014 0 0 0
775 1 6.659859150498244 10.431029034534825 9.651832985927117 0 0 0
224 2 -0.13486525495459833 10.98408931830107 4.2822745692452955 0 0 0
401 2 1.5621083907888105 0.30812912335685816 7.820616488336621 0 0 0
70 1 4.202785256646591 0.40553923199460373 2.3241676804564277 0 0 0
776 2 7.516272829211407 10.696593782048735 9.360348581308818 0 0 0
133 1 15.623175503387559 3.3766073795125866 6.501809058424084 0 0 0
301 1 15.790360533468244 10.781226337259547 6.572166433922647 0 0 0
696 2 4.618250385176156 10.757463526810671 0.23896069977174814 0 0 1
255 2 15.274903130396869 8.806292717145976 4.112690713681293 0 0 0
146 2 17.225376108459894 6.207749679767761 1.262782837682809 0 0 0
147 2 16.940836530661624 7.778598753229767 1.1608012543865482 0 0 0
145 1 17.29430981266485 7.0584188356609845 1.7621528682314478 0 0 0
15 2 4.074725822710779 4.947265987187935 9.67621012665093 0 0 0
587 2 -1.6928754321878117 7.051785495714144 9.555631466984742 0 0 0
486 2 11.311097285515725 0.3077343592546221 8.908702155932822 0 0 0
331 1 15.925865982383073 8.824857317380246 0.29288300295613173 0 0 0
20 2 0.5609530290912923 3.6474853955294315 0.4941776092043006 0 0 0
163 1 15.904163811467875 1.1172160469689558 0.4213298926375292 0 0 0
520 1 2.3920045597565625 5.010152229434242 9.741004778472695 0 0 0
108 2 8.42295610456386 2.816848836257968 9.644288966474592 0 0 0
526 1 3.850320880704332 2.721219296922188 0.25441383965659303 0 0 1
24 2 -0.32713154576198517 3.1932382006039 9.682993665797426 0 0 0
612 2 11.969528460196084 2.9089627994998835 0.25094576074471536 0 0 0
104 2 9.807840551044956 3.657071420117404 0.258560081181208 0 0 1
749 2 -2.137809640821369 10.703223990529478 15.0732851951608 0 0 0
107 2 9.52814003324766 1.8932340745664695 10.28404959415918 0 0 0
607 1 6.738997614995633 2.769859982878224 9.912061600547377 0 0 0
797 2 10.723551702618202 10.561240711565224 16.790251133935488 0 0 0
740 2 -5.298834504388706 7.3269799376746185 18.62072205752328 0 0 0
693 2 -1.3496045868559643 10.240648257237986 9.885281076295483 0 0 0
571 1 -5.57953271736567 0.6511124214022701 17.99913836107876 0 0 0
903 2 4.2694553296190705 0.15221529185337707 10.808733124633576 0 0 0
583 1 3.153671621951764 1.3587131190926895 9.880416517558873 0 0 0
536 2 -2.4651998960771557 0.7420731270986389 12.237162119229948 0 0 0
524 2 -2.8161127233568215 3.5152741588511804 10.202890866821498 0 0 0
721 1 3.511811714967367 10.971975360038051 16.05040881057973 0 0 0
188 2 -5.709931572828324 9.561848119668866 18.523010306839137 0 0 0
527 2 -2.954113345070774 2.4386476520345766 18.424421597290205 0 0 0
191 2 0.52299100804171 9.637101674777977 10.381716194132409 0 0 0
189 2 -4.629553585032632 10.465192803215746 19.174182935349243 0 0 -1
620 2 6.3543311530414 0.5269239531618006 12.14173670287197 0 0 0
694 1 -2.908076539114022 10.426028364035247 19.181219236815284 0 0 0
505 1 3.309623227961684 1.2557900531467736 14.168026829535973 0 0 0
506 2 3.686446968324193 1.8620533594314563 14.86871660390639 0 0 0
537 2 -1.021563668418745 1.1474926014110662 11.944909054098323 0 0 0
508 1 0.5991108033033854 1.0876434241525865 14.599513810263737 0 0 0
672 2 8.781228255622727 7.15557030681906 10.013984500637617 0 0 0
510 2 1.5601681921253945 0.8458091585391124 14.463893601770293 0 0 0
511 1 -3.9592582581662477 6.368366337729263 14.680600881215076 0 0 0
512 2 -4.118268666563076 5.585631535744353 14.102437063905993 0 0 0
513 2 -3.901575005556017 6.029298516217674 15.572828506939448 0 0 0
514 1 -1.185818787680978 6.474266937468472 14.257871398470675 0 0 0
515 2 -1.0441223124396783 5.697732310632462 14.868013061985254 0 0 0
516 2 -2.17089253679835 6.471805542377526 14.196026076650849 0 0 0
810 2 8.679068870738556 11.229929686728092 12.71947721540316 0 0 0
519 2 1.7692503932664436 5.464260265856516 18.236802926399058 0 0 0
828 2 8.86607866261028 8.666380864749609 11.8709742292462 0 0 0
522 2 2.251664559589855 5.49840693981138 10.558645656594276 0 0 0
724 1 0.8582810197729251 10.843210006386537 13.197570563336896 0 0 0
249 2 0.6679665023902397 9.677180626836622 18.4192237811827 0 0 0
105 2 3.3080133268365706 2.2126769517773837 19.01743184906738 0 0 0
798 2 9.545714803760116 9.726260299846608 16.26003060439218 0 0 0
779 2 6.366875397555138 10.120966051863748 18.200996961389166 0 0 0
529 1 1.3582733219256349 6.17242411831761 16.713992623985025 0 0 0
530 2 1.5499398245450633 5.8721384774903616 15.787074286277269 0 0 0
531 2 0.4185124867335078 6.410983764007336 16.820058706030416 0 0 0
532 1 2.374500495279325 6.678681993388353 12.131436844515408 0 0 0
533 2 3.348129391777318 6.850174648682497 11.871141717478032 0 0 0
534 2 2.4127509060620085 6.26841553585755 13.01446571647654 0 0 0
535 1 -1.7861205456791143 1.403515121785783 12.458654672211267 0 0 0
593 2 8.509918815217839 0.3777078262517501 14.632196703973204 0 0 0
610 1 6.293595656505589 2.9986880121459 19.132396613340408 0 0 0
538 1 -3.005844485413711 1.2449438772122594 16.98390984238623 0 0 0
164 2 8.507232262127419 0.7242527747533679 19.09450406406021 0 0 0
540 2 -2.9266585234691442 1.7418174308265113 16.122199235694215 0 0 0
541 1 3.1290866339472623 2.979604447570529 12.073301711206197 0 0 0
542 2 3.456883580387588 2.222112624889172 12.605123842055741 0 0 0
543 2 3.099362598504375 2.635638459018424 11.116099820772119 0 0 0
544 1 0.7765204116434867 2.6144092544523083 16.66522192857889 0 0 0
545 2 0.5315690089456425 2.1886478365294777 17.523292383802975 0 0 0
546 2 0.6663260448273645 1.9257855032798772 15.908713840612231 0 0 0
547 1 -3.606265865601471 4.9256876575245805 17.019907617351876 0 0 0
548 2 -4.191652933792594 4.226227661805842 16.839761697464517 0 0 0
549 2 -3.8317072617938477 5.169104051559149 17.978371256725573 0 0 0
550 1 -1.5332657727894592 4.885481164451301 12.143831829227612 0 0 0
551 2 -0.9282104538439275 4.161402525863872 12.374052217164117 0 0 0
552 2 -1.3249975900198045 5.556504347350083 12.8185977379014 0 0 0
553 1 3.0523386423127543 3.6622067585831175 15.778641983727713 0 0 0
554 2 2.3575342550576743 3.220984251118742 16.311283335028737 0 0 0
555 2 3.7748223445700173 3.909959615486371 16.412461935510503 0 0 0
556 1 0.47203158715584764 3.097259774818652 12.942177336539888 0 0 0
557 2 1.3867384508079748 3.1591793171019993 12.663593168276327 0 0 0
558 2 0.3634243588315905 2.300137406629502 13.545355184175694 0 0 0
559 1 -4.003086963523316 4.130923281072978 12.919695289804139 0 0 0
560 2 -3.189308806102168 4.485771639417363 12.49842916799179 0 0 0
561 2 -3.466575659068457 3.517988555459455 13.527398128521154 0 0 0
562 1 -1.0529554335143878 4.315475919911732 15.81888637150123 0 0 0
563 2 -0.3424979623205309 3.777178807398004 16.316086563363402 0 0 0
564 2 -1.7250752964620801 4.636438820308366 16.402120779060738 0 0 0
565 1 4.697287920864906 7.343352189490628 11.151637013847381 0 0 0
566 2 4.431778603153883 7.996928716555071 10.433531817469744 0 0 0
190 1 0.2656959050551613 10.398862526464145 9.831474998860513 0 0 0
568 1 -1.055267722000305 7.086647427729287 17.564473211494892 0 0 0
569 2 -1.195671538769034 6.367509210865812 18.206049665361213 0 0 0
570 2 -0.697085481721218 7.897275651869251 18.06705369924083 0 0 0
588 2 -1.328191011545472 5.724490233711032 10.476773543114335 0 0 0
572 2 -5.769088558432178 1.4090462582387937 18.585833914282908 0 0 0
827 2 10.191520602564971 7.801730693176349 11.58218760137321 0 0 0
906 2 -1.6382246139973156 0.256464192482643 17.346505224748025 0 0 0
576 2 0.7788385227110373 1.3097322479626077 10.635654671690903 0 0 0
577 1 1.8175753677043287 5.361289526734803 14.261014881533702 0 0 0
578 2 1.039997360926654 4.9160684747100065 13.82365319396647 0 0 0
579 2 2.4544872252683985 4.685002592751405 14.574851566745012 0 0 0
580 1 -2.5451379247653154 2.5782308851304463 14.636475073463368 0 0 0
581 2 -1.9832415972909678 2.2178289630617085 13.894573048919671 0 0 0
582 2 -1.9420499730537126 3.1549179420576 15.127470329449832 0 0 0
669 2 11.977880701804427 1.9602253045627431 10.630979370086122 0 0 0
23 2 1.2575236387952173 3.424376618016877 9.90147120653933 0 0 0
589 1 12.083522205440213 1.2282210422945021 14.3874847593424 0 0 0
574 1 0.5272656557318129 0.4881381844452098 11.11233720466344 0 0 0
591 2 12.361278443148482 1.9055819872645217 14.991699601972057 0 0 0
592 1 9.144065403950973 1.1232542481080734 14.814162826036732 0 0 0
826 1 9.522384255594046 8.448391282265225 11.22740066007388 0 0 0
594 2 9.010191102611945 1.8175510254708167 14.152612004719964 0 0 0
595 1 5.014880106819845 6.622237555949293 14.998518065974963 0 0 0
596 2 4.733767137064301 6.106236244659324 15.847222542311913 0 0 0
597 2 4.916661989333452 6.020200582966772 14.289238120428289 0 0 0
598 1 7.835658104976588 6.6001638571648495 14.71414948033654 0 0 0
599 2 6.960388668102 6.76357148357498 15.106396735533387 0 0 0
600 2 7.632354934354627 6.370225122295876 13.760967896973224 0 0 0
794 2 12.379875502867662 11.100967180009116 12.672741032580229 0 0 0
590 2 11.253636723154685 0.8673390685118096 14.682455396518115 0 0 0
655 1 3.7270672315466387 0.8962987498334318 17.950792254844135 0 0 0
605 2 11.26050135591808 5.252152999050164 10.641048998921821 0 0 0
832 1 6.44262306574307 9.952053815312855 14.812721450117989 0 0 0
658 1 9.287218558856338 0.3482820980471672 11.141908217516228 0 0 0
825 2 3.1724075415037425 8.596635770126074 17.981591516942295 0 0 0
609 2 6.612447713514677 2.3322093130447445 10.768644260148134 0 0 0
691 1 -2.319495279138242 10.085018453937044 10.088665518499472 0 0 0
611 2 6.337971383723219 2.6529758048470593 18.211735570611168 0 0 0
613 1 10.356989401056595 6.3313786332608375 16.736310314866827 0 0 0
614 2 11.048489984306853 6.979145807779317 16.870575035458003 0 0 0
615 2 9.504694893720725 6.848850786119459 16.909390781746076 0 0 0
616 1 11.454012976387451 6.295828468619347 11.940480898575231 0 0 0
617 2 11.325251783197222 5.902876427447436 12.851170406785057 0 0 0
618 2 12.384629048989801 6.5385290249285335 11.833087530098613 0 0 0
619 1 6.936849154861521 1.30424713503914 12.192721558895071 0 0 0
586 1 -0.9390188835691378 6.39907626527984 9.856193435027821 0 0 0
621 2 7.86199987626923 0.9846648853667196 12.049972835022343 0 0 0
622 1 6.045888107674022 1.4742169881471918 16.694857379389173 0 0 0
711 2 2.327492489268207 10.35332558513622 12.487261038022057 0 0 0
624 2 6.136633298362254 2.0143505956093826 15.918957313419947 0 0 0
625 1 11.48174345166364 2.883069986899868 12.023691357491886 0 0 0
626 2 11.534188305419383 2.2512563907779697 12.736136584515704 0 0 0
627 2 12.089006733389757 3.592749728529345 12.310225563747784 0 0 0
628 1 10.003906579296311 2.4192056621432445 16.819505105491558 0 0 0
629 2 9.63710610812838 2.2476250361909424 17.698889243198906 0 0 0
630 2 9.661940125169687 1.6930993525152698 16.261345704781238 0 0 0
631 1 5.391467614327942 4.8417201340811715 16.916426557190196 0 0 0
632 2 5.430997045781408 5.2304207849505415 17.811992800991025 0 0 0
633 2 6.306631817832373 4.53988771697075 16.79825425231253 0 0 0
634 1 7.449056767281326 5.3270655007581205 11.972760858003127 0 0 0
635 2 6.5222638983080445 5.060836836435455 12.111780185255347 0 0 0
636 2 7.484110540231275 5.764789933858279 11.133736485773227 0 0 0
637 1 12.41893639878413 3.3731900361586784 15.993088864681079 0 0 0
638 2 12.065327041696445 4.061741116827553 15.365562694698543 0 0 0
639 2 11.512837754338928 3.01829603678635 16.275454312393325 0 0 0
640 1 9.043416334948029 3.3946715941881807 12.934304805017625 0 0 0
641 2 8.436017597925577 4.056867362499795 12.485185428930714 0 0 0
642 2 9.791710792449585 3.3283331396588123 12.291877956199325 0 0 0
643 1 5.049393236572451 4.6025271768805505 13.17456842460253 0 0 0
644 2 4.292921055005997 4.164032364405257 12.735949322446844 0 0 0
645 2 5.427901582296036 3.894181600691201 13.767512386205215 0 0 0
646 1 8.020795737977208 4.0626025386374245 15.97987079621854 0 0 0
647 2 8.868663552974125 3.7858291121227543 16.36415029523284 0 0 0
648 2 8.189002892886334 4.881381420956786 15.483707324102653 0 0 0
649 1 14.123642299627921 7.1000892484861255 11.272762420405432 0 0 0
650 2 13.659493785934615 7.844225722164326 10.800761445007627 0 0 0
651 2 -3.123079260977876 7.613199868719005 11.85463049648278 0 0 0
652 1 8.049773129115927 7.064457165458458 17.946346911146374 0 0 0
653 2 7.224835222906915 7.358765583942703 17.530666652125 0 0 0
654 2 7.797397037828767 6.294284643965233 18.592817590437203 0 0 0
332 2 9.65530594828343 9.535198940717564 18.688436089330654 0 0 0
601 1 10.559718319481078 4.971763544180528 19.18800398965459 0 0 0
661 1 10.742326732787385 5.171704502470558 14.301030516465552 0 0 0
662 2 10.459124091213576 5.594805110081098 15.146342660419652 0 0 0
663 2 10.042353519171757 4.5047501958467855 14.12122730054475 0 0 0
664 1 6.4184479597346895 2.7797065971265824 14.358699289979501 0 0 0
665 2 7.259150061597764 3.182764621723143 14.652431960545554 0 0 0
666 2 6.563804175378266 2.078857882272059 13.660553940473383 0 0 0
507 2 3.9034721023005208 0.44766858891253564 14.23791004758226 0 0 0
98 2 14.190221090287324 5.759880793339447 10.422081310283685 0 0 0
809 2 10.033789551057062 10.577059816326775 12.676067377412602 0 0 0
673 1 3.4519148755998126 8.684011419143491 14.471566380664736 0 0 0
674 2 4.080731198075131 7.862644366194433 14.694798329641394 0 0 0
675 2 3.4450573877768442 9.31871363010779 15.206118605052609 0 0 0
676 1 0.6814020073371474 8.53792721675411 15.101906276091595 0 0 0
677 2 1.5526266927287713 8.29621483752217 14.75145773142873 0 0 0
678 2 0.02969297244600419 7.86888981854955 14.821448675937157 0 0 0
525 2 -2.205928380710186 2.5202363373485497 11.163187740115092 0 0 0
808 1 9.255944289096472 10.701107610635793 13.257575668793537 0 0 0
539 2 -3.9456113376678035 0.9045068215484223 17.044011193827522 0 0 0
807 2 12.326776719052425 10.233874942852504 15.410621046622776 0 0 0
695 2 -2.995241619006869 10.153116221554779 18.226373301052966 0 0 0
608 2 6.1531058024662455 3.5646095710876793 9.80482771897823 0 0 0
703 1 -1.8964094882284606 8.909413436232867 12.530794216418306 0 0 0
704 2 -2.1097149247867546 9.302302197403801 11.711426778439948 0 0 0
705 2 -0.9380973531342347 8.715459725120898 12.38200854732616 0 0 0
706 1 -3.316907053093672 8.86675157995983 16.924840072124482 0 0 0
707 2 -3.19079716637062 9.018574540803789 16.026094768911477 0 0 0
708 2 -2.7997907533725575 7.995586216590689 17.022156843176987 0 0 0
709 1 3.2785530044829714 10.13454229279943 12.250705498231005 0 0 0
710 2 3.528906677666498 9.56113843646308 12.996749826745239 0 0 0
17 2 -1.4943692441334402 4.1943416681335615 19.222959919457587 0 0 -1