LAMMPS data file via write_data, version 8 Apr 2021, timestep = 43127000

576 atoms
2 atom types

0.3266208158082751 17.59338018419262 xlo xhi
0.12161981581067922 17.388379184193113 ylo yhi
0.47162081580740606 17.738380184195407 zlo zhi

Masses

1 16
2 2

Atoms # atomic

224 2 2.910262253943066 3.424657790608234 2.7540812500880927 2 1 -1
354 2 2.080053093346826 1.6443586623197337 3.043473529469303 -1 0 1
340 1 1.3840985366724803 3.197917227408244 3.811315537143765 3 -1 -2
223 1 3.5409753996123055 3.9796368732680074 2.2115331711117228 2 1 -1
342 2 0.5708896799549467 3.354013602041952 3.2478667869924673 3 -1 -2
341 2 1.2128688859792522 3.601135213482881 4.685154828088818 3 -1 -2
225 2 4.403005097347556 3.9078345378065102 2.648281040805687 2 1 -1
352 1 2.398909886195793 0.8199394585722637 2.605618313374722 -1 0 1
365 2 1.3319482955225228 0.43997913228254754 1.2064717937672265 4 -2 2
378 2 4.0402499677931525 3.438654662897503 0.5151526717405018 2 0 2
94 1 7.784424446938338 0.9221939856817554 1.836448714233949 1 -1 1
563 2 5.950322438880531 3.145190136205671 4.293653161938551 1 0 -3
390 2 6.183389080250499 0.872630394547767 4.551644309853704 2 2 0
562 1 5.8484110766431465 3.7223909680016174 3.5002619089341214 1 0 -3
317 2 7.375232224198342 4.356813584482657 2.755968193358978 2 3 0
95 2 8.292080707652708 1.6939347160950964 2.1229494044120085 1 -1 1
96 2 8.468861843450064 0.35796247681313204 1.4544763556510876 1 -1 1
174 2 2.3078611609571884 4.785493460348063 1.4640696310590087 3 1 0
507 2 0.3914137697004288 5.677448072561866 4.329709384204667 0 -1 3
323 2 4.164196251938911 7.908658760101366 1.6250444163099345 -1 1 0
153 2 2.158767404436241 6.348068228959901 4.767324658839736 1 1 0
151 1 1.7383747837321302 6.580001381488136 3.933586919129386 1 1 0
152 2 2.163948086496329 6.23189867675804 3.122252852446102 1 1 0
575 2 0.5550177346201932 7.954361524687349 3.329230031591088 -1 1 1
172 1 1.5413111707413807 5.386388577563043 1.329836983442699 3 1 0
409 1 2.902167693701897 8.57983892873029 1.1334082426182515 2 3 -2
32 2 2.6247334085999983 8.387286849952707 4.307104139056016 -1 -1 -1
173 2 1.7438951676371994 5.907762022682381 0.5353922781350875 3 1 0
322 1 4.964262722735129 7.3633516275606405 1.731274741295875 -1 1 0
324 2 4.98199485085495 6.856938262310915 2.585600292513736 -1 1 0
316 1 8.195267838331082 4.731395506546551 2.3483770356507874 2 3 0
424 1 5.3839851454771885 6.177664054097495 4.420870722290287 1 -1 -1
564 2 5.745269674587004 4.677575692073381 3.854066121681966 1 0 -3
426 2 6.197331901207014 6.66517985666461 4.722341526409452 1 -1 -1
17 2 5.7015508632573635 8.66830155978159 2.543056097161423 -1 1 2
318 2 8.447886436852134 5.586229652448987 2.7370287678044662 2 3 0
411 2 2.828131299172934 9.506059153716347 1.479243815284602 2 3 -2
496 1 3.540706552732034 10.964290752463215 2.553616410249063 -2 -2 -1
498 2 3.4341205916792323 11.749160282426818 1.941893087087012 -2 -2 -1
170 2 1.7976800090944567 11.403323033153105 3.4940188913750143 -1 -1 3
497 2 4.498143402073631 10.742336760358377 2.446465057360168 -2 -2 -1
33 2 3.066135124125007 9.869216080060667 3.9531972949696232 -1 -1 -1
171 2 0.5350088174714962 10.804178630110828 4.138199766348204 -1 -1 3
328 1 0.3576309821040771 10.410772962955821 1.1297876819300248 4 -1 -2
169 1 1.033538702981889 11.631024237234675 4.007706277677976 -1 -1 3
31 1 2.849605204010126 9.284769192336338 4.704677782762712 -1 -1 -1
422 2 3.7719622591573687 13.027247519605451 0.5265764131186335 -1 2 0
52 1 8.690394141539084 10.14660388094628 2.582118569603276 -3 -1 1
18 2 6.831755804128312 9.852411479546536 2.6194789499180033 -1 1 2
16 1 5.994693302850231 9.51734898263488 2.9599984679086484 -1 1 2
263 2 6.075663124324186 12.785860569548717 1.7165028198632277 -2 0 0
23 2 6.940143952344647 12.969657384024833 3.7085759782729806 -1 0 0
272 2 5.702477180877566 9.422433003893163 4.779612958019283 3 2 1
262 1 5.865925589288977 12.609850205553736 0.7560253876931596 -2 0 0
141 2 0.635400482359553 13.283867994419651 3.28572257405354 0 2 0
421 1 3.271758049976283 13.279553981651995 1.3178942461442993 -1 2 0
353 2 2.0532917448905943 17.37971196030389 3.2239827420091105 -1 -1 1
186 2 3.5767655260081956 16.49310561354129 1.8973024830098313 2 0 1
285 2 1.49959346069094 15.272289701383066 3.842759307717891 -1 4 2
185 2 4.058334175725605 15.078469212875207 1.901049694616732 2 0 1
283 1 2.223717997646806 15.880100592081595 4.069513790112181 -1 4 2
423 2 2.447604101734423 13.58905218070522 0.900160215858124 -1 2 0
184 1 4.313918610473643 15.976936803467348 1.7179983854655878 2 0 1
545 2 0.965830340166494 15.429150176951016 0.5351679445884836 2 1 2
544 1 0.8467380706589229 14.488667081893123 0.715472604924335 2 1 2
284 2 3.028287994875112 15.313096988803347 4.289755398517214 -1 4 2
371 2 6.783330649061672 17.27419509951313 3.08795344619339 -3 -1 0
370 1 6.216763555276747 16.782092689210735 3.706671816506777 -3 -1 0
138 2 8.699181146666747 15.021749435122958 1.056862671972061 4 -1 3
287 2 7.698456352904559 16.299978877259406 4.646746392032292 3 -2 0
22 1 6.695009997240016 13.716913278498811 3.1367119551565064 -1 0 0
372 2 5.51132527903856 16.336924305093206 3.191752881146624 -3 -1 0
24 2 7.480320725774471 14.192988094328523 2.8043856465464154 -1 0 0
113 2 5.319465789972124 14.177182547898235 4.478634316573648 -6 0 -1
161 2 2.663626705725963 2.8621563895281823 6.546081593299042 1 2 1
282 2 2.9738788552900193 0.7710539205791873 6.580196387383072 0 -1 0
160 1 2.1574131007832866 3.692009543688815 6.705697449976018 1 2 1
280 1 3.60052534277571 1.5347495254513832 6.505213818349725 0 -1 0
338 2 4.1580399642808334 2.137538081382731 8.06623527518679 1 0 -2
281 2 4.285531477811414 1.4234867913385483 5.820247014883375 0 -1 0
337 1 4.528519296543032 2.6072706799213368 8.918397938226905 1 0 -2
162 2 1.862144255364966 3.634837218600692 7.643709386557254 1 2 1
339 2 4.356492121134212 3.6019622632749297 8.831848895376533 1 0 -2
388 1 5.98862982729861 1.6227006603450895 5.186903853354227 2 2 0
40 1 8.273272858589639 0.1838879902423861 7.477348128459125 -1 1 -1
41 2 7.7649385812504494 0.8511416669674741 7.954078291941351 -1 1 -1
389 2 6.754475038921692 1.9596927526254624 5.710046449640853 2 2 0
180 2 7.346533811976003 2.8442708005771498 7.560413815559472 2 1 1
178 1 7.473327400751021 3.2712451973676884 6.632046368973846 2 1 1
179 2 8.428065993169495 3.254956952684826 6.414760123545277 2 1 1
79 1 6.884577894571344 1.9587201347850276 8.887369685452203 -2 0 2
81 2 5.946898267874994 2.1473986890354264 9.016376877144186 -2 0 2
363 2 3.9530884377107705 5.883589691258842 8.558780922806323 1 0 0
163 1 3.64409299449541 7.476330837476979 8.151244401977978 0 0 -2
83 2 3.0355948972653914 5.004219220894089 6.360489528895991 4 -1 -2
84 2 3.349696012168012 6.515240522539843 6.712486259013239 4 -1 -2
82 1 3.2607684980956213 5.914565877176798 5.973583343492307 4 -1 -2
165 2 4.482518595805086 8.107823600537525 8.095659678040606 0 0 -2
164 2 2.755667817376195 7.921899149044554 8.186876254847137 0 0 -2
20 2 0.7259174404366572 5.045017381230003 8.660934439767734 1 -1 2
229 1 0.8984756488932062 8.352643309273445 7.764171599444174 0 0 -4
230 2 0.5097837300562569 7.4876465197116735 7.5986006440454545 0 0 -4
231 2 0.6352671600120633 8.429795679416536 8.724825126374787 0 0 -4
93 2 8.032715781762986 6.031982127250245 8.731030792189578 3 -1 2
425 2 4.658338833144449 6.173630531125464 5.119303882321574 1 -1 -1
361 1 4.648628252671324 5.17026189968813 8.893125038553233 1 0 0
45 2 8.439310535880663 6.588114803485397 5.13808474439115 -1 1 0
362 2 5.448918183082759 5.437148368433703 8.368349531363572 1 0 0
43 1 7.648105247527886 7.127300800072491 5.209979169275752 -1 1 0
491 2 7.011022613033925 4.762798215292158 7.166382014741419 1 -2 -2
490 1 6.900427177658968 5.685514839585005 7.516614151333294 1 -2 -2
492 2 7.115475181579977 6.290080223635155 6.7679497394933055 1 -2 -2
44 2 7.974769302969741 8.059963030209907 5.330059646155912 -1 1 0
99 2 2.40150400157129 10.105821556075902 6.780340193097386 4 2 1
97 1 2.4772622748678144 10.80101310224384 7.438865640249691 4 2 1
209 2 3.35566527600324 12.147135674008805 7.027284350558206 2 1 1
98 2 1.6052855149183503 10.910925458104254 7.795324538308923 4 2 1
273 2 4.421851986709292 9.58135686376442 5.408877299151833 3 2 1
208 1 3.959894763444402 12.942931469858769 7.044750830864255 2 1 1
210 2 4.576173282014938 12.790949059482777 7.86329771208063 2 1 1
419 2 0.4604226327181604 12.570413957160834 5.74742185604294 3 3 -1
109 1 8.756550388620367 10.130829186782723 8.166733663992675 -3 -1 2
291 2 7.734159917233329 11.311648605270328 5.405987685157129 3 1 4
393 2 5.965686623671267 9.309031391628396 9.003981719266093 0 2 0
391 1 5.7234521661898015 8.926264763021768 8.160522142808743 0 2 0
392 2 5.749521434056226 9.6501531101661 7.459635521262337 0 2 0
271 1 5.3284494389478505 9.816919741805652 5.536775469524974 3 2 1
290 2 6.209927182796139 11.192692982049278 5.2518001894129895 3 1 4
289 1 6.965646257194759 11.825257687465065 5.324341344301076 3 1 4
512 2 0.7719728129917962 16.75521155977351 6.717718392510759 -1 -1 3
114 2 4.328350730380853 13.769073721957424 5.677059731035366 -6 0 -1
511 1 1.7456551053854679 16.840405562178745 6.542842140451081 -1 -1 3
188 2 2.6316522128577957 14.111435920898064 7.689343416221558 -1 2 -1
189 2 1.6980832094809277 15.365099982015508 7.472573654308217 -1 2 -1
513 2 1.8740402769817384 16.382511326953576 5.664969712647616 -1 -1 3
187 1 1.7275484545357576 14.391048632495451 7.7303390214507335 -1 2 -1
112 1 4.557067355123259 14.492011819609953 5.025153975864469 -6 0 -1
420 2 0.6294386797232245 13.698343840053258 6.831164893392346 3 3 -1
286 1 8.485691676754726 16.101461577024196 5.143339844405541 3 -2 0
275 2 5.6446847423591615 17.095407375383385 6.420725411777617 0 -2 3
274 1 5.545948843443023 16.25151776662743 6.845188390717351 0 -2 3
276 2 5.033588627882996 15.695120342127117 6.152860694175159 0 -2 3
344 2 7.072638315681244 13.178399357941876 6.513341801910894 -2 1 2
306 2 6.209600549963275 13.454437976096619 8.439232621449037 -4 -2 0
530 2 4.855266736819053 16.221790379928283 8.386336625142215 1 -3 0
345 2 6.604532218560508 14.725468841962723 6.753510318615785 -2 1 2
288 2 8.241314170818217 16.53414606969683 5.993803117671087 3 -2 0
343 1 7.06300462656145 13.891744962607827 7.142592996708397 -2 1 2
249 2 8.571642507507125 16.350149355232805 8.980742706472782 -1 -5 -3
129 2 3.6171694737396978 1.6631586670454002 9.894239161186539 0 1 -1
132 2 4.023188998737469 1.2343622075685692 12.213562988438719 2 1 2
127 1 3.131331215813409 0.8916387906045232 10.356534791998154 0 1 -1
526 1 0.5840080470528803 0.9818149100516416 11.588247096587066 -3 2 1
130 1 4.220157147687957 1.489112633621569 13.14317146711879 2 1 2
528 2 1.3561257944049014 1.0083930652346043 11.029073640246356 -3 2 1
527 2 0.697761609221223 1.7660488992893097 12.199800695003923 -3 2 1
216 2 8.538554524324699 3.224735388199118 11.393363883438823 3 2 -2
540 2 7.023995672710576 0.801648279537629 12.429282744283205 -3 -2 2
131 2 5.270742826575971 1.407949208784826 13.08062267899812 2 1 2
214 1 8.933232438137471 2.660866341774113 10.69822718376386 3 2 -2
538 1 6.87000742081445 1.5525936299755716 13.022222047916104 -3 -2 2
319 1 8.075037698814617 4.327501927980831 12.716629122437034 5 -1 -3
80 2 7.407474465567495 2.1906530478957413 9.700296843987868 -2 0 2
21 2 1.7596233459068436 5.158434669819215 9.852954326399065 1 -1 2
571 1 2.096515209468864 6.28589700780849 11.159026877779208 0 -2 2
573 2 2.891405257618777 6.843657588836813 10.977989344807025 0 -2 2
572 2 2.020472145219983 6.049690414441096 12.112051558811462 0 -2 2
533 2 4.192234644071689 7.580072847172749 12.524577639214264 0 1 -1
532 1 4.3897794520285744 7.681986406425172 11.587294611204555 0 1 -1
452 2 0.5807897205782018 7.605223714618996 10.890212077349075 -1 1 0
19 1 1.2919408978023184 4.448091834298881 9.263951486218621 1 -1 2
294 2 4.710388114194173 4.625036612648217 12.981822756545544 0 0 -6
534 2 5.342197455190285 7.472496075683582 11.541474974749725 0 1 -1
91 1 8.611467346452075 6.157211773612037 9.556804805201237 3 -1 2
401 2 5.187517046697022 5.055148661853561 10.71818865838848 1 1 -1
402 2 6.5469809955047475 4.800391609840898 11.520143224244261 1 1 -1
400 1 5.570074772255579 4.667401069029107 11.504928488659452 1 1 -1
457 1 7.273430932427754 7.567482598366675 11.934362819039235 0 -1 -1
459 2 7.541192482153906 7.493427017903684 12.884364921236072 0 -1 -1
458 2 7.858747872015115 6.9827265542991235 11.445289806660869 0 -1 -1
320 2 8.609503695439523 5.042908402238747 12.989021611955565 5 -1 -3
551 2 4.344496372679616 12.056906892152938 11.851906468605042 1 -2 -2
475 1 3.841432083958809 10.540519797135325 10.678236536800613 -1 -1 -1
476 2 4.281956964371972 9.73229626611674 11.025470156494759 -1 -1 -1
240 2 2.2513406453932645 10.363414300638233 11.525393956873152 -2 0 2
238 1 1.2751884051586382 10.408563890498307 11.70114844670303 -2 0 2
239 2 0.8053663002688536 11.156484706287431 11.24589739903362 -2 0 2
550 1 3.9965964223992057 12.920343987031362 12.281928744126462 1 -2 -2
477 2 3.615421118328679 10.409101485699127 9.760878146602654 -1 -1 -1
332 2 1.0130282629970313 10.514775700007641 13.385181893821464 0 -2 -1
50 2 7.448260419938571 9.013902003721308 10.828176879712636 1 1 -1
49 1 7.132394551335185 9.81695993323065 10.389556456608641 1 1 -1
408 2 6.679818018148521 11.356407200450926 11.010755742286788 4 3 -4
406 1 6.690275233764998 12.23382524020122 11.440147117958137 4 3 -4
407 2 6.887682581361125 11.900284450552958 12.407651156444825 4 3 -4
126 2 8.135202939280068 13.001717196356232 10.714795632479825 2 0 3
51 2 7.655808569839497 9.970898186634136 9.565422251293121 1 1 -1
128 2 3.482984940635279 17.353898021784143 9.936089879003271 0 0 -1
417 2 1.6762756496092743 15.308360610199285 12.020133273634139 0 1 1
495 2 2.1533944626592665 14.749899215825009 10.01384338082261 1 0 1
494 2 2.8237463487383354 13.750230370534823 10.904745850792986 1 0 1
493 1 1.9287240745455378 14.139185088933882 10.771174194493808 1 0 1
416 2 1.1937491326826313 16.739206787055192 12.531159913632816 0 1 1
415 1 1.3263085415337814 15.790629140322785 12.776580228100691 0 1 1
414 2 0.7306615787833266 13.094812190269613 10.81595629770292 -1 -2 0
529 1 4.543146208868405 16.057307498772673 9.373062848990173 1 -3 0
305 2 5.752548660802036 13.15471835847719 9.938498644069519 -4 -2 0
304 1 5.436789008785734 13.562306626474536 9.106407309005911 -4 -2 0
552 2 4.773404883055582 13.4981599210025 12.372873489032004 1 -2 -2
76 1 5.710654775040482 15.109761769082654 13.002398762327049 -5 1 0
77 2 6.01024465951475 15.788743045793606 12.366641435617485 -5 1 0
147 2 5.969435221438025 16.780638558400803 10.43862660610963 0 -2 0
146 2 7.42066489051162 16.584594128974963 10.93026636294019 0 -2 0
145 1 6.523710413164967 16.853323849237395 11.272844278784554 0 -2 0
531 2 4.770425360829816 15.099450916574316 9.430699247780725 1 -3 0
247 1 8.689692928663101 16.055766010657162 9.890620799596421 -1 -5 -3
248 2 8.925420326264927 15.121777579941906 9.821675165983427 -1 -5 -3
293 2 3.987385163735199 3.2992081110805205 13.486822872727044 0 0 -6
292 1 4.13166309514339 4.244524646119373 13.687806112876759 0 0 -6
74 2 1.7167576783567227 2.50616585705067 14.294089425676386 3 0 1
69 2 2.881459278264849 2.0740208024537234 16.021182541421584 -2 0 -1
67 1 2.2496192765706042 1.474449242675116 15.607042419324259 -2 0 -1
68 2 2.7407267725760365 0.7971570544958713 15.10159584397171 -2 0 -1
376 1 4.072576754064952 2.982987405412118 16.916138894865338 2 0 1
75 2 1.2689270317285448 3.7244983939057326 13.497741349730207 3 0 1
73 1 1.266554493253651 2.751741496823357 13.476870655416093 3 0 1
366 2 1.1911455897026575 0.4143394645863855 16.956340341183445 4 -2 1
321 2 7.615314093620103 4.101349088829301 13.569385734673057 5 -1 -3
539 2 7.6507965273535845 1.7858417881774662 13.584813676408919 -3 -2 2
228 2 6.842070956923496 1.5195785888039475 17.55735630964884 -3 -2 0
377 2 5.013931241034392 2.597011891723609 16.80694103144803 2 0 1
226 1 6.374916216349476 1.4862732695635255 16.665678655968236 -3 -2 0
227 2 5.9168510207442875 0.6045849623133676 16.63012652298362 -3 -2 0
192 2 7.160752768248554 3.3972564910552903 15.533532796611885 -1 -2 0
191 2 5.880275466612037 3.629285769650062 14.673629034046732 -1 -2 0
190 1 6.6992728096274705 4.080479461376595 15.059173140903415 -1 -2 0
434 2 8.491377525845962 4.208414600453114 17.609679350256464 -1 -1 1
201 2 4.142693643628628 6.088048551039646 17.37264876203286 1 -2 0
200 2 3.8127488094875224 4.966159074643966 16.36763638495017 1 -2 0
148 1 1.5769379122828666 5.471295568076198 13.489969624349836 4 -4 0
150 2 2.49527297281131 5.137298861290548 13.774378785143984 4 -4 0
135 2 1.3324283313223082 7.614035873424248 15.76174852499872 -1 -3 0
149 2 1.2251407117466733 6.044718761817412 14.249457005380046 4 -4 0
482 2 4.076392348174792 6.690618257016984 14.937426122264833 1 -1 1
199 1 3.597294779151807 5.876484106860894 16.563051695075877 1 -2 0
481 1 4.45960365006598 7.4304065727760635 14.364696898539343 1 -1 1
133 1 0.8350497869092708 6.798729048306271 15.62689709990486 -1 -3 0
569 2 3.1380814387784652 8.427544832818446 15.102920500733964 1 -2 -3
410 2 2.6741305502427646 8.66522051240916 17.471866393746467 2 3 -3
234 2 7.763505424295203 7.834461329856409 17.570138141825154 1 -1 1
232 1 6.912687528235422 8.03057866162238 17.071136761601018 1 -1 1
431 2 6.91735597136605 6.044969607403975 14.769102282377297 2 3 1
430 1 7.254725045843345 6.959728166697447 14.639333042650614 2 3 1
432 2 7.33493437643508 7.257636201512775 15.580830409461111 2 3 1
483 2 5.409482446309874 7.31425277715975 14.511683302584053 1 -1 1
233 2 6.203345017972762 7.747599014915133 17.66782684982964 1 -1 1
236 2 2.832843325122187 12.984831270021537 13.682159536135591 1 -1 -1
568 1 2.551902296414768 8.958100796976854 15.659627450004363 1 -2 -3
331 1 1.0525090815684868 10.625131968553072 14.353775770976839 0 -2 -1
333 2 1.5160995427147326 11.44316142754242 14.48198255952083 0 -2 -1
570 2 2.1186437764732378 9.557779937714495 14.986816109872121 1 -2 -3
442 1 3.766253124434305 11.56335288899426 16.499624949854226 -2 1 1
443 2 3.2992664952283377 10.78381874399373 16.206732632186288 -2 1 1
237 2 2.913276129111194 12.747907872617361 15.270046886766353 1 -1 -1
235 1 2.347590994769514 12.985190476771242 14.532671508200705 1 -1 -1
444 2 4.634619787950695 11.167267449952895 16.636098677551747 -2 1 1
373 1 7.917922286321118 11.675612887451305 14.057836907603068 -1 3 -1
375 2 8.060638361771753 12.640789628506656 14.215213579087877 -1 3 -1
467 2 6.833086300352144 9.800628235761742 16.824435243983633 -1 -1 -3
466 1 6.837097935743347 10.743798318676584 16.497371094845523 -1 -1 -3
374 2 7.395204510346623 11.34074332577181 14.784810112619514 -1 3 -1
468 2 6.524678412762321 11.393650274321958 17.184606519977386 -1 -1 -3
364 1 0.8426974984508537 17.21126110662778 17.728390397006216 4 -3 1
122 2 4.571229172006586 16.06881720662118 15.875099988003207 -2 -1 -2
9 2 2.738857207628594 16.079827699411734 13.943787886940031 4 -1 0
7 1 3.5608779975916356 16.440513401549502 14.301188669439423 4 -1 0
8 2 3.8207278385678283 17.348460380453147 13.941284287220256 4 -1 0
311 2 6.671184698760127 15.24956401988133 16.81898868919599 2 0 2
310 1 7.441890888303688 14.666526508351858 17.057959710077263 2 0 2
78 2 4.9297288979286735 15.467234256132613 13.464714071707984 -5 1 0
121 1 5.194879659561772 16.236186131750305 16.5690936444016 -2 -1 -2
177 2 8.416882531899486 15.039195245125919 14.409701989196263 0 -3 0
312 2 7.787042851959022 14.35330583550166 16.18072404180017 2 0 2
176 2 6.997491426156537 14.577386478275024 14.030055705655409 0 -3 0
175 1 7.865484117476449 14.2619845786213 14.388598122298744 0 -3 0
123 2 4.82262386108986 16.115598507695086 17.486620325883354 -2 -1 -2
264 2 6.551855885793784 13.2196099995717 17.644828047687636 -2 0 -1
555 2 10.71759398818729 2.0754800168597227 2.9407161600051444 0 1 3
553 1 9.800586240946194 2.318008496980041 3.101880433626546 0 1 3
358 1 12.276131767263784 1.2634317845032652 3.216011969214255 -1 2 0
360 2 13.007033788035512 1.4334994962408336 2.548250350595451 -1 2 0
359 2 12.66257193990513 1.1896015297546827 4.11211325115839 -1 2 0
537 2 11.937347794595883 3.633233523671483 1.4102965133356824 -2 -2 0
351 2 12.916651428352004 3.7955509462234747 3.9550193829009945 2 3 1
554 2 9.759385742245062 3.1358664999352586 2.619423234914919 0 1 3
535 1 12.181063324018227 4.157495900466589 2.196653239565127 -2 -2 0
325 1 16.678920510877894 3.9024378236585693 1.6931760854682538 -1 -1 2
142 1 16.4315697548925 0.8646795340682902 3.553996336938809 -1 1 -1
144 2 15.94375011183765 1.1007520948658254 2.769384356915155 -1 1 -1
471 2 15.867409451861944 2.198157093898214 4.529450136230426 1 -1 -1
211 1 14.2964433422856 1.6857457512116139 1.6123169593933206 -2 -2 0
212 2 14.578007592724664 0.8299182667173293 1.2104741011804958 -2 -2 0
470 2 16.213594106866765 3.707212350350495 4.78149028839965 1 -1 -1
213 2 14.319796312264288 2.365541596870793 0.8950440727376927 -2 -2 0
143 2 16.056639529827176 0.12808911002656842 4.045633966603077 -1 1 -1
326 2 16.209059530442456 3.8354948291785185 0.8763271952248847 -1 -1 2
536 2 13.068864208673354 4.4968449994719375 1.9423073896826786 -2 -2 0
462 2 11.742080691958671 7.374832677710839 2.1559205588521406 -2 0 -3
460 1 11.170718586596957 6.686867103090264 2.585400302696231 -2 0 -3
461 2 11.623200992075704 5.807458427349195 2.3728929858218257 -2 0 -3
36 2 9.710172374363973 7.212178001999255 1.8285484230921574 0 3 -3
396 2 10.43728461548128 6.4668109115486905 4.351016815197629 1 1 5
34 1 9.127211758944027 7.766300742491182 1.3228992305827167 0 3 -3
35 2 9.01988122455787 8.589337452612568 1.8902002234722843 0 3 -3
57 2 15.249603271950704 4.812263168281757 1.9607706912820702 0 2 -1
55 1 14.476973050046704 5.335348661579891 1.8357062345266715 0 2 -1
56 2 14.704771819995178 6.278587660547759 1.7313121592907166 0 2 -1
265 1 14.9129635675379 7.985379369366185 2.0551905675804214 -2 -1 1
405 2 14.498288601736563 6.872455116191621 3.739633234103333 -2 -2 -2
266 2 14.039330281040888 8.413524014292967 2.29300601796455 -2 -1 1
267 2 15.676476101292238 8.390902375750581 2.542077957894217 -2 -1 1
574 1 17.182598786964707 8.702066463537355 3.2465907871337816 -2 1 1
327 2 17.402532370890665 4.537947000207969 1.5045951580447654 -1 -1 2
403 1 14.436508778750873 6.49360227569097 4.611323862502529 -2 -2 -2
404 2 13.817494396916215 5.746592224952171 4.588258393574875 -2 -2 -2
193 1 12.49924626914462 9.074412471989884 2.3306201145695957 -2 -2 2
472 1 9.877160572491094 12.290955391220555 1.6374804531169977 0 -1 -1
15 2 10.677520658437711 12.55481599607768 3.4139058637918915 0 2 0
194 2 12.291479050773237 9.414577078580907 3.2197268424898304 -2 -2 2
474 2 10.372953667928282 12.333076924433355 0.792392358270006 0 -1 -1
13 1 11.29876292935992 12.855479631930956 4.070744971981436 0 2 0
195 2 12.45805756995537 9.88868954565895 1.7668869709239305 -2 -2 2
556 1 11.745543421313515 10.107538139839326 4.752116851266485 -3 1 2
557 2 11.850539841548084 11.056960314903344 4.444749082342225 -3 1 2
54 2 9.153241646916204 10.91825555030748 2.0699946686843367 -3 -1 1
53 2 9.031453087350974 10.303237112184842 3.516388563327744 -3 -1 1
103 1 15.305182867369979 11.729184481043841 2.1253964328168724 2 0 2
105 2 15.03741858591608 11.579831639641759 3.031411549237843 2 0 2
104 2 14.59736681486106 11.442002518230325 1.533981129610624 2 0 2
330 2 17.04954626687774 11.075041569638554 1.427764020374893 3 -1 -2
313 1 14.568367711961148 11.113581767210642 4.685674203995039 -3 -2 1
576 2 17.537846552249416 9.212019841230372 2.476298508428595 -2 1 1
308 2 10.715920682518437 17.12791919866153 3.2725415265816484 1 -1 1
307 1 10.498086667912869 16.200503422727227 3.354604139792533 1 -1 1
309 2 9.828196045444635 16.199442453930416 4.046402223170096 1 -1 1
26 2 12.349457028315463 15.40531553197115 3.370881635095409 0 -2 0
27 2 12.749016904907265 13.978557359994769 3.6595707723885744 0 -2 0
25 1 13.123680561636762 14.827920849548153 3.3739509914494343 0 -2 0
136 1 9.15377066435959 14.718511321634294 1.8829450352476849 4 -1 3
137 2 9.667992364570518 15.388912385784643 2.450272141068161 4 -1 3
473 2 9.568134170083392 13.2042200423196 1.7766025855242187 0 -1 -1
48 2 16.4623556856528 16.884988812725048 0.5422357231569147 -5 2 -2
46 1 15.479245602684845 16.80356378191792 0.5787607371170416 -5 2 -2
120 2 15.331211061737065 13.39067538442313 1.6844674667360975 0 1 0
254 2 14.715515418965019 15.18264710515085 4.172372654312218 0 -1 -1
255 2 16.21311772605339 15.197429995894597 3.7871192302683347 0 -1 -1
119 2 14.26843641486392 14.429916577072408 1.9614506268975511 0 1 0
118 1 15.022511912243502 14.259346494103681 1.3790526175632585 0 1 0
253 1 15.563261279295087 15.692109109769309 4.405544770601025 0 -1 -1
139 1 17.583713846014398 14.21124637869728 3.2658128617962108 -1 2 0
47 2 15.3423017012587 15.969133352447512 1.1186127317298828 -5 2 -2
140 2 17.572122349742774 14.413796035601521 2.283432442688207 -1 2 0
269 2 9.672348881793381 2.99131418149939 4.794259529478695 -3 2 4
59 2 11.19214431962801 4.278582814169208 8.85666293640177 1 1 0
268 1 9.90487988174321 3.4120541597867198 5.696062027947765 -3 2 4
516 2 12.269466151425762 1.1630134904192135 6.255105123340088 -2 0 2
252 2 10.57621956717965 2.3841444364722735 6.911703746365114 0 1 3
250 1 10.686870896183208 1.4551048830361593 7.300628534970844 0 1 3
251 2 11.299480262112294 1.464411238732452 8.056828164152808 0 1 3
42 2 9.182457698727367 0.6081915622150901 7.482215438800318 -1 1 -1
514 1 12.98894839434945 0.7616385264005262 5.7682059769039125 -2 0 2
449 2 12.597267951647394 4.046789750345688 6.577039047116431 0 -1 -1
270 2 10.19379504736881 4.3120111809545945 5.556623861171735 -3 2 4
349 1 13.256682787930702 4.078372780210989 4.796413138906655 2 3 1
448 1 12.373232955507834 4.395833995775046 7.448247286104152 0 -1 -1
350 2 14.144274224066178 3.7034965940003706 4.897656357964324 2 3 1
469 1 15.595268428142253 2.9950148682657596 5.040059525778124 1 -1 -1
515 2 13.761615585112375 0.9677520471189286 6.271128942810675 -2 0 2
501 2 15.49192656217671 2.303856280354366 6.489993294940302 -1 0 -1
499 1 15.329838740669608 1.561380826119775 7.169129188399988 -1 0 -1
500 2 15.84391404808082 1.9216419264659934 7.895165089295599 -1 0 -1
450 2 13.161663995401963 4.681800297543457 7.938585275934757 0 -1 -1
394 1 10.121302132191323 6.045071950587406 5.150971626348818 1 1 5
438 2 11.6222508607998 6.368942920943302 7.630254597380478 2 0 -1
395 2 10.700929753590698 6.458309284083885 5.853788565782146 1 1 5
436 1 11.267598687525958 7.201575672376929 7.254383173049045 2 0 -1
437 2 11.914964036810211 7.78236929308398 6.815463867733939 2 0 -1
158 2 10.45173101529726 7.78843854721944 8.629885177566257 0 0 -2
506 2 16.158294278098836 5.7142128174210605 4.798433008436528 -1 -1 3
505 1 16.984443094669313 5.241802702123881 4.9251876949164295 -1 -1 3
64 1 14.814979976510044 5.540882078596875 8.700122339077042 -2 3 -3
429 2 17.309071175736594 5.476983368201984 6.629097232611002 -1 -2 2
427 1 17.25771234383801 5.758423119921599 7.555703945151411 -1 -2 2
428 2 16.305808577636082 5.593557157210828 7.793501584232537 -1 -2 2
518 2 13.821261239363496 7.6690428712162655 5.554318282849238 -1 -3 -3
517 1 13.382482188125616 8.269461756533259 6.228874988738885 -1 -3 -3
519 2 14.08128778204712 8.63953250826712 6.8015593067356654 -1 -3 -3
65 2 14.758551859544754 6.415978138374905 9.060341788903033 -2 3 -3
334 1 9.071918640013672 9.497239301013494 5.484157881072193 0 3 -1
335 2 10.013864947250337 9.542918399789198 5.176804628455701 0 3 -1
382 1 10.318398045758451 12.37019380495434 8.266056933033646 -1 0 -3
384 2 11.310043041286772 12.391860968023126 8.128090375403069 -1 0 -3
558 2 12.602426140257403 9.902245128934467 5.198720404227264 -3 1 2
106 1 13.19802734507058 12.026526577448658 8.11852251210817 -3 -3 -1
110 2 9.334379569677205 9.540415201461867 8.66977875788975 -3 -1 2
111 2 9.17278398062783 10.97982044132807 8.227162907665766 -3 -1 2
336 2 9.212904560731715 9.788941052709252 6.414569823385334 0 3 -1
302 2 16.983115957450895 9.300110946349117 4.848948735540606 2 -3 -2
447 2 14.701642611765815 9.46106765014335 9.016427898016586 1 0 2
478 1 17.2182915239298 11.307331770227226 8.471318509030146 -2 -1 0
314 2 15.399126390667218 10.7152343223929 5.036512930919027 -3 -2 1
315 2 14.458639793351097 11.958408743203606 5.199155601771232 -3 -2 1
446 2 15.694281025820542 10.481197238977572 8.252826166447278 1 0 2
108 2 13.522057694417084 11.101828961861408 8.09176695794771 -3 -3 -1
107 2 13.833377379298614 12.411617468571935 7.460145075780169 -3 -3 -1
445 1 14.865183201676285 10.00335038816869 8.201725038888034 1 0 2
301 1 16.668238201983193 9.758587335659206 5.692281066717045 2 -3 -2
303 2 16.985619649280068 9.292607426331172 6.501343263744053 2 -3 -2
479 2 17.037404164979133 11.951187587943858 7.775845681648609 -2 -1 0
167 2 12.705844539314352 16.32295324381963 6.327403477166999 0 -1 -1
14 2 10.821802134885393 13.229766388634573 4.851456906408584 0 2 0
166 1 12.797682323835865 15.435415029980742 6.767187416262856 0 -1 -1
454 1 10.30975879109959 14.056591735539302 6.266221524507754 3 2 -2
455 2 9.662867976679506 14.807173012667224 6.131055526562566 3 2 -2
168 2 11.97635738496948 14.944424751378389 6.6607719344818905 0 -1 -1
456 2 10.022209257559133 13.328387065238205 6.892650072661672 3 2 -2
369 2 16.391360767706704 15.407096135489095 8.857478360777414 -1 -6 5
202 1 16.382745542041004 16.38573376618745 6.97785041675813 0 0 -1
222 2 13.948263345130048 14.190599323676109 6.344418753436927 2 1 -1
203 2 15.929564603614518 17.256304756901326 7.070323282107737 0 0 -1
220 1 14.470028839730134 13.417049162704014 6.138237878335743 2 1 -1
204 2 16.215618545494326 16.061789509500915 6.0770939362951655 0 0 -1
418 1 17.209281623482575 13.091562686569272 6.369472142798533 2 3 -1
221 2 15.420623276407015 13.53665620434992 6.003761384446839 2 1 -1
257 2 13.316879965526265 15.814139418516785 8.299627321188341 -1 -1 2