LAMMPS data file via write_data, version 3 Mar 2020, timestep = 12950000

2016 atoms
2 atom types

0.0000000000000000e+00 1.7917635470672625e+01 xlo xhi
8.0272426182762757e-02 4.4915887550709854e+01 ylo yhi
0.0000000000000000e+00 1.9055957862886117e+01 zlo zhi
3.9894273000118677e-02 -6.6418016813789187e+00 -2.1466743059598059e-02 xy xz yz

Masses

1 16
2 2

Atoms # atomic

173 2 1.8756216435033721e+00 4.9223247715905307e+00 2.6136540828238868e+00 1 0 -1
223 1 -1.4397177749159589e+00 3.3326527988155408e+00 1.4424500325225644e+01 -2 0 -2
1600 1 1.4676948710623803e+01 1.0611202792901768e+01 2.3507668472354548e+00 -1 0 0
164 2 7.2299003326144362e-01 6.6194468646454725e+00 1.7901971296856953e+01 2 0 1
1163 2 7.1225688095873778e+00 7.5993044830331700e+00 3.2028737491968973e+00 1 0 0
98 2 8.6955061759392578e+00 8.2257477504523155e+00 7.2404826016508911e-02 0 0 0
929 2 -1.3139247972461958e+00 2.3828057884916216e+00 1.0550793627224195e+01 1 0 0
228 2 4.8229025524105289e+00 4.7633624912135231e+00 1.6615160208336377e+01 0 0 -2
70 1 1.0434131219019569e+01 1.0325723489955140e+01 1.6924673644590747e+01 -1 0 0
438 2 1.2835502748736642e+00 1.0067360623949254e+01 1.5949678799693714e+01 -2 0 0
299 2 1.0978931208463594e+01 3.8895502131670834e+00 1.7112862488749450e+01 -3 0 -2
685 1 -2.9135864014832702e-02 5.2179621966398679e+00 7.6908501940685605e+00 -3 0 1
808 1 -1.3034081781596298e+00 1.0746275863532711e+01 1.4238382354836556e+01 -3 0 -1
322 1 8.3096666189209518e+00 1.0593689376134893e+01 5.1981036027153351e+00 1 0 -1
941 2 6.1692941285098080e+00 7.7641352198744142e+00 9.8556776475909160e+00 -1 0 0
631 1 3.0198762270460930e+00 2.1089995282283377e-01 1.5571610268450479e+01 -3 0 -2
890 2 1.2982673098194107e+01 9.7200406930622918e-01 4.4734990977513931e+00 -1 0 0
983 2 3.6940895542345302e+00 7.6089312749997839e+00 1.2093291900788293e+01 0 0 0
66 2 1.3337501772437193e+01 7.6848633561360034e+00 1.2618827524267379e+01 -3 0 -4
319 1 1.6852368120542689e+00 9.5056629537110755e+00 2.5864230266033585e+00 -3 0 -2
998 2 -1.0766824109753323e+00 8.4571718230186672e+00 1.2549826547104434e+01 -3 0 1
841 1 -1.2738489552871526e+00 9.8925078496072105e-01 1.5833276911295277e+01 -5 0 -5
799 1 9.8555087484197266e+00 6.7506803728375600e+00 4.8987245558563375e+00 0 0 -3
901 1 1.1092974132402393e+01 9.4132431368555238e+00 1.4545094162486027e+01 -2 0 -1
462 2 1.2298464518553962e+01 1.0722731385994441e+01 1.2023543237068880e+01 -5 0 -2
295 1 7.7714850266709501e+00 2.9107377324367860e+00 9.5561137733481889e+00 2 0 3
310 1 8.5821262904218880e+00 9.2079114308490482e+00 7.2914055098409811e+00 -1 0 -2
687 2 2.0802002746033699e-01 5.5006197679247508e+00 6.7826128179700458e+00 -3 0 0
982 1 3.0023571237665312e+00 6.9289332736668250e+00 1.1989593032035241e+01 0 0 0
65 2 -3.4853644355386919e+00 7.6741111064513543e+00 1.3686774337349110e+01 -2 0 -4
33 2 2.3236801754633163e+00 5.1355444942072532e+00 1.4393193680376138e+01 -5 0 -5
80 2 -2.0191810683236917e+00 6.7834566590949361e+00 5.8606834584449290e+00 -4 0 -2
833 2 2.1807937114870244e+00 2.2222545196167030e+00 5.1377986787853924e+00 -4 0 0
530 2 8.1544811931868395e+00 1.5537959291157732e+00 4.0729915347461638e+00 -1 0 0
718 1 9.2095012192132870e+00 5.2197782373960422e+00 1.4403256192311090e+01 -2 0 -3
62 2 8.4400621890227754e+00 4.8835618051318921e+00 1.8845535375326836e+01 -1 0 -2
889 1 1.3746436815709950e+01 1.5753680359367479e+00 4.7309393707390663e+00 -1 0 0
121 1 5.7161256868447934e+00 1.0691899205926084e+01 2.5170025715412421e+00 -1 0 0
654 2 1.1740130671590684e+01 6.4218724343908562e+00 1.1204240152176599e+01 -3 0 0
153 2 1.0517208190826993e+01 2.3863543842366384e+00 1.5195389799104089e+00 3 0 0
31 1 3.2381229226081389e+00 5.4268673733864361e+00 1.4522213983844798e+01 -5 0 -5
723 2 3.9608887474961714e+00 8.0638015028228338e+00 1.6178034574959877e+01 -5 0 -3
212 2 1.8833582190743381e-01 3.3974054247562520e+00 4.8934478445817851e+00 -4 0 -2
381 2 1.4471985102689585e+01 7.2049077393540211e+00 2.4622000713977075e+00 -3 0 2
502 1 4.4611851399832307e+00 1.2390688547113844e+00 9.5796673308026872e+00 0 0 -1
152 2 9.6668831845713434e+00 1.6092212009715732e+00 2.6079723935947450e+00 3 0 0
441 2 -3.2178929399658833e+00 3.5037534915831134e+00 1.4571467740014333e+01 -2 0 -1
151 1 1.0528041241976393e+01 2.0171240911559156e+00 2.4541938405401038e+00 3 0 0
114 2 1.2204285641310346e+01 1.0892375650643492e+01 7.6553036689011282e+00 -2 0 -1
332 2 -3.5911975562085336e+00 9.3488182924897067e+00 1.7928803440596152e+01 -1 0 -2
463 1 4.6221464155930123e+00 1.0777174323865566e+00 1.2684582598425488e+01 2 0 0
248 2 6.0503546278079039e+00 6.1031518467902153e+00 1.5245079069087438e+01 1 0 -1
383 2 8.4443510423866446e+00 1.0486046890057324e+01 1.1358554336911775e+00 -2 0 1
240 2 1.3985496454635804e+01 7.1357140466649085e+00 7.0453031082291302e+00 0 0 0
1665 2 6.2365007866499873e+00 8.8292382837297492e+00 1.9941860475058923e-01 -3 1 0
978 2 4.9493277004647860e+00 2.2776684141774894e+00 1.6304662633853940e+01 -3 0 -1
54 2 7.0648049321402873e-01 5.4935836503396693e+00 1.5297128436855253e+01 2 0 -1
844 1 7.5988367347105159e+00 3.8126016870775197e+00 1.7602748843240708e+01 1 0 1
689 2 8.5158867112529979e-01 8.2811872715363961e+00 1.3477130707784942e+01 -2 0 0
380 2 1.5492868283073967e+01 6.5312130987910049e+00 1.5122409800699517e+00 -3 0 2
577 1 4.9491448785003360e+00 9.3963606111732112e+00 4.7774726113289132e+00 0 0 1
702 2 4.3588932584096849e+00 7.1920392839767038e+00 2.7851728368626465e+00 -3 0 -2
52 1 6.5331715893476439e-01 5.2063013022814388e+00 1.4392550585343235e+01 2 0 -1
548 2 1.4801815596748229e+01 8.5700533317981780e+00 5.3752962712572510e+00 -3 0 -4
4 1 7.6806540830170111e-01 6.5976399117246842e+00 5.2455256694339729e+00 1 0 0
653 2 1.0839612619168971e+01 7.1777010253446170e+00 1.2230574179654353e+01 -3 0 0
876 2 -1.9028054013274120e-01 4.9474235027450302e+00 1.1702008662192416e+01 -3 0 0
552 2 8.1098395135696038e+00 9.1948260868833316e+00 1.5276528653774321e+01 -1 0 0
917 2 2.5808976651391249e+00 1.5936158800229905e-01 2.8504603853589030e+00 1 0 3
600 2 -4.1596130801570119e-01 2.3706699046927411e+00 8.3984353069176372e+00 -3 0 1
930 2 -7.8533584934003642e-01 3.7791100755479570e+00 1.0088791695352121e+01 1 0 0
693 2 9.9240651827723436e-01 3.7740915890068116e-01 9.5612413983734736e+00 1 0 2
524 2 9.2517181925186094e+00 7.6813631423152025e+00 1.6593730821704046e+01 -2 0 -4
38 2 7.2747186006682210e+00 8.1171599241480035e+00 6.8562790820704969e+00 -4 0 -3
747 2 1.5748496156827436e+01 5.4442966189495241e+00 3.8677030771559733e+00 -3 0 0
938 2 1.7165793873958779e+00 2.2989470840397703e+00 1.0910133060750910e+01 2 0 1
951 2 -3.0310879046448522e+00 1.3845329891063016e+00 1.6807103004338394e+01 -1 0 1
984 2 2.1124416509800419e+00 7.2660869024013914e+00 1.2268861049976534e+01 0 0 0
622 1 1.9087879035580415e+00 2.8048030051298496e+00 1.0078898098672733e-01 -2 0 -1
624 2 2.6252162840023110e+00 3.1898342935787456e+00 6.7098812640959282e-01 -2 0 -1
538 1 1.2993796313041779e+00 1.4664546304030273e+00 2.2489640828846733e+00 -4 0 -3
925 1 1.0657825439458511e+01 1.8557463859008756e+00 1.4698494890535594e+01 1 0 2
331 1 -3.3914776407232861e+00 8.8527600858567705e+00 1.7102552654858833e+01 -1 0 -3
85 1 1.0321977202829039e+01 1.5360347085880350e+00 1.8990594601590765e+01 1 0 -3
599 2 -5.3827744936590149e-01 2.6573258990970752e+00 6.7283876776639344e+00 -3 0 1
520 1 1.3558774725638818e+01 3.6360714896030188e+00 1.1146050669956429e+01 -5 0 -2
82 1 1.0882519047589492e+01 3.8843846004974503e+00 8.0000959104141298e+00 0 0 -2
183 2 1.1896902829117131e+01 3.7496773070077793e+00 5.1246635844894053e+00 -1 0 0
465 2 3.8834583457532066e+00 5.6670970670321374e-01 1.2333352481711609e+01 2 0 0
507 2 1.0540672387648547e+01 8.7669431951982908e+00 1.8208673858788234e+01 -4 0 -3
603 2 4.0372329710196624e+00 8.9712005452790375e+00 9.6211207351542729e+00 -2 0 -1
671 2 -6.0637481379316984e+00 5.2780286863543946e+00 1.8435678065580458e+01 -3 0 -2
135 2 8.7040228147827321e+00 4.9476518327163079e+00 1.1680658042703996e+01 1 0 -1
778 1 1.2705425624603246e+01 7.2967559414126866e+00 3.3137425628232240e+00 1 0 1
392 2 2.3663817704601300e+00 9.8690644751577583e+00 1.1159068034352082e+01 -1 0 -1
840 2 7.3452079740187770e+00 5.1112406272303774e+00 7.5840020798058925e+00 -1 0 -2
157 1 3.1011988810330253e+00 4.6235484187731180e+00 1.7296370377338672e+01 1 0 -1
69 2 7.1070458584282150e+00 4.4569363233587858e+00 5.0254600067612474e+00 -2 0 -2
640 1 1.1302483913834074e+01 2.8388652705845248e+00 1.2337044565586805e+01 3 0 -1
753 2 1.3734887500198541e+01 2.4909418324311816e+00 7.7095036286254945e+00 -1 0 2
453 2 8.5672458481352187e+00 7.8635849603187156e+00 1.2558965589622732e+01 -1 0 -4
529 1 8.2085725935972782e+00 8.9296685319555058e-01 3.2999948703917230e+00 -1 0 0
765 2 7.4258893288673367e+00 1.0999218473688828e+01 9.1640917655360070e+00 -5 0 -4
611 2 -9.6208374459410106e-01 8.9939401156129666e+00 4.0357555444869817e+00 0 0 2
589 1 -2.4810871857040175e+00 4.6127945738683360e+00 8.1825951814615223e+00 -4 0 0
46 1 -3.3007765954113735e+00 5.4554262562626761e+00 1.6382881143252671e+01 -3 0 -1
866 2 1.2862196610017746e+01 5.7322443394662779e+00 5.8130453407477587e+00 -4 0 0
528 2 5.3081176937985326e+00 1.0483887468220634e+00 5.3830465625182997e+00 -2 0 -1
838 1 6.5572189450133251e+00 4.8287253921033280e+00 8.1548497960048394e+00 -1 0 -2
470 2 1.6721380760208930e+01 4.4823013022363742e+00 1.0708373154398954e+00 -7 0 -2
471 2 -2.5070181984479634e-01 4.1801760028635275e+00 2.3693702741022156e+00 -5 0 -2
550 1 7.8281207573793061e+00 8.5186340388658888e+00 1.5920463247163818e+01 -1 0 0
209 2 4.1194858457930943e+00 6.9643327838753972e+00 1.9002901983482637e+01 3 0 -2
418 1 9.3382683102345698e+00 6.7815687212220421e+00 9.3562443067249905e+00 -3 0 0
871 1 6.2464588792310387e+00 1.2581328907830125e-01 6.3334350229316776e+00 -2 0 -1
686 2 -9.9475506990545504e-01 4.9208197545511014e+00 7.5621987840036988e+00 -3 0 0
459 2 1.6139942211011025e+01 6.0708542876824378e-01 2.9336911877486931e+00 -3 0 -2
111 2 1.0143607739910765e+00 2.8043824001583078e+00 1.5692873935005974e+01 1 0 -4
763 1 8.0171028337931531e+00 1.0418760883752583e+01 9.6956378071131120e+00 -5 0 -4
556 1 3.7910697469411665e+00 7.1907834269020245e+00 7.2539801842206977e+00 -1 0 1
534 2 6.8888080615723908e+00 6.2923616977948837e+00 1.1404389443618349e+01 -2 0 -1
703 1 8.0838597654829538e+00 1.1064830323944204e+01 1.7695826688562800e+01 -2 0 -1
601 1 5.0216362796336496e+00 9.0523711473910673e+00 9.6154355875165560e+00 -2 0 -1
846 2 7.4657343771811462e+00 2.9197571663486004e+00 1.8014753525075665e+01 1 0 1
623 2 -4.3200381815249109e+00 2.3496511817513599e+00 1.8363080072665195e+01 -2 0 -2
274 1 7.5944635380929855e+00 1.3552292646219164e+00 1.8968657694517088e+01 2 0 -1
672 2 -5.4046872407965649e+00 4.0474340239100481e+00 1.8336052573116614e+01 -3 0 -2
927 2 1.0460886191354845e+01 2.4799984408620181e+00 1.5441917114711393e+01 1 0 2
1668 2 6.0869415395371407e+00 6.1490761097320616e+00 1.7168596903156221e+00 0 1 -1
805 1 1.3922436710072889e+01 8.8082174637279742e+00 9.7557276190352997e+00 -5 0 1
716 2 9.1933263343905516e+00 6.0004685236849618e+00 7.7918057289290088e+00 1 0 2
717 2 9.3744191968606856e+00 6.0711491500979857e+00 6.2525047774244404e+00 1 0 2
475 1 1.3554385642663174e+01 1.8433465816208119e+00 9.4292568375029404e+00 -1 0 2
904 1 1.1194721306213632e+01 2.9235057255857875e+00 2.2171896701193586e-02 -3 0 2
976 1 4.9974740130667898e+00 1.4870811991663999e+00 1.6888961522066051e+01 -3 0 -1
779 2 1.2402252231422159e+01 6.4615462724748083e+00 3.7554349641007239e+00 1 0 1
177 2 7.6221682232360877e+00 3.0553843636096252e+00 1.3241437413623867e+01 -5 0 1
290 2 6.6677228081620079e+00 3.2188630376855376e+00 2.6127484163941208e+00 0 0 3
1162 1 8.0134479022006779e+00 7.9711960023123689e+00 3.5528076762773249e+00 1 0 0
51 2 5.8976330018129604e+00 6.5944193755331098e+00 1.8083702581461299e+01 0 0 -1
920 2 1.1865658996986788e+01 1.5576676516886365e+00 9.3528402161242585e+00 0 0 -2
531 2 7.3528162605608678e+00 5.7571060959375098e-01 2.9743918741547337e+00 -1 0 0
715 1 8.8563093005573634e+00 5.5883106239766640e+00 6.9595355268068717e+00 1 0 2
280 1 -1.3452939414500671e+00 3.8320588417084536e+00 1.7619616975455823e+01 -2 0 0
973 1 4.8686009085028026e+00 1.1088786422190894e+01 1.1195422499683112e+01 -4 0 -2
513 2 7.8656684335031191e+00 2.1106798178665773e+00 1.5235440276741832e+01 1 0 0
184 1 5.3353650774036581e+00 1.5444616958466399e+00 1.1856228150477263e-02 -4 0 -6
76 1 7.8256296713592306e+00 1.0616520833720021e+01 1.4158189610794883e+01 -3 0 -3
281 2 -1.4838843519389862e+00 3.0644009690472851e+00 1.8241040278085070e+01 -2 0 0
555 2 1.7349278807445510e+00 4.0220611482124742e+00 1.2163846431124687e+01 -5 0 -2
451 1 9.4310812010408647e+00 7.5430402328268089e+00 1.2930553215572472e+01 -1 0 -4
710 2 -1.1043844142447012e+00 9.6516485455123444e+00 1.0331091776257759e+01 -2 0 -2
743 2 3.4306981292580119e-01 8.9111289182453959e+00 7.1138019147616642e+00 2 0 1
845 2 8.4026872185266992e+00 3.7301432465175610e+00 1.7081320075988980e+01 1 0 1
312 2 8.2500127245045256e+00 9.8149499503980842e+00 6.6086523390441467e+00 -1 0 -2
785 2 1.2396351877116476e+01 4.5870459520264069e+00 1.4047917050665390e+01 -4 0 -3
705 2 8.9905041978171667e+00 1.0865370236115012e+01 1.7357379682090713e+01 -2 0 -1
231 2 1.5956274188792561e+00 5.4669969742768876e-01 5.8682392875767500e+00 0 0 -2
19 1 2.3225503880026643e+00 8.9493374674362514e+00 9.6721649991013230e+00 -3 0 -4
950 2 -4.0222385569796266e+00 2.3251347220851630e+00 1.6127331076672707e+01 -1 0 1
464 2 4.3994778249112052e+00 1.8303972471798624e+00 1.3244954660415919e+01 2 0 0
746 2 -1.6457260664670272e+00 4.4951764934610212e+00 5.0006996048222243e+00 -2 0 0
832 1 2.0455151905944957e+00 2.8814519614826883e+00 4.3835874016766745e+00 -4 0 0
977 2 5.9212532320226501e+00 1.1207055610218930e+00 1.6859437297658623e+01 -3 0 -1
424 1 1.8487547729964779e+00 8.5995164751343509e+00 6.5535223685705732e+00 -2 0 1
224 2 -1.3111197581780929e+00 2.5092997438664244e+00 1.4915999848546249e+01 -2 0 -2
297 2 7.2500216398009911e+00 3.5772330394426350e+00 9.0736309936065389e+00 2 0 3
119 2 1.2370480628087099e+01 6.7186885506037335e+00 1.5302194963597978e+01 -3 0 -3
848 2 2.0464418082333662e+00 9.7138851994162838e+00 1.3348548535433721e+01 2 0 0
756 2 -5.9505761384954425e-01 7.7827299802660423e+00 1.6486106118686209e+01 0 0 1
155 2 5.8459285717180700e+00 3.3091636235035162e+00 1.4295221380662760e+01 2 0 -2
128 2 9.1799178969162547e+00 3.6365709563792694e+00 4.7943822455317662e+00 -2 0 -1
891 2 1.3331358913742644e+01 2.2091185807601543e+00 5.3159543693499032e+00 -1 0 0
72 2 1.0629302959748333e+01 9.9907950171154081e+00 1.6049615295090486e+01 -1 0 0
235 1 1.1562905921994948e+00 6.8783613375007828e+00 2.9489368787450304e-01 -1 0 2
81 2 -1.5097945940718422e+00 8.0164302715280122e+00 6.8520310946753167e+00 -4 0 -1
533 2 6.3040432543530507e+00 4.9907182964330135e+00 1.1958815790678049e+01 -2 0 -1
230 2 1.3182435542647206e+00 1.5784156133814293e+00 7.0086897107010504e+00 0 0 -2
612 2 1.6711302169887279e+01 7.8749755611985917e+00 2.9341813153303873e+00 -1 0 1
644 2 1.3142646575398992e+01 6.5599188503878747e-01 1.2577267049790157e+01 -4 0 -3
344 2 1.1620375440772793e+01 6.5684078983080108e-01 1.5417613770520241e+01 -2 0 1
172 1 1.0407336990926557e+00 5.4208646255312676e+00 2.7618690472917651e+00 1 0 -1
118 1 1.2185549662379479e+01 7.4813663600063940e+00 1.5906621607618391e+01 -3 0 -3
527 2 4.1626442463711744e+00 1.2857224551813933e+00 4.4043689616386779e+00 -2 0 0
559 1 8.5305717124523657e+00 1.7140605463724528e+00 7.2712648948341077e+00 -2 0 1
320 2 2.3995747518073665e+00 8.8404341283548877e+00 2.7466631389885832e+00 -3 0 -2
42 2 1.3236501746002851e+00 4.3050282720978474e+00 8.1932330818678771e+00 -2 0 3
553 1 2.4275623340331887e+00 3.3855719880108577e+00 1.2403686647341175e+01 -5 0 -2
670 1 -5.7899486646960758e+00 4.6860291789595951e+00 1.7735016448670731e+01 -3 0 -2
61 1 1.5812685398531677e+01 5.4564464330805915e+00 8.1571450616134036e-02 -1 0 -1
522 2 1.3253726029494869e+01 4.4349200213456781e+00 1.0597504205759240e+01 -5 0 -2
969 2 1.2716526023056435e+01 6.0349878334631901e+00 8.9632584907959156e+00 -2 0 1
545 2 1.9104297457714479e+00 2.4313312921852450e+00 1.3532767961292326e+01 2 0 1
39 2 6.1290905652499124e+00 8.2289071564676792e+00 5.8704266955452642e+00 -4 0 -3
132 2 5.2207911275213057e+00 3.3168868041692940e+00 1.0635075204366785e+01 -1 0 0
719 2 9.2427024190474416e+00 5.6254275213742577e+00 1.5290212218829476e+01 -2 0 -3
786 2 1.1857472065795262e+01 5.8563173642291755e+00 1.3224736486415200e+01 -4 0 -3
839 2 5.9534680100567652e+00 4.2351597051488561e+00 7.6194618467129143e+00 -1 0 -2
49 1 5.8985822276938080e+00 7.0005472384205927e+00 1.8974828100348603e+01 0 0 -1
784 1 1.1740929899263996e+01 5.3104449794657667e+00 1.4076658024769818e+01 -4 0 -3
967 1 1.2349079832713421e+01 5.5623964484419242e+00 9.7401867311153278e+00 -2 0 1
182 2 1.1331534447740284e+01 2.8392451958728149e+00 3.9400169804672434e+00 -1 0 0
744 2 -5.1570850496550680e-01 9.6000800896072338e+00 8.1047110789647672e+00 2 0 1
649 1 4.9959372574012546e+00 8.3942991361614840e+00 1.3098756564359904e+01 -4 0 0
650 2 5.6815154311452876e+00 8.8699350850130028e+00 1.2555767859314095e+01 -4 0 0
633 2 3.7302236454283619e+00 6.1423006565588556e-01 1.6160576876514096e+01 -3 0 -2
120 2 -5.0653242598483379e+00 7.6629138132444599e+00 1.6640757911000893e+01 -2 0 -3
945 2 3.8089441238073003e+00 3.3423877803226438e+00 7.5521998995970918e+00 0 0 3
949 1 -3.9292220604557633e+00 1.7271016241582957e+00 1.6882035877273154e+01 -1 0 1
329 2 -2.9957068722290034e+00 7.2777177180344621e+00 9.8824559649341275e+00 1 0 0
590 2 -2.2524551286746548e+00 3.9810170917851422e+00 8.8990127430783037e+00 -4 0 0
477 2 1.3732293398240348e+01 2.5219325435530360e+00 1.0192786497048223e+01 -1 0 2
420 2 8.4788824142901724e+00 7.0081606706365447e+00 9.7465581739575491e+00 -3 0 1
870 2 1.1731204197239059e+01 1.0884308851821418e+01 5.3642821202504753e-01 1 0 0
939 2 2.7365341214483832e+00 1.5593990203949029e+00 1.0001422935464294e+01 2 0 1
928 1 -1.2228825539392565e+00 3.0328528488045725e+00 9.7653166775865294e+00 1 0 0
632 2 2.5686545102895577e+00 1.0239742508354719e+00 1.5132968093153423e+01 -3 0 -2
658 1 5.9815593007332160e+00 6.4569526898149370e+00 2.6687985035869746e+00 0 0 -1
439 1 -4.1927151549899504e+00 3.4068269089007321e+00 1.4467857331484643e+01 -2 0 -2
247 1 6.4718086666969290e+00 6.5819707742872735e+00 1.4513024925859462e+01 1 0 -1
655 1 5.2996389645146129e+00 9.1405085104277095e+00 1.8552853422412491e-01 -3 0 0
176 2 8.1270849262086298e+00 4.1279213764248128e+00 1.4323305252022150e+01 -5 0 1
1164 2 7.9084398064295796e+00 8.8277938905874134e+00 3.9548775242736629e+00 1 0 0
937 1 1.7162381920308079e+00 1.7505378072284976e+00 1.0102727317646103e+01 2 0 2
179 2 1.0872233020455946e+01 4.8557249161945126e+00 2.2291214886627979e+00 -3 0 0
199 1 2.4696733071563481e+00 1.0435747768284633e+01 1.0529723482290436e-01 1 0 -6
806 2 1.4138433227176790e+01 9.7006007821809952e+00 1.0072540163374205e+01 -5 0 1
236 2 5.9134916364705892e-01 7.6833935765134687e+00 4.0714929503186337e-01 -1 0 2
1077 2 3.3903050932112917e+00 5.5605055782421786e+00 5.8145449139288399e+00 1 0 0
1075 1 3.7351158745936504e+00 5.0816175891566049e+00 5.0624736075539030e+00 0 0 0
554 2 3.3234349350576142e+00 3.6516989057153468e+00 1.2030822458895726e+01 -5 0 -2
53 2 -2.0325488612406239e-02 4.4557530763503008e+00 1.4441030268545639e+01 2 0 -1
32 2 3.3632809569038731e+00 5.7688347424173676e+00 1.3634604154357270e+01 -5 0 -5
872 2 7.0233434946743571e+00 6.3948451665388006e-01 6.6788792174883600e+00 -2 0 -1
651 2 5.5516132421312232e+00 7.7317715594581777e+00 1.3510940304651900e+01 -5 0 0
131 2 4.6111945419752303e+00 4.6897194809481224e+00 1.0460183482044256e+01 -1 0 0
336 2 1.0595908593741894e+01 9.3458853185305468e+00 1.6929330922894443e+00 -2 0 -2
433 1 1.4489143021780016e+01 8.9126411840127258e+00 2.2836661747240228e-01 -1 0 1
313 1 3.5890421416666656e+00 5.8494235066070965e+00 9.6866738563362791e+00 -3 0 -1
915 2 9.4687267213080180e+00 9.0656505685194599e-01 1.3705822732614573e+01 0 0 2
435 2 1.3820387520917294e+01 8.2330859136089831e+00 1.3601029452057561e-01 -1 0 1
497 2 4.4959275718527927e+00 3.9976380727964669e+00 1.8822240604547464e+00 0 0 1
498 2 3.7463581901580092e+00 5.0894753426424924e+00 1.1109522408047516e+00 0 0 1
919 1 1.0880743962247294e+01 1.7648964572998649e+00 9.5240987261687966e+00 0 0 -2
94 1 -4.0074774552483312e+00 1.0410516690175648e+01 1.5003779739545660e+01 0 0 -2
739 1 2.6249914191112111e-01 7.0743443639875956e+00 9.5422162025860509e+00 0 0 2
276 2 1.4353450426285109e+01 1.8812375770223948e+00 7.4791900971544090e-01 2 0 0
834 2 2.7417592109472233e+00 3.5781485535433606e+00 4.5900342270637022e+00 -4 0 0
745 1 1.5634314364088361e+01 5.3522282443825242e+00 4.8175107138625455e+00 -3 0 0
673 1 -8.0426703615968842e-01 1.0689560620311727e+01 4.8622531854505837e+00 0 0 -2
634 1 -2.3609865561012082e+00 6.8589525765387389e+00 1.4457804338301761e+01 0 0 -3
943 1 4.6835226439752713e+00 3.0148310705155250e+00 7.4328280442765680e+00 0 0 3
1012 1 7.4982932742147046e+00 9.0782932582902003e+00 1.1885227154581095e+01 -1 0 0
226 1 5.6514742121777459e+00 5.3056262613587100e+00 1.6712328908954113e+01 0 0 -2
720 2 1.0181244815813846e+01 5.1102560036285061e+00 1.4253436210342207e+01 -2 0 -3
1079 2 1.1234609611578561e+01 1.0903039240457563e+01 1.7094163392115096e+01 -1 1 0
298 1 1.0224884912285132e+01 3.2752247595639883e+00 1.6930216760063789e+01 -3 0 -2
558 2 3.7972918770130351e+00 6.8313623805818224e+00 8.2014258508598434e+00 -1 0 1
178 1 1.0028139972398325e+01 5.2414619204469775e+00 2.4413166304890965e+00 -3 0 0
41 2 1.9235024893494233e+00 3.1528703115661760e+00 8.9804601895813185e+00 -2 0 3
944 2 4.6412988620180773e+00 2.6742196176720801e+00 6.5078834474971945e+00 0 0 3
87 2 1.7511481756139094e+01 6.9916742929294762e-01 3.9974214199772928e-02 1 0 -2
674 2 -9.1378517406113136e-01 1.0113187193302677e+01 5.7001907364394695e+00 0 0 -2
942 2 6.4231407229394755e+00 6.2678804169821083e+00 9.1797681164468088e+00 -1 0 0
174 2 1.0279846875279939e+00 5.8025867155052326e+00 3.6858500801893799e+00 1 0 -1
987 2 5.1638119486336542e+00 9.5034666218894053e+00 1.7834264827289662e+01 -2 0 -1
390 2 -2.8306570066916747e+00 6.6464185006420484e+00 1.8214176350102374e+01 -1 0 0
127 1 8.3620015613774594e+00 3.0774389287438759e+00 4.9433060973145837e+00 -2 0 -1
333 2 -3.7429303234002180e+00 9.4634032189841921e+00 1.6387788469040167e+01 -1 0 -2
607 1 7.1801125415297813e+00 1.6033181702566868e+00 1.1818523872316643e+01 -3 0 0
602 2 5.3127156374017286e+00 9.3568186166600817e+00 8.7122756946908133e+00 -2 0 -2
801 2 1.0418216144533101e+01 7.4832847338035835e+00 5.2598790550789269e+00 0 0 -3
158 2 2.2697466703103242e+00 4.2054234980375460e+00 1.7012025595027339e+01 1 0 -1
149 2 1.1870992132077133e+01 8.7292233423710055e+00 1.0017883630321455e+01 -5 0 -2
940 1 6.6218169881471916e+00 6.8770643459306076e+00 9.9245331584077263e+00 -1 0 0
109 1 1.0556026554676441e+00 3.2947733721416590e+00 1.6571556417331479e+01 1 0 -4
506 2 1.7347162255401820e+01 9.4908614699611764e+00 5.3898688664416983e-01 -4 0 -2
79 1 -2.2761277673351894e+00 7.4246459928331889e+00 6.5504715693771356e+00 -4 0 -1
1014 2 7.7270110479464638e+00 9.6011631752175095e+00 1.2662674384279011e+01 -1 0 0
721 1 3.1507247034928056e+00 7.7528569467010549e+00 1.5716791655083551e+01 -5 0 -3
1601 2 1.4518719122512982e+01 9.9456486866923370e+00 1.7198348836278545e+00 -1 0 0
213 2 -9.1594358061206926e-01 2.5423096208613352e+00 4.5669260279023645e+00 -4 0 -2
740 2 3.1507709466609013e-01 6.6383023420872389e+00 8.6863901476191980e+00 0 0 2
452 2 9.1960715384306617e+00 6.7361737408149054e+00 1.3400959505436107e+01 -1 0 -4
997 1 -1.7017054547127941e+00 9.0858175195573416e+00 1.2117632768510152e+01 -3 0 1
505 1 1.7226619699102653e+01 8.6308980167719582e+00 1.1670669982479084e-01 -4 0 -2
1000 1 1.3821813900593936e+01 1.1081966213587934e+01 1.1280886649177813e+01 -1 0 1
458 2 -2.6629055699345772e-01 1.1794002627985263e+00 3.0032023088577513e+00 -2 0 -2
526 1 4.8303439065072844e+00 1.7953413441641901e+00 4.8902344911794371e+00 -2 0 0
133 1 9.4749356822033821e+00 4.6495530621669499e+00 1.1123224720468352e+01 1 0 -1
306 2 5.0207457056849512e+00 9.9401878010397517e+00 1.3944154138385874e+01 0 0 -4
159 2 2.9101082679781518e+00 5.3595827359750077e+00 1.7865182605175939e+01 1 0 -1
614 2 8.8730370375502829e+00 4.2089285949077784e+00 1.9413294991695718e+00 -2 0 0
300 2 1.0353530623653867e+01 2.4927298453880744e+00 1.7501387460206494e+01 -3 0 -2
396 2 1.0865034216948468e+01 9.9300131761598127e+00 3.8214736191931542e+00 -3 0 -3
512 2 8.6045699643555871e+00 8.1576929943385235e-01 1.5945090009639866e+01 1 0 0
690 2 5.1530224932355662e-01 6.7399505834917992e+00 1.3532887313344244e+01 -2 0 0
47 2 -2.7547330714958487e+00 4.6663126724702169e+00 1.6716165291125776e+01 -3 0 -1
875 2 6.4796115613655703e-01 5.6449950535608728e+00 1.0726721554537429e+01 -3 0 0
902 2 1.0458531518739267e+01 8.7549385572844969e+00 1.4207777133288127e+01 -2 0 -1
21 2 2.0536923700182501e+00 9.7349205196253052e+00 9.0996932012753646e+00 -3 0 -4
37 1 6.5292840471229168e+00 7.6023342953172586e+00 6.4983863310584526e+00 -4 0 -3
154 1 4.8673629296573839e+00 3.1483901305537088e+00 1.4444071405907851e+01 2 0 -2
64 1 -4.0888949620209916e+00 8.2728586139771885e+00 1.3178383870863568e+01 -2 0 -4
842 2 -1.6521948977451411e+00 4.6532703707886619e-01 1.5109695856449655e+01 -5 0 -5
163 1 8.1245539279869572e-01 6.7153364794119836e+00 1.6957617696978083e+01 2 0 0
985 1 5.3342953574318805e+00 9.1005758285045797e+00 1.6971052308566286e+01 -2 0 -1
1994 2 6.2999124576071530e+00 9.0301708612045033e+00 1.6897691430161267e+01 -2 0 -1
544 1 1.4862631991831341e+00 1.9279139764529869e+00 1.4212125629620481e+01 2 0 1
540 2 1.4960810726914595e+00 1.8701015760359654e+00 1.3816428191373038e+00 -4 0 -3
561 2 8.4197161796095337e+00 1.9939183702764078e+00 8.2139752588592163e+00 -2 0 1
496 1 3.6090653109158737e+00 4.2638517251422812e+00 1.6312968627630509e+00 0 0 1
68 2 6.7196468484070095e+00 5.8785515169282867e+00 5.5712219574289099e+00 -3 0 -2
291 2 5.6032383143932627e+00 2.5636909290961816e+00 3.5270960430487439e+00 0 0 3
741 2 -6.7608461558016852e-01 7.0266397720755229e+00 9.8082024951368538e+00 0 0 2
249 2 6.8531601762754741e+00 6.0227123790053270e+00 1.3825100954485746e+01 1 0 0
330 2 -2.5489221094664529e+00 6.0355657432682248e+00 9.2179739355719938e+00 1 0 0
63 2 9.4409949725595936e+00 6.0337506343879204e+00 1.8442831286691323e+01 -1 0 -2
129 2 8.4720766585670937e+00 2.7676288309405850e+00 5.8830202406913390e+00 -2 0 -1
641 2 1.2158598358974341e+01 3.0880628811459188e+00 1.2104341478106109e+01 3 0 -1
110 2 1.2032397417901297e+00 2.5702195514969532e+00 1.7150158775000286e+01 1 0 -4
314 2 2.9256945813542399e+00 5.2480348366575100e+00 9.2959918607036958e+00 -3 0 -1
83 2 1.0110493611207666e+01 4.2148580818733912e+00 7.5727875314499924e+00 0 0 -3
645 2 -3.5987744866081997e+00 4.9313533302456314e-01 1.3626742934352485e+01 -3 0 -3
476 2 1.3885828706852703e+01 1.0306790457900781e+00 9.7777768404752923e+00 -1 0 2
1013 2 7.6353165305405479e+00 9.6247441894114782e+00 1.1042927793427269e+01 -1 0 0
237 2 9.9413245483324719e-01 6.4663475640404764e+00 1.1702068066990321e+00 0 0 2
315 2 3.0904476905343334e+00 6.1791463586483424e+00 1.0486729848940035e+01 -4 0 -1
652 1 1.1801467132067947e+01 6.9199769842007433e+00 1.2000309357621143e+01 -3 0 0
539 2 1.7079110082083471e+00 1.9557713347388439e+00 2.9310913306663138e+00 -4 0 -3
323 2 9.3169841229495134e+00 1.0659868782214403e+01 5.0820161748910477e+00 1 0 -1
150 2 1.0788278732162974e+01 9.4596453689380908e+00 1.0793732828650944e+01 -5 0 -2
777 2 1.4255364770688356e+01 2.4875196743422281e+00 3.2395801370618225e+00 -2 0 2
974 2 5.2511995929465778e+00 1.0490141917358899e+01 1.0546096432323848e+01 -4 0 -2
912 2 -1.9121374905977655e+00 5.5913316876027102e+00 1.3169062722951471e+01 -1 0 1
367 1 1.1052512382845135e+01 8.5482366377333925e+00 6.6194325722920349e+00 -2 0 -1
1076 2 4.6499563434797686e+00 4.9460167671489748e+00 5.3053705548801267e+00 0 0 0
713 2 -8.5720856453440097e-01 8.6686616016370421e-01 1.2068552946180832e+01 0 0 3
549 2 1.3638024833162891e+01 8.3494625108426224e+00 4.3564174323500575e+00 -3 0 -4
525 2 1.0623935623063176e+01 6.8783768103244416e+00 1.6545948162674549e+01 -2 0 -4
926 2 1.0984552509024569e+01 2.3634999816034834e+00 1.3871907869555827e+01 1 0 2
123 2 5.5270935660259122e+00 1.0004089224875102e+01 1.8937362810579377e+00 -1 0 0
225 2 -1.2877420361050698e+00 3.0567302931339286e+00 1.3489185561963108e+01 -2 0 -2
6 2 1.2764910388849606e+00 7.2920692684754833e+00 5.7275154830392969e+00 1 0 0
376 1 1.2729106136343313e+01 4.7210746016520186e+00 1.4823187277729479e+00 -3 0 -2
440 2 -4.2208009111967115e+00 2.5272474108530569e+00 1.3996716314288175e+01 -2 0 -2
722 2 3.3833322278387206e+00 6.8387687670563162e+00 1.5382746072097934e+01 -5 0 -3
874 1 5.0525042871409420e-01 4.7465743279701700e+00 1.1122672801044821e+01 -3 0 0
868 1 1.1121220848682460e+01 1.0122797372542673e+01 1.8514726808023571e-01 1 0 0
910 1 -1.9723054699834170e+00 5.0841670974658797e+00 1.2362337487467164e+01 -1 0 1
776 2 1.5371626085830162e+01 2.9542557685923261e+00 2.2414521662030364e+00 -2 0 2
615 2 8.1761758176404165e+00 3.2133809229216128e+00 9.6690299493983911e-01 -2 0 0
419 2 1.0000039189745275e+01 7.4762660724147150e+00 9.5073753346257863e+00 -3 0 1
762 2 3.7135597035961077e-01 1.7577541637406455e+00 1.8811851369894072e+01 -3 0 1
905 2 4.9347675505953443e+00 2.2085000782065425e+00 1.8442444677082882e+01 -3 0 1
289 1 5.7712471830851495e+00 2.8110907260605824e+00 2.5778225844982985e+00 0 0 3
911 2 -2.1533519405340700e+00 5.7317975135867938e+00 1.1625236467973812e+01 -1 0 1
610 1 -5.2546350182817259e-01 8.4188676743643089e+00 3.4475458184261973e+00 0 0 2
334 1 1.0546148461347133e+01 8.8021956933851122e+00 2.4863822821430617e+00 -2 0 -1
521 2 -3.5860349437493415e+00 3.9531038835818930e+00 1.1622744215374944e+01 -4 0 -2