LAMMPS data file via write_data, version 3 Mar 2020, timestep = 1000000

1008 atoms
2 atom types

2.4824172112878173e-01 1.8151313278861245e+01 xlo xhi
7.8518585525280571e-02 2.2491870414472199e+01 ylo yhi
2.5366263263772915e-01 1.9252053367358616e+01 zlo zhi
7.2629570809941729e-02 -6.5789865216618244e+00 2.2912215040875723e-02 xy xz yz

Masses

1 16
2 2

Atoms # atomic

1 1 6.4086928263315146e+00 1.0008879604262670e+00 4.5939642550480801e+00 0 0 0
330 2 9.0532196505915099e+00 1.0492296910299974e+01 4.5799866263716744e+00 0 0 0
3 2 6.6411604041521848e+00 1.3251723769052033e+00 3.7195673461852761e+00 0 0 0
4 1 3.8427406641736583e+00 9.9572906576684972e-01 5.1028795242176139e+00 0 0 0
187 1 1.0961141599314090e+00 1.0206199488254994e+01 3.7398978240699188e-01 0 0 0
6 2 3.7842605356033223e+00 1.3907740551206067e+00 6.0003609342306303e+00 0 0 0
7 1 -5.8292826284868782e-01 6.6591115431873860e+00 4.9137780654381400e+00 0 0 0
8 2 -6.9125217988940946e-01 6.2890251173560001e+00 5.8136450968946471e+00 0 0 0
9 2 -1.2319131430692924e+00 7.5044387855886869e+00 4.8590332245114620e+00 0 0 0
10 1 2.3075352925400212e+00 6.3617664126994535e+00 5.1193052959686360e+00 0 0 0
11 2 1.3784747475361143e+00 6.4812387454386320e+00 5.1854538278498108e+00 0 0 0
12 2 2.7357693198946587e+00 7.2620542849553607e+00 5.1356843719997602e+00 0 0 0
15 2 3.8521605243329700e+00 4.7506983124105204e+00 9.4088784554941007e+00 0 0 0
14 2 4.9636726383328158e+00 5.3022320974496875e+00 8.4991330887940038e+00 0 0 0
606 2 1.0702203131572903e+01 3.7708125991719683e+00 9.3868947929472437e+00 0 0 0
302 2 1.4800728004960030e+01 1.0846923891901664e+01 7.1479520892702482e+00 0 0 0
18 2 5.5169929282673520e+00 5.0721387667464910e+00 1.3479182182380931e+00 0 0 0
154 1 1.2865078910386552e+01 4.9856414727643389e-01 1.7064311271907446e+00 0 0 0
523 1 -1.7843971820823192e+00 2.9177628266486684e+00 9.7056123535869130e+00 0 0 0
21 2 1.0757187529806751e+00 2.0907981206577611e+00 1.1453479852395956e+00 0 0 0
586 1 -6.0457597456193435e-01 6.1428235195394780e+00 9.6218992410375304e+00 0 0 0
485 2 1.0513328314417835e+01 8.8763367901246407e-02 7.6039026368957279e+00 0 0 0
482 2 5.9794442185163221e-02 1.5254279640756879e-01 2.0847896738618390e+00 0 0 0
25 1 4.6042043368193237e+00 6.4457067384891928e+00 7.0667124453664281e+00 0 0 0
26 2 5.1959063093216837e+00 7.0698125047864853e+00 7.5696200689670690e+00 0 0 0
27 2 3.7347936646515536e+00 6.6169067700644195e+00 7.4566493723811718e+00 0 0 0
28 1 5.7085441814628144e+00 6.3730892682026523e+00 2.6482576072497452e+00 0 0 0
29 2 5.4464079395515608e+00 6.0799344871482184e+00 3.5096723642856422e+00 0 0 0
30 2 5.0091627732353530e+00 7.0049911049903475e+00 2.2790938625018660e+00 0 0 0
31 1 1.1210663923550512e+00 1.2373288114604677e+00 2.6757697821169488e+00 0 0 0
32 2 1.9878259023468685e+00 7.4668641617827625e-01 2.5670338134838828e+00 0 0 0
33 2 1.1622625067851102e+00 1.4802783582148979e+00 3.6502267086768194e+00 0 0 0
34 1 3.2206973666666716e-01 9.9194009633834423e-01 7.2710026231032039e+00 0 0 0
668 2 1.3098876885632205e+01 1.7960524486008236e+00 8.9578927881290440e+00 0 0 0
36 2 6.6534733671006885e-01 1.7468094550843709e+00 7.8511524569074762e+00 0 0 0
37 1 6.4007789868486924e+00 2.6345847868912085e+00 2.3345067947167815e+00 0 0 0
38 2 5.4549124402359261e+00 2.7850704465933158e+00 2.5634852336179428e+00 0 0 0
39 2 6.8958143868441715e+00 3.3971247367218176e+00 2.7284331487038576e+00 0 0 0
40 1 4.0334568641539335e+00 2.3226358956515862e+00 7.4269081961137555e+00 0 0 0
41 2 4.9757328412292026e+00 2.5483836449445207e+00 7.2846542711161346e+00 0 0 0
42 2 3.4943614669308194e+00 3.1320949566100840e+00 7.2159933650359145e+00 0 0 0
43 1 -5.5507457874275756e-01 5.1580029725430032e+00 7.1320225076310750e+00 0 0 0
44 2 -1.2209435724065700e+00 4.4802076583581165e+00 7.0574687846080932e+00 0 0 0
45 2 -6.6738896833668471e-01 5.4509153217913324e+00 8.0547797624937978e+00 0 0 0
46 1 1.7526126409116549e+00 4.9502351623186485e+00 2.7398488040432025e+00 0 0 0
47 2 8.4842349883643697e-01 4.8264775392158663e+00 3.0846200575916454e+00 0 0 0
48 2 2.1330280902868797e+00 5.5767308014268631e+00 3.4475026947310732e+00 0 0 0
49 1 6.5236095609066318e+00 3.0709679933228622e+00 6.4969755086858001e+00 0 0 0
50 2 6.1821635078414134e+00 3.8374414485557913e+00 5.9586065586648322e+00 0 0 0
51 2 6.8978998920190673e+00 2.4456487359136667e+00 5.8193818328307785e+00 0 0 0
52 1 3.9014129262637098e+00 3.2309820787024215e+00 3.5885264858732131e+00 0 0 0
53 2 2.9871826146336056e+00 3.5523265780292941e+00 3.2707214393736947e+00 0 0 0
54 2 3.6506904997242318e+00 2.4553382810953304e+00 4.1520029040284143e+00 0 0 0
55 1 -7.7215519651568543e-01 4.3012704671895872e+00 3.7056026967470768e+00 0 0 0
56 2 -8.7927136624102897e-01 5.1435794711009990e+00 4.1461255891017617e+00 0 0 0
57 2 -3.2358090439967035e-01 3.7236500546910105e+00 4.3494073832366569e+00 0 0 0
58 1 2.1178362558436969e+00 4.2886945670988856e+00 6.7108544222532682e+00 0 0 0
59 2 2.3885620018690279e+00 5.1419802096579623e+00 6.1241515201210834e+00 0 0 0
60 2 1.1863984947667987e+00 4.5744036742424496e+00 6.9129311417711055e+00 0 0 0
61 1 8.1248232346726965e+00 7.4758919821641099e+00 1.8405145466353561e+00 0 0 0
62 2 7.4438611811648983e+00 7.0848953603261293e+00 2.4274924192246008e+00 0 0 0
63 2 8.3603272918753007e+00 6.5957213737346434e+00 1.3712579018785118e+00 0 0 0
64 1 2.3220921553814544e+00 7.1124845894462876e+00 8.5083787426794455e+00 0 0 0
65 2 1.6467531326501077e+00 7.5631594855206243e+00 7.9475712177833158e+00 0 0 0
66 2 2.6719610057084195e+00 7.8349783480047446e+00 9.1348958280393280e+00 0 0 0
217 1 6.6292480635330424e+00 1.0685849808898059e+01 6.5988458808605595e+00 0 0 0
68 2 -2.1949105103972459e+00 1.2357916246944487e+00 8.8350439826076350e+00 0 0 0
290 2 1.6190117526791234e+01 1.0824534753440577e+01 2.9684851755604167e+00 0 0 0
72 2 3.9441337868490516e+00 9.8355079781099863e-01 1.3462930859450892e+00 0 0 0
73 1 5.3827519421465482e+00 5.0601162408927554e+00 5.0873692572536378e+00 0 0 0
74 2 4.9039454259089137e+00 5.5732491216712239e+00 5.8379924983975569e+00 0 0 0
75 2 4.6963091453563344e+00 4.5745759741091963e+00 4.6604666015803575e+00 0 0 0
76 1 8.9789064517337058e-01 2.5152148132058763e+00 5.0728687858086756e+00 0 0 0
77 2 3.6314878369821368e-01 1.9685357363429381e+00 5.6237443100715883e+00 0 0 0
78 2 1.4670113369376132e+00 3.1499046173048946e+00 5.6745298870699212e+00 0 0 0
780 2 1.3059014153154749e+01 9.4969998595184979e+00 5.1465939640755298e-01 0 0 0
97 1 1.4519168654488373e+01 4.8673347427875262e+00 8.9484546051143319e+00 0 0 0
35 2 -6.0805519336722313e-01 9.0169114145359064e-01 7.4998262251379026e+00 0 0 0
85 1 1.5637065777561089e+01 1.1514132254138532e+00 4.8171558807902635e+00 0 0 0
87 2 1.5441559667512447e+01 1.5066726409700255e+00 3.9234029041750809e+00 0 0 0
88 1 1.2924944168227222e+01 1.1444201793529625e+00 5.1187122968648469e+00 0 0 0
89 2 1.2772205476137346e+01 1.7767929974497154e+00 4.3851520978915746e+00 0 0 0
90 2 1.3882810162117387e+01 9.6821989753630056e-01 5.0741981647024339e+00 0 0 0
91 1 7.8190908595326114e+00 6.4170765801607557e+00 5.2976352967239491e+00 0 0 0
92 2 7.8099154065899183e+00 5.6535634767939733e+00 4.6376121831481738e+00 0 0 0
93 2 8.6745799202134410e+00 6.8434283549702615e+00 5.0755846348362024e+00 0 0 0
94 1 1.0604838936390721e+01 6.6505642936118070e+00 5.0489150898480073e+00 0 0 0
95 2 1.1291759116356081e+01 7.3150446098661632e+00 5.1917577041392597e+00 0 0 0
96 2 1.0930074201026319e+01 5.8840291604882209e+00 5.5252017315990525e+00 0 0 0
274 1 9.8942918745107118e+00 1.0284357886391142e+01 9.5409129733241276e+00 0 0 0
151 1 6.7837132419134356e+00 5.0705278828222289e-01 8.3055162528612971e+00 0 0 0
237 2 1.5082991861164336e+01 7.5710922716434226e+00 7.4141243743677148e+00 0 0 0
101 2 1.4749565553573486e+01 4.8983210076183052e+00 9.6647863116378807e-01 0 0 0
248 2 7.4494682625845359e+00 8.4398633712876823e+00 5.7503750087912819e-01 0 0 0
98 2 1.4471657994184516e+01 5.5090844058162158e+00 9.6217848853630858e+00 0 0 0
133 1 1.5571251316070340e+01 3.2994791108385186e+00 6.3281668968898455e+00 0 0 0
222 2 3.1620319061808355e+00 1.1097693072296634e+01 2.9738235355250939e+00 0 0 0
109 1 1.3722773179114379e+01 6.5633765712438779e+00 7.0674591338163353e+00 0 0 0
110 2 1.4160406955411592e+01 5.8251720168175911e+00 7.6304531229203807e+00 0 0 0
111 2 1.2916887805773467e+01 6.8218471849340094e+00 7.5225395589261366e+00 0 0 0
112 1 1.4775745828504190e+01 6.3781447627040695e+00 2.8332922423696814e+00 0 0 0
113 2 1.4157410090661873e+01 7.0706694721944805e+00 2.5396239502309945e+00 0 0 0
114 2 1.5681613245650412e+01 6.5608588454353969e+00 2.6276691933383600e+00 0 0 0
115 1 1.0627189557615432e+01 1.3134190959261693e+00 2.5317442403762680e+00 0 0 0
116 2 1.0432921789313825e+01 2.0176909414217885e+00 1.8527880915781396e+00 0 0 0
271 1 1.0184461782915678e+01 1.0083308668450311e+01 4.4806881754458183e-01 0 0 0
118 1 9.1570407381664261e+00 1.1959314968038581e+00 6.9905401944627243e+00 0 0 0
119 2 9.3893938685579581e+00 1.8365472379813570e+00 7.7186701572602257e+00 0 0 0
120 2 9.4017372401269199e+00 1.5752096342037052e+00 6.1079737005515176e+00 0 0 0
121 1 1.5320062764496051e+01 2.4747270379123156e+00 2.6364630184249140e+00 0 0 0
122 2 1.6004091898021102e+01 3.1659413055960197e+00 2.7765879946556287e+00 0 0 0
123 2 1.5526396846500994e+01 1.9755131363961620e+00 1.8181194995766707e+00 0 0 0
124 1 1.3175846363336914e+01 2.6738280605347424e+00 7.4187706633986412e+00 0 0 0
125 2 1.4106098679590152e+01 2.9904842645418688e+00 7.2568811949934746e+00 0 0 0
126 2 1.2968733912252747e+01 2.1815564988042562e+00 6.5818085065676888e+00 0 0 0
127 1 8.5993234886904286e+00 4.7563893622758027e+00 7.3063248393953026e+00 0 0 0
128 2 7.9839447376330472e+00 3.9967650218438084e+00 7.1885903498533805e+00 0 0 0
129 2 8.4247839168375602e+00 5.3020049425498721e+00 6.4746456366283658e+00 0 0 0
130 1 1.0559804604448912e+01 5.2118176823740763e+00 2.6712073873688862e+00 0 0 0
131 2 1.0937039963776693e+01 4.3339914939204158e+00 2.8850205341148989e+00 0 0 0
132 2 1.0714361994304788e+01 5.8178387628453798e+00 3.4553147897080487e+00 0 0 0
134 2 1.5158470404208050e+01 3.8131367755304413e+00 5.6308426490284846e+00 0 0 0
136 1 1.2584068613688110e+01 3.3081861417336058e+00 3.4050267640840675e+00 0 0 0
137 2 1.3085406033491488e+01 3.8848063111493834e+00 4.0494747355209082e+00 0 0 0
138 2 1.3253794254183777e+01 3.1613463311041334e+00 2.6628979081251103e+00 0 0 0
139 1 8.1276257534140584e+00 4.2762241931038760e+00 3.6575378348002663e+00 0 0 0
140 2 8.7668695644134313e+00 4.7392910433926732e+00 3.0529457978816361e+00 0 0 0
141 2 8.6294443321864325e+00 3.7171824416701362e+00 4.2621706245499427e+00 0 0 0
142 1 1.1141228755134790e+01 4.3779820290089519e+00 6.3067614776585552e+00 0 0 0
143 2 1.1700965895143995e+01 4.0872220735508638e+00 7.0662011751652445e+00 0 0 0
144 2 1.0270718184107317e+01 4.3928562621688076e+00 6.7912581833759154e+00 0 0 0
147 2 1.6917693897423348e+01 7.4453268190507735e+00 9.0205970772120181e-01 0 0 0
148 1 1.1323025933960544e+01 7.1632482316553689e+00 8.3882089816145946e+00 0 0 0
149 2 1.1047991966058214e+01 6.3207706514901032e+00 8.6968440866432246e+00 0 0 0
150 2 1.1712966266405955e+01 7.6482763920536501e+00 9.1473426384975980e+00 0 0 0
254 2 1.5438726272838826e+01 9.3000619027526206e+00 5.4004323801678771e+00 0 0 0
103 1 1.0201661491498642e+01 3.0179424082018040e+00 5.0208871569388136e-01 0 0 0
153 2 6.5941794240042464e+00 1.3983125418208562e+00 8.5526028716420885e+00 0 0 0
16 1 5.5450269808645389e+00 4.7621853385678259e+00 3.9117886816100023e-01 0 0 0
155 2 1.3105812242236071e+01 1.2874540897409701e+00 1.1885310792301320e+00 0 0 0
584 2 2.9597604012044165e+00 7.8761368078244764e-01 9.7237229339450462e+00 0 0 0
157 1 1.4101484810916597e+01 4.8631092688613400e+00 4.8252936660536969e+00 0 0 0
158 2 1.4480751777261952e+01 5.3403127906335497e+00 4.0960908048893945e+00 0 0 0
159 2 1.3725277481353382e+01 5.5590566604408327e+00 5.4052721761413878e+00 0 0 0
160 1 9.8197818164736503e+00 2.5081457205033439e+00 4.7254266061956747e+00 0 0 0
161 2 1.0507721963200620e+01 3.0489788481536992e+00 5.1707243516211978e+00 0 0 0
162 2 1.0269719122482281e+01 2.0917344619818570e+00 3.9707291780226606e+00 0 0 0
86 2 1.6228642515215590e+01 3.7125050126234127e-01 4.6875303441152294e+00 0 0 0
24 2 -2.7791678097228711e-02 2.7160678220319068e+00 9.6320248522618623e+00 0 0 0
84 2 2.9162044819687436e+00 6.8117241219167362e+00 9.1124914887183051e-01 0 0 0
169 1 6.3342586739102877e+00 8.5587758599668291e+00 4.7854347871244869e+00 0 0 0
170 2 6.8353681938392885e+00 7.7529194135255963e+00 5.0858119675278628e+00 0 0 0
171 2 6.6445669351583012e+00 9.3074524970678389e+00 5.3865896278039145e+00 0 0 0
172 1 3.8097105256314823e+00 8.4762195365013682e+00 5.1155750504260737e+00 0 0 0
173 2 3.6535092475435800e+00 9.2212922334641316e+00 4.4913117586267921e+00 0 0 0
174 2 4.6925614102051281e+00 8.2233070753988411e+00 5.0659170998541505e+00 0 0 0
293 2 1.2360162341765328e+01 1.0855604306485693e+01 7.3879657813676323e+00 0 0 0
152 2 7.6648430192173098e+00 5.0562149815507285e-01 7.8459858354345604e+00 0 0 0
219 2 5.8062965298774643e+00 1.0481365229746388e+01 7.0730156671133679e+00 0 0 0
192 2 4.6088162272268551e-01 1.0081338029748139e+01 8.7860759420070753e+00 0 0 0
199 1 1.4880031116884957e+00 8.6444127939138422e+00 2.5892312236258883e+00 0 0 0
200 2 1.3580884558984834e+00 9.1333984802289248e+00 1.7527124538364081e+00 0 0 0
201 2 8.5937211049584328e-01 7.8904969032311083e+00 2.5367334265540880e+00 0 0 0
202 1 2.8334831208739697e-01 8.7616901745047056e+00 7.2223635778776574e+00 0 0 0
203 2 -5.9245985754177188e-01 8.3233990849431692e+00 7.2822172925015156e+00 0 0 0
204 2 3.2908148421360206e-01 9.2524964804074123e+00 6.4068526920409381e+00 0 0 0
205 1 6.4485743831868483e+00 1.0172173022012075e+01 2.6029553181129637e+00 0 0 0
206 2 6.4945864737687362e+00 9.3251675418910054e+00 3.0603568058630923e+00 0 0 0
207 2 6.4966116277285533e+00 9.9318262663102956e+00 1.6449565303385640e+00 0 0 0
208 1 4.2090867888329306e+00 1.0099674174350808e+01 7.3624359586994155e+00 0 0 0
83 2 2.1088679048325032e+00 5.4467073332210845e+00 1.1910182450840288e+00 0 0 0
210 2 4.1008023589134979e+00 9.4085708910791972e+00 6.7459086737319298e+00 0 0 0
836 2 1.2948349045460436e+01 9.4641959318615676e+00 9.2310164754243207e+00 0 0 0
156 2 1.1930031469509064e+01 6.4186913560447334e-01 2.1713617283821121e+00 0 0 0
753 2 3.8225233515199037e+00 9.3621721656034840e+00 9.0081390862003001e+00 0 0 0
221 2 4.6390105534116808e+00 1.0545412899037903e+01 3.0189938620937649e+00 0 0 0
209 2 3.5811342961537833e+00 1.0772688575949225e+01 7.0749257856100787e+00 0 0 0
235 1 -2.0492379485840697e+00 7.9026844905268474e+00 7.9915071378987950e+00 0 0 0
236 2 -2.4446728534800610e+00 8.7196671029751993e+00 8.4035310769727065e+00 0 0 0
238 1 3.8139981773924800e+00 7.9958099672704206e+00 1.6034522121353099e+00 0 0 0
239 2 3.0967373860280287e+00 8.3362383352130625e+00 2.2345782462749693e+00 0 0 0
240 2 3.9362128761621604e+00 8.7824720287463744e+00 1.0037638103928523e+00 0 0 0
244 1 8.2069304252492215e-01 1.0287677256074947e+01 4.9772550118101000e+00 0 0 0
245 2 1.0365961113276234e+00 9.6458359808124730e+00 4.2409939939059527e+00 0 0 0
246 2 1.6065667143400348e+00 1.0764049588311098e+01 5.2789738282566940e+00 0 0 0
146 2 1.7447022403233877e+01 6.0322777518139281e+00 1.2498540560740730e+00 0 0 0
486 2 1.1590880371049932e+01 4.2279062548186047e-01 8.7092326051498699e+00 0 0 0
253 1 1.5316640181078840e+01 8.5281652231347618e+00 4.8079053373852272e+00 0 0 0
255 2 1.5334370688709024e+01 8.9666210229895764e+00 3.9211866157096686e+00 0 0 0
256 1 1.2595843653738498e+01 8.5364795363897148e+00 5.3465952671124182e+00 0 0 0
257 2 1.3412564440246914e+01 8.1226747651317570e+00 5.0259493065681466e+00 0 0 0
258 2 1.2588412704686753e+01 9.3283582804714129e+00 4.8109797524554212e+00 0 0 0
331 1 1.5996513633302749e+01 9.0578145105491163e+00 2.5939373911979074e-01 0 0 0
272 2 1.0253467142252017e+01 9.4436600815063159e+00 1.1969827548663661e+00 0 0 0
145 1 1.7133827168171631e+01 6.8205303186519224e+00 1.5850172053542027e+00 0 0 0
276 2 9.6878586038343730e+00 9.8619357679122519e+00 8.6584722444459263e+00 0 0 0
283 1 1.0499954486622386e+01 8.6235869564119749e+00 2.7978123374901647e+00 0 0 0
284 2 1.0167496349417405e+01 9.1282775543536623e+00 3.5589635918062448e+00 0 0 0
285 2 9.7459355368619587e+00 7.9717542327234723e+00 2.6229702591547213e+00 0 0 0
286 1 9.2139465370341789e+00 8.7071931697035545e+00 7.4442160786384095e+00 0 0 0
287 2 9.9352417530465562e+00 8.0290099243274433e+00 7.5761008029117249e+00 0 0 0
288 2 8.3155233615486566e+00 8.4007520083856111e+00 7.6114749066552045e+00 0 0 0
289 1 1.5392564567122323e+01 1.0329040506890880e+01 2.7405432104063876e+00 0 0 0
304 1 1.2971103782184452e+01 1.1032949999116417e+01 3.8687301001071868e+00 0 0 0
291 2 1.5558954415921976e+01 1.0065721929620022e+01 1.8077094757220973e+00 0 0 0
292 1 1.3048001546924311e+01 1.0242026658608188e+01 7.7026890799729326e+00 0 0 0
70 1 3.6351078596026389e+00 2.6941870387327849e-01 1.9471815751135835e+00 0 0 0
294 2 1.2989101787937837e+01 9.5606512191217679e+00 6.9266104230089267e+00 0 0 0
587 2 -1.2954678139814049e+00 6.8379714913402827e+00 9.3745731024080019e+00 0 0 0
163 1 1.6026069942115942e+01 1.3200398961319173e+00 3.6759992530940144e-01 0 0 0
521 2 1.7809183650494478e+00 5.3056266537647918e+00 9.3772189591739004e+00 0 0 0
106 1 9.3401655273332036e+00 2.6609356242256110e+00 9.4145722376324450e+00 0 0 0
319 1 6.6827288973615318e+00 7.7888590818840493e+00 8.3341715485971903e+00 0 0 0
320 2 6.5033507538623887e+00 8.4717311155046211e+00 8.9681512527560070e+00 0 0 0
321 2 7.0605801511993445e+00 7.0936905491925133e+00 8.9021696229593967e+00 0 0 0
322 1 1.2957241234133557e+01 8.2528394040368731e+00 1.7035071139880169e+00 0 0 0
323 2 1.2246007727939221e+01 8.5791130962282054e+00 2.3190235949155626e+00 0 0 0
324 2 1.2606257914058455e+01 7.4483962329239874e+00 1.2662747198732334e+00 0 0 0
328 1 9.7950477190922882e+00 1.0084072758586219e+01 5.0302950678335314e+00 0 0 0
329 2 9.4432368059299918e+00 9.5773023355398372e+00 5.7962968954016310e+00 0 0 0
301 1 1.5518435195066939e+01 1.1018660811743061e+01 6.5337359317068380e+00 0 0 0
69 2 1.5000235892710464e+01 1.4237724305568467e-01 7.9773252784181956e+00 0 0 0
80 2 6.9289890376187309e+00 1.8328878769215415e+00 9.7898388878577836e-01 0 0 0
220 1 3.8180008160160281e+00 1.0614001142298481e+01 3.5202175412930417e+00 0 0 0
22 1 8.9784696045608170e-01 2.4202015810112116e+00 9.6079176966857318e+00 0 0 0
135 2 1.5894439565302834e+01 2.4937339256973154e+00 5.7557773639923200e+00 0 0 0
5 2 4.8338719031453543e+00 9.6501677831844757e-01 4.9345529602768279e+00 0 0 0
306 2 1.3716315106162657e+01 1.0898636868246930e+01 3.2172965830752855e+00 0 0 0
671 2 8.4024559096494080e+00 5.4571085152020480e+00 8.8701305943662963e+00 0 0 0
585 2 3.9127611025752276e+00 1.7252222247331996e+00 8.9781021022849643e+00 0 0 0
67 1 -2.1211014918125515e+00 3.8378228775069534e-01 8.4651587457031887e+00 0 0 0
166 1 1.1853020728477430e+01 6.2133330722755158e+00 3.5494465794756763e-01 0 0 1
167 2 1.1394370149669641e+01 5.6526151852152742e+00 1.0798443714307151e+00 0 0 0
117 2 1.0002358633405702e+01 6.3811792158746816e-01 2.2343771850917511e+00 0 0 0
218 2 7.2153846629964260e+00 1.1147181392459828e+01 7.2079332136837131e+00 0 0 0
165 2 1.6554235137150787e+01 6.1335892048324270e-01 7.8389647791074879e-01 0 0 0
2 2 7.0453192717800128e+00 2.2532290305601402e-01 4.7186934832373044e+00 0 0 0
399 2 8.2677560493983488e+00 2.7874408838584863e-01 1.1728974746674266e+00 0 0 0
13 1 4.8036363847727976e+00 4.9049382675158952e+00 9.4040152642371915e+00 0 0 0
82 1 2.2576816775259756e+00 6.1456550219973574e+00 5.0030726573410067e-01 0 0 1
692 2 -2.7821902915407297e+00 1.0856285872482156e+01 9.7132456267044986e+00 0 0 0
99 2 1.3657597057978787e+01 4.4442892708095707e+00 8.8971510306756816e+00 0 0 0
604 1 1.1486191171709553e+01 4.3982650352349877e+00 9.2769441929428300e+00 0 0 0
108 2 8.4301089268670157e+00 3.0137346741227296e+00 9.5473440934089506e+00 0 0 0
667 1 1.2786349382484371e+01 1.2414495975009483e+00 9.7047698548592010e+00 0 0 0
776 2 7.8280867411102673e+00 1.0417441573590475e+01 9.7281727005566996e+00 0 0 0
524 2 -2.0879372728776473e+00 3.7847588001330728e+00 9.3028835102575957e+00 0 0 0
607 1 6.4591775117299006e+00 2.7544303344454537e+00 9.6845713598953473e+00 0 0 0
670 1 8.0972394884593832e+00 5.9028757461884949e+00 9.7145224130997718e+00 0 0 0
17 2 4.8908150650188746e+00 4.0620460240669471e+00 3.9108347725338066e-01 0 0 0
273 2 1.1086599694980267e+01 1.0473617069379527e+01 3.9969503183002109e-01 0 0 1
190 1 4.8847953708602621e-01 1.0475810191185673e+01 9.6521084717243575e+00 0 0 0
518 2 7.4442566520554543e+00 4.7722168906353106e+00 3.3286624674631576e-01 0 0 0
189 2 2.0591277620325021e+00 1.0478597374450086e+01 2.8180071546346924e-01 0 0 0
696 2 4.5710319516715057e+00 1.0922359741332789e+01 2.9557472711811555e-01 0 0 1
333 2 8.7856749765794362e+00 8.4415609648255536e+00 1.8906285150997832e+01 0 0 0
168 2 4.5910001505208058e+00 6.7718160713724336e+00 1.8903602743180514e+01 0 0 0
574 1 5.3099475493358161e-01 3.5037239777156870e-01 1.1549309453096564e+01 0 0 0
275 2 1.0102195682080451e+01 9.4309680817392838e+00 1.0013759170962530e+01 0 0 0
794 2 1.2612243436717250e+01 1.0687441951972826e+01 1.2379164155664949e+01 0 0 0
623 2 5.1847883401453672e+00 1.0318380083489158e+00 1.7122090406382441e+01 0 0 0
808 1 9.5531109840699084e+00 1.0519499235356507e+01 1.2999959686744122e+01 0 0 0
19 1 -5.3693790305755016e+00 2.3059942085085452e+00 1.9133101089940524e+01 0 0 -1
571 1 -5.4470694669706701e+00 3.4917329686901599e-01 1.7481149608761442e+01 0 0 0
823 1 3.8758161340587529e+00 7.9293408595275929e+00 1.7831331387126561e+01 0 0 0
520 1 2.1924293975116118e+00 4.7481715110166647e+00 1.0016480898715701e+01 0 0 0
672 2 8.8108601739447394e+00 6.5891239589794095e+00 9.8708062124632185e+00 0 0 0
778 1 6.2890604616257582e+00 1.0331840717410289e+01 1.8954924988668608e+01 0 0 0
249 2 4.4535352478625878e-01 9.4841581445467771e+00 1.8284231360134363e+01 0 0 0
694 1 -2.8610454170549069e+00 1.0343569980029839e+01 1.9183654047221474e+01 0 0 0
517 1 1.7651646267948706e+00 5.0723031490072463e+00 1.9195184790786371e+01 0 0 0
188 2 -5.6386530833574913e+00 9.5818968334239134e+00 1.8664689285305016e+01 0 0 0
805 1 1.2706161810032853e+01 1.0920674529759768e+01 1.5911393753417826e+01 0 0 0
505 1 3.4690495190976867e+00 1.0347448536424850e+00 1.4367005564020074e+01 0 0 0
506 2 3.8230979342938687e+00 1.7714084137046746e+00 1.4873777240413860e+01 0 0 0
903 2 4.7851690439433394e+00 1.9732338402187838e-01 1.0606391588521539e+01 0 0 0
508 1 7.3525249500057122e-01 1.4681707010629148e+00 1.4676902864430398e+01 0 0 0
777 2 6.3119233741685310e+00 1.0724641538996648e+01 9.8359214260354779e+00 0 0 0
510 2 1.6380579156744561e+00 1.1590484449504628e+00 1.4364231919366519e+01 0 0 0
511 1 -3.4695612132652620e+00 6.2661451453500918e+00 1.4855181559510813e+01 0 0 0
512 2 -3.7610116349819558e+00 5.6571944321901775e+00 1.4191797139832850e+01 0 0 0
513 2 -3.4230700164288468e+00 5.7869674551620625e+00 1.5703836351007244e+01 0 0 0
514 1 -9.5969759260530774e-01 6.6663407640157439e+00 1.4346191574721413e+01 0 0 0
515 2 -7.1790005512121713e-01 5.9006145842663038e+00 1.4924335730820880e+01 0 0 0
516 2 -1.9073379965976089e+00 6.7309460698045225e+00 1.4548317486682878e+01 0 0 0
990 2 7.2708349422979790e+00 1.5072633466428964e-01 1.7283204681801855e+01 0 1 0
519 2 1.7786550293825796e+00 5.4068203365254055e+00 1.8305738314324330e+01 0 0 0
81 2 6.6513045599470466e-02 8.1168525713060014e-01 1.8924748808813995e+01 0 0 0
522 2 2.2596768878189692e+00 5.1560278136114839e+00 1.0922287019369804e+01 0 0 0
102 2 8.0047383392229321e+00 3.8954403545289162e+00 1.8837488552929713e+01 0 0 -1
816 2 7.6943366658073113e+00 1.1138490492581973e+01 1.5397250288019345e+01 0 0 0
525 2 -2.1133311791321132e+00 2.7976874287419635e+00 1.0658096243183904e+01 0 0 0
834 2 5.7884859147719663e+00 1.0484015377986333e+01 1.4334921707548034e+01 0 0 0
527 2 -2.5716717774696938e+00 1.9975191501196552e+00 1.8046621714360221e+01 0 0 0
529 1 1.6162069008928226e+00 6.6581236375676980e+00 1.7188606016829688e+01 0 0 0
530 2 1.4649628227639466e+00 6.3137966721961556e+00 1.6297718796290788e+01 0 0 0
531 2 7.1282319829060636e-01 6.7901192295025190e+00 1.7504766904276195e+01 0 0 0
532 1 2.5996855088447441e+00 6.4364284194064734e+00 1.2202968514122606e+01 0 0 0
533 2 3.5091966766435947e+00 6.5411047871322427e+00 1.1907847204571087e+01 0 0 0
534 2 2.5892229336072816e+00 6.2739775000980593e+00 1.3201482267440753e+01 0 0 0
535 1 -2.0204544402663371e+00 1.4844856535386772e+00 1.2008408995044762e+01 0 0 0
752 2 3.2246545057091289e+00 9.5509769339702206e+00 1.0555965837029825e+01 0 0 0
537 2 -1.1647491070940963e+00 1.1528525779065710e+00 1.1757298828233816e+01 0 0 0
538 1 -2.9983743969729533e+00 1.0226022536199664e+00 1.6643102334465347e+01 0 0 0
539 2 -3.9429301761348947e+00 7.9051220151511425e-01 1.6728786764273025e+01 0 0 0
540 2 -2.9073793555327110e+00 1.5388865950597941e+00 1.5789509337780277e+01 0 0 0
541 1 3.4238229248614980e+00 2.9298193359970215e+00 1.2107285365310416e+01 0 0 0
542 2 3.5482084991137244e+00 2.1904499204355075e+00 1.2780677257401116e+01 0 0 0
543 2 3.5642997905852392e+00 2.4425329654546633e+00 1.1277964421351390e+01 0 0 0
544 1 1.3247267024326401e+00 2.8712418520961127e+00 1.7015353605357681e+01 0 0 0
545 2 1.1704737732982613e+00 2.3028071915341246e+00 1.7867641114882467e+01 0 0 0
546 2 1.1750619817955803e+00 2.2075908602319796e+00 1.6266500741509653e+01 0 0 0
547 1 -3.5046339493415579e+00 4.8584886392329754e+00 1.7241793700648081e+01 0 0 0
548 2 -4.1705740777020619e+00 4.1620312600532285e+00 1.7061155855735727e+01 0 0 0
549 2 -3.7563216436020070e+00 5.2278030887121778e+00 1.8140717719859261e+01 0 0 0
550 1 -1.2933046033985516e+00 5.1082379876860768e+00 1.2056575548764107e+01 0 0 0
551 2 -7.3852155945062847e-01 4.3307932470739026e+00 1.2193526140581714e+01 0 0 0
552 2 -1.1240007508345928e+00 5.6279880884811329e+00 1.2881148004134399e+01 0 0 0
553 1 3.5632785886485445e+00 3.6278583431043647e+00 1.5896405940802182e+01 0 0 0
554 2 2.8919538074218947e+00 3.4738831841135762e+00 1.6593772540059405e+01 0 0 0
555 2 4.3361004008941224e+00 4.0630229152711275e+00 1.6429587821680414e+01 0 0 0
556 1 7.2497342550116084e-01 3.6035664339336320e+00 1.3122487608446491e+01 0 0 0
557 2 1.5505610054457390e+00 3.5305693155035418e+00 1.2511524952643004e+01 0 0 0
558 2 6.8835223505202503e-01 2.8153470893458206e+00 1.3678823368336866e+01 0 0 0
559 1 -3.8032455134053338e+00 4.4280227990595504e+00 1.2824155493798450e+01 0 0 0
560 2 -2.9988222980298795e+00 4.5981722158716689e+00 1.2278336503359423e+01 0 0 0
561 2 -3.6009838823241207e+00 3.6514964344044158e+00 1.3384108190037079e+01 0 0 0
562 1 -1.0697353651854495e+00 4.1756555550909518e+00 1.5955624372897805e+01 0 0 0
563 2 -2.8048338991199984e-01 3.8290425983063305e+00 1.6460490081470745e+01 0 0 0
564 2 -1.7368195559312203e+00 4.1811110816093153e+00 1.6667325637510437e+01 0 0 0
565 1 5.1706777384477274e+00 6.9946884630033628e+00 1.1088523935163479e+01 0 0 0
566 2 4.5160572061879769e+00 7.5605958694888677e+00 1.0618246654087921e+01 0 0 0
567 2 5.1856394993067134e+00 6.2038886889973872e+00 1.0579327191663340e+01 0 0 0
568 1 -1.0334130817653593e+00 7.1109337895592892e+00 1.7806047819119080e+01 0 0 0
569 2 -1.2910314488829364e+00 6.3095340804611766e+00 1.8246802273452118e+01 0 0 0
570 2 -5.8361193660547972e-01 7.7458514238756155e+00 1.8505258367529052e+01 0 0 0
620 2 6.7824860014169301e+00 7.0668862867327731e-01 1.2036401188580301e+01 0 0 0
572 2 -5.7151125600628356e+00 1.0619448362944612e+00 1.8086686673779710e+01 0 0 0
656 2 2.8191618671886589e+00 4.4910927154663882e-01 1.7622358924657597e+01 0 1 0
728 2 -3.5010265550815456e+00 1.1133636665715033e+01 1.3610689541597907e+01 0 0 0
576 2 6.5206689074455548e-01 1.1720302075882807e+00 1.0953206097814730e+01 0 0 0
577 1 2.0043324428801208e+00 5.5906763910944832e+00 1.4700890870422572e+01 0 0 0
578 2 1.4993471221077472e+00 4.9950244881747281e+00 1.4188936853112748e+01 0 0 0
579 2 2.7341510849211810e+00 5.0025958813103015e+00 1.5056169408031447e+01 0 0 0
580 1 -2.6588359697147372e+00 2.6134213460089755e+00 1.4367141640777421e+01 0 0 0
581 2 -2.3491650671795656e+00 2.1931664695623279e+00 1.3514850916255588e+01 0 0 0
582 2 -1.9322408685231838e+00 3.1016816436397527e+00 1.4841482488186189e+01 0 0 0
191 2 7.3860805039659594e-01 9.7395681317996878e+00 1.0199768895666134e+01 0 0 0
986 2 1.3849057095746662e+01 2.3832961960866916e-01 1.0629689797437573e+01 0 0 0
589 1 1.2497322580534783e+01 1.1722917567945563e+00 1.4191585693684003e+01 0 0 0
590 2 1.1677193778602431e+01 8.9512337554003829e-01 1.4660079716637478e+01 0 0 0
591 2 1.2674903885434285e+01 1.9284156816620626e+00 1.4776471663178160e+01 0 0 0
592 1 9.6948858917320528e+00 1.2981490225272703e+00 1.4798713600981102e+01 0 0 0
23 2 1.5129411038829672e+00 3.1802745702189683e+00 9.7994776964341188e+00 0 0 0
594 2 9.5456089162048237e+00 2.0502749224220427e+00 1.4149068866939356e+01 0 0 0
595 1 5.2504917736806060e+00 7.0033116841143990e+00 1.4742192866844681e+01 0 0 0
596 2 5.2376764397739484e+00 6.4347072527222480e+00 1.5576850736311259e+01 0 0 0
597 2 5.3368137983284445e+00 6.3358292508940020e+00 1.4030223750421058e+01 0 0 0
598 1 8.0882084978153177e+00 6.6225071401765074e+00 1.4387734654793535e+01 0 0 0
599 2 7.2063492999408725e+00 6.9821677129783231e+00 1.4443991988867770e+01 0 0 0
600 2 8.1594925754532071e+00 6.4276339500820985e+00 1.3457606912198637e+01 0 0 0
528 2 -3.6307931618224760e+00 2.5492069362930376e+00 1.9018137035270833e+01 0 0 -1
603 2 1.1248619994228292e+01 4.8765768419983688e+00 1.8156887462168321e+01 0 0 0
332 2 9.7052553019686911e+00 9.5342244775326179e+00 1.8437675631531754e+01 0 0 0
605 2 1.1600727371318500e+01 4.5963870809773777e+00 1.0186881662462731e+01 0 0 0
832 1 6.5648163734521479e+00 9.9629326939633103e+00 1.4527861691402681e+01 0 0 0