LAMMPS data file via write_data, version 8 Apr 2021, timestep = 1813000

972 atoms
2 atom types

0.20748386968659233 19.783569130306425 xlo xhi
0.12774386055071862 19.863309139457865 ylo yhi
0.159108530996588 20.64166346901312 zlo zhi
0.005429912342391613 0.08910638738141517 0.2491619766854703 xy xz yz

Masses

1 16
2 2

Atoms # atomic

466 1 5.304662079941752 9.387363213572401 7.177581620200883 0 0 0
340 1 4.093840718880869 4.110043405783569 10.205245140174695 0 0 0
435 2 1.8772172071900062 9.056130193999225 7.566485107385104 0 0 0
4 1 3.9594624110808643 1.2594865697069493 3.048089050591943 0 0 0
5 2 4.194158027322388 2.201618499888921 3.115833791026725 0 0 0
6 2 3.264813226658999 1.1644270590112606 3.700783012992091 0 0 0
7 1 5.761982822639021 4.531645041620908 5.570101331894413 0 0 0
8 2 6.612968163558624 4.421840515495295 5.079154338234595 0 0 0
9 2 5.139586753901637 4.206454541780914 4.850367697514462 0 0 0
10 1 1.749680341143587 4.069970842603927 3.7000850366053704 0 0 0
12 2 1.3133974593142619 4.669152269333315 2.9859095712915678 0 0 0
13 1 4.845688600336923 6.091208649736491 1.138618054351073 0 0 0
14 2 4.44115942746272 6.9047065115687545 1.5461457204544409 0 0 0
16 1 4.290300302699066 4.014426931707672 3.341371859906572 0 0 0
17 2 4.4098421892407105 4.641912978160618 2.5864558625281537 0 0 0
18 2 3.347686383388451 4.100660776549407 3.671270020012197 0 0 0
501 2 6.272591651918407 9.117275031006445 8.756959666821475 0 0 0
473 2 11.175960822531177 7.182873414423873 9.565909175635547 0 0 0
468 2 4.302555442086343 9.381482672194391 7.251356105887398 0 0 0
24 2 2.2975500558232853 1.7179417818250156 5.711262808413381 0 0 0
25 1 2.589377453797998 5.314408143318174 6.569899025396662 0 0 0
26 2 2.4508988946412065 6.009121083813575 5.901527138462369 0 0 0
27 2 3.3758072910360704 5.582255992360959 7.090847909791712 0 0 0
469 1 9.26873296102779 9.382228153172438 7.272660956072572 0 0 0
540 2 17.612907544337443 9.337519025778036 7.54979169875168 0 0 0
61 1 9.384426473565393 5.7926935470518774 6.9142402923518365 0 0 0
33 2 1.3178925772278332 2.614514895827835 2.8301415339518936 0 0 0
35 2 5.99632833791135 2.68872372560043 0.9603495943197785 0 0 0
502 1 11.943916723197008 9.315320175304398 7.310865211019988 0 0 0
29 2 5.304362985245404 1.1174580915427605 4.196920433816531 0 0 0
46 1 7.929054184165004 4.526550110891486 3.812228996452457 0 0 0
47 2 8.785910145247655 4.623863805992195 4.257128463682047 0 0 0
48 2 7.867685192789114 5.281767269441797 3.1964836892897903 0 0 0
55 1 7.352211976578807 6.047265261840329 1.4367989848010783 0 0 0
56 2 7.475421293319233 6.939947236039623 1.8505832508191253 0 0 0
57 2 6.3715521315672055 6.003269371626023 1.204507274365792 0 0 0
100 1 18.502823571420063 1.0115229225621474 5.617738128262027 0 0 0
63 2 8.627269825176942 6.135080139773938 7.459470829966756 0 0 0
141 2 0.6501578400524988 8.962547542781541 1.6031274403471252 0 0 0
67 1 7.6245556092312725 2.6040023897583398 1.7946236656451793 0 0 0
68 2 7.870731206702954 3.1725875144619806 2.5126265910097856 0 0 0
69 2 8.382870804185133 2.744820797025657 1.1543123313604025 0 0 0
143 2 4.800313556207103 9.32245718901951 0.6111940240275715 0 0 0
464 2 19.53284307121106 8.79175101898769 8.30514209357074 -1 0 0
376 1 10.734672193686547 4.1768411776785 10.366337029785761 0 0 0
417 2 14.582664209055377 5.732235624877324 9.196336782366874 0 0 0
112 1 4.1652606723812955 7.859445495650558 3.054007088315113 0 0 0
113 2 4.91746643196144 7.625951275277874 3.597693979965441 0 0 0
114 2 4.171376922216864 8.875647099960155 3.1590253003649664 0 0 0
130 1 2.2635802360546746 7.404553820905657 4.861110555947756 0 0 0
131 2 2.954960736247368 7.43185389007796 4.202055933165897 0 0 0
132 2 2.5086789796285127 8.077659219100042 5.526416686975772 0 0 0
136 1 5.811649900673428 7.3467501325457745 5.568915587718445 0 0 0
137 2 5.65610673754085 6.552008557443913 6.081272007236823 0 0 0
138 2 6.68596129132343 7.285626802274196 5.129878634978349 0 0 0
34 1 5.37949017768455 2.7192012003321473 0.21378262340959503 0 0 0
372 2 7.988432986023402 5.4475405035561115 9.957229664745599 0 0 0
178 1 12.134391498124895 9.212882901754428 0.7487894140218849 0 0 0
166 1 8.79014760035161 7.567719744130967 5.143001301546733 0 0 0
167 2 8.679044574093085 8.37907572998984 5.6817241337658615 0 0 0
175 1 7.542745122419293 8.721058508183107 2.148814658125484 0 0 0
504 2 12.574863739256418 9.169784907899466 8.01136241683621 0 0 0
177 2 6.734276305218108 9.071760635885822 1.6424224276761057 0 0 0
436 1 4.163739387078373 7.9417091401873146 10.190783806439434 0 0 0
537 2 14.862363451725095 9.10666386505447 8.3607492181782 0 0 0
366 2 10.674089709990541 2.4279402855514496 10.20632595553852 0 0 0
325 1 2.847679499689556 2.6094650027180473 6.897520460810851 0 0 0
326 2 2.801794542549762 3.611928724449376 6.677539393619913 0 0 0
327 2 3.815643269375746 2.467358257179151 7.08481904845391 0 0 0
337 1 4.6585660962691815 5.810534783323375 8.289639885115326 0 0 0
338 2 4.459322564788071 4.992507959371512 8.83928369790613 0 0 0
339 2 4.458472132119946 6.6248473692189425 8.887800171431607 0 0 0
11 2 1.2963698268923 4.38087386148641 4.512893265617671 0 0 0
111 2 2.4695224089953096 8.799227165159317 0.9678451952726127 0 0 0
345 2 1.629458863113757 5.51117459116785 7.964302727623601 0 0 0
176 2 7.697418382786639 9.408641934081485 2.8369060211687667 0 0 0
364 1 10.346545040710998 1.5308257897433273 10.292355608672441 0 0 0
357 2 1.616946615248443 2.5045344169378154 8.659231555428756 0 0 0
358 1 5.395059557562253 2.5980657721449036 7.309902972452723 0 0 0
359 2 5.56844192771147 3.3689594277131274 6.693917339828114 0 0 0
360 2 5.811059560049995 1.8241970305668824 6.899646604417379 0 0 0
361 1 9.111322957403985 3.030177358113761 7.107844893734609 0 0 0
362 2 8.848250904038396 2.3398056555345885 6.414331045981516 0 0 0
363 2 8.634251772739956 2.8768666000184444 7.950779431447472 0 0 0
463 1 0.8400544104955909 8.658677808726477 8.82075573614532 0 0 0
379 1 7.383555814821457 6.217391844522882 8.519726929361044 0 0 0
380 2 7.136438667678675 7.1073632596809215 8.791227431236988 0 0 0
381 2 6.530323750124624 5.85317252420214 8.240855815625183 0 0 0
391 1 7.346973953461612 2.5407524354539364 9.350429119797981 0 0 0
393 2 6.548465787445521 2.6054307829885746 8.77518596526946 0 0 0
182 2 16.67502803815968 9.20174695595749 0.7124042730017435 0 0 0
62 2 9.315079395106459 4.812821595039572 6.945258093186567 0 0 0
77 2 17.825870808507617 0.9281656011467674 2.621915973263856 0 0 0
392 2 7.44234981679901 3.393870644441436 9.859483336554515 0 0 0
467 2 5.580787714635187 8.706108168884795 6.557140065710328 0 0 0
355 1 0.7838500488399114 2.34056026903159 9.149211700389031 0 0 0
499 1 7.008252706978081 8.759675582413413 9.28237502301479 0 0 0
31 1 1.0823692258671533 1.8787362463315376 2.235906203885194 0 0 0
21 2 19.301084813043573 5.701066521311072 1.5521390122243803 0 0 0
139 1 1.4356488411732056 8.554850027712137 2.0753341230979787 0 0 0
20 2 0.8241435337496485 6.606313299107597 2.2855525280911326 0 0 0
465 2 1.1541923623429637 7.717296492210628 8.736430740228153 0 0 0
747 2 14.717130782058733 5.722503055910224 0.832291466260273 0 0 0
19 1 0.6443044016571255 5.759784812489998 1.8561084889987625 0 0 0
60 2 7.481885778300867 1.2694308126877978 4.718820889676484 0 0 0
74 2 16.973328671672423 2.76184781746353 0.35813749727959 0 0 0
596 2 7.291014433173892 0.602520580247643 9.00160390427682 0 0 0
633 2 13.939394386626466 0.7657924460804135 9.060152487994756 0 0 0
168 2 9.17419178418421 6.920756628380411 5.722269075767583 0 0 0
22 1 1.9724929206868473 1.0063067822484535 5.102506534590392 0 0 0
356 2 0.6415648185899308 1.3572495710152752 9.100433888060605 0 0 0
343 1 1.211091624144557 5.998931696851003 8.710038289054062 0 0 0
148 1 10.713542563787925 8.502720804835382 3.3952544775961586 0 0 0
210 2 0.4131913584334822 7.761962884654034 4.79675194499879 0 0 0
433 1 2.5782703006937373 9.274774141608752 6.933729415152823 0 0 0
538 1 18.531110611084504 9.125447317036924 7.28885904170003 0 0 0
675 2 1.7160180247029782 5.616221776030883 0.62662869723529 0 0 0
150 2 9.958781428968484 8.072655534049156 3.807837448437582 0 0 0
32 2 0.4370284166129332 2.2659532550721293 1.6347604109755158 0 0 0
94 1 15.231107480084894 1.1520406382247401 4.874866847470029 0 0 0
506 2 15.686038165948297 9.295118940576268 6.284017832551355 0 0 0
140 2 1.6100990397288433 9.160622702894765 2.793098128083523 0 0 0
86 2 16.91963721749469 5.774378360893562 0.7723678842249212 0 0 0
145 1 9.552468423131645 9.36056648996158 0.45905657931850474 0 0 0
43 1 12.656608807726908 4.524474932875838 5.850267223816637 0 0 0
44 2 12.62557331125371 5.4936901511385505 6.011938722370661 0 0 0
45 2 12.3418403965454 4.028674895621723 6.640991848198791 0 0 0
49 1 11.090025093099259 6.294194288279742 2.0693349439403517 0 0 0
50 2 11.017838322869345 5.464221033473818 2.6628498420797566 0 0 0
365 2 10.554000285375558 0.9553459415166897 9.519574493953463 0 0 0
53 2 11.32750398260508 4.365700818304876 4.535810818888019 0 0 0
54 2 10.871801484713941 3.421728575229298 3.310422072860509 0 0 0
378 2 10.96257777540135 4.779101132660843 9.6724645764614 0 0 0
505 1 15.887966960777392 9.73895533267471 7.135870150035891 0 0 0
71 2 13.148902500627413 2.592909849676854 0.9213387650008377 0 0 0
539 2 18.59699368176768 8.540033483971609 6.508084841693471 0 0 0
23 2 0.9898451048704766 1.148888164775131 5.149506539731314 0 0 0
76 1 17.406801795756195 1.6093398387243865 3.2073642451628968 0 0 0
78 2 17.538222815273805 2.5709047431485503 3.0326592104122243 0 0 0
80 2 18.24232747234365 4.567866757734782 4.8063002077345995 0 0 0
408 2 14.424700340273883 3.7709129089745383 10.018509639595521 0 0 0
82 1 14.647908426464856 4.357622069956631 3.920676223244789 0 0 0
83 2 13.884867011555958 4.473421632397281 4.509823148586302 0 0 0
84 2 14.396812110061182 5.0215038286749625 3.2384719646649924 0 0 0
85 1 17.666994876074 6.0525124714312435 1.3200810255460231 0 0 0
87 2 17.324578671203245 6.827311216187077 1.8328936089941068 0 0 0
88 1 17.27563534037287 4.075472930330016 3.03551855391965 0 0 0
89 2 17.390151129217767 4.693182431009981 2.290249458167502 0 0 0
90 2 16.380212635513395 4.163911158991178 3.338882465769033 0 0 0
91 1 13.834255479083692 6.297392872272498 2.087968001568814 0 0 0
92 2 14.039985823783441 7.2708558117648145 2.3146355651281394 0 0 0
93 2 12.863307507770854 6.319875745500942 1.9439854360158508 0 0 0
142 1 5.726222209178541 9.402867300560935 0.38855683195904805 0 0 0
503 2 11.019119983516786 9.323060440501795 7.648201882309998 0 0 0
97 1 15.85960753529253 5.786412829933187 6.435135068647631 0 0 0
98 2 16.68888310909383 5.928860771251266 6.969561312125315 0 0 0
99 2 15.883572693048327 4.783584453926472 6.1996902922879675 0 0 0
101 2 18.45537242842354 1.7948068053791029 6.245107232327051 0 0 0
471 2 8.540001935626027 9.239146976091176 7.942885485492398 0 0 0
103 1 14.237317523471802 2.2855412589858473 1.9301079842033402 0 0 0
104 2 14.25562061720558 2.8561728797408428 2.722383608727555 0 0 0
105 2 14.094325351942429 1.3818264963865166 2.0377270730628276 0 0 0
536 2 14.080424475546758 8.043757772634926 9.051060345710278 0 0 0
509 2 17.481494373738947 7.330241140156967 9.575453534661158 0 0 0
75 2 15.59485348077589 2.5777196336121326 0.9280749932851565 0 0 0
329 2 4.087698887921325 0.8588249597685966 9.395703822336248 0 0 0
51 2 10.545251135630396 6.026060413843572 1.2984667057421693 0 0 0
172 1 12.407255029781854 7.441584044184603 5.182275478693788 0 0 0
173 2 12.226249911277119 7.983060839994215 5.944347731948478 0 0 0
174 2 11.89184141516319 7.882100699472619 4.475504064102372 0 0 0
149 2 10.893131423415587 7.845632886918332 2.6984018269337358 0 0 0
184 1 17.140093835144743 8.005766173410994 3.2788668038172917 0 0 0
185 2 17.252926619774755 8.956763525935814 3.0822151972394325 0 0 0
186 2 16.410743378897216 7.9872651015056055 3.9480831833870145 0 0 0
202 1 15.130137176624645 8.139293830381037 5.165066188580938 0 0 0
203 2 14.178037553529274 8.148860112306537 4.994940268791872 0 0 0
204 2 15.320596460600957 7.299203048481123 5.589459803070144 0 0 0
41 2 11.2529449578213 1.287793510903577 4.034533301907897 0 0 0
209 2 18.50233055453059 7.736264881308608 4.42049953763864 0 0 0
211 1 14.014843164264036 8.87859246894925 2.500634802971758 0 0 0
212 2 14.691512091631616 9.059427900900397 1.7671810805461288 0 0 0
344 2 1.3051008854619353 5.443818452128504 9.503827118764507 0 0 0
15 2 4.217045800155025 5.80040364746957 0.4563054143351496 0 0 0
710 2 8.564927503378188 5.718888172351457 0.2792910499692903 0 0 1
81 2 19.16621342185818 5.540173983639416 5.484279637993555 0 0 0
401 2 17.374280721669436 0.7069619323579726 9.89783495082929 0 0 0
535 1 14.076031578642217 9.025448891220348 8.9710223696427 0 0 0
38 2 10.532879396467814 2.453687035649973 0.308028549031063 0 0 0
443 2 1.4329991303425027 9.844750014791199 9.91995312282814 0 0 0
214 1 18.78294107604203 9.087502583589103 0.573652950153321 0 0 0
373 1 11.576914195593536 5.973030139956697 8.582040547912985 0 0 0
181 1 15.735433717234868 9.40254404620107 0.5146053071240712 0 0 0
375 2 12.524465162843322 6.135819924077691 8.386876727472952 0 0 0
58 1 8.39729089687058 1.1946571675500537 5.044628772168267 0 0 0
394 1 11.739917724285068 2.498331664826326 7.376942342813764 0 0 0
395 2 10.808597244371327 2.7573307922370116 7.469030139042467 0 0 0
396 2 11.811829324175326 2.028360902073503 6.575307526992697 0 0 0
397 1 15.791328354270615 3.096712139952839 6.8214380849330825 0 0 0
398 2 16.723040088160474 2.9992614666860318 7.117052191641943 0 0 0
399 2 15.661223074999995 2.341738793126713 6.146636825590569 0 0 0
66 2 13.195953626792393 1.367223644504796 4.954223502223383 0 0 0
409 1 17.888091328972795 6.022149380237147 8.581915401518124 0 0 0
410 2 17.774296314120736 5.4166665792023485 9.327310070159783 0 0 0
411 2 18.839187702545694 5.999140717054052 8.370747461657865 0 0 0
415 1 14.213858761350194 6.358977015669046 8.503034757958183 0 0 0
416 2 14.753670818191933 6.087763426791431 7.676947472989112 0 0 0
427 1 13.997104311294976 2.582334983127014 8.948082467314784 0 0 0
428 2 13.122924525467154 2.546108631746172 8.58158395263376 0 0 0
429 2 14.576858170612306 2.8209396494063013 8.163711053877512 0 0 0
430 1 18.41208898166992 3.2429912443734707 7.3494244999841785 0 0 0
431 2 18.71351964610383 3.9173134538989984 6.702209907051216 0 0 0
79 1 19.04141615091913 4.602392152054093 5.366216643835259 0 0 0
374 2 11.048981155373522 6.241411462078758 7.821488413423323 0 0 0
180 2 11.182205458954556 9.148069321482973 0.640453801036179 0 0 0
40 1 10.658755333852433 1.5201353690753778 3.2828068677420688 0 0 0
213 2 13.101141343679686 9.11653155235999 2.165854860635773 0 0 0
500 2 7.288010545625661 9.35709681825776 9.944813087474666 0 0 0
208 1 19.12616429302874 7.454848212612245 5.152966558557921 0 0 0
96 2 16.00740177829383 1.2135975438061382 4.280836562903398 0 0 0
432 2 19.038913542593715 3.0440108238158405 8.093897410335396 0 0 0
59 2 8.948476941757656 1.5272689622943139 4.300555573273224 0 0 0
64 1 12.386270254716242 1.0642601562286629 5.395908126019258 0 0 0
272 2 7.493627468276904 0.7985718930183062 1.7944493383381077 0 0 0
102 2 18.08228121227347 1.3644848825261395 4.803899778260961 0 0 0
28 1 5.967377294854334 1.0516060578964392 4.898672423350891 0 0 0
52 1 10.770579259458108 4.294165401079281 3.7408568755703677 0 0 0
42 2 10.874666305331854 0.9110273752063116 2.5734921139514926 0 0 0
3 2 2.215205889420486 2.5868616834740843 0.7930288140474291 0 0 0
147 2 8.893675211682138 9.079638062863518 1.174888800286121 0 0 0
328 1 4.183087780170437 1.4957200857183228 10.216265480565788 0 0 0
522 2 17.056712898194736 9.902518635847494 9.972463479904718 0 0 0
508 1 17.198433376249174 8.104287760541084 10.223271988931234 0 0 0
342 2 4.176868684650666 3.139676410829659 10.214816526523819 0 0 0
437 2 4.250883402137176 8.897820502489493 10.268467514279267 0 0 0
2 2 3.7114018308453467 2.649187638864274 0.28629015129591084 0 0 0
472 1 10.89163312789144 7.869427092362674 10.17695970131783 0 0 0
106 1 18.727494246178377 2.8344414596190584 0.5575098952945613 0 0 0
95 2 15.390724430048799 0.22794611210638888 5.244938825289422 0 0 0
335 2 1.2986503179405342 3.239739900606108 10.367799075447458 0 0 0
236 2 1.3046684812330507 0.1948158404561494 2.004437902094826 0 0 0
758 2 3.6547569346943334 9.487962894868625 14.133189546146058 0 0 0
352 1 5.94053229187132 0.541646422069705 11.919188747950825 0 0 0
709 1 9.479829802049432 5.72066845355032 20.362712664045546 0 0 0
406 1 14.616053220352223 4.545048676642972 10.646741776084486 0 0 0
330 2 4.901822354656837 1.140062564133916 10.85052311233591 0 0 0
667 1 0.9910706974614245 6.156590830619128 15.460268207612101 0 0 0
331 1 5.999867938028302 4.579971186052933 12.394161036984949 0 0 0
332 2 6.8649552885745235 4.4576013960768 11.992515538978521 0 0 0
333 2 5.3664151218890455 4.401990098716524 11.67671910313047 0 0 0
796 1 10.964397604086814 8.559200487744054 17.00879660965285 0 0 0
389 2 13.265437700754916 1.0757736071716673 11.879253267883554 0 0 0
749 2 0.6912043870032141 1.30563544491931 18.786535675167187 0 0 0
382 1 8.512271395624765 0.9654918132214129 12.100494101879766 0 0 0
348 2 2.3594510050401167 1.5271877997904264 12.534803120595694 0 0 0
349 1 2.8241269292375275 5.514497509599943 13.288303600151503 0 0 0
350 2 2.3944020957061514 6.016025098500682 12.546957027418479 0 0 0
351 2 2.6268203223226436 4.560889856871623 13.216189542012874 0 0 0
656 2 6.1104978214732775 5.9292903447324115 19.29148740299013 0 0 0
515 2 14.177877758836383 10.021390828314686 10.555573962164832 0 0 0
698 2 10.431285514872599 6.065280935741494 14.756072205253826 0 0 0
385 1 9.238162720253019 5.75250900427468 13.762748739372396 0 0 0
387 2 8.466593814450219 5.857832056273465 14.424311238673901 0 0 0
728 2 19.601475590935294 4.686542270919301 18.70575181090344 -1 0 0
757 1 2.8141286066978215 9.656477021362972 13.649086704576261 0 0 0
454 1 1.9942217531934512 7.5717674339854675 11.901493252493529 0 0 0
456 2 2.1430164062520625 8.33074283302818 12.484967202112179 0 0 0
460 1 5.728285826886977 7.242263376568747 12.26293487478226 0 0 0
461 2 5.8636954664360035 6.308524239087328 12.513491110810032 0 0 0
462 2 6.61176807160509 7.524184411664355 12.009956518323566 0 0 0
822 2 12.442378163721202 8.353557193072914 19.98451072818034 0 0 0
490 1 8.843887844617994 7.636548180896722 11.892921416980048 0 0 0
491 2 9.03309673730946 6.74830444007851 12.24457671246728 0 0 0
492 2 9.131569869243124 8.228917533815357 12.634906635451554 0 0 0
689 2 11.850993806259025 1.5080707744687643 17.72661925579543 0 0 0
649 1 2.6517470686631874 2.8939090077437895 13.848383210890955 0 0 0
650 2 3.544184097326171 2.6452268112662445 14.04050499266627 0 0 0
651 2 2.0205995279903397 2.685131008893449 14.567934931457254 0 0 0
652 1 4.673923810408124 1.3926222853240111 16.505991833611343 0 0 0
653 2 4.477310991399376 2.3343085268289254 16.416491176000566 0 0 0
654 2 5.279854374336864 1.3095430553867842 17.335913694370088 0 0 0
655 1 5.873320829463604 4.95960216741368 19.189259442389524 0 0 0
657 2 6.417078019733881 4.654273122143584 18.41841534457721 0 0 0
658 1 1.1922843155231537 4.399912575318911 17.518230771942143 0 0 0
659 2 1.0454120137808556 3.5032336650830214 17.096271526965868 0 0 0
660 2 0.9805866605982352 5.027833335579294 16.813018687875932 0 0 0
661 1 4.651493723104692 6.057880618513062 15.292983702087868 0 0 0
662 2 4.209767444008706 5.585252169919606 16.03748894589451 0 0 0
663 2 4.199196686137353 5.715988870624609 14.52282333690823 0 0 0
664 1 3.862330455739603 4.2824273561532715 17.263251650523326 0 0 0
665 2 2.8517802699803703 4.342183135817525 17.478894051211878 0 0 0
666 2 4.327798947120443 4.399442001981233 18.136252812948474 0 0 0
438 2 4.776168544057935 7.572208839822655 10.849200243837782 0 0 0
669 2 1.5721265294444005 5.824478793778797 14.767985728951885 0 0 0
671 2 2.811357547685995 1.7680017513581858 19.37875628990622 0 0 0
679 1 0.8344396803152829 2.247582441668359 15.728159187987073 0 0 0
402 2 16.399259299760008 1.301435814606582 11.032911981782188 0 0 0
686 2 10.095687803969586 2.8917021005051273 13.97677381176309 0 0 0
682 1 5.306001408618867 2.463074255440474 13.841698022350615 0 0 0
683 2 5.562107772044937 3.377299272948286 13.457089591832734 0 0 0
684 2 5.523527807737688 1.6932428159899915 13.29635398138833 0 0 0
687 2 8.940964075088957 2.339795854114641 12.91171586685814 0 0 0
107 2 18.961642233138893 3.877476067306451 20.446596428306865 0 0 0
694 1 7.635775957322674 4.277582254328256 17.247201714962262 0 0 0
695 2 8.548585673207876 4.370173795188442 17.513450930486286 0 0 0
696 2 7.636285648206495 3.39729537249916 16.800772122372994 0 0 0
703 1 7.454110451313637 6.286230005901478 15.66537724249525 0 0 0
704 2 7.571112443372095 5.500571662042489 16.239524346762554 0 0 0
705 2 6.448311487854382 6.370221034363941 15.533837997700584 0 0 0
673 1 2.603038278724928 5.657078472871427 20.515819511594255 0 0 0
183 2 15.595994113769803 9.039499436321014 20.2298060236221 0 0 0
715 1 7.437221282796933 2.118058761526603 15.77686878158214 0 0 0
716 2 6.587957097378623 2.3213705209891353 15.424561193958958 0 0 0
717 2 8.075703133894162 2.4540254970089235 15.10486667466468 0 0 0
388 1 12.37089625169057 1.0383621480694698 12.260125789332141 0 0 0
714 2 14.010897256404435 1.0457811695515864 18.810296572863514 0 0 0
676 1 6.222112237222855 1.1477515697524325 18.68822511141202 0 0 0
789 2 1.5823179489661205 9.152467045069818 14.830301143474735 0 0 0
418 1 15.060976821963228 1.0969596805394164 11.988218539706445 0 0 0
760 1 4.976623180560403 8.128011153656095 17.07895769260706 0 0 0
761 2 4.978288808662117 7.648646631063366 16.250583275589626 0 0 0
762 2 5.681907738840981 7.850407635116603 17.707236619245723 0 0 0
778 1 2.404150204775544 7.5453244629312 18.21208938244927 0 0 0
779 2 3.22178659711967 7.806722864904048 17.79954581047026 0 0 0
780 2 2.5750688567749527 6.671578697085525 18.67831723733903 0 0 0
784 1 6.532942615461452 7.593307539187024 19.036260237648865 0 0 0
674 2 2.53763657396544 4.69873565539756 20.461081239362002 0 0 0
786 2 7.503745644385111 7.7385443749990985 18.977349751480283 0 0 0
748 1 19.291212638430558 1.2177273114417637 19.015808128237094 0 0 0
791 2 5.556765146580528 8.495585378065693 13.557053043379401 0 0 0
670 1 2.5371991864932695 0.9698107555396278 18.86149822890842 0 0 0
814 1 9.18592929355329 7.791075402658645 18.91123109794988 0 0 0
815 2 9.407078649943593 8.417688450736062 19.607371834464924 0 0 0
816 2 9.5329829384537 6.926849700723465 19.215450540315604 0 0 0
823 1 7.704443650959825 8.882371632321286 16.057414295919877 0 0 0
824 2 7.645227109853813 7.909637719126132 16.276485659302384 0 0 0
425 2 18.49013134934547 0.9330147417459987 11.544705447761364 0 0 0
713 2 12.94435625221765 1.7352612121135278 19.62117746882985 0 0 0
347 2 2.7595835270648266 1.0442493844351133 11.127028437345206 0 0 0
750 2 18.730593831036668 1.3588641035668618 18.214519862688103 0 0 0
744 2 16.317829602399293 1.2329373896442906 18.028192388392014 0 0 0
474 2 9.95097607335933 7.80838808432983 10.528458209762388 0 0 0
788 2 19.65580080665377 9.004196687834238 15.066959734851634 0 0 0
685 1 9.206719112092367 3.0482482306287544 13.568630699333163 0 0 0
858 2 0.6122316109327374 7.612888771495101 18.8525986790711 0 0 0
862 1 18.46660477301134 9.352977756754177 14.019660284398924 0 0 0
681 2 0.9343258207417504 1.3043099977323536 15.840661962461118 0 0 0
37 1 9.683156657635353 2.8503523366944936 20.503345198316477 0 0 -1
668 2 0.9708046751040214 7.189331754357241 15.462742593531125 0 0 0
742 1 15.641984327019106 1.1943375516083783 18.75856597163343 0 0 0
692 2 12.508981289781177 6.213607709052737 19.429104910246867 0 0 0
424 1 19.129005761918666 0.6615982230954908 12.263629720029527 0 0 0
707 2 9.519284192776036 1.279620423355607 17.757061888220708 0 0 0
390 2 11.727324279666153 1.211203109919934 11.519433200586315 0 0 0
787 1 0.8948489171735639 8.817615162003086 15.50757696897799 0 0 0
336 2 0.6977250092862626 4.179378893008559 11.420121029004996 0 0 0
793 1 9.619174874553588 9.178009404763799 14.001347369658408 0 0 0
386 2 9.127574565539808 4.827067206554822 13.447915086165546 0 0 0
377 2 11.452232257360242 4.254647947221512 11.113024844876177 0 0 0
384 2 9.215073674382094 1.1130142848054876 11.41016251786514 0 0 0
706 1 8.87887370120038 1.1622955175892697 18.501617408785705 0 0 0
346 1 2.2613110546219737 0.8087314168380456 11.923532211099523 0 0 0
370 1 8.144161768268738 4.814352245763163 10.689077992481051 0 0 0
702 2 10.77297719614281 3.5897508132315696 17.342005967551533 0 0 0
825 2 6.839037180607609 9.040355194948221 15.798110644641527 0 0 0
1 1 2.868389360723436 3.0637821843443467 20.50814064047139 0 0 -1
863 2 18.716611585574327 8.604596344531043 13.397412637993106 0 0 0
753 2 13.905574059967522 1.1737241834612742 16.120301113734104 0 0 0
534 2 18.78260886962523 6.171796884208206 12.55682023985377 0 0 0
832 1 17.230703906787436 7.845202161186972 17.058693939822973 0 0 0
367 1 12.412841982541584 4.612879133308293 12.200713338872207 0 0 0
368 2 12.470495267878244 5.581689882162562 12.371266003470458 0 0 0
369 2 12.375161420192988 4.126817623132015 13.047544854563057 0 0 0
672 2 3.0133589156193747 0.9451061946364268 18.007651552511202 0 0 0
850 1 15.200866129684309 7.9226456595288886 18.955937174072123 0 0 0
859 1 14.116092275005075 8.767644040431403 16.14375584843917 0 0 0
510 2 18.047755579273446 8.105641197542367 10.781521155704196 0 0 0
831 2 15.323005070533172 8.972753901396537 13.159621992585953 0 0 0
828 2 12.33392296881448 8.551845757963992 13.688611355531991 0 0 0
407 2 13.862821813536572 4.447478883998651 11.329429147474473 0 0 0
773 2 4.33210145161249 9.904174756408096 17.280451985315658 0 0 0
403 1 19.131472262024406 4.403563491315485 12.623229889217667 0 0 0
404 2 19.0479127353533 3.687315780988137 13.295210765939482 0 0 0
405 2 18.274306604649563 4.406291533515386 12.059860869619975 0 0 0
790 1 5.473025751706304 9.158082469827187 14.254511554981784 0 0 0
852 2 15.285809761981156 7.101157286108884 19.45413935273875 0 0 0
785 2 6.308667287383433 8.219486128621908 19.793001687362093 0 0 0
420 2 15.31174972001699 1.7973080288069683 12.607095362455997 0 0 0
421 1 15.693532129124224 5.653796690756255 13.439533403774304 0 0 0
422 2 16.50146767354454 5.784409124694588 13.969532149826344 0 0 0
423 2 14.965041915343269 5.735112591991691 14.124592538213648 0 0 0
426 2 0.44757863972280587 0.6987738129953295 11.968286162338698 0 0 0
857 2 19.15345307829622 6.546668490889638 19.437698607887324 0 0 0
496 1 12.592556085978893 7.3162739695327135 12.235504826443728 0 0 0
497 2 13.526918413454132 7.583136036486972 12.041539600832937 0 0 0
498 2 12.024889169348965 7.5224111052851415 11.512561208727186 0 0 0
860 2 13.215831916494347 8.913628123211254 15.78824882793108 0 0 0
526 1 15.238687934982432 7.785175533303857 11.876762609036762 0 0 0
527 2 15.392419546184462 6.98540776363813 12.438146883634072 0 0 0
746 2 15.545437981702458 4.780642019091571 20.61852274666732 0 0 0
826 1 12.187448808056725 9.086707961474609 14.468582206009076 0 0 0
533 2 19.832882368886064 7.271597571215974 12.436960045147757 -1 0 0
834 2 16.361551548767117 7.733753625437347 17.55118664070178 0 0 0
851 2 14.238130374906886 7.866543267085872 18.67446287556206 0 0 0
830 2 16.563755542760703 9.312036162179838 14.054482296727981 0 0 0
528 2 15.918575280088321 7.7534405225335234 11.158835019194463 0 0 0
691 1 12.477500499993281 5.24618685271646 19.255343902164704 0 0 0
677 2 5.974357665418398 1.6821145281861045 19.46770706363217 0 0 0
693 2 11.660133970820862 5.033860841268949 18.72358547100235 0 0 0
697 1 11.084642973808698 6.191845639366449 15.495937533074663 0 0 0
699 2 11.059833052555248 7.135393030112769 15.792242522324155 0 0 0
701 2 10.619450439693548 4.921745868522901 16.621109932336623 0 0 0
712 1 13.044778798867815 0.9456136751700503 18.960475957222002 0 0 0
39 2 9.583869089770795 2.1672787237699858 19.770479279465622 0 0 0
718 1 11.7591381240214 2.7663013168569153 14.27198306445345 0 0 0
719 2 12.441999901112851 2.385202859539567 14.913326091042627 0 0 0
720 2 11.896525581916439 2.1172181028614085 13.55736201248604 0 0 0
721 1 15.75174864297445 3.1100725120841055 13.747129041883104 0 0 0
722 2 15.490171837712845 3.9926944716748167 13.426167774568466 0 0 0
723 2 15.220258300776047 2.8693977041093683 14.516762534185526 0 0 0
724 1 17.296886372584158 1.7147743111969418 16.90041812048378 0 0 0
725 2 17.139866131110754 2.6826235700048544 16.870919812722324 0 0 0
455 2 2.6996996775788804 7.611053238958707 11.20194272306436 0 0 0
727 1 18.829143402420723 4.985263999472854 19.24956475220468 0 0 0
729 2 18.013282494232367 4.920293631923818 18.700973738873557 0 0 0
730 1 14.480154139522293 4.378609213634651 17.605773265091294 0 0 0
731 2 14.080074351917752 4.79829885968539 18.346188366463675 0 0 0
732 2 14.157392730392287 4.927428370320832 16.803932334567364 0 0 0
733 1 17.872523222655627 5.785707620908088 14.99981308746667 0 0 0
734 2 18.816749700963324 5.695372996272063 14.82277469475561 0 0 0
735 2 17.70125244023594 6.6934591621484145 15.209793718834986 0 0 0
736 1 17.079613207318058 4.383812838836118 17.353097530721605 0 0 0
737 2 16.166406470598425 4.43252151743591 17.651150569022175 0 0 0
738 2 17.301675999956107 4.990860991797137 16.637409155803876 0 0 0
739 1 13.809436205691526 5.861099410920106 15.439171055149384 0 0 0
740 2 12.837887661526576 5.814218485239695 15.33568132299334 0 0 0
741 2 13.863622043731606 6.838112007894333 15.695217946139755 0 0 0
743 2 15.89831961111183 1.9853290236753376 19.243192994845455 0 0 0
334 1 1.4740121363929244 4.112357129589084 10.798962495412898 0 0 0
833 2 17.904447219642172 7.729712025961591 17.784098521964996 0 0 0
751 1 13.927770336793541 2.0787578273236313 15.741777545754443 0 0 0
752 2 14.1004679828286 2.5442350130561886 16.564701564720192 0 0 0
73 1 16.118124700417074 3.200676539220005 20.614512777794488 0 0 -1
754 1 18.277697516997243 2.2302736784492394 14.115621211366008 0 0 0