LAMMPS data file via write_data, version 3 Mar 2020, timestep = 25000000

1008 atoms
2 atom types

2.3258226334032095e-01 1.8166972736503752e+01 xlo xhi
4.3718102684858096e-02 2.2526670897170810e+01 ylo yhi
2.3849485662086245e-01 1.9267221143214243e+01 zlo zhi
9.2667656809702362e-02 -6.7345567477668871e+00 -4.3073769709360145e-02 xy xz yz

Masses

1 16
2 2

Atoms # atomic

1 1 6.4542925877665009e+00 7.4806552344291222e-01 5.0328116538398806e+00 0 0 0
224 2 -3.9314184309611588e-01 1.1076132529313279e+01 3.9394586440675954e+00 0 0 0
3 2 6.6956944903684157e+00 9.3060222864482200e-01 4.0897453899844045e+00 0 0 0
4 1 3.7433121745942168e+00 1.1020820343697368e+00 5.2160839649491342e+00 0 0 0
521 2 1.8019418440624997e+00 5.6449902824985561e+00 9.0519243756637273e+00 0 0 0
6 2 3.7659127677208479e+00 1.4659018321385560e+00 6.1315134492475201e+00 0 0 0
7 1 -5.4090497420721817e-01 6.2330784865176918e+00 5.2460736468809630e+00 0 0 0
8 2 -5.4394593525909607e-01 5.7495584543035934e+00 6.1347147488503309e+00 0 0 0
9 2 -1.2457815477233223e+00 6.9078614147206689e+00 5.3088538521571156e+00 0 0 0
10 1 2.0794738966421136e+00 6.5957145036518856e+00 4.7814177591782627e+00 0 0 0
11 2 1.1283465141914302e+00 6.7675752432758260e+00 4.9568784898013734e+00 0 0 0
12 2 2.5867249666201748e+00 7.4027733625187109e+00 4.9270250706292629e+00 0 0 0
150 2 1.1419668033383104e+01 7.5841528839856522e+00 8.8789860928882050e+00 0 0 0
14 2 4.8321909560886027e+00 5.1587060349577607e+00 8.5859035973490592e+00 0 0 0
526 1 3.8726237788066484e+00 2.6904984040626561e+00 5.4251044757002154e-01 0 0 1
668 2 1.2893647299678307e+01 1.9233101864945050e+00 8.9543806656881504e+00 0 0 0
154 1 1.2540996066641263e+01 2.6636595727188450e-01 1.7570788737117491e+00 0 0 0
584 2 2.6552307272054132e+00 7.8608944138943493e-01 9.5676694977936787e+00 0 0 0
302 2 1.4667537440290589e+01 1.0459324023076908e+01 6.7095001717302569e+00 0 0 0
21 2 1.0467483588076114e+00 2.2541685214643419e+00 1.2738749827472517e+00 0 0 0
836 2 1.2761715443445764e+01 9.2850118374314441e+00 8.9730211714023742e+00 0 0 0
304 1 1.3029508639974427e+01 1.0474669054608722e+01 3.8503553955800993e+00 0 0 0
776 2 7.3664019592176810e+00 1.0589033030311814e+01 9.6114941888360121e+00 0 0 0
25 1 4.6514179708161114e+00 6.6788807602249998e+00 7.0017235878034230e+00 0 0 0
26 2 5.3454745134818831e+00 7.1152268892652755e+00 7.5224316252425396e+00 0 0 0
27 2 3.8149858462385207e+00 6.8611185337545768e+00 7.4873844474954598e+00 0 0 0
28 1 6.1503345785155483e+00 6.6283859251882431e+00 2.6627691975368553e+00 0 0 0
29 2 5.9350851381067233e+00 6.1938906821519319e+00 3.5146795946968084e+00 0 0 0
30 2 5.4678793384419624e+00 7.2455157443535629e+00 2.3751633495116597e+00 0 0 0
31 1 1.1046434606266831e+00 1.1738256022239475e+00 2.7365584868368189e+00 0 0 0
70 1 3.8397720024681909e+00 5.6347093594759562e-02 2.2089007982621229e+00 0 0 0
33 2 9.9743532237043708e-01 1.6990104009819653e+00 3.5604584588866430e+00 0 0 0
34 1 2.8196532871682489e-01 1.2950150455209528e+00 7.2676411511260310e+00 0 0 0
80 2 6.2940829179616147e+00 1.7701762606416762e+00 1.1316263266520408e+00 0 0 0
36 2 5.8914922135787329e-01 1.9293610087748503e+00 7.9519951347663271e+00 0 0 0
37 1 6.4387996769379878e+00 2.2064725846321420e+00 2.6923393190715785e+00 0 0 0
38 2 5.5435428393185830e+00 2.4384618131371472e+00 2.9039044609827735e+00 0 0 0
39 2 6.9761157097917410e+00 3.0038353617469751e+00 2.7309530303910079e+00 0 0 0
40 1 3.8673224542257016e+00 2.5260558216327218e+00 7.5131960663380326e+00 0 0 0
41 2 4.7635797013575090e+00 2.7994026286982430e+00 7.2679213478988780e+00 0 0 0
42 2 3.3661153756877709e+00 3.3798307561152172e+00 7.3128787173430432e+00 0 0 0
43 1 -3.2410216943152648e-01 4.9446307844855832e+00 7.6389981407002079e+00 0 0 0
44 2 -9.8644489609064689e-01 4.2051470280181622e+00 7.5427269873176943e+00 0 0 0
45 2 -4.8073994480498294e-01 5.4108104770850556e+00 8.4820590594206298e+00 0 0 0
46 1 1.9303589012755134e+00 4.8336937984599784e+00 2.8040789703120623e+00 0 0 0
47 2 1.0143895234340339e+00 4.4304708310577920e+00 2.8782813277377004e+00 0 0 0
48 2 1.9875144218715752e+00 5.4993488244669217e+00 3.6016482050865055e+00 0 0 0
49 1 6.4087460382157442e+00 3.0960188452180475e+00 6.5166601277043901e+00 0 0 0
50 2 6.3209851808770736e+00 3.8852165902649216e+00 5.9785862897643458e+00 0 0 0
51 2 6.5595507148569325e+00 2.2269262661881117e+00 6.0307270764156380e+00 0 0 0
52 1 4.0574593259470841e+00 2.8984921448304206e+00 3.3971399394153399e+00 0 0 0
53 2 3.2146746321460977e+00 3.3782764452711258e+00 3.1708908404866558e+00 0 0 0
54 2 3.8358903137917109e+00 2.3461872385661300e+00 4.1588344952663032e+00 0 0 0
55 1 -7.9251225178831786e-01 4.0731876730278147e+00 3.2530398631447945e+00 0 0 0
56 2 -9.1874899499654084e-01 4.9336535472807661e+00 3.7233603161888951e+00 0 0 0
57 2 -5.1637095501856833e-01 3.3969469868943163e+00 3.9484734657297698e+00 0 0 0
58 1 2.0048986753640388e+00 4.4017014513196537e+00 6.6191682273708627e+00 0 0 0
59 2 2.1754819186521464e+00 5.2424637790756128e+00 6.1733561512156863e+00 0 0 0
60 2 1.2151335145964208e+00 4.5952973856291903e+00 7.1529371576579148e+00 0 0 0
61 1 8.5886615714419783e+00 7.3729708713643731e+00 1.8451529688877895e+00 0 0 0
62 2 7.6677129031630322e+00 7.2753805172776529e+00 2.2786986314068787e+00 0 0 0
13 1 4.7024031970649540e+00 4.8476280027516836e+00 9.4726330653618067e+00 0 0 0
64 1 2.1526387081721072e+00 6.8790010610717367e+00 8.2280150040170881e+00 0 0 0
65 2 1.4140858468362185e+00 7.5133828928000206e+00 7.9188069824128196e+00 0 0 0
301 1 1.5606511874699400e+01 1.0714424190653153e+01 6.4805698526032440e+00 0 0 0
272 2 1.0526001359565257e+01 9.8351422470721968e+00 1.0940812607705463e+00 0 0 0
99 2 1.2956806755466506e+01 4.6299122763384366e+00 9.6062937980760701e+00 0 0 0
120 2 9.2330477973189407e+00 1.4410470764297656e+00 6.5563960745216354e+00 0 0 0
72 2 3.9333037396884656e+00 9.9940689187122556e-01 2.0411077986038944e+00 0 0 0
73 1 5.3050099852792219e+00 5.0821138105404104e+00 5.0140233681162547e+00 0 0 0
74 2 4.7164788829277473e+00 5.5416317446848167e+00 5.6453036410573993e+00 0 0 0
75 2 4.6572302794373179e+00 4.5938254028094301e+00 4.4558811444436612e+00 0 0 0
76 1 6.5099617887729555e-01 2.5000263372280322e+00 5.0667359488473513e+00 0 0 0
77 2 2.3457380331428146e-01 2.0598022879208702e+00 5.8282717693283965e+00 0 0 0
78 2 1.2259342861279381e+00 3.2008081556976524e+00 5.4180950861641515e+00 0 0 0
276 2 9.4877985450033826e+00 9.7559353095103276e+00 8.5667855703766627e+00 0 0 0
147 2 1.7338910858583283e+01 7.8259976402679321e+00 1.0366560285509445e+00 0 0 0
63 2 8.7397982962466738e+00 6.6266630796208581e+00 1.2305199495126220e+00 0 0 0
85 1 1.5487635429436386e+01 1.1147346246382865e+00 4.8960392306331961e+00 0 0 0
87 2 1.5493590124224637e+01 1.4503919488829284e+00 3.9778908961882848e+00 0 0 0
88 1 1.2757011397965625e+01 1.0844520696616713e+00 4.8969635487281593e+00 0 0 0
89 2 1.2669663469204449e+01 1.8694012253875234e+00 4.3655980092506024e+00 0 0 0
152 2 7.7675863854098974e+00 5.7785104324902603e-01 7.7153505878727495e+00 0 0 0
91 1 8.4634917799452491e+00 6.4828109631270721e+00 5.3859078174444512e+00 0 0 0
92 2 8.1648233814065492e+00 5.8610812256908202e+00 4.6870322890027278e+00 0 0 0
93 2 9.4323117798966205e+00 6.5389160524242786e+00 5.2211402452360609e+00 0 0 0
94 1 1.1130186155932751e+01 6.1590977716789244e+00 4.8149045961495460e+00 0 0 0
95 2 1.1690714253742259e+01 6.9814497684723849e+00 5.0429549103631244e+00 0 0 0
96 2 1.1410317316409095e+01 5.3746613326169630e+00 5.3709631816664603e+00 0 0 0
237 2 1.5046396378028730e+01 7.7207550697602700e+00 7.8895499465765386e+00 0 0 0
321 2 6.9039308258763246e+00 7.2978585254706418e+00 8.8522629436973137e+00 0 0 0
671 2 7.9604489306627615e+00 5.4858315526455259e+00 8.7930462609638145e+00 0 0 0
101 2 1.4569099451300177e+01 4.8881620658560765e+00 1.2141795558680144e+00 0 0 0
324 2 1.2827507827304073e+01 7.3766643078276886e+00 1.1340259191886366e+00 0 0 0
117 2 9.4841626023569816e+00 5.7060858771699485e-01 2.4143302239873812e+00 0 0 0
16 1 5.8701610111486229e+00 4.6992315432402183e+00 4.2345049008110291e-01 0 0 0
100 1 1.4547647080475917e+01 4.5896448018344529e+00 3.3023842501516221e-01 0 0 0
109 1 1.3808828121447201e+01 6.3464184038123443e+00 7.3672188174978137e+00 0 0 0
110 2 1.4030509694553373e+01 5.6632874991356967e+00 8.0385833152717012e+00 0 0 0
111 2 1.2834414913673102e+01 6.3965748409425416e+00 7.5295934127608968e+00 0 0 0
112 1 1.5368159949178606e+01 6.3620721974642347e+00 2.6706708446598859e+00 0 0 0
113 2 1.4746944810037418e+01 6.9727086077321232e+00 2.2104879832730813e+00 0 0 0
114 2 1.6282431039740651e+01 6.7384204639072687e+00 2.4380860828106004e+00 0 0 0
115 1 1.0316611303741878e+01 1.1401215610797490e+00 2.7052988865700534e+00 0 0 0
116 2 1.0283664527390059e+01 1.8878764983349579e+00 2.1328701901334504e+00 0 0 0
399 2 7.7026831445482040e+00 2.3347617711202145e-01 1.3476630306251611e+00 0 0 0
118 1 9.0653857994049876e+00 1.2239373272569336e+00 7.4769775897824537e+00 0 0 0
119 2 9.2795705473880492e+00 2.0224237547297061e+00 8.0675288137248646e+00 0 0 0
209 2 3.2740953457189912e+00 1.0779070395287640e+01 7.0424361441496695e+00 0 0 0
121 1 1.5327713839540278e+01 2.3295316203551035e+00 2.4837671777477772e+00 0 0 0
122 2 1.5826947977512006e+01 3.1773355034506032e+00 2.4254942336785792e+00 0 0 0
123 2 1.5479915966345782e+01 1.8273092998589167e+00 1.6296983976611461e+00 0 0 0
124 1 1.3092011610078298e+01 2.5229296799815768e+00 7.4646350550569709e+00 0 0 0
125 2 1.4013647699821755e+01 2.7838199443857201e+00 7.3337150972349363e+00 0 0 0
126 2 1.2980552361851538e+01 1.7531184325689753e+00 6.9105502300289183e+00 0 0 0
127 1 8.6042270419212965e+00 4.6673644661376104e+00 7.3423052760312988e+00 0 0 0
128 2 7.8107578265419217e+00 4.0074127363261347e+00 7.2174316482439274e+00 0 0 0
129 2 8.4256028663352680e+00 5.3376963191077236e+00 6.6735392996459595e+00 0 0 0
130 1 1.0889656025209694e+01 4.9098020396234174e+00 2.4683901568332343e+00 0 0 0
131 2 1.1682935709012323e+01 4.3655656961497318e+00 2.6228061304174584e+00 0 0 0
132 2 1.0870397616471584e+01 5.4351992083778873e+00 3.2665041325757418e+00 0 0 0
134 2 1.5281625012777383e+01 3.9308596826278142e+00 5.9550341122828154e+00 0 0 0
136 1 1.2944091877373095e+01 3.3738772204171048e+00 3.3850243102308197e+00 0 0 0
137 2 1.3412105398494633e+01 3.9622211067203859e+00 4.0506892533761834e+00 0 0 0
138 2 1.3659151881380643e+01 2.8435865333306154e+00 2.9566242431277212e+00 0 0 0
139 1 8.2868693050780386e+00 4.0918497824260207e+00 3.4016986063430292e+00 0 0 0
140 2 8.9315975577138449e+00 4.6496014986687602e+00 2.8032722397611405e+00 0 0 0
141 2 8.7864289673292273e+00 3.4102548567042272e+00 3.8700108031637508e+00 0 0 0
142 1 1.1036256640992089e+01 4.0632976003210057e+00 6.2955144837713126e+00 0 0 0
143 2 1.1796663499221820e+01 3.7715485364834773e+00 6.8603895831126600e+00 0 0 0
144 2 1.0276930513077833e+01 4.3858086139698615e+00 6.9146412027997837e+00 0 0 0
167 2 1.1285865257927759e+01 6.0016122940797842e+00 1.1318834907245536e+00 0 0 0
148 1 1.1120351716168539e+01 7.1162469442511131e+00 8.0555382517737826e+00 0 0 0
149 2 1.0881606117450604e+01 6.2426793300230710e+00 8.3911802770780621e+00 0 0 0
19 1 1.1541666700431392e+00 2.9085387916884584e+00 5.7067157479961317e-01 0 0 0
18 2 6.0023469765963702e+00 5.0846891496988809e+00 1.3157644684252312e+00 0 0 0
165 2 1.6341804047223739e+01 6.5952704291318975e-01 4.4921876633346702e-01 0 0 0
608 2 6.1068938077658013e+00 3.5135223780094531e+00 9.6465818265373517e+00 0 0 0
305 2 1.2358410973440437e+01 1.1141012316933683e+01 3.4640686419918292e+00 0 0 0
155 2 1.2734472310932613e+01 1.1103831827623283e+00 1.2573863684207924e+00 0 0 0
84 2 3.3060073519778204e+00 6.4990558634426820e+00 7.5024031637376043e-01 0 0 0
157 1 1.4463210738741727e+01 5.2471252901592340e+00 4.8673968246332295e+00 0 0 0
158 2 1.4781872306849696e+01 5.8108033673161827e+00 4.1467624001386749e+00 0 0 0
159 2 1.4302489376178674e+01 5.8382268895136331e+00 5.6700239421431062e+00 0 0 0
160 1 9.6466006648357610e+00 2.1904733138742647e+00 5.0078808636396852e+00 0 0 0
161 2 1.0411633189495866e+01 2.7053922502170202e+00 5.2329158031007239e+00 0 0 0
162 2 9.9148839082569484e+00 1.5476112449286288e+00 4.2805643045224038e+00 0 0 0
587 2 -1.5514159953298414e+00 6.9121089788550059e+00 9.1522126493885896e+00 0 0 0
90 2 1.3679398994252127e+01 1.0711322463560080e+00 4.8767477315700329e+00 0 0 0
528 2 2.8813843125697414e+00 2.8832888240117724e+00 5.3815694096785105e-01 0 0 0
169 1 6.6305168107301364e+00 8.6403533812212086e+00 5.0421575739607825e+00 0 0 0
170 2 7.2803577505283812e+00 7.9387105077541724e+00 4.9994190118224511e+00 0 0 0
171 2 6.8235993288219863e+00 9.1384724105134492e+00 5.8498567374032477e+00 0 0 0
172 1 3.7832264668236126e+00 8.6867920847709517e+00 4.9736532692754345e+00 0 0 0
173 2 3.9721965633046423e+00 9.4806805501919627e+00 4.5048724667083375e+00 0 0 0
174 2 4.6958939197776974e+00 8.2689655753786155e+00 4.9457668422320697e+00 0 0 0
146 2 1.7862319601171357e+01 6.4013450930381310e+00 1.0523434018359499e+00 0 0 0
190 1 7.1473376319605375e-01 1.0268817494041212e+01 9.4885930723025140e+00 0 0 0
104 2 9.5931099293077171e+00 3.4055297835252629e+00 3.1062060460664243e-01 0 0 1
86 2 1.6145251164203138e+01 3.9167186300598122e-01 4.8970462943125330e+00 0 0 0
199 1 1.8599921233177614e+00 8.7145319375535255e+00 2.7911487491020246e+00 0 0 0
200 2 1.5604401836603010e+00 9.3433574682092164e+00 2.1110070457642411e+00 0 0 0
201 2 1.4411664939494899e+00 7.8871735693380591e+00 2.5801283795381385e+00 0 0 0
202 1 5.0101441450712114e-01 8.6788050933930645e+00 7.4004959298597184e+00 0 0 0
203 2 -4.6696852094226848e-01 8.3893821914124249e+00 7.2738195479025380e+00 0 0 0
204 2 7.3901659556428845e-01 9.1803277188744481e+00 6.5841744579909900e+00 0 0 0
205 1 6.5774240920710048e+00 1.0347432784588495e+01 2.8571989713787027e+00 0 0 0
206 2 6.6183378002602442e+00 9.7487137332626155e+00 3.6187907726450561e+00 0 0 0
207 2 6.5319519897470446e+00 9.9223692544906079e+00 1.9764765041367298e+00 0 0 0
208 1 4.0638507222985236e+00 1.0366930760203921e+01 7.5175848177260480e+00 0 0 0
5 2 4.6721672575934274e+00 8.3498676020804075e-01 5.1104915777303512e+00 0 0 0
210 2 4.3269204365678622e+00 9.5899435775005966e+00 7.0388484131438682e+00 0 0 0
330 2 9.4216406980932259e+00 1.0649759152417136e+01 4.5855162715683546e+00 0 0 0
311 2 1.0760428892812802e+01 1.1180743736697613e+01 6.0175864291212040e+00 0 0 0
306 2 1.3770342037812545e+01 1.0400435436592975e+01 3.2342981850762746e+00 0 0 0
220 1 4.0394788144330160e+00 1.0978407989978747e+01 3.5775706729458125e+00 0 0 0
221 2 4.9018403988257688e+00 1.0965224103741468e+01 3.1553765218980123e+00 0 0 0
235 1 -2.0202819332914883e+00 8.1475416098481741e+00 8.1490927116225684e+00 0 0 0
236 2 -2.1264768636543403e+00 8.9619668448993064e+00 8.7251733187203708e+00 0 0 0
238 1 4.1440040185380216e+00 8.0056204750706641e+00 1.6120132267082663e+00 0 0 0
239 2 3.4395387373811670e+00 8.4134595383546866e+00 2.1304669818840241e+00 0 0 0
240 2 4.3748827606107650e+00 8.6509550012369250e+00 9.2962387106699895e-01 0 0 0
244 1 7.8787539386487437e-01 1.0022581233511538e+01 5.0002377757834999e+00 0 0 0
245 2 1.0768065872777528e+00 9.5282185835507018e+00 4.2255889326439995e+00 0 0 0
753 2 3.7721043829802214e+00 9.2013105937906374e+00 9.1386630143420540e+00 0 0 0
151 1 6.8812517929960988e+00 3.0164407285930289e-01 8.1659955273286506e+00 0 0 0
254 2 1.5911391478771296e+01 9.1521248933809485e+00 5.7227322852104869e+00 0 0 0
253 1 1.5489665664063562e+01 8.4128897495168378e+00 5.1524805055493914e+00 0 0 0
255 2 1.5517883006342098e+01 8.8351971079782867e+00 4.2759797356655662e+00 0 0 0
256 1 1.2785908807895286e+01 8.2266008900966394e+00 5.4006879813017612e+00 0 0 0
257 2 1.3750496526564925e+01 8.1901247315421895e+00 5.1445991146506662e+00 0 0 0
258 2 1.2514253366848884e+01 9.0693447590648262e+00 4.9764773910283822e+00 0 0 0
293 2 1.2658690232719941e+01 1.0553028715118320e+01 7.2917161702311590e+00 0 0 0
32 2 1.7703345602344482e+00 5.0314789946156413e-01 2.9195438557694082e+00 0 0 0
133 1 1.5464724383711614e+01 3.2035415383235017e+00 6.5303877575226865e+00 0 0 0
153 2 6.6384132231239370e+00 1.0837584720323421e+00 8.6771483545354950e+00 0 0 0
283 1 1.0700394269668690e+01 8.9744548470826349e+00 2.5291066314943436e+00 0 0 0
284 2 1.0478134610073390e+01 9.3537805240118868e+00 3.4224924524853564e+00 0 0 0
285 2 9.9619800750402643e+00 8.3240839901189592e+00 2.2940450624225366e+00 0 0 0
286 1 9.3071311930486704e+00 8.6761580684700181e+00 7.2520895486804129e+00 0 0 0
287 2 9.9538340200800359e+00 7.9519569843079090e+00 7.6099021945296990e+00 0 0 0
288 2 8.4390405002237170e+00 8.3476076967442090e+00 7.5701417455069659e+00 0 0 0
289 1 1.5538983356109936e+01 9.9131278672272209e+00 2.7825370951280837e+00 0 0 0
145 1 1.7692677179635346e+01 7.2108166085043628e+00 1.6572126117260324e+00 0 0 0
291 2 1.5740597198910246e+01 9.5181070985884464e+00 1.8749268894171980e+00 0 0 0
292 1 1.3344861199737293e+01 9.9234686968120336e+00 7.4484167737343956e+00 0 0 0
20 2 3.5310672495955953e-01 3.4567837763323102e+00 5.4266293936701593e-01 0 0 0
294 2 1.3189815868233927e+01 9.1564596659349231e+00 6.8465127180249272e+00 0 0 0
83 2 2.2118666816229902e+00 5.5362681553489637e+00 1.3026154773835392e+00 0 0 0
585 2 3.6894295809792217e+00 1.7782258344397022e+00 9.0089427295729330e+00 0 0 0
68 2 -2.3632549693469800e+00 1.2418803850274431e+00 8.8030976346803680e+00 0 0 0
135 2 1.5593106220985460e+01 2.4082417113205032e+00 6.0048589900553910e+00 0 0 0
319 1 6.6174386390280464e+00 8.0418347955868281e+00 8.1774391670865469e+00 0 0 0
320 2 6.4462684253340630e+00 8.8311352672860863e+00 8.6852469941919423e+00 0 0 0
248 2 7.8414471516642301e+00 8.6041218160357396e+00 8.5082463144393350e-01 0 0 0
322 1 1.3333315425537437e+01 8.0208583050642943e+00 1.7016366586511595e+00 0 0 0
323 2 1.2700633692996401e+01 8.2249301289852852e+00 2.4199940400272180e+00 0 0 0
35 2 -6.0801536419038604e-01 9.2645759033750119e-01 7.5047353805695440e+00 0 0 0
328 1 1.0081211199681778e+01 9.9869947297170434e+00 4.9674923772324338e+00 0 0 0
329 2 9.7284624169010332e+00 9.3829048290253798e+00 5.6298208062625728e+00 0 0 0
274 1 9.4623267656607553e+00 1.0311187807775807e+01 9.3692302950761910e+00 0 0 0
667 1 1.2518173139622691e+01 1.3186789638497041e+00 9.6416787209791686e+00 0 0 0
192 2 8.7344475697872070e-01 9.9395314569002977e+00 8.6106342078455675e+00 0 0 0
780 2 1.3271033288955200e+01 9.3481160943052384e+00 7.0779311129950939e-01 0 0 0
520 1 2.0001364369030781e+00 4.8954102567405489e+00 9.7184737554991081e+00 0 0 0
66 2 2.4560356689040144e+00 7.3282813188801077e+00 9.0902290076756529e+00 0 0 0
67 1 -2.1209178827733739e+00 4.3108447784832765e-01 8.2898636361149105e+00 0 0 0
219 2 5.9783413968474823e+00 1.0978639156882910e+01 7.1559119618093350e+00 0 0 0
246 2 1.5558888418891628e+00 1.0594201451393271e+01 5.2313698727203350e+00 0 0 0
156 2 1.1662984691463880e+01 4.8131806419423490e-01 2.2101561242412391e+00 0 0 0
97 1 1.3937780979836308e+01 4.8263930051911439e+00 9.5704710028918374e+00 0 0 0
290 2 1.6225113613176607e+01 1.0670825112544385e+01 2.7576481989337558e+00 0 0 0
2 2 7.1046732483104700e+00 6.8435230781492939e-02 5.3447941938346943e+00 0 0 0
217 1 6.8218088569339539e+00 1.0929717138620459e+01 6.6543068290254634e+00 0 0 0
692 2 -2.5730659198262789e+00 1.0771419430159982e+01 9.6725074957054833e+00 0 0 0
607 1 6.6651204791916303e+00 2.7589164561642900e+00 9.6103597543307995e+00 0 0 0
82 1 2.5735816981255137e+00 6.0134855742703133e+00 4.7298122778264345e-01 0 0 1
670 1 7.6510887913155585e+00 6.0216083744433133e+00 9.5490751506050504e+00 0 0 0
69 2 1.4944031508880922e+01 1.9958600142882807e-01 7.7830093355883809e+00 0 0 0
17 2 5.1252361299001050e+00 4.1146046393638489e+00 5.6021508603715808e-01 0 0 0
486 2 1.1711299275585096e+01 3.2197706995340003e-01 8.7638792029937758e+00 0 0 0
103 1 1.0298157643221270e+01 2.7252940322541641e+00 5.8749585626536804e-01 0 0 0
106 1 9.4942300390501071e+00 2.9021873822513755e+00 9.5792497183680165e+00 0 0 0
22 1 4.1772137891933925e-01 2.7107495112168998e+00 9.5242346932440078e+00 0 0 0
482 2 -3.6659825773498378e-01 1.5468774563653276e-01 2.2907357105851576e+00 0 0 0
612 2 1.1992101146933313e+01 2.7841877127490404e+00 4.3594395542435949e-01 0 0 0
247 1 7.2372688845984383e+00 9.2074543757260692e+00 3.3384948601591463e-01 0 0 0
108 2 8.5191670630564751e+00 3.1627838359478657e+00 9.6227565309125094e+00 0 0 0
693 2 -9.9109228879127631e-01 1.0357143957375483e+01 9.6273248244072853e+00 0 0 0
485 2 1.0387337020478045e+01 3.3700233813598879e-02 7.9650087538037990e+00 0 0 0
166 1 1.1638717115852142e+01 6.4138195519899446e+00 3.0004794014624453e-01 0 0 1
79 1 6.6177653360517290e+00 1.3307911281927207e+00 2.7248848862186764e-01 0 0 1
23 2 1.0647785778744603e+00 3.4706058095401726e+00 9.6561790697548417e+00 0 0 0
222 2 3.3623490212528258e+00 1.1064809026618121e+01 2.8700324950503959e+00 0 0 0
15 2 3.7472973436458870e+00 4.6986865148395474e+00 9.5736213584402563e+00 0 0 0
610 1 1.2926470069283056e+01 2.5264123843049471e+00 2.4101249816978113e-01 0 0 1
187 1 1.2817283423842332e+00 1.0023635616260519e+01 3.9401126089162447e-01 0 0 0
778 1 1.3232316035499357e+01 1.0248494932461007e+01 2.6788731453438375e-01 0 0 1
586 1 -8.3309310926043212e-01 6.4126732658203114e+00 9.7409957428167431e+00 0 0 0
507 2 3.4983212179528111e+00 3.8038674547336931e-01 1.4396879424867688e+01 0 0 0
823 1 3.3977117509772246e+00 8.0052862312688511e+00 1.7925770493350157e+01 0 0 0
588 2 -1.2208285620788266e+00 5.9841229497368982e+00 1.0532940114214746e+01 0 0 0
714 2 1.8270545973173462e+00 1.0551119287775363e+01 1.6429226917426995e+01 0 0 0
749 2 -2.0748536699745124e+00 1.0660772347954358e+01 1.4787916022907979e+01 0 0 0
658 1 9.5347981169113805e+00 4.9765679023868770e-01 1.0900597125899155e+01 0 0 0
510 2 1.1450941309805218e+00 9.5593637831626288e-01 1.4408330496765130e+01 0 0 0
743 2 -3.3484385091149260e-02 7.3733272776539307e+00 1.0780322679739333e+01 0 0 0
570 2 -4.9643321700408460e-01 7.9385206563708808e+00 1.8504306900154958e+01 0 0 0
525 2 -2.1911793366646286e+00 2.2632663094979302e+00 1.0813967618465952e+01 0 0 0
809 2 1.0165868405705993e+01 1.0553659676211710e+01 1.2456413531528938e+01 0 0 0
249 2 9.2279285434543734e-01 9.5161063436641999e+00 1.8569617050351695e+01 0 0 0
794 2 1.2554679978356390e+01 1.0713446430107643e+01 1.2432288317818067e+01 0 0 0
331 1 9.4237258630777543e+00 8.5939450692043824e+00 1.9223655069847958e+01 0 0 -1
816 2 7.4687193347680703e+00 1.0858593133506229e+01 1.5601427707265426e+01 0 0 0
333 2 8.8048825565848645e+00 7.9232579655951980e+00 1.8721100583588488e+01 0 0 0
98 2 1.4151666473679034e+01 5.6558333269910710e+00 1.0083238411575516e+01 0 0 0
620 2 5.8472159979428833e+00 6.0133461674350164e-01 1.1652763389556650e+01 0 0 0
505 1 2.7995539726349010e+00 1.0289019374130253e+00 1.4340517086736062e+01 0 0 0
506 2 3.0334333185944926e+00 1.7792490289914322e+00 1.4923536192522821e+01 0 0 0
655 1 3.1410517232413993e+00 1.4747972971464735e-01 1.8180250259340269e+01 0 0 0
508 1 3.1637955368509285e-01 1.3717332106087208e+00 1.4638826625183853e+01 0 0 0
752 2 3.0988078017606329e+00 9.1570523064647986e+00 1.0695964693885990e+01 0 0 0
721 1 3.3762774601703356e+00 1.0787567647443908e+01 1.5460478967559125e+01 0 0 0
511 1 -4.0052025076478284e+00 6.4101774804934388e+00 1.4286038766260713e+01 0 0 0
512 2 -4.1329826623969321e+00 5.5695447348724088e+00 1.3752606968034964e+01 0 0 0
513 2 -4.1918316056178382e+00 6.0825442407864099e+00 1.5161947155803354e+01 0 0 0
514 1 -1.2792801551548556e+00 6.5766848372445805e+00 1.4439808920361576e+01 0 0 0
515 2 -1.1157669851900938e+00 5.9292348319508612e+00 1.5137012948298029e+01 0 0 0
516 2 -2.3093619379754387e+00 6.7251969628796999e+00 1.4474422768897174e+01 0 0 0
824 2 2.5699425249819248e+00 7.8411823576590329e+00 1.7465136455747967e+01 0 0 0
519 2 1.9947390982561100e+00 5.2585389357942258e+00 1.8314148514032730e+01 0 0 0
669 2 1.2100676332250945e+01 1.8979547624869590e+00 1.0390288933682754e+01 0 0 0
522 2 2.1310790943137286e+00 5.3375437526484468e+00 1.0612908365833560e+01 0 0 0
606 2 1.0451114745056667e+01 4.2738665190550904e+00 9.9094895178478968e+00 0 0 0
825 2 3.3251434037048480e+00 8.8415912167221951e+00 1.8394749254461232e+01 0 0 0
621 2 7.4640409628851216e+00 7.0500536185480944e-01 1.1896386939093286e+01 0 0 0
571 1 -5.5177208834701226e+00 1.0253299986222224e+00 1.7541915446289849e+01 0 0 0
527 2 -2.7428916905619860e+00 2.3728577126510149e+00 1.8649246073085102e+01 0 0 0
529 1 1.5042397193799895e+00 6.7836001830109813e+00 1.6928658267120689e+01 0 0 0
530 2 1.5345561937095695e+00 6.3456346641185393e+00 1.6086851401856848e+01 0 0 0
531 2 5.8931306553958596e-01 6.8541354513924277e+00 1.7313374802963210e+01 0 0 0
532 1 2.3596618915536416e+00 6.2688045090525382e+00 1.2180726239306102e+01 0 0 0
533 2 3.2938226491298872e+00 6.5695552558797603e+00 1.2198851903321307e+01 0 0 0
534 2 2.2394250725243241e+00 5.8988984446745079e+00 1.3041536168545706e+01 0 0 0
535 1 -1.8313788633683030e+00 1.4370562342002753e+00 1.2050605621869417e+01 0 0 0
694 1 -2.8084392036328278e+00 1.0072542399204155e+01 1.8874181323371033e+01 0 0 0
835 1 1.2426986173760822e+01 8.8199338746476688e+00 9.7631918010812715e+00 0 0 0
538 1 -2.9051910459539045e+00 1.3763909709606530e+00 1.6849581416482337e+01 0 0 0
271 1 3.5822419163229942e+00 1.0205990660509350e+01 1.9197823465257628e+01 0 0 -1
540 2 -2.6070359186414827e+00 1.6121936162956605e+00 1.5973794941132633e+01 0 0 0
541 1 2.7403149787279979e+00 2.7609355439714585e+00 1.2119950932498410e+01 0 0 0
542 2 2.7211788141501678e+00 2.0406792612458213e+00 1.2760277885566630e+01 0 0 0
543 2 2.9421921383946685e+00 2.3967830592761925e+00 1.1214499865767191e+01 0 0 0
544 1 6.0207989883827207e-01 2.5418676389868926e+00 1.7107263454608855e+01 0 0 0
545 2 1.7373862643528692e-01 2.0708056735623535e+00 1.7875042952332471e+01 0 0 0
546 2 4.6810879690427054e-01 2.0112541476032026e+00 1.6321853244355957e+01 0 0 0
547 1 -3.6546076540809183e+00 5.0054107147903473e+00 1.6925908455464636e+01 0 0 0
548 2 -4.2717773746861738e+00 4.3099167997538030e+00 1.6690369780088901e+01 0 0 0
549 2 -3.7438758578686326e+00 5.0944184314590695e+00 1.7886316215683287e+01 0 0 0
550 1 -1.8139350836124377e+00 5.2161570508418427e+00 1.2079534877012664e+01 0 0 0
551 2 -1.0720301734425717e+00 4.5787723074640745e+00 1.2404698031598063e+01 0 0 0
552 2 -1.7034348604176395e+00 6.0014983569416804e+00 1.2671214535682562e+01 0 0 0
553 1 2.8472279408507575e+00 3.2570340690356132e+00 1.5948319774949255e+01 0 0 0
554 2 2.1058523694919877e+00 3.0528557182176250e+00 1.6534812840693405e+01 0 0 0
555 2 3.5099574899426331e+00 3.6836326950812324e+00 1.6518639807948595e+01 0 0 0
556 1 9.4095455367665615e-02 3.3735664202753868e+00 1.2718610356414631e+01 0 0 0
557 2 9.8005484207614568e-01 3.1957269034884046e+00 1.2360031378452069e+01 0 0 0
558 2 3.6631628598222221e-02 2.5975918779334943e+00 1.3359523823823235e+01 0 0 0
559 1 -4.1434052759075231e+00 4.0552692829848436e+00 1.2889043856819530e+01 0 0 0
560 2 -3.4043541118840213e+00 4.2807520315106196e+00 1.2275261215326504e+01 0 0 0
561 2 -3.7080758244857801e+00 3.3839864072450530e+00 1.3545427830935838e+01 0 0 0
562 1 -1.1318083745732945e+00 4.5195932991497711e+00 1.6238059075421454e+01 0 0 0
563 2 -5.3057994066814373e-01 3.8738657435781225e+00 1.6655360601161675e+01 0 0 0
564 2 -2.0370336869462329e+00 4.5964564563495820e+00 1.6635680751583969e+01 0 0 0
565 1 4.8567916017085651e+00 6.8186077717191296e+00 1.1369676426381215e+01 0 0 0
566 2 4.4285801764364194e+00 7.4793319666307392e+00 1.0779649599004129e+01 0 0 0
815 2 8.6677029285046370e+00 1.1075437013746201e+01 1.6622117285815442e+01 0 0 0
568 1 -8.1909395924130290e-01 7.1999844015296137e+00 1.7936989581003971e+01 0 0 0
569 2 -1.0757957675227763e+00 6.4825032784467345e+00 1.8526402503723780e+01 0 0 0
724 1 7.6660330657296782e-01 1.1164002019172878e+01 1.3065587331278417e+01 0 0 0
539 2 -3.8851585639770434e+00 1.4163829846282536e+00 1.6876567024704073e+01 0 0 0
572 2 -5.9319153866922205e+00 1.7090341215535694e+00 1.8111442722353814e+01 0 0 0
659 2 1.0275088094517171e+01 1.0998160418942572e-01 1.1455266675033901e+01 0 1 0
986 2 1.3820770872740841e+01 4.0346824414704013e-01 1.0645387261791120e+01 0 0 0
576 2 5.4169901519771413e-01 1.4183743039959638e+00 1.0528148250579475e+01 0 0 0
577 1 1.6268798023709632e+00 5.3899218163807010e+00 1.4596287622495167e+01 0 0 0
578 2 8.6180386710676959e-01 4.8200987311262411e+00 1.4267009435546480e+01 0 0 0
579 2 2.2270392741864766e+00 4.6175202819809673e+00 1.4968091672046343e+01 0 0 0
580 1 -2.4806767349648484e+00 2.4191981843321018e+00 1.4275112994901031e+01 0 0 0
581 2 -2.0272484246819711e+00 2.1215689246569438e+00 1.3458802604453876e+01 0 0 0
582 2 -1.8642434137316930e+00 3.0370070449088731e+00 1.4707474369481679e+01 0 0 0
672 2 8.4077430014884023e+00 6.5780170046941366e+00 9.8713426787263217e+00 0 0 0
696 2 -2.1848142112827675e+00 1.0802775170276755e+01 1.8928219365411159e+01 0 0 0
589 1 1.1838133477504174e+01 9.7484620119349230e-01 1.4282535047699108e+01 0 0 0
567 2 4.8638165590888072e+00 6.0267390145586148e+00 1.0799596490134865e+01 0 0 0
591 2 1.2074667623343744e+01 1.7861012130783354e+00 1.4831149692263104e+01 0 0 0
592 1 8.9792929790421336e+00 1.4499663990759062e+00 1.4827337355084033e+01 0 0 0
834 2 5.6884666507683193e+00 1.0431087905763381e+01 1.4228968006074981e+01 0 0 0
594 2 9.0934762610679680e+00 1.8625422574889179e+00 1.3947295506953552e+01 0 0 0
595 1 4.6957397020703029e+00 6.3096016102686212e+00 1.5255468461601650e+01 0 0 0
596 2 4.7858334273320517e+00 5.7924659481926293e+00 1.6154855830616597e+01 0 0 0
597 2 4.6041396305127060e+00 5.6302840241709342e+00 1.4526299155820430e+01 0 0 0
598 1 7.2308214273099987e+00 6.4615474028934541e+00 1.4619723081673035e+01 0 0 0
599 2 6.2827129950320151e+00 6.7200318661655967e+00 1.4904838447580547e+01 0 0 0
600 2 7.1663216416793825e+00 6.0960726415349304e+00 1.3687949126952065e+01 0 0 0
536 2 -2.5374477900165551e+00 7.3016235274542862e-01 1.1900959973846586e+01 0 0 0