LAMMPS data file via write_data, version 3 Mar 2020, timestep = 0

1008 atoms
2 atom types

2.5429878769407743e-01 1.8145256212303572e+01 xlo xhi
5.1001414666474787e-02 2.2519387585330065e+01 ylo yhi
2.0999488578155656e-01 1.9295721114214196e+01 zlo zhi
9.2067233036451229e-02 -6.6305892911689543e+00 -4.0856762493437539e-02 xy xz yz

Masses

1 16
2 2

Atoms # atomic

1 1 6.8691165875743856e+00 1.0476330241180465e+00 4.3599046174439220e+00 0 0 0
83 2 2.2082855391149789e+00 5.6705473437572635e+00 1.3114725276902330e+00 0 0 0
3 2 6.8949935962378550e+00 1.4508770479270243e+00 3.4676917245360581e+00 0 0 0
4 1 4.0837225726671038e+00 9.7837246574427317e-01 4.7768787765447032e+00 0 0 0
5 2 5.0447942761449580e+00 8.6929446893146134e-01 4.6602312185150288e+00 0 0 0
6 2 4.0313394528496129e+00 1.3415958675087318e+00 5.6459870923248303e+00 0 0 0
7 1 -2.5735435032088527e-01 6.4249207821673373e+00 5.3324789117100675e+00 0 0 0
8 2 -5.1370782306029983e-01 5.6629639662210591e+00 5.9352035203796047e+00 0 0 0
9 2 -1.0436585591919654e+00 6.9500152057681994e+00 5.1806127856765940e+00 0 0 0
10 1 2.3119727532335528e+00 6.0358898304762603e+00 5.0293746319680759e+00 0 0 0
11 2 1.3829966611438860e+00 6.2738090847601988e+00 5.2547730871433753e+00 0 0 0
12 2 2.7640961740757906e+00 6.8618613148369203e+00 4.8665488344979382e+00 0 0 0
692 2 -2.5199567807655088e+00 1.1042707474994998e+01 9.5760461604234237e+00 0 0 0
14 2 5.0884837045780049e+00 5.1082363084086451e+00 8.7449912027134129e+00 0 0 0
22 1 3.8888760721853144e-01 2.6528422482808898e+00 9.6763869319084534e+00 0 0 0
248 2 7.0722504318538881e+00 8.5038786616433342e+00 6.1258095133674351e-01 0 0 0
18 2 5.9617805129802433e+00 5.5946999788273315e+00 8.2423877511732413e-01 0 0 0
69 2 1.5271292257826920e+01 1.4343308167323399e-01 7.6713331845656256e+00 0 0 0
668 2 1.2683082122011033e+01 1.6530592976575917e+00 9.2802766850431535e+00 0 0 0
21 2 1.3517364397725222e+00 2.2451021819836550e+00 1.0484247264079316e+00 0 0 0
167 2 1.1093660357818031e+01 5.8227718742720116e+00 1.1653092092698278e+00 0 0 0
117 2 9.8759770953704678e+00 4.4943750433261453e-01 2.5143239478709964e+00 0 0 0
290 2 1.6359353439372235e+01 1.0640110728887402e+01 2.7110759828977105e+00 0 0 0
25 1 4.6496768550854490e+00 6.1393935404118363e+00 7.3297154785257730e+00 0 0 0
26 2 5.2744454955769218e+00 6.8489896143997226e+00 7.4363558581823161e+00 0 0 0
27 2 3.7640800165432622e+00 6.5140594026508660e+00 7.4247116816197716e+00 0 0 0
28 1 5.8343915855245285e+00 6.3559436524440907e+00 2.3934364777693431e+00 0 0 0
29 2 5.7609970438629876e+00 6.0052369488184123e+00 3.3374867621863324e+00 0 0 0
30 2 5.1193394810804893e+00 7.0472208207049833e+00 2.3959505563729073e+00 0 0 0
31 1 1.2641560290862923e+00 1.2223707335088079e+00 2.6430890383553516e+00 0 0 0
32 2 2.1658920098248964e+00 8.9283667506424358e-01 2.5539593743473987e+00 0 0 0
33 2 1.2244326271293740e+00 1.8376558740746147e+00 3.4895926904328411e+00 0 0 0
34 1 3.3265815113608221e-01 1.2496291938607134e+00 7.1842769561391489e+00 0 0 0
399 2 8.1201453081460464e+00 1.4292578462289429e-01 1.1078572120801082e+00 0 0 0
36 2 4.9538792926514175e-01 1.9551570152732596e+00 7.8636135375257279e+00 0 0 0
37 1 6.5800937230125811e+00 2.7774805954551356e+00 2.1996603951612990e+00 0 0 0
38 2 5.6839259457810272e+00 3.1022835103703166e+00 2.5447461187519527e+00 0 0 0
39 2 7.1469474320900765e+00 3.5433121736607185e+00 2.5446873466636877e+00 0 0 0
40 1 4.1840002512912609e+00 2.4436402984699446e+00 7.2219518973836987e+00 0 0 0
41 2 5.0840889208635032e+00 2.5563588135507564e+00 6.8838898234576442e+00 0 0 0
42 2 3.6378647582289836e+00 3.2676929049461187e+00 7.0996070903708359e+00 0 0 0
43 1 -3.7504960465761772e-01 4.6330540833505207e+00 7.2557715165890393e+00 0 0 0
44 2 -1.0729416522556923e+00 3.9708362051994315e+00 7.1702142310741195e+00 0 0 0
45 2 -5.5498493213340305e-01 5.1879094220307183e+00 7.9906980538517711e+00 0 0 0
46 1 1.8030807011665169e+00 4.9314817050857229e+00 2.7449016840997018e+00 0 0 0
47 2 8.8201365177509150e-01 4.7468839615705960e+00 2.9735012087133841e+00 0 0 0
48 2 2.0883824242320945e+00 5.3428030599552798e+00 3.5546479793920409e+00 0 0 0
49 1 6.6826764669838514e+00 3.1239592885644720e+00 6.1211883093220276e+00 0 0 0
50 2 6.4687759834739129e+00 4.0330596456486134e+00 5.7112854612439463e+00 0 0 0
51 2 6.7553399148216728e+00 2.4382053462357165e+00 5.3823707350760861e+00 0 0 0
52 1 4.0430744339958906e+00 3.2973177696587186e+00 3.4439509900144976e+00 0 0 0
53 2 3.2105602295629803e+00 3.5577196475641921e+00 2.9861305528910180e+00 0 0 0
54 2 3.8755350939797104e+00 2.4700549376030452e+00 3.9384645481781662e+00 0 0 0
55 1 -7.1716349220539821e-01 4.2534542977095402e+00 3.4442244463799825e+00 0 0 0
56 2 -9.1950365053694427e-01 4.9607552498557066e+00 4.1062444824696875e+00 0 0 0
57 2 -3.4369394062876124e-01 3.5117012822702707e+00 3.9742587869921979e+00 0 0 0
58 1 2.1066113806876623e+00 3.9281771569219930e+00 6.7752589275612465e+00 0 0 0
59 2 2.3816783881605534e+00 4.8246492961072418e+00 6.4473698453982387e+00 0 0 0
60 2 1.2333705175764873e+00 4.1035521364412446e+00 7.2049732032553058e+00 0 0 0
61 1 8.1504450705256346e+00 7.3658700159455144e+00 1.5879794174095261e+00 0 0 0
62 2 7.3579193882048362e+00 7.0930739116516186e+00 2.1061140801751614e+00 0 0 0
63 2 8.4169605004144774e+00 6.6010410421425574e+00 1.1214908198376461e+00 0 0 0
64 1 2.0616533713025338e+00 6.6413794066846572e+00 8.3469467457507829e+00 0 0 0
65 2 1.2545199550627371e+00 6.9826481632646029e+00 7.9179286832334865e+00 0 0 0
66 2 2.3583304325551757e+00 7.3697674358870922e+00 8.9511054958599292e+00 0 0 0
309 2 7.9812404840750295e+00 1.1036534380764605e+01 2.8571184657953683e+00 0 0 0
68 2 -2.3843524056677943e+00 1.3654142329601189e+00 8.6159971920345111e+00 0 0 0
86 2 1.6463618805087485e+01 1.6912483672581727e-01 5.0008679592872110e+00 0 0 0
72 2 4.0384599141459407e+00 1.3558639810180957e+00 1.1753995035470366e+00 0 0 0
73 1 5.4854720327595290e+00 5.1954505776047366e+00 4.8090129526061203e+00 0 0 0
74 2 5.0302555241807463e+00 5.5478477976630280e+00 5.6311124163198496e+00 0 0 0
75 2 4.8598289922379960e+00 4.5437971724242994e+00 4.4144980927824919e+00 0 0 0
76 1 9.4324172206107337e-01 2.5473917611663826e+00 4.8097507602517826e+00 0 0 0
77 2 5.1389673000666680e-01 1.9899910237606775e+00 5.4939932895827361e+00 0 0 0
78 2 1.6375043200632959e+00 3.0322662373538605e+00 5.3620058237752302e+00 0 0 0
84 2 3.2121287916500836e+00 6.7868710028271018e+00 8.4688442595450220e-01 0 0 0
671 2 7.8922742745613110e+00 5.7321623685125411e+00 9.0748370832306566e+00 0 0 0
99 2 1.2879599813714210e+01 4.5028255331301805e+00 9.5290340285660253e+00 0 0 0
85 1 1.5765725722384484e+01 8.5204489739296652e-01 4.9116914247805674e+00 0 0 0
87 2 1.5914981944712975e+01 1.1060704967189736e+00 3.9528476732786371e+00 0 0 0
88 1 1.3076070910804274e+01 9.7459357946764991e-01 5.1003172255141322e+00 0 0 0
89 2 1.2984966975672991e+01 1.6691997020312523e+00 4.4478803985085840e+00 0 0 0
90 2 1.4008540272624014e+01 7.4804837603229801e-01 5.0824823987285885e+00 0 0 0
91 1 8.3686457127310643e+00 6.3721834209733563e+00 5.2913742226905089e+00 0 0 0
92 2 8.2215584790771494e+00 5.6666919299881426e+00 4.6213492833001428e+00 0 0 0
93 2 9.2298890062500440e+00 6.7046405067193655e+00 5.0406661295277511e+00 0 0 0
94 1 1.1167597954449262e+01 6.6994265973555089e+00 5.0101962669087623e+00 0 0 0
95 2 1.1950623865824609e+01 7.3341101044967800e+00 5.1872561822249823e+00 0 0 0
96 2 1.1095901423532545e+01 6.1222582420149534e+00 5.8214905615834818e+00 0 0 0
237 2 1.5239313053089397e+01 7.6267082502176171e+00 8.0122723560435567e+00 0 0 0
301 1 -1.8333576309114497e+00 1.0800474570324900e+01 6.6328200609652663e+00 1 0 0
401 2 1.4129303231068859e+00 1.4721369861875674e-01 7.7906477461775037e+00 0 0 0
101 2 1.4506228945403011e+01 5.1855766995937715e+00 1.3233405733447532e+00 0 0 0
221 2 4.3948344434614501e+00 1.0532013059537340e+01 2.8496371034679302e+00 0 0 0
13 1 5.1686060845570765e+00 4.6522202382636220e+00 9.6356755421916240e+00 0 0 0
602 2 1.6470672165623085e+01 4.6358010290473368e+00 3.7083723017251552e-01 0 0 0
523 1 -2.2456146675019548e+00 2.6176534419035811e+00 9.7144179459584894e+00 0 0 0
109 1 1.3724007700818952e+01 6.5275498011751907e+00 7.3248308786105616e+00 0 0 0
110 2 1.3715324772099082e+01 5.7415884304013334e+00 7.9911124769081265e+00 0 0 0
111 2 1.2885024007145105e+01 7.0589537244928726e+00 7.4189111995457848e+00 0 0 0
112 1 1.4589961081438799e+01 6.3183695724557696e+00 2.8382324643108010e+00 0 0 0
113 2 1.4098000196044513e+01 7.1020822014050857e+00 2.5785646954947627e+00 0 0 0
114 2 1.5472697320591690e+01 6.5906607371159573e+00 2.6771288508160049e+00 0 0 0
115 1 1.0502829563251202e+01 1.1623278811170037e+00 2.7056945217908615e+00 0 0 0
116 2 1.0353976732377836e+01 1.8860284180710862e+00 2.0661974915902404e+00 0 0 0
521 2 2.1418743831559528e+00 5.2074753260729612e+00 9.2237945156954542e+00 0 0 0
118 1 9.3389157117234713e+00 1.3703514138820458e+00 7.4719673381357161e+00 0 0 0
119 2 9.5510135449076436e+00 2.0372548270574882e+00 8.1335014631061107e+00 0 0 0
120 2 9.6581411899725005e+00 1.6445521359413320e+00 6.5707603976891260e+00 0 0 0
121 1 1.5582259469334398e+01 2.1698232645916331e+00 2.5207285916772291e+00 0 0 0
122 2 1.6149192709337370e+01 2.9877282344560516e+00 2.6344666264285954e+00 0 0 0
123 2 1.5796340311806285e+01 1.8381496394433370e+00 1.6189036638541692e+00 0 0 0
124 1 1.3057629371877946e+01 2.3156977246673951e+00 7.8134533120525234e+00 0 0 0
125 2 1.3941860407449704e+01 2.5293745730883956e+00 7.4509750582285168e+00 0 0 0
126 2 1.2582049463247968e+01 1.9807358796452716e+00 7.0535315608386329e+00 0 0 0
127 1 8.5644995259344352e+00 4.7890225024969331e+00 7.6276691733563409e+00 0 0 0
128 2 7.7811172843561458e+00 4.2424631336942911e+00 7.4259863089133482e+00 0 0 0
129 2 8.6449618122562111e+00 5.4706303540026076e+00 6.9696676743842145e+00 0 0 0
130 1 1.0994259746098306e+01 5.0707369303477403e+00 2.8653458812152484e+00 0 0 0
131 2 1.1799341033687895e+01 4.5477943031361425e+00 2.9475862320151829e+00 0 0 0
132 2 1.1279318977387412e+01 5.8434882670270714e+00 3.4906096587372959e+00 0 0 0
134 2 1.5019489750971651e+01 3.6332294870396451e+00 5.8360164434328423e+00 0 0 0
136 1 1.3072619262491102e+01 3.4200008743891086e+00 3.3520296484531475e+00 0 0 0
137 2 1.3467747975753745e+01 4.0089258213667502e+00 4.0079365685634150e+00 0 0 0
138 2 1.3802857444362379e+01 3.0233712526817431e+00 2.8703508811504443e+00 0 0 0
139 1 8.4712782341006321e+00 4.3150410884274573e+00 3.7433136637303970e+00 0 0 0
140 2 9.2798773423697067e+00 4.6799822862585181e+00 3.2804027857393194e+00 0 0 0
141 2 8.7497665930795350e+00 3.7621236739775821e+00 4.4461917102875192e+00 0 0 0
142 1 1.1152995062943889e+01 4.2949427456224498e+00 6.6461443279244277e+00 0 0 0
143 2 1.1894182855205830e+01 4.2209909715496972e+00 7.3092974617385078e+00 0 0 0
144 2 1.0284683313665079e+01 4.2706998556685880e+00 7.0807283737578759e+00 0 0 0
147 2 1.6917651167151739e+01 7.5052355580709964e+00 1.4168458442469647e+00 0 0 0
148 1 1.0943056801845044e+01 7.0504302785316826e+00 8.2792174013801407e+00 0 0 0
149 2 1.0495986585812561e+01 6.2121265622540625e+00 8.4758186867032723e+00 0 0 0
150 2 1.1439659119731594e+01 7.2048066464756824e+00 9.1575505468394311e+00 0 0 0
274 1 9.8831011366756272e+00 1.0052691457112159e+01 9.7225672717390914e+00 0 0 0
836 2 1.2841439145555997e+01 9.1148999315323298e+00 9.2373080346411705e+00 0 0 0
153 2 6.6989272828776940e+00 1.2835791378891712e+00 8.7300112402200174e+00 0 0 0
304 1 1.3135584914912549e+01 1.0621904669267925e+01 3.4732107513454324e+00 0 0 0
155 2 1.3160388685884486e+01 1.3914730782497240e+00 1.4495348972827065e+00 0 0 0
311 2 1.1013202057665344e+01 1.1038737357452575e+01 6.0901525762612687e+00 0 0 0
157 1 1.4403765031389899e+01 4.9457314683284190e+00 5.0933469080418323e+00 0 0 0
158 2 1.4636077185468951e+01 5.5711054902226715e+00 4.3421197544130061e+00 0 0 0
159 2 1.3992635276937202e+01 5.5969827514482811e+00 5.7197107900953945e+00 0 0 0
160 1 1.0240290255375886e+01 2.2546306662138123e+00 5.1325951619747361e+00 0 0 0
161 2 1.0952086708033903e+01 2.9231863980639372e+00 5.4270843903890276e+00 0 0 0
162 2 1.0588646439231823e+01 2.0351773155138755e+00 4.2290820012624470e+00 0 0 0
586 1 -7.4106800260567507e-01 5.9669273926768724e+00 9.6509604184034536e+00 0 0 0
156 2 1.2035176237166405e+01 6.3999077083080358e-01 2.3173954865402893e+00 0 0 0
67 1 -1.9446930107760680e+00 5.8301443359945548e-01 8.2171648888895064e+00 0 0 0
169 1 6.6547663259862588e+00 8.4882506591080098e+00 4.5989138325355086e+00 0 0 0
170 2 7.1994289646238769e+00 7.7249356078109921e+00 4.9442228655115867e+00 0 0 0
171 2 6.7977997735916968e+00 9.1555621677497445e+00 5.2723101483073576e+00 0 0 0
172 1 3.9220338379309507e+00 8.4516161192588211e+00 5.1733352311302889e+00 0 0 0
173 2 3.6969925777959127e+00 9.2134427369423051e+00 4.5762145165283625e+00 0 0 0
174 2 4.8674335044963328e+00 8.3326365488278711e+00 5.0718539883203677e+00 0 0 0
146 2 1.7467281539417620e+01 5.9644021728813899e+00 1.5900414710275703e+00 0 0 0
584 2 3.0108422249399851e+00 4.9415636956000808e-01 9.0128272369643501e+00 0 0 0
271 1 1.0251731350920107e+01 1.0362090141167293e+01 3.7237227098785314e-01 0 0 0
192 2 8.9016221091892245e-01 1.0113174645289966e+01 8.9297063023043926e+00 0 0 0
199 1 1.2899719959210230e+00 8.5053262091626642e+00 2.9035242501781240e+00 0 0 0
200 2 1.1101117296431307e+00 9.0968104692433194e+00 2.1030247244021765e+00 0 0 0
201 2 6.4066853217463948e-01 7.7297062929331295e+00 2.9259570932570549e+00 0 0 0
202 1 5.8715369661405159e-01 9.0547271015789814e+00 7.6019469892685585e+00 0 0 0
203 2 -2.7517929741928437e-01 8.5896224502315306e+00 7.7329284124250472e+00 0 0 0
204 2 7.4394149640527951e-01 9.2556954096385518e+00 6.6692027644230985e+00 0 0 0
205 1 6.3434970208244419e+00 1.0419505084096091e+01 2.5967545316438958e+00 0 0 0
206 2 6.3640984019298443e+00 9.6065114828324241e+00 3.1445510857063819e+00 0 0 0
207 2 6.1809305038490576e+00 1.0069515969383037e+01 1.6765398828269737e+00 0 0 0
208 1 4.5472759861537835e+00 1.0145090978655087e+01 7.5065855550064358e+00 0 0 0
585 2 3.9527595840030587e+00 1.6848008116817568e+00 8.8415522455633280e+00 0 0 0
210 2 4.1000494269383463e+00 9.6076862343483995e+00 6.8381879654027138e+00 0 0 0
220 1 3.7422322172962001e+00 1.0864115853380081e+01 3.5333034190054859e+00 0 0 0
152 2 7.6899662993393711e+00 6.6343688656142130e-01 7.7569612394703142e+00 0 0 0
486 2 1.1679368180470137e+01 1.3911121820634845e-01 8.8687169339298588e+00 0 0 0
151 1 6.7635564122183780e+00 4.1757520660749459e-01 8.1862701777404077e+00 0 0 0
306 2 1.3946796477332946e+01 1.0625618132029649e+01 2.8272030461876207e+00 0 0 0
235 1 -1.8771534024461518e+00 7.9721101746408580e+00 8.4033375766835885e+00 0 0 0
236 2 -2.0722314666125334e+00 8.8795528433882467e+00 8.7500329507346422e+00 0 0 0
238 1 3.9729177348817624e+00 8.3311114464913505e+00 1.7347177390484909e+00 0 0 0
239 2 3.2617391375739291e+00 8.5900440650111989e+00 2.3879331900177538e+00 0 0 0
240 2 3.9024986452208315e+00 9.0241946446867889e+00 1.0524063189811965e+00 0 0 0
244 1 9.0350798785207109e-01 9.9250756988840294e+00 5.0656466778348186e+00 0 0 0
245 2 1.1254707189979152e+00 9.3636254618416981e+00 4.3299536679666497e+00 0 0 0
165 2 1.6602140741352322e+01 4.3913244265337048e-01 4.2316662309236830e-01 0 0 0
780 2 1.3022593762753651e+01 9.4734951243365568e+00 7.9800485603611737e-01 0 0 0
254 2 1.6192906059694160e+01 9.1173884614544001e+00 5.4328415218267319e+00 0 0 0
253 1 1.5919045597275671e+01 8.4293572337424543e+00 4.7962072322317262e+00 0 0 0
255 2 1.5936535123964086e+01 8.8716165510415195e+00 3.8871348206230900e+00 0 0 0
256 1 1.3263761645195670e+01 8.3915193224788194e+00 5.1638006092760396e+00 0 0 0
257 2 1.4229491576988712e+01 8.1887910436390481e+00 4.9351085648644242e+00 0 0 0
258 2 1.3005570775670250e+01 9.1015781944690950e+00 4.6064984625758214e+00 0 0 0
218 2 7.7043018513892738e+00 1.1217378758826822e+01 6.6681853075397655e+00 0 0 0
272 2 1.0110060103024356e+01 9.9749892583872608e+00 1.2890929949761090e+00 0 0 0
133 1 1.5365425535265791e+01 2.9834011408405394e+00 6.4946950576640781e+00 0 0 0
276 2 1.0015407012838237e+01 1.0050823667489077e+01 8.7316315726249663e+00 0 0 0
283 1 1.0664010702934073e+01 8.6453642373646371e+00 2.8551716559623328e+00 0 0 0
284 2 1.0289617495904464e+01 9.0021167400410320e+00 3.6704917495071028e+00 0 0 0
285 2 9.8939947018974621e+00 8.0179438403866037e+00 2.6865788536729411e+00 0 0 0
286 1 9.0621910468664293e+00 8.8813448090734006e+00 7.1744678673582527e+00 0 0 0
287 2 9.6840305211389222e+00 8.2430060966810412e+00 7.5851961349639758e+00 0 0 0
288 2 8.1541012446842327e+00 8.5925347677761437e+00 7.3184868127850047e+00 0 0 0
289 1 1.5566813398110030e+01 1.0088818652754075e+01 2.5243711022283439e+00 0 0 0
145 1 1.7273592087553439e+01 6.7995907988588113e+00 2.0347808830913219e+00 0 0 0
291 2 1.5751284823649826e+01 9.7061786064604831e+00 1.6679675313689757e+00 0 0 0
292 1 1.3570235325946834e+01 9.8782099320558263e+00 7.5597044123005492e+00 0 0 0
209 2 4.0589157921591745e+00 1.1030501579488819e+01 7.3426307391824421e+00 0 0 0
294 2 1.3538024379472434e+01 9.2579932866268848e+00 6.8198750335900353e+00 0 0 0
189 2 1.9302919994045931e+00 1.0313945038816350e+01 8.5059181898068537e-01 0 0 0
2 2 7.4750102324246761e+00 3.0075399374253298e-01 4.3705685083831067e+00 0 0 0
166 1 1.1494730856572927e+01 6.2729936145318259e+00 4.0539334558290674e-01 0 0 1
135 2 1.5682166788227537e+01 2.1763059062192958e+00 6.0380878695444915e+00 0 0 0
319 1 6.4976082495304261e+00 7.9993567442541380e+00 8.0983189217460172e+00 0 0 0
320 2 6.5724332477752974e+00 8.8199037398541176e+00 8.5970364124421312e+00 0 0 0
321 2 6.9061950847386377e+00 7.3657207288603246e+00 8.6534792192536898e+00 0 0 0
322 1 1.3036664481910860e+01 8.0765695638237425e+00 1.5762106948619783e+00 0 0 0
323 2 1.2415404171331680e+01 8.3301956296537760e+00 2.2146737633711973e+00 0 0 0
324 2 1.2529320866010838e+01 7.3021254429948783e+00 1.1541467346759511e+00 0 0 0
328 1 1.0039735684597394e+01 1.0041513310972602e+01 5.1011364244620427e+00 0 0 0
329 2 9.5122198251023011e+00 9.6045448754918503e+00 5.7672722555022720e+00 0 0 0
330 2 9.5072690761988738e+00 1.0625804120007128e+01 4.4989121646878960e+00 0 0 0
35 2 -5.9069723744730007e-01 1.0354504677436274e+00 7.4474739466694322e+00 0 0 0
753 2 4.0338716616190968e+00 9.5518181689435746e+00 9.0186934240385916e+00 0 0 0
97 1 1.3805346126894914e+01 4.8265197058618607e+00 9.3920400256207941e+00 0 0 0
246 2 1.7892554575698387e+00 1.0371845918043705e+01 5.2025130026251736e+00 0 0 0
70 1 3.7160262420969552e+00 5.0438697238121843e-01 1.5937025729327017e+00 0 0 0
187 1 9.6669474965292235e-01 1.0265193894409538e+01 6.8819064663346485e-01 0 0 0
293 2 1.2737041135788511e+01 1.0420047154898667e+01 7.2715464886649057e+00 0 0 0
80 2 6.8375305346305755e+00 1.8833232147986412e+00 8.2652147883641502e-01 0 0 0
302 2 1.5505724825323247e+01 1.0527664111057280e+01 7.4168682560178247e+00 0 0 0
305 2 1.2442826457355574e+01 1.1267881802007711e+01 3.1137772954218916e+00 0 0 0
273 2 1.1197245646242886e+01 1.0349697736064066e+01 2.9189921213161041e-01 0 0 1
217 1 6.9966933050784039e+00 1.0792787663424949e+01 6.1382858571507510e+00 0 0 0
20 2 7.1662046049305084e-01 3.5156223584984572e+00 2.5811695147392089e-01 0 0 0
100 1 1.4591546895538057e+01 4.7168959101038732e+00 4.8214858973722702e-01 0 0 0
219 2 6.3902615165170626e+00 1.0533083439472295e+01 6.8855714723532762e+00 0 0 0
154 1 1.2936060163027559e+01 4.7341030460123112e-01 1.8248210559154581e+00 0 0 0
583 1 3.4952811651113618e+00 1.1537916211457104e+00 9.5493691709799027e+00 0 0 0
103 1 1.0073990538440574e+01 2.5885914236722307e+00 3.4333740673889390e-01 0 0 0
691 1 -1.8877689913162650e+00 1.0318993973997685e+01 9.7189095093268296e+00 0 0 0
587 2 -1.3254755053076250e+00 6.6349791224869268e+00 9.2142606727015686e+00 0 0 0
524 2 -2.8678151744493192e+00 3.3339204963129072e+00 9.5481240225698514e+00 0 0 0
102 2 1.3823101308621412e+01 4.1046767045992389e+00 5.1262644629387899e-01 0 0 0
82 1 2.7505592088192321e+00 5.9810046979208078e+00 5.2934209585906178e-01 0 0 1
19 1 1.3236338639927276e+00 2.7556813114508434e+00 2.3297916926602338e-01 0 0 0
751 1 3.6641236161359223e+00 8.9990188596853891e+00 9.8054700863719049e+00 0 0 0
823 1 3.1823040641433176e+00 7.8914409802692269e+00 1.8212896693841223e+01 0 0 0
331 1 9.5445061296198599e+00 8.9295540702240039e+00 1.9192180953511873e+01 0 0 -1
797 2 1.0829243332565722e+01 1.0720668263567461e+01 1.6681484786627955e+01 0 0 0
332 2 9.6599474103770628e+00 9.6520461034635936e+00 1.8490277035427631e+01 0 0 0
571 1 -5.4977472302535952e+00 7.2934175181454686e-01 1.7690211376546635e+01 0 0 0
805 1 1.2410753413821810e+01 1.1010177718538467e+01 1.6037028770817976e+01 0 0 0
593 2 8.8031287201347279e+00 9.0256772932706530e-01 1.4671416228638813e+01 0 0 0
98 2 1.4118822263897476e+01 5.3682654711677262e+00 1.0143555211289954e+01 0 0 0
816 2 7.3401355001010771e+00 1.1182913674010191e+01 1.5180629134104381e+01 0 0 0
520 1 2.3915142594393934e+00 4.5778738174851883e+00 9.9117750315680837e+00 0 0 0
778 1 6.3174741620211776e+00 1.0179784961454706e+01 1.9205778281478771e+01 0 0 0
536 2 -2.5123802681210621e+00 8.7762727485811731e-01 1.1982407019207137e+01 0 0 0
574 1 5.3828520951111347e-01 6.5402014493464156e-01 1.1291690483415090e+01 0 0 0
15 2 4.2014693237820850e+00 4.4831113663518085e+00 9.8311741337673553e+00 0 0 0
743 2 1.0805683019210077e-01 7.0230480363431065e+00 1.0519267522532799e+01 0 0 0
275 2 1.0124302526158514e+01 9.1044530152382741e+00 9.9580768171215404e+00 0 0 0
107 2 9.7882808629596649e+00 1.9135291120357747e+00 1.0716349555745840e+01 0 0 0
505 1 3.0623317547484028e+00 9.9187378027045581e-01 1.4163495126563499e+01 0 0 0
506 2 3.3434112291978728e+00 1.7198698530215970e+00 1.4807537502586527e+01 0 0 0
507 2 3.6055655142234091e+00 2.1604852756067497e-01 1.4316452032342934e+01 0 0 0
508 1 5.1584696926292484e-01 1.1274265873271083e+00 1.4747626959194742e+01 0 0 0
575 2 2.4068920168298069e-01 8.0095583623312247e-02 1.0561584929110960e+01 0 1 0
510 2 1.4560135105782548e+00 8.1668614872682199e-01 1.4543507875303828e+01 0 0 0
511 1 -3.8520502496935602e+00 6.7950138165894369e+00 1.4456360254218206e+01 0 0 0
512 2 -4.0837001391972905e+00 5.8702859341162217e+00 1.4104198707311665e+01 0 0 0
513 2 -3.6445479770961775e+00 6.5894268573841170e+00 1.5386839950805628e+01 0 0 0
514 1 -1.1364096981368794e+00 6.4427619917249705e+00 1.3845753051560255e+01 0 0 0
515 2 -1.0310509894525937e+00 5.7449261299916525e+00 1.4528342944440062e+01 0 0 0
516 2 -2.0683698620516640e+00 6.7194220259970177e+00 1.4159190957589542e+01 0 0 0
824 2 2.5663999611005579e+00 7.6901113571297746e+00 1.7496541714834066e+01 0 0 0
519 2 2.4418983238001859e+00 5.2373636910032051e+00 1.8334101071628083e+01 0 0 0
509 2 -9.4317076265055810e-02 3.4428932142264229e-01 1.4732692907287914e+01 0 0 0
522 2 2.3219050376182842e+00 4.9493420207904135e+00 1.0786385717669900e+01 0 0 0
794 2 1.2450406201627565e+01 1.0606220828956735e+01 1.2267932128414216e+01 0 0 0
825 2 2.9947148620186450e+00 8.7959272756823133e+00 1.8512202887377370e+01 0 0 0
525 2 -2.2811757266553028e+00 2.3270282463358258e+00 1.0622877467288195e+01 0 0 0
604 1 1.1086886517757499e+01 4.7970672201330702e+00 1.0210965521713284e+01 0 0 0
527 2 -2.5753695087478259e+00 2.3879570682735389e+00 1.8004635729356465e+01 0 0 0
529 1 1.2921136283884032e+00 6.5607739367361937e+00 1.7135813887172034e+01 0 0 0
530 2 1.4487787702193113e+00 6.0781800974556583e+00 1.6309065003311105e+01 0 0 0
531 2 3.5526340251869382e-01 6.8635649004437296e+00 1.7198580610167703e+01 0 0 0
532 1 2.4198135481759104e+00 5.8979580481122440e+00 1.2347841739819854e+01 0 0 0
533 2 3.2884851727418907e+00 6.2979023438511552e+00 1.2082659358037288e+01 0 0 0
534 2 2.4104156290262386e+00 5.6549872058882080e+00 1.3314685298302011e+01 0 0 0
535 1 -1.8027450237932969e+00 1.5194780780384494e+00 1.2171240469579617e+01 0 0 0
590 2 1.1149245673303264e+01 1.0449106590919288e+00 1.4746350567050040e+01 0 0 0
537 2 -1.0551077564030158e+00 9.5901898242781713e-01 1.1869521825321538e+01 0 0 0
538 1 -3.1882549788225867e+00 1.3053783772506409e+00 1.6795711367006973e+01 0 0 0
539 2 -4.1226429866358227e+00 9.3936007168989022e-01 1.6953534009095044e+01 0 0 0
540 2 -3.2017709457072772e+00 1.7883662517416843e+00 1.5949484418894309e+01 0 0 0
541 1 2.7742694232450180e+00 2.6324029843141981e+00 1.1990885470926358e+01 0 0 0
542 2 3.0696822226466445e+00 1.9053669894242815e+00 1.2650468334375548e+01 0 0 0
543 2 2.8898963792621957e+00 2.2085062784924689e+00 1.1141449092676281e+01 0 0 0
544 1 4.2203912482242778e-01 2.8400706329765244e+00 1.6840859005266537e+01 0 0 0
545 2 4.2832661031235020e-01 2.3085266401680160e+00 1.7716933703684845e+01 0 0 0
546 2 4.9107583942170141e-01 2.1174951339050896e+00 1.6111423730503297e+01 0 0 0
547 1 -3.4725350164506557e+00 5.0459568834186159e+00 1.6998859882168688e+01 0 0 0
548 2 -4.2767971662105602e+00 4.5347423291033202e+00 1.6752091001909740e+01 0 0 0
549 2 -3.6726562164649903e+00 5.2457634948523753e+00 1.7926517773560107e+01 0 0 0
550 1 -1.8788923808310347e+00 4.7469896262981468e+00 1.1911868835767773e+01 0 0 0
551 2 -1.3031027866023979e+00 4.0001587556189957e+00 1.2235087529840699e+01 0 0 0
552 2 -1.5163400113375749e+00 5.5463892825901260e+00 1.2363966190312743e+01 0 0 0
553 1 3.2538587652946385e+00 3.0912185227540911e+00 1.5943669627333270e+01 0 0 0
554 2 2.5622772339123188e+00 2.8663219114924754e+00 1.6601406246023430e+01 0 0 0
555 2 4.0661072918369330e+00 3.5009267822895787e+00 1.6327249558393227e+01 0 0 0
556 1 2.5567617050660729e-01 3.2951098515821573e+00 1.3204640149866876e+01 0 0 0
557 2 1.0154006499283357e+00 3.2184211678706229e+00 1.2640814547594138e+01 0 0 0
558 2 2.7459590069363138e-01 2.3980794080539862e+00 1.3654720519559680e+01 0 0 0
559 1 -4.1852278779597345e+00 4.3324759727652093e+00 1.3530636478221853e+01 0 0 0
560 2 -3.5615570281757369e+00 4.6078017296371838e+00 1.2834615737789703e+01 0 0 0
561 2 -3.6408087855618279e+00 3.6812816736475513e+00 1.4060787277387924e+01 0 0 0
562 1 -1.3171352443917534e+00 4.5851914601781090e+00 1.5732180064330905e+01 0 0 0
563 2 -4.9003579966353605e-01 4.4508249795867023e+00 1.6285292885737455e+01 0 0 0
564 2 -2.0115160358869595e+00 4.8275175940887873e+00 1.6342951526646885e+01 0 0 0
565 1 4.7103034408296294e+00 6.9826877376138725e+00 1.1278509713625599e+01 0 0 0
566 2 4.5179811210589991e+00 7.8117968529017237e+00 1.0821532864964899e+01 0 0 0
567 2 5.1503964904800208e+00 6.3176306905641741e+00 1.0741215905190373e+01 0 0 0
568 1 -1.2404668156684702e+00 7.2538182580950821e+00 1.7678295121781865e+01 0 0 0
569 2 -1.3458612188177241e+00 6.4299800393008519e+00 1.8186589962709469e+01 0 0 0
570 2 -9.7649022705800892e-01 7.9387150301177192e+00 1.8346618148481042e+01 0 0 0
249 2 3.4126541450360559e-01 9.4601440860122779e+00 1.8531095470283120e+01 0 0 0
572 2 -5.5657995435177785e+00 1.5508129825745798e+00 1.8258475541931503e+01 0 0 0
724 1 4.3221050123617122e-01 1.0756925536151602e+01 1.3449992475568877e+01 0 0 0
573 2 1.1500036697180617e+01 3.8894974737191385e-01 1.7525834759746736e+01 0 0 0
576 2 5.6121749321243675e-01 1.5534064182902128e+00 1.0873672166935613e+01 0 0 0
577 1 1.7966757627473697e+00 5.1013417454085221e+00 1.4712138495164421e+01 0 0 0
578 2 1.0189334091248465e+00 4.6637925786664951e+00 1.4395284655911739e+01 0 0 0
579 2 2.4464724491430951e+00 4.4191364997203753e+00 1.4967640847072614e+01 0 0 0
580 1 -2.4488754697902828e+00 2.5644933530286811e+00 1.4408717818861987e+01 0 0 0
581 2 -2.1383526737128546e+00 2.0561699464732754e+00 1.3629796609614617e+01 0 0 0
582 2 -1.6717375042873961e+00 3.0566248270333394e+00 1.4761627156109212e+01 0 0 0
986 2 1.3417681367615819e+01 4.2297075851782667e-01 1.0610301649697552e+01 0 0 0
247 1 -1.9289660341159642e-01 9.0768433151619305e+00 1.9265383355669954e+01 0 0 -1
589 1 1.2057505357117867e+01 1.1648276972635141e+00 1.4476498093035858e+01 0 0 0
526 1 -2.4039042182374613e+00 2.9072915793127092e+00 1.8811025943351474e+01 0 0 0
591 2 1.2295062556289233e+01 1.9147778273491638e+00 1.5085906754618193e+01 0 0 0
592 1 9.3282460934679339e+00 1.6862630300284813e+00 1.4887760404063089e+01 0 0 0
903 2 4.5094076278919708e+00 2.7767478239985888e-01 1.0507326536184276e+01 0 0 0
594 2 9.4004388397290821e+00 2.2111065496221025e+00 1.4073748802668421e+01 0 0 0
595 1 4.8537225388887775e+00 6.3650044977656712e+00 1.4673268054642838e+01 0 0 0
596 2 4.7607278946112084e+00 5.9858359457367056e+00 1.5597339162200393e+01 0 0 0
597 2 4.7507222670457976e+00 5.5703873151071859e+00 1.4077839028771294e+01 0 0 0
598 1 7.6783642780804291e+00 6.4881488885989427e+00 1.4582434855751735e+01 0 0 0
599 2 6.7431609253935862e+00 6.8029461929123292e+00 1.4712859218496247e+01 0 0 0
600 2 7.7019100351861773e+00 6.0800623433478433e+00 1.3710856275327771e+01 0 0 0
667 1 1.2208115131036815e+01 1.1254813033045012e+00 1.0003287201839839e+01 0 0 0
603 2 1.0672613206553001e+01 5.1371972982988039e+00 1.8356787328943781e+01 0 0 0
517 1 2.1690486945188852e+00 4.7816780574885627e+00 1.9161537017167397e+01 0 0 0
605 2 1.0762936089194609e+01 5.3557776200208433e+00 1.0947365665271571e+01 0 0 0
809 2 1.0180586826190384e+01 1.0365094691855763e+01 1.2473895987092922e+01 0 0 0
694 1 -2.9714612274100705e+00 1.0359550908396697e+01 1.9140108884924253e+01 0 0 0
777 2 6.4637737256338923e+00 1.0888559296153367e+01 1.0083060061104442e+01 0 0 0
609 2 6.8754534090692765e+00 2.2992134271329401e+00 1.0818900647944426e+01 0 0 0
833 2 6.6989018681374253e+00 9.5117587309940035e+00 1.3794932891673248e+01 0 0 0
611 2 6.4887749501250847e+00 2.3079934262919677e+00 1.8227491700007782e+01 0 0 0
613 1 1.0279666342422514e+01 6.4527664259323085e+00 1.6946813727178366e+01 0 0 0
614 2 1.1065791844969798e+01 6.9931708067831488e+00 1.6980890029755663e+01 0 0 0
615 2 9.5561972986436103e+00 7.0527698628860307e+00 1.7156163889904676e+01 0 0 0
616 1 1.1514248886835546e+01 6.3186754076796792e+00 1.2396447234282283e+01 0 0 0
617 2 1.1522206405551072e+01 5.9184301458232778e+00 1.3276889508914527e+01 0 0 0