LAMMPS data file via write_data, version 8 Apr 2021, timestep = 2000000

576 atoms
2 atom types

0.3245904470197323 17.595410552979118 xlo xhi
0.11958944701996209 17.390409552979115 ylo yhi
0.4695904470199308 17.740410552979117 zlo zhi

Masses

1 16
2 2

Atoms # atomic

372 2 4.279612831836616 0.635135261352043 4.261572410597386 0 0 0
41 2 2.489962734383133 0.44829206786116976 2.4369290469157447 0 0 0
40 1 1.828144662023536 0.8008197367701401 1.8378204840879018 0 0 0
42 2 2.358222463374217 1.3025345873594154 1.159281571401545 0 0 0
546 2 1.7502269096513428 3.824141023919542 3.004991915272761 1 0 1
118 1 2.198435499589812 2.9656361657884545 4.6587673701446715 0 1 0
56 2 7.701355818580052 2.933654291493279 1.8937877245563286 0 0 0
57 2 7.271435612434477 3.261066235679703 3.2752674301238183 0 0 0
342 2 6.349030059994935 0.4933973540917334 1.8124895147843938 0 0 0
55 1 7.9795556452543455 3.47532609553831 2.6308162264380868 0 0 0
223 1 5.840076123276727 3.6428738073683977 4.284732866345082 0 0 -1
224 2 5.0716251994646155 4.038724501510797 3.8719775323843804 0 0 -1
159 2 4.9142506802204355 4.144090790212565 1.030328144362426 0 1 0
411 2 5.970501737327262 2.3449477370827863 0.5635334849187515 1 1 1
409 1 6.79201424354552 1.8259332277372793 0.6503518378355939 1 1 1
544 1 1.6735680885258952 4.470241682636016 2.229851189846313 1 0 1
561 2 3.4061379888182417 4.8383063520952465 2.0103786501575964 0 0 1
559 1 4.324187364231656 4.905623406754997 2.3327508634080716 0 0 1
253 1 2.6210468670454645 8.203377235042474 3.7245885733590383 0 0 0
255 2 2.332204253054952 8.068548024871717 2.778498003194963 0 0 0
303 2 4.331019867956006 7.602803632076437 3.6560178733103097 0 0 0
254 2 2.128311709917044 7.605952931065481 4.272175090541773 0 0 0
545 2 1.2955986929930647 5.2895143092788945 2.647951878425658 1 0 1
325 1 2.244668372868367 8.133048201067025 0.9185419782327544 0 0 1
560 2 4.472159453082451 5.743431437794414 2.8046507498438458 0 0 1
326 2 1.3986062523661935 7.877508772743602 0.4874146438227166 0 0 1
301 1 5.246567747103438 7.336959051574004 3.5271862021240543 0 0 0
302 2 5.532855381281734 7.844085587013915 2.714053354548455 0 0 0
151 1 6.358182724721455 8.523114811598939 1.3660323806998742 0 0 0
552 2 7.094457578852469 6.623806169914304 3.2427711754279747 0 -1 0
153 2 7.319972325560613 8.27304612347833 1.2824887715419102 0 0 0
550 1 8.022277688024554 6.475588672897427 3.070183206730038 0 -1 0
551 2 8.177913169463128 5.610009327313074 2.736322445637336 0 -1 0
266 2 2.6675748820024996 9.619806078148942 4.75020194222656 0 0 0
468 2 2.947417859232849 12.021439586564133 1.6140232402902455 0 0 0
466 1 3.529952656384838 12.683996113090409 2.0430328490949443 0 0 0
37 1 1.4784087421746985 10.848496572457089 1.5266795506196833 0 0 0
38 2 1.7576426535826464 9.930015942932613 1.4082146695634348 0 0 0
44 2 1.1373502344166098 11.625109248036587 3.126761017308667 0 0 0
125 2 3.565295111498675 12.905352725470259 3.7932550207375892 0 0 0
45 2 1.7278512902999839 11.660921581213385 4.470923210974744 0 0 0
43 1 1.0120244514433234 12.08361082680462 3.954477597847028 0 0 0
39 2 1.2760617351886125 11.168997041192805 0.5609358052808567 0 0 0
152 2 6.306878662327503 9.502981642484327 1.4667582466437759 0 0 0
84 2 5.137043985480651 11.67734029966888 1.7485402752000105 0 0 0
83 2 6.645278331745373 11.717726897814599 1.490105204812038 0 0 0
82 1 5.821196563711362 11.2037193230199 1.3146784598065213 0 0 0
186 2 5.620262510826995 8.896782352179368 4.677938078732276 0 0 0
185 2 6.635070193858336 10.101812990111101 4.78269751936217 0 0 0
134 2 7.055332146370356 12.941383349648682 4.036320083214768 0 0 1
359 2 8.776578902901292 10.044532575874486 4.4687510481715 0 0 0
358 1 8.27353266103642 10.886061885153346 4.404719991147622 0 0 0
488 2 8.510926595368268 12.169355140743974 0.6861093283745231 0 0 1
487 1 8.52832985811046 11.922999465671143 1.5846686213344858 0 0 1
12 2 0.36413563968084656 13.687349092173132 3.246058486990815 0 0 0
467 2 3.842841656261668 13.429411489898431 1.4257114561530422 0 0 0
124 1 3.9303881750839764 13.260841793111107 4.632299583703974 0 0 0
370 1 4.0061971210933605 17.16614558972238 3.626162476062859 0 -1 0
11 2 1.1916115748632148 14.89740000515103 3.703968258374274 0 0 0
452 2 0.9557560306391788 16.67356384816954 0.860537190031493 1 -1 0
381 2 2.952495506271873 16.349823264553876 4.332644240300006 0 -1 0
451 1 0.3561503131976294 15.949420923093038 0.6503965962036012 1 -1 0
10 1 0.420694567528989 14.639204648978849 3.1492634779338347 0 0 0
126 2 4.831710908938184 13.335861622968778 4.3690014565383075 0 0 0
340 1 6.324317724288933 17.011213745322234 2.411561289560832 0 -1 0
371 2 4.832013288310127 16.80300964400421 3.2712377545030473 0 -1 0
135 2 6.430630689992416 14.276241893075472 4.371923773506999 0 0 1
503 2 7.966030142974257 16.439676431118492 3.345386104457139 0 -1 1
166 1 6.998695478903637 14.697011716894824 0.9684180541466695 0 0 1
341 2 6.511360473805296 16.246510640733668 1.7825324270918683 0 -1 0
133 1 6.352585113813778 13.548930720451306 3.7337650122910278 0 0 1
167 2 6.825524449310523 14.18791257984351 1.7928633549877915 0 0 1
502 1 8.891287413160242 16.12910064276894 3.442902063084573 0 -1 1
120 2 1.3763305034592594 2.7945706075098076 5.1255243259252 0 1 0
119 2 2.516446665001345 3.837747932132907 5.07347834747002 0 1 0
395 2 3.6253283802557217 2.1418744746538074 5.1128061769327475 0 0 1
394 1 4.4669081081135955 1.7554716466453144 5.405373467104862 0 0 1
510 2 3.7866225066340133 0.6375220197763344 8.231994741256285 0 1 0
396 2 4.542825154031868 1.6707244556691825 6.387238761315023 0 0 1
508 1 4.36456057281188 1.3801314323966745 7.921376543742065 0 1 0
86 2 4.316482874761668 3.3384492583051966 8.172357958131732 0 1 0
85 1 4.019447236986113 4.2135017695378405 7.900820474619954 0 1 0
87 2 3.110440001727113 4.392679745576923 8.168995871310052 0 1 0
225 2 5.524681159399552 2.9457979686040683 4.894954945916584 0 0 -1
142 1 6.660963135039007 0.991952155733561 8.990007506584497 0 1 0
207 2 8.114198932259997 3.594797186058053 8.843260821350716 0 1 0
509 2 5.26758601662418 1.1107823256311422 8.256805758295835 0 1 0
206 2 7.048628912666729 3.887002719673259 7.80155756195847 0 1 0
205 1 7.121234678156078 3.5348436607809472 8.741814447533836 0 1 0
143 2 6.854071278763559 1.892346897509437 8.73433227603511 0 1 0
144 2 7.173234820414993 0.468233606583902 8.345471469510597 0 1 0
405 2 1.0454212680297374 5.8387015223485195 8.885839696043899 1 0 -1
403 1 1.4232208637848025 5.338986643526705 8.101409386157961 1 0 -1
189 2 2.8575652717067186 5.962628612169377 5.830360341082701 0 0 0
188 2 3.7628422594634694 4.795222246357639 6.208283856951699 0 0 0
187 1 3.4180332748479048 5.291884929942745 5.428699927451271 0 0 0
286 1 2.114405170581856 7.532129585282837 6.4580942760500895 0 0 0
288 2 1.9580145697759659 7.00556982086078 7.238565522175777 0 0 0
287 2 3.0623070412782303 7.753185544150546 6.521463479721341 0 0 0
354 2 4.63518934765652 6.6863278153717935 5.891330718238341 0 1 0
404 2 0.7859798684226218 5.276831466998359 7.337710565293455 1 0 -1
459 2 6.64969045990819 4.618271458672683 5.542613867176556 0 0 0
457 1 7.236142118929599 4.765987946959193 6.305279225406247 0 0 0
458 2 8.14777791727228 4.493930966891466 6.08251528403706 0 0 0
273 2 8.55966818701855 8.177650575968558 6.703833469369124 0 0 0
352 1 4.7615184017692265 7.362531004800884 6.552151097551806 0 1 0
353 2 5.6851804674841135 7.315046928952673 6.701429908839407 0 1 0
346 1 7.314183584533311 7.102187855460024 7.518299767585751 0 0 0
348 2 7.4869185045229045 6.246549466924488 7.048062509354695 0 0 0
347 2 6.976805813266238 6.934069475511709 8.418427155603561 0 0 0
558 2 5.45651915242535 5.382176804854711 9.097059575059331 0 0 0
267 2 3.805247180798526 10.70390675267235 4.932986538752134 0 0 0
265 1 2.8649459053735598 10.499138162137866 5.155425306885428 0 0 0
212 2 0.5400513810463331 10.246738891446249 7.3746290067172335 1 0 0
513 2 4.498251855198012 9.091632412723003 8.442349366837655 0 0 0
281 2 1.255583837792877 12.222005435232887 8.58767183264529 1 0 0
213 2 0.9263972470693337 8.840749314412873 6.681569103102094 1 0 0
280 1 1.5824606442362172 11.323149244879149 8.326287247663572 1 0 0
282 2 2.324463445082527 11.644442868366044 7.753253012840476 1 0 0
523 1 3.729151476703712 12.490912037745671 7.071303156395204 0 0 0
524 2 3.7730377296205138 12.770696287809116 6.066061280423491 0 0 0
184 1 5.735744815376079 9.840444968351083 5.009471756947319 0 0 0
337 1 7.240739362137484 11.407997339301227 8.961479175936148 0 0 0
335 2 4.656246752515711 11.375698571680314 7.452458937112287 1 0 0
339 2 7.36835010161444 12.372276752783712 8.958307011925841 0 0 0
338 2 6.518467001140563 11.177341525660799 8.342150132254947 0 0 0
336 2 5.37936004407663 10.18278560630298 6.735040118659376 1 0 0
334 1 5.257733042688659 10.542653218549589 7.627731871027034 1 0 0
360 2 8.558626073886439 11.487442543213009 5.076749237049172 0 0 0
80 2 8.959860759540296 10.74462611276583 8.713319094520255 0 1 0
514 1 0.5502603126854371 13.85619105032524 8.659049234720426 1 -1 0
380 2 2.871522366511588 14.872794007612542 5.051614020710665 0 -1 0
379 1 2.334427475408819 15.673423469335194 4.8345303005646585 0 -1 0
515 2 0.8131189136123435 14.741869034576691 8.273636983025055 1 -1 0
408 2 4.213600382553911 15.269275311509196 8.747494888350442 0 0 0
34 1 0.5948837558502397 15.81735300697906 6.715771595330419 1 0 -1
525 2 3.848392335591556 13.311466724485197 7.702233921749452 0 0 0
304 1 2.8515235668422303 16.38887858338614 8.55381726486916 0 -1 0
306 2 2.263800188856014 16.2286403394981 7.854315445438503 0 -1 0
36 2 1.2694803132160128 15.90751599944496 6.006077990275643 1 0 -1
430 1 7.44146894387852 14.068988432692553 8.821590663449019 0 0 0
145 1 8.33903143731464 16.830130944617828 7.232827223739915 0 0 0
242 2 8.635173571850748 13.569426853125302 5.810880589468984 1 0 0
478 1 6.278110528322695 15.780377473515156 5.40212714143998 0 -1 0
480 2 5.683673929166501 16.37866890399806 5.951033887851132 0 -1 0
406 1 4.796051276138675 14.466469109400782 8.758520329303689 0 0 0
243 2 8.39902872336527 13.270522962338873 7.354658628808864 1 0 0
431 2 6.505057372213132 14.385642898954456 8.627012995127204 0 0 0
479 2 7.155393434656686 15.955476254095046 5.844075174660558 0 -1 0
148 1 1.6023258370015165 2.109120926577657 12.295294156987271 1 0 0
149 2 1.522580745210962 1.4771358453326449 11.542242147901849 1 0 0
104 2 3.1449377790806885 2.4907508799588793 13.154918201013473 1 0 0
150 2 0.986984069699138 2.8064535159868416 11.972445438978191 1 0 0
521 2 6.97336701130761 0.6751795291161767 10.718233179613195 0 1 0
198 2 7.054963485685484 3.609903843451586 13.142339454881633 0 0 0
99 2 8.665287686959449 1.4476443069844356 12.130242185194096 0 1 0
450 2 7.315984357293667 3.6723520781129526 10.708276516053616 0 0 0
448 1 7.635523906102669 4.118871083337271 11.482690163759978 0 0 0
522 2 6.715298778803322 0.4226402099922623 12.326247808563862 0 1 0
520 1 7.370574670120674 0.5130682644933616 11.631785735865765 0 1 0
351 2 1.6614911428939465 5.939554875866871 12.611029618724341 1 0 0
349 1 0.7217670407277743 5.69780594050536 12.224496061300501 1 0 0
290 2 1.4946529904502321 8.674839800250169 10.111615713794352 1 0 0
557 2 4.5691934874778335 6.606992846229669 9.380624423964898 0 0 0
6 2 4.02146513016851 6.174966101376088 13.082082150205476 0 0 0
4 1 3.070524677143295 6.260475219489109 13.412843488717366 0 0 0
235 1 0.6410987541472172 7.232472724620797 9.796698884015345 0 0 0
511 1 4.252354459191072 8.719542394523513 9.342908652169806 0 0 0
236 2 0.3338267442161076 6.602163681419526 10.497333430823105 0 0 0
492 2 8.714036312072563 6.952131475085089 12.379270032156349 0 0 -1
532 1 8.315909942198427 7.102175978757106 10.550639426029456 0 1 0
321 2 5.3546378196158075 5.951385522246072 11.465486794356268 1 0 -1
319 1 5.535952436381836 5.984633485800246 12.441764982545342 1 0 -1
534 2 7.7328900437844155 7.908004211535017 10.57086869226687 0 1 0
449 2 7.8919486242355585 5.038211245705084 11.33189152342892 0 0 0
320 2 6.063699083579153 6.758765912377562 12.53867035207421 1 0 -1
556 1 5.461768485366955 6.249683112846404 9.593810324106656 0 0 0
490 1 8.921750244594945 6.614214738142469 13.325376074115056 0 0 -1
289 1 1.890168799420186 9.551328077584678 10.26663584074855 1 0 0
117 2 2.969360943655321 10.869145012991849 11.731020692763094 1 -1 0
115 1 2.8993725159622894 11.778777275052915 12.081876428997342 1 -1 0
116 2 2.947633066413003 11.705617158797024 13.086260164013884 1 -1 0
296 2 1.0317676391287356 12.114279772408219 11.474773172379416 0 0 -1
512 2 3.380129299633354 9.097985845200114 9.491115870080112 0 0 0
291 2 1.6762759625853547 10.127956692116923 9.54253452852434 1 0 0
71 2 0.7404585613314506 9.565892289601631 11.683373175526166 1 0 0
72 2 0.9141151878400503 9.20325559399667 13.183234029924405 1 0 0
70 1 0.33581588241611116 9.673436732851922 12.545836095108807 1 0 0
428 2 5.787965005793107 9.010100419143951 10.137673440937412 0 0 0
427 1 6.684855976476579 9.228570813205309 10.409353681732505 0 0 0
74 2 7.229057775005507 12.252599323412829 12.450323898842127 0 0 0
161 2 6.9628134961827834 10.20252896791628 11.71751366472116 0 0 0
160 1 7.402966494464949 10.623286685096234 12.519311952141537 0 0 0
429 2 6.90095010445249 9.961033939094207 9.805649078861336 0 0 0
162 2 8.310662028562371 10.349429967311146 12.534081938903663 0 0 0
366 2 3.75979070367769 13.31373016932888 11.74211628256827 0 0 0
484 1 1.4364649082900638 17.19841839271804 10.55655422950328 1 0 0
486 2 0.5135120438191872 17.025516901833527 10.930426342587296 1 0 0
485 2 2.0788721781252715 16.87298550116659 11.222270888469039 1 0 0
376 1 3.2765541743861446 16.160881420840497 12.353335186698859 0 0 0
377 2 3.7170734359414928 15.339568002269349 12.050107107201464 0 0 0
378 2 4.067062712388979 16.606574921291006 12.770643224661267 0 0 0
364 1 4.505993311102368 13.938376018565489 11.521036347906602 0 0 0
407 2 4.616249300220711 14.073446973503732 9.670141684487339 0 0 0
297 2 0.4613693394885442 13.442103152140172 10.844760261231976 0 0 -1
305 2 2.2573135259689447 16.522579586376185 9.360104150575363 0 -1 0
73 1 6.890724223075988 13.144969192519476 12.669726289220833 0 0 0
365 2 5.249126374288618 13.390749072573257 11.876107789503491 0 0 0
356 2 7.689867209522409 14.640729416286757 11.95391763579859 0 0 0
355 1 8.148902927220675 15.21816746153911 11.319143115369315 0 0 0
357 2 7.920103666454323 16.173405025416542 11.383361770214737 0 0 0
432 2 7.763469429132777 14.426908406546973 9.714036018707281 0 0 0
103 1 3.9312295623044298 2.4990236146697242 13.803577531881176 1 0 0
105 2 3.6990381825287635 2.9498938324726662 14.630835996524302 1 0 0
473 2 3.7122917163848577 2.2422015585967374 16.97204809480203 0 0 0
472 1 3.24432843933546 1.4263726985112044 16.806706531040604 0 0 0
465 2 1.2341175091750405 1.5803863880751425 14.036388932542614 1 1 0
463 1 1.2420371180290481 1.2638180611863727 14.971398316465438 1 1 0
474 2 2.517924200464252 1.4294775422038726 16.16040036898971 0 0 0
171 2 1.988777263304108 4.4190547754560185 15.943225987643421 0 0 0
464 2 1.1128320928499469 0.2413777129718706 14.807271348601548 1 1 0
495 2 4.609637240764114 0.3529765896253216 16.189026995324546 0 1 0
203 2 0.686200794509978 4.219821989890642 17.703905926945332 1 1 -1
399 2 4.71258490184884 0.7602592145380461 13.733334983074538 0 1 -1
197 2 5.621062281645903 2.9474587423252627 13.668482664552412 0 0 0
196 1 6.618027582061326 2.964036883016623 13.768283174722866 0 0 0
383 2 8.911867340439496 1.3478912320519822 15.08892083954794 1 0 0
382 1 7.946326678519712 1.1932149361319568 15.217283058662536 1 0 0
384 2 7.511912381575608 1.7684738681142511 14.607176640099066 1 0 0
410 2 7.195373186243935 1.8072498428242219 17.015299521092278 1 1 0
157 1 4.8920630526850095 3.595596543250025 17.45462606508305 0 1 -1
158 2 5.558345071836126 4.006144593570641 16.919710773864512 0 1 -1
231 2 6.857684795496199 4.062383796368003 15.111880731085698 -1 0 -1
327 2 2.978900971746355 8.003755358100511 17.53508941427533 0 0 0
170 2 3.335726951506598 4.974343658661526 16.320039244253127 0 0 0
169 1 2.824463921320235 4.689014872865775 15.520916991095328 0 0 0
369 2 0.7064585912725599 7.765287814985304 15.650955047304974 1 -1 0
202 1 0.49425834866980944 4.481043662257814 16.77368094397978 1 1 -1
249 2 2.594681784863397 7.850089150483958 14.028640526002514 1 0 0
5 2 2.939299505103433 5.684619913375571 14.206512251237692 0 0 0
538 1 4.594078642422759 6.827053040149011 16.616017314102205 0 0 0
247 1 1.985624383293108 8.442637212983401 14.484575775110725 1 0 0
563 2 7.578041078786617 7.730053546245957 15.945238409944514 0 0 -1
491 2 8.147295645123988 6.9081657867047825 13.870329712305063 0 0 -1
539 2 4.837839481039777 7.05212230544829 15.702418095768682 0 0 0
540 2 5.270053642777166 7.268925893913247 17.14524577787777 0 0 0
229 1 7.041453795512624 4.73755332450754 15.878844370362634 -1 0 -1
230 2 6.8843751548662855 5.638446088497518 15.562940138372708 -1 0 -1
562 1 7.088437189349806 7.550788040430058 15.138220455494286 0 0 -1
564 2 6.834421420892748 8.457097486300563 14.859251600758924 0 0 -1
114 2 8.717238632840907 4.464278975249037 16.535349166021998 0 1 0
460 1 8.943039514500091 8.221582443171394 17.506195776196577 0 -1 0
13 1 0.9104294801329678 11.687432922695368 16.35050791851027 0 0 -1
248 2 2.470461842989362 9.304317436385302 14.614704883864151 1 0 0
499 1 2.7963149876148536 11.112906511708701 14.671178733173639 0 0 -1
501 2 2.033893622840978 11.325595454602169 15.284639586696223 0 0 -1
500 2 3.5652227931175275 11.211740469794087 15.290805096774871 0 0 -1
15 2 0.953488410688915 12.672974593894548 16.254934932069695 0 0 -1
139 1 4.626753884708489 11.65680832160109 16.31857442574287 0 0 -1
141 2 5.233856056069668 11.354011937951311 17.03460200737656 0 0 -1
140 2 4.760651463733731 12.642737649623566 16.24392487832789 0 0 -1
76 1 8.342010562440509 11.91145185659964 16.157076638631473 0 0 -1
300 2 5.93044713438755 10.832073053766536 15.236642899181701 0 0 -1
78 2 7.808396252494335 11.077982890411207 16.142125963097612 0 0 -1
299 2 6.804784189411713 10.407277277107877 13.998743479234575 0 0 -1
298 1 6.52976391968094 10.139784542127517 14.935494226580522 0 0 -1
555 2 2.0744409384505813 15.781639879533202 13.551107598434461 0 -1 0
575 2 4.44987740224298 15.455550244456418 16.95438443597222 0 0 0
246 2 1.0027930403247027 14.643087754911562 16.925987208251204 0 0 0
245 2 1.4340599515407628 14.741803515886689 15.461672066660498 0 0 0
576 2 3.1421938247601613 14.535603706702762 16.84461935741477 0 0 0
244 1 1.5878289126119136 14.222246357721172 16.321131273769428 0 0 0
553 1 1.2994006747158882 15.820853428989407 14.174011749290784 0 -1 0
574 1 4.058158695549241 14.601656581658917 17.20395999510566 0 0 0
554 2 0.4778124143549711 15.537126648445083 13.756884302616115 0 -1 0
397 1 5.276658373227272 17.284578811013212 13.525283239241666 0 0 -1
138 2 6.852902309623909 14.685087615846141 15.47369099371325 1 0 0
323 2 7.962354221817639 16.738275980565646 14.635910194149776 0 0 0
137 2 7.121409112808375 13.190650393902105 15.746840134018504 1 0 0
75 2 6.810668482756369 13.30260144002793 13.61139650639278 0 0 0
322 1 7.82268256714618 15.77687318997989 14.472560414595204 0 0 0
398 2 5.491008951906054 16.817660068478105 14.367158144141516 0 0 -1
493 1 5.258801875948587 16.841696852920467 16.179995562289985 0 0 0
494 2 6.17078797191817 17.201765943747645 16.201086295465004 0 0 0
136 1 6.404760298372291 13.812911715369278 15.623584258329839 1 0 0
434 2 8.841418673225776 14.887804054088923 17.168437907194697 0 0 0
324 2 8.717783015814337 15.43253008650458 14.223767007729007 0 0 0
168 2 6.459111795289197 14.316976431492849 17.556332198212093 0 0 0
362 2 12.741315974699614 1.9694058694144112 2.167943560636781 -1 0 0
361 1 12.476031663801912 2.9071526415765896 2.284475728629302 -1 0 0
215 2 11.107419818303162 3.4071136757433185 3.1580515633505195 0 -1 0
363 2 12.829066418325478 3.324831427667869 1.484784494513984 -1 0 0
214 1 10.506953201398524 4.133347311335058 3.3903162595832486 0 -1 0
442 1 12.806493660282431 0.2079357267088931 2.271343283113201 -1 0 1
216 2 9.63501572497095 3.7294053632360935 3.1853769114267947 0 -1 0
233 2 13.388242979443294 3.5406824785424584 3.7831857909238416 -1 0 0
232 1 14.058404086890903 3.8840802074382483 4.3893739101364195 -1 0 0
425 2 15.81099091992812 3.09156517559779 2.292793316092704 0 0 1
264 2 16.302598992062205 0.9295370606367598 3.184207936320063 -1 0 0
262 1 16.500374053971786 1.517638119330056 2.4395693609468148 -1 0 0
424 1 15.282936090682695 3.9004387456358747 1.9877504875767513 0 0 1
426 2 14.833804760899671 4.19314108205434 2.828712362522968 0 0 1
65 2 15.483466670932579 1.0301525783975445 1.2928186436455977 -1 0 1
443 2 13.532994254405727 0.2543600459551367 1.5965730648466285 -1 0 1
64 1 14.78380187176448 0.9341729900764197 0.5612737444964144 -1 0 1
263 2 17.45818110280695 1.338098286400836 2.367241933254471 -1 0 0
54 2 10.7723271307145 5.253226538331685 2.1052776007017817 0 0 1
52 1 10.656693266703677 5.8232546382620685 1.3471263761393557 0 0 1
63 2 10.836271217053678 8.094924963177839 3.7231379083937575 0 0 0
61 1 9.859508907949929 8.224297641343565 3.940678320164849 0 0 0
53 2 11.55143475029713 6.2347217063369476 1.2420394374505226 0 0 1
505 1 12.603121335097665 8.122782528598435 3.623759014516473 -1 0 1
507 2 12.76804641571981 7.875923585928265 2.7009147184868154 -1 0 1
127 1 13.227813651818638 7.028767180767272 1.4101202038468381 -1 1 1
95 2 12.884865457849616 6.643337510671841 4.712638797089991 0 -1 0
62 2 9.285925227818895 7.538908226326612 3.471289617523796 0 0 0
415 1 15.945865088596369 6.3329160036841765 1.2282182073139336 0 0 0
417 2 15.877377167949783 5.386138039073422 1.241475724932296 0 0 0
227 2 16.960014422345083 7.628262741303718 3.6926250913191057 -1 0 0
228 2 16.727861429117745 6.495021293970384 2.637732971347559 -1 0 0
128 2 14.154004786795086 6.722671773177475 1.5359217599661907 -1 1 1
226 1 17.175927249072075 6.678565727871009 3.4961750790122714 -1 0 0
234 2 13.62942123104425 4.697622888857228 4.764895133703553 -1 0 0
462 2 9.716309979315682 8.804426912795043 0.5054160600179496 0 -1 1
506 2 12.983066193885437 9.043796589034061 3.713507163458439 -1 0 1
541 1 10.308140764640049 9.929738558730557 1.7097828110636788 0 0 0
542 2 10.256743899608564 9.402802065312246 2.5588330370750327 0 0 0
543 2 11.151973298688262 10.477912509277727 1.7126911751486769 0 0 0
481 1 12.913402393317766 11.437969431661662 0.5501990808883384 0 -1 0
240 2 9.231281952078694 12.998842305841636 3.4729977943676573 0 -1 0
489 2 9.2368437470937 11.248084437399612 1.5330796337616066 0 0 1
482 2 13.749128499325245 11.27791005237263 1.0838766821764756 0 -1 0
182 2 13.893256316273334 11.149273653081552 4.106093568151938 0 0 0
181 1 13.808630612746098 10.27685702463924 4.639946741496846 0 0 0
183 2 14.697669369137884 9.79827526143657 4.535820086026134 0 0 0
250 1 16.402622313638524 9.409753822965321 4.532655225089824 0 0 1
217 1 15.605162933715366 10.373534285381206 1.3406918148368128 -1 0 0
218 2 16.351859778151837 10.958570060257921 1.2629838985769446 -1 0 0
109 1 13.981424552161306 12.693474144574662 3.621634212230165 -1 -1 0
251 2 16.53045298528931 10.158537865204792 3.98407996715745 0 0 1
308 2 9.834375013177032 16.697092886011962 2.09660877737811 0 -1 1
307 1 10.307662471829108 16.99085663466481 1.3122811556237624 0 -1 1
444 2 12.063220300093914 17.116707474605327 1.7249034597671922 -1 -1 1
504 2 9.241227650769707 16.791542661761152 4.005888715836693 0 -1 1
238 1 9.667437020419097 13.680756775275544 3.992011831165833 0 -1 0
413 2 12.701307435636844 16.905511958595422 3.920402717762352 0 -1 0
67 1 12.248207298282876 14.119250645438948 0.5029003689391821 -1 -1 0
518 2 11.141471047661115 13.92667186085935 4.20127470247252 0 -1 0
412 1 12.241524539703626 16.66654571222582 4.772154482255344 0 -1 0
414 2 12.203327639134239 15.647260376142468 4.689346674498494 0 -1 0
309 2 10.26961182916661 16.279474847315647 0.6522290832434576 0 -1 1
517 1 12.057377118749091 13.929796859968377 4.710020557371954 0 -1 0
239 2 9.308938857635596 14.587218728211674 3.7700216008588194 0 -1 0
453 2 17.43823095048052 15.594183497327302 1.495700713288188 0 -1 0
111 2 13.301137124406004 13.19492377254627 4.11370193808937 -1 -1 0
110 2 14.150182930313427 13.323977328557103 2.8655409629733968 -1 -1 0
333 2 13.58491430127359 14.71225055635199 1.5364330909491561 0 -1 0
331 1 14.514879410464097 14.602286377008287 1.8405224465001266 0 -1 0
332 2 14.773769925342629 15.32544830045394 2.384307790852933 0 -1 0
283 1 15.493452417459386 16.350878250341825 3.597205445073393 0 0 1
285 2 16.32459311094838 15.786184719671617 3.6674136400596327 0 0 1
284 2 15.074453759062264 16.057219228110693 4.468470397617763 0 0 1
60 2 11.002077888898267 3.999645419767268 8.891826785189238 0 0 0
173 2 10.04122867872957 3.9670104634443066 5.280590748971797 0 1 0
317 2 10.021901354629458 1.5216501863779783 5.227720500309581 0 0 0
316 1 9.932485760551051 0.6131594795410177 4.98432901565094 0 0 0
89 2 12.13940062239633 1.6126535152879864 7.629405377684086 -1 1 0
172 1 9.603971830205614 3.433762430782119 5.958962983251442 0 1 0
174 2 10.105266129960832 3.6062736058316642 6.785628874252222 0 1 0
261 2 12.67104695857518 3.4289031205258635 7.159068248250024 0 1 1
318 2 10.813523123193901 0.22146937958169582 5.009790113071329 0 0 0
88 1 11.54683074554821 1.076334712315296 8.230311760020756 -1 1 0
259 1 13.204842061599134 2.704986149848414 6.7199140578199215 0 1 1
260 2 13.275409020069166 2.899275307870368 5.777488835429468 0 1 1
90 2 11.465052334800907 0.20692302065379842 7.84499660637255 -1 1 0
163 1 16.437667407971464 2.756982948603116 5.339745140117343 0 0 0
456 2 16.033071339458115 0.8799256475975252 7.8578993150157785 0 1 0
454 1 16.17569837861603 0.5138157046520218 6.995474692484504 0 1 0
455 2 16.146917930842594 1.2647983240448488 6.330533742190345 0 1 0
164 2 15.481721331642397 2.8530174703537585 5.074144447383688 0 0 0
165 2 16.608992635549427 3.6735354992218383 5.708379892655655 0 0 0
58 1 11.449012966301103 4.450461645197123 8.165773514583883 0 0 0
59 2 11.178077935690004 5.401115816750384 8.168391535926956 0 0 0
547 1 11.511176515449232 7.11906493644341 7.431412495761519 1 0 0
548 2 12.001817514950783 6.6705857171494705 6.691454848949473 1 0 0
549 2 10.716657203943925 7.611276938683189 7.058520760553857 1 0 0
131 2 12.67779072703681 8.11504844169036 8.11702714487527 0 0 0
94 1 13.054385822954787 5.968862302690005 5.426308250743279 0 -1 0
271 1 9.413609337788401 8.539586395534986 6.417248475472225 0 0 0
272 2 9.62092635225036 8.264831308119849 5.476031085924153 0 0 0
7 1 16.004350711406428 8.686979509785665 8.945629208855442 0 1 0
132 2 14.069687091700441 8.507133808568716 8.903045925830567 0 0 0
401 2 16.96723617749904 5.869249230530115 5.057355528278633 -1 0 0
392 2 14.830826351434961 5.948753025771404 8.053480811063068 -1 0 0
400 1 16.911226642947057 5.324588932594361 5.852081362795989 -1 0 0
402 2 16.076970979684383 5.602319930730416 6.366766097962807 -1 0 0
391 1 14.788739123490329 6.533354167733457 7.259974793830192 -1 0 0
96 2 13.825735403509452 6.253257338545036 5.885699043835601 0 -1 0
393 2 15.03325224520163 7.421113161916828 7.570200699615571 -1 0 0
130 1 13.157938489420784 8.804618656414922 8.659295254547356 0 0 0
79 1 9.885274650962256 10.460682153989476 8.799035403247316 0 1 0
81 2 9.870838840129553 9.716017179615028 8.134705721403625 0 1 0
477 2 12.041947552907475 11.859421956817696 7.120749546290065 0 0 0
476 2 10.654190477018224 12.75490099807665 7.188232711091994 0 0 0
475 1 11.637315928062641 12.789818441408853 7.2467933974749235 0 0 0
329 2 13.193273321098559 9.89244275668955 7.597691640914052 0 0 0
328 1 13.118952968263585 10.64858766609914 6.996261812568637 0 0 0
241 1 8.983894942960918 13.069775923502826 6.612799627715288 1 0 0
195 2 16.910678076956902 12.544194716574664 5.252035984784127 0 0 0
194 2 15.356094900546188 12.695295124202733 5.098827999978661 0 0 0
330 2 13.516280418631426 10.393398575934997 6.070228465910603 0 0 0
211 1 17.44290775452633 9.431702604961322 6.982318642504325 0 0 0
9 2 16.60102496869189 8.888823299621091 8.161120973979079 0 1 0
252 2 16.695913745333776 9.61685745765684 5.409287518486998 0 0 1
193 1 16.073449115002173 12.583512699663368 5.690154696919515 0 0 0
526 1 15.309574878335866 11.79327600705267 7.93251425136628 -1 0 0
528 2 14.379298030444083 11.438172230844089 7.754341778756025 -1 0 0
527 2 15.581506513390371 12.011895886843455 6.994322104891365 -1 0 0
519 2 11.936518236225522 13.400035819665236 5.542015048662658 0 -1 0
156 2 11.01982550691709 15.003372185236604 7.260252676707088 0 0 0
154 1 10.748937672201578 15.618621427160337 7.956851192839228 0 0 0
155 2 10.89070345715183 15.109724744343492 8.77070048215167 0 0 0
147 2 9.013598502639715 16.226943438844188 7.641487795875911 0 0 0
146 2 8.97849307916458 17.221302957689723 6.569455546674474 0 0 0
276 2 14.85446679319915 13.491908135227705 8.268898782384163 0 0 0
20 2 13.56293775272055 16.230880031383954 6.01608578070658 0 0 1
21 2 15.00408556708286 16.477349933226904 6.450465504328084 0 0 1
19 1 14.402323961512813 15.763353401828784 6.185281965952237 0 0 1
274 1 14.905325202622302 14.490731369363887 8.451997704022476 0 0 0
35 2 17.43035300653913 16.646139090552854 6.879963632498478 0 0 -1
516 2 16.913395930487376 13.906020472446484 8.281647740556838 0 -1 0
275 2 14.563743699009015 14.918611987616616 7.627279052870185 0 0 0
97 1 9.5834810662472 1.9028424703743936 12.139791945163541 0 1 0
573 2 9.766058949587947 2.7620078097226104 10.48170638568563 0 1 1
420 2 12.59448801227636 2.085445775667431 9.581054085662823 0 1 0
571 1 9.901457867279403 2.9509878973044517 9.557559759908454 0 1 1
101 2 11.579605299055856 4.206889419365257 13.111265218003005 0 0 0
419 2 13.011771552688012 2.415922239624765 10.996442225076287 0 1 0
257 2 11.29450835137546 1.5157347666003398 12.45429870509883 0 0 -1
98 2 9.27864136147957 2.7015162879667174 12.607192365159225 0 1 0