LAMMPS data file via write_data, version 8 Apr 2021, timestep = 500000

384 atoms
2 atom types

0.12241304748427943 14.947684952516338 xlo xhi
-0.0003999702485269127 14.170632970248018 ylo yhi
0.06320753467273817 13.642515465328156 zlo zhi
5.062954150595901 5.055169814206299 3.574959187243923 xy xz yz

Masses

1 16
2 2

Atoms # atomic

1 1 7.343897945059887 5.4367589819384206 4.1398350896212035 0 0 0
2 2 7.137685175457516 6.369830160637842 4.446297330038853 0 0 0
3 2 6.527863808769334 5.118468758367165 3.6426862992918236 0 0 0
4 1 10.079579587855374 7.121751861870463 10.901649716092354 0 0 0
5 2 9.929170882677056 8.084128280514884 10.946611745638194 0 0 0
6 2 10.175566446068702 6.842278498608835 11.819836228509368 0 0 0
7 1 9.707422471214784 12.114120183726735 4.196632200493425 0 0 0
8 2 10.074843173127004 11.888532473121256 5.06169413471219 0 0 0
9 2 9.464390589267934 13.072152622447788 4.267849137711073 0 0 0
10 1 12.495551963209847 13.857175660493153 10.726953223483097 0 0 0
11 2 13.181633947068947 13.997743635963122 10.061978708555353 0 0 0
12 2 11.759233645979748 13.297016191534249 10.342098079386352 0 0 0
25 1 11.480696011501948 7.990378853053423 6.413383200014536 0 0 0
341 2 7.033206773443794 8.673629901393282 11.935034829672901 0 0 0
27 2 10.956917162166587 7.382846565429251 6.958232848414382 0 0 0
81 2 3.5386692278844074 8.250526929795278 1.3118816669036137 0 0 0
29 2 13.589233671512657 10.660973650685492 12.58310304808975 0 0 0
28 1 14.2563494781373 9.9874243200462 12.958383939409702 0 0 0
31 1 14.048085454675487 15.221013628937273 6.189501662791553 0 0 0
32 2 14.80095949657856 15.813973297473122 6.394415524548806 0 0 0
33 2 8.235033557850006 1.7059535554028225 6.062637894037412 0 1 0
34 1 16.517310423076715 16.8845102326484 13.069503863806608 0 0 0
77 2 3.124281624285103 2.0641525219812644 7.050115149129777 0 0 0
123 2 2.897471163107342 3.3907628745539253 5.075987921476134 0 0 0
49 1 5.405579448211289 3.9724122985117933 2.914719417715874 0 0 0
50 2 5.614086614553998 3.018259421611674 2.732816999083214 0 0 0
51 2 4.974460636349297 4.316233810605666 2.1079403442811295 0 0 0
52 1 8.007719768844725 5.604303616589989 9.853321259417534 0 0 0
53 2 7.357369052542301 5.4086863261727025 10.520316227290817 0 0 0
54 2 8.74127002782535 6.174871302951603 10.297385597048219 0 0 0
55 1 7.6768215521490895 10.637494641804995 3.008700214440147 0 0 0
56 2 7.999077738126991 9.826709841027851 2.5691615372681103 0 0 0
57 2 8.447645394827585 11.122392705418035 3.2290881695200615 0 0 0
58 1 10.313672883015023 12.19566808454837 9.669358093378907 0 0 0
59 2 9.890956760160703 12.53246710322537 8.868010775729076 0 0 0
60 2 10.443644083999093 11.285966249343325 9.449531382106516 0 0 0
73 1 1.1397746006955563 0.8655547577747964 0.5458941869397536 0 0 0
74 2 6.70579313012078 14.245703187341773 0.8886809372284036 0 -1 0
372 2 13.082476725339209 16.897299234470548 12.144801316461475 0 0 0
76 1 3.761448955469878 2.6774832050530013 7.382885700540351 0 0 0
369 2 10.5968788841279 15.008675868805533 5.421775748351616 0 0 0
78 2 4.5178549112941795 2.0787551251570835 7.52257591736846 0 0 0
363 2 7.9278637034648245 8.063501346452812 5.365724767576995 0 0 0
80 2 4.42140588302664 7.5139437386036825 0.37301310065226273 0 0 0
371 2 12.271966376953033 15.64146204887189 11.520564182546908 0 0 0
82 1 6.191336698156567 9.468141642949446 7.482800571171589 0 0 0
266 2 10.322198122508127 6.414738639292623 3.2235236818145334 0 0 0
368 2 4.140636959418299 1.3808008336587718 4.980239534122269 0 1 0
97 1 5.174794414082925 4.61811250183886 6.040053748087368 0 0 0
98 2 4.811452446297878 4.986268318054588 5.184534499869091 0 0 0
99 2 4.506182148883406 4.11629233916534 6.507794174304364 0 0 0
100 1 8.06614917834879 6.090617736991528 12.968356925260931 0 0 0
101 2 3.2551232924631983 3.12865534346006 0.07855256433637653 0 0 1
102 2 7.249882300241612 5.746689316285568 13.373620699897652 0 0 0
103 1 7.907567442192507 11.007124373400936 6.258379647999675 0 0 0
104 2 7.2201940214090765 10.481950305537119 6.670395161540838 0 0 0
105 2 7.549920213637632 11.390518357459081 5.480173396587917 0 0 0
106 1 10.285272126017025 13.395135467138637 12.550801044509678 0 0 0
107 2 10.687499889364927 13.808406486925309 13.374382003643527 0 0 0
108 2 9.578887075637896 12.753272580985378 12.889475655178051 0 0 0
121 1 3.2319759464980797 2.926458225653097 4.261968385709565 0 0 0
122 2 3.9863290353306904 3.450520093907594 3.8041007202509802 0 0 0
26 2 12.266757299244924 8.420197257739806 6.879354579784025 0 0 0
124 1 5.850137162095612 4.378425437393787 11.136746886165533 0 0 0
339 2 3.7750781411676186 6.295528166583268 3.366099440924234 0 0 0
126 2 6.188058414096584 3.4540298197619896 11.352432096819353 0 0 0
127 1 5.596536353386988 9.89312803596859 4.27939435395253 0 0 0
128 2 5.907783984773789 9.135681969437044 4.840323065768942 0 0 0
129 2 6.395478472591507 10.22547824769296 3.800527305163165 0 0 0
130 1 7.988565586074854 11.747441858862148 11.121472302288396 0 0 0
348 2 8.627679287079575 15.163138826520635 10.406247775958395 0 0 0
132 2 8.833557606800802 11.886198230232809 10.663330266700026 0 0 0
145 1 6.822290089414586 2.474046632525932 5.291734222208013 0 0 0
146 2 6.145688544040601 3.158673108220534 5.441847279459776 0 0 0
147 2 7.2775543491168975 2.6989065080437378 4.451327299461889 0 0 0
148 1 9.367086593198634 3.7449118423366587 11.750088526425222 0 0 0
149 2 9.006816608940364 4.602416250761035 12.012905053365223 0 0 0
150 2 9.945097311979856 3.5346222108665195 12.482656998254425 0 0 0
151 1 9.313746043923171 9.064845219258915 5.152620525665352 0 0 0
152 2 8.899802807677185 9.886020807402547 5.566076509783752 0 0 0
153 2 10.177562475044985 8.959337547547666 5.618076368382073 0 0 0
154 1 12.05729164080118 10.894151513070023 11.712667888949147 0 0 0
155 2 11.738198292326665 11.79950195896126 11.695660869169332 0 0 0
156 2 12.590589935303116 11.013851988560981 10.893533437985287 0 0 0
169 1 9.212800356879407 4.432987990986085 5.918964138589711 0 0 0
170 2 8.420137910423179 4.687309081743643 5.311292065646211 0 0 0
171 2 8.844437155443039 3.8667620848496367 6.63502203191265 0 0 0
172 1 11.561904396505811 6.275311065545026 12.968619479779212 0 0 0
173 2 12.210066171068599 5.689924800388986 12.536275707582854 0 0 0
174 2 12.06082736231167 6.906956595958868 13.509052011800103 0 0 0
175 1 11.393245855711298 11.27641555172483 6.435010170206428 0 0 0
176 2 11.037194026340416 10.636895701415147 7.099236873641725 0 0 0
177 2 11.951801463827271 10.745389129290793 5.832874226625802 0 0 0
178 1 14.13954641162689 13.132768044126394 12.84119688263064 0 0 0
179 2 13.533267540904028 13.414162176872923 12.131530454797755 0 0 0
180 2 14.87958909313877 12.774413125277578 12.369301341116396 0 0 0
193 1 8.271263012625155 2.594134901500231 2.828370913271526 0 0 0
194 2 8.40922607830027 1.8992594732298136 2.131669942774316 0 0 0
195 2 8.024625537136044 3.41413320834069 2.353255258180583 0 0 0
196 1 11.010600269200216 4.304485719739876 9.434530822878587 0 0 0
197 2 10.468494503940068 4.222502082355675 10.240221002959618 0 0 0
198 2 10.841957909097854 5.24456973447862 9.106764628347797 0 0 0
199 1 10.845486045412562 10.035785698625192 2.468139430853636 0 0 0
200 2 10.343273116432206 10.810929143777694 2.0614345885148153 0 0 0
201 2 10.32534963769737 9.939786986905302 3.268473026700753 0 0 0
202 1 13.788471144516393 11.096215987644394 9.35228276349819 0 0 0
203 2 13.52738459378946 11.917577595047161 8.971583481730145 0 0 0
366 2 8.850521223475628 10.303009525124956 11.680871138127502 0 0 0
217 1 5.521659231538785 1.3762861348745725 1.7980072234771691 0 0 0
218 2 6.1755655647549474 0.6757071595707049 2.1073786796355125 0 0 0
219 2 5.925738253342275 1.6817936121904633 0.9808806314212366 0 0 0
220 1 8.313541587666997 3.2015471337992705 8.349583848059126 0 0 0
221 2 8.414050798439398 3.93179266362214 8.988582914490882 0 0 0
222 2 7.389918184405161 2.7307254932737792 8.464422736678095 0 0 0
223 1 7.985642952180154 8.36630153565652 1.808141169049799 0 0 0
224 2 8.468732037847735 7.484926904420621 2.0428430903690247 0 0 0
225 2 8.413434882182496 8.63808024199072 0.947301811712482 0 0 0
226 1 10.8806842958948 9.703211187045532 8.859924853398844 0 0 0
227 2 11.388203083963079 8.893602871878658 8.983493768818105 0 0 0
228 2 9.942572450290418 9.399913677083177 8.881224113916778 0 0 0
241 1 7.485955798714323 4.820152712973288 1.0310445979200458 0 0 0
242 2 8.190449498772784 5.372024881748953 0.6318884365231803 0 0 0
243 2 6.796503005908012 5.549939619344366 1.290344778726895 0 0 0
244 1 9.994646715463508 6.4368714987998485 7.817334878295096 0 0 0
245 2 9.281278205421955 6.96673134199076 8.176288439159602 0 0 0
246 2 9.5076136322487 5.812747363744149 7.278718105073425 0 0 0
247 1 9.66813105723844 11.77714882990028 0.8599770213510476 0 0 0
248 2 10.329015866180953 12.353684105578306 0.47326052534050533 0 0 0
249 2 9.500470587376059 11.188698901509175 0.11559253070514974 0 0 0
250 1 12.23901361852852 13.523070985501107 7.599442934255133 0 0 0
251 2 12.91763448754619 14.08701135424098 7.142143648536819 0 0 0
252 2 12.050882567448934 12.819169059159089 6.9651287239149235 0 0 0
265 1 9.513486822083577 6.1661616280115155 2.6916588260829513 0 0 0
364 1 9.543114881301173 9.658720365700228 11.895465445438827 0 0 0
267 2 8.857354231467738 5.751787153984513 3.2754006652551286 0 0 0
268 1 12.4176028031319 7.5797279160725815 9.471858242707423 0 0 0
269 2 11.583393797622046 7.37876118133861 10.04226418093469 0 0 0
365 2 10.398814306589829 10.057193655145936 11.616194522678898 0 0 0
271 1 12.002056257018685 13.33249885535985 2.5793756008703865 0 0 0
272 2 11.255378920808747 12.794846985249093 2.9398870241085335 0 0 0
285 2 5.367551222756383 12.621320533700361 2.044896793496308 1 0 0
274 1 14.603818738161047 14.837382190230274 9.200141392155938 0 0 0
275 2 14.376083418515865 15.693572179503553 8.736670860970127 0 0 0
370 1 12.222628866464357 16.431368802221485 12.08201075917383 0 0 0
289 1 5.896916201024026 6.91396955959569 1.514305553984366 0 0 0
290 2 6.664607017936188 7.495002114572223 1.5366865102034701 0 0 0
291 2 5.517758016146269 6.935190642900215 2.3970456586813085 0 0 0
292 1 8.27836658301484 8.351629117075934 8.764251875902316 0 0 0
293 2 7.574682533378264 8.670135623210724 8.11003750403827 0 0 0
294 2 7.812194209339677 8.29823597427123 9.58637227093906 0 0 0
295 1 8.351974865776858 13.793335615023132 1.9916793344249055 0 0 0
296 2 8.678105442456717 12.964047630326867 1.6017588439211428 0 0 0
297 2 9.140210390793385 14.43864658962342 1.893758389595709 0 0 0
298 1 11.128015736538055 15.802255339719295 8.58461794497044 0 0 0
299 2 10.852811792066674 15.748836189604447 9.51135125841446 0 0 0
300 2 11.36799219598262 14.894402268956934 8.36398875364702 0 0 0
313 1 3.6317346476893677 4.620768954725802 0.6759839306322812 0 0 0
314 2 8.91835835290829 8.764645813295218 13.447598195860717 0 0 -1
315 2 3.144756361951728 5.260077754852208 1.2545894890489884 0 0 0
316 1 6.258297402398485 6.588737221746487 7.842641397853645 0 0 0
317 2 5.908704530121835 5.753338015170767 7.344848655575062 0 0 0
318 2 6.947577561565984 6.220084892158112 8.457986112107788 0 0 0
319 1 6.186365784863556 11.69589113863957 0.9583534929424826 0 0 0
320 2 6.87527154179016 11.397531244221097 1.577965690019708 0 0 0
321 2 6.595347350627471 12.173200361426675 0.17748540534976495 0 0 0
322 1 8.817562212993051 13.299154220279474 7.802260318689848 0 0 0
323 2 9.107663771382455 13.90203537407914 7.068300028377261 0 0 0
324 2 8.371199862467318 12.547741361203762 7.347204824857586 0 0 0
337 1 4.654638122587705 6.415313233095854 3.7641158834734143 0 0 0
79 1 3.554484118253069 7.888435843907468 0.41703488673950667 0 0 0
367 1 9.642032313640719 14.798679754036575 5.368581083573768 0 0 0
340 1 6.886505916008829 7.986323596833121 11.310339596711886 0 0 0
35 2 17.218425363485757 17.300248217639602 13.617481190445341 0 0 0
342 2 7.2281717019764455 7.204973369783377 11.75581586222518 0 0 0
343 1 6.859552565008258 13.743040149309842 4.430089919831851 0 0 0
131 2 7.304331796477003 11.604544703874787 10.354183566388304 0 0 0
345 2 7.38606552606098 13.994439250720111 3.6399553580874406 0 0 0
346 1 9.515881681649269 15.333073726452504 10.7696155521324 0 0 0
347 2 9.803178642120738 14.472167510293072 11.225309479406453 0 0 0
125 2 5.2215325719905445 4.314779748507574 10.36836913206622 0 0 0
361 1 6.998544831434902 7.705403046608628 5.346986151449981 0 0 0
362 2 6.866173298428583 7.24298218403193 6.181051634410925 0 0 0
338 2 4.4356838713636915 7.17079658626493 4.351790485677786 0 0 0
273 2 12.620663981656588 13.525144420341842 3.2715053467023076 0 0 0
84 2 5.600278923473335 8.80711036876939 7.1527570910336165 0 0 0
13 1 14.853084328152585 5.064202814870585 4.039176115451062 0 0 0
14 2 14.227108581902069 4.525905528400532 3.493904790943927 0 0 0
15 2 15.260966836610386 4.531533691898563 4.733975239095967 0 0 0
16 1 17.35074115591694 7.145170753514954 11.043968752104641 0 0 0
17 2 16.68606230933157 6.492129209337627 10.776354926158731 0 0 0
18 2 18.076140032801533 7.16747325548102 10.334197456938298 0 0 0
19 1 17.27765568888386 12.061122338030254 4.149429022414474 0 0 0
20 2 18.004338629388943 12.167961888478857 3.505141603805031 0 0 0
21 2 16.604070917586956 11.510738699730112 3.7267816800978646 0 0 0
22 1 19.806868502908667 14.13401046547023 10.661383005192864 0 0 0
23 2 20.60134427678477 14.391128760841267 10.182571056836014 0 0 0
24 2 20.175722040756533 13.809002096011508 11.513019258816888 0 0 0
37 1 18.90123347839668 7.831800924827314 5.837657686847862 0 0 0
38 2 18.120374300092 8.306720749173499 5.482969064174284 0 0 0
350 2 11.761811045175191 7.112360343878187 4.899708084480186 0 0 0
40 1 21.468479495715133 9.97061572191838 12.984306893802943 0 0 0
378 2 16.54792538179027 10.221588619910277 11.727208930844297 0 0 0
42 2 20.69425563606808 10.524207294415671 12.72731548023528 0 0 0
43 1 21.430262083399494 15.133851422770071 6.437207945579788 0 0 0
44 2 15.610245627815575 1.6038587817281234 6.072788988032946 0 1 0
384 2 19.5716366675653 15.793118091914726 11.620244559483956 0 0 0
46 1 23.77407427608532 17.0365159026177 13.08933026725915 0 0 0
138 2 12.515203872239942 4.401914281921283 10.789720326849515 0 0 0
204 2 13.806782909401015 10.361776329776436 8.719788324785839 0 0 0
61 1 12.876962741358787 3.642962607366903 2.753830237101512 0 0 0
62 2 12.042806722072086 3.404271012927035 3.212437899274743 0 0 0
63 2 12.490829573181275 4.042555528768627 1.9326201815742972 0 0 0
64 1 15.274238815516698 5.487956238185456 9.600363024606715 0 0 0
65 2 14.827141715109148 5.8859208277023995 8.80149580163255 0 0 0
66 2 14.546999383596253 5.351294897870375 10.250230156109229 0 0 0
67 1 15.155075652722912 10.513217827050534 2.8981423670280773 0 0 0
68 2 15.402922220032938 9.612128181624817 2.563588555455715 0 0 0
69 2 14.336565163300062 10.410330134497457 3.509273643056504 0 0 0
70 1 17.85995777464713 12.549738858934033 9.526001679243057 0 0 0
71 2 18.618872407247167 12.99888310174564 9.986792045498657 0 0 0
72 2 18.167006094464515 11.726285716688546 9.14311595292487 0 0 0
85 1 8.474272117137776 0.6417625914370112 0.8511542062225922 0 0 0
86 2 14.387397862130564 14.317073920037831 0.924480455039461 0 -1 0
87 2 8.735364694031562 1.3652681021645516 0.21584964835943443 0 0 0
88 1 11.061128784245676 2.5471774486200283 7.279142108042258 0 0 0
353 2 14.676219412112026 8.88981907054122 11.497371738077717 0 0 0
90 2 11.887887004772008 2.111273252388095 7.545483188387467 0 0 0
91 1 11.277776613945319 7.889739268433721 0.6865787900720322 0 0 0
92 2 12.080235947508642 7.343862110048153 1.0952071698484194 0 0 0
383 2 19.527033427360315 16.069067534257005 13.1651894801565 0 0 0
94 1 13.744316268825196 9.431712621397498 7.4349839877250785 0 0 0
95 2 14.504548600943835 8.929402889858636 7.795073181370404 0 0 0
96 2 14.246172606314445 9.95345365994397 6.750001792541143 0 0 0
109 1 12.798344951891762 4.338932648447029 6.21835988647617 0 0 0
110 2 11.93012950267174 4.032120815795052 6.430304326174426 0 0 0
111 2 13.220630728099167 3.606760750582344 5.810881695532774 0 0 0
112 1 14.936218498621473 6.113523111790103 13.050959762334557 0 0 0
113 2 15.454232047130594 5.433090730103558 12.539913609899852 0 0 0
114 2 15.447761698119312 6.719330465229074 13.63808022433393 0 0 0
115 1 14.92622795848315 11.313191868194776 6.012721348163762 0 0 0
116 2 14.612363731360892 11.944318359599379 5.306582370901945 0 0 0
117 2 15.472769862040371 11.913327400445661 6.5930176305631605 0 0 0
118 1 17.669072435011543 13.424262702061222 12.631879144155773 0 0 0
119 2 17.99033896742998 13.942583165702372 13.399429981356743 0 0 0
120 2 17.073413725890134 12.806010939652008 13.123405567031822 0 0 0
133 1 10.7058016655468 2.875786652331567 4.032836243349095 0 0 0
281 2 20.183129615136313 8.014961402643324 10.323618482030714 0 0 0
344 2 20.819702424804735 13.718503453780148 4.054713117555985 -1 0 0
136 1 13.154477054362372 4.64518011768232 11.453494591494477 0 0 0
137 2 13.495442062412044 3.804319663444801 11.813000304773144 0 0 0
135 2 9.933566251418217 2.859318272036685 3.4965108585558626 0 0 0
139 1 13.165416548162913 9.70435244413173 4.406631523049647 0 0 0
140 2 13.377464952290383 8.897198503886516 4.912465692384803 0 0 0
47 2 24.15454249998929 16.392183732052107 12.450250208182574 0 0 0
142 1 15.709872441420526 11.74847429150435 10.972661789312035 0 0 0
143 2 16.445848266789998 12.21197257661929 10.531486243453207 0 0 0
379 1 16.914811829633553 14.65790827908314 5.2116680162258415 0 0 0
157 1 14.12659278228686 1.9369664146167855 5.1232329536329395 0 0 0
158 2 18.381615709580515 15.506474161988514 5.166093355357114 0 -1 0
159 2 14.27302283825468 2.0885082857574044 4.203221962839119 0 0 0
160 1 16.49742248069268 4.204155205396656 11.837908813188271 0 0 0
161 2 15.966100651264963 3.3494535383750286 11.815499675470473 0 0 0
162 2 17.337895893425294 3.96664934960847 12.153601735625838 0 0 0
163 1 16.68089658384346 9.016397269648923 4.991129302987842 0 0 0
164 2 15.898770715108899 8.4414770039078 4.988847707856405 0 0 0
165 2 16.340807935500358 9.844449088107401 5.300739486038016 0 0 0
166 1 19.17753226318933 11.069571685607475 11.775098120931855 0 0 0
167 2 18.493350951600696 10.405961296499878 11.902318124300136 0 0 0
168 2 18.80808785500623 11.93248056496874 12.116007065005833 0 0 0
181 1 16.397285657629713 4.229644251863602 6.098927937838642 0 0 0
182 2 15.927773042689656 3.686063968726338 6.7578559362899835 0 0 0
183 2 16.788541831523442 5.020242085930695 6.545361651813405 0 0 0
184 1 19.14476505985605 6.33852396690569 12.845001647373222 0 0 0
185 2 19.665017080185105 5.802976051090594 12.243599351932113 0 0 0
186 2 18.421996221709282 6.7546853122851225 12.306816977444432 0 0 0
187 1 18.91959198526709 11.267158843786362 6.1245490572727554 0 0 0
188 2 19.51304542202144 10.96767088704708 5.423602938060915 0 0 0
189 2 18.21141776911357 11.750317329474816 5.737226868770718 0 0 0
190 1 21.198307261091387 13.208630578376066 12.829390076743582 0 0 0
191 2 21.875355878310074 12.690900004606238 12.342447795444782 0 0 0
192 2 21.74755784261783 13.801099030154255 13.35941522417244 0 0 0
205 1 15.724196872786727 2.6453120699276242 2.5313749440524616 0 0 0
209 2 18.358479944677047 3.8065091068583805 8.827038508598271 0 0 0
207 2 15.602131013385714 3.404604952403789 1.927328730554301 0 0 0
208 1 18.22328688744244 4.51308032125609 9.48229875413509 0 0 0
377 2 17.070936911060524 8.758965469888787 11.616022667509158 0 0 0
210 2 17.565977953939324 4.189356717106742 10.111173509489904 0 0 0
211 1 18.313035364385303 9.456272151506118 2.672509245977589 0 0 0
212 2 19.11633883242031 9.67646695021824 3.214629101445372 0 0 0
213 2 17.62943948264894 9.331028388150346 3.2834214505920527 0 0 0
214 1 20.73334729721555 11.380811937743974 9.366055452541595 0 0 0
215 2 20.102518459102164 11.210840311757824 10.116958672521829 0 0 0
216 2 20.406687523600805 12.123231876411824 8.766092168685384 0 0 0
229 1 13.037269467881204 1.2005563656821152 1.6095698258622966 0 0 0
230 2 12.9525420810116 2.1391562926401737 1.9484016605996686 0 0 0
231 2 13.532310256019084 1.4642965296517445 0.7303843899318546 0 0 0
232 1 15.445058597126243 3.053505942092058 8.214504847996546 0 0 0
233 2 15.367674281191569 3.839187878605886 8.7875446018417 0 0 0
234 2 14.598133124776297 2.5235702829060753 8.237782905298431 0 0 0
235 1 15.578470671282552 8.124379200678623 1.448736291282913 0 0 0
236 2 15.644615275011754 8.532387638845947 0.608933023050453 0 0 0
237 2 14.662260253620865 7.7370539302541435 1.469383531780676 0 0 0
238 1 17.968030606477612 9.760258967908573 8.466520372506844 0 0 0
239 2 18.647036528801046 9.162289816068624 8.788029357523323 0 0 0
240 2 18.360207773385905 10.041466609404551 7.572772580649749 0 0 0
253 1 14.87210534325024 4.7254060136799625 0.8187527204680763 0 0 0
254 2 15.507380663050204 5.299425082244455 0.3783758720128726 0 0 0
255 2 14.473219338452479 4.031484018391632 0.22058916700958603 0 0 0
256 1 17.529382370294098 6.292122867351016 7.570632093197591 0 0 0
257 2 16.78698581956136 6.902282077397471 7.84921207139212 0 0 0
258 2 17.78008443454108 5.649999176004679 8.314465175169115 0 0 0
259 1 17.530982526162077 11.38902912117217 0.9592872396920998 0 0 0
260 2 18.0967292097374 12.024118860241751 0.5940303631192784 0 0 0
261 2 17.98680225949552 10.878591743421335 1.5933652973406833 0 0 0
262 1 19.939429640230966 13.265061210799397 7.614726412000566 0 0 0
263 2 20.560421995578153 13.81570861429894 7.0945242851263615 0 0 0
264 2 19.53624320932557 12.580098778280313 7.025729599245493 0 0 0
277 1 17.07144410815155 5.966562105562738 2.3438596569605674 0 0 0
278 2 16.32278120351813 5.618289268685507 2.932175090491443 0 0 0
279 2 16.602773880890567 6.694505518016802 1.827837976010091 0 0 0
280 1 19.54031645830935 7.948639245881356 9.597800193693585 0 0 0
375 2 14.335958273755717 7.152108325533587 6.189823054884574 0 0 0
380 2 16.444405014978084 15.253690722897714 4.649328846236408 0 0 0
283 1 19.54369183394175 13.102317500831072 2.6805060738715865 0 0 0
284 2 19.15900941849342 13.889483577187747 2.2163918836184218 0 0 0
382 1 19.472906251314946 16.499618211815267 12.30949064256639 0 0 0
286 1 21.915768009188223 15.12573593213358 9.34769611686923 0 0 0
287 2 21.58064717380194 15.94511485709683 8.897521480267264 0 0 0
381 2 17.05669376491635 13.847754696608007 4.703839542352496 0 0 0
301 1 13.374698587455047 6.866537353368565 2.0058330080197453 0 0 0
302 2 13.747072935662324 5.983710798731149 1.7447352522411854 0 0 0
303 2 12.93327420202103 6.751799849795827 2.869244292387911 0 0 0
304 1 15.823439886925078 8.185584692793451 8.535288169968707 0 0 0
305 2 15.57188514298307 8.168000853430728 9.482090177181556 0 0 0
306 2 16.561404009815117 8.794125931657481 8.419030941930561 0 0 0
307 1 15.889544346021232 13.718108009559755 1.6077138333094692 0 0 0
308 2 16.728908990039436 14.284238300444946 1.4969810765566633 0 0 0
309 2 16.222437618115688 12.81868005843877 1.4693855385456605 0 0 0
310 1 18.551410054241252 15.699990641975575 8.499887367590663 0 0 0
311 2 18.971436030206167 14.884587278857728 8.315863651261486 0 0 0
312 2 18.166410256656075 15.658848317421011 9.374444582138334 0 0 0
325 1 11.235294684781095 4.594095693345865 0.8595536810765745 0 0 0
326 2 10.63561942771952 5.162589842175024 1.3700978856166948 0 0 0
327 2 16.489560612302462 8.69777512682436 13.615227884603101 0 0 -1
328 1 13.871941908061098 6.357015469192777 7.559385658839913 0 0 0
329 2 13.219134870208295 6.926641098119872 8.040784333467638 0 0 0
330 2 13.587065188443145 5.4669493123522725 7.207052778155073 0 0 0
331 1 13.608811991155767 11.471624889423111 1.1554577048443189 0 0 0
332 2 12.908978761682446 11.930363682312827 1.648537957323413 0 0 0
333 2 14.221654279141426 10.973987634669562 1.7651630262289513 0 0 0
334 1 16.166540997073756 13.375719506263042 7.673488842413588 0 0 0
335 2 16.928983423905574 13.182891870093115 8.244355165624405 0 0 0
336 2 16.381375797521752 13.961523434472657 6.840438678810532 0 0 0
349 1 11.730919878101465 6.438871428003472 4.229265519352111 0 0 0
376 1 17.059277212116367 9.56347979397508 12.158873832384488 0 0 0
351 2 12.247653637412858 5.688816174634103 4.588380567715971 0 0 0
352 1 14.576146344904226 8.0363442126944 11.097844609552158 0 0 0
39 2 18.498989144062257 7.196076754146076 6.458987084624688 0 0 0
354 2 14.570170033751385 7.439009895754513 11.852001463204017 0 0 0
355 1 14.117951434152056 13.516734591201589 4.16091610725419 0 0 0
282 2 19.992884488818582 7.384999792574231 8.918737870683962 0 0 0
357 2 14.665073919208979 13.594632595238446 3.3850397831191286 0 0 0
358 1 16.704331314506636 15.269831819204425 10.837337372150882 0 0 0
359 2 17.04641259869637 14.371863905284158 11.033290125606706 0 0 0
288 2 22.202240143707037 14.567311833473685 8.652865391497166 0 0 0
373 1 14.559398578929017 7.47862313724957 5.302920481244761 0 0 0
374 2 14.53250478095418 6.733654493804728 4.721178417168554 0 0 0
134 2 10.433012341764407 3.385397862612712 4.844390497784354 0 0 0
356 2 14.29263744715554 14.279570096576034 4.779321821986968 0 0 0
141 2 12.564834028905402 9.539703604534509 3.682258290008221 0 0 0
48 2 24.558775607366677 17.514424661288917 13.348716164057171 0 0 0
83 2 20.594263117038558 9.792954589744632 8.344435676291269 -1 0 0
144 2 15.105630034893304 11.4535436091422 10.271394772492956 0 0 0
41 2 22.238859934567124 10.505022001759816 13.258105304060416 0 0 0
206 2 16.551836653268232 2.7052765553653146 3.0260425076561934 0 0 0
93 2 11.09177797162977 8.534637427785862 1.387311117543112 0 0 0
360 2 15.879187280505807 15.170559263291649 10.213216620715873 0 0 0
36 2 16.886187939579628 16.33230981663332 12.365921406692014 0 0 0
30 2 15.042024316098606 10.49144977798413 13.302182896507492 0 0 0
270 2 13.121602510698184 7.799123696606384 10.107659070894112 0 0 0
45 2 21.699976138687287 14.681534061386742 5.5849886482578315 0 0 0
75 2 15.83009800144829 1.4510037250681003 1.3945663671811992 -1 0 0
276 2 15.10734324848691 14.29802512625533 8.517589232040827 0 0 0
89 2 10.876294278067226 3.082358537815431 8.079418619890982 0 0 0

Velocities

1 3.5870970469001597 1.2063748084005164 -0.633678761081155
2 6.803819149346223 -8.27929634965453 -7.582212045390002
3 2.588350030102099 4.607902242100396 10.706151787999879
4 2.1796156223664256 1.170326734559242 6.367630396589327
5 -0.012365638397138577 -16.82640775798601 -11.597594592311511
6 -2.4876218076494356 -4.364777649604498 5.061167252261907
7 -0.2683710846618314 4.724319860447126 -0.377317012960376
8 2.3804095357122943 2.6841560753454057 9.110373305065865
9 5.951497117489505 -9.175795527413127 4.497563845635706
10 -0.7612670895921353 3.80865650447078 2.3243535603884555
11 17.36766216311094 -7.157935752069648 -9.755097863585169
12 12.641495870420188 -15.187848151384294 5.005640144944528
25 5.1213699063535 -5.406727543304131 -10.310711461453664
341 -11.508020822264296 0.34255434126459094 9.930428500949617
27 2.4172137255747983 -1.7513889516578405 -7.836943143677338
81 -15.856844307898548 35.637161200474345 -1.2044327829152006
29 -4.557037339063978 -1.2088058475884234 10.038380633794205
28 -0.34288906245259965 -1.7555821895961514 -0.779324703824672
31 -2.574607469425481 0.3058573772649108 1.1737262235236292
32 -21.79680121629271 -3.2016087240699207 -6.603571568594872
33 -4.833948899582115 5.372930847094398 4.1438821092048395
34 9.27283584657609 6.810857875286174 -0.05466788445785562
77 -1.7740782247723896 13.810935969682289 -17.156287626661907
123 -9.214143247595928 -5.758124997352881 13.585988054437228
49 -2.053051409280335 0.6086434639678355 2.2376989871382866
50 6.521008539180163 -12.145295616125406 9.469450175243582
51 -9.872421427363829 -10.673920024297027 -12.293130403489702
52 -6.219744691591959 0.23969946090443553 -7.859971783937196
53 6.841487811591085 6.611040728177857 14.546259759971363
54 5.3972073209041325 13.851042149216708 2.8907389709775146
55 -4.026858691005734 2.1819435154386264 2.8402533154738903
56 -6.116443869773251 -3.6167645993396693 15.427796203425101
57 20.996993554762334 1.73676764083755 -2.40564517611051
58 -0.3877835484126472 -6.093738513480182 -2.0000933414426365
59 7.751723913451968 -25.561028730767184 8.614084117887028
60 -0.7761331954495307 -9.945644929964574 -0.20327516527800296
73 -0.9456726217762934 6.115509812503599 -3.1426125005477408
74 -12.392875613803488 -6.190571216005501 -2.750178840629328
372 -8.76909119585474 -2.504141482082182 -21.558338253747102
76 -4.885268839414947 4.480916976464071 -2.7068083084391588
369 -9.322939882904537 4.088379219670047 0.09485283574909949
78 7.176288588586815 2.7593390410067893 6.219614355821082
363 -2.5667157220546657 0.8167714341456349 3.82061837979525
80 -17.52246185192124 -26.618781212767946 10.869588631370188
371 11.069283089244498 -16.288844073834735 -6.714251666488177
82 0.3236815067167094 0.2522798772771113 0.07785694770292735
266 -19.798872570235684 -0.480885195074721 10.599020721257997
368 -1.4362132419754663 7.87625338162589 -0.8657273579160558
97 1.3538120766928827 3.654444692297123 -1.694709021209168
98 2.850676129450973 6.183010677876883 15.674577282370745
99 -0.6161358869212953 -6.15508949036912 -8.18414936511496
100 -6.178503473033606 -2.252933326487587 4.960636194953216
101 -4.875359267991404 16.042925727309786 -0.7937471085222805
102 -19.580628288611813 -3.6271954146142065 6.7302119136900815
103 -1.3932548008670194 3.1847973320382605 -3.5101227666768318
104 4.148434531456975 6.919204114987079 5.3186125759544565
105 -12.332054577976574 -10.167062298137497 5.427049647440401
106 0.16163404398815642 -3.2323056499417455 3.620741158705957
107 4.08034421898818 -22.27285494044665 -20.659706815035833
108 15.821362572814147 3.001085698979483 6.404123952234042
121 -0.8421102502453466 1.7019201379624538 1.742047277078188
122 8.557016302549698 -1.6632172554818705 -11.512939997034735
26 5.464652266506064 24.132490977332477 -5.299240475027023
124 -0.3569236135746916 2.082642510924938 -1.8699242177498252
339 6.655203075484762 -13.563923929043911 -7.196538476510566