LAMMPS data file via write_data, version 8 Apr 2021, timestep = 1763000

1008 atoms
2 atom types

0.043544999529414596 20.628981657704145 xlo xhi
0.043544999529414596 20.628981657704145 ylo yhi
0.043544999529414596 20.628981657704145 zlo zhi
0 0 0 xy xz yz

Masses

1 16
2 2

Atoms # atomic

743 2 7.156029006999816 0.5021203378207477 7.457623517738429 0 0 -2
520 1 19.549551140920464 7.987360875022638 3.820072284905895 -1 -2 0
637 1 11.55274105098667 3.3829114304899655 3.2898100374386967 -1 -2 0
65 2 6.801700167078135 5.9353233830561125 7.961186072638687 1 2 0
393 2 11.050933901117764 8.504219087654919 4.653829712038292 2 0 0
446 2 12.333239904758283 6.622962738545058 5.235510766124281 2 -1 2
557 2 7.350306793347301 2.8007386033057715 10.185777390626823 1 0 2
819 2 9.041939484987138 8.984218885605642 1.8928051052397756 -2 1 0
163 1 12.24811459173893 7.193512295326838 1.3864094195890844 -1 0 1
22 1 8.103026663180934 5.7301437682818435 3.3406044766295624 1 0 -1
940 1 19.89516163714402 2.2827841742126456 8.033733159896185 0 1 1
238 1 8.557226975593366 9.428821155345986 8.095397535442508 -1 -1 2
678 2 3.1982202289284647 9.52520927874774 0.8671066539230413 1 -1 2
150 2 0.4342767856147507 6.0763954168327725 6.482304015392694 2 0 -1
683 2 1.5836037232073186 9.1899555969467 2.280761691526134 0 2 -1
447 2 13.004641794158827 5.385741979474608 6.019706307071944 2 -1 2
140 2 5.924780062326209 7.368031116605383 9.748765778700413 1 -1 0
621 2 5.199035718251342 3.0896359849068924 6.163883496832174 -1 1 -1
224 2 12.452714435915356 10.182973662456444 8.262617144994504 -1 1 0
373 1 15.201744850109199 2.277153857719177 3.674750916264026 1 4 2
149 2 1.6042147856248477 6.7529442574718725 5.560155262880926 2 0 -1
870 2 16.337779827426864 7.245354607259548 2.971516679361332 -4 1 0
506 2 6.132791113025865 8.661231308883249 2.9495472829855607 -1 2 0
507 2 7.067123353655143 8.510784002069114 1.616055072813242 -1 2 0
580 1 10.084706870759165 9.785611826491701 5.919032754200874 -1 0 0
522 2 20.15747503130948 7.493235039020454 4.459517135045686 -1 -2 0
890 2 0.49910714372912707 8.098599085340961 6.5931139493756525 0 -1 1
728 2 9.50741026350885 0.1244066536006376 7.265934717933386 0 -1 1
774 2 14.78595061840378 4.5291589453019885 5.96118462039648 0 1 -1
539 2 1.6858309956354773 2.2859130709623625 3.61502614127631 4 0 0
387 2 8.319674062128286 7.074122429012127 4.880173603327763 1 3 0
993 2 16.166443773431418 8.814732858490043 6.366550131030431 -1 2 0
653 2 8.990611273303896 5.094011840472612 7.573723107671708 1 0 0
731 2 13.88372003945708 0.5141030957744708 1.179089152549376 2 1 0
856 1 3.05948971066761 10.14536843003374 7.616567661413986 0 0 -1
28 1 10.12513497022052 6.307947094910261 7.181175932736322 -1 0 1
363 2 20.07860222373393 3.0565929038442743 0.840664549250267 -1 1 0
270 2 18.757631586418732 0.8772535327353266 4.717698864987008 -1 0 -3
521 2 18.95392164569138 8.522099237903836 4.389926171408486 -1 -2 0
600 2 17.64418361108052 9.775554809008309 9.027628073301639 -2 -1 -2
197 2 4.132586622378351 8.650835543452015 4.557333124490983 -2 0 1
361 1 19.50633931314811 2.2662913432983083 0.7688123119931268 -1 1 0
975 2 19.221297293473448 4.4106760127319085 7.018468036222914 -2 -2 1
742 1 6.281292045181532 0.4933325117022778 6.982335184607642 0 0 -2
57 2 8.626028541901649 3.5052226857886843 5.210067278944992 -2 0 1
942 2 19.151464403950726 2.4297966831933877 7.41515093046254 0 1 1
923 2 20.26417629872332 5.200191180841259 1.8360633153599868 0 2 3
973 1 18.446840816248418 4.262904550952365 6.473325769560061 -1 -2 1
164 2 11.660168031885052 6.537262799969245 0.9496628249613257 -1 0 1
598 1 17.361298039246186 8.8421602693583 9.295386720791965 -2 -1 -2
186 2 18.006859205356406 4.683395527974412 3.3913983538811965 2 0 1
274 1 16.95685097294855 7.7792853296139475 1.5295808412759502 0 -2 -2
276 2 16.366852502686022 7.625193191219091 0.7687132641483055 0 -2 -2
764 2 15.119615139763178 1.485253934792958 10.192170427193663 3 0 1
385 1 8.424969420811381 7.459228012257755 5.767618108316796 1 3 0
614 2 8.095710237123146 2.3238336084482754 3.503403464992874 2 0 1
787 1 10.956847340730445 1.272681134648967 1.8296164943643345 0 0 -2
666 2 18.215012577503273 9.994834822198078 6.207240031915052 0 -1 0
489 2 2.240793505754793 7.166494179047809 1.6973020998543318 1 -2 0
620 2 6.114240881951608 3.326904656159059 5.014288494022589 -1 1 -1
362 2 20.032555317672696 1.5414586632041432 0.9792476592497764 0 1 0
487 1 2.485601698280305 6.284661723708067 2.0611578055216655 2 -2 0
851 2 13.293401479079073 6.078492160214319 2.5221013702574826 0 1 1
56 2 7.8268385062539565 4.323186124000187 4.145455664969308 -2 0 1
558 2 8.854299394207604 2.768187161141743 10.302339600847185 1 0 2
517 1 13.062910885059134 1.946717889565508 7.269895985049154 -1 0 -1
619 1 5.134792988818974 3.1520016203789507 5.147797971024356 -1 1 -1
665 2 17.25821859107964 10.272295910637048 4.9464897809841295 0 -1 0
519 2 13.57861871894261 1.4210040170986438 7.822474317245724 -1 0 -1
700 1 11.679678703409895 3.6552393879140386 8.727867581234301 -2 1 0
891 2 1.4283531534365812 9.100621172746749 7.401868709932564 0 -1 1
382 1 5.087427944458886 6.104641637768714 0.7626280552708034 0 -1 1
505 1 6.454969222985212 7.994426336767996 2.3023362425376512 -1 2 0
295 1 12.938878141439702 6.177445286901209 9.450028041050961 0 1 0
534 2 18.217873307181428 2.997454050235989 1.6797034652241638 -4 1 4
30 2 9.533015378442432 6.7390477175740555 6.445404221457096 -1 0 1
702 2 12.022456747062485 4.554190679279335 8.60479552449645 -2 1 0
152 2 19.484809000816554 2.560674680136345 9.71261253824686 2 1 1
375 2 15.582341449919989 1.418945263609391 4.067529734803013 1 4 2
436 1 5.8179587258886905 3.128110166101495 7.575118273406909 0 0 1
773 2 14.450608307603995 3.283359918690599 4.992987542774725 0 1 -1
77 2 20.164566385922612 0.5139689375165377 8.07552201660442 -2 -2 -1
888 2 4.184502995444556 2.0977649070104154 4.355519498857016 -1 -1 -1
330 2 15.41515041660197 4.690204774554731 8.649462862623338 2 0 0
356 2 3.548389530098264 4.607814519733815 9.365026613042472 -2 2 -1
55 1 7.796604323348948 3.448149341755423 4.651301352649303 -2 0 1
148 1 0.6332843594114677 6.718040722335149 5.709622732374561 2 0 -1
304 1 2.982652830551438 1.496455619432389 8.058468768951254 -1 -1 0
64 1 6.0754058613569635 6.526244095545611 7.928233055388183 1 2 0
345 2 15.894100119464143 6.411705420922052 6.942636691215734 0 2 0
684 2 0.862622299144776 8.754553340813052 1.1149597918268657 0 2 -1
12 2 17.33040372989823 1.1672575530543563 6.627638035826467 -1 1 0
305 2 2.5349525663728256 0.6472382048241402 8.332511638390356 -1 -1 0
10 1 17.91246333515354 1.5959142120917262 5.963784627629277 -1 1 0
934 1 19.802440883506094 7.4810778193908325 8.952046559841394 0 0 -1
438 2 6.6473765582310005 3.6156969314271223 7.646547890919312 0 0 1
676 1 3.788467584114929 10.273776204264617 0.6788543382355718 1 -1 2
732 2 14.254722839972354 2.1259008963430985 0.831295206873724 2 1 0
258 2 13.80096722542954 4.231877818886799 1.5444514924326356 -1 2 -1
384 2 5.482432271226762 6.80493117319237 1.319021530358455 0 -1 1
789 2 10.0382514404466 1.3644823111429079 2.1361267662134367 0 0 -2
889 1 0.5181240426482852 8.882808092297745 7.164849364145245 0 -1 1
639 2 11.180204012401296 3.187261805666763 4.180515079708704 -2 -2 0
935 2 20.202941756508707 8.11923122147441 8.372989908254512 0 0 -1
817 1 9.795526183225844 8.843184829642276 2.5485305378011036 -2 1 0
974 2 18.565005649450626 4.726051361308728 5.63125801260057 -1 -2 1
133 1 13.349909556626448 8.362404393461064 7.7923847233180705 -2 -2 0
941 2 20.620391267692803 2.6835103836087106 7.5209957856643825 0 1 1
625 1 9.63679786220937 7.317462861316057 9.536240899901383 2 1 0
268 1 19.491765231327307 0.5530276554749902 4.122849459537042 -1 0 -3
727 1 8.8465237727581 0.16330449268427155 7.99179120559172 0 -1 2
309 2 3.1952611318244952 7.043468562680234 3.635451838919341 0 1 1
24 2 8.759097412195743 5.639106224671562 2.563946779823543 1 0 -1
66 2 5.341322355759336 6.050996820906297 8.38623869204195 1 2 0
607 1 5.295095723919974 3.361581510545803 1.6524431921313951 1 -2 2
329 2 14.755599932899766 3.3340227870943235 9.39259452563062 2 0 -1
682 1 1.7495147032388054 8.661500037912948 1.4776493193303282 0 2 -1
540 2 0.6161169849709571 3.4356607685599054 3.250474832373746 4 0 1
701 2 12.24755530245274 2.997778356060874 8.333847128075197 -2 1 0
518 2 13.659739104790846 2.53209389657845 6.749851083944763 -1 0 -1
339 2 10.585862419912695 2.3031546561901357 5.871167433577309 -2 0 0
788 2 11.377337544378957 1.9412077489489934 2.4071992261001873 0 0 -2
704 2 6.590896126407487 9.39705708156186 7.6888921139538615 1 0 -1
392 2 10.997640517964296 7.642946028987745 3.408839972387277 2 0 0
391 1 11.522482941507953 7.820568858982144 4.176165072950048 2 0 0
627 2 10.032517354396388 6.909970802822775 8.761214736632105 2 1 0
269 2 20.13917185558791 1.2933366360448257 4.010484364908719 -1 0 -3
608 2 4.896629101006441 3.1357245775315095 2.5389801387312683 1 -2 2
834 2 10.648093477222206 4.401269360202155 2.2991310208560947 0 0 1
664 1 17.789554991877758 9.533372151662817 5.404231302570466 0 -1 0
744 2 5.772659896875422 1.2407283285500856 7.398453584141834 0 0 -2
349 1 19.124031301661155 6.4414240481414 0.8925315911871827 1 0 -1
44 2 5.122586139647264 4.924293202740702 5.358646938217742 1 -1 0
609 2 5.396501966486615 4.320318289422013 1.6188485665662617 1 -2 2
772 1 14.092338616162305 3.803137895682683 5.751775830813773 0 1 -1
654 2 8.284268758650258 4.158339054142821 8.679298816962735 1 0 0
196 1 4.913043524817371 9.28156414062785 4.627421469204959 -2 0 1
807 2 6.603135534800542 0.22860342110290383 5.126330702412223 -1 0 1
306 2 2.3190913631320798 1.93954659930148 7.5355469829917805 -1 -1 0
991 1 15.801180958583032 8.181215235506073 7.041191169722396 0 2 0
184 1 18.242229985289427 5.449073925735314 3.9791104098349965 2 0 1
832 1 10.08469012260317 5.003775631722531 1.723033237770896 0 0 1
1001 2 14.593174206768964 8.33156102288891 3.9822878885728157 0 0 1
852 2 14.5149336554656 5.866811920177984 3.3364456824812425 0 1 1
965 2 3.7160318629072546 2.9634117788593612 0.5327847737141942 2 1 3
495 2 20.16925970081526 6.050585357989639 8.145007518663832 0 2 1
765 2 15.444105419648869 1.4469214391780312 8.617135003904343 3 0 1
954 2 7.00344166523577 3.4958019776497524 0.7538221696036775 0 2 1
821 2 1.5194794933953881 5.603923769707709 10.11989313115385 0 -2 0
338 2 10.788780404036665 3.556998020119678 6.601508754535181 -2 0 0
445 1 12.520752509103849 6.280723063771059 6.129096463341373 2 -1 2
498 2 1.6075407350583788 1.3691288569806157 0.346738572215204 0 0 -1
75 2 1.2933242428842808 4.189557597144863 6.241413967323781 4 -1 0
936 2 20.47679353933941 7.40543731474775 9.676206782185863 0 0 -1
323 2 5.394596604103712 0.794056596311627 0.48580744019613054 0 -1 -2
257 2 14.588168735076481 4.075847069696808 0.2610141287654055 -1 2 -1
464 2 16.792350810358904 4.234844417431432 0.5985331685472498 1 1 -1
992 2 16.396045654554484 8.297939961523191 7.8294095834746695 0 2 0
74 2 1.0892790305254492 2.8800328430750235 5.389617259548189 4 -1 0
357 2 4.9440386444370095 4.728555719342593 10.059568438645156 -2 2 -1
956 2 20.61774316642731 9.229822114185541 3.784820048733763 -1 -1 1
218 2 13.141816397363241 8.961347219279055 9.809619125724147 -2 3 -1
556 1 8.120762027022591 3.3782144245744106 10.045354682475455 1 0 2
437 2 5.245684005964746 3.5936098509026175 8.17977313916776 0 0 1
45 2 5.796253437533423 5.985983004994378 6.193056334030749 1 -1 0
343 1 15.856869732457726 5.40210702553371 6.9099443340747335 0 2 0
538 1 0.7783480133896048 2.6030812690470597 3.76218624236847 4 0 1
374 2 14.88490538201028 1.8982706519068615 2.78758792034524 1 4 2
169 1 8.061488450641768 9.324722602560039 0.4993062357760685 2 2 0
33 2 11.111278140712388 2.3085940292380083 0.4245758406502576 0 2 0
613 1 8.433098332110745 1.5299668060694596 2.9694134940579198 2 0 1
922 1 0.32381830846753024 4.562654208698232 1.5521347623440112 1 2 3
29 2 11.050058474712982 6.330778497119931 6.922233116890722 -1 0 1
11 2 17.776108075367688 2.559866466746108 5.995675910869925 -1 1 0
857 2 4.009181217740855 9.940698366866608 7.649882681037528 0 0 -1
275 2 17.726160685488743 7.17080776614928 1.3150268688928894 0 -2 -2
703 1 5.702223823051948 9.196541431244125 7.321029551838666 1 0 -1
322 1 5.581705965673962 0.47607490040954104 1.4321269712962608 0 -1 -2
589 1 9.846297409538199 1.2874199610344972 10.193468429558823 2 0 -1
615 2 8.020701564343618 0.7486436220547555 3.428439175103211 2 0 1
328 1 14.930367257851893 4.370566233351851 9.420257995477627 2 0 -1
493 1 20.594458505613012 5.217044779840995 7.825250615553965 0 2 1
297 2 13.113207976447809 6.970613554439162 8.933507435297852 0 1 0
868 1 15.867894191831612 7.002148290185205 3.770692959106626 -4 1 0
729 2 9.182943388072083 0.6456959948684324 8.764293636760154 0 -1 2
769 1 19.869813513575657 9.213719916209191 0.4073158316787019 2 0 0
307 1 3.249647987473096 7.21558117109182 4.626772688102252 0 1 1
652 1 8.147903355192279 4.583051592982584 7.754975363556511 1 0 0
886 1 3.628094418353739 1.7614952933486503 3.587877336755123 -1 -1 -1
833 2 9.48619199649702 4.466736518132375 1.197541215629516 0 0 1
296 2 13.745628969038325 5.619603643802449 9.390286090498936 0 1 0
239 2 8.45206909441926 9.682227448045694 9.075883511306545 -1 -1 2
198 2 5.3129527405485515 9.187612560161787 5.512387851993857 -2 0 1
960 2 17.130670665645063 9.535591823659946 1.8500864499829288 2 1 1
763 1 14.80015720700008 1.7876192176198962 9.26861592828151 3 0 1
185 2 18.748314458380648 6.179305400217079 3.574855316166938 2 0 1
43 1 5.221048624981877 5.87459975117148 5.461145478128044 1 -1 0
955 1 0.6996062636985362 9.909568454326584 3.6784092276760814 0 -1 1
496 1 0.9576175824651183 0.6454462857028246 0.5727778517132761 0 0 -2
771 2 19.159179580528452 9.665840130234388 0.9614105475521744 2 0 0
488 2 3.2820347865314394 5.934310778834348 1.5997739282911305 2 -2 0
23 2 7.478526511157729 6.388472877853208 2.992013183478467 1 1 -1
256 1 13.70925137553579 3.96445931904246 0.6013089915343629 -1 2 -1
1000 1 13.840626978484057 8.964467195604293 3.94090813547373 0 0 1
494 2 0.6847766998082777 4.838337375256809 8.469101320787038 1 2 1
135 2 12.961430388617067 8.018993786392947 6.942772623831355 -3 -2 0
73 1 1.2472867259451086 3.173514048773243 6.317492207061753 4 -1 0
337 1 10.243237813473081 3.2304417788147095 5.906896861167146 -2 0 0
638 2 12.389145791758999 3.8720777376664133 3.515248392912524 -1 -2 0
194 2 14.3452543626943 10.212467130881326 2.46092051283163 1 1 0
324 2 5.652998117399043 1.2955384971746229 1.8620388892279944 0 -1 -2
730 1 14.561646422075789 1.2548873163787897 1.2879200882736235 2 1 0
533 2 16.828045932566333 2.798180645399953 2.2999961375952624 -4 1 4
240 2 8.580860999397508 8.47109396406944 8.200439320344662 -1 -1 2
844 1 11.138332136736132 0.6556797803272919 5.907994841761733 0 1 2
845 2 11.926689788823975 1.041455623730477 6.31524263073712 0 1 2
308 2 4.104028871349316 6.896210695486581 4.964073951786247 0 1 1
386 2 8.547071327882293 8.424555862815371 5.525567234268739 1 3 0
924 2 1.1486075841938268 5.1026751510424475 1.7925697802807363 1 2 3
887 2 3.709418720737007 0.7716286760138206 3.6820517940985886 -1 -1 -1
134 2 14.316220388474107 8.542309745588048 7.5376499889078605 -2 -2 0
599 2 18.154908104283855 8.293071776740698 9.094719297103845 -2 -1 -2
705 2 5.71032822228398 8.287868551123134 7.467578952680641 1 0 -1
869 2 16.495787489189105 6.481035495955896 4.328393655250716 -4 1 0
532 1 17.554564888181574 3.4697860022029143 2.1109273790769456 -4 1 4
344 2 16.73109661595398 5.095462336055377 6.596553025303301 1 2 0
846 2 11.47224359026521 0.09046461800284036 5.114936344789452 0 1 2
850 1 13.721695085289825 5.380793007621836 2.9782266810209985 0 1 1
820 1 1.8286358057954584 4.8135183064886835 9.639490904400338 0 -2 0
1002 2 13.152477764921267 8.355463061389381 3.732833533374841 0 0 1
818 2 10.509274892590254 9.335868236888889 2.2216665550202146 -2 1 0
355 1 4.526285573584945 4.678138593030077 9.149786599837174 -2 2 -1
626 2 9.065285315490357 6.574411422548659 9.876886320546829 2 1 0
234 2 13.50062769694851 10.258212072711592 4.9317382890026735 -1 0 -1
510 2 3.126077337234853 1.9138234547972235 9.847673897117685 3 2 3
350 2 19.753472576011433 7.2467964287802555 0.7810669384336454 1 0 -1
165 2 11.753309401837114 8.008267112970781 1.3018659680729634 -1 0 1
581 2 9.770704289820861 9.81701059202911 6.81852014280975 -1 0 0
649 1 16.279152705561273 0.12980094872669573 7.68044294521387 1 2 1
351 2 19.311347581994482 5.875608079328427 0.07376968712484691 1 0 0
952 1 7.914643202260121 3.375109563619277 0.37358696739751107 0 2 1
497 2 1.358476201147815 0.18371519168894843 1.3360919045080129 0 0 -2
383 2 4.591584027988383 6.685202052515603 0.13624311998852834 0 -1 1
590 2 10.823875978431671 1.2659896719738926 10.326399834330681 2 0 -1
126 2 12.116434492231628 3.8409991493650706 10.287346496276859 1 0 -1
491 2 17.051041876381625 3.7374434107736025 17.366484518025587 0 0 -1
380 2 18.86475325173312 9.794445169900442 17.901941451266616 1 -1 0
879 2 9.039425592526744 6.2299508054576425 14.035316015496852 2 2 1
264 2 0.33558671736064216 7.816622881324983 17.765471942248464 -2 1 -2
400 1 0.9561022981735214 3.29653963862301 11.819475394953352 0 3 -3
530 2 4.63918101851881 5.343556681011359 17.214205866226585 1 1 2
429 2 9.808207087718602 9.076573595704108 13.32151759686259 1 0 0
180 2 18.0398829339738 1.9574058445926785 18.53523084654387 1 2 1
878 2 10.487243955568596 6.7025367841827475 13.43391694351668 2 2 1
563 2 6.455876252108393 5.55732511273223 14.575539589474047 -1 2 -1
428 2 9.672284826342738 8.982126985288144 14.820383191043971 1 0 0
18 2 14.449308416605758 0.13607531768518472 14.748141882772023 -1 1 -1
601 1 19.21679443301629 1.474658979658692 14.353413233254198 3 -2 1
541 1 19.17261367200893 9.883212700453463 12.230025789053103 -3 -1 0
597 2 4.065695499553236 1.693189884555188 19.37894343407634 0 -1 -1
985 1 12.444544649737011 0.8716287049521523 11.318615763261644 0 1 -1
877 1 9.526139578234805 6.909379923771077 13.491703422169444 2 2 1
298 1 18.5595817038485 0.3758258070346744 12.015390814159412 2 -2 -1
90 2 1.9073151324391089 0.5688030498940256 17.895727064745923 0 1 -3
871 1 17.023390280504636 7.686988622300358 14.860782413639836 -1 1 1
282 2 14.509830026943359 3.5482007384685246 16.449936692811782 0 2 0
151 1 19.28074764134628 2.5727395003476494 10.666140746137533 2 1 1
80 2 3.858406288364908 2.9189436667181576 14.44723801192228 -3 -1 -1
899 2 1.3225881621031357 4.944488791640445 14.598540447069677 0 1 1
291 2 14.336065847741443 9.64379922045273 13.986288576173266 2 1 2
138 2 10.828583968042697 3.122812973829234 18.66126670966176 1 -1 1
217 1 13.38632797329772 9.313033365735079 10.688032189307583 -2 3 -1
281 2 12.939217326943819 3.8659794519116435 16.470178560777256 0 2 0
628 1 4.4152535369144035 1.814302269351314 15.736378486481547 -1 4 0
222 2 10.953381809281796 3.864661357944494 16.48863507990803 -2 3 0
547 1 8.101761393576039 7.0086016035065954 17.33036131689555 -2 2 -2
687 2 14.464714146182157 10.10683253795523 20.5806819747381 -3 -1 -2
544 1 7.4183073109853535 5.563940135948664 19.530244908272643 -1 -1 -1
54 2 4.8188430281473105 4.439328075037658 12.242471526084232 2 1 2
545 2 6.733977120309554 5.842907938613965 20.126435860184067 -1 -1 -1
79 1 3.9106728877726367 3.5802254076602784 13.72101978986835 -3 -1 -1
332 2 13.159105523617844 0.6755255903470563 17.442891461289037 -2 0 -2
70 1 6.50854846775729 8.622110578401314 13.936321145474944 1 -3 0
595 1 4.777272671165399 1.0327628774089568 19.36239764800976 0 -1 -1
914 2 7.755513004488215 0.623802103313166 18.988986186790697 0 2 0
915 2 8.457651540632808 0.3606429225209102 20.408085093926722 0 2 0
285 2 12.555760808805642 6.283258350313417 11.225458912038873 -2 1 -2
58 1 7.999549409277605 2.449674229216004 16.366906814436504 1 1 -1
691 1 7.070157564419466 2.928070631829189 13.072106891500411 0 -1 -1
300 2 18.647653845085415 0.7587832812084445 12.931780181663195 2 -2 -1
542 2 19.515694689088313 10.175271188978362 11.382061111806307 -3 -1 0
996 2 19.877483782951153 2.284744135542772 17.679264962942465 -2 0 -3
455 2 0.8654051422756553 4.7171106043680675 19.65169581981397 1 1 2
84 2 2.491032122925979 8.24514488725877 18.903388632977588 0 -1 0
907 1 15.744778810751328 7.996453670720355 11.4039820085438 -2 -1 2
709 1 10.605725005020727 8.911474807212398 11.449130068739716 0 0 0
53 2 6.251428542926999 4.899647510499512 11.81889669256394 2 1 2
292 1 16.35488918092284 8.25504256461294 17.678472266534023 2 -4 3
909 2 15.93250577909964 8.497257192771997 12.24864303495753 -2 -1 2
88 1 2.2413049082920553 1.207102418573457 17.183791771327396 0 1 -3
171 2 8.73876522633006 8.872576718028354 20.57351281685572 2 2 -1
632 2 9.671748176887974 7.872850895907145 16.984166615270617 0 1 1
953 2 7.98542634115483 2.5081812919091253 20.552268980302145 0 2 0
490 1 17.480107337045304 3.67847030764957 18.217105210366526 0 0 -1
762 2 18.817692927212278 4.565925942243362 18.820840063391543 0 -1 -1
515 2 10.893416304330458 8.456005805486832 19.590864704861474 -1 2 1
641 2 13.668591847723734 7.290841619035419 13.156348682803262 2 2 -2
143 2 19.221786413425917 5.799341163541671 14.854793795156297 -1 -1 -2
482 2 4.131213540254628 7.166513952580491 18.518527449547147 2 -1 -2
925 1 15.411534859752448 7.043839883695167 19.856758661547193 -3 3 -1
706 1 2.467016889880558 9.521739423087038 15.78369142721862 0 0 0
531 2 4.534816291028552 6.613149391279667 16.523898907985014 0 1 2
862 1 18.336270223045624 4.965480201368078 12.052237290110451 0 0 1
492 2 16.819408999071662 3.835002994078134 18.964636332289984 0 0 -1
370 1 10.904300347899524 5.427091275009911 19.4276416876127 -1 -1 1
693 2 6.621796737785175 2.3796391559311694 12.437477073029559 0 -1 -1
775 1 15.839724341213275 5.54151692245849 11.645327366416513 -2 -1 1
5 2 2.1568737187478004 7.635641151537958 10.796782293057198 -1 -1 0
167 2 15.409260170772075 0.798040328867219 12.498531106488864 -1 -1 -2
642 2 14.85047343042362 7.118246659453091 13.96506168470209 2 2 -2
463 1 16.21328362546604 4.41320969395588 20.350008662515908 1 1 -2
120 2 8.866039306862369 5.882457870006153 11.965545319683939 -2 0 -1
722 2 16.020882995350398 2.379388310065944 15.479044700237804 -1 1 -1
471 2 19.533119521415443 8.335641947820072 12.239632962024196 -3 0 -3
49 1 5.8870063072262795 8.185313633911178 16.62141183027071 -3 0 -1
179 2 19.051452287248893 1.7230497297321503 19.554532677885888 1 2 1
516 2 10.225439380305085 6.961091333134623 19.862036758557032 -1 2 1
465 2 16.233047929605284 5.407935868752648 20.22039198553925 1 1 -2
6 2 0.7874293409532838 7.3667532712341535 11.475945040466389 -1 -1 0
141 2 6.503472800740566 6.98744257511277 11.11511719395583 1 -1 0
583 1 17.185416487056415 0.6076530752588789 16.103604948739225 1 1 2
656 2 13.093687976230939 7.101792006810474 15.27397988264176 3 0 1
203 2 3.185536072948245 8.257216624970628 12.444244047455467 1 0 -2
631 1 10.224849256313442 8.490537222577979 16.445061007627544 0 1 1
872 2 16.81794157283955 8.478163801076247 14.298839477646547 -1 1 1
841 1 7.862331516488753 9.763403876759787 10.721058405731515 -1 0 -2
585 2 16.59419748034481 0.28744526870591175 16.829367385621506 1 1 2
262 1 20.153231723663815 7.22914098900287 17.44506245318759 -3 1 -2
259 1 5.936739585649599 1.7731133832567094 10.456481780703976 0 0 -2
546 2 7.6714653171119265 4.64380226188479 19.717405746467445 -1 -1 -1
966 2 2.623814934063551 3.4221273999272013 20.135578804425947 2 1 2
415 1 14.584924660477272 4.339175675215218 13.482652194452378 2 1 -1
592 1 13.298010655806186 6.229532025125793 18.305065310318206 -1 2 1
417 2 14.0414916376458 3.64603563823641 13.07955338471449 2 1 -1
97 1 11.797216680630296 9.658357139507967 18.646674972401645 2 -3 -1
142 1 19.430740499070772 6.760685629940745 14.822394909301178 -1 -1 -2
776 2 15.657372528189017 5.138863094156821 10.784524021992718 -2 -1 1
548 2 7.915675230821813 6.658989067731554 18.22067554294997 -2 2 -2
469 1 19.812303543962628 7.401304900477989 12.260527728588844 -2 0 -3
59 2 7.544119538626312 1.7049062051353705 16.81676897368272 1 1 -1
816 2 0.9945240592547244 10.32852665280527 14.821752942570605 0 -1 -1
711 2 10.27000467261717 8.215519660636016 10.896844004969001 0 0 0
331 1 13.144369819909034 1.3031689045824422 18.20286413587378 -2 0 -2
692 2 6.449750571226879 2.9999841910977842 13.825763313069258 0 -1 -1
593 2 12.492592415842838 6.033748403988596 18.809296021366155 -1 2 1
603 2 18.75202197122004 1.3852443632569764 15.16895938830055 3 -2 1
347 2 11.92698456469297 1.8494080750807078 13.569493353799002 -2 2 0
761 2 19.640730384020614 5.839127690873214 18.71788291524925 0 -1 -1
898 1 1.6644732951794419 5.220779998430609 13.74558379759953 0 1 1
454 1 1.686180141137865 4.290178096968651 19.28153097510339 1 1 2
926 2 14.589422349236488 6.583664089286789 19.68688106145126 -3 3 -1
908 2 16.37864868049995 8.407190998249607 10.76048931739602 -2 -1 2
511 1 5.233480783528798 3.838900822971212 17.570010953864255 2 3 0
971 2 10.496809815768135 3.507642838568544 13.818970969516426 2 -1 -1
283 1 12.359220697096092 6.450052536034155 12.194660441202386 -2 1 -2
50 2 5.930162673466059 8.98712331537107 17.141113166603198 -3 0 -1
481 1 4.171963957215496 7.697706954883631 19.292556636198107 2 -1 -2
346 1 12.62879827047719 2.4466273809704675 13.954754830817855 -2 2 0
427 1 9.53974506062144 9.563237475710576 14.080507392547668 1 0 0
243 2 2.555470541686966 5.602713751571261 16.664957045033667 1 0 1
760 1 19.51756387364499 5.036658685546521 19.292881915726458 0 -1 -1
913 1 8.468447183255808 0.9863255613759265 19.634837598859015 0 2 0
905 2 4.157220691448726 7.134459239106974 13.979854926980284 0 0 -2
714 2 1.4345240544218658 0.5505374666998598 15.69947549917997 0 0 2
675 2 17.81154796357697 3.851021183303515 14.987944209241105 0 1 1
299 2 18.86375352666807 1.1403164843055815 11.476630318311491 2 -2 -1
220 1 11.444932124938706 4.222830335057336 15.706070795405257 -2 3 0
89 2 1.566833581749004 1.910096223359041 17.291159454883417 0 1 -3
564 2 4.967597933554317 5.179567224132149 14.475502227690937 -1 2 -1
294 2 17.158300915812532 8.637578445290226 18.07615404593504 2 -4 3
284 2 12.585140318532094 5.57447022470388 12.585552514875788 -2 1 -2
508 1 3.348857571639278 1.8968625699064354 10.805275975199676 3 2 3
272 2 11.360338708911499 0.8466584541872848 18.53372173632416 0 0 -1
529 1 3.9961435089388373 6.111333618167438 17.09758645073027 0 1 2
900 2 1.1742284416048556 4.750363710799365 13.061933838422036 0 1 1
52 1 5.329900472841672 5.055060426597964 11.650445068065437 2 1 2
17 2 13.874915037153325 1.476115891050916 14.111301835199345 -1 1 -1
293 2 15.935672557045883 9.018168574544996 17.240514316899134 2 -4 3
221 2 11.670649513865216 5.220200541706277 15.80651233238491 -2 3 0
843 2 8.483712035333763 9.20447855888842 11.175530176802251 -1 0 -2
271 1 10.622014600709097 0.24298456151603873 18.480864267813608 0 0 -1
137 2 9.452486782082005 2.9963607579919382 17.847304039582788 1 -1 1
594 2 13.552697864547559 5.310154284141729 17.96461676226674 -1 2 1
655 1 12.290139500484347 7.005151683448524 15.851989972391706 3 0 1
144 2 18.45837212444374 7.050656186382641 14.744994571595338 -1 -1 -2
261 2 5.708715443948617 0.8299564522254833 10.453156326282347 0 0 -2
629 2 3.7427019078966723 1.3383406225258068 16.251936093099044 -1 4 0
873 2 16.841148650549336 8.036408470524325 15.779263542190197 -1 1 1
723 2 15.63608611970931 3.7571488666353643 14.707438109462814 -1 1 -1
166 1 15.784549422877248 0.611820979466039 11.60003605908209 -1 -1 -2
83 2 1.7256774526467673 9.465427000644727 18.650927283548445 0 -1 0
139 1 5.950440032098621 7.643367065261434 10.674980794810104 1 -1 0
483 2 4.724352535173751 8.47230707283189 19.14816597605077 2 -1 -2
710 2 11.599805725129068 8.759671926049327 11.493922724879273 0 0 0
51 2 6.018247233599767 8.392852562270855 15.674036094588223 -3 0 -1
512 2 6.215175627441852 3.8730699148594225 17.812369771485486 3 3 0
105 2 5.239262469402211 10.106329698657445 12.835337520781994 0 -1 -2
204 2 4.226831395374483 8.020550381554248 11.263305477443874 1 0 -2
674 2 18.393769197863122 4.445603314147331 13.612164190638602 0 1 1
1003 1 6.883065622660742 0.5684635839942975 17.723602451031002 2 0 1
403 1 16.823526961133865 9.780436483294082 13.191318205382748 -4 0 0
260 2 5.055191252020954 2.2419727204352635 10.560120084454933 0 0 -2
81 2 3.0526624187922855 4.042300858012496 13.60031767404566 -3 -1 -1
995 2 0.16297029703052604 3.5822121326630683 17.55130378175605 -1 0 -3
721 1 15.984505597011422 3.320985219504836 15.523448925729 -1 1 -1
964 1 2.996573937119921 2.6320918544826024 20.555048650595772 2 1 2
994 1 20.590287640290647 2.6769550859065276 17.140596143149715 -2 0 -3
416 2 15.029406250221168 4.796437291011915 12.742929890444294 2 1 -1
633 2 10.97155557923953 7.936173729256566 16.151108083118814 0 1 1
640 1 14.098886335837085 7.665920306274982 13.911235911769863 2 2 -2
136 1 10.335322430247457 3.3829743739633042 17.87043671832385 1 -1 1
168 2 16.737242275913083 0.6874308496333041 11.730433923643936 -1 -1 -2
470 2 19.73151863421284 7.115862976481139 13.244825611489098 -2 0 -3
125 2 11.352770643697394 3.765940727626938 11.7808799284265 1 0 -1
16 1 14.667092986064535 0.8626935112063244 14.049969573610397 -1 1 -1
98 2 12.782586249119362 9.743007956954385 18.766030078408324 2 -3 -1
864 2 18.855690148633734 5.755039572633381 11.885458003247457 0 0 1
280 1 13.741389781875027 3.7287528444386413 17.07488230420814 0 2 0
82 1 1.7586943832330202 8.531030059550337 18.361960632404482 0 -1 0
513 2 5.121556457933411 3.0402328027193106 17.056180731326023 2 3 0
707 2 2.876567107622205 8.785845092291932 15.267158238810163 0 0 -1
371 2 10.798987472862766 4.780786335602776 20.12447894772632 -1 -1 1
178 1 18.725963047461725 1.2831515252594505 18.748747600854298 1 2 1
219 2 14.21513416665069 8.907668080928314 10.958066924887891 -2 3 -1
72 2 7.14023240302337 7.885054104485769 13.883884589057432 1 -3 0
673 1 18.57061468853015 4.217475209217957 14.549138718794824 0 1 1