LAMMPS data file via write_data, version 15 Apr 2020, timestep = 0

1944 atoms
2 atom types

-1.7466208575100950e-01 4.0156767085749991e+01 xlo xhi
0.0000000000000000e+00 1.9749019328782023e+01 ylo yhi
0.0000000000000000e+00 2.0412311522686718e+01 zlo zhi
-2.6895394690996000e-02 -2.5463869522177163e-02 1.0431598469416770e-02 xy xz yz

Masses

1 16
2 2

Atoms # atomic

303 2 1.8773555145384595e+01 7.2545653340765339e+00 5.6191429428663495e+00 0 0 -1
51 2 3.4615154719464902e+00 5.9173180072621614e+00 1.3234938379980712e+00 0 0 0
704 2 9.6827988954069344e+00 4.2329937639442958e+00 7.5196963868990236e+00 0 1 -1
1150 1 4.1116412459388152e-01 7.8937919364809481e+00 8.2233247206534408e+00 0 0 0
44 2 9.0563393483851300e+00 8.8148908428880439e+00 9.4500517853706469e+00 0 0 0
1735 1 3.9128686180089811e-01 1.5658941224312950e+00 9.0240443405313790e+00 0 1 0
446 2 1.0242915643844988e+01 1.6891737293818512e+01 6.1246664708223886e+00 0 0 -1
483 2 1.7521714703163454e+01 9.2587351004148939e+00 7.9295373595556837e+00 0 0 0
46 1 -2.2262259049240840e-02 5.0380789219480677e+00 7.3801714239770542e+00 0 -1 0
247 1 2.1280321683642796e+00 1.2398028105279003e+01 9.1583458385840117e+00 0 0 -1
1166 2 7.9851943708507402e+00 1.1897245461264784e+01 7.1033807412293699e+00 0 1 0
10 1 5.8459618821302017e-01 1.7778966371787146e+01 3.4039874101322560e+00 0 -1 0
514 1 1.8298493144462931e+01 8.9623036888920335e+00 1.3934261594857951e+00 0 1 0
1163 2 1.5486886980016250e+01 1.7547656178833044e+01 6.4896785335387239e+00 0 0 1
890 2 3.1798338162829141e+00 8.2905081587699918e+00 2.1871680267955553e+00 0 0 0
1617 2 9.6242090613986058e+00 6.1346288373978961e+00 6.9079970187001933e+00 0 1 0
1135 1 3.7117361456281501e+00 1.1155026594679848e+01 6.6610099062352441e+00 0 1 0
970 1 1.7814623565822643e+01 4.8655922825095157e+00 8.3283650784922003e-01 0 0 0
1529 2 4.6022197173183246e+00 8.2100477353577297e+00 9.1855598512596757e+00 0 0 0
129 2 1.9373392859654334e+01 5.1328359490541189e+00 1.0922390770246613e+00 0 0 0
1103 2 1.4082067309502677e-01 4.2276849016090541e+00 2.6169216242724862e+00 0 1 1
1804 1 6.1191135205483755e+00 1.4569863134924184e+01 5.5138610770563350e+00 0 0 1
655 1 1.6283416751487561e+01 1.9036164305207365e+01 2.2432962421871161e+00 0 0 0
1615 1 8.8429431330993715e+00 5.5562575945196562e+00 6.7933523300947538e+00 0 1 0
1737 2 1.6376179820266556e-01 6.8630718762850129e-01 9.3417736178468651e+00 0 1 0
1561 1 4.2865216873779115e+00 2.8677111031455036e+00 7.7011548081863754e+00 0 1 0
1602 2 1.9013829162318149e+01 1.3860825006090160e+01 2.8305280873198817e+00 0 1 1
1158 2 1.4918948065666930e+01 4.0765769503682892e+00 8.1525325510935200e+00 0 0 0
713 2 4.1019504262571873e+00 6.2969246505606664e+00 6.7766743160871190e+00 0 0 1
656 2 1.7244498861867804e+01 1.9173631508160717e+01 2.5174148320195706e+00 0 0 0
536 2 1.5495951329140260e+01 1.9619769803380447e+00 9.2713088999608662e+00 0 1 0
1753 1 2.0398823740490077e+00 3.5400684767285324e+00 6.0280543453393776e+00 0 1 0
292 1 1.6684053886147225e+01 6.1185070460606070e+00 2.9326977504566525e+00 0 -1 -1
319 1 5.4093070847110267e+00 1.6951919736990284e+01 7.6616898056703988e+00 0 -1 1
101 2 1.8561781867976379e+01 3.2886557081059249e+00 3.9033178430454849e+00 0 0 0
228 2 4.6382526478055697e-01 1.1491059135792346e+01 5.7477380940150335e-01 0 0 0
218 2 1.3950022779779951e+01 8.2852554582540900e+00 9.3974807460787702e+00 0 0 0
68 2 8.7888469675966920e+00 8.5835021182326994e+00 1.9669768553057443e+00 0 -1 1
231 2 1.3539562997162489e+00 7.3614604540486397e+00 4.5199282142401662e+00 0 0 0
497 2 1.2374504055485010e+01 3.4543338570131460e-01 1.6655024832474477e+00 0 0 0
1549 1 1.7989199752589769e+01 1.2499699585450730e+00 9.5435220677014598e+00 0 1 0
1316 2 3.3520373376478534e+00 1.5135494203031616e+01 6.7316387236474267e+00 0 -1 0
262 1 1.1546832048792206e+01 1.2914963112572999e+00 6.3186391259536778e+00 0 1 0
896 2 1.5829284933813014e+01 1.7339872648861949e+01 8.6755950255777474e+00 0 -1 0
475 1 5.7133417175168271e+00 7.8142772560284923e-01 3.9622536766737020e+00 0 1 1
1758 2 3.3743791113700086e+00 3.7986973898784421e-01 9.4741244020764483e+00 0 1 0
11 2 1.1103425804675791e+00 1.8306492333073674e+01 3.9695432527035934e+00 0 -1 0
679 1 1.2696546925821780e+01 6.8563969786663330e+00 5.3991187272724126e+00 0 0 0
1806 2 5.9535789062290920e+00 1.5164414035038437e+01 6.2437608758517911e+00 0 0 1
1164 2 1.5810662823088466e+01 1.8764252293769133e+01 5.4972465215229969e+00 0 0 1
919 1 4.0979866612820954e+00 1.3668247790425205e+01 7.7358451244398774e+00 0 0 0
650 2 6.0460153571373434e+00 1.0711580963698319e+01 2.8870781628446927e+00 0 -1 0
1505 2 3.7537526225422813e-01 1.8351065966072113e+01 1.9068900329346286e+00 1 -1 1
1521 2 1.6293062784293287e+01 7.8055829222469573e+00 9.7348569546847177e+00 0 0 1
695 2 1.4722237480265385e+01 7.8280716565612751e+00 8.7562182501425090e-01 0 -1 0
1183 1 8.6478026717371552e+00 1.3723653196323298e+00 6.1539697319466207e+00 0 0 0
476 2 4.7873513982085534e+00 3.7959484313731162e-01 3.9068110500405542e+00 0 1 1
32 2 7.4527725998531602e-01 1.4319918528003120e+01 2.0269064514416502e+00 1 -1 0
481 1 1.8046671609122789e+01 1.0086471220592312e+01 8.1406434536515562e+00 0 0 0
535 1 1.4752884871640994e+01 2.2962765259982660e+00 9.7749472434389499e+00 0 1 0
1093 1 7.8291471570293893e+00 8.0064914831549618e+00 8.5366224916030671e+00 0 2 0
320 2 4.4560916237505115e+00 1.7109133375430712e+01 7.5030879269446249e+00 0 -1 1
1769 2 5.6601251350031836e+00 3.9462262348600237e+00 3.0764280206831849e+00 0 1 1
1374 2 1.5401585422391758e+01 5.1249849484851557e+00 1.0023735767837943e+01 0 0 0
1326 2 1.4791452365047562e+01 1.5700588785843152e+01 7.9440317019392248e+00 0 -1 0
701 2 1.6763505778504829e+01 1.2369086558450819e+01 2.9428269761987580e+00 0 0 -1
691 1 1.0234846933191985e+01 1.4658795828312490e+01 7.7167276168774290e-01 0 0 1
927 2 1.6443800903223416e+01 1.1472605943883924e+01 4.8028361268155811e-01 0 0 1
1341 2 1.8567273274650713e+01 9.5817153979120517e-01 2.8443040231087204e+00 0 1 1
454 1 3.8540496241091802e+00 1.9410490577219964e+01 9.3318598688155152e-01 0 0 0
728 2 1.7148806137188767e+01 1.8250958778126902e+00 7.1480439361242363e+00 0 0 0
913 1 1.7790915429771808e+01 2.5196865358527871e+00 2.6577144198961800e+00 0 1 0
667 1 1.1042278608198020e+00 1.1285703122764554e+01 3.7182596132548489e+00 0 0 0
230 2 -2.4423903883597609e-02 7.8631249155598697e+00 4.9587827863996692e+00 0 0 0
482 2 1.8447547954532212e+01 9.9677969890209930e+00 8.9811762488561460e+00 0 0 0
1596 2 1.2794401840789382e+01 1.4229642483041458e+01 1.4946182029716815e-01 0 1 1
39 2 1.1753815925383012e+01 1.2403439261753377e+00 9.1912112455703170e+00 0 0 -1
229 1 7.7443258199531817e-01 8.1845771183324860e+00 4.5413408369321813e+00 0 0 0
1546 1 3.1638403174372329e+00 1.9469440970816898e+01 3.4967991334194095e+00 0 0 1
490 1 1.4060519663846128e+01 1.0245317496665367e+01 3.1074629108362872e+00 0 1 0
1331 2 9.4197121324358530e+00 1.7809616125865965e+01 9.8513499550110364e+00 0 -1 0
1137 2 4.5550901619942810e+00 1.0695148287425026e+01 6.4697936239743612e+00 0 1 0
88 1 1.1838347314572376e+01 5.4358617699551193e+00 9.1868615784661838e+00 0 1 0
425 2 1.2409486532639569e-01 6.3843482301956653e+00 1.6235010583636011e+00 1 0 0
1573 1 6.8009057435334945e+00 1.0743954642307781e+01 9.3342947066646680e+00 0 0 2
28 1 1.2958633547068841e+00 9.8088729620979862e+00 6.6432525933210087e+00 0 -1 0
1611 2 4.4541686215422305e-01 1.5487223111266292e+01 8.7838961736299375e+00 0 0 0
1609 1 3.5721557257723102e-01 1.6069393835216136e+01 7.9429632291661152e+00 0 0 1
1162 1 1.6204289997668251e+01 1.8039663376242672e+01 6.1179769965625797e+00 0 0 1
749 2 9.0465246288932057e+00 5.6753885765221304e+00 3.3005634216543647e+00 0 0 1
1402 1 6.4648633132709064e+00 1.1925243582451403e+01 6.0723072030634366e+00 0 -1 0
511 1 2.8735414780502797e+00 2.8434063994695693e+00 3.0695268995506932e+00 0 0 0
687 2 1.0109366434638481e+01 1.8566285944603738e+01 7.7491940020372523e+00 0 0 0
1388 2 1.7250349226913340e+01 1.4000068146661020e+01 1.4950759623740333e+00 0 0 1
12 2 -1.3048433926029981e-01 1.7461919397432812e+01 3.9821874962950483e+00 0 -1 0
1375 1 1.9582372046037584e+01 1.3050860618040559e+01 6.0559060383720400e+00 0 0 1
517 1 1.8980013117690866e+01 2.8765534190070601e+00 7.7204128602565181e+00 0 1 0
91 1 4.6636911617041976e+00 1.4962547466417755e+01 5.3513753037148082e-01 0 0 0
1618 1 1.8204458133864669e+01 1.9140622904134236e+01 7.6695035441622439e+00 0 -1 0
1729 1 1.4417995017857752e+01 5.1826957704943917e+00 1.3079027856794712e+00 0 1 0
897 2 1.6727427937152061e+01 1.6295507657066690e+01 7.8211006639313023e+00 1 -1 0
953 2 5.3462445709921615e+00 2.5361603096663456e+00 7.9387646591844674e-01 0 0 1
1319 2 5.2473742202470219e-01 1.8949446119914708e+01 7.1910925705388191e+00 0 0 0
1810 1 1.6539546331762953e+01 1.3659966157622776e+01 5.6423576902840260e+00 0 0 1
935 2 1.4343113583180997e+01 1.0961040596270356e+01 1.3264631831740203e+00 0 1 1
895 1 1.6022586121228041e+01 1.6401701116681028e+01 8.5470592446532905e+00 0 -1 0
56 2 7.1791205671570184e+00 2.1133067864440540e+00 9.6816895397934353e+00 0 1 -1
722 2 1.7181139314606977e+01 1.1834479788723129e+01 7.8036391978497717e+00 0 0 0
1180 1 1.8333479608396104e+01 1.5633726174646748e+01 7.2605196414169191e+00 0 0 0
663 2 3.4100870948599071e-01 5.4582497954882070e-01 1.3236621925467140e+00 0 0 1
742 1 1.9068801007113343e+01 1.0409758996600200e+01 5.4202697731809755e+00 0 -1 0
1401 2 5.9563210736607237e+00 5.7395952734978568e+00 7.0745527355436906e+00 0 0 0
1523 2 6.0014501830434872e+00 9.1500895129400401e+00 5.3925681489013684e+00 0 0 1
560 2 1.9817539312991283e+01 1.8927645774756684e+01 1.9501083843053788e+00 0 0 0
668 2 1.6129507183704055e+00 1.1963050116152596e+01 4.2978801983311037e+00 0 0 0
100 1 1.9289404286224997e+01 3.6075959095424350e+00 4.5299509584536839e+00 0 0 0
263 2 1.2063429754814553e+01 1.3138423695697505e+00 7.1816985861102118e+00 0 1 0
50 2 2.9536190978397694e+00 5.0280445875208679e+00 2.1730762783566840e-01 0 0 0
1560 2 1.7212503461697029e+01 5.0428524345676307e+00 6.1768630086733145e+00 0 1 1
1327 1 4.5492564535479554e+00 6.2779301519799224e+00 3.7344518310444981e+00 0 0 0
1306 1 6.6822141305410119e+00 1.7596723374604806e+00 8.0280697991226866e+00 0 0 1
726 2 1.4573443237574454e+01 7.5954071744286622e-01 4.4290800648270894e+00 0 0 0
18 2 9.0167288022519685e+00 3.6506378612149901e+00 3.9064058429951651e+00 0 0 -1
1757 2 2.1915586165889960e+00 1.3928266215098764e+00 9.4683442843538472e+00 0 1 0
940 1 1.3351510834797867e+01 1.9371786309327202e+01 4.1156993005823567e-01 0 0 1
1752 2 5.3023055707387012e+00 1.7034568086660236e+01 3.7007392079163930e+00 0 1 1
64 1 1.1809099862377877e+01 8.3925562125772544e+00 3.0143082604282991e+00 0 0 -1
725 2 1.5736227198315776e+01 1.9693741917664791e+01 3.8935492955541706e+00 0 -1 0
939 2 2.2919987015423744e+00 1.4317429179117976e+01 4.2616874274617071e+00 0 0 0
89 2 1.2570477062007253e+01 5.0699638209595870e+00 9.6830869483777722e+00 0 1 0
83 2 8.9229895513325719e+00 1.6000277235025994e+01 4.9622140575120577e+00 0 0 0
236 2 1.2749177686372850e+01 1.5960171447563949e+00 5.1612902278437804e+00 0 1 0
1119 2 7.6929282890422339e+00 8.5411253636759588e-01 1.3907690185249225e-01 0 1 0
1565 2 4.8832478462013134e+00 5.6771101053973072e-01 6.2289531648094210e+00 0 1 0
466 1 5.7735624943505632e+00 1.7504123769514024e+01 4.9719893976830321e-01 0 0 0
1576 1 1.6713228374915236e+01 4.6674347689624405e+00 9.3496801401497880e+00 0 0 1
965 2 1.5103301755481491e+01 3.6205164205706186e+00 2.0325477016932556e+00 0 1 0
473 2 1.0713605854363360e+01 1.0182906468071812e+01 9.1256708455044446e+00 0 1 0
478 1 1.2850765016994728e+01 1.6078794123290503e+01 3.6932970028916836e+00 0 0 -1
685 1 1.0420535742307383e+01 1.8418563184838938e+01 6.8249477386080306e+00 0 0 0
38 2 1.3327523242526388e+01 1.4699927506075425e+00 9.2209084564786554e+00 0 0 -1
7 1 8.6395153428892368e-02 1.2138633972254285e+01 7.5618888832920286e+00 0 -1 0
237 2 1.2683898053075835e+01 1.4054483246736258e+00 3.6031737741229537e+00 0 1 0
1095 2 6.8827587896797002e+00 7.8718137832532538e+00 8.8256832799717149e+00 0 2 0
1338 2 9.2503200805961736e+00 1.8475772624707783e+01 4.1904294341756163e+00 0 0 0
106 1 8.3932672144541876e+00 1.4717796074898295e+01 8.0899117463401211e+00 0 0 0
1371 2 4.6774818969875902e+00 1.8344290204586230e+01 9.3309899168150974e+00 0 -1 1
712 1 3.2304921917365221e+00 6.1402835840325141e+00 7.1158511948288456e+00 0 0 1
1577 2 1.7391654337798506e+01 4.6092333796924354e+00 1.0059234573492441e+01 0 0 1
1342 1 5.2595671149185321e+00 1.3774445314588043e+01 2.8577803160944755e+00 0 -1 0
920 2 4.7201800996057424e+00 1.4004296142135139e+01 8.4110331932710825e+00 0 0 0
678 2 3.8005031963905767e-01 8.2946524175922018e+00 2.8872784976482340e+00 0 0 0
1730 2 1.4212915215164545e+01 5.1875444879687027e+00 3.2570611929798948e-01 0 1 0
1787 2 7.3942767038538255e+00 1.8169617521004927e+01 5.8950480591436705e+00 0 0 1
921 2 4.5372676915616559e+00 1.3013617895660376e+01 7.2220020754952667e+00 0 0 0
519 2 1.9883669148856104e+01 2.4011117118011422e+00 7.7409171611282295e+00 0 1 0
1369 1 4.0602887875567282e+00 1.8629854053069838e+01 9.9798891672586993e+00 0 -1 1
1616 2 8.9123788463685880e+00 5.3165706119896701e+00 5.8452151647031734e+00 0 1 0
1522 1 5.1403396319615267e+00 9.0139558878196144e+00 5.8676845557034003e+00 0 0 1
1562 2 3.9281654658561882e+00 2.2091630292441691e+00 8.4082513587906185e+00 0 1 0
505 1 8.2859256898997842e+00 5.3561523482184707e+00 9.7626355661357351e+00 0 0 0
661 1 3.5661192169577871e-01 1.5138939375786307e+00 1.0923904497881536e+00 0 0 1
449 2 1.7257957676955659e+01 1.6604997558749997e+01 4.8527605235205238e+00 0 0 0
914 2 1.8015637606631600e+01 2.9362917062254619e+00 1.8059646288693254e+00 0 1 0
651 2 5.1389292636100485e+00 1.1873349802689464e+01 2.8864154498352965e+00 0 -1 0
689 2 1.1799055053501382e+01 1.6746035723501912e+01 2.4532206653533040e+00 0 -1 0
506 2 8.8646535979535948e+00 4.7358758975816126e+00 9.2781771106862116e+00 0 0 0
1506 2 7.2009484111788891e-01 1.8374811353982182e+01 3.9877639782348068e-01 1 0 1
657 2 1.6326304863243212e+01 1.9437017185623876e+01 1.3374594543955116e+00 0 0 0
515 2 1.7767599035270646e+01 8.2907656790450321e+00 8.8044305750256613e-01 0 1 0
273 2 1.2494237299249239e+01 1.3833118504725084e+01 5.8674359774074327e+00 0 0 1
737 2 1.9334167265944878e+01 4.5785437313348515e-01 6.2984656322395347e+00 0 0 0
735 2 1.9440504514408396e+01 1.8066638542502613e+01 5.6275524387971210e+00 0 0 0
880 1 2.0772081407197494e+00 5.8560530334577505e+00 4.3508608123168688e+00 0 0 0
894 2 4.2036827915082964e-01 7.1781954447592822e-01 5.5838211168371732e+00 0 0 0
447 2 1.0666960737540562e+01 1.5335586345687444e+01 5.9192096030227770e+00 0 0 -1
8 2 3.6309394400102224e-01 1.1352932801724116e+01 7.0749589308172691e+00 0 -1 0
455 2 3.6048795553972677e+00 1.9433443527633948e+01 1.9554689930368208e+00 0 0 0
1820 2 8.2732934498362276e+00 8.1401178637913352e-02 2.6207783478239319e+00 0 1 1
43 1 9.6645127445926970e+00 9.2792436172269763e+00 1.0066249572493311e+01 0 0 0
1094 2 7.9314177113870592e+00 7.9311413493967677e+00 7.5766675009160336e+00 0 2 0
729 2 1.6119077841512993e+01 1.1984781112612184e+00 6.0816981644704731e+00 0 0 0
471 2 1.3037886735248883e+01 1.1434955562378006e+01 9.1133681675696074e+00 0 0 -1
442 1 1.3014325254629082e+01 1.7574910056500304e+01 6.4606669904171730e+00 0 0 0
512 2 2.8863463072548914e+00 3.3593715045233528e+00 2.1922816503433546e+00 0 0 0
1332 2 9.6243726738737116e+00 1.9329245924994165e+01 9.9609401608249790e+00 0 -1 0
1504 1 9.6034716715824142e-02 1.8697061973586031e+01 1.0337519651447875e+00 1 -1 1
107 2 8.9294259139153542e+00 1.5152821697625066e+01 7.4138701295400500e+00 0 0 1
1336 1 9.5593471923625319e+00 1.8858834805041134e+01 3.3292460178111849e+00 0 0 0
968 2 1.1884074284364749e+01 1.2336070458854572e+01 1.2765883255874335e+00 0 0 1
1776 2 1.2865813272244391e+00 1.2958802703557302e+01 6.1958678568262480e+00 0 0 1
934 1 1.4779961549808380e+01 1.1261784831327201e+01 5.1783861911314066e-01 0 1 1
458 2 1.5799203563816585e+01 1.6187854456487550e+01 3.1364880101584212e+00 0 1 0
688 1 1.0954098637425647e+01 1.6905519232299575e+01 1.9692897846756436e+00 0 -1 0
727 1 1.6239634876610218e+01 1.5377743574548322e+00 7.0001070653616795e+00 0 0 0
479 2 1.3686723661353383e+01 1.5978458859978526e+01 3.1939208067848424e+00 0 0 -1
889 1 3.3288013966099452e+00 7.6145120159176756e+00 1.4489946128274909e+00 0 0 0
1307 2 7.3514602589726969e+00 1.8629946156065107e+00 7.3077359549272041e+00 0 0 1
893 2 1.4079851110262542e+00 1.7975047243906510e+00 6.0264003496986973e+00 0 0 0
1391 2 1.2284836723452758e+01 1.9046597778440930e+01 9.8925199970781037e+00 0 0 0
19 1 5.7282834136362499e+00 5.0841619663605222e+00 8.7696699088262200e+00 0 0 0
660 2 6.7667734487230513e+00 1.9696261552584634e+01 7.9609967038614613e+00 0 -1 0
1139 2 1.5587540397367800e+01 1.9732124447589186e+01 7.9646532714881539e+00 0 -1 1
1756 1 3.1357194885629873e+00 1.2859001040624030e+00 9.5008157315132173e+00 0 1 0
680 2 1.2799132346176815e+01 6.0563279162893542e+00 4.8424571657332560e+00 0 0 0
1354 1 3.2157466521268674e+00 1.7100200083938745e+01 4.3194455133271417e+00 0 -1 2
1542 2 5.4679388587035591e+00 1.5757232926892341e+01 8.9173831567002839e+00 0 -1 1
1770 2 5.0877760214350527e+00 4.5868352518483748e+00 1.7921304016936568e+00 0 1 1
90 2 1.1240029046578030e+01 4.7015416190532795e+00 9.1077829902830167e+00 0 1 0
1399 1 5.7695702599017196e+00 6.0040970924704213e+00 6.1606381356860132e+00 0 0 0
1315 1 3.0547422530094668e+00 1.6034592702395738e+01 6.6438612309900735e+00 0 -1 0
952 1 4.8659045765690943e+00 2.0799827445324568e+00 1.1607353241700680e-01 0 0 1
658 1 7.1094228168243996e+00 1.8812363813962708e+01 7.9072853613495244e+00 0 -1 0
1337 2 9.9545459846812570e+00 1.8084720345672174e+01 2.8404524047951063e+00 0 0 0
76 1 1.0443014711154904e+01 3.2836887337560827e+00 1.3558091546496449e+00 0 0 0
959 2 1.2122485849466212e+01 6.1836751128987499e+00 1.2773877969148044e+00 0 1 0
1574 2 6.4240179603623764e+00 1.0875656298479072e+01 8.4027014821216444e+00 0 0 1
1151 2 6.0634780909125474e-01 8.1962831265180327e+00 9.1233862789067466e+00 0 0 0
1355 2 2.7856328318872698e+00 1.6306887403154175e+01 3.8883599211425501e+00 0 -1 2
1165 1 8.8105866636695946e+00 1.2044256871013989e+01 7.6494759655169577e+00 0 1 0
23 2 1.0026966917918051e+01 8.6484044527644421e+00 7.0326536584555077e+00 0 -1 -1
659 2 7.8233069718387123e+00 1.8750752565217706e+01 8.5847568215199495e+00 0 -1 0
16 1 8.6744894454325152e+00 2.7199806039565901e+00 3.9883100842116268e+00 0 0 -1
702 2 1.6368999784076717e+01 1.0926260555927016e+01 3.5959632290380013e+00 0 0 -1
27 2 1.1282431539169453e+00 1.3886727819198587e+01 9.8925464599261677e+00 0 0 0
744 2 1.9071668556420697e+01 1.1344354493356525e+01 5.6964438060188423e+00 0 -1 0
1793 2 3.1706614565675824e+00 5.8348715095092221e+00 9.0540553953098595e+00 0 0 1
966 2 1.4404668521831457e+01 2.3815745771100501e+00 2.8481448174553035e+00 0 1 0
14 2 1.2159107372358367e+01 1.2843009598526649e+01 1.0046225529242410e+01 0 0 -1
456 2 4.5561224728538798e+00 1.8724573241954616e+01 9.5436660820054520e-01 0 0 0
936 2 1.4268496620473382e+01 1.2089922183838031e+01 2.2297337500909833e-01 0 1 1
30 2 1.0498238922942322e+00 9.1087108478150220e+00 7.2862953404301551e+00 0 -1 0
1601 2 1.8737707313601568e+01 1.5106029602044169e+01 3.7521147035286559e+00 0 1 1
1827 2 1.5374875265437623e+01 4.2888121722246320e+00 5.7351189135795071e+00 0 1 0
98 2 1.1660514084797422e+01 7.2681235468679919e+00 6.6400154698993363e+00 0 0 -1
714 2 2.6994123039150431e+00 6.9184834191120475e+00 6.9320338535439188e+00 0 1 1
954 2 4.6742004053435666e+00 1.2215563760606294e+00 5.4193172089240349e-01 0 0 1
467 2 6.1632719050068783e+00 1.7769685107024408e+01 1.4268450112502944e+00 0 0 0
498 2 1.1033392691511668e+01 1.5241998905241866e-01 2.4368818350693986e+00 0 0 0
1566 2 3.6053850586352127e+00 1.9730950141455903e+01 6.6018824967454544e+00 0 0 0
733 1 1.9200891214963647e+01 1.7224114982015273e+01 5.1934634293890749e+00 0 0 0
1826 2 1.5786007605685297e+01 3.7885635084998470e+00 4.3343974870322031e+00 0 1 1
1620 2 1.7514723904624038e+01 1.8923534506122873e+01 7.0444539785040217e+00 0 -1 0
1140 2 1.4086015452156065e+01 1.9386647179422653e+01 8.4064773699841595e+00 0 -1 1
1396 1 1.9235701678260160e+01 6.4897237037602578e+00 4.2509787112497692e+00 0 -1 1
445 1 9.9427675717765762e+00 1.5938872834223876e+01 6.1267310179689609e+00 0 0 -1
1547 2 2.6190902136632466e+00 2.9655792202630932e-01 4.0503958761414891e+00 0 1 1
669 2 1.5651912019953957e+00 1.0472099940940513e+01 3.7217926745685737e+00 0 0 0
681 2 1.3557099689549464e+01 7.4013940235296216e+00 5.4494749050729947e+00 0 0 0
931 1 1.4036000091546944e+01 1.2881449705005899e+01 6.7233190652207568e+00 0 0 0
509 2 1.0326569749987556e+01 1.0794665049117802e+01 5.4092557635985239e+00 0 2 0
272 2 1.1142285703707985e+01 1.3340321152466371e+01 5.1741415882919899e+00 0 0 1
1185 2 8.4837565443633327e+00 4.3108372370662867e-01 6.0514616036540483e+00 0 0 0
1329 2 5.1361204278050510e+00 6.1943008545781426e+00 4.4852047099373253e+00 0 0 0
67 1 9.1252787556776394e+00 8.8212193747300240e+00 2.8890683415531413e+00 0 -1 1
1400 2 6.5303125615103754e+00 6.5895895846458821e+00 5.9735115687879325e+00 0 0 0
1300 1 1.3439275799530030e+01 1.0102712014869409e+01 6.3001439285662730e+00 0 0 0
964 1 1.5171176896125584e+01 2.6769391681687940e+00 2.2954008457733166e+00 0 1 0
77 2 9.5031751138105367e+00 3.4178272208174554e+00 1.4342739358813765e+00 0 0 0
49 1 3.5419716672861150e+00 5.0052428179652733e+00 9.6520165959603277e-01 0 0 0
1155 2 1.5508671559934262e+01 7.2040323932190287e+00 7.1354627753775102e+00 0 1 0
1397 2 1.9403825433594040e+01 5.6037565398497735e+00 4.4211453890551873e+00 0 0 1
723 2 1.7097450200516676e+01 1.3125061134944991e+01 8.8477267364085357e+00 0 0 0
1330 1 9.3221029160361564e+00 1.8640831056367833e+01 9.3464994991241674e+00 0 -1 0
1116 2 6.6532534895713624e-01 1.8155766095616862e+01 9.7176859743382433e+00 0 0 0
1821 2 6.8296132215455359e+00 6.8037200520547980e-01 2.7688267842629251e+00 0 1 1
1578 2 1.7131999123237797e+01 4.9309162400590569e+00 8.5371955846159420e+00 0 0 1
1825 1 1.6003593352216559e+01 4.4493465428258530e+00 5.0379735469673594e+00 0 1 1
1554 2 3.6024208447123414e+00 9.2303978682365262e+00 4.4882733279875433e+00 0 -1 1
971 2 1.7674401911568033e+01 5.5520827097327494e+00 1.3449768110161547e-01 0 0 0
1301 2 1.2521977344321620e+01 9.9581824687339608e+00 6.5655531618667844e+00 0 0 0
1558 1 1.7776633283094114e+01 5.1446723309152258e+00 6.9650940387685560e+00 0 1 1
232 1 1.5148106460571819e+01 7.9493086486867233e+00 5.4427577845092401e+00 0 0 -1
1754 2 1.4683370573711438e+00 4.1496347197204564e+00 6.5086544234419987e+00 0 1 0
932 2 1.4143428203919660e+01 1.3819685788878319e+01 6.9972779918823775e+00 0 0 0
1535 2 1.2091643604774053e+01 4.0226940223347665e+00 3.3462746862632282e+00 0 -1 0
1731 2 1.4569463596118132e+01 6.1017654387913947e+00 1.5272800543738807e+00 0 1 0
48 2 3.8135970362975491e-01 4.8247953424142738e+00 8.2377048220668563e+00 0 -1 0
700 1 1.6259395431164975e+01 1.1869511576735082e+01 3.6667545274274329e+00 0 0 -1
248 2 2.8721465273980202e+00 1.2787540348210554e+01 8.6596514335393557e+00 0 0 -1
1600 1 1.9461314851419427e+01 1.4457069459404439e+01 3.4629310349647415e+00 0 1 1
264 2 1.0692207302608423e+01 1.6861182320893988e+00 6.4622633734680965e+00 0 1 0
99 2 1.1470722535665884e+01 6.8033856667706978e+00 8.1243299954153620e+00 0 0 -1
443 2 1.2967048280315849e+01 1.7592161728876142e+01 5.4989558735200701e+00 0 0 0
1567 1 7.6265456381336616e+00 7.7801986293742980e+00 5.1279244278747713e+00 0 -1 1
108 2 8.8156524458510148e+00 1.5012772665115572e+01 8.9535281356528333e+00 0 0 1
472 1 1.1111148303070728e+01 1.1070402155907427e+01 8.8593563088763645e+00 0 1 0
1536 2 1.3234282210819988e+01 4.9253005880141121e+00 2.7423343400253382e+00 0 -1 0
477 2 5.6073256917601420e+00 1.6766533608941347e+00 4.2640453408957582e+00 0 1 1
102 2 1.8947383982749422e+01 3.3632614170612181e+00 5.4240411858385960e+00 0 1 0
741 2 1.6361302400419280e+01 1.4899740580169802e+01 9.7965261412993332e+00 0 0 1
270 2 1.6125263658382757e+01 1.5803885768761168e+01 1.2306152418149914e+00 0 0 0
82 1 8.3009189770486635e+00 1.5606300431950880e+01 4.3184306313484537e+00 0 0 0
1755 2 2.9036394435721764e+00 3.5124633407802190e+00 6.4799893074006834e+00 0 1 -1
234 2 1.5126254592593712e+01 8.8813201550490781e+00 5.8037861757447349e+00 0 0 -1
29 2 1.1451170850519805e+00 9.3712420430179080e+00 5.7678292306790189e+00 0 0 0
1812 2 1.6622698239323832e+01 1.2866122946162649e+01 5.0674725455595269e+00 0 0 1
1317 2 2.0637641591113756e+00 1.6079964262090087e+01 6.7875007485377647e+00 0 -1 0
686 2 1.0514690262217874e+01 1.9250170576986008e+01 6.3464500712475260e+00 0 0 0
736 1 1.9612506094141931e+01 3.9141009227908774e-01 5.3804823920640326e+00 0 0 0
470 2 1.4033569209564579e+01 1.2337388346497097e+01 8.3977000537978448e+00 0 0 -1
694 1 1.4991317644133746e+01 7.9107591204569827e+00 1.7930568583284501e+00 0 -1 0
696 2 1.4711606680345824e+01 8.8084974440136445e+00 2.1247638282998125e+00 0 -1 0
721 1 1.7243348998732081e+01 1.2832808081613365e+01 7.8985062156044590e+00 0 0 0
1792 1 2.7878944349820718e+00 5.7699067653049463e+00 9.9606000637329668e+00 0 0 1
24 2 9.2748321341452407e+00 1.0035364039741838e+01 7.1132739522286208e+00 0 -1 -1
1344 2 5.4373445310233084e+00 1.4399070578075550e+01 3.6197426947074445e+00 0 -1 0
916 1 8.2316083282607284e+00 8.5040524187602049e+00 1.5403830198513480e-01 0 0 1
78 2 1.0621219435287966e+01 2.3765567302871933e+00 1.6476678572323706e+00 0 0 0
457 1 1.5167231290740695e+01 1.6359349256283565e+01 2.3819130219929052e+00 0 1 0
66 2 1.1812411925663296e+01 7.8449530409308235e+00 3.8432093648015515e+00 0 0 -1
1339 1 1.8672929506110236e+01 1.9704286525331028e+01 2.9024613433422934e+00 0 0 1
881 2 2.1802737788290076e+00 4.9228389260490042e+00 4.6902648768186870e+00 0 0 0
491 2 1.4141133172967759e+01 1.0769665284079801e+01 3.9143081785539997e+00 0 1 0
743 2 1.8746156466831732e+01 9.9530289972779968e+00 6.2339083939750077e+00 0 -1 0
1750 1 6.0652761779990181e+00 1.7243795386746047e+01 3.1642145555577277e+00 0 1 1
1592 2 1.7826915987060453e+01 9.6583616151162275e+00 4.3842286003612454e+00 0 0 1
1181 2 1.8710514730736069e+01 1.6175845179042078e+01 6.5433101460482010e+00 0 0 0
1760 2 7.5953468567887077e+00 1.3440640201720596e+01 2.1695616778629478e+00 0 0 1
17 2 8.0834748247206587e+00 2.5977199876974986e+00 3.2148108794550572e+00 0 0 -1
518 2 1.9092277615596792e+01 3.8198395611191032e+00 7.5762139001543378e+00 0 1 0
750 2 1.0568919039275174e+01 5.4755284883066864e+00 3.5589597303221745e+00 0 0 1
654 2 8.1797346887798561e+00 1.1511678222941384e+01 3.7787744371268621e+00 0 0 1
1136 2 3.0298571630091540e+00 1.0515184359054761e+01 6.8215856022334691e+00 0 1 0
1775 2 2.7186485180468289e+00 1.2272904678656177e+01 5.8949310029439950e+00 0 0 1
1569 2 8.3896712839561598e+00 8.3910059003840480e+00 5.3941982982623013e+00 0 -1 1
1328 2 5.1004350580103672e+00 6.8403975058042059e+00 3.1246170176835899e+00 0 0 0
900 2 2.6652291609721677e+00 1.0549356074176677e+01 9.3739500127798880e+00 0 0 0
748 1 9.7132133501539126e+00 5.3099323661426299e+00 3.9478111034985228e+00 0 0 1
1736 2 6.2318285968621434e-02 2.3473782864961215e+00 9.4652302394011567e+00 0 1 0
450 2 1.6760313842381706e+01 1.5081495707805795e+01 4.8411391418732332e+00 0 0 0
469 1 1.3741868366136364e+01 1.2035026512037842e+01 9.2623945634690550e+00 0 0 -1
1774 1 2.0191246201147242e+00 1.2893973251937711e+01 5.5393816743809605e+00 0 0 1
1534 1 1.2645337131211683e+01 4.7913647747066790e+00 3.5283944737352955e+00 0 -1 0
1559 2 1.8125348604609428e+01 6.0558963800536656e+00 6.9384912406335761e+00 0 1 1
1353 2 4.7008714440630772e+00 1.1286737605799834e+01 8.7950697997700789e-01 0 0 1
1376 2 1.9497226594463452e+01 1.3411945294349460e+01 5.1160802238061978e+00 0 0 1
249 2 1.3281465741490412e+00 1.2400385789191629e+01 8.6236276255329631e+00 0 0 -1
933 2 1.4872046822526579e+01 1.2775343777703039e+01 6.2135001915996391e+00 0 0 0
1788 2 6.8474591459590481e+00 1.9366268056880692e+01 5.0251687301101127e+00 0 0 1
1768 1 5.8615464521457188e+00 4.1602460848882066e+00 2.1568004319364715e+00 0 1 1
1398 2 1.8504365830412432e+01 6.5159456798616793e+00 3.6285722586412130e+00 0 -1 1
1389 2 1.7623131705377208e+01 1.2513565742561637e+01 1.3432170257775093e+00 0 0 1
1786 1 7.5639189335423058e+00 1.8725699076242879e+01 5.1017547609341589e+00 0 0 1
233 2 1.5700227240235474e+01 8.0551246767210092e+00 4.6446774495525984e+00 0 0 -1
882 2 2.9419944443742270e+00 6.0488505899021261e+00 3.9220304738598815e+00 0 0 0
492 2 1.3194316307653642e+01 9.8563926019332850e+00 3.2008659895200644e+00 0 1 0
480 2 1.2657439316465581e+01 1.5335575458545126e+01 4.2465241389728581e+00 0 0 -1
1157 2 1.3585686709691606e+01 4.3909829857202380e+00 7.4211396028602561e+00 0 0 0
1404 2 6.4781797678953312e+00 1.2826036251205288e+01 5.7543786680014737e+00 0 -1 0
65 2 1.1834431866435965e+01 7.8353761194589184e+00 2.2465074770496476e+00 0 0 -1
878 2 8.1287584452354196e+00 5.8532811406048522e+00 1.2781030615928644e+00 0 1 1
293 2 1.6283104664866173e+01 5.7013479977558967e+00 3.7344559598792935e+00 0 -1 -1
1340 2 1.8731374251211864e+01 1.9704121655192235e+01 3.9289508384365881e+00 0 0 1
302 2 1.9381530721526698e+01 7.6820596044947687e+00 6.9929944104362898e+00 0 0 -1
1548 2 3.2060683724623038e+00 1.8563940836775203e+01 3.9338738150619048e+00 0 0 1
513 2 1.9645500961493636e+00 3.0362700465869170e+00 3.3060717201996219e+00 0 0 0
1563 2 4.6392896231819041e+00 3.6215957632096272e+00 8.1658953221081756e+00 0 1 0
58 1 8.4366671424935091e-02 4.3115225387684681e+00 9.9505033463162817e+00 0 0 -1
1568 2 7.9659173811825479e+00 7.4540170705105835e+00 4.2688484854972542e+00 0 -1 1
69 2 1.0124854129974828e+01 8.8548501557114054e+00 2.8292625163756009e+00 0 -1 1
268 1 1.6694628716759645e+01 1.5271853051096638e+01 6.5001261123884035e-01 0 0 0
891 2 3.4279051854894478e+00 8.2172307293664399e+00 7.1077558947872299e-01 0 0 0