LAMMPS data file via write_data, version 15 Apr 2020, timestep = 200000

972 atoms
2 atom types

1.7913273318955447e-01 1.9811920266811725e+01 xlo xhi
1.7023949434139851e-01 1.9820813505659704e+01 ylo yhi
1.8922591211213380e-01 2.0611546087888470e+01 zlo zhi
-1.0249383364504999e-01 -1.8958676258113974e-01 -2.0904492145670725e-01 xy xz yz

Masses

1 16
2 2

Atoms # atomic

4 1 4.3730177681123630e+00 1.7995419350566604e+00 3.3782429832918837e+00 0 0 0
5 2 4.3796938214722427e+00 2.7336422138129963e+00 3.6350739132445495e+00 0 0 0
6 2 3.5937416190077931e+00 1.4525577049235074e+00 3.8624645612934718e+00 0 0 0
7 1 6.0964686314814749e+00 4.7050363052183179e+00 5.3640311503946734e+00 0 0 0
8 2 6.8739603048780449e+00 4.7283279896186681e+00 4.7982612602051207e+00 0 0 0
9 2 5.3471338679987097e+00 4.6099097473136412e+00 4.8023640390484275e+00 0 0 0
10 1 1.5496081372688360e+00 4.2612059714335606e+00 4.0932263285795054e+00 0 0 0
11 2 8.9795838179720588e-01 4.4759078551041123e+00 4.8214925174831711e+00 0 0 0
12 2 1.1757111731285113e+00 4.7388304295089521e+00 3.2988115081165286e+00 0 0 0
13 1 4.5172437596232973e+00 6.2294257519740732e+00 1.6901885263610055e+00 0 0 0
14 2 4.2422256598817576e+00 7.1348638486150042e+00 2.0165029597556887e+00 0 0 0
15 2 3.8685293177803164e+00 6.0584564213865919e+00 1.0079182480365665e+00 0 0 0
16 1 4.2549111874330645e+00 4.3774555309218854e+00 3.5154893659689406e+00 0 0 0
17 2 4.4424892068433541e+00 5.1695786462487971e+00 2.9431914230153313e+00 0 0 0
18 2 3.3051002332117259e+00 4.3123895430850938e+00 3.6700885819068039e+00 0 0 0
19 1 6.9084670872325316e-01 5.9439002160955328e+00 1.9050467024938453e+00 0 0 0
20 2 6.1681851366672591e-01 6.8781586332734479e+00 2.2162777680328603e+00 0 0 0
22 1 2.4465974134366379e+00 6.0897062937209623e-01 4.9983073315711906e+00 0 0 0
23 2 1.5516369767112230e+00 8.3995129076814035e-01 5.1452939241853279e+00 0 0 0
24 2 2.8007839303804700e+00 1.2645586737370593e+00 5.6529492362155240e+00 0 0 0
25 1 3.1513151488345201e+00 5.0172579817374903e+00 6.4371992027127076e+00 0 0 0
26 2 2.8689747488240771e+00 5.7067556876267851e+00 5.7588473415035315e+00 0 0 0
27 2 3.5899885467196317e+00 5.4831845013976253e+00 7.1927125186268359e+00 0 0 0
28 1 6.4138729424319694e+00 6.2598634921541918e-01 4.8270302393578604e+00 0 0 0
29 2 5.8308836176265224e+00 9.5814404605357917e-01 4.1337315355523678e+00 0 0 0
30 2 6.0455801169057848e+00 1.9369666288676179e+01 5.1684029866487293e+00 0 0 0
278 2 9.2814276119719725e+00 1.8862795336587524e+01 5.6619568533453029e+00 0 0 0
297 2 3.9811391658802631e-01 1.7665897666056921e+01 5.1589256191786523e+00 1 0 0
33 2 1.0078979251969042e+00 2.6356234858609606e+00 3.3423538864193971e+00 0 0 0
437 2 3.9611960872591867e+00 9.1178105884427190e+00 1.0211305377710623e+01 0 0 0
35 2 5.9084732613860886e+00 2.5457449313901175e+00 1.1411229924466681e+00 0 0 0
46 1 7.8951720172125563e+00 4.2856259085322552e+00 3.5521293613290963e+00 0 0 0
47 2 8.8093182755720250e+00 4.1579618696483562e+00 3.8467720677764117e+00 0 0 0
48 2 7.8494961466646354e+00 5.0104615474655478e+00 2.9784857627450503e+00 0 0 0
55 1 7.3487080326037795e+00 6.1799642624162621e+00 1.9515503366176294e+00 0 0 0
56 2 7.3930621152109950e+00 7.1818454829349623e+00 2.0420844629898331e+00 0 0 0
57 2 6.4116538848168734e+00 5.9414840459040121e+00 1.7514205194494412e+00 0 0 0
58 1 9.0965908188960203e+00 7.5437254325359737e-01 5.0065614373117491e+00 0 0 0
436 1 4.1073485493131194e+00 8.1222417247682266e+00 1.0000337710295948e+01 0 0 0
60 2 8.1486763760504743e+00 6.2934812724455047e-01 4.7186348802637834e+00 0 0 0
2 2 3.4404332483650197e+00 2.7948902900278729e+00 1.1998669609658614e+00 0 0 0
450 2 4.2324481785224854e+00 1.1421408783699459e+01 9.8672725319433727e+00 0 0 0
63 2 8.7284307618966377e+00 5.7448716862312059e+00 7.1012679495875846e+00 0 0 0
67 1 7.2303601814949845e+00 2.1446758870461835e+00 2.0866208135186461e+00 0 0 0
68 2 7.3836978280676275e+00 2.8193975517805976e+00 2.7827917841418004e+00 0 0 0
69 2 8.0445709307509237e+00 2.3036514278141609e+00 1.4725368964476457e+00 0 0 0
59 2 9.5981115371046037e+00 1.0379161462738713e+00 4.1813784057828869e+00 0 0 0
253 1 9.0374013663363773e+00 1.5899897923034668e+01 2.3123367314235552e-01 0 0 0
544 1 4.1367688406909107e+00 1.4451049981044239e+01 1.0069104503154389e+01 0 0 0
112 1 4.0369532809100637e+00 8.2719120625028140e+00 3.2414664241210556e+00 0 0 0
113 2 4.8733308500443018e+00 8.0511738567768596e+00 3.7218867563810867e+00 0 0 0
114 2 3.9981645148392166e+00 9.2050995708499919e+00 3.5054835080319959e+00 0 0 0
115 1 6.2114258740926021e+00 1.1193457956568871e+01 5.6061666224153690e+00 0 0 0
116 2 5.9897670383945627e+00 1.2126047031822891e+01 5.7044202511652209e+00 0 0 0
117 2 6.0258431582496632e+00 1.0671095848681672e+01 6.4489776999256216e+00 0 0 0
118 1 1.2981288115661678e+00 1.0681394955840844e+01 3.6819142572989776e+00 0 0 0
31 1 7.6498635757114797e-01 2.0273488927382344e+00 2.6505727265944459e+00 0 0 0
120 2 2.1597366889954812e+00 1.0928513923263354e+01 4.0112315643508740e+00 0 0 0
121 1 4.4671613892974928e+00 1.2382908115772810e+01 1.6260339287809336e+00 0 0 0
122 2 5.4023286240394555e+00 1.2104247990922914e+01 1.4718396619653384e+00 0 0 0
123 2 3.9664785596565255e+00 1.2299417682711852e+01 7.8708169959812124e-01 0 0 0
124 1 3.9503102078535042e+00 1.0927042565088041e+01 3.9355505956816539e+00 0 0 0
125 2 3.9939717117306976e+00 1.1475770055589450e+01 3.1576311341092862e+00 0 0 0
126 2 4.7790431242867042e+00 1.1022917571489057e+01 4.4519443201041522e+00 0 0 0
127 1 5.8618225228848697e-01 1.2073742519797309e+01 1.5653666656032932e+00 0 0 0
128 2 1.3272030675718740e+00 1.2315113574715689e+01 8.6204427820691820e-01 0 0 0
129 2 1.0006633168181134e+00 1.1547864325112464e+01 2.2686938842589179e+00 0 0 0
130 1 2.3566640867513717e+00 7.2630782172930237e+00 5.1659498020266330e+00 0 0 0
131 2 2.8050899506296223e+00 7.5185442375726952e+00 4.3330606840353427e+00 0 0 0
132 2 2.5949364581901571e+00 7.8708373418881328e+00 5.9186304287555895e+00 0 0 0
133 1 2.4774193580686870e+00 1.1779169855808789e+01 6.7624247555676993e+00 0 0 0
134 2 1.7849508177787012e+00 1.2091411244379845e+01 7.4364674401380944e+00 0 0 0
135 2 2.5005205621065385e+00 1.2481446694081326e+01 6.1164558624534768e+00 0 0 0
136 1 6.0257242866664242e+00 7.6445293862362478e+00 5.0599281346905611e+00 0 0 0
137 2 5.7826481420290925e+00 6.7315047061367927e+00 5.2608184712934918e+00 0 0 0
138 2 7.0352474816789741e+00 7.6409055177216745e+00 4.9575665703081562e+00 0 0 0
217 1 2.5210574457929291e+00 1.6147054185657353e+01 3.8967103960302196e-01 0 0 0
140 2 7.9130723889045362e-01 9.1797389865430041e+00 3.0048930299317211e+00 0 0 0
169 1 9.0653572595199883e+00 1.2128999375974802e+01 6.7584201126862053e+00 0 0 0
218 2 3.4714259927014699e+00 1.5919377980090164e+01 5.1787540342159089e-01 0 0 0
470 2 9.2051079920104186e+00 1.0405240346383284e+01 7.1870403515917509e+00 0 0 0
154 1 7.7786927343967287e+00 1.0679548157145042e+01 3.7651825352446009e+00 0 0 0
155 2 7.2883953621905011e+00 1.0835810032391104e+01 4.5578582553887879e+00 0 0 0
156 2 8.7682879908300091e+00 1.0722615786675224e+01 3.9923850858253980e+00 0 0 0
163 1 7.3305055102216716e+00 1.2530839781579296e+01 1.9455372873331995e+00 0 0 0
164 2 7.6225417767663082e+00 1.1988861388909472e+01 2.7165602181875261e+00 0 0 0
165 2 7.7544737658929721e+00 1.2057350120929742e+01 1.2378141738476665e+00 0 0 0
166 1 8.8438118839528599e+00 7.8521090149907939e+00 5.1400452072011262e+00 0 0 0
167 2 9.0959263651338826e+00 8.5007890215111459e+00 5.8336603096293693e+00 0 0 0
168 2 9.0236164469191262e+00 6.9884332220799825e+00 5.5680849480596502e+00 0 0 0
250 1 5.2945623668219106e+00 1.5851861533936765e+01 5.7807271399337135e-01 0 0 0
171 2 8.9417960342434721e+00 1.2555082392396619e+01 5.8544984820753800e+00 0 0 0
175 1 7.3850400299827159e+00 8.8854437596072362e+00 1.9458567917229006e+00 0 0 0
176 2 7.5631031705655367e+00 9.4265622327394389e+00 2.7097978064220114e+00 0 0 0
177 2 6.4602255755026468e+00 9.2554260796221666e+00 1.7003024477269957e+00 0 0 0
465 2 1.0372273446629521e+00 7.5604199648987311e+00 8.9774454591159358e+00 0 0 0
3 2 1.8875724846800019e+00 2.5556307853095976e+00 1.4298525937752935e+00 0 0 0
119 2 5.9413261155182528e-01 1.0954251260983863e+01 4.3697423790696055e+00 0 0 0
147 2 8.4674335757571839e+00 9.2603597420536286e+00 6.4595005458539845e-01 0 0 0
573 2 5.2980789960337726e-01 1.5769951205400472e+01 9.7083269334274007e+00 0 0 0
220 1 4.0852589216361492e+00 1.4488892913405062e+01 3.4841788717243158e+00 0 0 0
221 2 4.1634851063496061e+00 1.5458659958625669e+01 3.3961942898245798e+00 0 0 0
222 2 4.1942359021636184e+00 1.3997340501692360e+01 2.6419045409769772e+00 0 0 0
223 1 5.6894627014106662e+00 1.7791892472238665e+01 5.3401677683852604e+00 0 0 0
224 2 6.5842144715962165e+00 1.7604143240653833e+01 4.9211161025440058e+00 0 0 0
225 2 5.5279760786670931e+00 1.7208058391597156e+01 6.0362514145784614e+00 0 0 0
226 1 1.3739674957743528e+00 1.7270032103628008e+01 3.7550710658366317e+00 0 0 0
227 2 1.1223179586023471e+00 1.7910252889033799e+01 3.0325754832103868e+00 0 0 0
228 2 1.0710268153489750e+00 1.6346434654510048e+01 3.4637138847155211e+00 0 0 0
229 1 4.5729762721689244e+00 1.9466776759022125e+01 1.3873448331054923e+00 0 0 0
230 2 4.5073223020887232e+00 1.8731954680463872e+01 1.9854429137037730e+00 0 0 0
231 2 4.3337576793745107e+00 6.1220684221240984e-01 1.8224083054085203e+00 0 0 0
232 1 4.0996633868080634e+00 1.7347134647987762e+01 3.2783320556415796e+00 0 0 0
233 2 3.1286161626435645e+00 1.7259645983776860e+01 3.4028293169968125e+00 0 0 0
234 2 4.5799489828958722e+00 1.7569625065878469e+01 4.1189499992360874e+00 0 0 0
235 1 7.8564022096295771e-01 1.9095057224129334e+01 1.8571982628977426e+00 0 0 0
236 2 9.7860587062263127e-01 3.6526114993689968e-01 2.1335241798475435e+00 0 0 0
237 2 1.4445468782255706e+00 1.8972589349399875e+01 1.1355365054080697e+00 0 0 0
238 1 2.0076337432488076e+00 1.3993962140372405e+01 5.1802800951136607e+00 0 0 0
239 2 2.2720818441083432e+00 1.4240293466273274e+01 4.2653401082673215e+00 0 0 0
240 2 1.0229525295546269e+00 1.4088766382935855e+01 5.2743085571987116e+00 0 0 0
241 1 2.8527704775538503e+00 1.8283668050581017e+01 6.8444295923478347e+00 0 0 0
242 2 2.8125196567610611e+00 1.8645328622203888e+01 5.9512789566345869e+00 0 0 0
243 2 2.7456068798174207e+00 1.7279832738892569e+01 6.6847341494937487e+00 0 0 0
244 1 5.8014888354394625e+00 1.3902175107602860e+01 5.2668325900235384e+00 0 0 0
245 2 5.4881611971713031e+00 1.4577576881423916e+01 5.8668249188788897e+00 0 0 0
246 2 5.2127068378753840e+00 1.3970713571108055e+01 4.4735720203308595e+00 0 0 0
247 1 8.9003351480583193e-01 1.4652457911565627e+01 2.4384658974615752e+00 0 0 0
248 2 6.7781964360723435e-01 1.3716881015786228e+01 2.1773749859740001e+00 0 0 0
249 2 1.4831568876735794e+00 1.4908193853170255e+01 1.6848951776560110e+00 0 0 0
251 2 5.7641031126793445e+00 1.5738356802913302e+01 1.4213489593960087e+00 0 0 0
557 2 3.9211510462787023e+00 1.6205164126695578e+01 1.0189305352174388e+01 0 0 0
262 1 7.8502819114170777e+00 1.7505886660573346e+01 3.8992843394062300e+00 0 0 0
263 2 8.8159423767464897e+00 1.7766157306379014e+01 3.8642435580237993e+00 0 0 0
264 2 7.4954366104745276e+00 1.7802209030006154e+01 3.0054353509507004e+00 0 0 0
271 1 7.2365274022743336e+00 1.9178969489818385e+01 1.9102976050755094e+00 0 0 0
272 2 7.1247196123264871e+00 3.9717302797776860e-01 2.2246422870126987e+00 0 0 0
273 2 6.4641623820330798e+00 1.8880287664086911e+01 1.3902348456532974e+00 0 0 0
274 1 8.6353786036317697e+00 1.3749795507478032e+01 4.7606894673032940e+00 0 0 0
275 2 8.5579762830725521e+00 1.4529145447226101e+01 5.4325425083125971e+00 0 0 0
276 2 7.7040623571322993e+00 1.3396894136185120e+01 4.7983381134717717e+00 0 0 0
277 1 9.4067544234715488e+00 1.8343268385606137e+01 6.4920830324940972e+00 0 0 0
675 2 1.8141975519483375e+00 5.7939990853143089e+00 7.0251492978388119e-01 0 0 0
279 2 8.8013124102972391e+00 1.8761800605787954e+01 7.1205429337432609e+00 0 0 0
283 1 7.2857962262898361e+00 1.5253560656676651e+01 2.3352016885120328e+00 0 0 0
284 2 7.5975853299509675e+00 1.5600769021432344e+01 3.1793258312349737e+00 0 0 0
285 2 7.3940916007587312e+00 1.4191670091571218e+01 2.3943725579448212e+00 0 0 0
109 1 2.4281463158596872e+00 9.3499530888387135e+00 4.0875315392828349e-01 0 0 0
325 1 2.9623935403384221e+00 2.4453297163013428e+00 6.9839618109961989e+00 0 0 0
326 2 2.6876232619787541e+00 3.3678407118439564e+00 6.7340710837161142e+00 0 0 0
327 2 3.8893017640673127e+00 2.4286370146282228e+00 7.2159572758501680e+00 0 0 0
329 2 4.1923016475508472e+00 2.6684488167709230e-01 9.2480135775915997e+00 0 0 0
337 1 4.5555307895147346e+00 5.8672156443134149e+00 8.4527323880986991e+00 0 0 0
338 2 4.3650298174005773e+00 5.0528118857701170e+00 9.0689574891075448e+00 0 0 0
339 2 4.3644527253543837e+00 6.6877437763129652e+00 8.9403637892312435e+00 0 0 0
343 1 9.0954803689819186e-01 5.9027792113814588e+00 8.3926585080094629e+00 0 0 0
344 2 1.1079120830071711e+00 5.4241533137943057e+00 9.2403792521774637e+00 0 0 0
345 2 1.6798254493242437e+00 5.7407566674050967e+00 7.8591631299018037e+00 0 0 0
355 1 1.0076774537043902e+00 1.8828646946702989e+00 8.8719604661572564e+00 0 0 0
609 2 7.4778399805689642e+00 1.5911288256351110e+01 9.5723172104973440e+00 0 0 0
357 2 1.6981041635259553e+00 2.0340158668030801e+00 8.1665679406288252e+00 0 0 0
358 1 5.6286883308611122e+00 2.1661057087805906e+00 6.7638981066944366e+00 0 0 0
359 2 5.7956007100469709e+00 3.0996455775984337e+00 6.4468431537437620e+00 0 0 0
360 2 5.8126556439134704e+00 1.5786474264034562e+00 5.9897641354250339e+00 0 0 0
361 1 9.1927474344557396e+00 2.7116449465094248e+00 6.7876261159266358e+00 0 0 0
362 2 9.0532226547772563e+00 2.0981193700698029e+00 5.9958731385147139e+00 0 0 0
363 2 8.6860276800100618e+00 2.3272138967062173e+00 7.5273356706435601e+00 0 0 0
443 2 7.7728130575363996e-01 1.0190411088977013e+01 9.9716773606611806e+00 0 0 0
379 1 7.4545890507263177e+00 5.7339585969424487e+00 8.5678861985521397e+00 0 0 0
380 2 7.4231719215362775e+00 6.6595370791000095e+00 8.9243276031062138e+00 0 0 0
381 2 6.5503522091074062e+00 5.5894068554807728e+00 8.3677327911553920e+00 0 0 0
391 1 7.5008930098753535e+00 1.9633565465371108e+00 8.8999196355192431e+00 0 0 0
392 2 7.5009265027186345e+00 2.6635024938311873e+00 9.5765332311845377e+00 0 0 0
393 2 6.7134282618913392e+00 2.1037048317971521e+00 8.3925234382796177e+00 0 0 0
254 2 8.5026221945112930e+00 1.5719982457426262e+01 1.0090314900285260e+00 0 0 0
433 1 2.7588428776469125e+00 9.0436845819827152e+00 7.2653963763005338e+00 0 0 0
434 2 2.6379473467172003e+00 1.0016638937057650e+01 7.0926554693299817e+00 0 0 0
435 2 2.3702362260777567e+00 8.8275700397722439e+00 8.1596993449847979e+00 0 0 0
111 2 1.9632928659444568e+00 8.9330826620868287e+00 1.1405126204549263e+00 0 0 0
445 1 4.5951163291023809e+00 1.2411411288335538e+01 8.3815260000620935e+00 0 0 0
446 2 4.4003307821259368e+00 1.3157434957642785e+01 9.0129028819939627e+00 0 0 0
447 2 3.8217509361548565e+00 1.2433400032973047e+01 7.7781825783948948e+00 0 0 0
139 1 5.4888843636025242e-01 8.3623826038367000e+00 2.4931452958839984e+00 0 0 0
451 1 7.7427966849162588e-01 1.2687617510211659e+01 8.5787951414356467e+00 0 0 0
452 2 8.4882811982811135e-01 1.3710468966624264e+01 8.6312702631414275e+00 0 0 0
210 2 6.6914254932973860e-01 7.4564016439557141e+00 5.2300483387836829e+00 0 0 0
356 2 8.9194300132811710e-01 9.1123191978834173e-01 8.8202259719427420e+00 0 0 0
466 1 5.6325964197109251e+00 9.1211870023632500e+00 7.3206611776746326e+00 0 0 0
467 2 5.9179758766207806e+00 8.4818829085020120e+00 6.5758862654095074e+00 0 0 0
468 2 4.7221186321995416e+00 8.9530904044704531e+00 7.5345693552616497e+00 0 0 0
469 1 9.3317991858408771e+00 9.4521218019432833e+00 7.3647587673633739e+00 0 0 0
61 1 9.4421973304957127e+00 5.5228889657159712e+00 6.4826397552903616e+00 0 0 0
471 2 8.7629240974345244e+00 9.1129094350716713e+00 8.1059765130715320e+00 0 0 0
143 2 4.2237492839239801e+00 9.6658507662537865e+00 7.0272881082024352e-01 0 0 0
487 1 7.4087249989574486e+00 1.2428219900247344e+01 8.9453606189308044e+00 0 0 0
488 2 7.7948445530340518e+00 1.2443326955961256e+01 7.9994622178810380e+00 0 0 0
489 2 6.4460081388281374e+00 1.2341342193510403e+01 8.6568333094907448e+00 0 0 0
499 1 7.3702220556793376e+00 8.4351678829999894e+00 9.0745678895931885e+00 0 0 0
500 2 7.4230608738616235e+00 9.0808210021285394e+00 9.7725950213184962e+00 0 0 0
501 2 6.5873229151206010e+00 8.6771459966697311e+00 8.4399163585959496e+00 0 0 0
444 2 1.1164860454560284e+00 1.1651242720078965e+01 9.6976298488411263e+00 0 0 0
818 2 9.6803745237700127e+00 1.2404307066254100e+01 2.7865246665824650e-01 0 0 0
541 1 2.4088168716708362e+00 1.5748065062731902e+01 7.1374638795298022e+00 0 0 0
542 2 1.5389241788817567e+00 1.5775443087352228e+01 7.6335656242076650e+00 0 0 0
543 2 2.2060984898844715e+00 1.5177846426717830e+01 6.3193740465436319e+00 0 0 0
553 1 4.8821746398137371e+00 1.8709487824428727e+01 8.4469345461004277e+00 0 0 0
554 2 5.7735848335233602e+00 1.9009135361077909e+01 8.2235818225845190e+00 0 0 0
555 2 4.3184738507340388e+00 1.8801090132859279e+01 7.6476126977880963e+00 0 0 0
463 1 7.4951110318347669e-01 8.5610963857996918e+00 9.0343912986860619e+00 0 0 0
559 1 8.2621201922347842e-01 1.8854889222725870e+01 8.5887605244335425e+00 0 0 0
560 2 1.5367515303142405e+00 1.8655150935418984e+01 7.9655277035439855e+00 0 0 0
561 2 1.1042713039526260e+00 1.8280733503183111e+01 9.3189564067681143e+00 0 0 0
571 1 2.6785633439478634e-01 1.5412596470710056e+01 8.8300992967080774e+00 0 0 0
574 1 5.1354719563794706e+00 1.5544893827107559e+01 7.2715748839429928e+00 0 0 0
575 2 5.7226163183526033e+00 1.5399509719718587e+01 7.9816768428039042e+00 0 0 0
576 2 4.2233729437788989e+00 1.5356798457968390e+01 7.5922129339543387e+00 0 0 0
577 1 8.4723547401975523e+00 1.5702310002372331e+01 6.7521349232241334e+00 0 0 0
578 2 8.6463191877312795e+00 1.6655726745701624e+01 6.5183152825959736e+00 0 0 0
579 2 7.8718689691054591e+00 1.5707448226939992e+01 7.5375418934170133e+00 0 0 0
558 2 3.9466452068038955e+00 1.7561901198360655e+01 9.5017175060536285e+00 0 0 0
595 1 7.7004431356632841e+00 1.9057208087531876e+01 8.3020959702697468e+00 0 0 0
596 2 7.6544803693448866e+00 3.7093641146121015e-01 8.5250353568471766e+00 0 0 0
597 2 7.7895646980102891e+00 1.8465910138762112e+01 9.0799173595774256e+00 0 0 0
607 1 7.0268413982775177e+00 1.5213997703828147e+01 9.0452676611682410e+00 0 0 0
608 2 7.4445732814805403e+00 1.4447428291581790e+01 9.4392719900094271e+00 0 0 0
34 1 5.1991941786030456e+00 2.5629132064766180e+00 5.6417838305005796e-01 0 0 0
62 2 9.1183755102985451e+00 4.6749403884296594e+00 6.1293824354645787e+00 0 0 0
1 1 2.5377218500102230e+00 2.9054642561216686e+00 7.4100048507448391e-01 0 0 0
711 2 8.3859176215499946e+00 5.7527857186071500e+00 6.8233584769501565e-01 0 0 0
342 2 3.8747039057096062e+00 2.9588311439499400e+00 9.9782036577670201e+00 0 0 0
372 2 7.6610168623698955e+00 4.8009541952486394e+00 9.8453281964123676e+00 0 0 0
479 2 8.0104808854244531e+00 1.1535673726952746e+01 1.0090616946400305e+01 0 0 0
142 1 5.1483141971286921e+00 9.6052727442904935e+00 4.8680172027316615e-01 0 0 0
335 2 1.0752426024389481e+00 3.2124925283742001e+00 9.8903838586826680e+00 0 0 0
927 2 8.7919813570804717e+00 1.9212362625890627e+01 7.0925306521333709e-01 0 0 0
674 2 2.6514299556681107e+00 4.5731135365716806e+00 2.4698618574894965e-01 0 0 1
328 1 3.8750382637209393e+00 1.0805427228835813e+00 9.7403543255138789e+00 0 0 0
891 2 3.3670626296535340e+00 1.9068076228732817e+01 3.5631197250023466e-01 0 0 0
38 2 9.8041783018704560e+00 2.7836946209335460e+00 4.4704552304701417e-01 0 0 0
442 1 1.2564461502603783e+00 1.0948955552697518e+01 1.0368855762870329e+01 0 0 0
340 1 3.8258658257126488e+00 3.8688163766036725e+00 1.0317364948737508e+01 0 0 0
370 1 7.5918006486667906e+00 4.1293354823889228e+00 1.0588929675490997e+01 0 0 0
798 2 9.7078599310860536e+00 7.5394397468644598e+00 1.7600686087087922e+01 0 0 0
384 2 8.9077893048335284e+00 9.8567459669765922e-01 1.1085652770454269e+01 0 0 0
775 1 5.9786237517495655e-01 1.2431338553232646e+01 1.5809705496305650e+01 0 0 0
810 2 9.6671279970941182e+00 1.0525703902128203e+01 1.7601799922778866e+01 0 0 0
545 2 3.4351652170677425e+00 1.4139116771377697e+01 1.0664166171761883e+01 0 0 0
331 1 5.6586737245061638e+00 4.5549051639796865e+00 1.2381864353303024e+01 0 0 0
332 2 6.4710100966801658e+00 4.5116384712806701e+00 1.1814116312724908e+01 0 0 0
333 2 4.8898079215957733e+00 4.5011376987096261e+00 1.1754475555582799e+01 0 0 0
707 2 8.9806029926874071e+00 1.0465595889610977e+00 1.8047222042875916e+01 0 0 0
902 2 8.9813930551689403e+00 1.6947406021937713e+01 1.3511623018562222e+01 0 0 0
793 1 9.5969238435856656e+00 9.6039338258045444e+00 1.4080414591348196e+01 0 0 0
346 1 2.0751073965409681e+00 3.6444785667819013e-01 1.1721468750514916e+01 0 0 0
347 2 2.5724340975918922e+00 4.8856003053922348e-01 1.0938235264178971e+01 0 0 0
348 2 2.1333809230893417e+00 1.1358884955397250e+00 1.2323200404909063e+01 0 0 0
349 1 2.4818459221595144e+00 5.2018250567867721e+00 1.3580315525822835e+01 0 0 0
350 2 2.3940751865297929e+00 5.7237437815833454e+00 1.2794351635019193e+01 0 0 0
351 2 2.3456736894112282e+00 4.3128715940396019e+00 1.3262095657693221e+01 0 0 0
352 1 5.6956372136003512e+00 8.5260615088091307e-01 1.2542427630447117e+01 0 0 0
353 2 6.6088477800306009e+00 9.3703518323478652e-01 1.2257118120066188e+01 0 0 0
354 2 5.4740167085064853e+00 1.9512751767544309e+01 1.2501152066940868e+01 0 0 0
905 2 9.7201282574588586e+00 1.4364944603914218e+01 1.7450066866050136e+01 0 0 0
382 1 8.2823397806923769e+00 7.6849573540944505e-01 1.1886216397503496e+01 0 0 0
383 2 8.7444136045814655e+00 6.0542079727156473e-02 1.2359863737738687e+01 0 0 0
926 2 8.8950846990070360e+00 1.7752990511766452e+01 2.0264020203053654e+01 0 0 0
385 1 8.4573617642651211e+00 5.2102264991175922e+00 1.3599621452340433e+01 0 0 0
336 2 4.2232890102531973e-01 4.0748356276417779e+00 1.1194560507229344e+01 0 0 0
387 2 7.8894856363680654e+00 5.3575985097706216e+00 1.4366181734276148e+01 0 0 0
788 2 2.0161496905179341e-01 8.6876547479416484e+00 1.5219413293473876e+01 1 0 0
146 2 9.0965216846157553e+00 1.0008335159779518e+01 2.0196405839683109e+01 0 0 0
439 1 6.1921436357973354e+00 1.1157679761278072e+01 1.2500671952381902e+01 0 0 0
440 2 6.1781041776161230e+00 1.2111004253580361e+01 1.2546798907601179e+01 0 0 0
441 2 5.3974933708837050e+00 1.0924605530756589e+01 1.2024258329696751e+01 0 0 0
586 1 7.7840622699284765e+00 1.7350493826839152e+01 1.0482288912384931e+01 0 0 0
454 1 2.3358104837422116e+00 7.1096687376593808e+00 1.1859694322023868e+01 0 0 0
455 2 2.9071599743033305e+00 7.3624683581865025e+00 1.1090874447259125e+01 0 0 0
456 2 2.4357444860735491e+00 7.6746799576359592e+00 1.2584683577298611e+01 0 0 0
457 1 2.5016739570832307e+00 1.1690947465848195e+01 1.3518835022110046e+01 0 0 0
458 2 3.2741992032890246e+00 1.1913813650239323e+01 1.4036258818819507e+01 0 0 0
459 2 1.7354549602219649e+00 1.1924512244352327e+01 1.4100472655849160e+01 0 0 0
460 1 5.8795140939124160e+00 7.1835009312303315e+00 1.2067308958538893e+01 0 0 0
461 2 5.8749488400176544e+00 6.2154787552545532e+00 1.2240343446794405e+01 0 0 0
462 2 6.8217043834948559e+00 7.4813821105646285e+00 1.1846580015639276e+01 0 0 0
552 2 2.0821442279584161e+00 1.7115695521229924e+01 1.0960528414600320e+01 0 0 0
480 2 7.6748914007996856e+00 1.0816851455759076e+01 1.1556213323831345e+01 0 0 0
709 1 8.9042005119904655e+00 5.3443950768694801e+00 2.0493137838757086e+01 0 0 0
490 1 8.6697144931806456e+00 7.7017459785658993e+00 1.1975628335552200e+01 0 0 0
491 2 8.8695933640901838e+00 6.9565155190792076e+00 1.2548995385714475e+01 0 0 0
492 2 9.0318035988908250e+00 8.5563478593951316e+00 1.2387592913062429e+01 0 0 0
493 1 9.5263254075836432e+00 1.2147342792416939e+01 1.3295928407585036e+01 0 0 0
494 2 8.6215382244976109e+00 1.2382179790764969e+01 1.3719871805274686e+01 0 0 0
495 2 9.4091285649477641e+00 1.2414753158214037e+01 1.2340074415725923e+01 0 0 0
330 2 4.5388843971812429e+00 1.1612789434251227e+00 1.0494801874715749e+01 0 0 0
386 2 8.5017225501343745e+00 4.2213785397049994e+00 1.3658123930310490e+01 0 0 0
145 1 9.0352697144994192e+00 9.0411180491980883e+00 2.0413173758014402e+01 0 0 -1
677 2 5.3656683526776039e+00 1.3593925846602208e+00 1.9815489827715616e+01 0 0 0
533 2 5.7706352972506825e-01 7.2393555323816674e+00 1.1568458701714654e+01 0 0 0
681 2 7.7830502758431308e-01 8.1256774462295123e-01 1.5853181981772101e+01 0 0 0
547 1 5.6155095649001092e+00 1.7922861412292534e+01 1.2342921437011137e+01 0 0 0
548 2 4.9751109963064968e+00 1.7619823583684738e+01 1.1640040442476431e+01 0 0 0
549 2 5.5476523663039297e+00 1.7293183743066677e+01 1.3115717651411344e+01 0 0 0
925 1 9.1480496165598009e+00 1.8632557745853290e+01 2.0362241630933433e+01 0 0 0
562 1 2.3488985252722627e+00 1.3788285780177201e+01 1.1955796402079129e+01 0 0 0
563 2 1.4295290672759109e+00 1.3903608151597618e+01 1.1709187528872253e+01 0 0 0
564 2 2.4496733647291578e+00 1.2906315894455988e+01 1.2497814442315098e+01 0 0 0
565 1 2.5152123014079213e+00 1.8288671213061729e+01 1.3572252196406142e+01 0 0 0
566 2 2.2578952994553219e+00 1.9008802746607500e+01 1.2888495260083582e+01 0 0 0
567 2 3.2231328591822930e+00 1.8634096888208443e+01 1.4120509833132338e+01 0 0 0
568 1 6.1333902594623080e+00 1.4028440970681979e+01 1.2092432077938691e+01 0 0 0
569 2 7.0831281799821832e+00 1.4056908786522603e+01 1.1853688506846703e+01 0 0 0
570 2 6.0550362869538539e+00 1.4694013073741861e+01 1.2793064727799081e+01 0 0 0
551 2 5.0126392480733228e-01 1.7304802710709630e+01 1.1416758662488251e+01 0 0 0
448 1 3.9603333377972598e+00 1.0715133850380520e+01 1.0524838280995709e+01 0 0 0
588 2 7.2323668640368481e+00 1.7544545323335566e+01 1.1244336036536806e+01 0 0 0
598 1 8.5657632345810466e+00 1.4313501094610634e+01 1.1196120200913661e+01 0 0 0
782 2 2.0655150095360582e+00 1.1395572498380096e+01 1.9463225969070614e+01 0 0 0
600 2 8.6760130752530973e+00 1.4915410378436714e+01 1.1954237733005474e+01 0 0 0
601 1 9.0397460222581785e+00 1.8702095743864284e+01 1.3979036897193863e+01 0 0 0
603 2 8.3178541962148813e+00 1.8728226383236070e+01 1.4605678141633964e+01 0 0 0
144 2 5.1922947655572935e+00 1.0149359647039304e+01 2.0351908237632941e+01 0 0 0
685 1 8.7325324967923912e+00 2.6368329262628785e+00 1.3762581029190759e+01 0 0 0
649 1 2.4329427269133781e+00 2.2328617405520634e+00 1.3673724406636218e+01 0 0 0
650 2 3.2254088562847403e+00 2.5204486233818408e+00 1.4122338587098366e+01 0 0 0
651 2 1.7471742777875692e+00 2.4060572539654648e+00 1.4331026272364211e+01 0 0 0
652 1 3.9446308695665291e+00 1.5635722919540611e+00 1.7262267351944189e+01 0 0 0
653 2 4.1553470271628132e+00 2.5055309799894148e+00 1.7337269026306878e+01 0 0 0
654 2 4.5277115429104375e+00 1.2340900600720919e+00 1.7978063492484736e+01 0 0 0
655 1 5.4490384830441601e+00 4.5245975677836068e+00 1.9295406429288107e+01 0 0 0
656 2 5.6485992187848995e+00 5.5454092187412787e+00 1.9327854067837649e+01 0 0 0
657 2 6.2288461196374749e+00 4.2754448108737915e+00 1.8741549559643737e+01 0 0 0
658 1 9.2453288914600129e-01 3.9311140493266929e+00 1.7708866198279864e+01 0 0 0
659 2 6.2722031408498302e-01 3.1489889699713087e+00 1.7198337224244789e+01 0 0 0
660 2 1.0474089818973533e+00 4.6764936326386213e+00 1.7021284658714293e+01 0 0 0
661 1 4.5303246358971823e+00 5.7463805117055751e+00 1.5278825738549873e+01 0 0 0
662 2 4.3113677748711474e+00 5.0143251827374442e+00 1.5955226025054699e+01 0 0 0
663 2 3.9435145669958596e+00 5.5453208409018604e+00 1.4498164895587985e+01 0 0 0
664 1 3.6770319791542092e+00 4.3626443458649931e+00 1.7365967399542086e+01 0 0 0
665 2 2.7891895572783389e+00 4.1015949850339393e+00 1.7630435442965087e+01 0 0 0
666 2 4.2581924181340893e+00 4.3900399668007735e+00 1.8158869344639172e+01 0 0 0
667 1 9.4322650723236401e-01 5.6995278750926559e+00 1.5666847764364737e+01 0 0 0
668 2 9.2609495053957280e-01 6.6583932950473619e+00 1.5750568250784816e+01 0 0 0
669 2 1.2789734781894848e+00 5.4108457905367917e+00 1.4812984521568648e+01 0 0 0
670 1 1.6955128932122991e+00 1.0618307247169412e+00 1.8782165129110915e+01 0 0 0
671 2 1.9722193267436863e+00 1.5346544375169737e+00 1.9574651373985745e+01 0 0 0
672 2 2.3939930602260953e+00 1.2527066881609539e+00 1.8154627851570680e+01 0 0 0
676 1 5.5094717151265264e+00 7.6726769708225429e-01 1.9028778473524724e+01 0 0 0
550 1 1.1223276259757329e+00 1.6945275194765621e+01 1.0729528273614724e+01 0 0 0
678 2 6.4669889000574141e+00 7.2130754790217799e-01 1.8772564491522935e+01 0 0 0
679 1 7.5123887584292781e-01 1.7998518357312105e+00 1.5788027796312866e+01 0 0 0
426 2 2.4149571030237144e-01 5.6901266012779983e-01 1.1773029763430195e+01 0 0 0
933 2 8.0632610833356360e+00 1.5709447408774814e+01 1.4997893207045580e+01 0 0 0
682 1 5.1031495973124734e+00 2.6535097095719324e+00 1.4341105978529919e+01 0 0 0
683 2 5.3697105711907893e+00 3.5060887825929772e+00 1.3909540375181523e+01 0 0 0
684 2 5.3174316593540096e+00 1.9604985446181391e+00 1.3650561177935284e+01 0 0 0
449 2 3.0063083145014105e+00 1.0867701389684525e+01 1.0659129402787132e+01 0 0 0
687 2 8.6683478915318517e+00 2.0300544374401905e+00 1.2934700332061867e+01 0 0 0
694 1 7.3245620761478989e+00 4.0236741892772354e+00 1.7441873615222256e+01 0 0 0
695 2 8.2809065112303042e+00 4.0523567390123949e+00 1.7698194394294916e+01 0 0 0
696 2 7.1539332688915707e+00 3.2871097652655585e+00 1.6834633852406398e+01 0 0 0
703 1 7.0047339423304402e+00 5.9335980656016467e+00 1.5826243048139695e+01 0 0 0
704 2 7.0985057729832004e+00 5.2561708027984304e+00 1.6519547466667667e+01 0 0 0
705 2 6.0812132291689158e+00 5.9205050766873235e+00 1.5439754956062162e+01 0 0 0
706 1 8.2076752649410292e+00 7.1282435407627542e-01 1.8435771590725516e+01 0 0 0
478 1 8.2918312730187953e+00 1.0802499121313840e+01 1.0757361217950884e+01 0 0 0
708 2 8.4134598596156280e+00 1.9517162196191503e+01 1.8894597538768792e+01 0 -1 0