LAMMPS data file via write_data, version 8 Apr 2021, timestep = 1700000

1008 atoms
2 atom types

0.21797766646894567 18.181577333532452 xlo xhi
0.042419736122660694 22.52796926388717 ylo yhi
0.21593560253259828 19.28978039746259 zlo zhi
0.13772233698850903 -6.763168448563347 0.009429362667052655 xy xz yz

Masses

1 16
2 2

Atoms # atomic

1 1 6.461974949506224 0.8251972717171137 4.871247733877702 0 0 0
3 2 6.698860423712604 1.354128068251559 4.083108854062931 0 0 0
4 1 3.671907596765915 0.9026621408983582 5.260657500695903 0 0 0
6 2 3.666033651148704 1.2352060553681687 6.183311975139811 0 0 0
7 1 -0.1406446379054671 6.367625762355721 5.580715540777392 0 0 0
8 2 -0.34676516050714346 5.9033313772303035 6.421117902315427 0 0 0
10 1 2.3541295935594424 6.086796392306462 4.982053620853176 0 0 0
11 2 1.345826008725752 6.290654317660452 5.293034192258849 0 0 0
12 2 2.8182262122290473 6.9322182514880115 5.095683420186177 0 0 0
18 2 5.920703079687803 5.025188989093864 1.3758134784040386 0 0 0
25 1 4.943897135562107 6.407741732655738 7.207904982892016 0 0 0
26 2 5.514831613405438 7.115792783462219 7.593630073758668 0 0 0
27 2 4.022826210935736 6.710747604532379 7.417177458138598 0 0 0
28 1 6.028383795231001 6.627538791928339 2.5724461900669917 0 0 0
29 2 5.907628108776564 6.3290595104025575 3.4657638036585845 0 0 0
30 2 5.272501974902319 7.29616301584747 2.4080184308350803 0 0 0
31 1 1.1613543223794034 1.0412192223490486 2.575452879895993 0 0 0
33 2 1.2906126418851263 1.2792485982142294 3.5241133102178326 0 0 0
34 1 0.24744123166938745 1.2306505148695077 7.3385823181246375 0 0 0
36 2 0.3325384026613094 1.8008565636144966 8.151667382455452 0 0 0
37 1 6.283309888106533 2.4696603957632193 2.4229246213048463 0 0 0
38 2 5.451865770182826 2.919155545272803 2.680587127307356 0 0 0
39 2 6.919838828818845 3.161076031391152 2.672423444709579 0 0 0
40 1 3.9774639599345956 2.3321683131213953 7.2462189338717335 0 0 0
41 2 4.880871877854499 2.674910735310792 7.047980756779853 0 0 0
42 2 3.337869484483983 3.065072375795179 7.217056880928837 0 0 0
43 1 -0.16527204768623782 4.623147730177947 7.47568557845798 0 0 0
44 2 -0.9209725155408439 4.143591629367272 7.05207765504847 0 0 0
45 2 -0.5532810249435117 4.93019484599751 8.349415986254519 0 0 0
46 1 1.9024089211482025 4.830699057448995 2.747418459134876 0 0 0
47 2 0.9972222665254689 4.616016253959333 2.6439668285538374 0 0 0
48 2 2.0717291495149386 5.384072226586427 3.5687402826560524 0 0 0
49 1 6.574301604656123 3.155296716832529 6.0942973524937445 0 0 0
50 2 6.17468439052694 3.777097821100095 5.373607276039802 0 0 0
51 2 6.687504696142081 2.273064333739132 5.672182097316311 0 0 0
52 1 3.860817080046503 3.4035485706368904 3.4933558881009508 0 0 0
53 2 2.9199072106940935 3.706285525297294 3.2758698728075952 0 0 0
54 2 3.6974239291849127 2.603008752712618 4.020438512490988 0 0 0
57 2 -0.4494074323192385 3.53056265130218 4.032367755661185 0 0 0
58 1 2.302145738955537 4.116790372245037 6.908530657489315 0 0 0
59 2 2.443120940550608 4.7411434904840295 6.159079677333496 0 0 0
60 2 1.4203055296270708 4.430339296013839 7.261836533482744 0 0 0
61 1 8.414155330673449 7.019382329042164 1.4867289109310344 0 0 0
62 2 7.573585402012789 6.692897139226253 1.8746845819041031 0 0 0
64 1 2.183693234614811 7.22827563324217 8.15960388790524 0 0 0
65 2 1.2474280579934012 7.49007066611912 7.865743138540107 0 0 0
72 2 3.6896175630098385 1.3007452463047213 1.3370051177124083 0 0 0
73 1 5.436141575024898 5.157625385395188 4.795826507742684 0 0 0
74 2 5.20411521467372 5.650296177401179 5.555805508993145 0 0 0
75 2 4.658129208583986 4.653003898114319 4.493383703792843 0 0 0
76 1 0.5814623555325813 2.6103362304565683 5.095209946896602 0 0 0
77 2 0.17743113821239132 2.0535761950324036 5.781308187016911 0 0 0
78 2 1.2455532654850774 3.166373178164447 5.607994925817441 0 0 0
91 1 8.269000419642463 6.401753741796631 4.975566590966469 0 0 0
92 2 8.057227718215767 5.682542036542277 4.301168689329401 0 0 0
93 2 9.2893763883836 6.418174567828166 4.926363461774281 0 0 0
115 1 10.314117401151611 1.0704763448575136 2.6139612131168684 0 0 0
116 2 10.117406012150763 1.7699771164741571 1.925987946797752 0 0 0
118 1 9.341275632585269 1.1667081429171031 7.316567540594732 0 0 0
127 1 8.291596463319797 4.80994050896638 7.383625365258635 0 0 0
128 2 7.718749811015497 4.050513456307119 7.123644697909799 0 0 0
129 2 8.100708754497589 5.452149827742481 6.73754318861643 0 0 0
130 1 11.029745516380427 4.810832974124066 2.2690928235545313 0 0 0
139 1 8.395419791221435 4.256509417943019 3.1207537654950865 0 0 0
140 2 9.103230004885221 4.598838225848681 2.5056557964985178 0 0 0
141 2 8.712726322878144 3.7172849230449816 3.838746643260382 0 0 0
153 2 6.771533942212713 1.46880772727787 8.304927775077369 0 0 0
160 1 9.475947963336067 2.3585483643905993 4.905004815318662 0 0 0
162 2 9.556742215431541 1.7342866074435859 4.159526357848568 0 0 0
169 1 6.800530786038314 8.709640039002375 4.927306891778851 0 0 0
170 2 7.315383541848833 7.9084116387711925 4.847175326531713 0 0 0
171 2 7.208976441270844 9.190521383063762 5.659474542843161 0 0 0
172 1 4.032643253153079 8.17938943699252 4.832617279827725 0 0 0
173 2 3.8369479736381193 9.085903461803536 4.453116305909672 0 0 0
174 2 4.972227748666825 8.236924115397011 5.030115868108939 0 0 0
199 1 1.352968176738467 8.49982537221477 2.947650399098426 0 0 0
200 2 1.2039197953678826 9.24941737296409 2.3411848595447546 0 0 0
201 2 0.6617064634643292 7.851840930594923 2.8662535089315373 0 0 0
202 1 -0.08073257307676512 9.082007787329012 7.569265399607673 0 0 0
203 2 -0.9600743450286058 8.755295556527924 7.7587712547017444 0 0 0
204 2 -0.019419475302514505 9.311459965691512 6.647012036731727 0 0 0
205 1 6.368967641623211 10.389432326945501 2.9398740942218375 0 0 0
206 2 6.434209807038073 9.687597215575133 3.6047381062892137 0 0 0
207 2 6.673644222669633 9.900055700432176 2.164544807001211 0 0 0
208 1 4.272177886471551 9.736705796041338 7.244322937477135 0 0 0
210 2 3.907351905332591 9.18490903712373 6.507720909654892 0 0 0
238 1 3.8342277845970747 8.076711947783211 1.5146517240157737 0 0 0
239 2 3.0638590618805583 8.074734216636521 2.1183814927404154 0 0 0
240 2 3.932630276968222 8.987617146206906 1.325223322811336 0 0 0
244 1 0.6617281027934503 10.077151081986791 4.960536828630785 0 0 0
245 2 0.9246520735371049 9.395476209944988 4.350135040400871 0 0 0
283 1 10.361802491245719 8.687064844332978 2.454758930515107 0 0 0
284 2 10.383499043621457 8.864195228580543 3.365171776250131 0 0 0
285 2 9.758725082776381 7.945630256952738 2.3786326026207316 0 0 0
288 2 8.217007039501933 8.640131943325073 7.581409224509081 0 0 0
319 1 6.688809730613913 7.892240015066099 8.422642350863013 0 0 0
329 2 9.707981245907076 9.333126203738884 5.6041337165411855 0 0 0
330 2 9.425481324620177 10.464767594731317 4.610230900770872 0 0 0
14 2 5.1166477336476355 5.455690852697463 8.419172196150988 0 0 0
66 2 2.516924224997677 8.012369918523806 8.718843315166323 0 0 0
21 2 0.8145940419291784 2.272934516491183 1.395899043748932 0 0 0
132 2 10.958589736231223 5.404473973340809 3.1058771876575504 0 0 0
286 1 9.026960596130108 9.198527506837097 7.4060571758806 0 0 0
328 1 10.16476777572471 9.91952210911446 4.982960865053726 0 0 0
94 1 11.050453951733555 6.398261020987702 4.646843428330736 0 0 0
119 2 9.45927782570557 1.7398545275895978 8.101904514619573 0 0 0
131 2 11.650600152597729 4.0885969215986675 2.457292973678805 0 0 0
161 2 10.247569321372112 2.8879144959387446 4.932363493386059 0 0 0
287 2 9.687634834751607 8.464264702733022 7.375759976349235 0 0 0
96 2 11.295372296244127 5.6409094195521945 5.185212972669111 0 0 0
5 2 4.5834082888449945 0.7033761611178193 5.167981976135893 0 0 0
324 2 12.754892940711903 7.1610757467870405 0.8864429942583589 0 0 0
272 2 10.052091856714531 10.125078962836827 1.2058600601727565 0 0 0
323 2 12.04101917534779 7.942953913741136 2.132056000504146 0 0 0
144 2 10.484912174136802 4.565982763321853 6.75402787011699 0 0 0
142 1 11.202967719246788 4.281176419474199 6.16232873702791 0 0 0
95 2 11.816023056009255 7.002380747610208 4.855744858565012 0 0 0
322 1 12.866934093635205 7.821481355531395 1.654831282341039 0 0 0
320 2 6.4627510204664045 8.657796805045805 9.016151059463809 0 0 0
321 2 7.15032937102929 7.244129862662371 8.959950728578724 0 0 0
276 2 9.375173848679639 10.050824737007787 8.745356927114338 0 0 0
192 2 0.45044288315456493 10.386900093622591 8.783459097578797 0 0 0
32 2 2.0991528033640554 0.8253199401473101 2.339116045282732 0 0 0
120 2 9.256341745372579 1.789881446503311 6.546451006792112 0 0 0
155 2 12.98621976646829 1.3079005305548488 1.1209576099463956 0 0 0
148 1 10.837363773953962 7.282672973499577 8.191760936874948 0 0 0
149 2 10.851323777146137 6.3153764704076805 8.518752245611546 0 0 0
136 1 12.845277601583833 3.2789714766921962 3.408968129752306 0 0 0
143 2 11.895578515812323 4.004830013892418 6.751250340691795 0 0 0
89 2 12.778434311074822 1.878281521531392 4.342572002310533 0 0 0
258 2 12.766859098284877 9.26893507689195 4.502284591099715 0 0 0
88 1 12.694850374185538 1.18236676094595 5.029233603076572 0 0 0
137 2 13.128347418900434 3.933345056442007 4.060381639739272 0 0 0
150 2 11.33760599355602 7.836761744207611 8.834146584191227 0 0 0
256 1 12.928670255120696 8.58633464681994 5.159302772660933 0 0 0
113 2 14.108499863334272 6.823821929495771 2.461449932110103 0 0 0
138 2 13.635117607692003 2.990140698796777 2.9096978312420805 0 0 0
671 2 8.42870863174663 5.564069832962476 8.920616080608196 0 0 0
63 2 8.627137146531526 6.298887264252242 0.8636915981959435 0 0 0
246 2 1.4442158210927012 10.596072923257754 5.35978632525471 0 0 0
167 2 11.3435631035625 5.675459992562577 0.53396287202898 0 0 0
753 2 4.037068779748614 9.42457414623307 9.03944751959384 0 0 0
80 2 6.332376048201498 1.5463477355964133 0.8899218190511321 0 0 0
9 2 -0.6819135395460599 7.186521920556293 5.636139028319237 0 0 0
585 2 3.9888505016473252 1.8629131066578335 9.106264967900799 0 0 0
101 2 14.466716828521827 5.017693073508159 1.233249494918638 0 0 0
68 2 -2.4465429893782806 1.4438943630052152 8.79527155506588 0 0 0
219 2 6.206336459295125 10.579262168643519 7.0344442891497625 0 0 0
209 2 3.827320650436344 10.645073821223788 7.2013557583765575 0 0 0
220 1 3.6907530833705775 10.649722625890293 3.8546555983736845 0 0 0
152 2 7.5839101058204115 0.5330020576766614 7.4525172056469895 0 0 0
304 1 13.158813478388302 10.602006329619552 3.343098637847905 0 0 0
221 2 4.500105101229076 10.788076593981613 3.349026838692123 0 0 0
836 2 12.75970550451604 9.533293133026902 8.955240558289816 0 0 0
235 1 -2.4405095843606497 8.061720694330209 8.591057876891805 0 0 0
83 2 2.5970195151158175 5.315559523422662 0.9898193262214257 0 0 0
237 2 14.770384293833802 7.8109349921105915 8.119717209786375 0 0 0
16 1 5.977525937329338 4.788804071413205 0.4396839704839781 0 0 0
99 2 13.028874895573082 4.518443151547965 9.564062550979877 0 0 0
301 1 15.676534266355594 10.733086027396258 6.541265556624255 0 0 0
69 2 14.769613970432374 0.289651493431922 7.95731578837916 0 0 0
100 1 14.655877339212882 4.631604435203673 0.3733478774874851 0 0 0
306 2 14.041858691377948 10.477808310999878 2.9659497942722037 0 0 0
126 2 12.763164110144245 2.1914994448161225 6.654202801670432 0 0 0
111 2 12.681068218247635 7.14318883193254 7.733238005680883 0 0 0
257 2 13.874720010890597 8.36771488397088 5.045555450521596 0 0 0
90 2 13.603774806953266 0.8213936608506904 5.00620717031219 0 0 0
294 2 13.023965630768407 9.524161617398828 6.553013568684011 0 0 0
292 1 13.225949277373532 10.123054212002279 7.369507521030497 0 0 0
158 2 14.435850668694728 5.59064523491075 4.294007221560192 0 0 0
124 1 13.13282577995908 2.5110041508664396 7.503488537111451 0 0 0
157 1 14.193938884328382 5.036606773217166 5.103114268576592 0 0 0
112 1 14.570803407355193 6.039063181551536 2.767459597353168 0 0 0
121 1 15.117049313719878 2.509176386224123 2.5009426388868747 0 0 0
159 2 13.782886080148868 5.61084275260089 5.784203609054075 0 0 0
156 2 11.950009904840163 0.792577648345635 1.9931961188246277 0 0 0
668 2 12.847301743876407 1.6810467614965106 8.90202245530335 0 0 0
67 1 -2.358169896212429 0.589432866465845 8.32303492270971 0 0 0
584 2 2.916342983231416 0.8789720062954707 9.543589048725284 0 0 0
399 2 7.915899653309353 0.09055625378683414 1.1503673481842709 0 0 0
35 2 -0.6810873263816971 0.8976357462298302 7.4098888275496595 0 0 0
135 2 15.912176549320115 2.54645225625559 5.862215941920848 0 0 0
187 1 0.8327367950904455 10.067013793435464 0.5786622766961947 0 0 0
289 1 15.686294269299934 10.008930267327578 2.72140402043543 0 0 0
117 2 9.595335300637373 0.44398033651176566 2.3779802169402187 0 0 0
305 2 12.487584566236382 10.943105558943078 2.7227234081193523 0 0 0
70 1 3.445621629547274 0.4390109687806857 1.7809645912594554 0 0 0
835 1 12.41989813022774 8.923222494620548 9.631476332772147 0 0 0
22 1 0.7166797548162458 2.5391623467974496 9.690786951799767 0 0 0
145 1 17.045248731414294 7.07897301093631 2.0422802766275487 0 0 0
122 2 15.735354571638606 3.3111374409641514 2.472827554674751 0 0 0
84 2 3.1249687354635474 6.758433500425651 0.6365836257055161 0 0 0
17 2 5.254563302801293 4.103870406320856 0.26936943689807386 0 0 0
293 2 12.777977823000706 10.943035842557993 7.1693975263999965 0 0 0
56 2 -0.8565879846066178 5.037011523615942 3.8879056446365046 0 0 0
13 1 5.171189037335543 4.942416261478231 9.317076827601122 0 0 0
55 1 -0.7945238832190538 4.172540262695153 3.421759638579136 0 0 0
110 2 13.701636637642013 6.047207350314286 8.080345697670605 0 0 0
291 2 15.774158221209495 9.791999364206774 1.764513911975629 0 0 0
123 2 15.073713036105811 2.213183643110678 1.5712301587240132 0 0 0
19 1 1.0587141121100427 2.530232802422354 0.45553816678107345 0 0 0
608 2 6.43171886601862 3.6141698023106574 9.426841731816053 0 0 0
87 2 15.593206130867172 1.2791570239170351 4.007468357913969 0 0 0
146 2 17.3589520344676 6.247493818731409 1.5041510634713244 0 0 0
236 2 -2.7140119327960943 8.831210374493468 9.125710188890931 0 0 0
86 2 16.346433053848973 0.31390610326867197 4.994437554242571 0 0 0
97 1 13.914006096437564 4.90200260962035 9.490603544263767 0 0 0
217 1 6.813126742865515 11.059313963968798 6.440041753468711 0 0 0
104 2 9.441224651822631 3.4542224871365974 0.33752502090817793 0 0 1
109 1 13.498831642011758 6.687427743740843 7.407560779125018 0 0 0
486 2 11.330565784706168 0.2246517885374706 9.079664224906658 0 0 0
290 2 16.319067419550777 10.652551380293037 2.945970575918212 0 0 0
133 1 15.77530877671225 3.3310496709644664 6.398044388215985 0 0 0
255 2 15.965183990561234 8.68969599605381 4.149319763420985 0 0 0
125 2 13.954555845418206 2.927988593352641 7.249027631177343 0 0 0
114 2 15.544554670022778 6.149516534739383 2.5046712601373424 0 0 0
151 1 6.751618641764866 0.562829516462356 7.989052029047493 0 0 0
108 2 8.623694499554913 2.792228648337582 9.561351588709817 0 0 0
601 1 17.27811118465147 4.796517794951865 0.26696063643066203 0 0 1
780 2 12.922780487540704 9.492335998277674 0.6907535314808114 0 0 0
134 2 15.3726802438461 4.019444550193181 5.8165140512832 0 0 0
103 1 10.025768985704424 2.65770142411168 0.5554501968295754 0 0 0
15 2 4.174121212212929 4.9128962068684165 9.46576984449672 0 0 0
606 2 10.309354897594963 4.222530009783252 9.386467441813387 0 0 0
253 1 15.905399190787744 8.33455943941983 5.074302529065765 0 0 0
521 2 1.9924714683414162 5.481820491840594 9.198462966875537 0 0 0
254 2 15.834818587560346 9.143106234380772 5.651809703677808 0 0 0
528 2 2.8289639608427226 2.9158752250195152 0.3881661512656618 0 0 0
85 1 15.656542588527302 1.060340269723297 4.963506079888662 0 0 0
189 2 1.704972725263602 10.42667207799057 0.4296267523693925 0 0 0
302 2 14.971476531350953 10.691728811479273 7.189264562294552 0 0 0
607 1 7.075499808756444 2.8261966733507276 9.4913039004953 0 0 0
147 2 16.808711723612408 7.694453067204824 1.3459129705115378 0 0 0
587 2 -1.4850698702170169 6.574663049036824 9.319219758485877 0 0 0
165 2 16.494243585473146 0.6359485266393528 0.7040699475815914 0 0 0
604 1 10.951007865437145 4.9664103348814885 9.40026666706415 0 0 0
311 2 10.918951127164465 11.26441538402791 5.874415061152436 0 0 0
670 1 8.249380000260825 6.134381887974046 9.73635238479273 0 0 0
20 2 0.4708048340908855 3.3266182205593493 0.4095812972596894 0 0 0
667 1 12.626780767636818 1.152680482454876 9.73421964270027 0 0 0
154 1 12.783148502685563 0.5490588376764918 1.6462279010300211 0 0 0
106 1 9.614203119654182 2.6564758001621107 9.53032838931853 0 0 0
82 1 2.9308744826427455 5.8511801264826895 0.2760643088678466 0 0 1
694 1 3.5633293466819183 10.718319668436717 0.3159482759917661 0 0 1
274 1 9.342232878344488 10.377983097517628 9.685309180357393 0 0 0
222 2 2.947510503196812 10.844612660229904 3.2269801325737695 0 0 0
247 1 7.27902732993506 9.181709729308203 0.509026643317413 0 0 0
526 1 3.815736349656036 2.6928689521920965 0.28187679783422603 0 0 1
586 1 -0.8009506518538261 5.980022332326346 9.567215650364203 0 0 0
696 2 4.432730088841643 11.178566250685188 0.4775896292227452 0 0 1
331 1 16.12691939824697 8.764421923927312 0.2441050317158032 0 0 0
248 2 7.872824259790182 8.421677366555711 0.6221956275247392 0 0 0
271 1 10.106008806795206 10.344373063310362 0.2543039925763902 0 0 0
483 2 -0.1572834912436995 0.14989801567062086 2.1993906298053103 1 1 0
309 2 7.691987142210754 11.26068528321826 3.4437806760078664 0 0 0
190 1 0.6352010392000119 10.646579418393653 9.750240069667473 0 0 0
602 2 16.37476472204706 4.5609353891569455 0.22495438582525193 0 0 0
23 2 1.374784117426927 3.254079021749653 9.745179459507801 0 0 0
102 2 13.876333517152446 4.03665915483986 0.23821413434773472 0 0 0
163 1 9.135475548056618 1.2310194044165719 19.263925612916633 0 0 -1
777 2 6.164295286210827 10.860203769646398 10.203711495352943 0 0 0
751 1 3.761487120025552 8.921422449269066 9.852950665440952 0 0 0
658 1 9.57080054354959 0.41763771719143794 11.237715462646184 0 0 0
740 2 -5.352927986652579 7.38331535506706 18.62545348938502 0 0 0
728 2 -3.4480389701588656 11.113763407169298 13.33626032425363 0 0 0
509 2 -0.40315951082806645 0.7659379582910676 14.603316077276945 0 0 0
986 2 13.63567679323223 0.14855720166450226 10.533097083781673 0 0 0
776 2 7.623322790682092 10.39010097180151 9.966130373907317 0 0 0
808 1 9.473450093979215 10.768800765332092 13.080121525655715 0 0 0
166 1 4.86284866114875 6.287970429262554 18.87868007088068 0 0 0
79 1 0.12616304005588064 1.3781110552081794 19.162379732924805 0 0 0
721 1 3.4184747645319042 10.834902957654393 15.966273626557241 0 0 0
693 2 -1.4574242654326413 10.670346563204125 10.133281365424741 0 0 0
655 1 3.2414196283726273 0.4290259333093429 18.043235638826935 0 0 0
98 2 13.892021759667372 5.6329818012682455 10.165529173424385 0 0 0
590 2 11.421461854083919 0.8337668942705733 14.738314031612793 0 0 0
794 2 12.69674961290921 10.812275000895257 12.342727192039128 0 0 0
505 1 3.1921276186778136 1.2640555381553524 14.151840530324266 0 0 0
506 2 3.3011432468905637 2.029936314071585 14.784189946857909 0 0 0
752 2 3.413807266770569 9.594119337734229 10.492260589053558 0 0 0
508 1 0.2107998857497118 1.5030202689812393 14.71550615974143 0 0 0
834 2 5.703251775603199 10.709456264722407 14.076919153959988 0 0 0
510 2 1.0353888783476153 1.2208584891455554 14.340995317374345 0 0 0
511 1 -4.013701538100349 6.760116408188415 14.899501832326656 0 0 0
512 2 -4.107693565816522 6.140724102101164 14.18574346139977 0 0 0
513 2 -4.11742237943848 6.145363603502005 15.671290642195013 0 0 0
514 1 -1.2470268521711794 6.768515980112496 14.474176427527865 0 0 0
515 2 -1.1204488156823422 6.0147243413760165 15.106684570891282 0 0 0
516 2 -2.1437166959441023 7.088740712473073 14.670090703963004 0 0 0
691 1 -2.362675754519123 10.313122652342022 10.210424351420066 0 0 0
519 2 1.85116833958533 5.284059012576354 18.044987385594595 0 0 0
828 2 8.9270519552637 8.170192531430393 11.914501836082604 0 0 0
522 2 2.172489449675375 5.165539824226472 10.721201768362903 0 0 0
816 2 7.595487471875588 11.052843140627761 15.259919319224277 0 0 0
168 2 4.137289841067103 6.934752890821901 18.81457527561119 0 0 0
809 2 10.32840569319288 10.584491917347162 12.576443751459582 0 0 0
798 2 9.690747405618477 9.37371143266943 16.25924511280795 0 0 0
779 2 6.10429289991405 9.774138981879778 18.217919459538255 0 0 0
529 1 1.2646423975245198 6.404913104571872 16.908596439315325 0 0 0
530 2 1.2648557754957324 5.900128599267927 16.07457186533081 0 0 0
531 2 0.3529354514782794 6.606118467097656 17.12936281968938 0 0 0
532 1 2.444239266889518 6.4558554755239905 11.958025935887946 0 0 0
533 2 3.3305805712863505 6.847287685638924 11.968475470254882 0 0 0
534 2 2.2161658836406306 5.924432249533254 12.73918146748964 0 0 0
535 1 -1.7993103347619606 1.2041441570575602 12.067489124132788 0 0 0
620 2 6.4363629673692095 0.7197197017084012 11.686677007271646 0 0 0
273 2 4.275743411682646 10.324804203659642 19.064169072789685 0 0 0
538 1 -2.835302119311027 1.4998775739420438 16.878152714132902 0 0 0
332 2 9.845738056740887 9.317852664708063 18.64607036618352 0 0 0
540 2 -2.8210312060656086 1.731009350878654 15.940776398446136 0 0 0
541 1 2.9140757422513777 3.0592099694573713 12.01883691213311 0 0 0
542 2 3.0526075912622535 2.317414521590487 12.641021594278799 0 0 0
543 2 3.2157312183183904 2.6572737877067203 11.173178400797278 0 0 0
544 1 0.6513749947867101 2.858212542497005 17.005105576087185 0 0 0
545 2 0.29345139991719704 2.55791728546208 17.835816337750934 0 0 0
546 2 0.5924876992219701 2.037131887961053 16.498321208553303 0 0 0
547 1 -3.6450484540797032 4.863921951234932 16.807623875706803 0 0 0
548 2 -4.132544147754906 4.0213283644235975 16.79207826871025 0 0 0
549 2 -3.582487579329482 5.1450214052584196 17.738811184220737 0 0 0
550 1 -1.2172216546561994 5.429892490217689 12.162700119351289 0 0 0
551 2 -0.6242231874578145 4.590969308662398 12.285112724659687 0 0 0
552 2 -1.2097958673236822 5.79343987146295 13.025835269982089 0 0 0
553 1 3.2932454148659893 3.386948152597778 15.90885099924226 0 0 0
554 2 2.5972298701599503 3.2709019124477177 16.57174792604775 0 0 0
555 2 3.919565491335598 4.045035374638971 16.24674919538672 0 0 0
556 1 0.33248337867920313 3.399945184467508 12.687249192798417 0 0 0
557 2 1.155865965161877 3.4561640070878386 12.177164713278184 0 0 0
558 2 0.22007607361576548 2.6466466661312196 13.241334458935194 0 0 0
559 1 -3.7087416518607754 4.535242353797479 12.722962081432465 0 0 0
560 2 -2.887094970117813 4.7516089063720015 12.280235094665628 0 0 0
561 2 -3.3273657435973205 3.8853363394585108 13.365081071732936 0 0 0
562 1 -1.1151645223077185 4.441432477266306 15.645024656784114 0 0 0
563 2 -0.5498924070533209 3.934334393656985 16.262729676033366 0 0 0
564 2 -1.9980899702013142 4.455908122589854 16.167908630587224 0 0 0
565 1 5.2762414534640065 6.883805614331667 11.220260877729611 0 0 0
566 2 4.95981403454949 7.66804242418775 10.76741166128406 0 0 0
749 2 -2.115117564870879 10.57003759957552 14.923457974785498 0 0 0
568 1 -1.2536822869448836 7.362760086965302 17.753164038531153 0 0 0
603 2 10.632402115589377 5.344869244951414 18.506912500835696 0 0 0
570 2 -0.7784072823638741 8.0295084798706 18.274503466320716 0 0 0
903 2 4.451252572676081 0.18570980280893537 10.971354400977253 0 0 0
572 2 -5.7742494783203195 1.2833534430005717 18.347555160343084 0 0 0
827 2 10.434000444958887 7.692414789426463 11.606384544825342 0 0 0
714 2 1.66360191262506 10.73047471894828 16.74994731052602 0 0 0
576 2 0.9193137631941911 1.2959177793706496 10.743545309225004 0 0 0
577 1 1.771713384374655 5.28445029666606 14.471933824908373 0 0 0
578 2 1.1285606590721202 4.759125298374199 13.971895689525475 0 0 0
579 2 2.3453932472913097 4.579132807955251 14.854578149096286 0 0 0
580 1 -2.593310781010243 2.4507172427338375 14.29562851831239 0 0 0
581 2 -2.3087590037277494 1.912308967799298 13.499557811281116 0 0 0
582 2 -1.7197802486941747 2.832505608497576 14.604629274609051 0 0 0
517 1 1.8833563363437198 4.831583591406708 18.90704427264553 0 0 0
537 2 -0.9808604448802896 0.7036088712978044 11.799218199746228 0 0 0
589 1 12.31687232170934 1.1632255106446556 14.432703612166872 0 0 0
569 2 -1.7135622435922548 6.7005965242242524 18.317695724137696 0 0 0
591 2 12.568377935828048 1.8786322384280991 15.047737486946247 0 0 0
592 1 9.716555894079042 1.2130517411659874 14.87028175655638 0 0 0
826 1 9.585446811313503 8.136123851945928 11.228204019802845 0 0 0
594 2 9.702682276954901 1.7602287648674326 14.032228004101652 0 0 0
595 1 5.3979211395957485 6.716466750948526 14.313266431638501 0 0 0
596 2 5.083974593579391 6.30879438152802 15.13852929824999 0 0 0
597 2 5.3066154262175225 6.060458677670748 13.624777362217621 0 0 0
598 1 8.038665188929638 6.02490076803463 14.338994413641196 0 0 0
599 2 7.127398174391265 6.330265801521699 14.29717108270809 0 0 0
600 2 8.14862215247092 5.62347531299096 13.429571117759723 0 0 0
275 2 9.555395392856944 9.642975506201692 10.293845413825993 0 0 0
573 2 11.616914026683645 0.33127398541999825 17.216179855018687 0 0 0
723 2 4.041780515694083 11.2857589858977 16.485324626516817 0 0 0
605 2 10.989416722630754 5.284381593933242 10.355914482595761 0 0 0
832 1 6.324586545775281 10.083551939604748 14.486476172164968 0 0 0
743 2 0.10504592351093961 7.438491714768672 10.356893989423606 0 0 0
825 2 3.1690332813472115 8.900638462205738 18.106113807974715 0 0 0
536 2 -2.5193762171808087 0.5284391766313707 11.893500424006548 0 0 0
523 1 -2.11429728615536 3.0146552040220174 9.946452592001984 0 0 0
611 2 5.987317735825933 2.0916421799164198 18.240982567535234 0 0 0
613 1 10.625570613878644 6.105239083464312 16.8467708946923 0 0 0
614 2 11.508893982835886 6.548588770935486 16.91132598569111 0 0 0
615 2 9.963607338204943 6.7645688124772665 17.08194970575331 0 0 0
616 1 11.586799466521706 6.202045784822996 11.785209621356765 0 0 0
617 2 11.365448335551525 5.757984908752085 12.650744499092397 0 0 0
618 2 12.568276840005149 6.447339017063875 11.75960668150102 0 0 0
619 1 6.966135039263849 1.5264252240033338 11.792736108581803 0 0 0
609 2 6.801671762384903 2.4270833024567433 10.35786896183655 0 0 0
621 2 7.900634473036449 1.2073671461170006 11.799666082905608 0 0 0
622 1 5.6043297184141725 0.9848003005906225 16.965568864174013 0 0 0
711 2 2.096787385076242 10.771433118940754 12.307512498603232 0 0 0
624 2 5.697894634542058 1.3747351875869909 16.04270040860429 0 0 0
625 1 12.213332939269817 2.792759630141049 11.856450467117872 0 0 0
626 2 12.24762849347844 2.0495344569267204 12.523309358771495 0 0 0
627 2 12.915650556620689 3.4356847189945663 12.13324132690523 0 0 0
628 1 10.015079272221891 2.9134733805418107 17.015809128101143 0 0 0
629 2 9.934504257758313 2.5060550847099776 17.90567017800428 0 0 0
630 2 9.696831173253186 2.3019960065249667 16.29838933707866 0 0 0
631 1 5.11500297029097 5.138997509764704 16.430337626203684 0 0 0
632 2 4.8676768000843165 5.652659498384609 17.238737217246307 0 0 0
633 2 6.078714446115903 4.985388158919998 16.590497105431673 0 0 0
634 1 7.731503954940056 4.671561186255868 11.997562801287346 0 0 0
635 2 6.7674496756100435 4.496568002295491 12.302842502067845 0 0 0
636 2 7.711032082264918 5.172555936618075 11.157507457826169 0 0 0
637 1 12.35265768254263 3.285081755250778 16.135861495356092 0 0 0
638 2 12.174237811823865 3.941664503206404 15.40074824360385 0 0 0
639 2 11.462875879613335 3.146543611887999 16.504234505340058 0 0 0
640 1 9.551673666802833 3.0612430899287 12.813564325114472 0 0 0
641 2 8.79412348249823 3.546080665770265 12.341389288331206 0 0 0
642 2 10.338398641807087 3.140534301420938 12.235965586018322 0 0 0
643 1 5.121100981448308 4.146298759789315 12.881090485103378 0 0 0
644 2 4.2895323862178 3.8977356737882847 12.391896807472545 0 0 0
645 2 5.328772697355154 3.3168038611410795 13.32837525860699 0 0 0
646 1 7.681622587814049 3.883687250850352 16.027700495579435 0 0 0
647 2 8.230582510529644 3.5387665431231663 16.728575501448532 0 0 0
648 2 8.115609973845064 4.5077383161202516 15.46241052005388 0 0 0
649 1 13.967472269544324 7.0973454923537975 11.136236769664066 0 0 0
650 2 13.641800920438559 7.75882032897221 10.512123889145514 0 0 0
651 2 -3.3176389601561924 7.456512727668317 11.67856086258563 0 0 0
652 1 8.140550959873867 6.7426034432809 17.973668223080978 0 0 0
653 2 7.479780436935009 7.274543989173106 17.495080847459857 0 0 0
654 2 7.719800950213639 6.005685934222128 18.518392279478494 0 0 0
778 1 6.086172584473736 10.219108848429581 19.121966055584426 0 0 0
164 2 8.539481835610292 0.6093874276436456 18.738617666900605 0 0 0
661 1 11.184355631024172 4.925685356684429 14.485487679462407 0 0 0
662 2 10.721520788049945 5.440893924577766 15.19627450058254 0 0 0
663 2 10.611300304973884 4.267799913283131 14.068015943142367 0 0 0
664 1 6.396336655977533 2.022741825789332 14.620001419864888 0 0 0
665 2 6.8825666810312836 2.7589529814190112 15.153915048479663 0 0 0
666 2 6.921230637962443 1.7506623745552923 13.81842819711314 0 0 0
249 2 0.7073632884693464 9.685108399062 18.788943422228066 0 0 0
796 1 9.981492780677222 10.047307655473329 16.947585018724343 0 0 0
623 2 4.689503322850793 0.6968130772675735 17.237527397247113 0 0 0
673 1 3.134057587824815 8.70922276576475 14.317367224250182 0 0 0
674 2 3.757362747027756 7.950646775842879 14.348904564207801 0 0 0
675 2 3.4593635814035424 9.36817117488235 15.022612312193171 0 0 0
676 1 0.49126574845771387 8.9476209457322 14.724682307897496 0 0 0
677 2 1.364212837003232 8.571553938072878 14.589842147812792 0 0 0
678 2 -0.21434526416181476 8.270596279847469 14.661150318721646 0 0 0
525 2 -2.1697387912179917 2.3434130239370763 10.642557286895375 0 0 0
24 2 -0.14148295416381346 3.00102127908556 9.918241904782809 0 0 0
539 2 -3.748189913336748 1.2633973271952292 17.076131030830748 0 0 0
807 2 12.469117084330392 10.228633471728006 15.321330432789011 0 0 0
695 2 -2.99713911057525 10.27284493688615 18.561210125861905 0 0 0
588 2 -1.0715076713133929 5.746843642774057 10.495957760783778 0 0 0
703 1 -1.985927820346129 8.56992132786944 12.29204996340951 0 0 0