LAMMPS data file via write_data, version 3 Mar 2020, timestep = 0

2016 atoms
2 atom types

0.0000000000000000e+00 1.7935923372785631e+01 xlo xhi
-1.5458265489972511e+00 4.6541986525914254e+01 ylo yhi
0.0000000000000000e+00 1.9074564171449826e+01 zlo zhi
4.5231179688716754e-02 -6.6599553665617890e+00 -2.0398020314360110e-02 xy xz yz

Masses

1 16
2 2

Atoms # atomic

579 2 2.6558184105116416e+00 5.0070829939324426e+00 1.6293727519967529e+01 0 0 0
223 1 -1.6305841540552359e+00 7.2562946005547300e+00 1.6622819589434989e+01 -2 0 -2
995 2 6.7569019099768255e+00 4.1543331794254401e+00 8.0782617810792594e+00 3 0 1
654 2 1.4015362206568588e+01 8.0677455583086566e+00 1.3735234817425324e+00 -2 0 0
394 1 9.4818606847560147e+00 3.8968232226154331e+00 6.8284927835161966e+00 -3 0 -3
578 2 1.1127772526606350e+00 5.1268760380854976e+00 1.5949305795163301e+01 0 0 0
929 2 1.5988806540565843e+01 6.1440909350285038e+00 4.0278581581698685e+00 0 0 0
738 2 1.1084622160440199e+01 8.9847378971915841e+00 2.6805001912340294e+00 -1 0 1
705 2 -3.2634109881685722e+00 4.5524801020486407e+00 1.1843513130177586e+01 -2 0 -1
302 2 8.3856861266093787e+00 7.0919812505860058e+00 3.9497397844234400e-01 0 0 0
299 2 -2.7904489561000454e+00 1.6969260827168129e+00 1.2900085111874413e+01 -2 0 -2
890 2 1.1881074207488894e+01 -2.8544616852206706e-01 5.6431757372352029e+00 -1 0 0
150 2 1.1240519665207433e+01 6.9325375300803671e+00 1.3807917671873341e+01 -4 0 -1
406 1 8.5758005451506136e-03 4.5206564977687256e+00 1.4379997444744465e+01 -2 0 -2
504 2 7.5269557372170564e+00 1.3626941748137922e-01 7.8925485465632503e+00 0 0 -1
596 2 1.7727658862508660e+00 4.4850821155704184e+00 3.1233054893723073e+00 3 0 -2
270 2 3.9061346232808170e-01 8.1773417141547338e+00 1.3536890317579662e+01 2 0 -1
670 1 -1.2177749824064956e+00 9.5582582877856348e-01 8.7439136260326755e+00 -3 0 -1
881 2 1.0515220221642181e+01 2.0998154539553804e+00 8.6231441651678029e+00 -3 0 2
319 1 1.0839654616155464e+01 -4.4330838476549950e-01 1.4329905187257379e+01 -4 0 -3
53 2 1.1789867491734810e+01 5.6783054323643896e+00 4.7235266925456582e-01 2 0 0
590 2 3.5559711553887698e+00 7.7529681067531531e+00 1.2328208662391074e+01 -4 0 -1
609 2 6.0516432508504883e+00 -1.7162892496042659e-01 2.1138921005919755e+00 -3 0 0
1583 2 1.3394122290866845e+01 3.0150638474602545e+00 1.0518231345426683e+01 -1 1 1
122 2 1.0232140886667992e+01 6.7130820755925349e+00 1.5568828041875680e+01 -2 0 -1
276 2 1.5492825838362563e+01 -9.7177660586376546e-01 6.2068175138692117e-01 2 0 0
407 2 1.3968363572067943e-01 3.8421988368019591e+00 1.3755521938995599e+01 -2 0 -2
707 2 2.7969488277588095e-01 6.3753164759518848e+00 1.2024306323661925e+01 -1 0 -1
972 2 1.7494686220972029e+00 7.5018418802694775e+00 6.8471316102881108e-01 0 0 1
448 1 2.1945590916342734e+00 5.0332862432212986e+00 1.1159133151037512e+01 -1 0 1
244 1 -2.4131552939051799e+00 6.7499609656969426e+00 1.3900798266480248e+01 -3 0 -4
762 2 8.6480059747441782e+00 2.9062383439926909e-01 3.2073089897060497e-01 -3 0 2
761 2 9.2475871344762925e+00 -1.1777569369348808e+00 3.3913612102171525e-01 -3 0 2
844 1 8.3719637814129264e+00 -5.6588930698538698e-01 1.1589029276185217e+01 1 0 1
575 2 8.9624235433245065e+00 5.6274496555181077e+00 1.4592590766451933e+01 0 0 0
301 1 8.4576604476738577e+00 6.1113814386210334e+00 3.9410365651484230e-01 0 0 0
149 2 1.1910598156931563e+01 8.0732642849532112e+00 1.4381365981451770e+01 -4 0 -1
87 2 1.1137782832416205e+01 -1.2336117065622403e+00 1.8710067336664967e+01 1 0 -3
463 1 9.5950902398240934e-01 6.2098974254413344e+00 3.2213950310170922e+00 2 0 0
449 2 2.9915526025382890e+00 5.5286180596856367e+00 1.0929461961767549e+01 -1 0 1
524 2 -1.1699619367773866e+00 5.8974277956247247e+00 1.0027530036039579e+01 -2 0 -4
636 2 2.5289066677062846e+00 1.0225281803365149e+01 6.9609152686837827e+00 1 0 -2
523 1 -3.8329195006524852e-01 6.2564493814317839e+00 1.0420025220308787e+01 -2 0 -4
658 1 5.5463009607444924e+00 1.0457570666450899e+00 1.3720334156592491e+01 -1 0 -2
206 2 -1.6335708476276789e-01 2.5387970715910724e+00 1.1509149971719706e+01 3 0 0
96 2 9.9169460322066598e+00 3.9489954671753109e+00 5.0789772290321968e+00 -2 0 -1
441 2 -1.2457071693354869e+00 7.7229200415604353e+00 1.1260009605133362e+01 -2 0 -1
151 1 8.6251593310394377e+00 1.2068420768612609e+00 3.1532469287098603e+00 3 0 0
781 1 -5.6142682985049142e+00 2.4254278058746377e+00 1.6744445793009248e+01 -2 0 -3
880 1 1.0747496177734043e+01 1.3202756799358073e+00 8.0508349304475022e+00 -3 0 2
626 2 4.7697874755320262e+00 4.4754178415057249e+00 1.6888614261545737e+01 0 0 -1
1914 2 5.4389343176050353e+00 1.0327431932447258e+01 2.2649898067350862e+00 -3 0 2
703 1 -2.7588530251215477e+00 4.5067890999953644e+00 1.2649333014194550e+01 -2 0 -1
382 1 1.0193443168890925e+01 5.3449120315029317e+00 1.8747122069620897e+01 -2 0 0
911 2 1.0048643981574790e+01 -5.8086408309625548e-01 2.9707234703751215e+00 -2 0 1
397 1 1.3767847224208026e+01 1.0225293133842309e+01 3.5311423712986212e+00 2 0 0
54 2 4.7365068363092764e+00 4.2683360156682095e+00 1.9027647231611354e+01 2 0 -1
673 1 1.0358730333047744e+01 9.5654780082444244e+00 1.8462632802464597e+01 -1 0 -4
689 2 -1.1330026945962712e+00 3.5968091028452562e+00 6.3858223557902942e+00 -2 0 0
336 2 1.0025195099872827e+01 7.8845449297688894e+00 9.8040980364131585e+00 -2 0 -2
392 2 2.7052202590673442e+00 8.7531458983495636e+00 1.0337139146468791e+01 -1 0 -1
652 1 1.4371538209838823e+01 7.6464534819874750e+00 2.1461633107737401e+00 -2 0 0
52 1 1.2073211250763721e+01 4.7395647034270185e+00 5.3210691088124717e-01 2 0 0
356 2 -3.9395839949630069e+00 4.3753815381245458e+00 1.4840875484014814e+01 -4 0 -3
477 2 9.5836228773525445e+00 4.0686807365150308e+00 1.2566728571047374e+01 -1 0 2
500 2 1.4589411451485802e+01 4.9361575480541031e+00 9.3549458163787111e+00 0 0 0
278 2 7.2517515358329927e+00 9.0053965513086354e+00 8.5115274323931889e+00 -4 0 -1
841 1 -7.8748342001152150e-01 -1.2335933585337264e+00 1.5885891068205144e+01 -5 0 -5
789 2 3.7957819415578244e+00 7.3369541019455156e+00 1.8024005933643961e+00 -2 0 0
810 2 6.6168910513503896e+00 2.2252714955125890e+00 6.8392772757948528e+00 -4 0 -1
930 2 1.6102831383875532e+01 4.9359825141669198e+00 3.0508587342043096e+00 0 0 0
702 2 2.8625644622378310e+00 1.5315876447928307e+00 1.5633332708960882e+01 -3 0 -3
501 2 -2.0505674875759201e+00 4.6938013377500658e+00 8.6044505404811122e+00 1 0 0
625 1 3.9102266312705325e+00 4.0932175349908766e+00 1.7251198501841071e+01 0 0 -1
697 1 8.0343425687171646e+00 8.8741276480162821e+00 4.9828192913521263e-01 2 0 4
101 2 5.5210110972406765e+00 1.9604413761524997e+00 1.0844150190823736e+01 -1 0 -1
384 2 9.3506216777463926e+00 4.8564213334453070e+00 1.8723587527491052e+01 -2 0 0
245 2 -2.6631720841355464e+00 5.8476563713642191e+00 1.3663768184407378e+01 -3 0 -4
622 1 -2.3519285112859567e+00 3.9114268710596853e+00 1.5167666106112156e+01 -2 0 -2
624 2 -2.0169583570439404e+00 3.9555103398350351e+00 1.6102342570025129e+01 -2 0 -2
179 2 5.4494495733570423e+00 5.6489049304233996e+00 1.5983636020547174e+00 -3 0 0
714 2 3.0297790563013205e-01 4.2119023051766269e-01 1.1867828027497888e+01 0 0 3
977 2 5.6517665553226513e+00 1.3780112194753635e-01 1.8041127020475621e+01 -3 0 -1
268 1 1.8735295406015595e-02 9.1109169204638132e+00 1.3750069892097686e+01 2 0 -2
513 2 8.5484335086313710e+00 -1.2395237660604865e+00 1.6793787752496080e+01 1 0 0
600 2 1.4143126299262905e+01 1.6477243033160072e-01 6.6886893412974970e+00 -4 0 1
49 1 1.1032777682702363e+01 1.1997185954158121e+00 1.2209696367703117e+01 -1 0 0
181 1 1.0074444870674874e+01 9.9121315476471636e+00 5.0233749488611741e+00 -1 0 0
464 2 1.5001673795173980e+00 6.7997560362345677e+00 3.8097125114375725e+00 2 0 0
698 2 7.4549936752209387e+00 9.0181445478538667e+00 1.2660782692114041e+00 2 0 4
1582 1 8.6175004878146702e+00 5.0720256715583796e+00 1.3840922342926898e+01 0 0 0
671 2 -8.6902596134114418e-01 8.4900668274582136e-01 9.6620872478639193e+00 -3 0 -1
135 2 1.2402931406699482e+01 7.0988135446249920e+00 5.7977975712967895e+00 0 0 -1
778 1 4.6183203339077998e+00 6.0911127470386761e+00 4.8315767645633176e+00 1 0 0
736 1 1.1184178933828207e+01 9.9431149661989746e+00 2.7480915670446109e+00 -1 0 1
598 1 1.4294554835027780e+01 5.7006642924126893e-01 7.6018994743037300e+00 -4 0 1
120 2 5.2298196958553973e+00 3.6833849534637331e+00 1.6626956576583254e+00 -2 0 -2
858 2 -1.9889789304264003e+00 6.8047644291773288e+00 8.0309656856048584e+00 -1 0 -3
962 2 2.5808495234856572e+00 7.5268112870248949e-01 9.0877254276338277e+00 -3 0 -1
753 2 -4.2287185922906048e+00 6.3221037886346245e+00 1.7693811208255024e+01 0 0 2
295 1 1.7335079231857232e+01 7.5629483952943541e+00 1.3563259482253127e+00 1 0 3
119 2 3.9557389136220213e+00 3.2231364714847892e+00 2.3800617516695945e+00 -2 0 -2
525 2 3.1824772215844543e-01 6.4989756553831270e+00 9.7764701298541965e+00 -2 0 -4
495 2 3.2856565308811048e-01 7.5478376509075336e+00 7.7771658393288545e+00 -3 0 -2
971 2 2.1372116811853235e+00 6.0319546575892593e+00 1.2524763674999699e+00 0 0 1
992 2 1.4033293536678400e+01 -1.0677615403084495e-01 8.9582481980870803e+00 1 0 1
212 2 1.4755989077439526e+01 3.9083962116291042e+00 5.2511900085090257e+00 -5 0 -2
701 2 4.1387868958435394e+00 9.0164664605529454e-01 1.6423152214733417e+01 -3 0 -3
5 2 3.1705842248817500e+00 5.8465985982044950e+00 6.2307601492486677e+00 1 0 0
470 2 1.6161403046450786e+01 2.8782399461128323e+00 1.9277168327129433e+00 -7 0 -2
471 2 1.5063634778375137e+01 3.6662696391306655e+00 1.2247588095609694e+00 -6 0 -2
708 2 5.1708592755717397e-01 5.8645459197267398e+00 1.3466066360634393e+01 -1 0 -1
85 1 1.0401033354499379e+01 -6.9164991947671983e-01 1.8852620700512475e+01 1 0 -3
46 1 8.7589078000966030e+00 6.4739588626804103e+00 9.7601131854998719e+00 -3 0 0
1584 2 7.9495527910105208e+00 4.4583869097494917e+00 1.4061080337706066e+01 0 0 0
856 1 -1.5080806943287637e+00 7.5247872714852821e+00 7.4944815948339150e+00 -1 0 -3
627 2 3.9393504887629485e+00 3.1792942571007368e+00 1.6800617946590688e+01 0 0 -1
111 2 9.0543193619357183e+00 2.9102700471921148e+00 8.8885721703358667e-01 1 0 -3
869 2 1.1748354398211514e+01 7.2531779664763238e+00 8.6671458716026972e+00 1 0 0
16 1 1.4632751006841467e+00 1.9928914786671110e+00 1.4730225062688602e+01 0 0 1
178 1 5.8473144647680622e+00 5.0683958031454317e+00 9.3197497597182843e-01 -3 0 0
974 2 1.0032077933405656e+01 2.5172745592063861e-01 1.5790911824848951e+01 -4 0 -2
118 1 4.9144338438751030e+00 2.9550407765938589e+00 2.2355172637384366e+00 -2 0 -2
788 2 4.5885148628964094e+00 6.7175662416061499e+00 3.1661592983443732e+00 -2 0 0
623 2 -2.3884818646305574e+00 2.9030654969575718e+00 1.4935040086672462e+01 -2 0 -2
1668 2 4.8809718280228980e+00 1.1705938944483303e+00 1.4415073983478834e+01 -1 1 -2
644 2 1.3832906823142961e+01 8.9603447232728728e-01 1.1020474863528600e+01 -4 0 -3
976 1 5.8985714884751168e+00 -3.3383127600069695e-01 1.7227067557263933e+01 -3 0 -1
86 2 1.0345412106169027e+01 -2.2497025796278769e-01 1.8030270265493463e+01 1 0 -3
239 2 4.7199658017585531e+00 4.2507384682928269e+00 1.3536846745233779e+01 0 0 0
716 2 1.2875096846698888e+00 2.4483261195465587e+00 1.8001645038824357e+01 1 0 1
717 2 -1.5917494183199832e-01 1.9439804723283469e+00 1.7607224387118539e+01 1 0 1
240 2 5.3431926677027946e+00 5.6273120035290676e+00 1.3199974138919577e+01 0 0 0
250 1 4.9574894242073650e+00 8.4745578279528342e+00 8.5793537364652543e+00 -3 0 2
17 2 1.8871096775131662e+00 2.7265792100855570e+00 1.4236681898405184e+01 0 0 1
779 2 4.9220376291859145e+00 6.7848714818918321e+00 5.4180178896224707e+00 1 0 0
526 1 5.7462738204353467e+00 -4.1727603205316588e-01 5.3381193688378188e+00 -2 0 0
645 2 1.2719852150658632e+01 1.5359541754021269e+00 1.1883286881289369e+01 -4 0 -3
613 1 -1.5410785962612037e+00 6.5974866789986164e-01 1.7598499309980177e+01 -2 0 -1
246 2 -2.1226543365066375e+00 6.7451965377825971e+00 1.4821216618797987e+01 -3 0 -4
238 1 5.5533996347940766e+00 4.6918411536694160e+00 1.3336360342396887e+01 0 0 0
522 2 8.2354180931792147e+00 2.4054053201656926e+00 1.0570089909769157e+01 -5 0 -2
715 1 5.3366412059564894e-01 2.6517516297251698e+00 1.7464678436999563e+01 1 0 1
115 1 1.3349201711791601e+01 6.8893414255785572e+00 1.1235406653928393e+01 -5 0 -5
426 2 1.2793736609641245e+01 1.3862274505187884e+00 3.8804510140353328e+00 -2 0 1
494 2 1.5736117679751565e+00 8.1328635111314522e+00 8.4333108114641142e+00 -3 0 -2
65 2 4.2382753104604500e+00 -1.2212417571239742e+00 9.4280585008174320e+00 -2 0 -3
538 1 1.9265707641453553e+00 -1.0507266220066138e+00 2.3990486173545156e+00 -4 0 -3
933 2 8.2045703169282902e-01 6.2222591119794313e-01 1.3788211357459710e+01 -2 0 -1
857 2 -1.7692484980889467e+00 7.3726201033969936e+00 6.5371419096129042e+00 -1 0 -3
868 1 1.2315498113746589e+01 6.4125914675791522e+00 8.7015033803037216e+00 1 0 0
291 2 8.8053666530678569e+00 5.4191645461302764e+00 6.3493980844415532e+00 0 0 3
18 2 7.9632799121220366e-01 2.4216850060962458e+00 1.5265969754108626e+01 0 0 1
1664 2 4.5724684180472810e+00 8.0109126593135827e+00 1.6210614939233462e+01 -3 1 -1
829 1 2.2774270011307625e+00 9.3321575591681700e+00 1.7650936193286433e+00 -3 0 0
785 2 1.7148339286689144e+01 6.4764810767147685e-01 9.7475192061682903e-01 -4 0 -2
870 2 1.2931847910844334e+01 6.4947343894947789e+00 7.9612458971914863e+00 1 0 0
211 1 1.3882105594016258e+01 4.2594640429903157e+00 5.3261835768391146e+00 -5 0 -2
387 2 1.8586492539208244e+00 2.0326293660711392e+00 3.5336236009056035e+00 0 0 -2
334 1 1.0569277194399980e+01 8.6168481943744357e+00 9.4541491872169487e+00 -2 0 -1
643 1 1.3632385714178142e+01 1.6707087205643676e+00 1.1570824629784900e+01 -4 0 -3
699 2 8.7695459322450287e-01 9.2275649019665629e+00 1.8820203093660055e+01 2 0 3
393 2 2.8702604524792075e+00 1.0115581331336728e+01 9.5960093212307065e+00 -1 0 -1
289 1 8.5423818794696142e+00 6.2320152268810824e+00 5.8672758067755728e+00 0 0 3
116 2 1.3146907745011514e+01 6.4523844107220398e+00 1.0411495475004857e+01 -5 0 -5
224 2 -1.3578696885343602e+00 6.4160784058157638e+00 1.7006325740137623e+01 -2 0 -2
845 2 8.3752632030256056e+00 3.0423742548410004e-01 1.1111590374103054e+01 1 0 1
48 2 8.0443888182258583e+00 6.0801860655447726e+00 9.2283851546102547e+00 -3 0 0
117 2 -3.7394524460538534e+00 7.3762527989003122e+00 1.1190724440488202e+01 -4 0 -5
931 1 1.7254106093313748e-01 -7.9798858966084518e-02 1.3532742434279900e+01 -2 0 -1
550 1 1.7803894815571517e+00 8.6631505531442823e+00 4.2804278849212807e+00 0 0 1
385 1 1.4520832925562253e+00 1.2845484149380524e+00 3.9090716940471308e+00 0 0 -2
926 2 1.3113199643277998e+01 -6.3538114358021680e-01 1.3589437226954161e+01 1 0 2
961 1 2.3939888103208573e+00 1.5415543707485670e+00 9.6585003777206637e+00 -3 0 -1
42 2 1.9622101856706835e+00 4.2550832294772931e+00 8.0370249055218554e+00 -2 0 3
726 2 1.1993067533413790e+01 2.3556828887759695e+00 7.4205733547993749e+00 1 0 1
876 2 -3.8154175319481523e+00 7.6834134868836497e+00 1.4214680324945226e+01 -2 0 1
769 1 1.5698331495317793e+01 7.6540806791329619e+00 4.9886334766598424e+00 0 0 -3
1002 2 9.0882010288545736e+00 4.7777292665726394e+00 1.8398992331401842e+00 -1 0 1
4 1 2.8850149657362874e+00 5.5562286033640991e+00 7.0834319226444071e+00 1 0 0
712 1 2.5805571574263775e-01 1.0056731952938054e+00 1.1046209440908651e+01 0 0 3
41 2 1.8473910437867569e+00 3.1026117465509904e+00 9.0711967126030117e+00 -2 0 3
388 1 1.4440838568941118e+01 -7.3048867816783081e-01 5.1463590055856399e+00 -1 0 0
812 2 1.2414738891010927e+01 5.1151088442382475e+00 1.3726931739706586e+01 -2 0 -1
932 2 5.9203278810606008e-01 -9.5060013491124062e-01 1.3204294608190125e+01 -2 0 -1
776 2 1.1197770794278377e+01 5.1703317891828782e-01 1.0360678213546615e+00 -2 0 2
213 2 1.3570410683458316e+01 4.6258380083272828e+00 4.5195745220669279e+00 -5 0 -2
290 2 7.7249964558955995e+00 6.5007576706681789e+00 6.3581716019747860e+00 0 0 3
925 1 -4.2462329941423063e+00 -1.0718397921239751e+00 1.2931218778683993e+01 2 0 2
338 2 6.8425087322747533e-02 4.0791093907836329e+00 9.9550148465557556e-02 -1 0 -1
938 2 1.2567054024317915e+01 8.6415528871513096e+00 7.3432984229846843e-02 1 0 1
969 2 -6.6202216178311790e-02 3.7155532767959469e+00 8.5480111452488554e+00 -1 0 1
545 2 2.4744852246314304e+00 4.5779678713641054e+00 1.4328577589292708e+01 2 0 1
386 2 5.4389940919994495e-01 1.3164001758636776e+00 3.5644122841722110e+00 0 0 -2
937 1 1.3518887889980853e+01 8.9285849241880673e+00 1.8695102246178260e-02 1 0 2
40 1 1.5550264011423072e+00 3.9765577722261325e+00 8.8978766622535517e+00 -2 0 3
786 2 -2.2427357605916140e-01 2.1541854246742109e+00 1.2526818978606649e+00 -3 0 -2
335 2 9.8980684880398613e+00 8.9752020683383744e+00 8.8821394646113756e+00 -2 0 -2
724 1 1.2893591513086406e+01 2.8511713756061603e+00 7.4709500202109105e+00 1 0 1
784 1 1.7169464917676155e+01 1.3870964072195884e+00 1.6334362494880363e+00 -4 0 -2
967 1 -9.5126724642268501e-01 3.5457388367380824e+00 8.1474940140205501e+00 -1 0 1
553 1 7.3978426854849868e+00 2.1830917357228188e+00 1.6959202318347980e+01 -5 0 -2
681 2 6.8785861360264819e+00 4.3595713827384959e+00 1.8960760483679518e+01 -3 0 -3
649 1 8.9972806448778027e+00 1.0026968924377271e+00 5.9737410239689588e+00 -4 0 0
650 2 8.9363457861175206e+00 1.3325758625486110e+00 5.0079068380584628e+00 -4 0 0
51 2 1.0837685934935571e+01 6.5968063429408330e-01 1.1474284303807744e+01 -1 0 0
36 2 -1.5067179044720636e+00 1.7415608437759968e+00 4.7972241020283519e+00 -1 0 0
945 2 5.1851208799145043e-01 1.5183494145687737e+00 6.9892448236699556e+00 0 0 3
529 1 8.3752137475883544e+00 -1.3609338862203997e+00 4.0023289336686902e+00 -1 0 0
939 2 6.8612896363740505e+00 9.9068357894971601e+00 1.9009375306475700e+01 1 0 0
830 2 1.7306241431468286e+00 1.0188364839863484e+01 1.8528281078932549e+00 -3 0 0
127 1 1.2856886999588196e+01 5.4649769202916110e+00 3.2391787517509298e+00 -2 0 -1
128 2 1.3508169505037124e+01 6.1981694159289864e+00 3.1159159993020862e+00 -2 0 -1
1407 2 1.4112709672149737e+01 9.3411355196613215e+00 3.1321401058622804e+00 2 0 0
34 1 1.6403267228940162e+01 9.3149227576169347e-01 4.2498862110896134e+00 -2 0 0
928 1 1.6542546652045299e+01 5.3651245714684839e+00 3.8204466965804404e+00 0 0 0
777 2 1.2316107948095802e+01 1.5337550935768758e+00 7.5032285667683585e-01 -2 0 2
152 2 7.6520097256792816e+00 1.0424136432198425e+00 3.0054517367789604e+00 3 0 0
439 1 -2.0508678074892712e+00 8.1527149134013950e+00 1.1619304938644907e+01 -2 0 -2
350 2 1.4097272445669759e+01 7.0302610966703138e-01 1.8104718246277072e+00 2 0 4
846 2 7.4864551862622255e+00 -7.0716378804360969e-01 1.1964201946221019e+01 1 0 1
221 2 -1.2845030726146760e+00 9.6602244045468026e+00 1.8283826103572178e+01 -2 0 -3
783 2 -5.0177609679877113e+00 1.6823474445745963e+00 1.6597297150886963e+01 -2 0 -3
148 1 1.0997564392061257e+01 7.7433551690605142e+00 1.4361176732254433e+01 -4 0 -1
994 1 6.6702374026088345e+00 4.7746958326857243e+00 8.8978471621425435e+00 3 0 1
725 2 1.2946607151193383e+01 3.3737547634592122e+00 6.6461548760143083e+00 1 0 1
675 2 1.1105040442673555e+01 9.2301433035691858e+00 1.7935880543285933e+01 -1 0 -4
129 2 1.2585132572727199e+01 5.2840991043920269e+00 2.2918054664985652e+00 -2 0 -1
905 2 5.5421538457107351e+00 8.7721872104768259e+00 2.4074411778666858e+00 -3 0 2
173 2 6.6530409762093417e+00 5.4370489299458926e+00 1.6614785866917906e+01 -1 0 -2
560 2 9.9092271055828274e+00 -1.2288827574707006e+00 7.0714624718048826e+00 -2 0 1
352 1 8.8616288377472152e+00 9.1956894956097504e+00 1.3275127659904713e+01 -1 0 0
686 2 2.5525096560252853e+00 -1.4938853210999345e+00 7.9564200615708867e+00 -3 0 0
462 2 6.7613617870665914e+00 3.9411469673467012e+00 1.0315760623753977e+01 -4 0 -2
651 2 8.5995105031056571e+00 1.2461702054541246e-01 6.0118561008204994e+00 -5 0 0
996 2 5.8336478947954671e+00 5.2812290518108176e+00 8.8362325411416176e+00 3 0 1
611 2 1.1419206376233181e+01 4.7667028456097622e+00 9.1006231490765686e+00 -1 0 2
216 2 -7.5434092464572400e-01 1.0393555049295765e+01 5.0962674299562130e+00 0 0 -2
750 2 3.5877025210535156e+00 5.9952222412966858e+00 8.5067131448725917e+00 -3 0 1
749 2 4.5561904160771771e+00 6.9611587055271542e+00 9.2544371673960359e+00 -3 0 1
102 2 4.8944284521367987e+00 5.7216678249776587e-01 1.0468905212876944e+01 -1 0 -1
497 2 4.3812986239758196e+00 2.4880935786197691e+00 6.1925162616525755e+00 0 0 1
498 2 3.1745300551560720e+00 1.4627738809481934e+00 6.4777691955021490e+00 0 0 1
395 2 9.8520024553492913e+00 4.1344182959756246e+00 7.6943440369412768e+00 -3 0 -3
924 2 2.4392495786608510e+00 6.9972915317885160e+00 1.6555027932231891e+01 -3 0 -3
349 1 1.3608720118598058e+01 1.4382008209826029e+00 2.1781509276835855e+00 2 0 4
679 1 7.7638560678403934e+00 4.0293758698220143e+00 1.8777280651369114e+01 -3 0 -3
949 1 -3.8571336754568861e+00 1.3308781437404704e-01 1.5689512150668303e+01 -1 0 1
540 2 1.9879586761451549e+00 -1.7793669872212625e-01 2.8748679515292093e+00 -4 0 -3
531 2 8.4235471233001480e+00 -3.8796107736418906e-01 3.6123093690347221e+00 -1 0 0
321 2 1.0762718334952233e+01 2.2194984333146017e-01 1.3571188473188915e+01 -4 0 -3
943 1 1.2789097038186084e+00 1.0257868588263555e+00 6.6705700985996055e+00 0 0 3
353 2 8.4193041480376198e+00 8.4587477767974750e+00 1.2820483413949862e+01 -1 0 1
672 2 -2.2036213305196433e+00 8.3615827061878356e-01 8.7636648524554310e+00 -3 0 -1
220 1 -4.5892712943430514e-01 9.3826734793776367e+00 1.7782763641778068e+01 -2 0 -3
172 1 6.1022499747473571e+00 4.6552126940717207e+00 1.6305658124790440e+01 -1 0 -2
298 1 -2.3832414397675947e+00 1.3873609088064920e+00 1.3747529062341627e+01 -2 0 -2
680 2 7.6570167533873352e+00 3.4537707333574206e+00 1.7999280968420575e+01 -3 0 -3
978 2 6.6700634458765178e+00 -8.5595971421073935e-01 1.7516067174302663e+01 -3 0 -1
163 1 7.8135258345881802e+00 6.9794625883520887e+00 1.2166124611318009e+01 2 0 0
944 2 1.1723983182855817e+00 1.1565249962239745e+00 5.7596803056623678e+00 0 0 3
100 1 4.7708442205826476e+00 1.3606520651857763e+00 1.1062033765498056e+01 -1 0 -1
1667 2 5.1754466458677424e+00 1.1081342853761496e+00 1.2848867284128737e+01 -1 1 -2
685 1 2.6142056893602423e+00 -1.2161269397266621e+00 8.8661498705891191e+00 -3 0 1
174 2 6.0678007672625185e+00 4.6042736520410639e+00 1.5348420661490959e+01 -1 0 -2
635 2 3.7330840498616551e+00 9.9690999378044971e+00 6.0874103623759366e+00 1 0 -2
465 2 1.4482641041397781e-01 5.9549271614021224e+00 3.6781065983495598e+00 2 0 0
981 2 1.2679883866690769e+01 9.2494416186132042e+00 1.2836574393650023e+01 -2 0 0
460 1 6.7262482803566863e+00 3.4281811872547809e+00 1.1176092380345326e+01 -4 0 -2
607 1 6.0506632476983198e+00 4.4989117737017326e-01 2.9286878997464858e+00 -3 0 0
167 2 1.0505263812503088e+01 7.2953663452322690e+00 3.5184482458673227e+00 -4 0 -4
723 2 6.9602901002277013e+00 7.3529087177158079e+00 3.1530100322421251e+00 -5 0 -2
919 1 1.1289028283058091e+01 -4.8530690188678549e-01 1.0038235944999524e+01 0 0 -2
595 1 2.2053681044848847e+00 3.7395224542792063e+00 2.5947645541072029e+00 3 0 -2
528 2 5.8459385313707477e+00 1.1239306894252454e-02 4.4437282403761253e+00 -2 0 -1
109 1 9.1798943233301387e+00 2.1077840036517497e+00 3.8375780513453273e-01 1 0 -3
615 2 -1.3510545681368828e+00 -4.2007708745409600e-02 1.7038026639159167e+01 -2 0 -1
922 1 2.8510148874630694e+00 7.8378660490792633e+00 1.6949763587537170e+01 -3 0 -3
461 2 6.3055474236855877e+00 3.9623946589328600e+00 1.1899175446614100e+01 -4 0 -2
599 2 1.3950503737548146e+01 1.4479646762756184e+00 7.4998410791302499e+00 -4 0 1
408 2 -9.4550423315002252e-01 4.4688907080370646e+00 1.4645600228421658e+01 -2 0 -2
20 2 1.0739041817989319e+01 7.5356953189453950e+00 1.0159773240781771e+00 -3 0 -3
731 2 -4.4321387725815908e+00 9.6327845340060687e+00 1.7737272119599432e+01 1 0 0
35 2 1.6596303552370671e+01 1.2794192392766477e+00 3.3711862079287136e+00 -2 0 0
642 2 -2.9055493853919510e+00 1.0021733253511364e+01 1.1295587050079291e+01 4 0 -1
713 2 1.1779226601350619e+00 1.0950355386318109e+00 1.0640840348188327e+01 0 0 3
475 1 1.0219583033524231e+01 3.8820601582523588e+00 1.1904161957047252e+01 -1 0 2
68 2 6.4469961634845054e+00 7.4167663645113961e+00 1.6489461411866884e+01 -4 0 -3
251 2 4.2634360327335976e+00 8.9877317330344955e+00 8.1019748557358469e+00 -3 0 1
133 1 1.3308922580485342e+01 7.0459026502051749e+00 6.1179377825584984e+00 0 0 -1
610 1 1.0557014466968687e+01 4.3213095450409886e+00 9.3836505851488994e+00 -1 0 2
297 2 1.7118315746307342e+01 6.8596527949066459e+00 6.6463156726781791e-01 1 0 3
190 1 1.1728420197735367e-01 1.0065314634370234e+01 1.0492210565774988e+01 -2 0 -3
300 2 -1.6865328922753982e+00 7.6353829197845036e-01 1.3592267233278466e+01 -2 0 -2
296 2 -1.1155807792663586e-01 7.0846553221190423e+00 1.9792853015406460e+00 2 0 3
782 2 1.1501736624345423e+01 2.3922725242167466e+00 1.6156611001593415e+01 -3 0 -3
690 2 -1.3118582104690608e+00 4.0406236438557039e+00 4.8982855983128735e+00 -2 0 0
233 2 9.1669905732006196e+00 1.0201585092853687e+01 1.1852656619116047e+01 -2 0 0
728 2 5.2553961624109000e+00 7.7699814815993165e+00 1.4135905804417403e+01 0 0 1
113 2 8.6386905520908606e+00 1.0055251662983942e+00 1.2948965633217714e+01 -2 0 -1
165 2 8.0719724334225926e+00 6.8250620030158888e+00 1.1266701509712790e+01 2 0 0
274 1 1.4610045679579670e+01 -9.6805718476725466e-01 1.0734792748976076e+00 2 0 0
222 2 -7.2390521351579284e-01 8.5688140867335587e+00 1.7328966354015641e+01 -2 0 -3
389 2 1.3929429016064764e+01 -1.1296006379578150e+00 4.3426783862263694e+00 -1 0 0
67 1 7.0929914173927004e+00 6.9619256728287269e+00 1.7108256707438173e+01 -4 0 -3
727 1 5.2615886422814224e+00 7.2665265693811776e+00 1.3240321628906113e+01 0 0 1
114 2 7.3746267798526928e+00 1.4744140562810126e+00 1.3737646133223382e+01 -2 0 -1
425 2 1.1346612054951065e+01 1.8395102684907734e+00 4.5065530377861505e+00 -2 0 1
544 1 2.8768650896282093e+00 3.9781178807190347e+00 1.3664158292444496e+01 2 0 1
875 2 -3.6410818900927682e+00 9.2433387217044558e+00 1.4427277376552608e+01 -2 0 1
1001 2 9.2713284303596222e+00 3.9307012884119974e+00 3.0821736847653591e+00 -1 0 1
496 1 4.1134883146369301e+00 1.5909304608911814e+00 6.2421939188977111e+00 0 0 1
655 1 5.2992895848079273e+00 8.3901136520889086e+00 1.5647770928074124e+01 -3 0 -1
337 1 6.2678230486218023e-01 3.3310685000028988e+00 4.1603062744208569e-01 -1 0 -1
760 1 8.4628955105527623e+00 -6.4877350303854520e-01 4.3709125209975164e-01 -3 0 2
192 2 9.9306534848036998e-01 9.5912948216722747e+00 1.0325790894660964e+01 -2 0 -3
503 2 6.3986863551784126e+00 6.4147058617087804e-02 8.8712270576324421e+00 0 0 0
310 1 5.5113312212890602e+00 9.5481607034023614e+00 1.0874586764034156e+01 0 0 -2
747 2 -1.5298284545684018e+00 1.0238313992309873e+01 1.3855102260869284e+01 -2 0 0
951 2 -3.4011609454439711e+00 5.7500151945757461e-01 1.4949086517969544e+01 -1 0 1
110 2 1.0114463384355155e+01 1.9544493930273128e+00 2.8932945442435071e-01 1 0 -3
184 1 5.8474412586345066e+00 -8.9909612239494174e-01 6.9645885184599510e-01 -4 0 -6
47 2 9.4425498180220480e+00 5.7515697259363989e+00 9.7446118036077607e+00 -3 0 0
207 2 1.8906015522808506e-01 4.0387928910428199e+00 1.1360935110886139e+01 3 0 0
808 1 6.8239823501344468e+00 3.1451684237004116e+00 6.6389035963188405e+00 -4 0 -1
176 2 5.6004119652133877e+00 -6.3432417533785568e-01 1.2772150141445019e+01 -5 0 1
577 1 2.0035058210190657e+00 5.5343882417042378e+00 1.5880204524239957e+01 0 0 0
19 1 1.1128168917561521e+01 7.4307135271158664e+00 1.3420241972489458e-01 -3 0 -3
1000 1 8.7207216686121534e+00 3.9961285378421580e+00 2.3074496107537432e+00 -1 0 1
294 2 9.9875845254444648e+00 7.0496834625510747e+00 5.6391447756420288e+00 0 0 -3
390 2 1.5101767596440142e+01 -9.0906334643503728e-02 4.7629722806953891e+00 -1 0 0
721 1 7.7504966008280345e+00 6.7851084710911014e+00 3.1728692728255710e+00 -5 0 -2
521 2 8.0682019828803124e+00 1.3013144395703673e+00 9.5429333487389609e+00 -5 0 -2
813 2 1.2595518261907694e+01 5.9301720827452735e+00 1.2283572507090382e+01 -2 0 -1
912 2 1.1372118970109049e+01 1.8859415448985550e-01 3.0779886981331361e+00 -2 0 1
161 2 -2.0692098986104841e+00 8.9721516662898111e+00 8.3143782738339596e+00 1 0 -5
277 1 8.1020247135527974e+00 9.0739328322835160e+00 8.0266929914694281e+00 -4 0 -1
771 2 1.4763800814704037e+01 7.8755975458829646e+00 5.1940061770257291e+00 0 0 -3
320 2 1.0316386578346261e+01 -1.1767306254212651e+00 1.3982690092367976e+01 -4 0 -3
809 2 6.6302169047250050e+00 3.3865150591123685e+00 5.6586054237077912e+00 -4 0 -1
866 2 -1.5407564365819253e+00 4.7520311707639049e+00 1.8330718080021889e+01 -3 0 -1
94 1 1.0499428489957305e+01 3.6290075603016918e+00 4.3591574118458398e+00 -2 0 -1
225 2 -2.6055042362554852e+00 7.2450486320751502e+00 1.6710555228668014e+01 -2 0 -2
770 2 1.6178199770588247e+01 8.4626506512529449e+00 4.7488862022127778e+00 0 0 -3
123 2 8.9822646572739728e+00 6.7664376480938664e+00 1.6453394690738499e+01 -2 0 -1
440 2 -2.0198293709410073e+00 8.0093228325037042e+00 1.2582250218468364e+01 -2 0 -2
383 2 1.0299119626299913e+01 5.6796197256795722e+00 1.7823972657203406e+01 -2 0 0
539 2 2.8074729029265977e+00 -1.4540816879257594e+00 2.6631533494142450e+00 -4 0 -3
499 1 -2.6489449560337892e+00 5.4455793732756934e+00 8.9061260714032411e+00 1 0 1
910 1 1.0916295643323901e+01 -4.8656341130750547e-01 2.4936812039651945e+00 -2 0 1
546 2 2.5538101263515598e+00 4.3213318455544485e+00 1.2804338568270916e+01 2 0 1
520 1 8.7070719327984936e+00 1.6545860856275927e+00 1.0211240133238583e+01 -5 0 -2
729 2 6.1425294556584342e+00 7.3551679701696298e+00 1.2827820826608573e+01 0 0 1
612 2 1.0474942163080874e+01 4.1686519092152903e+00 1.0336197611757859e+01 -1 0 1
993 2 1.3013860234042307e+01 -7.1101424311775951e-01 9.9357745374751509e+00 1 0 1
121 1 9.6052865187272651e+00 6.1274850784043711e+00 1.6041177358392574e+01 -2 0 -1
551 2 2.3463960911568220e+00 8.9074071228991549e+00 5.0373177817214883e+00 0 0 1
424 1 1.2074357250017160e+01 1.1763820398016387e+00 4.5028684186819108e+00 -2 0 1
811 1 1.1922476131056781e+01 5.4585414751340240e+00 1.2916381371776168e+01 -2 0 -1