LAMMPS data file via write_data, version 3 Mar 2020, timestep = 1000000

1008 atoms
2 atom types

2.1443154540708953e-01 1.8185123454585948e+01 xlo xhi
4.0067188630937167e-02 2.2530321811364288e+01 ylo yhi
1.7100261587356158e-01 1.9334713384118778e+01 zlo zhi
2.9094842729058552e-02 -6.6493299844594285e+00 -2.3954947424089084e-02 xy xz yz

Masses

1 16
2 2

Atoms # atomic

1 1 6.6654735177305140e+00 1.1166003691328810e+00 4.8646191746871104e+00 0 0 0
156 2 1.2086763879411841e+01 4.4035531234297121e-01 2.1554071865887390e+00 0 0 0
3 2 6.8387759577620910e+00 1.6270768525056334e+00 4.0234149110560660e+00 0 0 0
4 1 4.0038326332839596e+00 9.1926659221589913e-01 5.2199955319902402e+00 0 0 0
5 2 4.9667930587354672e+00 7.7585017912995347e-01 5.1346893583769830e+00 0 0 0
6 2 3.9943892641579728e+00 1.2806581882958894e+00 6.1228002760723124e+00 0 0 0
7 1 -2.1506755591037097e-01 6.3296942993532808e+00 4.9588004780961787e+00 0 0 0
8 2 -3.1202031330705737e-01 6.2809816866423089e+00 5.9607025630216075e+00 0 0 0
9 2 -9.6829152390830897e-01 6.9183481715957802e+00 4.7528309556676280e+00 0 0 0
10 1 2.3591931927542511e+00 6.3798484055317184e+00 4.7265746789543117e+00 0 0 0
11 2 1.3874988046803294e+00 6.6223290601538576e+00 4.7048382041726748e+00 0 0 0
12 2 2.8735918377353800e+00 7.2434584964872224e+00 4.8367520243392210e+00 0 0 0
586 1 -9.8743883736826588e-01 6.2149564073781276e+00 9.7116915403432245e+00 0 0 0
14 2 5.3857368566713877e+00 5.3027754402724208e+00 8.7760987751445221e+00 0 0 0
311 2 1.1276672045470034e+01 1.1247920828175955e+01 5.7330631644415941e+00 0 0 0
293 2 1.2746457361807758e+01 1.0644500413042385e+01 6.7738164321915075e+00 0 0 0
18 2 5.7409312668283450e+00 5.0118674150609719e+00 1.2918450375177966e+00 0 0 0
751 1 3.5703494866484968e+00 8.9545453494792149e+00 9.7206958898355378e+00 0 0 0
248 2 7.9374177773222083e+00 8.2775382007559859e+00 6.6856008166888548e-01 0 0 0
21 2 9.9473806264860531e-01 2.2008584734805616e+00 1.3044769159137644e+00 0 0 0
274 1 9.9396428883454462e+00 1.0114376267210190e+01 9.3388123108114325e+00 0 0 0
106 1 9.2911397579804085e+00 2.7156355357227708e+00 9.4321370920161360e+00 0 0 0
301 1 1.5687232102490096e+01 1.0837928399846906e+01 6.0864538691398007e+00 0 0 0
25 1 5.0813704019503279e+00 6.1845604735961937e+00 7.1640723056381654e+00 0 0 0
26 2 5.6777873966987951e+00 6.9680883466680292e+00 7.3701641751904559e+00 0 0 0
27 2 4.2129662724149259e+00 6.4772278227753528e+00 7.3212848650662812e+00 0 0 0
28 1 5.9860448348781619e+00 6.2057514518036259e+00 2.7264242261468898e+00 0 0 0
29 2 5.8583320490615858e+00 5.6021064647508032e+00 3.5194865478614545e+00 0 0 0
30 2 5.2342749519829672e+00 6.8082321176642600e+00 2.5307425992685642e+00 0 0 0
31 1 1.4083938623529151e+00 1.2752827276943051e+00 2.7085629692342268e+00 0 0 0
32 2 2.3329007906281314e+00 1.1175509924233560e+00 2.6195400656047356e+00 0 0 0
33 2 1.1850795798952611e+00 1.4278053720378954e+00 3.6553433951228023e+00 0 0 0
34 1 -2.0076007043678956e-04 8.1573690056575432e-01 7.4493229300775869e+00 0 0 0
35 2 -8.8046295868451940e-01 4.6323731569776011e-01 7.4927135656690993e+00 0 0 0
36 2 -5.1788420264816892e-02 1.5715202491303157e+00 8.0681237573987943e+00 0 0 0
37 1 6.4646049533022278e+00 2.5222970120895556e+00 2.6534496298714925e+00 0 0 0
38 2 5.5828927521714693e+00 2.9066760310546735e+00 2.9965594778113553e+00 0 0 0
39 2 7.1544919097975805e+00 3.2366019383939704e+00 2.6883238236636640e+00 0 0 0
40 1 4.2014008045839617e+00 2.7316993697300589e+00 7.7444709183604052e+00 0 0 0
41 2 5.1354611853394481e+00 2.9628026624216148e+00 7.4463057891439810e+00 0 0 0
42 2 3.6156050587509561e+00 3.4184664999602123e+00 7.4117709880271585e+00 0 0 0
43 1 -3.3177431758428022e-01 5.0929710518993092e+00 7.3037596498009680e+00 0 0 0
44 2 -1.1496957858697732e+00 4.5560262758636831e+00 7.1376540719629062e+00 0 0 0
45 2 -4.2605452320322135e-01 5.4508408825123835e+00 8.2035562225994152e+00 0 0 0
46 1 2.0142886458469129e+00 4.9525965305344899e+00 2.4383049254365727e+00 0 0 0
47 2 1.1700043989041009e+00 4.4465034602807201e+00 2.7472633947634586e+00 0 0 0
48 2 2.2463862235150862e+00 5.5239373915487677e+00 3.2085181812593322e+00 0 0 0
49 1 6.8557124358013262e+00 3.0385401464901918e+00 6.8712475860157509e+00 0 0 0
50 2 6.5830703283029459e+00 3.5756768445533784e+00 6.1284747876446595e+00 0 0 0
51 2 7.0171229718627472e+00 2.2208972760090937e+00 6.4294540162179752e+00 0 0 0
52 1 4.0896884481096780e+00 3.2605069385641663e+00 3.5211586563057762e+00 0 0 0
53 2 3.3413505261437173e+00 3.7009762173386025e+00 3.0349630090504793e+00 0 0 0
54 2 3.8831354635754134e+00 2.3243709106461177e+00 3.7735990863751887e+00 0 0 0
55 1 -3.9624911387605910e-01 3.9219229650879734e+00 3.7244975291699860e+00 0 0 0
57 2 -1.2033787394029538e-01 3.2473376183548135e+00 4.3588682986578453e+00 0 0 0
58 1 2.3596171226857794e+00 4.1421183114753530e+00 6.6449788837711647e+00 0 0 0
59 2 2.4460660112431887e+00 4.9077420618017671e+00 6.0619081613224770e+00 0 0 0
60 2 1.5062995548725988e+00 4.2134499548859061e+00 6.9811618459798188e+00 0 0 0
61 1 8.6806014855886833e+00 6.9906412860519929e+00 1.7127569650024372e+00 0 0 0
62 2 7.9057803315675796e+00 6.7143695085139905e+00 2.2378638770493700e+00 0 0 0
63 2 8.6084805108821865e+00 6.4008272954978942e+00 9.0321752411438927e-01 0 0 0
64 1 2.4097023649759741e+00 6.8865835054363727e+00 8.3526679794796763e+00 0 0 0
65 2 1.5687687381194615e+00 7.2408517785826572e+00 7.9647202622978899e+00 0 0 0
66 2 2.8123826691896006e+00 7.5227976716458560e+00 8.9356125970629936e+00 0 0 0
86 2 1.6368731105440176e+01 5.9984961187976171e-01 4.9407349615654601e+00 0 0 0
20 2 4.5916159106975130e-01 3.2271115998601787e+00 3.1636480115582666e-01 0 0 0
606 2 1.0562828753380114e+01 3.8554602163156511e+00 9.4860671944801034e+00 0 0 0
72 2 3.9094673716672728e+00 1.2399145740584789e+00 1.3502982798605705e+00 0 0 0
73 1 5.8030345651504600e+00 4.7630475470137137e+00 5.0276291303806939e+00 0 0 0
74 2 5.3520345647959466e+00 5.4305061740290954e+00 5.6810715594538843e+00 0 0 0
75 2 5.0456483550613545e+00 4.2439723772384186e+00 4.7433261019358524e+00 0 0 0
76 1 8.2198757704864445e-01 2.1261167292679093e+00 5.3394548264245794e+00 0 0 0
77 2 5.1260315607742246e-01 1.6639648682120178e+00 6.1477156938920015e+00 0 0 0
78 2 1.5815450444134023e+00 2.6015461703725755e+00 5.6601857624120822e+00 0 0 0
217 1 6.2532353063826767e+00 1.0904274400649697e+01 6.4956260866610327e+00 0 0 0
668 2 1.2781909605130011e+01 2.1555273000616464e+00 8.9961467831875019e+00 0 0 0
82 1 2.3976262188401107e+00 6.3647915463607783e+00 3.0054386179015358e-01 0 0 1
85 1 1.5632947436664184e+01 1.2551125904625069e+00 5.1145771382426597e+00 0 0 0
87 2 1.5552606898661461e+01 1.7191654264960354e+00 4.2737824493797838e+00 0 0 0
88 1 1.2915288050869625e+01 1.0890274461876217e+00 5.5482453280020332e+00 0 0 0
89 2 1.3049989411244711e+01 1.6445344776148343e+00 4.7523942686319982e+00 0 0 0
90 2 1.3806148173562271e+01 7.3224524167908323e-01 5.6962585901232110e+00 0 0 0
91 1 7.9093010432167681e+00 6.4780749872058356e+00 5.2628755401056289e+00 0 0 0
92 2 7.8100490210153204e+00 5.7482569497796518e+00 4.6241060057995664e+00 0 0 0
93 2 8.7989701217568399e+00 6.8308089979799824e+00 5.1094377840573859e+00 0 0 0
94 1 1.0871743017794854e+01 6.6557145815264613e+00 5.1319416552176618e+00 0 0 0
95 2 1.1573765969720041e+01 7.3339513692364751e+00 4.9889770931881712e+00 0 0 0
96 2 1.1190364207156961e+01 5.8971122615224312e+00 5.6520627973764270e+00 0 0 0
151 1 6.6554152310796280e+00 5.1054199338069606e-01 8.4916766940750055e+00 0 0 0
2 2 7.2125218054604501e+00 3.1590197559310090e-01 4.7475307785044469e+00 0 0 0
152 2 7.3991514271890146e+00 6.5623771085110316e-01 7.8830042203517925e+00 0 0 0
101 2 1.4564491324233728e+01 4.9651161637578154e+00 1.2623323460450220e+00 0 0 0
246 2 9.3329807782422503e-01 1.0457811756213282e+01 5.3357910906545438e+00 0 0 0
145 1 1.7272171943707242e+01 6.6422235420838884e+00 1.7696317037243416e+00 0 0 0
83 2 2.0232855312785611e+00 5.7882634904226249e+00 1.0024333063890980e+00 0 0 0
56 2 -6.7036198862290974e-01 4.7234727221074753e+00 4.2140889506265600e+00 0 0 0
109 1 1.3694846601832676e+01 6.4393594044917215e+00 7.5125218797532503e+00 0 0 0
110 2 1.4041090751202384e+01 5.7006298781108118e+00 8.0537057296754817e+00 0 0 0
111 2 1.2746529397249823e+01 6.6067401885589714e+00 7.8630115933954441e+00 0 0 0
112 1 1.4676804137387114e+01 6.1784900984837297e+00 2.6353683223757938e+00 0 0 0
113 2 1.4137996388967304e+01 7.0116581534682618e+00 2.4636307012769203e+00 0 0 0
114 2 1.5584344644468191e+01 6.4520496512339243e+00 2.5032944447945713e+00 0 0 0
115 1 1.0784288206637592e+01 1.5599836559496740e+00 2.7285129310199943e+00 0 0 0
116 2 1.0603139045855309e+01 1.9555536532353681e+00 1.8713837719292616e+00 0 0 0
237 2 1.4838218746092384e+01 7.6219105886789507e+00 7.9233993108584935e+00 0 0 0
118 1 9.0887753050789541e+00 1.1275737175332152e+00 7.3352972670228587e+00 0 0 0
119 2 9.2270499309521536e+00 1.7396639024225753e+00 8.1666470331480170e+00 0 0 0
120 2 9.4186860880064476e+00 1.5660443115684197e+00 6.5195308692851883e+00 0 0 0
121 1 1.5496739447674280e+01 2.6452981401055471e+00 2.6297573691866720e+00 0 0 0
122 2 1.6395266459565939e+01 3.1276317724629865e+00 2.8491462725295635e+00 0 0 0
123 2 1.5517927864867138e+01 2.3924718435269368e+00 1.6902846850284119e+00 0 0 0
124 1 1.3342436183814938e+01 2.9356167239335034e+00 7.6299603606774653e+00 0 0 0
125 2 1.4146699106074392e+01 3.3771764837915348e+00 7.2852358413520912e+00 0 0 0
126 2 1.3152859106026458e+01 2.2446916895900539e+00 6.9912698729693874e+00 0 0 0
127 1 8.6042806281086950e+00 5.1003148541480341e+00 7.7071249040819687e+00 0 0 0
128 2 8.1424471207167297e+00 4.2822975877176583e+00 7.5150931846913114e+00 0 0 0
129 2 8.4436696979770680e+00 5.6162956557302124e+00 6.9115925349591443e+00 0 0 0
130 1 1.1245830418531403e+01 5.2383584182243590e+00 2.7287464282502620e+00 0 0 0
131 2 1.1674633676209464e+01 4.3915391650497302e+00 2.9507637123001729e+00 0 0 0
132 2 1.0927254579702053e+01 5.7635173048288770e+00 3.5230831354297139e+00 0 0 0
134 2 1.5326567588819056e+01 4.1381697671537250e+00 5.8318170879002622e+00 0 0 0
136 1 1.3044493378580976e+01 3.1633207212964574e+00 3.5741374094599818e+00 0 0 0
137 2 1.3211998050443402e+01 3.7751875962107686e+00 4.2912330357589186e+00 0 0 0
138 2 1.3999051447066980e+01 3.0438401709029579e+00 3.1704114841783206e+00 0 0 0
139 1 8.4745535974907789e+00 4.2833349908763507e+00 3.1277613496295706e+00 0 0 0
140 2 9.2443803194612819e+00 4.5487513992264033e+00 2.4923611979085356e+00 0 0 0
141 2 8.7519331750369602e+00 3.6233901364419387e+00 3.7874253674372471e+00 0 0 0
142 1 1.1298662660960851e+01 4.5235322532964037e+00 6.6974212364602472e+00 0 0 0
143 2 1.1932328054887401e+01 4.1079477284346622e+00 7.2752595200649433e+00 0 0 0
144 2 1.0580841556863122e+01 4.6795006408207005e+00 7.2934992275285335e+00 0 0 0
147 2 1.6905423701969553e+01 7.3935420245665924e+00 1.2027194573903957e+00 0 0 0
148 1 1.1025439078758126e+01 7.1956741055200126e+00 8.2766245972955979e+00 0 0 0
149 2 1.0717166618437188e+01 6.4494878070700912e+00 8.8132655557670425e+00 0 0 0
150 2 1.1533636127273018e+01 7.8144996330492340e+00 8.8780109777261114e+00 0 0 0
70 1 3.9152068832712397e+00 3.6574293192502383e-01 1.8035708123170751e+00 0 0 0
67 1 -2.3344897805908928e+00 1.8975619845128169e-01 8.3025243420991899e+00 0 0 0
153 2 6.3462482978373966e+00 1.3641199672732944e+00 8.9035185761093913e+00 0 0 0
68 2 -2.4902434653813761e+00 1.0270298496686516e+00 8.8366488267708103e+00 0 0 0
155 2 1.3153218451645467e+01 1.2120875042248855e+00 1.3620772201548523e+00 0 0 0
836 2 1.2806865574159024e+01 9.3715674062547087e+00 8.8833774008467188e+00 0 0 0
157 1 1.4267366956932278e+01 5.2597402724023370e+00 5.0945229929096092e+00 0 0 0
158 2 1.4468874479896312e+01 5.7643707657225542e+00 4.2758062232450946e+00 0 0 0
159 2 1.4009634021099496e+01 5.8488230176446825e+00 5.8460320563353250e+00 0 0 0
160 1 9.7066119410722820e+00 2.7893432857822198e+00 5.1915773002291079e+00 0 0 0
161 2 1.0357318382899178e+01 3.4227233158254458e+00 5.5482496844957989e+00 0 0 0
162 2 1.0286539935682152e+01 2.3583579097251928e+00 4.5070208369129059e+00 0 0 0
254 2 1.6179812748135525e+01 8.8041477645061850e+00 5.1951771421354342e+00 0 0 0
117 2 1.0107751045535689e+01 8.0415318783557188e-01 2.7288856618657555e+00 0 0 0
209 2 3.0519333764704371e+00 1.0981378609403951e+01 7.0363419615345268e+00 0 0 0
169 1 6.5624028823578175e+00 8.6144641951101484e+00 4.7232017153486758e+00 0 0 0
170 2 7.1329904679499538e+00 7.8771998327271735e+00 4.9493390750205766e+00 0 0 0
171 2 6.5707768339190658e+00 9.0741929344635341e+00 5.5753926942960046e+00 0 0 0
172 1 3.6382937372501436e+00 8.6730914709650353e+00 5.0020125966984441e+00 0 0 0
173 2 3.5175886252326678e+00 9.4387554843874106e+00 4.3615326753559076e+00 0 0 0
174 2 4.5953373470352421e+00 8.5697922730241114e+00 4.9318917622751979e+00 0 0 0
69 2 1.4793672651990759e+01 3.7690831641593328e-02 7.8947169899150742e+00 0 0 0
220 1 3.7022127536610414e+00 1.0820890332870325e+01 3.3951562251926752e+00 0 0 0
306 2 1.3776100378111199e+01 1.0759457200023499e+01 3.0023169079757039e+00 0 0 0
192 2 3.5589921781004508e-01 9.7451909964208117e+00 8.8999927715144409e+00 0 0 0
199 1 1.2691291893182601e+00 8.5548972270344237e+00 2.6303828087134309e+00 0 0 0
200 2 1.2381887539544272e+00 9.2225900889079835e+00 1.8704949848029548e+00 0 0 0
201 2 6.0709163235419616e-01 7.8682003611151137e+00 2.4496851328479861e+00 0 0 0
202 1 1.0412834433423557e-01 8.2985402915892621e+00 7.3907470883961075e+00 0 0 0
203 2 -8.7974375828777829e-01 8.2751392620668032e+00 7.4821279443057618e+00 0 0 0
204 2 2.2856922947501390e-01 8.8690397116623600e+00 6.5942154424244039e+00 0 0 0
205 1 6.3361885614909754e+00 1.0232909908385919e+01 2.4653025568645770e+00 0 0 0
206 2 6.5724321780669026e+00 9.5807112120541138e+00 3.1971759346573609e+00 0 0 0
207 2 6.4022893886603560e+00 9.7133028476125265e+00 1.6590857690256680e+00 0 0 0
208 1 3.6750399827914451e+00 1.0266292378902262e+01 7.3920635172825886e+00 0 0 0
22 1 3.7583416249682511e-01 2.6632688290446525e+00 9.2492212010381341e+00 0 0 0
210 2 3.6956643290106892e+00 9.5777400483641593e+00 6.7171395466613317e+00 0 0 0
219 2 5.5822886736525534e+00 1.1067944864376908e+01 7.1556412362136719e+00 0 0 0
305 2 1.2285794284386627e+01 1.1122584214716023e+01 2.7038842358462434e+00 0 0 0
302 2 1.5006732936242310e+01 1.0473802215723355e+01 6.6811864651310868e+00 0 0 0
584 2 3.1925308751483290e+00 6.5813657998638286e-01 9.4583316985224855e+00 0 0 0
154 1 1.3026776351130378e+01 3.6513388091526472e-01 1.8978296785572868e+00 0 0 0
235 1 -2.3770685520812478e+00 8.1401690367264212e+00 8.2466279276939662e+00 0 0 0
236 2 -2.7295924682340402e+00 8.9168813628984438e+00 8.7320025088195852e+00 0 0 0
238 1 4.1111399465008232e+00 7.9411292617971743e+00 1.7574810186208483e+00 0 0 0
239 2 3.1899219511675474e+00 8.0295935894539703e+00 2.0061714599494564e+00 0 0 0
240 2 4.2476401207609262e+00 8.7074357624767131e+00 1.1853499880278662e+00 0 0 0
244 1 2.4631213867088020e-01 9.8911621862600541e+00 4.9052732529733714e+00 0 0 0
245 2 7.4360518013356414e-01 9.4409854941700360e+00 4.1079579812850398e+00 0 0 0
218 2 7.1077746524402867e+00 1.1268266927745561e+01 6.7661312734069314e+00 0 0 0
135 2 1.5899991968138412e+01 2.6916567520633063e+00 6.1530569893985980e+00 0 0 0
304 1 1.2910985703501483e+01 1.0820142262022708e+01 3.3907840908208553e+00 0 0 0
253 1 1.5718970962530083e+01 8.1916228078353264e+00 4.6352936340004254e+00 0 0 0
255 2 1.5698295001865526e+01 8.6991207529231520e+00 3.7776486405125187e+00 0 0 0
256 1 1.3004219470287879e+01 8.4681937721958356e+00 5.0388147179885943e+00 0 0 0
257 2 1.4003220640457736e+01 8.2186970797736194e+00 4.9482807435455065e+00 0 0 0
258 2 1.2915489034261061e+01 9.2251138884387096e+00 4.3406638541289535e+00 0 0 0
290 2 1.6050050100094957e+01 1.0711652373480685e+01 2.8721685311883483e+00 0 0 0
272 2 1.0263452133842561e+01 1.0009553532774159e+01 1.3061372461594372e+00 0 0 0
16 1 5.9093396497315327e+00 4.6090402255585250e+00 4.1055069541171263e-01 0 0 0
276 2 9.9274698910589780e+00 9.8754573995782646e+00 8.3970097237295658e+00 0 0 0
283 1 1.0618358165381128e+01 8.9337214032651922e+00 2.5596227761992951e+00 0 0 0
284 2 1.0739216513776016e+01 9.1776275745346272e+00 3.5009093871063999e+00 0 0 0
285 2 1.0007191434840848e+01 8.1648760117859265e+00 2.6455209020030277e+00 0 0 0
286 1 9.4338480758087027e+00 8.8020100316788898e+00 6.7465661187327051e+00 0 0 0
287 2 1.0068222376380033e+01 8.1174342347101955e+00 7.1729274078354237e+00 0 0 0
288 2 8.5324197975862059e+00 8.6212414012589473e+00 7.0383391859372182e+00 0 0 0
289 1 1.5475011215570559e+01 9.9414680533592321e+00 2.5184857883177791e+00 0 0 0
167 2 1.1324064212826224e+01 5.8171453907708353e+00 8.1569386335584027e-01 0 0 0
291 2 1.5697133030086645e+01 9.5881535981021155e+00 1.6577851057955959e+00 0 0 0
292 1 1.3283966641645428e+01 9.9862971447319868e+00 7.2460505224916245e+00 0 0 0
84 2 3.1649058907400680e+00 6.7608679434413803e+00 7.5804409691576036e-01 0 0 0
294 2 1.3306895922614354e+01 9.2521751766656362e+00 6.6581338611919758e+00 0 0 0
221 2 4.4486670265827115e+00 1.0558091427204154e+01 2.8606255337905746e+00 0 0 0
79 1 7.3452748410561970e+00 1.6258986285504002e+00 4.3299400914681496e-01 0 0 1
587 2 -1.5681884269162136e+00 6.8404974299267094e+00 9.2736800041565051e+00 0 0 0
585 2 3.8882587181469481e+00 1.8808460748411702e+00 9.1431651997145753e+00 0 0 0
319 1 6.8710690228032165e+00 7.9614620846015072e+00 7.8384489122384187e+00 0 0 0
320 2 6.4753183283894007e+00 8.8683200298708122e+00 8.0344211376962384e+00 0 0 0
321 2 7.0495638952089585e+00 7.5951345761736579e+00 8.7119374574235824e+00 0 0 0
322 1 1.3008482391927943e+01 8.0718981373264622e+00 1.6655363951070690e+00 0 0 0
323 2 1.2172735981861884e+01 8.4771555998933419e+00 2.0843374024434285e+00 0 0 0
324 2 1.2583582675560219e+01 7.5050388275618340e+00 1.0089018579732962e+00 0 0 0
328 1 1.0145595081464389e+01 1.0003213340955650e+01 4.7324214213191480e+00 0 0 0
329 2 9.9233322284042558e+00 9.4389609372783791e+00 5.4935341021042809e+00 0 0 0
330 2 9.3959454720189637e+00 1.0566138404731525e+01 4.4341999062412834e+00 0 0 0
165 2 1.6412684046875306e+01 8.4047784717796503e-01 5.1469996999734624e-01 0 0 0
521 2 2.1281830829298913e+00 5.4494743090997861e+00 9.5853336751334464e+00 0 0 0
526 1 4.0330992100816037e+00 2.7827123955748321e+00 3.8157617402969624e-01 0 0 1
671 2 8.0231271289660349e+00 5.9634137564864336e+00 9.0401799631143511e+00 0 0 0
23 2 9.2766633424030243e-01 3.3903584987703126e+00 9.5228732694394918e+00 0 0 0
133 1 1.5750407355819428e+01 3.5973904604142821e+00 6.5429973519357798e+00 0 0 0
24 2 -5.3369767989835726e-01 2.9084461937207928e+00 9.5388908832475572e+00 0 0 0
331 1 1.5936501080507815e+01 8.4922161142895352e+00 2.6704328444406633e-01 0 0 0
103 1 1.0091511286594365e+01 2.6867968651409191e+00 3.5048214133012690e-01 0 0 0
80 2 6.8733169838393895e+00 2.0466504129948677e+00 1.2309660994807707e+00 0 0 0
146 2 1.7314036977173288e+01 5.8372571810975291e+00 1.2299465925439657e+00 0 0 0
601 1 1.7376132010478308e+01 4.5384057433052716e+00 2.6559523985216577e-01 0 0 1
13 1 5.1273700974345555e+00 5.0205724433834673e+00 9.7170522619905046e+00 0 0 0
753 2 3.4884315725708697e+00 9.4474304090609937e+00 8.9040681916386895e+00 0 0 0
775 1 6.8158423663853807e+00 1.0134505046326401e+01 9.5447663064465615e+00 0 0 0
187 1 1.1896426627720746e+00 1.0158320402296443e+01 2.7996236419460979e-01 0 0 0
97 1 1.4170616702334028e+01 4.7445121319404544e+00 9.6653863682175167e+00 0 0 0
399 2 8.6594670371789491e+00 9.1307247462609264e-02 1.4030527859682878e+00 0 0 0
780 2 1.3200066310851293e+01 9.4234236158100124e+00 4.6458180599774873e-01 0 0 0
528 2 3.1210541021759952e+00 3.1000449520173361e+00 3.5066888094482512e-01 0 0 0
224 2 -5.6503508125681889e-01 1.1228529320498458e+01 4.1176002184885441e+00 0 0 0
100 1 1.4638106192689587e+01 4.7493897042607731e+00 3.1815911204428438e-01 0 0 0
19 1 1.1653627126261690e+00 2.5484926792759475e+00 4.2475726660134627e-01 0 0 0
777 2 6.2105734297922606e+00 1.0920036419600283e+01 9.4526601832259907e+00 0 0 0
104 2 9.4928050699897408e+00 3.5144927574119418e+00 2.1605243039874306e-01 0 0 1
108 2 8.3572210660288437e+00 2.9384750275126912e+00 9.7270405486211953e+00 0 0 0
271 1 1.0268393002281160e+01 1.0307545093586308e+01 3.5714901031665430e-01 0 0 0
835 1 1.2509054634541652e+01 8.8251616278473346e+00 9.7065287672205915e+00 0 0 0
776 2 7.7061898402361777e+00 1.0544572559782051e+01 9.5039915373208483e+00 0 0 0
667 1 1.2333207928431740e+01 1.5625984212334876e+00 9.6349450302207167e+00 0 0 0
17 2 5.3569898704212449e+00 3.7909150530492965e+00 3.9288386531137931e-01 0 0 0
604 1 1.1280934198328039e+01 4.5583663173279589e+00 9.4869264747620594e+00 0 0 0
602 2 1.6386829144156366e+01 4.5068509174055258e+00 4.2794409940176759e-01 0 0 0
247 1 7.1390681862046721e+00 8.5852062513681258e+00 2.2493606880175071e-01 0 0 0
99 2 1.3241095337282784e+01 4.4386739345724591e+00 9.5987071273891242e+00 0 0 0
486 2 1.1390119055127395e+01 2.0410344594125313e-01 8.8908668087997320e+00 0 0 0
190 1 4.4570026097901261e-01 1.0208979811701685e+01 9.7249777673711311e+00 0 0 0
610 1 6.5396346126056484e+00 2.5897569193152981e+00 1.9324093270755082e+01 0 0 0
168 2 4.1572699728298153e+00 7.0055323464805088e+00 1.8985880456421242e+01 0 0 0
537 2 -1.1870499691147933e+00 1.0267017420906832e+00 1.2019104148767187e+01 0 0 0
833 2 6.6249672302091351e+00 9.5651702022458949e+00 1.3526490194144817e+01 0 0 0
728 2 -3.7645732492559807e+00 1.0969639135792413e+01 1.3410282894550106e+01 0 0 0
669 2 1.2275175371342453e+01 2.0071654402259229e+00 1.0526656439074985e+01 0 0 0
743 2 2.1015349905777470e-03 7.1943355320508502e+00 1.0692352812967624e+01 0 0 0
659 2 1.0241755092962944e+01 7.1933623284733961e-01 1.1865510561465292e+01 0 1 0
725 2 -6.2388629356074965e-01 1.1114391649377865e+01 1.2835865074069085e+01 0 0 0
808 1 9.4870943735353119e+00 1.0541654925931315e+01 1.3272833139595445e+01 0 0 0
732 2 -5.4381335266712760e-01 1.0885659428682933e+01 1.6591504831400968e+01 0 0 0
672 2 8.3772285961301129e+00 6.8436577634509792e+00 1.0236445408093516e+01 0 0 0
188 2 -5.5197461207611811e+00 9.2895693366343810e+00 1.8843832804927480e+01 0 0 0
191 2 6.3214178238678498e-01 9.4007818840354034e+00 1.0274193825612224e+01 0 0 0
826 1 9.5360110099887727e+00 7.7725403358548268e+00 1.1188481655909522e+01 0 0 0
815 2 8.5463442214477983e+00 1.1220176892229549e+01 1.6538399800692311e+01 0 0 0
588 2 -1.5582157541431092e+00 5.7748234591816470e+00 1.0381107883892120e+01 0 0 0
827 2 1.0203644141144466e+01 7.1722429854213612e+00 1.1559429786170124e+01 0 0 0
505 1 3.3207507091541784e+00 1.3506485581550336e+00 1.4585404809867750e+01 0 0 0
506 2 3.6411808265969370e+00 2.1028496981484097e+00 1.5085362845188328e+01 0 0 0
163 1 9.1942874422983945e+00 1.3294269521222413e+00 1.9114537662993282e+01 0 0 -1
508 1 4.1532844958813442e-01 1.2507892040118755e+00 1.4880948221021512e+01 0 0 0
658 1 9.3445141148524691e+00 9.8213036491032590e-01 1.1431154252253059e+01 0 0 0
510 2 1.3530535210562311e+00 8.9960031818147623e-01 1.4884710299786519e+01 0 0 0
511 1 -3.9638258677971221e+00 6.8672668540225423e+00 1.4883680966254007e+01 0 0 0
512 2 -4.0772550577011968e+00 6.4602567955095225e+00 1.4046029054506242e+01 0 0 0
513 2 -4.0093348226220025e+00 6.2618428133655257e+00 1.5668965036168480e+01 0 0 0
514 1 -1.1769801924385028e+00 6.5537264603947083e+00 1.4161036827756300e+01 0 0 0
515 2 -8.5801725174681831e-01 5.9477159679396667e+00 1.4878763542433713e+01 0 0 0
516 2 -2.0782165777499548e+00 6.7346399502105285e+00 1.4493810410764947e+01 0 0 0
249 2 8.3616152579796221e-01 9.1932406050490982e+00 1.8700669173047810e+01 0 0 0
519 2 1.8274701831536584e+00 5.5693726919598499e+00 1.8311728024855864e+01 0 0 0
986 2 1.3157608162476480e+01 2.9776982086205928e-01 1.0516821022938116e+01 0 0 0
522 2 2.3249182979338503e+00 4.6739820003284018e+00 1.0850989049307566e+01 0 0 0
832 1 6.4121239009616096e+00 1.0101859942729998e+01 1.4305584225823829e+01 0 0 0
807 2 1.2217628110667375e+01 9.9996178507093223e+00 1.5684240321195627e+01 0 0 0
525 2 -2.3905247332179660e+00 2.1506666555311864e+00 1.0725820542648806e+01 0 0 0
805 1 1.2048574958453960e+01 1.0880469804458141e+01 1.6188846434945233e+01 0 0 0
527 2 -2.5694408166024751e+00 2.2612850295567419e+00 1.8664221428341001e+01 0 0 0
529 1 1.6347575275690174e+00 6.5688986643140685e+00 1.6948324591643207e+01 0 0 0
530 2 1.5243011979416634e+00 5.9791674917720181e+00 1.6165221557360468e+01 0 0 0
531 2 6.8664786558833946e-01 6.8402492819255629e+00 1.7077010443821546e+01 0 0 0
532 1 2.4752496629884337e+00 6.2872997634092069e+00 1.2057288928160810e+01 0 0 0
533 2 3.3244171827986211e+00 6.7853445855152623e+00 1.1844214941542756e+01 0 0 0
534 2 2.3281300509065366e+00 6.0276000975534574e+00 1.2987077081728634e+01 0 0 0
535 1 -2.1114644262121347e+00 1.3131492797765614e+00 1.2258055864585140e+01 0 0 0
583 1 3.7097035541237555e+00 1.3234506614007360e+00 9.9551343598726998e+00 0 0 0
518 2 1.0067552014273913e+00 4.6763212142418853e+00 1.9243522556556954e+01 0 0 -1
538 1 -2.8456326187275027e+00 1.4284264581411090e+00 1.7035715764481399e+01 0 0 0
539 2 -3.8249377034104164e+00 1.3097554477035616e+00 1.7135588973715773e+01 0 0 0
540 2 -2.7433528494752051e+00 1.7016830561931922e+00 1.6059609166100856e+01 0 0 0
541 1 2.8294316307393030e+00 2.6130644080448628e+00 1.2224153160178462e+01 0 0 0
542 2 2.9069722696862010e+00 2.1286442281687998e+00 1.3085353926694630e+01 0 0 0
543 2 3.1690605959481002e+00 2.0710747194316208e+00 1.1455737117000238e+01 0 0 0
544 1 7.4672060673463303e-01 2.8495988886263026e+00 1.7152578559696163e+01 0 0 0
545 2 6.9603500816481656e-01 2.5121497958607084e+00 1.8057331279193864e+01 0 0 0
546 2 4.3058800243195172e-01 2.1115977984606600e+00 1.6539503908190586e+01 0 0 0
547 1 -3.4914526122688256e+00 4.8955873871017452e+00 1.7133833114364336e+01 0 0 0
548 2 -3.9746598908041735e+00 4.1119494736191777e+00 1.7006607217829810e+01 0 0 0
549 2 -3.9288483628486972e+00 5.2532947862298638e+00 1.7911303429129529e+01 0 0 0
550 1 -1.5386012495273040e+00 4.9538749864074747e+00 1.2035940331447351e+01 0 0 0
551 2 -9.6133592019538661e-01 4.1680102281681188e+00 1.2323917930062278e+01 0 0 0
552 2 -1.3398082893455991e+00 5.5561899399989985e+00 1.2771625386209458e+01 0 0 0
553 1 3.1166285068155792e+00 3.6807049254483588e+00 1.5961067292036553e+01 0 0 0
554 2 2.4386751851112498e+00 3.4052810089080725e+00 1.6625681966273728e+01 0 0 0
555 2 3.8462152157255982e+00 4.0182689196075838e+00 1.6520299671158615e+01 0 0 0
556 1 4.8016760556032700e-01 3.4060664284040585e+00 1.3339233972401026e+01 0 0 0
557 2 1.1745495703460636e+00 3.2830879100124681e+00 1.2693525054872669e+01 0 0 0
558 2 4.3523887318910859e-01 2.5855832020256968e+00 1.3888227812270959e+01 0 0 0
559 1 -4.1778014473374760e+00 4.4219608766273542e+00 1.3217599930054339e+01 0 0 0
560 2 -3.5202780277506820e+00 4.4943438762561607e+00 1.2529598333451331e+01 0 0 0
561 2 -3.8983022885937757e+00 3.6687534111893427e+00 1.3765053579796477e+01 0 0 0
562 1 -9.8014536605491998e-01 4.5446791899687264e+00 1.5953039844485453e+01 0 0 0
563 2 -3.6903165244271463e-01 3.9860207858656165e+00 1.6419338960864813e+01 0 0 0
564 2 -1.7620338140984537e+00 4.4648722479403133e+00 1.6527934993861368e+01 0 0 0
565 1 4.7475601058815204e+00 7.2840270915698762e+00 1.1136680355770325e+01 0 0 0
566 2 4.4792920108769296e+00 7.9197116326321177e+00 1.0464264245714313e+01 0 0 0
655 1 3.1714232222707670e+00 2.7306242959894411e-01 1.8212778210698986e+01 0 0 0
568 1 -1.2308559285645808e+00 7.1960459270728201e+00 1.7726349467927950e+01 0 0 0
569 2 -1.5273479585238450e+00 6.3994696555663149e+00 1.8222073568307007e+01 0 0 0
570 2 -7.6800529649039806e-01 7.7541891606448941e+00 1.8390698328835221e+01 0 0 0
752 2 3.2177870997849141e+00 9.4815196876969239e+00 1.0451326526833048e+01 0 0 0
572 2 -5.5825190251186614e+00 1.2033288088271388e+00 1.8429771803160829e+01 0 0 0
824 2 2.7549992395945733e+00 8.0111941579214090e+00 1.7349420860130127e+01 0 0 0
694 1 -2.7050364276579573e+00 9.9992760429994778e+00 1.9276639666459047e+01 0 0 0
576 2 6.8403060931531545e-01 9.1983977842017606e-01 1.0555298221050659e+01 0 0 0
577 1 1.7795887828288359e+00 5.3610651544657726e+00 1.4454088969939658e+01 0 0 0
578 2 1.0886586713318884e+00 4.7451016427012158e+00 1.4136011918740925e+01 0 0 0
579 2 2.4221102723691539e+00 4.7283455210752692e+00 1.4816213429580021e+01 0 0 0
580 1 -2.6302681134133192e+00 2.6492271508642591e+00 1.4579270061525680e+01 0 0 0
581 2 -2.1843374172820260e+00 2.2471728597985829e+00 1.3778232832511856e+01 0 0 0
582 2 -2.0705932891899379e+00 3.3990084073832771e+00 1.4894591708851458e+01 0 0 0
612 2 5.6049149050830529e+00 2.8383886877327735e+00 1.9192804733433000e+01 0 0 -1
574 1 3.1676649071200114e-01 1.2998786694495706e-01 1.1033512170816248e+01 0 0 0
589 1 1.2304243227706612e+01 9.6448393662241416e-01 1.4145873565226321e+01 0 0 0
590 2 1.1387243659644277e+01 7.4869813297060672e-01 1.4440983589872571e+01 0 0 0
591 2 1.2600148809640361e+01 1.6475795846184371e+00 1.4772499523467943e+01 0 0 0
592 1 9.6310536882135072e+00 1.1461305202702059e+00 1.4521725277008404e+01 0 0 0
536 2 -2.7185196962290021e+00 6.1553450044049807e-01 1.1987635148499205e+01 0 0 0
594 2 9.3128875776972730e+00 1.8847570209535367e+00 1.3922198822752142e+01 0 0 0
595 1 4.8499239829028173e+00 6.6408256573597235e+00 1.4444909788213517e+01 0 0 0
596 2 4.6711299187064865e+00 6.2873664003868592e+00 1.5331622217077545e+01 0 0 0
597 2 4.8919944229474854e+00 5.8460795550571412e+00 1.3879579736841553e+01 0 0 0
598 1 7.7138058739372415e+00 6.6229742335740527e+00 1.4323474167218519e+01 0 0 0
599 2 6.7684961734477715e+00 6.8900650733978468e+00 1.4362733997601756e+01 0 0 0
600 2 7.7069723306725617e+00 6.2080675293975718e+00 1.3420724251369213e+01 0 0 0
164 2 8.7730893859356947e+00 6.6923834204002586e-01 1.8525762529173566e+01 0 0 0
603 2 1.0892899140324237e+01 4.9198194361192513e+00 1.8553629700650692e+01 0 0 0
714 2 1.7572559759870607e+00 1.0391866135506419e+01 1.6811152065776266e+01 0 0 0