LAMMPS data file via write_data, version 3 Mar 2020, timestep = 8550000

2016 atoms
2 atom types

0.0000000000000000e+00 1.7935923372785631e+01 xlo xhi
-9.0494554381546521e-02 4.5086654531291188e+01 ylo yhi
0.0000000000000000e+00 1.9074564171449826e+01 zlo zhi
4.2493422292562061e-02 -6.6599553665617890e+00 -2.0398020314360110e-02 xy xz yz

Masses

1 16
2 2

Atoms # atomic

846 2 6.0793182750043879e+00 1.3506978356788688e+00 1.1989104893575007e+01 1 0 1
223 1 3.0603096861238299e-01 4.4001246673296350e+00 1.1020724014334817e+01 -2 0 -2
995 2 9.8313358397861403e+00 3.8929673632790931e+00 1.1258697901784730e+01 3 0 1
222 2 -1.1898735194120218e+00 9.1299544493552975e+00 3.8688924409857877e+00 -1 0 -2
829 1 3.2401116988523082e-01 7.4778512328166018e+00 1.3654050881282448e+01 -3 0 0
662 2 4.5022811206859359e-02 8.8448637249537896e+00 7.0832056720529755e+00 0 0 1
1096 1 1.5525652329295880e-01 6.8177253827963282e+00 9.4317414009459046e+00 1 0 0
920 2 1.0937889029266804e+01 1.4987871083182436e+00 1.0782307004914532e+01 0 0 -2
705 2 -7.4731098824249109e-01 8.0093674607271801e+00 1.6625734356642798e+01 -2 0 -1
671 2 -6.4096411745624127e-01 2.2468767332348687e+00 6.5955668084256001e+00 -3 0 -1
299 2 5.3294937442219465e+00 5.7620042771769091e+00 1.6079011082569043e+01 -2 0 -2
991 1 -1.1571738691934703e+00 2.6273595278390802e+00 9.6719676702716431e+00 2 0 1
465 2 6.2648963887234377e+00 6.0720760398440348e+00 2.0156672172981831e+00 2 0 0
406 1 2.9427141455333006e+00 4.6427341817017584e+00 1.7881996012457851e+01 -2 0 -2
504 2 3.7124068838639706e+00 3.2012542899374226e+00 7.3935499181522166e+00 0 0 -1
334 1 -1.1398551387053946e+00 1.0363553217198165e+01 9.6442417436481822e+00 -2 0 -2
487 1 -2.9527302940888998e+00 6.5017549760639195e+00 1.8832332713124316e+01 -4 0 0
929 2 3.5761287168608611e+00 4.5293439526136297e+00 1.4359691634386104e+01 1 0 0
589 1 4.0823793376082111e+00 1.0356772813107078e+01 7.3253162245367482e+00 -4 0 -1
319 1 -4.1123318807359643e+00 3.0194515385953400e+00 1.4504710215081282e+01 -3 0 -3
215 2 3.7016090829972068e+00 8.8759686816880166e+00 9.8395294257439776e+00 0 0 -2
434 2 -3.2265533444226673e+00 1.0457187339540805e+01 1.4586129864205992e+01 -2 0 0
301 1 7.9952716158825972e+00 1.0158034485982229e+01 5.0996469291143693e+00 0 0 0
1583 2 -2.4826889137863013e+00 6.1080094181465681e+00 1.0531404252004471e+01 0 1 1
931 1 -4.0287794513008182e+00 7.4277636154186433e-01 1.2922951230261512e+01 -2 0 -1
962 2 9.5568714224404516e-01 1.2208295448174658e+00 1.4263143654198020e+01 -3 0 -1
407 2 3.7031882225047896e+00 4.9669463708152009e+00 1.7268296304945039e+01 -2 0 -2
889 1 1.0910446222062076e+01 5.5729461432356320e-01 6.3674546665149467e+00 -1 0 0
627 2 7.4190023508525824e+00 2.4546438775880319e+00 1.3172912836975739e+01 0 0 -1
448 1 1.2375152889925715e+01 5.1732617991577730e+00 5.0825511337907630e+00 -2 0 1
229 1 2.2268657052583687e+00 1.1337420749026399e+00 6.6461445447661704e+00 0 0 -2
761 2 1.4798447058078326e+00 1.6076248242362685e+00 1.8715963608030719e+01 -3 0 1
560 2 7.1723916976961650e+00 3.4405387710933715e+00 9.1231313572287469e+00 -2 0 1
880 1 1.3759563855121661e+01 1.2788668763109126e+00 9.6722476430358917e+00 -3 0 2
849 2 9.6496884698625732e-02 8.4360528196964957e+00 3.7410003061604920e-02 2 0 1
113 2 1.0899137708709564e+01 2.5864692838362031e+00 1.2840124766149774e+01 -2 0 -1
176 2 4.3056694740339587e+00 1.7182797958210065e+00 1.3455688845470073e+01 -5 0 1
367 1 1.5038252430788875e+01 5.3121235437828691e+00 4.8882170588912865e+00 -2 0 0
463 1 6.0863312114745334e+00 6.4595372080513851e+00 2.8550257400430987e+00 2 0 0
449 2 1.2558202835291974e+01 5.5157550708101892e+00 5.9689320246561062e+00 -2 0 1
897 2 8.6803166025739849e+00 7.4578416264935870e+00 1.6364482745425288e+01 -2 0 -1
464 2 6.8235878227910405e+00 7.1122465253500105e+00 3.0996809612177287e+00 2 0 0
963 2 1.5671209154138719e+00 2.3242342511827161e+00 1.5350390557375480e+01 -3 0 -1
933 2 -3.6915434913267351e+00 2.6691266500497815e-02 1.3487380552282263e+01 -2 0 -1
538 1 -3.4332556619025274e+00 5.1897493495145364e+00 1.6598012349862408e+01 -4 0 -4
96 2 8.8143126312499405e+00 3.8147443815022757e+00 2.4898604674906433e+00 -2 0 -1
910 1 1.0843794314365953e+01 2.7730716508829270e+00 4.5022647544544464e-01 -2 0 1
151 1 7.7387058751852953e+00 2.7938176948039506e+00 5.3254505490532553e+00 3 0 0
390 2 1.3421436873205749e+01 1.0873455714077005e+00 4.7491329169246441e+00 -1 0 0
549 2 6.5750820917642008e+00 8.5919348312612662e+00 1.6062629541234038e+01 -3 0 -4
626 2 8.1396586318969071e+00 3.7170256784528388e+00 1.3860843387489849e+01 0 0 -1
111 2 9.5159265804968172e+00 6.2439588677373807e+00 8.7270572618159701e+00 1 0 -4
703 1 -1.3092131587519438e+00 8.4397428026968431e+00 1.6015612337302041e+01 -2 0 -1
382 1 1.1780303415568344e+01 7.1480911893738481e+00 1.5930247680150625e+01 -2 0 0
347 2 5.7363662788767869e+00 7.9812779434418122e+00 5.9643395882172907e+00 -2 0 -2
661 1 -9.3084798164404736e-01 8.9558781865493469e+00 7.3078054466391142e+00 0 0 1
16 1 1.1113771566704985e+01 1.0353381442216403e+01 2.2367135226224580e-01 0 0 2
738 2 1.6075021646207130e+01 3.8624244330756690e+00 5.3309099960290709e+00 -1 0 1
689 2 1.2263648478209403e+01 6.5657091695454852e+00 4.0332161486727243e+00 -3 0 0
917 2 2.6786648827101125e+00 2.2112880915060662e-01 3.2730893618131351e+00 1 0 3
270 2 1.2284919042593199e+00 6.9044141636043870e+00 1.7162709837865240e+01 2 0 -1
177 2 4.1062437597015018e+00 2.9860075028834354e-01 1.2571116640890542e+01 -5 0 1
606 2 1.4019560787098053e+01 2.2733389415330931e+00 1.4200670365717485e+00 0 0 2
784 1 1.0861897743766598e+01 8.5417053307613600e+00 6.7034716217501282e+00 -4 0 -2
477 2 1.2004930820162803e+01 7.3995715810159446e+00 1.2314458815107514e+01 -1 0 2
905 2 2.9090419114590222e+00 6.5257262960482683e+00 1.5695344079421210e+01 -3 0 1
1009 1 1.3444811356810378e+01 8.9281731511579725e+00 9.5283139382483650e+00 -1 0 0
912 2 1.0508877326862434e+01 2.1505375002581788e+00 1.1586925949493521e+00 -2 0 1
707 2 -7.5738820025392295e-01 8.3529461168229986e+00 1.2423979223532731e+01 -1 0 -1
842 2 -1.8272551748714987e+00 2.1023329667775731e-01 1.5243124360662906e+01 -5 0 -5
393 2 -3.6633608508156676e+00 7.7621231248460925e+00 1.3392784309530191e+01 -1 0 -1
702 2 2.3463488623785445e-02 6.0185206897630339e+00 1.4562065537155927e+01 -3 0 -3
541 1 4.8859629069841031e+00 9.2504771677823232e+00 1.6502223147894522e+01 -1 0 1
625 1 7.4416093912171233e+00 3.0697991100961111e+00 1.3956828643976944e+01 0 0 -1
800 2 7.8975440627423623e+00 9.7705604098506704e+00 8.9594296337631665e+00 0 0 -3
101 2 5.3877592165656898e+00 4.1219610216646876e+00 1.1917709184847919e+01 -1 0 -1
384 2 1.1341944961083135e+01 7.8486260694907699e+00 1.5461060172252772e+01 -2 0 0
212 2 4.7952023253603313e+00 1.0279620660863399e+01 1.3826919715759381e+01 -5 0 -3
622 1 -1.4213263212477809e+00 3.1795765649148193e+00 1.4494675745956915e+01 -2 0 -2
624 2 -8.6631061473672588e-01 3.9778592325365807e+00 1.4758258667714875e+01 -2 0 -2
369 2 1.5113165436892821e+01 5.6759602676713676e+00 3.9684506278231000e+00 -2 0 0
714 2 8.1259771134536329e+00 4.8467596558485821e+00 7.5879409906744213e+00 -1 0 3
388 1 1.4169726405488971e+01 1.6471954779879256e+00 5.0343777705538910e+00 -1 0 0
869 2 9.4907745966326491e+00 8.8020923833269489e+00 1.3889646786377051e+01 1 0 0
811 1 4.5597580113501799e+00 8.5078670481476912e+00 1.3230363707252366e+01 -2 0 -1
600 2 2.8853352188026671e-01 4.9252633951780309e+00 2.3108572768436622e+00 -3 0 1
546 2 1.8255350430420858e+00 9.7216741276803749e+00 1.4687159601244779e+00 2 0 1
709 1 -3.9714881876328834e+00 8.4595000389888515e+00 1.6655586712494678e+01 -2 0 -2
733 1 1.0068249191073964e+01 1.0841545892754501e+01 1.6564524305965858e+01 -3 0 -2
925 1 1.3785021313821163e+01 3.5463810893972254e+00 1.1238241885875876e+01 1 0 2
1546 1 2.7216583561304186e-01 6.4993346447507587e+00 4.8957664681879676e+00 0 0 1
870 2 1.0683905025904188e+01 9.7646519826998350e+00 1.3688511361811665e+01 1 0 0
135 2 -6.3396592560138743e-02 5.7367795843719946e+00 6.3788485772761918e+00 1 0 -1
778 1 5.1776251922387146e+00 8.9337605446737616e+00 1.2756558869031040e-01 1 0 0
642 2 4.7939017591783903e+00 1.0484605841595057e+01 1.0561730369752478e+01 3 0 -1
598 1 1.0722700426757075e+00 5.3787035477055953e+00 2.6160524279659949e+00 -3 0 1
851 2 1.0645795054680866e+01 9.7984625040298745e+00 1.6485238141671288e+00 1 0 1
904 1 2.8003436863691542e+00 7.3360170901519046e+00 1.6180190196624711e+01 -3 0 1
114 2 1.1850036113253626e+01 3.3359022562870280e+00 1.1766930573555181e+01 -2 0 -1
264 2 1.3488984886473567e+01 6.6583193333217867e+00 7.6148215982808445e+00 0 0 1
295 1 -2.3427450906234784e+00 4.4104297769166774e+00 8.0808959675787406e+00 2 0 3
119 2 2.2716719247329427e+00 7.7439389533454168e+00 6.9360985710019163e+00 -2 0 -2
876 2 4.3087235190773550e+00 4.2372303991536553e+00 1.9176690130253393e+00 -2 0 2
495 2 -2.2422249709189166e+00 5.6810182121647266e+00 1.2816692622571468e+01 -3 0 -2
1675 1 5.6360428462813248e+00 6.4432509759296224e+00 1.4507886169074792e+01 0 0 0
992 2 -5.0231973493975035e-01 3.2222121944277218e+00 1.0135909482502800e+01 2 0 1
818 2 7.7312125291128684e+00 8.3314293789411682e+00 7.3347031212094738e+00 1 0 3
701 2 2.6401629592842291e-01 5.4899220998262557e+00 1.5964772846770851e+01 -3 0 -3
5 2 1.3317447400885825e+00 1.9629016272306927e+00 1.5760669859853029e+00 1 0 0
470 2 4.6218688683654996e+00 2.0557272157756019e+00 1.7877929653648071e+01 -7 0 -3
221 2 -2.1904410085952486e-01 8.5739666818034692e+00 2.7491037649729724e+00 -1 0 -2
554 2 1.4038730434773850e+01 9.1252771918561990e+00 1.2428118053259194e+00 -5 0 -1
528 2 4.3828879569586672e+00 9.9255541967088035e-01 4.5906162115491131e+00 -2 0 -1
687 2 1.9572331200073507e+00 1.6224439017488339e+00 1.0828129156237315e+01 -3 0 0
433 1 -4.1916792946746453e+00 1.0221571510653263e+01 1.4688966438746691e+01 -2 0 0
1513 1 1.0822253550802079e+01 1.0643140834711870e+01 5.0642731606969358e+00 -1 0 0
928 1 2.9579682312017086e+00 5.2517485401215280e+00 1.4372986614964635e+01 1 0 0
924 2 -6.0513695114971089e-01 4.9439588599197419e+00 1.8887909075112283e+01 -3 0 -3
658 1 9.4061083190462718e+00 6.9065071424682634e+00 5.1564182674153676e+00 -1 0 -2
591 2 4.6616481733759851e+00 1.1147875083510176e+01 7.2869558599270716e+00 -4 0 -1
788 2 2.1786270684665867e+00 1.0132974542779182e+01 1.3047158399204905e+01 -2 0 -1
974 2 8.7813819684636645e+00 3.1650376752037044e+00 1.6798661900916084e+01 -4 0 -2
345 2 -5.3100281843567849e+00 2.1308744651482281e-01 1.6471727643369690e+01 -1 0 1
923 2 7.1238932167325419e+00 4.6284779963713252e+00 8.6689027892614534e-01 -3 0 -2
623 2 -1.3081943666700524e+00 3.0208080266023161e+00 1.3561871097254278e+01 -2 0 -2
69 2 -6.0693371030205139e+00 6.2752307434838261e+00 1.8618407196010306e+01 -3 0 -3
644 2 1.2496266887183941e+01 4.4539843240269512e+00 1.4319393911896325e+01 -4 0 -3
540 2 -4.3350169958227589e+00 4.8370439168853290e+00 1.6717090841653796e+01 -4 0 -4
262 1 1.2593086303944244e+01 6.2893787796801925e+00 7.7031683778151230e+00 0 0 1
239 2 2.0745446716258087e+00 2.7642866105012409e+00 1.3153882707470755e+01 0 0 0
716 2 -1.3468773971484875e+00 2.7697227466039211e+00 1.8152963632667817e+01 1 0 1
717 2 -1.8352632571134118e+00 3.9655833395267042e+00 1.7334554844787927e+01 1 0 1
240 2 3.1964316751465143e+00 3.2696249596928229e+00 1.2029867351213547e+01 0 0 0
1665 2 1.6604146722607713e+00 9.8345018893566465e+00 9.3044557550329579e+00 -2 1 -1
830 2 5.2021473502353377e-01 8.2192772329214385e+00 1.4257127120407219e+01 -3 0 0
452 2 -5.1070024550600781e+00 1.1064735230111742e+01 1.8488938160140556e+01 -1 0 -4
526 1 5.0585013237758245e+00 1.5818757021186669e+00 5.0390051761357162e+00 -2 0 0
645 2 1.1969098623429506e+01 5.6221458093752927e+00 1.3399836834605637e+01 -4 0 -3
801 2 7.3032535004859520e+00 9.6883618503253857e+00 1.0489788965909296e+01 0 0 -3
736 1 -1.3690059999864175e+00 3.0228831428259113e+00 5.2277330454792201e+00 0 0 1
238 1 2.2551862318963405e+00 2.9730169061770537e+00 1.2145731473405435e+01 0 0 0
522 2 1.0952635573961304e+01 2.6006892551740375e+00 8.3972449631015671e+00 -5 0 -2
715 1 -1.0181947699631628e+00 3.5843283675499702e+00 1.7756918595028054e+01 1 0 1
118 1 1.6795406168243585e+00 8.3234438882997583e+00 6.3316453022884627e+00 -2 0 -2
426 2 1.1099914384649763e+01 3.7884732227195443e+00 4.9411810438682853e+00 -2 0 1
890 2 1.0184936245745698e+01 7.8177825167196857e-01 6.9795846923933658e+00 -1 0 0
230 2 2.3606379406802649e+00 1.6539490959071619e+00 5.8476612476881566e+00 0 0 -2
525 2 2.3566259218547003e+00 6.8386133457935561e+00 1.1364247142097192e+01 -2 0 -4
154 1 1.1159731885047371e+01 1.0491840958508799e+01 1.1988698877797015e+01 2 0 -2
650 2 7.6149038508364573e+00 8.7425413840101773e-01 7.6336329603949844e+00 -4 0 0
181 1 -1.4845390317983327e+00 1.1089695063121901e+01 1.7685847599759533e+01 -1 0 -1
291 2 5.7764394364623577e+00 4.2408839969422614e+00 7.6480411820374918e+00 0 0 3
156 2 1.0428385385915751e+01 1.1106908568916651e+01 1.1608311669793107e+01 2 0 -2
562 1 3.3927676589518407e+00 6.7229990670861595e+00 7.4251616425964331e+00 -2 0 0
1677 2 6.2482853489034058e+00 7.1337306714139190e+00 1.4892540186163460e+01 0 0 0
655 1 1.8828055088899704e+00 9.0019124986832324e+00 9.7821199413157949e+00 -2 0 -1
730 1 1.4864763730202501e+01 6.7901055465626667e+00 2.6470447529005647e+00 0 0 1
921 2 1.0621564405087216e+01 5.1723230950488430e-01 9.6394888713296201e+00 0 0 -2
387 2 6.4274261878351062e+00 3.1464736929556580e+00 2.4877668625141243e+00 0 0 -2
915 2 8.2663629018435785e+00 2.7908068750267467e-01 1.2532979286550125e+01 0 0 2
643 1 1.1757130513004720e+01 5.0950395052774056e+00 1.4197117494505639e+01 -4 0 -3
605 2 1.4912941081780351e+01 1.3062789220772442e+00 5.8285263513971464e-01 0 0 2
787 1 2.3126015666156770e+00 1.0411919750887684e+01 1.2117564976853236e+01 -2 0 -1
289 1 6.5976629356658698e+00 4.4965545970578891e+00 8.1878835535340695e+00 0 0 3
318 2 -1.3134209071477798e+00 9.8535281559630299e+00 1.5005406666236805e+01 1 0 -2
224 2 5.0776204528578939e-01 5.2193070070758321e+00 1.0470132567791387e+01 -2 0 -2
561 2 8.2294039028713648e+00 3.5838824305118786e+00 1.0324747105662778e+01 -2 0 1
130 1 5.5137566498676094e+00 1.0024524296287733e+01 2.5741925422057061e+00 0 0 1
471 2 3.9973084043194858e+00 1.2789982130311472e+00 1.6610593000062213e+01 -6 0 -3
760 1 7.8919198308164455e+00 1.3903788947938100e+00 5.4390482058001299e-01 -3 0 2
356 2 1.3944411210779046e+01 9.7318334478512085e+00 3.8668059687897034e+00 -4 0 -2
385 1 5.4713498877482474e+00 2.8958964031767747e+00 2.6026466104728927e+00 0 0 -2
926 2 1.3237537602890594e+01 4.1259340698288138e+00 1.0781243110882949e+01 1 0 2
961 1 1.7078922094598834e+00 1.8804448537011287e+00 1.4450403958596077e+01 -3 0 -1
42 2 1.3828823723803612e+00 3.9795162264223976e+00 7.6093644442712813e+00 -2 0 3
726 2 1.3699039681149660e+01 3.9173328110180696e+00 2.6200764346052026e+00 1 0 1
355 1 1.3510647711535839e+01 9.3911722614837689e+00 4.6901185912742349e+00 -4 0 -3
613 1 -3.9686660032802195e+00 1.6295287653468586e+00 1.6691523046982013e+01 -2 0 -1
1002 2 5.9479716130236859e-01 3.0615075311130062e+00 1.7217801582304585e+01 -1 0 0
919 1 1.1184007648572834e+01 1.2387905935222405e+00 9.8932374873610378e+00 0 0 -2
712 1 9.0028625419732897e+00 5.1987638798765872e+00 7.2903981010154801e+00 -1 0 3
41 2 1.9187237322832509e+00 3.0035129164038716e+00 8.8236242620537571e+00 -2 0 3
190 1 3.1745158302421963e+00 5.4174180900684483e+00 5.0324643861229852e+00 -2 0 -3
1514 2 1.0920237213972294e+01 9.9699061792547568e+00 5.7300066189593561e+00 -1 0 0
872 2 5.7128475452620586e+00 6.5760361314489135e-01 6.2207522587675017e+00 -2 0 -1
43 1 -2.8331337393007061e-01 -1.3036029039843550e-02 1.2956369751084084e+01 0 0 0
938 2 8.8769629435240720e+00 8.6903462653070243e+00 2.7213021746104267e+00 2 0 1
290 2 6.3867890528216611e+00 5.3741922599957528e+00 8.4977827138877551e+00 0 0 3
776 2 7.1156035175781911e+00 2.8987717165597022e+00 1.8415749436046539e+01 -2 0 1
1668 2 8.6758165270378704e+00 7.3227188189481138e+00 4.6660179118100569e+00 -1 1 -2
6 2 3.7145597791577134e-01 1.3040137287512252e+00 2.7789706176677185e+00 1 0 0
969 2 1.4390685071465244e+01 3.4621119285889859e+00 7.5569444104604253e+00 -2 0 1
706 1 -1.3426884080023145e+00 9.0250816168854975e+00 1.2031403473574352e+01 -1 0 -1
386 2 5.2558496249060482e+00 2.2961039329205017e+00 1.8490669417185466e+00 0 0 -2
564 2 3.2902772872960271e+00 6.4687595624932639e+00 8.3571769076200297e+00 -2 0 0
40 1 2.1125845911879404e+00 3.7434222726756525e+00 8.2465210930991635e+00 -2 0 3
631 1 2.9801162287104166e+00 7.1937262459442958e-02 1.6023765390015171e+01 -3 0 -2
142 1 8.0791145823108970e+00 9.1039090686684130e+00 1.1727868110292204e-01 2 0 0
724 1 1.4439020811307717e+01 3.2714960558514745e+00 2.8307991738709766e+00 1 0 1
877 1 7.5612199849726887e+00 1.0682437953929297e+01 1.4001066739931781e+01 -3 0 -1
967 1 1.3628610625628035e+01 2.7940086647257654e+00 7.3807994812541740e+00 -2 0 1
489 2 -3.8832655598737338e+00 6.9120529706572711e+00 1.8858799289365141e+01 -4 0 0
681 2 9.0644902966873744e+00 5.6026766586901626e+00 1.5235910180642806e+01 -3 0 -3
649 1 8.4148162829005244e+00 1.3505689928854037e+00 7.8699789415993537e+00 -4 0 0
523 1 2.4377518793183794e+00 6.9497296261503534e+00 1.2304933673687566e+01 -2 0 -4
1548 2 -3.5374834868473992e-01 7.0814948913788305e+00 4.4972971598370020e+00 0 0 1
36 2 1.1176152377653345e+01 4.0799707712130360e+00 1.7290622363526943e+01 -2 0 -1
945 2 -4.3796729301060466e+00 2.1479357394973184e+00 1.8180832000115611e+01 0 0 2
817 1 8.1243913547788971e+00 9.2118286904358708e+00 7.5051327680681537e+00 1 0 3
1010 2 1.3713778547307630e+01 9.3885457961802157e+00 8.7132726248416539e+00 -1 0 0
162 2 1.4456364075209319e+01 8.2430274375230699e+00 5.7441665279574616e+00 1 0 -4
786 2 1.0427214398922567e+01 7.9978420596012114e+00 5.9938564680330213e+00 -4 0 -2
799 1 7.7051134024010235e+00 1.0283150225362926e+01 9.7542771832385178e+00 0 0 -3
513 2 7.6924206608787076e+00 1.9582914311127015e+00 1.5347146788114891e+01 1 0 0
34 1 -6.0275803890776798e+00 4.5888687149351481e+00 1.7656315033688720e+01 -1 0 -1
630 2 4.9123225453369077e+00 9.5021542257775113e+00 4.1590239815940926e+00 -1 0 3
777 2 7.6478939312788210e+00 4.3911240449324520e+00 1.8652849511506624e+01 -2 0 1
152 2 8.6155809671361361e+00 3.0879830834501818e+00 4.9912057391983060e+00 3 0 0
263 2 1.2012062342374183e+01 7.0445905262113957e+00 7.5723633113192115e+00 0 0 1
350 2 1.6163651293685152e+01 5.2224950231800085e+00 4.3177823771039603e-01 2 0 4
459 2 -1.3774336995701444e+00 1.5475331043876293e+00 4.1272080729587719e+00 -2 0 -2
395 2 5.7572777372631219e+00 6.3459915951109789e+00 1.8335281418006709e+01 -3 0 -4
836 2 1.0858611338067021e+01 6.9392360131819277e+00 6.7981350580898059e-01 -2 0 1
389 2 1.4002174328052121e+01 2.1148099687578159e+00 5.8871713016079523e+00 -1 0 0
994 1 9.0713206388467871e+00 4.5062217387028696e+00 1.1174494165126378e+01 3 0 1
725 2 1.4368758161484939e+01 2.9279559781458007e+00 3.7461723098855373e+00 1 0 1
927 2 -3.4578028941907806e+00 4.0272389671879250e+00 1.1657132557102591e+01 2 0 2
21 2 6.1108550307340863e+00 5.5146922091420087e+00 4.0913206699838671e+00 -3 0 -3
312 2 7.5648570020960939e+00 8.3191668202125371e+00 1.2011078142257892e+01 0 0 -2
552 2 1.0316515683745536e+01 8.2825831775316114e+00 9.7913828852603242e+00 0 0 1
4 1 1.2814383594751448e+00 1.7452716116622973e+00 2.5667110368647372e+00 1 0 0
110 2 8.3099858052175808e+00 6.9497954946574501e+00 9.3974590083145682e+00 1 0 -4
274 1 1.0287612412238467e+01 1.4228564630631919e+00 2.7996842927958672e+00 2 0 0
975 2 9.9503897126732461e+00 2.5159014402585407e+00 1.5920916709263853e+01 -5 0 -2
651 2 8.2003414460519437e+00 1.8598111574842473e+00 8.7111852708047586e+00 -5 0 0
996 2 9.2927157558045792e+00 5.3350944306518784e+00 1.0726437750493497e+01 3 0 1
611 2 -2.1084302622738393e+00 7.2612052214889333e+00 1.4773484926503713e+01 0 0 2
547 1 7.3577996285641394e+00 8.4639460398798310e+00 1.5495971665662951e+01 -3 0 -4
750 2 6.3264522285402141e+00 5.4877137489565992e+00 1.2953782904037022e+01 -3 0 1
749 2 7.4010862633040304e+00 4.7675499253079883e+00 1.2144287012715264e+01 -3 0 1
102 2 5.0009425342501359e+00 3.1236355708255075e+00 1.0752883660164070e+01 -1 0 -1
497 2 1.6028578227710513e+00 2.7478985669817688e+00 4.0356473124308412e+00 0 0 1
498 2 2.1765759593541061e+00 4.0467193978074558e+00 4.8199402943295286e+00 0 0 1
710 2 -4.8002482575335970e+00 7.9815967678740929e+00 1.6748656299751882e+01 -2 0 -2
436 1 8.8906949726866067e+00 7.5173393107119306e+00 1.2810762444720728e+01 -3 0 -2
349 1 1.5367963854851528e+01 5.7441603095660376e+00 2.4908669382606424e-01 2 0 4
679 1 9.1517949068349846e+00 5.1094321386252126e+00 1.4377204542884204e+01 -3 0 -3
949 1 1.0446220034149643e+01 1.7964706056626893e+00 1.4454004310506544e+01 -2 0 1
175 1 4.6875718269362414e+00 8.4944931425840808e-01 1.3097733456662835e+01 -5 0 1
272 2 1.5067741866130255e+01 3.4783224791055267e-01 5.5929673174655363e+00 -1 0 -2
321 2 -4.2889475836305531e+00 2.2662635280064283e+00 1.3853085113492297e+01 -3 0 -3
943 1 -4.8371759151973182e+00 2.6379335884780222e+00 1.8898731737425592e+01 0 0 2
529 1 7.9979420648990800e+00 6.0582477493639320e-01 3.7764224052290727e+00 -1 0 0
843 2 -1.3267369993675047e+00 1.6768104254013356e+00 1.5371165673945429e+01 -5 0 -5
852 2 1.0950507946878068e+01 8.5858592010177919e+00 2.5701008495933593e+00 1 0 1
125 2 2.2764628431680789e+00 8.6064558818248535e+00 1.5053154424391245e+01 -3 0 1
298 1 5.2751539615026708e+00 5.5585685758112131e+00 1.7020257110099426e+01 -2 0 -2
680 2 1.0088935206233288e+01 5.0565305433257945e+00 1.4374055791255669e+01 -3 0 -3
511 1 7.6204187089474402e+00 1.3324592965861604e+00 1.6069499207421490e+01 1 0 0
615 2 -3.0739127900820851e+00 1.1835468928114556e+00 1.6777060582161557e+01 -2 0 -1
944 2 2.6634395041930317e+00 3.0769225596782626e+00 2.3121038364763333e-01 0 0 3
100 1 4.6495234473222027e+00 3.7993892869588377e+00 1.1391066717196450e+01 -1 0 -1
1667 2 9.0075286593483028e+00 6.3316158626444352e+00 5.9493115722752750e+00 -1 1 -2
1407 2 1.7112261568194924e+01 3.1457095464266795e+00 1.2979033881669921e+00 2 0 0
837 2 9.8682691766275710e+00 6.0318199693138359e+00 1.2226779294552960e-01 -2 0 1
132 2 5.4062356740157220e+00 9.4290402943302478e+00 1.8023297052946137e+00 0 0 1
397 1 1.6881384961135446e+01 3.8926129232130666e+00 1.9010008636205613e+00 2 0 0
734 2 1.0242312625754005e+01 1.0210645110934280e+01 1.7287968032909479e+01 -3 0 -2
844 1 7.0393640853983461e+00 1.6244173428900164e+00 1.1915832088093028e+01 1 0 1
874 1 3.4040576562051545e+00 4.5051367257875201e+00 1.5790128385310616e+00 -2 0 2
785 2 1.0087539324639346e+01 8.8267353327391724e+00 7.2533057012046891e+00 -4 0 -2
216 2 4.5381094606171377e+00 9.3162442876405862e+00 8.6037015970384481e+00 0 0 -2
845 2 7.2418634301251918e+00 1.9503499247113485e+00 1.0984443301874695e+01 1 0 1
451 1 -4.4806952849296486e+00 1.0380431018708739e+01 1.8842945224535967e+01 -1 0 -4
672 2 -5.9776065315557148e-01 1.8428213284137349e+00 8.1296335476417738e+00 -3 0 -1
109 1 9.2841752076250152e+00 6.8627899278836981e+00 9.4484344010075780e+00 1 0 -4
732 2 1.5572920969057531e+01 7.4366072669856642e+00 2.8305189423394310e+00 0 0 1
363 2 -8.9012995981645915e-02 2.8430639058808146e-02 1.7003373109212454e+01 -1 0 -2
214 1 4.6500193258028339e+00 9.0143018757760167e+00 9.5752000361742784e+00 0 0 -2
599 2 1.7942652619382375e+00 4.8099610181162236e+00 2.3835104697938920e+00 -3 0 1
408 2 3.4062142418663370e+00 3.9974234255219150e+00 1.8422856739612428e+01 -2 0 -2
762 2 8.4633537383871715e+00 6.6645361362783351e-01 7.0478734227560513e-01 -3 0 2
1676 2 5.1007600278365510e+00 6.9801519992288004e+00 1.3962641999585793e+01 0 0 0
35 2 -5.6914676377396383e+00 4.0102382638387670e+00 1.8344958429180046e+01 -1 0 -1
500 2 6.6206904954666648e+00 6.3887660295331052e+00 1.0590303539342502e+01 1 0 0
713 2 9.7180480408268579e+00 4.5344549556682905e+00 7.3833912822354399e+00 -1 0 3
475 1 1.1366844142522623e+01 6.6935059419297840e+00 1.2142029328328420e+01 -1 0 2
527 2 5.4307802848084776e+00 2.1182017867082799e+00 4.3079526651337954e+00 -2 0 0
1007 2 1.3911909974479627e+01 1.0173986292589994e+01 1.0671522674813289e+01 -3 0 -2
133 1 -1.1269901638541313e-01 5.1836545386869943e+00 7.1959764228189949e+00 1 0 -1
610 1 -2.6287952823708820e+00 6.5063173983407028e+00 1.4363454520252850e+01 0 0 2
297 2 -1.6356836007012585e+00 4.8821893550955160e+00 7.5551701470647963e+00 2 0 3
686 2 1.4712083454298353e+00 6.7797688340747964e-01 9.7417927451990867e+00 -3 0 0
300 2 5.8283482147692771e+00 4.7988261950391884e+00 1.7257912302168176e+01 -2 0 -2
296 2 -2.7273757457291716e+00 5.1735399873926333e+00 8.5767015095675756e+00 2 0 3
316 1 -1.5417856188189374e+00 1.0574010879177896e+01 1.4411287516816053e+01 1 0 -2
690 2 1.3142206323726612e+01 7.2028565120175747e+00 2.9209780815005355e+00 -3 0 0
654 2 7.3330770437935993e+00 1.0939292387167882e+01 2.1833818224621755e+00 -2 0 0
728 2 2.6811693648337691e+00 5.0942658888612238e+00 9.2626462148405366e+00 0 0 1
183 2 -5.4242400409568514e-01 1.0892498269121500e+01 1.7366043644715216e+01 -1 0 -1
124 1 1.7497612576617412e+00 9.3522188356678200e+00 1.4697838222416172e+01 -3 0 1
115 1 1.5906646453591435e+00 1.0645180055682046e+01 4.8685468035677077e+00 -4 0 -5
602 2 1.2314337313560515e+01 1.0790506243413494e+01 7.5285984550508216e+00 -3 0 -2
317 2 -1.2370564388478931e+00 1.0213193784377175e+01 1.3539948671598594e+01 1 0 -2
737 2 -5.2182387529886931e-01 3.3807614606713132e+00 4.8167954121518388e+00 0 0 1
727 1 3.0522766796161371e+00 5.7804001480179146e+00 9.8164409198333242e+00 0 0 1
812 2 5.4030291675492554e+00 8.5781227058797214e+00 1.2617394494115382e+01 -2 0 -1
425 2 1.0890285103989813e+01 2.4244119988141253e+00 5.5342560058862595e+00 -2 0 1
458 2 1.6145655314409485e+01 2.1225622316462461e-01 3.2458506214537355e+00 -3 0 -2
207 2 -1.7611658254717990e+00 2.1442536334403699e+00 1.1170577894604905e+01 3 0 0
1001 2 2.0989379450652539e+00 3.3396686322346052e+00 1.7156323954789080e+01 -1 0 0
496 1 1.6420005550460239e+00 3.2045624804458064e+00 4.9252904576165202e+00 0 0 1
539 2 -3.2743270371116728e+00 5.6945980099536344e+00 1.7435693379074689e+01 -4 0 -4
435 2 -4.7383987302040937e+00 1.1037347551587189e+01 1.4660375386608528e+01 -2 0 0
752 2 1.0034179833006597e+01 5.6187360321995010e+00 3.8215735771171184e+00 0 0 3
320 2 -3.2489528585863408e+00 3.4072003720299300e+00 1.4210439051536124e+01 -3 0 -3
503 2 4.7858503240896102e+00 2.6186799849495102e+00 6.4028733133168663e+00 0 0 0
850 1 1.0352422333969926e+01 9.3150811198172132e+00 2.4605327971956164e+00 1 0 1
951 2 1.1069157947290030e+01 1.2670583463379097e+00 1.4917193037214432e+01 -2 0 1
881 2 1.3759614287145491e+01 2.0014045178109714e+00 1.0325256278626391e+01 -3 0 2
512 2 6.6602328148772560e+00 1.3306288147210192e+00 1.6424440472321518e+01 1 0 0
184 1 5.0781141985857001e+00 1.4477202923004868e+00 2.9672420466859395e-01 -4 0 -6
1097 2 -7.9905188999452914e-01 7.0059741256559027e+00 9.5648866027940738e+00 1 0 0
1098 2 6.1488162738370145e-01 7.6419386476493214e+00 9.7482620979636696e+00 1 0 0
819 2 8.0287774494165554e+00 9.6294748823666723e+00 6.6227798482303193e+00 1 0 3
555 2 7.2620204360342102e+00 9.4314736956086556e+00 1.8753187668516542e+01 -5 0 -2
339 2 -1.3441818718133747e+00 1.0196787803174674e+01 5.8847477843460778e+00 -1 0 -1
524 2 2.8130586658102645e+00 6.1270146715088023e+00 1.2609678467607941e+01 -2 0 -4
1000 1 1.4754940707021404e+00 2.6102089281047842e+00 1.7047818084897724e+01 -1 0 0
294 2 1.1454636152795915e+01 4.3822014722785090e+00 9.4038950477241929e+00 0 0 -3
1011 2 1.2459609610316548e+01 8.8558188127223225e+00 9.4097856409247740e+00 -1 0 0
571 1 1.2693380102125207e+01 1.0882940173556246e-02 3.2762717200140790e+00 1 0 4
521 2 1.1981091202022418e+01 3.3343232215591967e+00 7.6551657717227624e+00 -5 0 -2
437 2 8.6615789280299875e+00 6.6934842309103342e+00 1.3283078805030526e+01 -3 0 -2
269 2 3.5049630307995816e-01 6.5560032048030825e+00 1.8310783331464247e+01 2 0 -1
747 2 4.3493864079445581e+00 7.1735804442071167e+00 2.8134799513694477e+00 -2 0 1
211 1 5.0646794909653199e+00 1.1089975784378638e+01 1.4219287792541529e+01 -5 0 -3
1664 2 1.7454870386259342e+00 9.2508833106623971e+00 1.0730572025985749e+01 -2 1 -1
604 1 1.3976960835638573e+01 1.6180854706074781e+00 6.8541698286637442e-01 0 0 2
735 2 1.0139808980972861e+01 1.0359478150122813e+01 1.5704336139671311e+01 -3 0 -2
866 2 4.6893553208981302e+00 2.9559315935856856e+00 1.5311912108921122e+01 -3 0 -1
94 1 8.0030795143210725e+00 3.5333725319558993e+00 1.9817422204516764e+00 -2 0 -1
225 2 1.1494248201725714e+00 3.9761880768277109e+00 1.1192989992233036e+01 -2 0 -2
191 2 4.0494186041697517e+00 5.0298276463822198e+00 5.1751451184528143e+00 -2 0 -3
368 2 1.5168913857616459e+01 6.0838022367409419e+00 5.4647991965400431e+00 -2 0 0
275 2 9.3738486022737444e+00 1.1751115869366042e+00 3.0387877573657884e+00 2 0 0
383 2 1.1773757735119155e+01 6.3242510647188448e+00 1.5395778319074577e+01 -2 0 0
896 2 1.0178683743909932e+01 7.0165375656563809e+00 1.6707296036005420e+01 -1 0 -1
835 1 9.9138063380902288e+00 6.7810851409727757e+00 7.4019446797979860e-01 -2 0 1
531 2 7.8138548638463483e+00 1.3344561071781900e+00 4.4117654921009208e+00 -1 0 0
882 2 1.2845339920215029e+01 9.9850994738011445e-01 9.5747651347969018e+00 -3 0 2
520 1 1.1022125270075671e+01 3.4241505738236668e+00 7.9066299262747970e+00 -5 0 -2
729 2 3.7046026318077661e+00 5.2809969275512891e+00 1.0377487167461728e+01 0 0 1
612 2 -3.1439260522161052e+00 6.0737394252270800e+00 1.5078181882908227e+01 0 0 1
192 2 3.0735921791667349e+00 5.8634955406828260e+00 5.9413590247468706e+00 -2 0 -3
848 2 9.8423369010901123e+00 8.9006145606274050e+00 1.8916615039248633e+01 1 0 0
206 2 -1.4918561303448219e+00 1.0061427243788859e+00 1.2187388910566312e+01 3 0 0
424 1 1.0556230046520907e+01 3.0001109067846534e+00 4.8722895982791217e+00 -2 0 1
1515 2 1.0938226435893242e+01 1.0232058157285502e+01 4.1828993394118736e+00 -1 0 0
634 1 1.4850923029865079e+01 1.0442829865069553e+01 2.4518984285533225e+00 1 0 -2