LAMMPS data file via write_data, version 8 Apr 2021, timestep = 250000

768 atoms
2 atom types

-1.2268799625425864 31.170226905997424 xlo xhi
0.0016885527949870506 14.168544447205024 ylo yhi
0.08670128183831709 13.619021718161687 zlo zhi
5.1303317745946995 5.101735504178446 3.5394559116610904 xy xz yz

Masses

1 16
2 2

Atoms # atomic

221 2 6.30816272449669 5.574721629520834 3.6923115341805035 0 -1 0
53 2 6.248763709867935 3.358956493246611 10.55602925486779 0 2 0
295 1 7.1245621828011885 5.4056885210301235 5.348283521996916 0 1 -1
297 2 8.064295072404335 5.474182983271345 5.086289860119468 0 1 -1
265 1 8.06359506636427 1.3521165673424476 4.764057243760644 0 0 0
220 1 5.7339731937080165 5.766755351634705 2.9311199555662903 0 -1 0
244 1 9.135618532388712 8.195760850265357 4.8768592613060076 0 0 0
222 2 5.961295210028817 5.1625941678855645 2.207703562188332 0 -1 0
352 1 9.659986036355194 5.595057769101696 4.25679485168776 0 0 1
150 2 11.164523502393438 3.4452717387387257 2.1677330762977554 0 0 1
209 2 18.637111676256193 3.585514015350181 8.999016587664249 0 0 0
101 2 8.274830385279248 6.341869487849541 9.754681551622568 0 0 0
230 2 12.249191393214124 0.662651112017153 1.5363022492702225 0 0 0
148 1 10.570826125418776 3.957310801460475 1.5671924481508097 0 0 1
60 2 5.3018484401391985 2.379845450650687 5.083800359369162 0 1 0
105 2 10.994365098495209 3.2761502596336443 8.132523582757575 0 0 -1
50 2 12.773740606572177 7.316603433206582 2.3241824279149856 0 0 -1
106 1 9.316159937407486 7.822010519924208 10.474952359008034 0 1 -1
282 2 19.90638652640799 7.260210346637537 8.913164895082907 0 0 0
206 2 16.584832983134348 2.6749477600439713 3.13462652699344 0 0 0
58 1 5.437827825488007 3.0243737918207225 5.789878697481091 0 1 0
242 2 5.081030523799191 6.426104315528136 0.5454655678717337 0 1 1
12 2 3.5910558255470644 5.513655149789037 7.354511656656996 0 1 0
171 2 2.665276884730988 4.550295439944588 5.933596797422842 0 -1 0
127 1 2.1838944631024666 2.4016541719676257 1.0758243512329975 0 1 -1
85 1 11.361713180817109 7.345864976870692 8.304758600007617 0 -1 0
131 2 6.817960149054365 8.04217372181268 8.440916090332003 0 0 1
218 2 8.941548877005483 7.130600245321464 12.182867100023419 0 0 -1
351 2 13.44316795666549 4.144444443659811 3.7548724391679458 0 0 0
149 2 11.063640593980406 4.828026004942372 1.3953242722031463 0 0 1
342 2 4.153942268019374 4.404348616302952 11.256810225180963 0 0 0
170 2 3.7835137221482418 3.5026021078024865 6.193134650024167 0 -1 0
353 2 10.343386121976145 5.423645900454904 4.893293768573495 0 0 1
219 2 8.341468108869428 6.365912595624863 13.455668532684996 0 0 -1
61 1 6.909581580029146 1.8269451695295633 2.3023573963979547 0 0 0
104 2 12.300860335463105 2.59642008075726 7.407639983630165 0 0 -1
92 2 2.432261697217937 5.44273607329696 1.562875717451168 0 0 0
162 2 17.5767227028707 3.6519420457399043 12.263614723416055 0 0 0
65 2 14.410240189506307 5.736792459277069 9.879665209550478 0 0 0
233 2 15.487351678076053 3.606245380799535 9.134716029835372 0 0 0
217 1 9.174255797705305 6.5136480821445 12.886606339290928 0 0 -1
257 2 16.5163990230923 7.016089348697917 7.994220905216794 0 0 0
108 2 10.05938949554416 8.429618367905114 10.721214572502197 0 1 -1
136 1 13.135862563288475 7.461267067652659 12.239656318793232 0 0 0
323 2 1.879893124497508 0.9699652985823176 0.35687322466478294 0 1 -1
128 2 1.5907386275286792 3.1576151231525738 1.1472316143121157 0 1 -1
306 2 15.227504747835944 9.118140134934423 8.219658584232535 0 0 0
130 1 7.299405568454576 8.821416005232276 8.799387850516785 0 0 1
139 1 6.358071660416786 7.314624970380662 6.933920022170623 0 -1 1
100 1 7.471782014265578 5.829314278708968 9.827586149784134 0 0 0
63 2 7.243837164697512 2.060368627394544 3.187117910554136 0 0 0
129 2 2.4182463808552193 2.2751093559305007 2.013139949799521 0 1 -1
27 2 5.816840028131174 8.517174844653546 13.434229904200935 0 0 -1
64 1 15.391256412819654 5.532600002788523 9.863789155219507 0 0 0
246 2 9.152929501798791 7.2612920206516 4.683064521510441 0 0 0
13 1 14.78252526913229 5.282152415126288 4.092702158430477 0 0 0
62 2 6.5901864256417175 2.6674201883372306 1.8170109807501953 0 0 0
332 2 13.472180082287663 5.497612525810949 1.1889415235505165 0 0 0
94 1 14.266020088766766 8.053176684565615 5.280215594816809 0 0 0
250 1 9.631234627665236 3.0875551403534307 9.361320979875465 0 1 0
368 2 6.653857223797743 3.371110450876147 7.696104735721517 0 1 -1
169 1 3.0275469002368265 3.9666335866716436 6.665395436902404 0 -1 0
349 1 12.70564202597103 3.63929454315413 3.415523785456623 0 0 0
81 2 5.383402874733055 3.447740082575123 0.4932360544381383 0 0 -1
107 2 8.601500805212254 8.332885253297627 10.015185742555579 0 1 -1
302 2 12.672734615173189 6.514525647435429 10.858461628812096 0 0 -1
301 1 12.454214149909587 5.791898466520759 10.201311246152533 0 0 -1
103 1 11.541976104823439 3.183307388394677 7.3172638442281155 0 0 -1
6 2 10.998962725946006 2.872690341417924 5.8745755015283185 0 -1 0
303 2 11.790593421791696 5.258909965321064 10.655341273060012 0 0 -1
109 1 8.5791499090345 0.8396325630503296 0.660733889039276 0 0 1
234 2 14.848856663828538 2.3439844788805297 8.512506220502015 0 0 0
25 1 0.8488636349946725 4.75385414529245 0.8104700547642207 0 0 0
333 2 12.375230181038528 6.029550675425244 0.1653474186939039 0 0 0
111 2 8.085529322175539 1.3859685672426623 1.30086893176754 0 0 1
110 2 9.211710642862384 1.5093712464651836 0.2039156149643875 0 0 1
331 1 12.585625525986735 5.973375581484207 1.1174573889424586 0 0 0
9 2 10.796464095390832 4.006489399722246 12.070093248854517 0 0 -1
4 1 10.777590391360233 2.683948840701309 4.942027909160028 0 -1 0
8 2 9.859636527846627 5.269446593837368 12.129729921454592 0 0 -1
5 2 11.55636140204925 2.9106690940501445 4.328084076190212 0 -1 0
7 1 10.287474694185901 4.632792863793208 11.50268541283309 0 0 -1
377 2 17.005117530125766 8.567887801194832 11.77059889340623 0 0 0
112 1 15.260847810927899 6.027804623867396 12.99504692983628 0 0 0
304 1 15.985065169896306 8.556829621527365 8.464708684619236 0 0 0
367 1 7.3528263837005365 4.018218416588969 7.869601400437331 0 1 -1
350 2 13.020252992703373 2.804383925836732 3.0157056842051455 0 0 0
113 2 15.971895761972888 5.402329008509693 12.827125422900536 0 0 0
376 1 17.01393050144508 9.475371329005583 12.127265069823459 0 0 0
114 2 10.379022854274796 3.0596173944393406 0.24170484748957718 0 0 1
66 2 15.483126028520783 4.940459311540782 10.613975780813401 0 0 0
14 2 15.26230497048795 4.854547801983237 4.860070655991992 0 0 0
296 2 6.840601828800919 6.245023971350101 5.813700694370333 0 1 -1
369 2 7.487403748931397 4.410294613287782 6.938278969579019 0 1 -1
280 1 19.530596363157844 7.83652144742485 9.619384885976094 0 0 0
52 1 5.928324793956801 4.140995531970483 11.075080933489046 0 2 0
87 2 11.784959927582381 6.765723533771308 9.03975891586674 0 -1 0
184 1 18.926438180172152 6.0727443228454066 12.890886680056827 0 0 0
277 1 16.90934297284836 6.051938672226581 2.6525558198678785 0 0 0
93 2 3.747738315782673 5.70943805453595 2.41159733328335 0 0 0
15 2 14.442456102994337 6.145408473298125 4.483088249952072 0 0 0
138 2 14.065840099835174 7.162837034085665 12.30166929665524 0 0 0
39 2 18.434963058849693 7.377704533268637 6.928793420157277 0 0 0
160 1 16.739300750365988 3.8459829529432064 11.76774047485641 0 0 0
17 2 16.737802066925283 6.650594928614786 10.618329280097274 0 0 0
37 1 18.96388037014208 7.868262971530241 6.222134421572587 0 0 0
18 2 18.180234177386676 7.333125095049706 10.213255798334213 0 0 0
231 2 13.229906716882624 1.6926890169677633 0.9246945832923193 0 0 0
281 2 20.307027581020467 7.862650078522429 10.239460394714976 0 0 0
205 1 15.772316764882234 2.5592019220966935 2.5874877199060586 0 0 0
210 2 17.742533214303535 4.130547892095941 10.207576150117339 0 0 0
186 2 18.36883451992493 6.440004790477486 12.20011012991321 0 0 0
232 1 15.677924540577461 2.919590785470819 8.495567573702214 0 0 0
354 2 9.916651803384745 5.080271640444118 3.478667350486432 0 0 1
59 2 5.691544601355324 3.814862900714892 5.367585237489991 0 1 0
183 2 16.933383570504027 5.283572064935854 6.41664567529278 0 0 0
40 1 21.50041718067432 9.880698798794844 13.280948585424175 0 0 0
207 2 15.62367899705141 3.3958582181811043 2.0589298382327343 0 0 0
208 1 18.51546684993758 4.316245155429733 9.64868513394911 0 0 0
279 2 16.67960982503843 7.0385909258440575 2.501128664917492 0 0 0
254 2 15.405457814779687 5.038119710996553 0.7297243552441253 0 0 0
181 1 16.533396467408014 4.459815148181104 6.065293723965157 0 0 0
182 2 16.185474668873052 3.8903831463009784 6.801236523823315 0 0 0
256 1 17.26095858683211 6.418035808174498 7.763152564944384 0 0 0
255 2 14.506617301730609 3.739869357073771 0.34976739316059885 0 0 0
253 1 14.82389007953038 4.334917250836492 1.1033463073677086 0 0 0
157 1 14.531995870920872 2.327361979138057 5.240863539507841 0 0 0
185 2 19.37191854706668 5.375199352912437 12.381104399195099 0 0 0
278 2 16.192661876422193 5.651880562738017 3.203687671539394 0 0 0
159 2 14.698366939484734 2.5878880284228303 4.32194588030126 0 0 0
16 1 17.445740932993154 7.276415587908396 10.948904709439296 0 0 0
258 2 17.300377429868877 5.717191467838902 8.387538934185123 0 0 0
96 2 13.713739482091894 8.44700577538836 5.965125688678023 0 0 0
80 2 6.868812933563872 3.910747288438177 0.14287254236368116 0 0 -1
267 2 8.682715087192516 2.015324058653934 5.122871599028445 0 0 0
79 1 6.187700699828921 3.8917116032774124 0.844142866419881 0 0 -1
86 2 10.522645858953865 7.51725230485329 8.713975384025016 0 -1 0
141 2 5.467400708188626 7.061395791117609 7.308558223706239 0 -1 1
38 2 18.28409655071605 8.474637466261225 5.804208861940967 0 0 0
54 2 6.4878669749346045 4.8610440956569585 10.738807393912495 0 2 0
137 2 13.023458325141405 8.327957637379747 11.861823438026203 0 0 0
251 2 9.653258663138836 3.645426386320031 10.191128422210578 0 1 0
324 2 6.697906739821439 3.673586551649733 12.5501643888845 0 1 -2
313 1 4.293428630484623 8.030424113133488 3.838718389736422 0 0 0
299 2 12.248622518729015 8.523393320496453 7.589941091827015 0 1 0
252 2 8.840748980252041 3.479037432468326 8.849947524597539 0 1 0
91 1 3.232422604671725 6.008911634169926 1.6698739510488536 0 0 0
195 2 11.545747578014785 6.460453941044185 6.78275951744838 0 0 0
229 1 12.91496015796825 1.293408039022252 1.75231354216277 0 0 0
274 1 2.0259282451554754 1.1032046201706542 3.535910575182139 0 0 1
314 2 4.908616486511557 7.362692315567589 3.4781040276552293 0 0 0
193 1 11.59073878347897 5.692731434828751 6.120582178874439 0 0 0
194 2 11.800371274598195 4.849971915203385 6.60099398469328 0 0 0
315 2 3.529397510685061 7.510180847590046 3.6743900990967813 0 0 0
158 2 13.72573512896806 1.7300950934033703 5.3378558935088325 0 0 0
102 2 7.41232562486632 5.333000491324324 9.038818891814033 0 0 0
140 2 6.222352763771597 8.23989964491619 6.554783453657138 0 -1 1
10 1 3.7917419242026504 6.4574224560342035 7.543082228605301 0 1 0
317 2 1.0464748619036053 2.486458531501908 3.858618399170479 0 0 0
270 2 3.578714913195827 2.524104993714784 8.388225468050232 0 1 -1
32 2 10.919094698783672 9.725461110265186 11.937504640753097 0 0 1
11 2 3.481693885385975 7.040522605987128 6.813350405865323 0 1 0
202 1 2.1983577041765154 5.940326601729231 4.481581395112501 0 1 0
132 2 7.876343591689716 9.144587634884381 8.0566420609039 0 0 1
31 1 11.124448626892573 9.42301081940299 11.03865917750674 0 0 1
161 2 16.13584700923358 3.1390786144715306 11.986527359386011 0 0 0
41 2 17.115142838050527 6.874865598048749 0.08999626614253972 0 0 1
322 1 7.114275051467567 3.6053277778526454 13.443645794435003 0 1 -2
44 2 15.777667408128728 1.6423719436327355 5.934825181267871 0 1 0
95 2 13.652492894504423 7.931470626964369 4.519356267442719 0 0 0
239 2 18.579310557371997 9.366470322932562 8.88680308887207 0 0 0
241 1 10.661844109176249 10.440709517584795 13.36483176425032 0 1 0
35 2 12.554301040082489 3.557586539591399 13.383506146413168 0 1 0
372 2 4.906401288009339 0.9770557751755002 3.298843864229077 0 1 1
42 2 20.723334744792062 10.403861997149695 13.115795197591773 0 0 0
378 2 16.31102131326437 9.938077681343058 11.622103353437739 0 0 0
725 2 21.459265027148234 8.84646149349571 11.727756142047726 0 0 0
167 2 18.586353749406186 10.148515728252802 11.86889026995974 0 0 0
226 1 12.394122348364116 10.939111580622248 5.028008284644828 0 0 1
78 2 8.923033530777396 10.9234246690302 6.564609104031687 0 0 0
227 2 11.71760630263147 10.422625227922676 4.55916676605476 0 0 1
82 1 11.544687504760958 13.429362238793873 8.31538938098764 0 -1 -1
166 1 19.310773818906917 10.816881737013443 11.944270886930934 0 0 0
228 2 11.997081517946565 11.820147318782752 5.269861283576663 0 0 1
330 2 10.333049703332724 9.715349397835913 2.5116050972524255 0 0 1
179 2 7.073899508073001 12.994721632515247 8.315701093757475 0 -1 1
176 2 13.06237927238792 14.357046315571328 12.505069717805101 0 -1 -1
120 2 18.242439391274136 13.958828086942539 13.3052455984841 0 0 0
245 2 8.345418707228363 8.641946300844785 4.530110567293845 0 0 0
294 2 8.020944669859823 13.867949387785698 11.200317161553917 0 0 1
465 2 18.298527069603804 8.521092805326656 1.5883517038635784 0 0 0
118 1 17.729016533643502 13.28712854531174 12.753479267262907 0 0 0
175 1 13.133800350151946 14.740064076658749 13.426483868690834 0 -1 -1
238 1 17.99542347310743 10.144454170780849 8.761939817456492 0 0 0
156 2 6.621069020366413 11.289946115793915 11.438501716275033 0 0 0
196 1 13.656535163275372 11.731082367941461 0.6701160302173392 0 -1 0
83 2 11.209898760310319 14.19484144453997 8.80354691519594 0 -1 -1
290 2 6.526796040631711 9.38139886907668 2.0530559861192916 0 0 0
334 1 16.21518728156876 13.466216642077471 7.782806989863194 0 0 0
285 2 19.346296144150806 13.521783192900104 2.278951312139716 0 0 0
467 2 20.798277799230892 9.862737676330916 8.105289968098157 0 0 0
147 2 13.864542508042062 14.065031403445717 10.633004882199065 0 -1 1
364 1 5.495309976778692 13.068327034061424 1.9581732380961274 0 0 1
320 2 7.974492262268493 13.051589081363923 6.3295386191083765 0 0 0
88 1 13.355084262584116 10.944368493871407 9.583561097885646 0 0 0
164 2 15.91689160691476 8.67569230470572 5.079396856414676 0 0 0
380 2 16.705899302185067 15.40256882958735 5.032842877350281 0 0 0
266 2 13.764534198705807 14.81152606612253 4.426892434420215 0 -1 0
177 2 12.694287439626116 15.623432981744081 13.460244938535919 0 -1 -1
56 2 10.757526505641508 11.40178521989078 1.3495558670532448 0 0 0
168 2 18.841301959195924 11.666766639348172 12.132675623193908 0 0 0
224 2 11.353555860081256 13.459375881570178 6.742390506692946 0 0 0
145 1 13.07606224249504 13.68870025519738 11.13110963301614 0 -1 1
57 2 9.610401894570153 10.755944325716378 0.5103633225110101 0 0 0
328 1 10.806187013277189 9.508529371901876 3.371904935892773 0 0 1
344 2 10.477351683008491 15.530835349576368 11.337648968892465 0 0 0
28 1 12.141071116018106 12.800132873984676 2.3766792017775336 0 0 1
336 2 16.644345795694964 14.074752782286547 7.172565324285219 0 0 0
366 2 4.871815498377149 13.6447714348394 1.4645694778741656 0 0 1
287 2 22.082558402240892 15.799900792817295 8.96540260948579 0 0 0
155 2 6.582725470439602 11.227477989489687 12.951571117094902 0 0 0
55 1 10.498137988442272 10.590127368475406 0.9184833999906837 0 0 0
216 2 20.67318073654787 11.881652887184105 9.245168725897162 0 0 0
329 2 10.225095328124219 8.943828219305779 3.940522935071156 0 0 1
51 2 12.174672323913052 8.63540841737165 3.0186861328924985 0 0 -1
312 2 18.15572847406616 15.4075488764191 9.589780648632699 0 0 0
335 2 16.98377551471585 13.15443319742987 8.327701904822494 0 0 0
97 1 14.269901071012434 13.133522672062174 3.949448863217087 0 -2 0
49 1 13.003440330422574 8.056712861643796 2.945760826661918 0 0 -1
98 2 14.569481181644946 12.614300873297974 4.688394316383183 0 -2 0
310 1 18.44187719578012 15.48982944560602 8.591525448632963 0 0 0
34 1 16.92618212558247 17.144306027565296 13.073683310292015 0 0 0
197 2 14.352362743418771 11.436208765809775 1.335900378468759 0 -1 0
48 2 24.91279144416129 17.303023918475937 13.270709612152508 0 0 0
273 2 14.91349963121078 15.71431608030682 9.535468511460088 0 -1 0
319 1 8.624085395510075 12.39750466595507 5.871140649017356 0 0 0
272 2 15.456158605580839 14.257483325280353 9.036874311506438 0 -1 0
264 2 19.578657008609593 12.74786411793156 7.081980430555277 0 0 0
142 1 15.715982514920743 11.542029053816519 11.098997469538315 0 0 0
263 2 20.812146230072884 13.859728929871386 7.182373367864265 0 0 0
121 1 8.10989993480427 11.863038364628537 3.220691570997088 0 0 -1
122 2 8.433624676705358 12.104757466228747 4.099331851743795 0 0 -1
2 2 4.600697436616066 9.932187886014288 0.876310289133102 0 0 -1
215 2 20.335688734327665 11.0765835885171 10.464327664951677 0 0 0
271 1 14.993631136783861 14.730180461307109 9.765075708711557 0 -1 0
262 1 20.16974983784075 13.212509606476535 7.672556900022982 0 0 0
371 2 10.117558647228595 14.47358850909066 4.6359663246908935 0 0 1
192 2 21.783075943548436 13.753427859953973 13.420251611629652 0 0 0
214 1 20.898001922909305 11.072836335187628 9.707613760552508 0 0 0
240 2 18.312071397832412 10.61149779597554 7.944083438679496 0 0 0
321 2 9.528044788742207 12.77427980822549 5.913870163414134 0 0 0
249 2 4.928983525764514 9.728365568390021 6.292407364602035 0 0 0
374 2 3.3974152088369296 9.520672940212238 3.863747869294872 0 1 0
3 2 3.0485133608508876 9.73607812048409 0.7223275427310012 0 0 -1
291 2 6.891090596989562 10.046107275854606 0.6075128217292528 0 0 0
308 2 15.09488720131629 13.95788435445296 1.053763738491528 0 0 0
36 2 17.197957983215574 16.577136443258983 12.348423976994356 0 0 0
298 1 12.824409838271851 9.31243244301997 7.327505757161132 0 1 0
90 2 13.07262727682021 10.408007636401058 8.769978895394654 0 0 0
198 2 12.92299594810282 12.14515427608538 1.149620858971076 0 -1 0
84 2 11.1664154375785 12.628528838139232 8.700162418892445 0 -1 -1
125 2 2.62349472397578 7.544045191127882 1.319179470882003 0 -1 1
311 2 18.844627630827045 14.65466988413716 8.325906212603906 0 0 0
359 2 17.528071823479888 14.39231758531338 11.683594898421559 0 0 0
134 2 7.82637705637968 15.488296486191167 9.97243270817389 0 -1 0
326 2 9.499831629341623 10.802540624736368 8.815672388690507 0 0 -1
72 2 17.991824727658496 11.62455808776518 9.718366237909613 0 0 0
384 2 19.304562656022785 16.123852173860197 12.92141964702557 0 0 0
276 2 8.074512902459636 15.071596824272213 3.849948045576257 0 -1 1
190 1 21.41880814074929 12.984225294367345 12.984893820796755 0 0 0
269 2 9.63318543141073 15.700954100799088 9.297503260750943 0 0 -1
191 2 22.065361477500076 12.461711416193069 12.455616148886653 0 0 0
382 1 19.725576870211054 16.52239537466464 12.113947028750207 0 0 0
19 1 17.239531113801146 12.351581928265128 4.192021767886042 0 0 0
20 2 18.022422021947282 12.226970799453746 3.6247471057615295 0 0 0
21 2 16.61817582056406 11.73373164249807 3.693413472837544 0 0 0
379 1 17.37355536458353 14.708957661987087 5.354239296578783 0 0 0
43 1 21.613006675501172 15.27094466159381 6.4126720600061065 0 0 0
381 2 17.247529562010705 13.86063467744301 4.852078924388743 0 0 0
67 1 15.535957483381484 10.685374352395337 2.863796556528589 0 0 0
68 2 14.852675353280645 10.622995656709671 3.566904671106197 0 0 0
69 2 15.52298063002473 9.719227911282585 2.531165228927715 0 0 0
119 2 16.908940207026703 13.120226838663532 13.288978691744923 0 0 0
146 2 13.05177004460551 12.813401177478047 10.730659582213535 0 -1 1
360 2 16.49535343936325 14.913521229152808 10.570746771013265 0 0 0
115 1 15.07420957767047 11.456160867243788 5.965648037933778 0 0 0
116 2 14.11088122486703 11.268089964967347 6.084369995590666 0 0 0
365 2 6.214845126810949 12.869954474472848 1.3716826788578353 0 0 1
1 1 3.75319856021005 10.37425571080547 0.5623747878304335 0 0 -1
144 2 14.935790232240755 11.395541615186405 10.561674486042579 0 0 0
383 2 19.578098341742578 15.823947304114606 11.45043881745275 0 0 0
163 1 16.76251572146709 9.085175241089074 5.216983982290407 0 0 0
286 1 22.38253608534744 14.930539868252117 9.347863700938674 0 0 0
165 2 16.59081359384502 9.884397507766545 5.721045359273799 0 0 0
187 1 18.70826768622306 11.317168043421313 6.369603681479739 0 0 0
188 2 19.408581674346934 10.90872967599577 5.782277606521832 0 0 0
189 2 18.049994989365334 11.705466376729746 5.710539604561568 0 0 0
30 2 12.031995005867818 13.740164158229211 2.3330364938415653 0 0 1
211 1 18.147514513176183 9.751839174002294 2.703878490057194 0 0 0
213 2 17.41164201958916 9.598229706314264 3.308449605879939 0 0 0
235 1 15.448875007374095 8.297345279748434 1.8514737624894249 0 0 0
236 2 15.68163025154302 8.60650829708601 0.967293119486348 0 0 0
76 1 8.960241352296272 10.058766807851562 7.062137842230043 0 0 0
260 2 18.149578374091508 12.028774313954873 0.3495812048714954 0 0 0
345 2 11.671524343746821 14.79692174764883 10.77295318507431 0 0 0
259 1 17.478308071543726 11.371014868532772 0.6804290336558712 0 0 0
117 2 15.457514331739425 11.937014077349765 6.6966286665598265 0 0 0
261 2 17.82291140548191 11.014739027425923 1.5195909144220512 0 0 0
283 1 19.748700712743872 12.695846145063971 2.6351799228657473 0 0 0
268 1 8.920971401938788 15.756346700719574 8.625613055258897 0 0 -1
237 2 14.518497183995919 8.251238188567187 2.135124335985097 0 0 0
307 1 15.81282105981811 13.554804197117212 1.621843547308771 0 0 0
89 2 13.102252842928623 10.395699727946107 10.347869135113585 0 0 0
309 2 16.237691292004484 12.842517423574902 1.1040801603756512 0 0 0
29 2 12.830364350884059 12.757266648896953 3.099080030786244 0 0 1
225 2 11.88004742096519 14.258406115934736 5.550040536790686 0 0 0
33 2 10.788607077742277 10.084833586210076 10.385950476461081 0 0 1
212 2 18.953966693000787 9.790774154358589 3.304940581808155 0 0 0
358 1 17.324498622622567 15.2044351782753 11.088584266770912 0 0 0
289 1 6.317723821242385 9.339674639519151 1.0537392919185482 0 0 0
22 1 20.095797705636247 14.171798235926383 10.528795587249434 0 0 0
23 2 20.861756957089856 14.44754277194567 9.981975927772629 0 0 0
24 2 20.55770545551977 13.943760162426317 11.383100681120087 0 0 0
143 2 16.347470863791177 12.018174420944906 10.509579549048317 0 0 0
46 1 24.04690641864528 16.888992262578384 13.12932292330864 0 0 0
70 1 17.91064931192242 12.593047749169516 9.771159282707936 0 0 0
71 2 18.77562572045166 12.954145111890709 10.030108475059643 0 0 0
325 1 10.014911215882542 11.32434626200235 9.46072669890437 0 0 -1
223 1 11.345452961337076 13.508883364460777 5.729434995308641 0 0 0
77 2 9.20972887182975 9.38283871026921 6.402035384514177 0 0 0
201 2 7.259486338404049 10.544668627798394 3.372632817966072 0 0 1
275 2 6.7939127081577855 14.425504900222593 3.2033990980794447 0 -1 1
343 1 10.916079663882622 15.332952862517828 10.471412197594535 0 0 0
123 2 8.57636971324582 12.530293052149093 2.729764992174176 0 0 -1
327 2 9.360039203689933 11.788820988504096 9.960338322394554 0 0 -1
99 2 14.992747788227653 13.192011868129912 3.3156325989763644 0 -2 0
293 2 8.756493846556506 12.952030111342992 12.138094241751679 0 0 1
243 2 5.803705767251885 7.706606463963399 0.234502110257194 0 1 1
346 1 9.827329924345793 15.880916865747349 12.6765634159849 0 0 0
348 2 9.394806077425955 15.251933195232304 13.292592011759588 0 0 0
362 2 4.948211988983813 13.04206063751297 3.605200911604304 0 0 -1
300 2 12.205218690715887 9.78608084558361 6.7628687004388714 0 1 0
152 2 8.725263663742762 13.914566474898757 0.9353576563343255 0 -1 0
47 2 24.324914764352943 16.381480067678027 12.327205980153257 0 0 0
178 1 7.1217376098146215 13.701989340896809 7.689414835523131 0 -1 1
292 1 8.560280367587621 13.046867165710385 11.201617364991057 0 0 1
180 2 7.732563212723353 14.37447312776807 8.03727842264043 0 -1 1
370 1 9.685313049375992 15.21830204332483 4.178639360805453 0 0 1
153 2 10.256601950894709 13.732630098964622 0.8075437288104768 0 -1 0
151 1 9.555213175725426 13.854401949144865 1.4934173124867176 0 -1 0
347 2 9.365818806092019 16.719128869224203 12.61776146889502 0 0 0
199 1 6.882763025840093 9.642104233980284 3.5181698755243316 0 0 1
248 2 6.255270432543903 10.404773695869897 6.651390352323926 0 0 0
173 2 6.556490307997606 10.43136419692858 9.040706683864672 0 -1 1
200 2 6.201181533884178 9.747163532286446 4.1704037307460835 0 0 1
247 1 5.892035023528007 9.696811453694831 6.109792020325663 0 0 0
124 1 2.0730699518063553 8.339344773129449 0.9911901073610527 0 -1 1
172 1 6.147143504643828 11.277324071008366 8.942770583740712 0 -1 1
305 2 16.601425856688895 9.321506593688401 8.542992957429636 0 0 0
385 1 22.236668992735755 5.218011507758385 4.049095345159368 0 0 0
386 2 21.950775169058776 6.0757933778070194 4.453611691996712 0 0 0
387 2 21.473723208748837 4.87929118024781 3.6285593188657015 0 0 0
409 1 26.521603921952966 8.196494760306368 6.100617503977992 0 0 0
483 2 19.518122794252488 3.830419899588335 6.648228638861591 0 0 0
722 2 19.315941308128018 6.70017910562723 4.886761940063756 0 0 0
750 2 23.57481668575624 9.895107732922169 11.95643650341099 0 0 0
433 1 20.24590370411748 3.6577962830987865 2.8463895799506633 0 0 0
434 2 20.561375881333525 2.779900951623684 2.490514385172985 0 0 0
435 2 19.648729421053595 4.018058650708316 2.1946845169521274 0 0 0
457 1 16.21157689979672 0.7421306332778573 0.4663170785099137 0 0 0
26 2 32.606150220673854 5.236599763782823 1.346069932840558 -1 0 0
203 2 33.970028800316115 6.590482308725509 4.893789564609074 -1 1 0
481 1 20.250402739916204 4.407868257638654 6.229496466284572 0 0 0
482 2 19.833876831975143 4.8008039608982935 5.45413311170954 0 0 0
650 2 25.16216413330236 6.061760854276298 3.3174361350261625 0 0 0
505 1 18.13826454124871 2.872535157288368 4.279697855088751 0 0 0
506 2 18.86406960215651 3.3799171981357357 3.8376892027294316 0 0 0
529 1 21.85021633644488 2.3829579638011946 5.066882096737025 0 0 0
530 2 21.3752650046942 3.1675932869496823 5.402945359685487 0 0 0
531 2 22.291151188924374 2.62340382602751 4.221138869000703 0 0 0
553 1 24.134492542111282 4.415568225743112 6.2238708094611495 0 0 0
554 2 23.302573344485488 4.598861614817923 5.730364092248654 0 0 0
745 1 21.847268640873214 7.963286543713115 5.064475396834271 0 0 0
577 1 23.416876965967855 2.6259214748802813 2.8510982108917466 0 0 0
579 2 23.2404834008213 3.340574274950308 2.192754920560935 0 0 0
601 1 20.492831219502545 1.28599250089287 1.6635389847644688 0 0 0
666 2 35.0988460825955 8.21799852201106 10.19215545034219 0 0 0
603 2 20.74530214802565 1.570324597412865 0.7226056826656008 0 0 0
339 2 32.749864100942986 2.0222627985741695 7.040743417371652 -1 0 0
625 1 22.469250282832263 4.5284191474089095 1.0141589887371236 0 0 0
627 2 21.686030835535874 5.1020231847392585 1.1797513609854011 0 0 0
649 1 24.358688564874342 5.890619314459705 2.779243892471809 0 0 0
578 2 23.37420349886891 1.8360159599231805 2.282970865233606 0 0 0
651 2 23.603137757466513 5.560142567371275 3.3252484993890263 0 0 0
673 1 20.660009630180287 6.626817536108574 1.643391318682132 0 0 0
204 2 33.9473727461245 5.4262514986842065 3.9745085263844637 -1 1 0
675 2 20.246558612194196 6.331317829886238 2.5226976651963184 0 0 0
697 1 18.45741538574028 4.498064163099455 0.865405860508504 0 0 0
593 2 32.6997898916114 3.9954489738952566 10.292094345803157 0 0 0
699 2 17.79513408893174 4.997790656916246 1.4130027114833748 0 0 0
746 2 21.654725749478285 7.703193153143798 5.93983274488483 0 0 0
721 1 19.390509150300623 6.0173927446710005 4.222078353136463 0 0 0
626 2 23.107029395928375 5.151420107034908 0.5245911457080323 0 0 0
723 2 18.48258467112794 5.942030332955427 3.8489824625449116 0 0 0
411 2 26.017768850506286 7.746649296699127 6.808801351011077 0 0 0
429 2 30.65707219352374 1.6172081992731313 5.904727694204135 0 1 0
388 1 24.909505405547588 7.04941300580082 10.698643259305436 0 0 0
389 2 24.62491632098529 7.858857688924375 11.20776955317203 0 0 0
390 2 25.41672203609789 6.536531916290066 11.369923371673664 0 0 0
412 1 29.13568241299359 9.907824444588327 13.091846754698391 0 0 0
509 2 19.86449143492952 4.355319051142989 10.44019362229553 0 0 0
436 1 22.539475294920823 5.550794766306196 9.666691049875176 0 0 0
437 2 21.835235774476978 5.3639754379311615 10.314648022670708 0 0 0
438 2 23.142938413188578 6.1246290499678535 10.118931469300342 0 0 0
460 1 18.672836087740095 2.5725975262925167 7.511408880906168 0 0 0
654 2 27.74728165354322 8.19775052978094 9.844582722357515 0 0 0
748 1 24.361854756194703 9.353427035872325 12.070467823655013 0 0 0
485 2 23.32134188515677 6.496103169994209 13.27805902481543 0 0 0
484 1 22.994919131494502 5.834701384895135 12.604602485598102 0 0 0
508 1 20.512576022940987 4.649478845939619 11.088610750139894 0 0 0
510 2 21.000996829057506 3.8828287533961072 11.384520035384707 0 0 0
558 2 26.76541090221535 6.958608277078315 13.166902083130744 0 0 0
532 1 24.490238041142685 3.9626257796262316 11.593406883093033 0 0 0
533 2 24.03775306497115 4.748550865971809 11.971243622103865 0 0 0
534 2 25.24945655415332 3.682028550207792 12.146585282914586 0 0 0
556 1 26.270023802982628 6.16465062682402 12.798421108016692 0 0 0
557 2 26.897863620633782 5.549071694408308 12.39991294961717 0 0 0
580 1 25.61749470801962 4.484025087432166 9.233483357915876 0 0 0
581 2 24.975856619276662 4.3181268109693205 9.95839367434027 0 0 0
582 2 25.69916225208256 5.411681571373816 9.027863158950758 0 0 0
630 2 24.560333949105846 6.070433512376541 6.898050776729463 0 0 0
604 1 23.0943210843195 3.0728127531215836 8.60998355922128 0 0 0
605 2 22.856959539471564 3.93211316053629 9.072223462231761 0 0 0
426 2 35.53794034046588 10.187036538221223 12.903291260264018 0 0 0
606 2 22.209250578779404 2.7078672941764053 8.439549776053063 0 0 0
628 1 24.814175879350636 6.801600248009076 7.457549628492932 0 0 0
629 2 24.042450755394256 7.277800286437799 7.789835125146688 0 0 0
545 2 30.820585538890573 3.3209110972985236 11.933654287492963 0 0 0
749 2 25.163157110955982 9.917890458608635 11.97936400804504 0 0 0
652 1 26.947325317090726 8.025241912392476 9.29310495975972 0 0 0
653 2 26.231469238333418 7.655508717260235 9.857869709018997 0 0 0