LAMMPS data file via write_data, version 8 Apr 2021, timestep = 0

384 atoms
2 atom types

0 15.070098000000002 xlo xhi
0 14.170233 ylo yhi
0 13.705722999999999 zlo zhi
5.129553 5.129553 3.598427 xy xz yz

Masses

1 16
2 2

Atoms # atomic

1 1 7.469999999999998 5.179999999999998 4.01 0 0 0
2 2 7.21 6.01 4.389999999999999 0 0 0
3 2 6.659999999999998 4.800000000000001 3.6700000000000004 0 0 0
7 1 9.96 12.259998999999997 3.96 0 0 0
8 2 10.51 11.849999 4.63 0 0 0
9 2 9.79 13.14 4.29 0 0 0
25 1 11.569999999999997 8.13 6.2 0 0 0
26 2 12.25 8.559999999999999 6.7299999999999995 0 0 0
27 2 11.119999999999997 7.559999999999998 6.8199999999999985 0 0 0
31 1 14.149999999999999 15.139999999999997 6.269999999999999 0 0 0
32 2 14.780000999999999 15.780000000000001 6.6099999999999985 0 0 0
33 2 13.450001 15.679999 5.89 0 0 0
49 1 5.269999999999999 3.709999999999999 2.899999999999999 0 0 0
50 2 5.440000999999998 2.8299999999999996 2.559999999999999 0 0 0
51 2 4.719999999999998 4.12 2.23 0 0 0
55 1 7.749999999999999 10.789999999999996 2.84 0 0 0
56 2 8.019999999999998 9.959999999999997 2.459999999999999 0 0 0
57 2 8.559999999999997 11.17 3.18 0 0 0
73 1 1.0499999999999998 0.7499999999999998 0.5299999999999998 0 0 0
74 2 1.8199999999999994 0.28999999999999987 0.8600000000000001 0 0 0
75 2 0.8599999999999999 1.4099999999999995 1.2 0 0 0
79 1 3.6199999999999997 7.829999999999998 0.5299999999999998 0 0 0
80 2 4.39 7.37 0.8600000000000001 0 0 0
81 2 3.419999999999999 8.49 1.2 0 0 0
97 1 5.279999999999999 4.339999999999999 6.04 0 0 0
98 2 4.8199999999999985 4.9399999999999995 5.459999999999998 0 0 0
99 2 4.589999999999998 3.8099999999999987 6.439999999999999 0 0 0
103 1 7.849999999999998 11.419999999999998 6.04 0 0 0
104 2 7.159999999999999 10.889998999999998 6.439999999999999 0 0 0
105 2 7.379999999999999 12.03 5.459999999999998 0 0 0
121 1 3.0199999999999996 2.749999999999999 4.239999999999998 0 0 0
122 2 3.76 3.2199999999999998 3.8400000000000003 0 0 0
123 2 2.609999999999999 3.3899999999999997 4.82 0 0 0
127 1 5.539999999999999 9.92 4.249999999999998 0 0 0
128 2 5.939999999999999 9.139999 4.64 0 0 0
129 2 6.239999999999998 10.31 3.729999999999999 0 0 0
145 1 6.809999999999997 2.119999999999999 5.099999999999998 0 0 0
146 2 6.309999999999999 2.9099999999999993 5.33 0 0 0
147 2 7.269999999999998 2.349999999999999 4.29 0 0 0
151 1 9.349999999999998 9.239999999999998 5.01 0 0 0
152 2 8.94 9.959999999999997 5.48 0 0 0
153 2 10.089999 8.97 5.5699999999999985 0 0 0
169 1 9.049998999999998 4.299999999999998 6.089999999999999 0 0 0
170 2 8.360000999999999 4.549999999999998 5.469999999999998 0 0 0
171 2 8.589999999999996 3.899999999999998 6.8199999999999985 0 0 0
175 1 11.529999999999996 11.440000999999997 6.079999999999999 0 0 0
176 2 11.309999999999999 10.919999999999996 6.849999999999998 0 0 0
177 2 12.059998999999994 10.849999999999998 5.54 0 0 0
193 1 8.309998999999996 2.5399999999999996 2.729999999999999 0 0 0
194 2 8.450001 1.8399999999999994 2.09 0 0 0
195 2 8.009999999999998 3.289999999999999 2.209999999999999 0 0 0
199 1 10.919999999999996 9.59 2.649999999999999 0 0 0
200 2 10.539999999999996 10.290000999999997 2.1099999999999994 0 0 0
201 2 10.349999 9.559998999999998 3.419999999999999 0 0 0
217 1 5.519999999999998 1.2399999999999995 1.6699999999999995 0 0 0
218 2 6.09 0.5099999999999996 1.9 0 0 0
219 2 5.89 1.59 0.87 0 0 0
223 1 8.079999999999998 8.319999999999997 1.6699999999999995 0 0 0
224 2 8.649999999999997 7.59 1.9 0 0 0
225 2 8.450000999999999 8.669999999999996 0.87 0 0 0
241 1 7.449999999999998 4.479999999999999 0.8299999999999997 0 0 0
242 2 8.05 5 0.3 0 0 0
243 2 6.849999999999998 5.12 1.21 0 0 0
247 1 9.999999999999996 11.63 0.88 0 0 0
248 2 10.53 12.209999 0.3399999999999999 0 0 0
249 2 9.68 10.959999 0.28 0 0 0
265 1 9.619999999999997 6.079999999999998 2.539999999999999 0 0 0
266 2 10.369999 6.1499999999999995 3.1399999999999992 0 0 0
267 2 8.899999999999999 5.78 3.089999999999999 0 0 0
271 1 12.189999999999998 13.17 2.539999999999999 0 0 0
272 2 11.459999999999997 12.869998999999996 3.089999999999999 0 0 0
273 2 12.929999999999996 13.239999999999997 3.1399999999999992 0 0 0
289 1 5.839999999999998 6.679999999999998 1.7299999999999995 0 0 0
290 2 6.6 7.25 1.8300000000000003 0 0 0
291 2 5.440001 6.65 2.6 0 0 0
295 1 8.360000999999997 13.8 1.8000000000000003 0 0 0
296 2 8.780000999999997 12.999999999999996 1.4899999999999995 0 0 0
297 2 9.06 14.450001 1.8000000000000003 0 0 0
313 1 3.6999999999999993 4.53 0.7699999999999998 0 0 0
314 2 3.919999999999999 5.049999999999998 0 0 0 0
315 2 3.17 5.11 1.3199999999999996 0 0 0
319 1 6.179999999999998 11.67 0.7699999999999998 0 0 0
320 2 6.87 11.42 1.38 0 0 0
321 2 6.64 12.07 0.030000000000000002 0 0 0
337 1 4.419999999999998 6.309999999999999 4.18 0 0 0
338 2 4.239999999999999 6.9399999999999995 4.869999999999999 0 0 0
339 2 3.5999999999999988 6.259999999999998 3.68 0 0 0
343 1 6.939999999999999 13.419999999999998 4.249999999999998 0 0 0
344 2 6.09 13.309998999999998 3.8299999999999983 0 0 0
345 2 7.559999999999998 13.559998999999996 3.53 0 0 0
361 1 7.059998999999996 7.659999999999998 5.16 0 0 0
362 2 6.899999999999999 7.299999999999998 6.03 0 0 0
363 2 7.859999999999998 8.18 5.259999999999998 0 0 0
367 1 9.649999999999999 14.689999999999994 5.229999999999999 0 0 0
368 2 9.04 15.360001 4.909999999999998 0 0 0
369 2 10.499999999999996 15.129999999999995 5.229999999999999 0 0 0
4 1 9.959999999999997 6.969999999999997 10.809998999999998 0 0 0
5 2 9.79 7.86 11.139999 0 0 0
6 2 10.509999999999998 6.5699999999999985 11.479999999999999 0 0 0
10 1 12.539998999999998 14.099998999999997 10.93 0 0 0
11 2 13.239999999999998 14.329999999999997 10.309999999999997 0 0 0
12 2 11.91 13.609999999999996 10.4 0 0 0
28 1 14.149999999999999 9.859999999999998 13.120000999999997 0 0 0
29 2 13.450000999999999 10.399999999999997 12.740000999999996 0 0 0
30 2 14.780000999999997 10.489999999999997 13.459998999999996 0 0 0
34 1 16.65 17.02 13.139999999999999 0 0 0
35 2 17.460001 17.439999 13.42 0 0 0
36 2 16.919999999999998 16.440001 12.429999999999996 0 0 0
52 1 7.819999999999998 5.469999999999998 9.629999999999997 0 0 0
53 2 7.119999999999998 5.239999999999998 10.240001 0 0 0
54 2 8.450000999999997 5.959999999999998 10.159999999999997 0 0 0
58 1 10.4 12.589998999999997 9.75 0 0 0
59 2 9.85 12.999999999999996 9.079999999999998 0 0 0
60 2 10.570001 11.709999999999997 9.419999999999998 0 0 0
76 1 3.6399999999999992 2.619999999999999 7.439999999999999 0 0 0
77 2 3.009999999999999 1.989999999999999 7.099999999999999 0 0 0
78 2 4.339999999999998 2.089999999999999 7.809999999999997 0 0 0
82 1 6.269999999999998 9.639998999999996 7.41 0 0 0
83 2 6.009999999999999 10.209999999999999 8.13 0 0 0
84 2 5.459999999999998 9.209999999999997 7.139999999999998 0 0 0
100 1 7.789999999999999 6.129999999999998 12.819999999999999 0 0 0
101 2 8.109999999999998 6.809999999999998 13.42 0 0 0
102 2 7.259999999999998 5.559999999999998 13.369999999999997 0 0 0
106 1 10.360001 13.219999999999999 12.819999999999999 0 0 0
107 2 10.679998999999999 13.889999999999997 13.42 0 0 0
108 2 9.829999999999997 12.639999999999997 13.369999999999997 0 0 0
124 1 5.619999999999998 4.669999999999998 11.109999999999996 0 0 0
125 2 4.869999999999998 4.429999999999998 10.579999999999997 0 0 0
126 2 6.019999999999999 3.839999999999998 11.360000999999997 0 0 0
130 1 8.169999999999998 11.679999999999998 11.160000999999996 0 0 0
131 2 7.429999999999998 11.610001 10.559999 0 0 0
132 2 8.889999999999997 11.989999999999998 10.620000999999998 0 0 0
148 1 9.349999999999998 3.949999999999999 11.859999999999996 0 0 0
149 2 8.939999999999996 4.679999999999998 12.339999999999996 0 0 0
150 2 10.089999 3.689999999999998 12.42 0 0 0
154 1 11.940000999999999 11.009998999999999 11.950000999999997 0 0 0
155 2 11.440000999999999 11.789999999999996 12.179999999999998 0 0 0
156 2 12.389998999999996 11.24 11.139999 0 0 0
172 1 11.490000999999996 6.079999999999998 12.95 0 0 0
173 2 12.139999 5.669999999999998 12.38 0 0 0
174 2 11.969999999999997 6.749999999999998 13.429999999999996 0 0 0
178 1 14.119998999999996 13.190000999999997 13.009999999999998 0 0 0
179 2 13.509998999999999 13.559998999999996 12.369999999999997 0 0 0
180 2 14.709998999999994 12.649999999999997 12.489999999999997 0 0 0
196 1 10.92 4.309999999999999 9.51 0 0 0
197 2 10.349998999999999 4.269999999999998 10.269999999999998 0 0 0
198 2 10.539999999999997 4.999999999999998 8.96 0 0 0
202 1 13.439999999999994 11.429999999999998 9.58 0 0 0
203 2 13.14 12.169999999999998 9.059999999999999 0 0 0
204 2 13.579999999999998 10.729999999999999 8.949999999999998 0 0 0
220 1 8.190001 3 8.47 0 0 0
221 2 8.01 3.829999999999999 8.9 0 0 0
222 2 7.369999999999997 2.4999999999999982 8.549999999999999 0 0 0
226 1 10.709999999999997 10.159999999999995 8.479999999999997 0 0 0
227 2 11.319999999999999 9.5 8.79 0 0 0
228 2 9.859999999999996 9.719999999999997 8.479999999999997 0 0 0
244 1 10.07 6.339999999999998 7.690000000000001 0 0 0
245 2 9.419999999999998 7 7.940001 0 0 0
246 2 9.589999999999998 5.709999999999999 7.16 0 0 0
250 1 12.559999999999997 13.429999999999998 7.739999999999999 0 0 0
251 2 13.099999 14.01 7.19 0 0 0
252 2 12.249999999999998 12.76 7.139999999999998 0 0 0
268 1 12.189999999999996 7.879999999999999 9.399999999999999 0 0 0
269 2 11.459999999999999 7.579999999999998 9.940000999999999 0 0 0
270 2 12.929999999999996 7.9499999999999975 10 0 0 0
274 1 14.749999999999998 14.940000000000001 9.519999999999996 0 0 0
275 2 14.299998999999996 15.659999999999997 9.09 0 0 0
276 2 15.25 14.52 8.820001 0 0 0
292 1 8.48 8.49 8.62 0 0 0
293 2 7.7899999999999965 8.899999999999999 8.099999999999998 0 0 0
294 2 8.079999999999998 8.319999999999997 9.47 0 0 0
298 1 10.989999999999997 15.650000999999998 8.609999999999998 0 0 0
299 2 10.53 15.419999999999998 9.41 0 0 0
300 2 11.479999999999999 14.859999999999996 8.369999999999996 0 0 0
316 1 6.2299999999999995 6.449999999999998 7.6 0 0 0
317 2 5.909999999999999 5.699999999999999 7.099999999999999 0 0 0
318 2 6.759999999999999 6.0699999999999985 8.3 0 0 0
322 1 8.809999 13.49 7.680000000000001 0 0 0
323 2 9.150001 14.019999999999996 6.949999999999998 0 0 0
324 2 8.42 12.719999 7.249999999999999 0 0 0
340 1 6.919999999999999 8.139999999999999 10.969999999999997 0 0 0
341 2 6.7799999999999985 8.839999999999996 11.610000999999997 0 0 0
342 2 7.219999999999999 7.399999999999999 11.499999999999996 0 0 0
346 1 9.53 15.279999999999998 11.030001 0 0 0
347 2 9.689999999999998 14.529999999999996 11.610000999999997 0 0 0
348 2 8.73 15.05 10.559999 0 0 0
364 1 9.649999999999999 9.41 12.08 0 0 0
365 2 10.499999999999996 9.84 12.08 0 0 0
366 2 9.039999999999996 10.069999999999997 11.769999999999996 0 0 0
370 1 12.17 16.57 12.089999999999996 0 0 0
371 2 12.349999999999996 15.739999999999997 11.66 0 0 0
372 2 12.989999999999997 17.059999 12.009999999999998 0 0 0
13 1 14.960000999999998 5.26 3.9899999999999984 0 0 0
14 2 14.289999999999994 4.64 3.7099999999999995 0 0 0
15 2 15.419999999999996 4.809999999999999 4.699999999999999 0 0 0
19 1 17.509999999999998 12.3 4.079999999999998 0 0 0
20 2 18.209998999999996 12.530001 3.459999999999999 0 0 0
21 2 16.879999 11.809999 3.5499999999999994 0 0 0
37 1 19.18 8.14 6.259999999999999 0 0 0
38 2 18.48 8.6 5.799999999999998 0 0 0
39 2 18.73 7.4799999999999995 6.789999999999998 0 0 0
43 1 21.709999 15.219999 6.3199999999999985 0 0 0
44 2 20.94000099999999 15.679998999999997 5.989999999999998 0 0 0
45 2 21.91 14.559999 5.65 0 0 0
61 1 12.849998999999999 3.6799999999999993 2.85 0 0 0
62 2 12.150001 3.3499999999999996 3.4099999999999993 0 0 0
63 2 12.389999 4.03 2.08 0 0 0
67 1 15.379999999999997 10.82 2.84 0 0 0
68 2 15.58 10.01 2.369999999999999 0 0 0
69 2 14.609999999999998 10.620000999999998 3.3699999999999997 0 0 0
85 1 8.549999999999999 0.7499999999999999 0.5899999999999999 0 0 0
86 2 9.25 0.28999999999999976 1.0599999999999996 0 0 0
87 2 9.01 1.4 0.060000000000000005 0 0 0
91 1 11.15 7.829999999999998 0.5299999999999998 0 0 0
92 2 11.919999999999996 7.37 0.8600000000000001 0 0 0
93 2 10.959999 8.49 1.2 0 0 0
109 1 12.749999999999996 4.41 6.03 0 0 0
110 2 12.150001 3.879999999999999 6.55 0 0 0
111 2 13.349999999999998 3.7599999999999985 5.639999999999998 0 0 0
115 1 15.309999999999999 11.360000999999999 6.04 0 0 0
116 2 14.979999999999997 11.929999 5.34 0 0 0
117 2 15.71 11.96 6.669999999999998 0 0 0
133 1 10.639999999999995 2.789999999999999 4.239999999999998 0 0 0
134 2 10.219998999999998 3.2999999999999994 4.939999999999999 0 0 0
135 2 9.940000999999995 2.629999999999999 3.6100000000000003 0 0 0
139 1 13.159999999999995 9.96 4.259999999999998 0 0 0
140 2 13.559998999999994 9.119999999999996 4.51 0 0 0
141 2 12.399999999999999 9.71 3.729999999999999 0 0 0
157 1 14.359999999999996 2.209999999999999 5.119999999999998 0 0 0
158 2 13.599999999999996 1.629999999999999 5.02 0 0 0
159 2 14.759998999999993 2.2399999999999998 4.249999999999998 0 0 0
163 1 16.970001 9.25 5.049999999999999 0 0 0
164 2 16.27 8.599999999999998 5.049999999999999 0 0 0
165 2 16.549999 10.059999999999997 5.37 0 0 0
181 1 16.52 4.2799999999999985 6.03 0 0 0
182 2 16.179999999999996 3.7499999999999987 6.749999999999999 0 0 0
183 2 16.91 5.049999999999999 6.449999999999998 0 0 0
187 1 19.089999999999996 11.389999999999997 6.159999999999998 0 0 0
188 2 19.68 10.86 5.629999999999998 0 0 0
189 2 18.48 11.759999999999996 5.52 0 0 0
205 1 15.799999999999997 2.4899999999999993 2.67 0 0 0
206 2 16.599999999999998 2.7199999999999998 3.149999999999999 0 0 0
207 2 15.639999999999997 3.2399999999999998 2.0999999999999996 0 0 0
211 1 18.389998999999992 9.629999999999997 2.6 0 0 0
212 2 19.23999999999999 9.739999999999998 3.03 0 0 0
213 2 17.77 9.5 3.329999999999999 0 0 0
229 1 13.089999999999996 1.1599999999999997 1.6599999999999995 0 0 0
230 2 12.949999999999996 1.9499999999999993 2.1799999999999997 0 0 0
231 2 13.389999 1.47 0.8099999999999998 0 0 0
235 1 15.700001 8.309999 1.6999999999999995 0 0 0
236 2 15.87 8.67 0.8299999999999997 0 0 0
237 2 14.899999999999997 7.789999999999998 1.59 0 0 0
253 1 14.969998999999994 4.549999999999999 0.88 0 0 0
254 2 15.499999999999996 5.13 0.3399999999999999 0 0 0
255 2 14.650001 3.869999999999999 0.28 0 0 0
259 1 17.479999999999997 11.63 0.8099999999999998 0 0 0
260 2 18.17 12.16 0.41 0 0 0
261 2 17.94999899999999 11.030001 1.39 0 0 0
277 1 17.219998999999994 6.05 2.6 0 0 0
278 2 16.519999999999992 5.66 3.1199999999999997 0 0 0
279 2 16.82 6.829999999999999 2.22 0 0 0
283 1 19.719998999999994 13.139999999999999 2.67 0 0 0
284 2 19.269999999999992 13.860001 2.24 0 0 0
285 2 20.220001 12.719999 1.9700000000000002 0 0 0
301 1 13.389999 6.759999999999999 1.7500000000000002 0 0 0
302 2 13.889999999999997 5.979999999999999 1.5199999999999998 0 0 0
303 2 12.929999999999996 6.530000000000001 2.559999999999999 0 0 0
307 1 15.900000999999996 13.8 1.8000000000000003 0 0 0
308 2 16.6 14.450001 1.8000000000000003 0 0 0
309 2 16.310001000000003 12.999999999999996 1.4899999999999995 0 0 0
325 1 11.23 4.53 0.7699999999999998 0 0 0
326 2 10.709999999999999 5.11 1.3199999999999996 0 0 0
327 2 11.46 5.049999999999998 0 0 0 0
331 1 13.780000999999999 11.669999999999996 0.6999999999999997 0 0 0
332 2 13.179998999999999 12.200000999999997 1.2199999999999998 0 0 0
333 2 14.39 11.289998999999998 1.33 0 0 0
349 1 11.889999999999997 6.339999999999999 4.12 0 0 0
350 2 11.749999999999996 7.039999999999999 4.759999999999998 0 0 0
351 2 12.189999999999998 5.599999999999998 4.65 0 0 0
355 1 14.429998999999999 13.369999999999996 4.1899999999999995 0 0 0
356 2 14.440000999999999 14.099999 4.81 0 0 0
357 2 14.979999999999999 13.660001 3.459999999999999 0 0 0
373 1 14.639999 7.73 5.19 0 0 0
374 2 14.789999999999996 6.939999999999999 4.68 0 0 0
375 2 14.340000000000002 7.409999999999998 6.04 0 0 0
379 1 17.230000000000004 14.759998999999999 5.269999999999998 0 0 0
380 2 16.690001 15.39 4.79 0 0 0
381 2 17.219998999999994 13.979999999999997 4.709999999999999 0 0 0
16 1 17.51 7.019999999999999 10.93 0 0 0
17 2 16.879998999999998 6.519999999999997 10.4 0 0 0
18 2 18.209998999999996 7.239999999999998 10.309999999999997 0 0 0
22 1 20.02 14.09 10.85 0 0 0
23 2 20.710001 14.419999999999996 10.290001 0 0 0
24 2 20.469998999999994 13.739999999999998 11.619998999999998 0 0 0
40 1 21.689998999999993 9.859999999999998 13.120000999999997 0 0 0
41 2 22.320001999999995 10.489999999999997 13.459998999999996 0 0 0
42 2 20.98999999999999 10.399999999999997 12.740000999999996 0 0 0
46 1 24.189998999999993 17.02 13.139999999999999 0 0 0
47 2 24.449998999999995 16.440001 12.429999999999996 0 0 0
48 2 25 17.439999 13.42 0 0 0
64 1 15.409999999999997 5.479999999999999 9.700000999999997 0 0 0
65 2 14.960000999999997 5.829999999999998 8.94 0 0 0
66 2 14.709998999999993 5.149999999999999 10.269999999999998 0 0 0
70 1 17.849999999999998 12.589998999999995 9.700000999999997 0 0 0
71 2 18.659999999999993 12.97 10.039998999999996 0 0 0
72 2 18.120001 11.75 9.32 0 0 0
88 1 11.149999999999995 2.549999999999999 7.38 0 0 0
89 2 10.959998999999996 3.2 8.05 0 0 0
90 2 11.92 2.089999999999999 7.72 0 0 0
94 1 13.679999999999996 9.629999999999997 7.439999999999999 0 0 0
95 2 14.379998999999996 9.17 7.909999999999999 0 0 0
96 2 14.14 10.290001 6.909999999999999 0 0 0
112 1 15.249999999999996 6.139999999999997 12.869998999999996 0 0 0
113 2 15.900000999999996 5.479999999999999 12.619999999999996 0 0 0
114 2 15.739999999999998 6.769999999999998 13.400000999999998 0 0 0
118 1 17.889999 13.219999999999999 12.819999999999999 0 0 0
119 2 18.209999 13.889999999999997 13.42 0 0 0
120 2 17.35999899999999 12.639999999999997 13.369999999999997 0 0 0
136 1 13.159999999999997 4.669999999999998 11.109999999999996 0 0 0
137 2 13.559998999999996 3.839999999999998 11.360000999999997 0 0 0
138 2 12.399999999999997 4.429999999999998 10.579999999999997 0 0 0
142 1 15.700000999999995 11.679999999999998 11.160000999999996 0 0 0
143 2 16.429999999999993 11.989999999999998 10.620000999999998 0 0 0
144 2 14.960000999999998 11.610001 10.559999 0 0 0
160 1 16.91 4.039999999999998 11.89 0 0 0
161 2 16.169999999999998 3.439999999999998 11.979999999999997 0 0 0
162 2 17.630000999999996 3.5799999999999974 12.319999999999997 0 0 0
166 1 19.529999 11.05 11.900001 0 0 0
167 2 18.83 10.4 11.91 0 0 0
168 2 19.119999 11.859999999999996 12.219999999999997 0 0 0
184 1 19.089999999999996 6.099999999999998 13.009999999999998 0 0 0
185 2 19.679999999999996 5.569999999999998 12.489999999999997 0 0 0
186 2 18.48 6.479999999999999 12.369999999999997 0 0 0
190 1 21.59 13.159999999999998 12.95 0 0 0
191 2 22.23999999999999 12.759999999999998 12.38 0 0 0
192 2 22.069999999999997 13.839998999999997 13.429999999999996 0 0 0
208 1 18.429999999999993 4.4 9.51 0 0 0
209 2 18.43 3.669999999999999 8.9 0 0 0
210 2 17.889998999999992 4.099999999999998 10.240001 0 0 0
214 1 21.019999999999992 11.389999999999997 9.51 0 0 0
215 2 20.450001 11.360001 10.269999999999998 0 0 0
216 2 20.639998999999992 12.09 8.96 0 0 0
232 1 15.719999999999997 3 8.47 0 0 0
233 2 15.54 3.829999999999999 8.9 0 0 0
234 2 14.910000999999994 2.4999999999999982 8.549999999999999 0 0 0
238 1 18.18 10.12 8.53 0 0 0
239 2 18.749999999999996 9.389999999999997 8.759999999999998 0 0 0
240 2 18.549999 10.47 7.72 0 0 0
256 1 17.560001 6.339999999999998 7.6099999999999985 0 0 0
257 2 17.040000999999993 7.009999999999998 8.04 0 0 0
258 2 17.790001 5.729999999999999 8.309999 0 0 0
262 1 20.099999999999998 13.429999999999998 7.739999999999999 0 0 0
263 2 20.629998999999994 14.01 7.19 0 0 0
264 2 19.780000999999995 12.76 7.139999999999998 0 0 0
280 1 19.659999999999997 7.889999999999998 9.459999999999997 0 0 0
281 2 20.360000999999993 8.049999999999997 10.089998999999999 0 0 0
282 2 20.079997999999993 7.379999999999997 8.77 0 0 0
286 1 22.290000999999997 14.940000000000001 9.519999999999996 0 0 0
287 2 21.830002 15.659999999999997 9.09 0 0 0
288 2 22.78000099999999 14.52 8.820001 0 0 0
304 1 15.939999999999996 8.479999999999997 8.58 0 0 0
305 2 15.539999999999994 8.450000999999999 9.45 0 0 0
306 2 16.699999 9.049999 8.679999 0 0 0
310 1 18.519999999999992 15.650000999999998 8.609999999999998 0 0 0
311 2 19.019999999999996 14.859999999999996 8.369999999999996 0 0 0
312 2 18.059999 15.419999999999998 9.41 0 0 0
328 1 13.839999 6.399999999999999 7.6099999999999985 0 0 0
329 2 13.190000999999999 6.809999999999998 8.179999999999996 0 0 0
330 2 13.349999999999998 5.729999999999999 7.129999999999997 0 0 0
334 1 16.280000999999995 13.459998999999998 7.619999999999997 0 0 0
335 2 16.970000999999996 13.219999999999997 8.229999999999999 0 0 0
336 2 16.739999999999995 13.869999999999996 6.89 0 0 0
352 1 14.459999999999999 8.139999999999999 10.969999999999997 0 0 0
353 2 14.309999 8.839999999999996 11.610000999999997 0 0 0
354 2 14.749999999999996 7.399999999999999 11.499999999999996 0 0 0
358 1 17.059999 15.279999999999998 11.030001 0 0 0
359 2 17.229999999999997 14.529999999999996 11.610000999999997 0 0 0
360 2 16.27 15.05 10.559999 0 0 0
376 1 17.229999999999993 9.47 12.12 0 0 0
377 2 17.219998999999994 8.690000999999997 11.57 0 0 0
378 2 16.69000099999999 10.110000999999999 11.649999999999999 0 0 0
382 1 19.769999999999996 16.610001 12.049999999999997 0 0 0
383 2 19.470000999999996 16.299999 12.899999999999997 0 0 0
384 2 19.92 15.819999999999999 11.53 0 0 0

Velocities

1 0 0 0
2 0 0 0
3 0 0 0
7 0 0 0
8 0 0 0
9 0 0 0
25 0 0 0
26 0 0 0
27 0 0 0
31 0 0 0
32 0 0 0
33 0 0 0
49 0 0 0
50 0 0 0
51 0 0 0
55 0 0 0
56 0 0 0
57 0 0 0
73 0 0 0
74 0 0 0
75 0 0 0
79 0 0 0
80 0 0 0
81 0 0 0
97 0 0 0
98 0 0 0
99 0 0 0
103 0 0 0
104 0 0 0
105 0 0 0
121 0 0 0
122 0 0 0
123 0 0 0
127 0 0 0
128 0 0 0
129 0 0 0
145 0 0 0
146 0 0 0
147 0 0 0
151 0 0 0
152 0 0 0
153 0 0 0
169 0 0 0
170 0 0 0
171 0 0 0
175 0 0 0
176 0 0 0
177 0 0 0
193 0 0 0
194 0 0 0
195 0 0 0
199 0 0 0
200 0 0 0
201 0 0 0
217 0 0 0
218 0 0 0
219 0 0 0
223 0 0 0
224 0 0 0
225 0 0 0
241 0 0 0
242 0 0 0
243 0 0 0
247 0 0 0
248 0 0 0
249 0 0 0
265 0 0 0
266 0 0 0
267 0 0 0
271 0 0 0
272 0 0 0
273 0 0 0
289 0 0 0
290 0 0 0
291 0 0 0
295 0 0 0
296 0 0 0
297 0 0 0
313 0 0 0
314 0 0 0
315 0 0 0
319 0 0 0
320 0 0 0
321 0 0 0
337 0 0 0
338 0 0 0
339 0 0 0
343 0 0 0
344 0 0 0
345 0 0 0
361 0 0 0
362 0 0 0
363 0 0 0
367 0 0 0
368 0 0 0
369 0 0 0
4 0 0 0
5 0 0 0
6 0 0 0
10 0 0 0
11 0 0 0
12 0 0 0
28 0 0 0
29 0 0 0
30 0 0 0
34 0 0 0
35 0 0 0
36 0 0 0
52 0 0 0
53 0 0 0
54 0 0 0
58 0 0 0
59 0 0 0
60 0 0 0
76 0 0 0
77 0 0 0
78 0 0 0
82 0 0 0
83 0 0 0
84 0 0 0
100 0 0 0
101 0 0 0
102 0 0 0
106 0 0 0
107 0 0 0
108 0 0 0
124 0 0 0
125 0 0 0
126 0 0 0
130 0 0 0
131 0 0 0
132 0 0 0
148 0 0 0
149 0 0 0
150 0 0 0
154 0 0 0
155 0 0 0
156 0 0 0
172 0 0 0
173 0 0 0
174 0 0 0
178 0 0 0
179 0 0 0
180 0 0 0
196 0 0 0
197 0 0 0
198 0 0 0
202 0 0 0
203 0 0 0
204 0 0 0
220 0 0 0
221 0 0 0
222 0 0 0
226 0 0 0
227 0 0 0
228 0 0 0
244 0 0 0
245 0 0 0
246 0 0 0
250 0 0 0
251 0 0 0
252 0 0 0
268 0 0 0
269 0 0 0
270 0 0 0
274 0 0 0
275 0 0 0
276 0 0 0
292 0 0 0
293 0 0 0
294 0 0 0
298 0 0 0
299 0 0 0
300 0 0 0
316 0 0 0
317 0 0 0
318 0 0 0
322 0 0 0
323 0 0 0
324 0 0 0
340 0 0 0
341 0 0 0
342 0 0 0
346 0 0 0
347 0 0 0
348 0 0 0
364 0 0 0
365 0 0 0
366 0 0 0
370 0 0 0
371 0 0 0
372 0 0 0
13 0 0 0
14 0 0 0
15 0 0 0
19 0 0 0
20 0 0 0
21 0 0 0
37 0 0 0
38 0 0 0
39 0 0 0
43 0 0 0
44 0 0 0
45 0 0 0
61 0 0 0
62 0 0 0
63 0 0 0
67 0 0 0
68 0 0 0
69 0 0 0
85 0 0 0
86 0 0 0
87 0 0 0
91 0 0 0
92 0 0 0
93 0 0 0
109 0 0 0
110 0 0 0
111 0 0 0
115 0 0 0
116 0 0 0
117 0 0 0
133 0 0 0
134 0 0 0
135 0 0 0
139 0 0 0
140 0 0 0
141 0 0 0
157 0 0 0
158 0 0 0
159 0 0 0
163 0 0 0
164 0 0 0
165 0 0 0
181 0 0 0
182 0 0 0
183 0 0 0
187 0 0 0
188 0 0 0
189 0 0 0
205 0 0 0
206 0 0 0
207 0 0 0
211 0 0 0
212 0 0 0
213 0 0 0
229 0 0 0
230 0 0 0
231 0 0 0
235 0 0 0
236 0 0 0
237 0 0 0
253 0 0 0
254 0 0 0
255 0 0 0
259 0 0 0
260 0 0 0
261 0 0 0
277 0 0 0
278 0 0 0
279 0 0 0
283 0 0 0
284 0 0 0
285 0 0 0
301 0 0 0
302 0 0 0
303 0 0 0
307 0 0 0
308 0 0 0
309 0 0 0
325 0 0 0
326 0 0 0
327 0 0 0
331 0 0 0
332 0 0 0
333 0 0 0
349 0 0 0
350 0 0 0
351 0 0 0
355 0 0 0
356 0 0 0
357 0 0 0
373 0 0 0
374 0 0 0
375 0 0 0
379 0 0 0
380 0 0 0
381 0 0 0
16 0 0 0
17 0 0 0
18 0 0 0
22 0 0 0
23 0 0 0
24 0 0 0
40 0 0 0
41 0 0 0
42 0 0 0
46 0 0 0
47 0 0 0
48 0 0 0
64 0 0 0
65 0 0 0
66 0 0 0
70 0 0 0
71 0 0 0
72 0 0 0
88 0 0 0
89 0 0 0
90 0 0 0
94 0 0 0
95 0 0 0
96 0 0 0
112 0 0 0
113 0 0 0
114 0 0 0
118 0 0 0
119 0 0 0
120 0 0 0
136 0 0 0
137 0 0 0
138 0 0 0
142 0 0 0
143 0 0 0
144 0 0 0
160 0 0 0
161 0 0 0
162 0 0 0
166 0 0 0
167 0 0 0
168 0 0 0
184 0 0 0
185 0 0 0
186 0 0 0
190 0 0 0
191 0 0 0
192 0 0 0
208 0 0 0
209 0 0 0
210 0 0 0
214 0 0 0
215 0 0 0
216 0 0 0
232 0 0 0
233 0 0 0
234 0 0 0
238 0 0 0
239 0 0 0
240 0 0 0
256 0 0 0
257 0 0 0
258 0 0 0
262 0 0 0
263 0 0 0
264 0 0 0
280 0 0 0
281 0 0 0
282 0 0 0
286 0 0 0
287 0 0 0
288 0 0 0
304 0 0 0
305 0 0 0
306 0 0 0
310 0 0 0
311 0 0 0
312 0 0 0
328 0 0 0
329 0 0 0
330 0 0 0
334 0 0 0
335 0 0 0
336 0 0 0
352 0 0 0
353 0 0 0
354 0 0 0
358 0 0 0
359 0 0 0
360 0 0 0
376 0 0 0
377 0 0 0
378 0 0 0
382 0 0 0
383 0 0 0
384 0 0 0
