LAMMPS data file via write_data, version 8 Apr 2021, timestep = 100000

768 atoms
2 atom types

0.098424528271443 29.844922415185046 xlo xhi
0.0016885527949870506 14.168544447205024 ylo yhi
0.08670128183831709 13.619021718161687 zlo zhi
5.1303317745946995 5.101735504178446 3.5394559116610904 xy xz yz

Masses

1 16
2 2

Atoms # atomic

1 1 7.363420049259168 5.218011507758385 4.049095345159368 0 0 0
2 2 7.051800288706243 6.0712986925229995 4.398287742979258 0 0 0
3 2 6.678475907166995 4.639800960728653 3.69527099856798 0 0 0
25 1 11.648354978491158 8.196494760306368 6.100617503977992 0 0 0
99 2 4.711053384931394 3.8350433688702106 6.679820428348672 0 0 0
338 2 4.417672848372502 6.84843186854842 4.772392892494605 0 0 0
123 2 2.9674399999296104 3.452247458097668 4.97728425121673 0 0 0
49 1 5.372654760645359 3.6577962830987865 2.8463895799506633 0 0 0
50 2 5.701693797658138 2.7798295516776954 2.673030337679169 0 0 0
51 2 4.774803590646143 3.7742347812254704 2.0619138438346267 0 0 0
73 1 1.338327956343618 0.7421306332778573 0.4663170785099137 0 0 0
339 2 3.6791384663104654 5.775650152295162 3.8082692500808992 0 0 0
368 2 4.465507769396306 1.4721810456342197 4.652236724125039 0 1 0
97 1 5.377153796477891 4.407868257638654 6.229496466284572 0 0 0
98 2 4.935927457292298 4.768098540765427 5.39740814284966 0 0 0
266 2 10.218768578012 6.047741841181477 3.3946368633832815 0 0 0
121 1 3.265015597772383 2.872535157288389 4.279697855088751 0 0 0
122 2 4.110494471092938 3.315471690929937 3.8829523508216317 0 0 0
145 1 6.976967392999517 2.3829579638011946 5.066882096737025 0 0 0
146 2 6.502857168173993 3.2214200124480836 5.454321812474105 0 0 0
147 2 7.559604656426574 2.551202907079562 4.31870755085173 0 0 0
169 1 9.261243598631806 4.415568225743112 6.2238708094611495 0 0 0
170 2 8.521539905167781 4.67985093368652 5.674039862145682 0 0 0
361 1 6.9740196974146444 7.963286543713115 5.064475396834271 0 0 0
193 1 8.543628022490413 2.6259214748802813 2.8510982108917466 0 0 0
195 2 8.281954050583492 3.3417323271547046 2.2462822330090058 0 0 0
217 1 5.619582276031275 1.28599250089287 1.6635389847644688 0 0 0
218 2 6.238528346399566 0.5366768649489524 1.9367546576453483 0 0 0
219 2 5.916433845265757 1.548914879765874 0.7502174920617619 0 0 0
224 2 8.783230215463341 7.4846960767691035 1.9774367159269437 0 0 0
241 1 7.5960013393992725 4.5284191474089095 1.0141589887371236 0 0 0
243 2 6.980199719361613 5.164228513151475 1.5132567998723716 0 0 0
265 1 9.485439621413875 5.890619314459705 2.779243892471809 0 0 0
194 2 8.651212498630507 1.8795861975044752 2.2395609230118145 0 0 0
267 2 8.704319034470075 5.522953046564451 3.3173159036570774 0 0 0
289 1 5.786760686751886 6.626817536108574 1.643391318682132 0 0 0
290 2 6.513081070630278 7.29973281415715 1.6492063904497893 0 0 0
291 2 5.455069089574846 6.452200037177943 2.5499834096951384 0 0 0
313 1 3.5841664423028896 4.498064163099455 0.865405860508504 0 0 0
363 2 7.923335350195936 8.253043534692356 5.181443141888826 0 0 0
315 2 3.085471526174631 5.240194555511653 1.2486959353179938 0 0 0
362 2 6.756416419578059 7.778287155388818 5.988831969049531 0 0 0
337 1 4.517260206830416 6.0173927446710005 4.222078353136463 0 0 0
242 2 8.363367951711158 5.105920225807247 0.8124182401318424 0 0 0
75 2 1.1286470815386367 1.3317742807402038 1.2330585347582452 0 0 0
27 2 11.106756960665168 7.8119463858040445 6.813595676738532 0 0 0
26 2 12.286775789516886 8.767620045397088 6.525761429106995 0 0 0
4 1 10.036256462083827 7.04941300580082 10.698643259305436 0 0 0
5 2 9.727953904218115 7.953008985884262 11.027406648203005 0 0 0
6 2 10.440230053181558 6.620010589304012 11.452778014834879 0 0 0
28 1 14.262433469541978 9.907824444588327 13.091846754698391 0 0 0
366 2 8.883853089892593 10.137507153927194 11.940836575592863 0 0 0
52 1 7.666226351453515 5.550794766306196 9.666691049875176 0 0 0
53 2 6.91588004070993 5.314993995503631 10.286033525600102 0 0 0
54 2 8.33340108178683 5.997696017986993 10.195207626225873 0 0 0
76 1 3.799587144260672 2.572597526299182 7.511408880906168 0 0 0
270 2 12.81785988811326 8.06497389105785 9.912378230707738 0 0 0
364 1 9.488605812725847 9.353427035872325 12.070467823655013 0 0 0
101 2 8.478676060273843 6.374156570884038 13.297298638441507 0 0 0
100 1 8.12167018800579 5.834701384895135 12.604602485598102 0 0 0
124 1 5.63932707950177 4.649478845939619 11.088610750139894 0 0 0
126 2 6.048161861041223 3.764391129224686 11.36148376635927 0 0 0
174 2 11.858123694280701 6.802426819336672 13.365518538871017 0 0 0
148 1 9.616989097676214 3.9626257796262316 11.593406883093033 0 0 0
149 2 9.180219262471402 4.749583359422139 12.096573255821392 0 0 0
150 2 10.378084458452568 3.55557053317347 12.136940215647554 0 0 0
172 1 11.396774859546088 6.16465062682402 12.798421108016692 0 0 0
173 2 12.088848138775157 5.6133044905863585 12.358332820660184 0 0 0
196 1 10.744245764563761 4.484025087432166 9.233483357915876 0 0 0
197 2 10.112169131679838 4.294758877134679 9.98084547833766 0 0 0
198 2 10.56326537898333 5.341223121668648 8.862472011620717 0 0 0
246 2 9.542291494399354 6.024536901178463 7.048322838332354 0 0 0
220 1 8.221072140882335 3.0728127531215836 8.60998355922128 0 0 0
221 2 8.079139025088871 3.957425239261581 9.056220153387498 0 0 0
222 2 7.354812258489749 2.6465041423487703 8.498112598674174 0 0 0
227 2 11.3924694082712 9.332643034846864 8.819968109060811 0 0 0
244 1 9.940926935913673 6.801600248009076 7.457549628492932 0 0 0
245 2 9.25141491477817 7.309428624077151 7.932973916455852 0 0 0
125 2 4.805032887987788 4.410713678107361 10.624151769097148 0 0 0
365 2 10.460308648219394 9.730128555427756 11.960780352695677 0 0 0
268 1 12.074076373631062 8.025241912392476 9.29310495975972 0 0 0
269 2 11.317339265602072 7.636987150504627 9.798214818848411 0 0 0
292 1 8.34870666796898 8.848892480101142 8.482275912121667 0 0 0
293 2 7.514416493604893 8.951338105751395 7.955764926072509 0 0 0
294 2 8.06520956054845 8.721891722094117 9.368144003979774 0 0 0
316 1 6.193022689759859 6.539571517250547 7.67395839925661 0 0 0
102 2 7.485943139606168 5.234171972082674 13.100136944586117 0 0 0
318 2 6.8672350093086365 6.179124578089884 8.304224120340676 0 0 0
341 2 6.9097806327168465 8.80229854548359 11.821365227595424 0 0 0
340 1 6.938223974302751 8.158376138867277 11.097121114329546 0 0 0
84 2 5.452879190041029 8.862396650181324 7.089575930919861 0 0 0
342 2 7.24906172474074 7.3553726962028065 11.452713787657498 0 0 0
317 2 5.792298295672986 5.767030622346746 7.237317884076514 0 0 0
89 2 10.820374987278894 3.2834406358136756 8.178071519506304 0 0 0
77 2 3.122559816794447 2.0935034522766185 7.089884964472184 0 0 0
171 2 8.899167027034892 3.7939618147469423 6.921508704825462 0 0 0
30 2 14.974211915049601 10.48040305932122 13.474614211835473 0 0 0
314 2 9.13078605196622 8.413241756674799 13.550931424917977 0 0 -1
13 1 14.72381763000677 5.05427239006181 4.088636904529299 0 0 0
14 2 14.1666265262619 4.478038208515255 3.6297174523387996 0 0 0
15 2 15.302237249899054 4.602516205684192 4.780498053200371 0 0 0
37 1 18.963880370146423 7.868262971530241 6.222134421572587 0 0 0
38 2 18.237834490440832 8.35348713133366 5.823084380900516 0 0 0
44 2 15.72392414450056 1.6657386482109848 6.0757437495193 0 1 0
61 1 12.957482925926717 3.5892634615273202 2.715180628347128 0 0 0
62 2 12.279129224746235 3.22986304177504 3.335467887795928 0 0 0
63 2 12.418193000160121 3.8923826691360115 2.011703144226529 0 0 0
85 1 8.7285413210883 0.8531486500343408 0.8688124208093005 0 0 0
373 1 14.53376260597498 7.542639060506185 5.0837221520261675 0 0 0
92 2 11.889614170802663 7.297006744588886 0.9925909440207453 0 0 0
109 1 12.8446427560999 4.26275537675017 6.283326415514041 0 0 0
350 2 11.752701877964313 6.965235157618724 4.781124111145707 0 0 0
111 2 13.487461942139676 3.7104385340083126 5.834530198382855 0 0 0
133 1 10.788949453951973 2.636533764627703 4.523686928716639 0 0 0
374 2 14.38395678880223 6.617035745132491 4.6938276945181565 0 0 0
254 2 15.524539167536153 5.102319246669352 0.48961592865355125 0 0 0
255 2 14.717522884609728 3.790155481481567 0.26419408578906567 0 0 0
157 1 14.313287257706193 2.0007710037999082 5.08880664514199 0 0 0
159 2 14.761801939175811 2.1162408593922915 4.220379592437764 0 0 0
181 1 16.533396467391142 4.459815148181104 6.065293723965157 0 0 0
110 2 12.173707151651513 3.651141070167542 6.661466899977 0 0 0
87 2 9.141734672176561 1.5552959547196978 0.27142127552301304 0 0 0
205 1 15.772316764872249 2.5592019220966935 2.5874877199060586 0 0 0
207 2 15.580373940842614 3.3341797025275914 1.9969284708844284 0 0 0
229 1 13.123233256301102 0.9816932328508319 1.7300799930083401 0 0 0
230 2 13.223217095030954 1.7051111088598223 2.362926811857386 0 0 0
231 2 13.267412438671759 1.5842761418662117 0.9037349705230259 0 0 0
253 1 14.865211660878574 4.49592970947152 0.9084947867335487 0 0 0
277 1 16.909342972846584 6.051938672226581 2.6525558198678785 0 0 0
278 2 16.281618145875452 5.680545257458358 3.236807354745524 0 0 0
279 2 16.42451767690166 6.839356137792741 2.346261587424215 0 0 0
301 1 13.259888402907379 6.633992001631709 1.8533321743209712 0 0 0
302 2 13.703755189778164 5.879877607443824 1.4310758452879404 0 0 0
303 2 12.890096434111145 6.228489079256486 2.6899857921071364 0 0 0
325 1 11.35682472431726 4.61550456616795 0.7352115927360547 0 0 0
326 2 10.63493446309276 5.114505333353105 1.209356101520356 0 0 0
375 2 14.546983101419436 7.301868011141662 6.040438577795139 0 0 0
349 1 11.754547457022593 6.102749018046022 4.33578123539129 0 0 0
182 2 16.27301349892784 3.830893437628341 6.782384099795524 0 0 0
351 2 12.057912947434255 5.510927715150445 5.041117293609528 0 0 0
183 2 16.489047993534985 5.265371804429332 6.573958903692262 0 0 0
206 2 16.620085296824513 2.554972446580383 3.0311505850663396 0 0 0
135 2 10.054645999334072 2.5420724519324693 3.8487901536355675 0 0 0
134 2 10.476014233174146 3.402254628584144 5.004885432325693 0 0 0
39 2 18.51091795185806 7.245181400096437 6.758340340899567 0 0 0
16 1 17.445740932997097 7.276415587908396 10.948904709439296 0 0 0
17 2 16.91663914572942 6.4902470604827895 10.603511568479059 0 0 0
18 2 18.26428971406723 7.338896741397433 10.352100225136736 0 0 0
40 1 21.500417180683225 9.880698798794844 13.280948585424175 0 0 0
42 2 20.66301755264557 10.300991535501947 12.886939299883407 0 0 0
330 2 13.528547663345032 5.596519865901328 7.203658630594568 0 0 0
376 1 17.013930501438082 9.475371329005583 12.127265069823459 0 0 0
64 1 15.391256412813293 5.532600002788523 9.863789155219507 0 0 0
65 2 15.103563410579332 6.001743493181739 9.073122862281801 0 0 0
66 2 14.56012190959726 5.232243173047693 10.220101463931497 0 0 0
88 1 11.143746767350512 2.5407801132026924 7.552607264477427 0 0 0
112 1 15.260847810915385 6.027804623867396 12.99504692983628 0 0 0
113 2 15.858850147086619 5.489394421301126 12.514348589872007 0 0 0
282 2 19.898168714785424 7.247527552744716 8.948465311194479 0 0 0
136 1 13.013101265548302 4.585962220698918 10.965042356392892 0 0 0
137 2 13.483109204810477 3.7127950041235915 11.163227283267307 0 0 0
377 2 17.117530829419113 8.710436334587275 11.4903843414885 0 0 0
160 1 16.739300750358467 3.8459829529432064 11.76774047485641 0 0 0
161 2 15.996576858279234 3.249747333542122 11.875641099278232 0 0 0
162 2 17.36201796426123 3.560608532502977 12.452106971110997 0 0 0
167 2 18.55086478096463 10.220567084364411 12.148983586479583 0 0 0
184 1 18.92643818017803 6.0727443228454066 12.890886680056827 0 0 0
185 2 19.543527605706096 5.509083437000589 12.381171902593536 0 0 0
186 2 18.3720567316596 6.552452899497875 12.28881961141792 0 0 0
208 1 18.515466849922024 4.316245155429733 9.64868513394911 0 0 0
138 2 12.310936984874346 4.544800885585317 10.261026867106409 0 0 0
210 2 17.73013867451114 4.047587425407145 10.114508388989623 0 0 0
232 1 15.677924540569686 2.919590785470819 8.495567573702214 0 0 0
233 2 15.428401846160588 3.62802998576863 9.060127013642518 0 0 0
234 2 14.845147379357515 2.3578423834033377 8.507109617745542 0 0 0
239 2 18.596142694088513 9.434606444276387 9.09629282625984 0 0 0
256 1 17.260958586828004 6.418035808174498 7.763152564944384 0 0 0
257 2 16.692152497558713 7.125382439715144 8.1509114602463 0 0 0
258 2 17.63099881627008 5.840019279792984 8.377122926166537 0 0 0
280 1 19.530596363167984 7.83652144742485 9.619384885976094 0 0 0
304 1 15.985065169899752 8.556829621527365 8.464708684619236 0 0 0
305 2 15.537927551621749 8.409953191976852 9.359273707015678 0 0 0
306 2 16.554552884306933 9.326744915598708 8.672465810364766 0 0 0
328 1 14.041439527328492 6.3638069787131695 7.622208773530861 0 0 0
329 2 13.348883831311692 6.925112836942258 8.02125586499112 0 0 0
281 2 20.389580284396054 7.999712452268912 10.148578021925461 0 0 0
352 1 14.383530148792978 8.241456089608016 10.845518296047334 0 0 0
353 2 14.449761913092741 8.928579604773267 11.520655166002255 0 0 0
354 2 14.62831143213751 7.452887623416501 11.295212981647472 0 0 0
41 2 22.141843787509973 10.582177436262585 13.589004074555897 0 0 0
209 2 18.643552508490774 3.776924518284857 8.843449220624738 0 0 0
327 2 16.681738509440493 8.63790199538801 13.472836799985533 0 0 -1
114 2 15.82163133379999 6.595944169215491 13.5724566623749 0 0 0
7 1 9.9954241405634 12.367776933652081 4.115034105709113 0 0 0
8 2 10.278308977352305 12.0732391916538 4.9880703502586705 0 0 0
9 2 9.915582423240858 13.323821838673288 4.235446521140836 0 0 0
31 1 13.990087926953644 15.072465028321528 6.274014666035232 0 0 0
33 2 13.159064401650852 15.66337868173763 6.0791465723318545 0 0 0
55 1 7.661946760863488 10.784285687431103 2.8399786054466434 0 0 0
56 2 7.921711967152494 9.878071375781712 2.645572864595037 0 0 0
57 2 8.363922285014242 11.317545397836339 3.1897485634592444 0 0 0
369 2 10.875271884102041 15.308824895919459 5.272976790470817 0 0 0
79 1 3.5204196836904735 7.970875022192414 0.7977238579684923 0 0 0
80 2 4.306799731054434 7.416393232322307 0.9525634611388064 0 0 0
74 2 7.072036696971701 14.236806739885425 0.8110354839679348 0 -1 0
103 1 7.739259841507702 11.25698589560434 5.770099576831374 0 0 0
105 2 7.469243158283515 11.85661517631447 5.058414269327485 0 0 0
367 1 9.96855867211368 14.916801832492604 5.175866055891818 0 0 0
127 1 5.411843142888979 9.805319022425623 4.1512189822874275 0 0 0
128 2 5.951035152299211 9.030529990500709 4.383893264548996 0 0 0
129 2 6.053801368610196 10.389232964513079 3.7358144924981853 0 0 0
151 1 9.551821866774263 9.123795967363801 4.724825843844397 0 0 0
152 2 9.184403797015733 9.892040472692035 5.227194087231452 0 0 0
153 2 10.37128661712113 8.87739885171932 5.190458016713746 0 0 0
345 2 7.807324180300525 13.80493752915345 3.547565648402702 0 0 0
175 1 11.516820792131421 11.579347116761218 6.0870854099716984 0 0 0
177 2 12.07781774637801 11.175685242501846 5.378906093643182 0 0 0
344 2 6.414575923161935 13.251548983254848 3.805557171609592 0 0 0
199 1 11.008256744636961 9.809087304773378 2.5309820498177613 0 0 0
200 2 10.762449321684693 10.538286761642965 1.9478266868458265 0 0 0
201 2 10.230430660137932 9.725040371772403 3.1465120474886334 0 0 0
223 1 8.072375303979248 8.118035930970843 1.7838986934262873 0 0 0
225 2 8.181560762423059 8.376498453301648 0.8281852877003915 0 0 0
32 2 14.594852749302946 15.650701048573136 6.8117846212393065 0 0 0
247 1 10.103608356321843 11.847803451483058 0.6830648324962764 0 0 0
104 2 6.943124740328926 10.75230018155536 6.049177677966867 0 0 0
343 1 7.20125043857128 13.517542596314298 4.3046698282669285 0 0 0
271 1 11.97392215479841 13.147845463053997 2.583512921715749 0 0 0
272 2 11.280463573704399 12.644966450153435 3.025481390837688 0 0 0
273 2 12.61414000891054 13.1326407590781 3.333450316828155 0 0 0
295 1 8.59810136574798 13.660010688293442 1.9195628569570877 0 0 0
296 2 9.114256015650845 12.994671550762423 1.4867599275159358 0 0 0
297 2 9.132948815370959 14.450311672539122 1.6709878654866068 0 0 0
319 1 6.353057444002361 11.403647394011667 0.5349952179487892 0 0 0
320 2 6.982219156116196 11.341310723112022 1.2646733887121788 0 0 0
248 2 10.815995931031217 12.35203296055485 0.30925778168997053 0 0 0
93 2 10.861409713109984 8.32613920502128 1.4092653616622164 0 0 0
323 2 9.149930196642247 13.727364118956721 6.689114359357998 0 0 0
176 2 11.233260129448778 10.992959088855983 6.768405233903659 0 0 0
249 2 9.775750331700147 11.099149617121045 0.10243489221735977 0 0 0
669 2 5.157485927197162 12.247214284838712 1.8032368376609411 1 0 0
429 2 7.023877516702979 14.782922989498092 5.605770996216209 1 0 0
10 1 12.395785743736614 14.0855992033875 10.93801140322522 0 0 0
11 2 13.206426492583832 14.124354243859614 10.3967950825936 0 0 0
12 2 11.773245351629289 13.418418973442474 10.565913215918478 0 0 0
29 2 13.465404978081638 10.47961864447351 13.027199647857717 0 0 0
34 1 16.92618212558401 17.144306027565296 13.073683310292015 0 0 0
321 2 11.79304666691232 15.521967192339314 13.434437403115837 0 0 -1
371 2 12.313758140591775 15.841393426954998 11.50069671659031 0 0 0
58 1 10.19101219066685 12.474993884198437 9.557475968052515 0 0 0
59 2 9.770948149256872 12.788111858045362 8.69301351426328 0 0 0
60 2 10.507103450337944 11.584829838425776 9.294344534904772 0 0 0
78 2 9.593129679831039 16.07182900272688 7.8080804788287566 0 -1 0
82 1 6.068354721387668 9.599686029014666 7.193882826379661 0 0 0
370 1 12.31043496932765 16.72038775062083 11.978319079856412 0 0 0
107 2 10.908743176801359 13.482443512394145 13.113970839635888 0 0 0
106 1 10.416820443873396 12.837921399546122 12.547902661773882 0 0 0
204 2 13.758308955200132 10.662008039021718 8.784415178881684 0 0 0
108 2 9.63927872855785 12.587874984364081 13.131250963766881 0 0 0
251 2 13.275926569299466 13.924497335897422 7.323081231932154 0 0 0
130 1 8.082635842368445 11.713937364559568 11.149662839511858 0 0 0
132 2 8.748221683112032 11.890775699012181 10.520269754692682 0 0 0
154 1 11.861112461651267 10.63502530999395 11.823161336990138 0 0 0
155 2 11.433943223774534 11.483536170397251 12.082147043448142 0 0 0
156 2 12.224545439717753 10.822848993940239 10.975855499065748 0 0 0
178 1 13.92186524062073 12.775545865817358 13.02144187433725 0 0 0
179 2 13.441819012643274 13.164555314260125 12.231851459807926 0 0 0
180 2 14.734121852597626 12.524445111724667 12.577133775326558 0 0 0
202 1 13.668404828654694 11.295344680983805 9.534338120528236 0 0 0
203 2 13.426769093336818 12.096470989644105 9.067218328977326 0 0 0
226 1 10.912216111114901 10.06008116152197 8.373970586477807 0 0 0
228 2 10.011222894186156 9.812748278830412 8.434097487224058 0 0 0
252 2 12.317044082699635 12.637753527837944 7.292804871752238 0 0 0
250 1 12.7618819161937 13.280470280956703 7.885980097940519 0 0 0
324 2 8.307084315174182 12.445163655329079 7.003300264826519 0 0 0
274 1 14.764118781428476 15.074026363050159 9.730123480515312 0 0 0
275 2 14.421928765787538 15.904594276856416 9.32994346189872 0 0 0
372 2 13.245719522812859 16.986964196640926 11.679965303847219 0 0 0
298 1 11.080282194412002 15.543327459889687 8.546010560686808 0 0 0
299 2 10.629485980017822 15.433696903461849 9.464092112219431 0 0 0
300 2 11.635138722958992 14.734815004627162 8.39596628170571 0 0 0
322 1 8.779037289131391 13.206852172156031 7.4220182336066225 0 0 0
348 2 8.78614277691225 15.365120343060976 10.572527075347375 0 0 0
346 1 9.711031921294989 15.412440298172108 10.884878191861201 0 0 0
347 2 9.94980200694462 14.609212319046405 11.377748951005293 0 0 0
276 2 15.12597583698509 14.590688641074099 8.98201069668897 0 0 0
431 2 9.65191141320924 16.338425186281267 12.445392570225204 1 0 0
672 2 7.936328869933457 14.456295133951368 8.617369896634745 1 0 0
19 1 17.239531113799234 12.351581928265128 4.192021767886042 0 0 0
20 2 18.117688844105885 12.348152366893816 3.7266190114997912 0 0 0
21 2 16.731312116304284 11.586930906855628 3.859454285105961 0 0 0
379 1 17.373555364569174 14.708957661987087 5.354239296578783 0 0 0
43 1 21.61300667547074 15.27094466159381 6.4126720600061065 0 0 0
381 2 17.197382467425594 13.93880595596289 4.802582741736091 0 0 0
67 1 15.535957483389076 10.685374352395337 2.863796556528589 0 0 0
68 2 15.61037221507623 9.776352983340976 2.447901879423963 0 0 0
69 2 14.643374859922902 10.620989251214782 3.4011312324934497 0 0 0
86 2 14.6129969907962 14.373761294328816 1.0941599849726198 0 -1 0
91 1 11.146706054960529 7.796247565405393 0.6120447195422697 0 0 0
380 2 16.678053537152913 15.446158691327318 5.050390904256112 0 0 0
115 1 15.074209577655191 11.456160867243788 5.965648037933778 0 0 0
116 2 14.641712487136004 12.054903218508603 5.292674452960161 0 0 0
356 2 14.332882993089127 14.10049617635347 4.86832528936746 0 0 0
139 1 13.102023465150525 10.05300405328806 4.1962617101024335 0 0 0
140 2 13.297194763025837 9.166585777431699 4.645350659740098 0 0 0
158 2 18.676900830641788 15.474751347070397 5.146200303486433 0 -1 0
163 1 16.76251572146515 9.085175241089074 5.216983982290407 0 0 0
164 2 15.984725957292907 8.509603973426318 5.078108478362227 0 0 0
165 2 16.33378584041143 9.912443714261098 5.453994519750934 0 0 0
187 1 18.708267686212643 11.317168043421313 6.369603681479739 0 0 0
188 2 19.000046618667817 10.667562478353785 5.71496768746655 0 0 0
189 2 17.899816385425737 11.693741610842585 5.9315093418461515 0 0 0
355 1 14.26750241203362 13.496341585484137 4.086960918551581 0 0 0
211 1 18.14751451318176 9.751839174002294 2.703878490057194 0 0 0
213 2 17.587983533286188 9.579485689071857 3.463654104848598 0 0 0
235 1 15.448875007374301 8.297345279748434 1.8514737624894249 0 0 0
236 2 15.461615888347167 8.590800479743894 0.9130461346768474 0 0 0
237 2 14.63232667108827 7.799185329998783 1.8527436453349546 0 0 0
260 2 18.03936170691201 12.042259530196773 0.33152058930801476 0 0 0
357 2 15.093004729575384 13.590939242959113 3.574711224218878 0 0 0
259 1 17.478308071557834 11.371014868532772 0.6804290336558712 0 0 0
117 2 15.40515776216105 12.153742951480105 6.586141613254168 0 0 0
261 2 17.79817500346881 10.990823165078034 1.5249925609777706 0 0 0
283 1 19.748700712744185 12.695846145063971 2.6351799228657473 0 0 0
284 2 19.377569553868213 13.521435966193112 2.2626444293657846 0 0 0
141 2 12.486279020438781 9.806744340978593 3.4483167507762276 0 0 0
307 1 15.8128210598216 13.554804197117212 1.621843547308771 0 0 0
308 2 16.65762797310046 13.986487465750288 1.5260805286419585 0 0 0
309 2 16.043160566887224 12.59319206646476 1.5402480754728847 0 0 0
331 1 13.835702143734967 11.498568847527299 0.8552051317246785 0 0 0
332 2 13.177399411800177 12.082485301612657 1.341663013726973 0 0 0
333 2 14.541147725962897 11.368066684230852 1.5246420940768117 0 0 0
212 2 19.084322463506002 9.72823084288325 2.990116493011429 0 0 0
96 2 13.925606472671575 10.368500673714115 6.648706593060407 0 0 0
465 2 18.17910806947178 8.53807267085857 1.581610067747494 0 0 0
22 1 20.095797705649744 14.171798235926383 10.528795587249434 0 0 0
23 2 20.958022310883642 14.278695402131483 9.999306735991212 0 0 0
24 2 20.411739057411832 13.83955013225439 11.385368710371461 0 0 0
36 2 17.303075094634373 16.501805115631445 12.430223954223331 0 0 0
46 1 24.046906418621468 16.888992262578384 13.12932292330864 0 0 0
70 1 17.910649311928513 12.593047749169516 9.771159282707936 0 0 0
71 2 18.756861496668154 13.07322203387781 9.890479229923267 0 0 0
72 2 18.057088511123883 11.697662412086427 9.305449399915952 0 0 0
384 2 19.770842436392986 15.790001471681324 11.467343571662653 0 0 0
90 2 16.99657936159433 16.21796340934419 7.9882281706453355 0 -1 0
94 1 13.655939926787058 9.669490471607983 7.2358433449756365 0 0 0
95 2 14.507195405312308 9.306604489977591 7.519495408199041 0 0 0
192 2 21.801323973618157 13.714805091910952 13.497085044899322 0 0 0
264 2 19.729425542439454 12.56510671085342 7.093934333704486 0 0 0
118 1 17.729016533634844 13.28712854531174 12.753479267262907 0 0 0
144 2 14.927042763857509 11.346550703376513 10.506682459429474 0 0 0
142 1 15.715982514911191 11.542029053816519 11.098997469538315 0 0 0
143 2 16.460277349057677 11.942794163985573 10.605601588567858 0 0 0
359 2 17.360488376699006 14.49486227905553 11.77563825820585 0 0 0
166 1 19.310773818901477 10.816881737013443 11.944270886930934 0 0 0
168 2 18.89253523022847 11.667289269674592 12.058637164765026 0 0 0
190 1 21.41880814074407 12.984225294367345 12.984893820796755 0 0 0
191 2 22.19718717535944 12.68108463681251 12.477625497180085 0 0 0
378 2 16.38825947300932 10.208672831014574 11.776610024183409 0 0 0
214 1 20.898001922912325 11.072836335187628 9.707613760552508 0 0 0
215 2 20.21238512293933 10.998926195192846 10.381450499096822 0 0 0
216 2 20.68275868568681 11.833654655343908 9.148097552600515 0 0 0
238 1 17.995423473118983 10.144454170780849 8.761939817456492 0 0 0
240 2 18.283656657507827 10.25217285299695 7.801916246547439 0 0 0
262 1 20.169749837825773 13.212509606476535 7.672556900022982 0 0 0
358 1 17.324498622634813 15.2044351782753 11.088584266770912 0 0 0
120 2 17.099286128195384 12.677445512848498 13.207463435282131 0 0 0
35 2 17.694659915885616 17.64350391402936 13.429536414388423 0 0 0
263 2 20.630185341402285 13.843976486964815 7.107780005463836 0 0 0
286 1 22.382536085361053 14.930539868252117 9.347863700938674 0 0 0
287 2 21.923252100609577 15.722942688787187 8.993783495366007 0 0 0
383 2 19.793256983768934 16.061896588517516 12.965434848689705 0 0 0
310 1 18.441877195799236 15.48982944560602 8.591525448632963 0 0 0
311 2 18.804724930257994 14.628926974063557 8.25040189960548 0 0 0
312 2 18.328087894809336 15.378405067554656 9.539193728113032 0 0 0
334 1 16.21518728157326 13.466216642077471 7.782806989863194 0 0 0
335 2 16.851527534596116 13.305617325739084 8.538938994882646 0 0 0
382 1 19.725576870205924 16.52239537466464 12.113947028750207 0 0 0
336 2 16.670625080859626 13.991379564765326 7.0465173484525465 0 0 0
48 2 24.76752248835254 17.497491775266177 13.46535165597596 0 0 0
360 2 16.394998179971743 15.208348595123837 10.716492880752426 0 0 0
119 2 18.20531105794267 13.70705971615303 13.450936341005963 0 0 0
515 2 22.092416649184823 11.489956415075707 10.700798891252424 0 0 0
467 2 20.761541726547836 9.927211950913016 8.121042231798514 0 0 0
385 1 22.236668992715966 5.218011507758385 4.049095345159368 0 0 0
386 2 21.925049232163044 6.0712986925229995 4.398287742979258 0 0 0
387 2 21.551724850623796 4.639800960728653 3.69527099856798 0 0 0
409 1 26.521603921947957 8.196494760306368 6.100617503977992 0 0 0
483 2 19.584302328388198 3.8350433688702106 6.679820428348672 0 0 0
722 2 19.2909217918293 6.84843186854842 4.772392892494605 0 0 0
507 2 17.84068894338641 3.452247458097668 4.97728425121673 0 0 0
433 1 20.24590370410216 3.6577962830987865 2.8463895799506633 0 0 0
434 2 20.574942741114942 2.7798295516776954 2.673030337679169 0 0 0
435 2 19.648052534102934 3.7742347812254704 2.0619138438346267 0 0 0
457 1 16.21157689980042 0.7421306332778573 0.4663170785099137 0 0 0
723 2 18.552387409767277 5.775650152295162 3.8082692500808992 0 0 0
752 2 19.33875671285311 1.4721810456342197 4.652236724125039 0 1 0
481 1 20.250402739934692 4.407868257638654 6.229496466284572 0 0 0
482 2 19.809176400749088 4.768098540765427 5.39740814284966 0 0 0
650 2 25.092017521468804 6.047741841181477 3.3946368633832815 0 0 0
505 1 18.138264541229184 2.872535157288389 4.279697855088751 0 0 0
506 2 18.98374341454974 3.315471690929937 3.8829523508216317 0 0 0
529 1 21.850216336456317 2.3829579638011946 5.066882096737025 0 0 0
530 2 21.37610611163079 3.2214200124480836 5.454321812474105 0 0 0
531 2 22.43285359988338 2.551202907079562 4.31870755085173 0 0 0
553 1 24.13449254208862 4.415568225743112 6.2238708094611495 0 0 0
554 2 23.394788848624582 4.67985093368652 5.674039862145682 0 0 0
745 1 21.84726864087145 7.963286543713115 5.064475396834271 0 0 0
577 1 23.41687696594722 2.6259214748802813 2.8510982108917466 0 0 0
579 2 23.155202994040295 3.3417323271547046 2.2462822330090058 0 0 0
601 1 20.492831219488075 1.28599250089287 1.6635389847644688 0 0 0
602 2 21.111777289856366 0.5366768649489524 1.9367546576453483 0 0 0
603 2 20.78968278872256 1.548914879765874 0.7502174920617619 0 0 0
608 2 23.65647915892014 7.4846960767691035 1.9774367159269437 0 0 0
625 1 22.469250282856073 4.5284191474089095 1.0141589887371236 0 0 0
627 2 21.853448662818426 5.164228513151475 1.5132567998723716 0 0 0
649 1 24.358688564870675 5.890619314459705 2.779243892471809 0 0 0
578 2 23.524461442087308 1.8795861975044752 2.2395609230118145 0 0 0
651 2 23.577567977926886 5.522953046564451 3.3173159036570774 0 0 0
673 1 20.660009630208688 6.626817536108574 1.643391318682132 0 0 0
674 2 21.386330014087083 7.29973281415715 1.6492063904497893 0 0 0
675 2 20.32831803303165 6.452200037177943 2.5499834096951384 0 0 0
697 1 18.457415385759692 4.498064163099455 0.865405860508504 0 0 0
747 2 22.796584293652735 8.253043534692356 5.181443141888826 0 0 0
699 2 17.95872046963143 5.240194555511653 1.2486959353179938 0 0 0
746 2 21.629665363034864 7.778287155388818 5.988831969049531 0 0 0
721 1 19.39050915028722 6.0173927446710005 4.222078353136463 0 0 0
626 2 23.23661689516796 5.105920225807247 0.8124182401318424 0 0 0
459 2 16.00189602499544 1.3317742807402038 1.2330585347582452 0 0 0
411 2 25.980005904121967 7.8119463858040445 6.813595676738532 0 0 0
410 2 27.160024732973678 8.767620045397088 6.525761429106995 0 0 0
388 1 24.909505405540624 7.04941300580082 10.698643259305436 0 0 0
389 2 24.601202847674916 7.953008985884262 11.027406648203005 0 0 0
390 2 25.31347899663836 6.620010589304012 11.452778014834879 0 0 0
412 1 29.13568241299878 9.907824444588327 13.091846754698391 0 0 0
750 2 23.757102033349383 10.137507153927194 11.940836575592863 0 0 0
436 1 22.539475294910318 5.550794766306196 9.666691049875176 0 0 0
437 2 21.789128984166727 5.314993995503631 10.286033525600102 0 0 0
438 2 23.206650025243633 5.997696017986993 10.195207626225873 0 0 0
460 1 18.672836087717467 2.572597526299182 7.511408880906168 0 0 0
654 2 27.691108831570062 8.06497389105785 9.912378230707738 0 0 0
748 1 24.361854756182648 9.353427035872325 12.070467823655013 0 0 0