LAMMPS data file via write_data, version 8 Apr 2021, timestep = 3451000

1008 atoms
2 atom types

0.13440038875671714 18.348999611244274 xlo xhi
0.1627938088245047 22.254406191174386 ylo yhi
0.12020161060251594 19.269980389390547 zlo zhi
-0.007144959364242768 -6.549099449626623 -0.10745898014901017 xy xz yz

Masses

1 16
2 2

Atoms # atomic

1 1 1.6503790295424856 4.506471234638402 2.4265782880173146 0 0 0
2 2 2.213864199675425 5.116893873162167 2.9494222734650366 0 0 0
3 2 1.4166376017927327 3.823271498295609 3.0870300391325842 0 0 0
4 1 3.2184763849071856 6.13369728800988 3.903584353457218 0 0 0
5 2 4.048113824879215 5.7785360349210695 4.302480992062691 0 0 0
6 2 3.3319657732391437 7.117703817740641 3.7465508351843053 0 0 0
9 2 0.4696683989362296 5.46564046848967 1.6304542492362768 0 0 0
10 1 1.105580326426539 2.9293174955865298 4.61757086931779 0 0 0
11 2 1.251149049774206 3.494780029338353 5.410238015863478 0 0 0
12 2 0.13657676411689487 2.791600443958137 4.636178313272063 0 0 0
14 2 1.8544570531405802 3.7272680101740896 0.9156898641043147 0 0 0
16 1 3.1717453425813336 1.2706922367128974 2.2509907396418956 0 0 0
18 2 2.2663663732069876 1.4803997831355606 2.558676251919444 0 0 0
19 1 0.5217619412047035 1.0227530942624279 2.519619895374732 0 0 0
24 2 -0.5698726558210471 1.0853299082392915 6.476496056351821 0 0 0
28 1 1.3547176634647728 2.145878350230497 8.848508092641138 0 0 0
30 2 1.1122761317087255 1.492780319139104 8.118123940599698 0 0 0
31 1 0.6408621858296593 6.550392595764982 5.010395694523358 0 0 0
32 2 1.5887994335560114 6.385768825137623 4.883031481393098 0 0 0
33 2 0.4430298224318554 7.181688203443057 4.2566190404811755 0 0 0
36 2 -0.4744712326494921 7.170973376988032 9.023095809540191 0 0 0
37 1 -1.5739631068327233 4.707857062295389 7.389111024806853 0 0 0
38 2 -0.6676323347938403 5.013364016725282 7.3392298704969035 0 0 0
39 2 -1.5340780324016825 4.097203506408755 8.126525770608067 0 0 0
40 1 1.4623367992234186 4.364821174824492 6.983262955084365 0 0 0
41 2 1.9452220994322609 5.196970326398359 7.159439962958474 0 0 0
42 2 1.510248374545819 3.7853260549613297 7.775706753167154 0 0 0
43 1 4.555696834690915 3.35487054727216 7.200258984749262 0 0 0
44 2 4.7850275834850144 3.9901459701650195 6.501579284471838 0 0 0
45 2 3.833120967438216 2.8276199472257373 6.770186184562751 0 0 0
46 1 3.195650580912046 1.4626071817689137 5.868321332406152 0 0 0
48 2 2.4271897590623572 1.9778747051999845 5.577966816160915 0 0 0
49 1 5.712789917588425 1.1145924054920402 8.86294270876882 0 0 0
50 2 5.370062358435297 1.8952119557305955 8.419472968255977 0 0 0
52 1 5.258660191736819 4.889945791196131 5.11099848897466 0 0 0
53 2 6.188007206132931 5.2205796596145895 4.935636800680296 0 0 0
54 2 5.211770031734139 4.194006971987706 4.45256246030815 0 0 0
57 2 4.28466506514883 4.118897490193417 8.560641127245312 0 0 0
58 1 3.0527198666459325 6.7339310376268715 7.316987964652683 0 0 0
59 2 4.017875366587264 6.559861093284208 7.217718148184251 0 0 0
60 2 3.047827470849027 7.20478033806075 8.179983772904666 0 0 0
61 1 5.848380262413068 7.0801980743260655 7.094436931526681 0 0 0
62 2 6.0800309198461635 7.644380939893335 7.851568077573087 0 0 0
63 2 6.301062350491805 6.196967548106608 7.240610403395147 0 0 0
64 1 6.06758391042906 7.134161726748958 2.537534002368706 0 0 0
65 2 6.747124784826597 6.553068073475148 2.975605387926816 0 0 0
66 2 5.758538650583181 7.692107080709801 3.2655259203415836 0 0 0
67 1 7.667470225532383 5.381127246224083 4.034228229741921 0 0 0
68 2 7.792211400629743 4.581128304681692 3.465370425367052 0 0 0
69 2 8.48316256133632 5.693625519279075 4.432119006935923 0 0 0
70 1 4.692339024437353 5.414568943721882 0.878873158288735 0 0 0
71 2 5.018400721467473 6.1902013055742575 1.40169377271269 0 0 0
75 2 4.708763324033373 1.2331331640156524 4.946352807827969 0 0 0
79 1 7.420568707557368 3.0563507765158997 2.403671420053339 0 0 0
80 2 7.157379343479093 3.4294515463286035 1.5156275917111441 0 0 0
81 2 6.568420290414802 2.7374148963135965 2.770775919262773 0 0 0
82 1 4.670350581220499 3.3940903444934825 2.829127892332161 0 0 0
83 2 4.599274076550476 4.0677701134657545 2.1183223837639504 0 0 0
84 2 4.0701588191230655 2.716504378452533 2.5495686414775496 0 0 0
91 1 9.550695083472514 5.901133725076544 1.0006611681928332 0 0 0
104 2 8.513581453622239 1.5014906468570801 2.5254752358397545 0 0 0
109 1 7.415375285398988 2.579470083173771 5.971585117794275 0 0 0
110 2 6.717412186424915 2.0853437959310472 5.504412352780438 0 0 0
111 2 7.090178960548758 3.2191638663150908 6.622210285401707 0 0 0
121 1 7.21418730717703 4.586890962232035 7.569422711839163 0 0 0
123 2 7.41640246884231 4.12734461156971 8.420095062320895 0 0 0
153 2 -0.7539227447550425 5.723184086825121 4.614466770625678 0 0 0
180 2 -0.17972239093165812 10.112581275553623 5.536263058161092 0 0 0
184 1 3.058378826415564 8.316886688729301 2.4895002371704607 0 0 0
185 2 3.194919689017618 7.881150133761581 1.6451139272622193 0 0 0
186 2 2.0849689031534377 8.48106376196198 2.538501320101641 0 0 0
187 1 0.16535557854825772 8.277860348155565 2.7866359301142833 0 0 0
189 2 0.06655570988919123 7.598674472658275 2.0580825075176556 0 0 0
190 1 0.022888713851661843 7.928931392951132 7.425149760684328 0 0 0
191 2 0.45231292277085067 7.342671138768066 6.739886178640628 0 0 0
192 2 -0.6171882696051535 8.422104863489054 6.894483583659564 0 0 0
196 1 1.4256898469423938 9.863990928656241 8.669807085670024 0 0 0
198 2 1.0063924922344383 9.222510971307056 8.036383736742218 0 0 0
214 1 2.9018383743059286 8.884577421104835 5.677197780813291 0 0 0
215 2 2.7875899717629236 8.215092059838106 6.383873970771299 0 0 0
216 2 2.082773095047857 9.254836340485108 5.322419676653499 0 0 0
217 1 5.757330502613885 9.108812336777474 8.941682870967282 0 0 0
218 2 5.305208111771581 9.621615409688122 8.234970226173603 0 0 0
241 1 5.546170781174561 8.624561445245435 4.907862595638696 0 0 0
242 2 5.776286738647422 8.069036548923199 5.6789563188075105 0 0 0
243 2 4.610190290373441 8.937688422198903 4.9315827028854695 0 0 0
245 2 6.416150577220835 7.7411872958216845 0.9650548823308087 0 0 0
247 1 7.779368361372052 10.50322252059698 2.1898129038952225 0 0 0
249 2 6.855102805602162 10.403506497913433 2.4950903446105386 0 0 0
250 1 5.053610242831141 10.329623182455038 2.4935087692880495 0 0 0
252 2 4.427715068273934 9.543896622527928 2.453278265620651 0 0 0
272 2 8.734022728641358 8.943488720552132 2.474269682137165 0 0 0
273 2 9.287887131018522 7.4525125466160675 2.0331803194250013 0 0 0
277 1 7.588542428517811 9.984065119814575 5.8882283698025875 0 0 0
278 2 6.803811552987736 9.616331540914757 5.441265387854085 0 0 0
93 2 9.928353664261902 5.279744491794433 1.6324314865475638 0 0 0
271 1 9.355528681276873 8.204386246727736 2.7020318796811 0 0 0
96 2 9.127111903881937 3.2102124182089717 5.296781389590902 0 0 0
98 2 11.033291166611713 3.3569827442938105 1.2061075901653842 0 0 0
108 2 8.316335197578589 1.1918300585854684 6.824108974700907 0 0 0
117 2 9.539316581324307 7.307705613906589 4.325924261365407 0 0 0
122 2 8.102042075232603 4.908217825486174 7.30003540295567 0 0 0
264 2 9.009638547233465 10.230542421612215 5.111140044199787 0 0 0
276 2 8.507592081736899 8.826216839817794 6.956145568238493 0 0 0
115 1 9.901557227078538 6.776342747166371 5.0374729069596125 0 0 0
213 2 3.6705577079454854 10.080262466061185 7.000397225755402 0 0 0
103 1 9.234029719809897 0.8939044085094585 2.733339625497494 0 0 0
275 2 9.342131621354401 7.642049807519154 6.450516781100107 0 0 0
274 1 9.220792511306897 8.222547594798916 7.248034295483694 0 0 0
87 2 10.420299647427584 3.897270973003913 3.5639662949739472 0 0 0
94 1 9.998022326474626 3.475601356474951 4.966136070679082 0 0 0
85 1 10.762684241331648 4.167114264467704 2.6532968509832506 0 0 0
120 2 8.960285473716016 7.260052939951971 8.913417183040552 0 0 0
95 2 10.353173229313628 4.172242060558894 5.671403994511761 0 0 0
178 1 0.7202912342895448 10.394445418818618 5.306691909537297 0 0 0
102 2 11.71615040425178 1.2564038943551894 2.4591708331064237 0 0 0
270 2 11.093637748842186 8.415286810459115 2.376095960285613 0 0 0
116 2 10.82853406468222 6.668449168382007 4.723635340020125 0 0 0
86 2 11.406634248351638 4.852894864641696 2.92342754704013 0 0 0
124 1 10.320772771580092 4.965094770152104 7.322948149298441 0 0 0
73 1 5.606160168642623 0.904558634627657 4.905907028671057 0 0 0
47 2 2.878814438591667 0.6113519339929198 6.257104034977436 0 0 0
279 2 7.336841103271061 10.667379845248082 6.537565052662229 0 0 0
20 2 -0.2845672777739694 1.6336103837529174 2.6495639670124436 0 0 0
262 1 9.917594072055541 10.50172677996747 4.772718602149334 0 0 0
114 2 10.119678871735479 1.9341365373434416 7.751653679580735 0 0 0
282 2 10.086936847590813 9.229404021662623 8.262623132989255 0 0 0
126 2 10.583806733490414 4.202473770110872 7.862673806881291 0 0 0
300 2 11.386408005053157 9.369047867317635 5.203043465628887 0 0 0
269 2 12.068373181936774 7.807983645660194 1.2264801260968032 0 0 0
132 2 11.21303430369923 2.0621639924334647 5.3587768149660695 0 0 0
268 1 12.019502086131816 8.306164728524399 2.0722905948453167 0 0 0
125 2 10.890667263237576 5.716125769817789 7.5114322083239164 0 0 0
112 1 10.553753397249041 2.5441506327886936 8.424244839740798 0 0 0
100 1 12.579926319747432 0.9185436645562041 2.4844069800852453 0 0 0
280 1 10.442619823666334 9.960424129776994 8.800547673797368 0 0 0
88 1 12.178024182145373 6.13533184366339 3.87886557890764 0 0 0
7 1 0.04322102364409788 6.120513694148321 0.9577728487679653 0 0 0
188 2 -0.5331189220668728 8.864934526188573 2.5746860637803306 0 0 0
298 1 12.109930693820305 8.961904257216146 5.716286253498567 0 0 0
90 2 12.31076685383414 6.905811497521081 3.26053903286352 0 0 0
131 2 11.710068538379183 0.9242991707751532 6.129217884282187 0 0 0
130 1 12.043667485943752 1.6886700727418462 5.672951050172752 0 0 0
299 2 11.759878217230131 8.220907666029934 6.255935588753536 0 0 0
154 1 14.142891464637763 5.247675524696143 1.1232578757256622 0 0 0
336 2 13.063184919148787 9.546097836640396 2.480871100026098 0 0 0
168 2 13.512668047594971 2.414112745757718 2.754031551117665 0 0 0
167 2 13.992521723122183 3.7712752151559767 2.1168089277286213 0 0 0
89 2 13.087705313081106 5.780689325211049 4.160436924793696 0 0 0
155 2 14.259175746795366 5.960846623779205 1.7744145009790724 0 0 0
77 2 6.460640597447441 0.6902734144526882 1.0090656926788233 0 0 0
539 2 1.662961286029439 6.407722163477495 0.3015737142970253 0 0 0
219 2 6.361775838177826 9.785056790138798 9.273182844683081 0 0 0
193 1 -1.6710408315352467 9.710560095733813 6.0178795429962015 0 0 0
92 2 8.821475499332099 5.481829884785813 0.5247336142552758 0 0 0
51 2 6.612712199796745 1.4428092674270787 9.17978321158692 0 0 0
25 1 -1.5215711053558731 2.22724043087535 5.501829303456696 0 0 0
106 1 8.998785872099118 0.6259008663125294 7.211219651862908 0 0 0
56 2 3.2886575254805632 4.786160599297271 9.564191249230559 0 0 0
29 2 2.004772208022818 1.6765060788896178 9.404905355907669 0 0 0
22 1 0.12683650993723894 0.5905884321982446 6.985959120741935 0 0 0
72 2 3.825532116361498 5.82960852326686 0.5727590281410395 0 0 0
101 2 12.604344148226515 0.39980424841678364 1.6778701573267365 0 0 0
139 1 13.18677970906267 4.6812098196457015 9.534290820938253 0 0 0
211 1 4.400546122449821 10.688955724093393 7.263445013980466 0 0 0
623 2 10.98748865599161 6.4088370725523465 0.36678171505275614 0 0 0
183 2 2.815038473433797 10.197330754473692 0.373971572764901 0 0 1
105 2 9.162169403859057 0.31189656481806355 1.9415078207182803 0 0 0
644 2 15.365319811567472 4.629628547600209 0.37459481278385465 0 0 0
771 2 8.844361197112505 10.211911516405701 9.52360190810709 0 0 0
147 2 15.260851790522857 5.958434303716064 7.102854966280503 0 0 0
750 2 4.289663421621975 8.447247447731698 9.675849959318155 0 0 0
179 2 0.9034798079845032 11.147637677567637 5.907610611627821 0 0 0
266 2 10.77128472164078 11.059632053347148 1.0181204538506885 0 0 0
157 1 14.419298512170704 0.8384099084773412 4.939005546630308 0 0 0
113 2 11.327187447442357 2.050214260892626 8.724873881702218 0 0 0
248 2 7.7261304883475335 10.823308567307858 1.2589720371147153 0 0 0
643 1 16.335912376500428 4.423819075058539 0.13041251842886598 0 0 1
326 2 14.776072531060105 7.612012025966423 5.7313217736585615 0 0 0
97 1 10.99545894903791 3.012353523576907 0.26765620784286864 0 0 0
74 2 5.630837519705356 0.15980664704751182 5.523067559004766 0 0 0
159 2 13.576607997740956 1.1897403260603536 5.134585790407131 0 0 0
327 2 13.79218774577257 8.667307662082688 5.291685002287739 0 0 0
142 1 11.958709666638377 7.019302619405881 7.27895156255717 0 0 0
297 2 12.990939589329782 10.138100519835781 6.836142878755876 0 0 0
143 2 12.80684952551432 6.714144976331709 6.960846831820856 0 0 0
138 2 13.96759862138395 3.951107439932194 4.14599604128489 0 0 0
166 1 14.219433387031927 3.081818198587019 2.7320346118657057 0 0 0
144 2 12.18481007749772 7.394483398366225 8.214944345635029 0 0 0
334 1 13.727400477489924 10.186954225306295 2.8045992921676213 0 0 0
129 2 12.829528825822726 2.7782173745062964 6.823720724292755 0 0 0
329 2 15.417007868351636 7.809473189389816 1.08016578445516 0 0 0
156 2 13.365364776633728 5.542025485865496 0.6644079698695498 0 0 0
335 2 13.537377214769636 10.919100793272296 2.1877225785467087 0 0 0
136 1 14.16744712443483 4.606411289523204 4.831641874903905 0 0 0
295 1 13.525441717869905 10.742582617646775 7.410279733236548 0 0 0
17 2 3.0831744079966197 0.8131727099554109 1.3999281873881757 0 0 0
560 2 6.303716011841676 5.139363442082231 0.13680512103728712 0 0 0
197 2 1.982741071156045 9.355223343198285 9.279797725129162 0 0 0
128 2 13.898177470470138 3.782529489042096 6.446433236209303 0 0 0
135 2 -2.3617801328917687 2.036929102747702 9.015647691149132 0 0 0
622 1 11.912749077556338 6.7059539830980075 0.1562707572427731 0 0 1
303 2 -2.398547765629203 9.341143565848162 9.305916599442249 0 0 0
182 2 1.6324890130160215 10.7303001553392 1.2748889330301298 0 0 0
148 1 15.164041891437787 7.162101129382833 2.64714996405751 0 0 0
150 2 14.85680359909033 7.52327387711303 3.4707858184344236 0 0 0
603 2 8.84090255928295 2.547597925850013 9.410683849025586 0 0 0
146 2 15.120391218491992 7.43561457342694 7.733275096299497 0 0 0
162 2 16.549414858584253 1.0917483293564558 0.22707056835249825 0 0 1
194 2 15.808178740247397 9.17227087522422 5.655895724872947 0 0 0
328 1 15.493346487499736 8.151354303880252 0.15641326732592775 0 0 0
27 2 -1.6802358564907494 3.0225610695170224 5.974105197121269 0 0 0
107 2 9.541666601347973 0.22250164416527266 6.475193874213319 0 1 0
127 1 13.508884840954767 3.3454994915234484 7.23480876030073 0 0 0
333 2 15.607232948820121 10.016860175982712 2.5056871968141463 0 0 0
141 2 13.251293620170024 4.377426941157138 8.593911433732847 0 0 0
325 1 14.649562983298885 8.33627986050063 5.05946576479608 0 0 0
281 2 11.323505178219195 9.629986531616543 9.169447821327774 0 0 0
601 1 7.869154961271996 2.56234934722391 9.595121550860842 0 0 0
55 1 4.219958675843674 4.684582511387138 9.389446130857994 0 0 0
687 2 -0.08593991863246397 9.971056519772622 9.616873681749825 0 0 0
181 1 1.9011997664787554 10.471145980220207 0.35266638380798715 0 0 0
160 1 15.609292680419934 0.8782522766397498 0.38708319136598685 0 0 0
163 1 16.976510788067813 3.179379270180609 2.489713994409364 0 0 0
517 1 -1.1662924152510021 3.007191207448836 9.425272754443965 0 0 0
26 2 15.844483892742645 1.800353444094369 5.272032735456919 0 0 0
582 2 4.209799534708598 0.8116224060150186 9.557995149691871 0 0 0
519 2 -0.20071769620940286 2.683876896447096 9.25176727161441 0 0 0
151 1 16.653792850859958 5.3604054751371715 4.152343809249087 0 0 0
8 2 17.44883614466872 5.770264005413127 0.48397847487507556 0 0 0
161 2 15.503771210088718 0.2920917975939109 1.2135797356558937 0 0 0
137 2 15.061224756289292 4.953080681676252 4.682934130001078 0 0 0
145 1 14.709650023926711 6.791356752171337 7.106390924403199 0 0 0
664 1 12.560554144306927 0.9724790661392373 9.484487196103995 0 0 0
164 2 16.952584985632907 3.6152233771853015 1.590500658324831 0 0 0
195 2 -1.9996155663953517 10.413951937505374 6.605021301309456 0 0 0
302 2 14.666220810951007 9.576645642840301 8.252491104771043 0 0 0
152 2 16.935214498822678 4.595050953870193 3.6858087013627685 0 0 0
165 2 16.0553436495287 2.8628452053754523 2.5610328234033286 0 0 0
134 2 14.678605023601959 2.1778781285517255 7.945018260012192 0 0 0
331 1 16.583345961495127 10.15213166471582 2.393863399031819 0 0 0
332 2 16.645355948578416 10.648309411864203 1.5749318101611596 0 0 0
149 2 15.859245955522214 6.502582497743295 2.9613467234832673 0 0 0
301 1 15.071828952763935 8.900738116845364 8.77220413626889 0 0 0
133 1 15.074990513705478 1.560688575195269 8.617238229556351 0 0 0
171 2 0.9769498494615466 10.794362237217024 3.4890051048250577 0 0 0
21 2 0.18822542548584612 0.2765863234337809 2.025216874779646 0 0 0
666 2 13.50155416515994 1.1773659136407513 9.491040684254965 0 0 0
834 2 13.542324263594866 8.421411334722738 9.652139513469965 0 0 0
212 2 4.713845344466193 11.10085617085296 6.433330373410233 0 0 0
251 2 4.679115226267253 11.017207768435762 1.8958675594608811 0 0 0
158 2 14.59287933130094 0.1759183605838851 5.627976237140605 0 0 0
246 2 7.609252766382689 8.34864423038502 0.1571274920041601 0 0 1
119 2 7.743966772976453 6.744868570755354 9.683065693235113 0 0 0
770 2 7.900430498635745 10.88921173505714 10.716533877263926 0 0 0
805 1 11.697617483080453 8.696605162392316 18.220445401917935 0 0 0
607 1 6.341423901302955 0.7712189817492908 12.437749660821343 0 0 0
526 1 -3.435160456622812 0.3974976205272531 16.55005681174775 0 0 0
635 2 8.506805359487496 0.737021736088174 15.81419922633577 0 0 0
799 1 10.35732250829363 10.55910202532563 16.88013652168843 0 0 0
831 2 10.677675111077848 8.37608526359957 14.758512113430172 0 0 0
723 2 3.156717722839705 9.48744778897653 18.742202196868305 0 0 0
617 2 7.7892578793596385 1.987204341987314 18.949757194677293 0 0 0
832 1 12.584889105915014 8.222721740645456 9.757311327119854 0 0 0
701 2 -1.091363709143393 9.359569328424458 18.75234355299252 0 0 0
13 1 -4.77602011821946 3.299090139654802 19.157191119634014 0 0 -1
581 2 3.164816853364024 0.43545175036881656 10.705116032435875 0 0 0
780 2 4.851905636293661 8.202127491167646 16.5294641223013 0 0 0
597 2 6.45076950245091 5.383037597477268 10.934016881557579 0 0 0
766 1 6.920401603273456 10.30827968885436 14.823389687493478 0 0 0
609 2 6.267852532076512 0.10017512780615744 11.749338964706322 0 0 0
555 2 3.0935387019476748 2.0824657377891977 18.94061376511791 0 0 0
665 2 12.452121422593015 0.49885135671833325 10.311863844786352 0 0 0
802 1 9.001488102513138 8.90877492332912 15.436695820013123 0 0 0
682 1 -2.439664364164228 10.291387805443211 14.4347448396456 0 0 0
807 2 -5.905351619515777 9.145173035313494 18.814426542008064 0 0 0
596 2 5.292275044917891 5.855686147276361 9.988756687468559 0 0 0
806 2 11.20861574659496 9.455571718637433 17.80650665552472 0 0 0
990 2 11.758055261593647 0.1755933612050495 12.586811078608912 0 0 0
610 1 5.501164715607806 0.5956763985329927 16.966274913702172 0 0 0
836 2 13.788412568231099 10.470180608558472 11.314660274716685 0 0 0
748 1 3.341452600523281 8.115126768493042 9.722259103408675 0 0 0
804 2 8.249349987986497 9.168438849585316 14.900674167456529 0 0 0
505 1 -1.418816602201877 4.4062726336662745 12.11091434339553 0 0 0
506 2 -0.8740041032486532 5.1851130229072515 12.414246513244807 0 0 0
507 2 -1.6267587219466852 3.8171147220268904 12.867882748910352 0 0 0
508 1 0.013886825818585621 6.1516068150336825 13.735998017337865 0 0 0
509 2 0.8704598143108775 5.6839644804526035 14.00395306102134 0 0 0
510 2 0.24900922540477383 6.990775397644599 13.300924336399738 0 0 0
511 1 -3.1014274225035896 5.921437343016539 10.515556972142578 0 0 0
661 1 11.343797957912022 0.62258428402086 14.296067474063179 0 0 0
513 2 -2.676217514523775 5.30345254034671 11.124117632129526 0 0 0
514 1 -2.282045692720781 3.065467282336584 14.237615226135102 0 0 0
515 2 -2.1284890784179673 3.6118632482404753 15.06413083366666 0 0 0
516 2 -3.2093799984853204 2.764338852198719 14.093944155572768 0 0 0
779 2 5.904071113108706 7.205026811942957 15.982811191911392 0 0 0
518 2 -1.0892302026466112 3.2788908294675507 10.337260241387815 0 0 0
605 2 8.912351039627188 0.4356091491155223 11.103227364159983 0 0 0
520 1 -0.16687379702437824 1.2205708885025948 11.76192100802771 0 0 0
522 2 -1.1017672194496337 1.3763453013569962 11.979394449307819 0 0 0
523 1 -2.851108227048311 0.9017556439731205 12.074419261486915 0 0 0
524 2 -3.4031749828224442 1.7105289668010462 11.839474425409186 0 0 0
829 1 11.532111646440345 7.91817468046402 14.659495572982786 0 0 0
528 2 -4.017319334038223 1.0136892786818172 16.10941177913781 0 0 0
529 1 -4.715443080106685 2.301081236300217 15.104658669958365 0 0 0
530 2 12.674298544178836 1.8921013600202108 14.74230919179877 0 0 0
531 2 -4.9109711621657945 3.165815832076613 15.521106511777973 0 0 0
532 1 -2.1746527920971364 2.1539985778869224 18.2675434697144 0 0 0
714 2 -1.9891855107490881 11.072077925690527 17.374895397010356 0 0 0
534 2 -2.661134889401169 1.514219490038966 17.720656614271835 0 0 0
535 1 -2.6098219013602755 6.592002888699965 14.541375659182089 0 0 0
536 2 -1.6957506848680546 6.205052440409123 14.574981123428504 0 0 0
537 2 -2.7275341587691964 7.098679211948753 13.669215677927586 0 0 0
525 2 -3.1276930317472527 0.11078105266983479 11.525788196872313 0 0 0
637 1 11.522356182634633 1.4854283506903925 18.409292133844023 0 0 0
540 2 -4.080566457148013 7.079091147817957 18.346882748623226 0 0 0
541 1 -4.908711417537323 4.507335548126768 16.72187465025312 0 0 0
542 2 -3.9579233665120985 4.633720596510592 16.591739545956216 0 0 0
543 2 -5.013041996575349 4.077056496953077 17.574517006184788 0 0 0
544 1 -2.1757703752925828 4.298803462932157 16.770088830731446 0 0 0
545 2 -1.5954690923366959 5.082464265776217 16.96046975361868 0 0 0
546 2 -2.0661263311774896 3.6278116249933254 17.43966550149787 0 0 0
547 1 1.155243116900471 3.4608714963765292 16.734478839934813 0 0 0
548 2 1.723608430713465 3.9086906538181023 16.106847043241217 0 0 0
549 2 0.6279003197380761 2.8389042905123305 16.21167982094996 0 0 0
550 1 -0.2048766444077645 1.5328686542735876 15.101822515489548 0 0 0
782 2 3.3483673167508026 9.230871214980294 15.27508194590607 0 0 0
552 2 -0.9675227257527996 1.7573269279080432 14.551982954071791 0 0 0
553 1 2.283330342115457 1.7057302170749347 18.50332878162795 0 0 0
554 2 2.0964161909694043 2.4294359057096506 17.86433629825846 0 0 0
801 2 9.68301209809902 10.10266232876291 16.352768974556977 0 0 0
556 1 2.160578814044142 4.5480780745230405 14.507339692360786 0 0 0
557 2 2.9881606281153377 4.978123947592402 14.166521836589789 0 0 0
558 2 1.9013328132361995 3.9847437862794988 13.722015046138374 0 0 0
561 2 0.8048129412114015 4.315091504577314 18.313051723177395 0 0 0
562 1 -0.5685779877584478 6.635752672476724 16.939893080058113 0 0 0
563 2 0.4234620544838458 6.513999796565263 16.91864169756946 0 0 0
564 2 -0.7572554450636363 7.17352252770059 17.718954898145007 0 0 0
565 1 2.249726976586893 6.689786532358285 16.959678611896468 0 0 0
566 2 2.5664161709180524 7.458124340271702 17.526552804478413 0 0 0
567 2 2.935026372877387 6.014105617479369 16.922233430446273 0 0 0
568 1 2.952650960332175 6.987215417067106 12.062167422349264 0 0 0
569 2 3.62160418648769 6.482981383713439 12.548064692897118 0 0 0
570 2 2.590542387452054 7.534743590686182 12.828355423406988 0 0 0
571 1 4.5422691640489345 5.276604567882755 13.285753723695231 0 0 0
572 2 4.752374248526356 4.451687014020908 12.719732370383973 0 0 0
573 2 5.323437937647491 5.71149061516389 13.798354961265602 0 0 0
574 1 1.5981503097794105 5.238844509271167 10.510088758398396 0 0 0
575 2 2.0528276352958783 5.7761314233765715 11.152567102245559 0 0 0
35 2 -1.6074451999724075 6.376111248484247 9.868602113389592 0 0 0
78 2 0.8138788602116638 1.1724011386774364 18.96747544146563 0 0 0
244 1 0.10997783873397901 8.07626514600262 19.23708443411431 0 0 -1
579 2 1.471972410530744 1.0774797894703438 14.623335424741304 0 0 0
265 1 4.318888634774755 10.628336403887166 19.257434623238886 0 0 -1
583 1 4.352165779860395 3.161650369201687 11.780828647229294 0 0 0
584 2 4.526206213528824 3.342486081226293 10.828469905232796 0 0 0
585 2 3.382620505083102 3.0006765389107235 11.900633086747282 0 0 0
586 1 1.7120923976781952 3.1555148106752533 12.310188882702073 0 0 0
587 2 1.4980389477923086 3.8901908616898715 11.700171166119592 0 0 0
588 2 0.8878663526915351 2.56457789349337 12.209780227559808 0 0 0
589 1 7.364721193791457 3.895863339533287 11.995109970984448 0 0 0
590 2 8.012162920125359 4.365913992708307 12.576618891253531 0 0 0
591 2 6.864526914405127 3.451059982024897 12.726203154609399 0 0 0
592 1 8.820092249765404 5.863492123731403 13.670529774038178 0 0 0
593 2 9.552829426170634 5.2945733475916485 13.94975911457061 0 0 0
594 2 9.179133975738335 6.638180735390731 13.244584723023484 0 0 0
595 1 6.1515771218375255 6.09688442489882 10.333678453753738 0 0 0
660 2 10.05027480413973 5.877549323972696 10.33534079157074 0 0 0
533 2 -1.5086321237518299 1.528299579504296 18.602793294699893 0 0 0
598 1 6.590049429361824 3.0707464798996096 14.34137582375712 0 0 0
599 2 6.804127882768052 3.7998061996229686 14.97971958207843 0 0 0
600 2 5.719089815204773 2.7515331406284997 14.664865561531984 0 0 0
551 2 -0.4397826943465265 0.8063450813062336 15.662367442243948 0 0 0
602 2 7.7978659041846194 2.957478236491101 10.484284700838767 0 0 0
604 1 9.113809788412903 0.8024336667797884 12.043121478733859 0 0 0
715 1 1.0910003276963018 10.885851939271719 16.85729975803951 0 0 0
606 2 8.327266437954686 1.0912101065069073 12.48528175746273 0 0 0
15 2 -3.87176598452869 2.9147265580500084 19.046599977018243 0 0 0
608 2 5.810168488365247 1.6006437337091803 12.20310158170767 0 0 0
759 2 7.296150632714951 11.117950887220838 13.09310977016286 0 0 0
830 2 11.40285665174969 7.183683500961032 15.298025447330375 0 0 0
612 2 4.863274535155798 1.274376272866417 16.522784789646174 0 0 0
613 1 4.263136434600836 2.414747220613596 15.513224519906323 0 0 0
614 2 3.438296325621835 1.994578527825605 15.156011309434074 0 0 0
615 2 4.018423484989328 3.2979908961488147 15.870825395693462 0 0 0
616 1 6.955185248367464 2.2941672930570727 18.513504615498437 0 0 0
803 2 8.707080019267611 8.064400121103517 15.92121766677057 0 0 0
618 2 6.687179448218824 1.6239389641739628 17.85660267850292 0 0 0
619 1 6.382468971605653 6.708066119890207 14.493231411359154 0 0 0
620 2 7.372775021409236 6.503568118441527 14.486145401710381 0 0 0
621 2 6.222526275116073 7.332652477014435 13.73087472949298 0 0 0
624 2 5.385029738656818 6.888877410689871 18.388144478796896 0 0 0
625 1 3.965022661670815 4.599922573186636 17.1666661269769 0 0 0
626 2 4.89233810646305 4.628523975833219 16.935381066074545 0 0 0
627 2 4.088044212046884 4.104390189187386 18.077949094306927 0 0 0
628 1 6.752487548132062 4.610016083596185 16.72399853299198 0 0 0
629 2 7.309132398901639 5.363817229738372 16.770029900887646 0 0 0
630 2 7.166161424098752 4.0173487796286755 17.361891015522342 0 0 0
631 1 10.267476302778185 3.4318238517680357 16.535731875658715 0 0 0
632 2 10.722776780903079 3.9823950064321845 15.88209312045371 0 0 0
633 2 9.726712124134991 2.795689160961441 16.034682845301198 0 0 0
634 1 8.78926052302182 1.4690316505845782 15.206927493245256 0 0 0
577 1 2.363838839052721 0.7349744870570046 14.557248951777538 0 0 0
636 2 7.937966544365492 1.9313831106915236 15.021053899015607 0 0 0
639 2 -6.201291852888048 2.062719699251558 19.001898977276902 0 0 0
638 2 11.087062884852063 2.1381285012276243 17.755850878389175 0 0 0
559 1 0.7003812621055322 4.717737324415411 19.196687024151544 0 0 0
640 1 11.032107514254157 4.314150283637215 14.05620541222847 0 0 0
641 2 11.903464202981601 4.733791805582638 14.101441082447995 0 0 0
642 2 11.06173605913027 3.6492809303274916 13.338394981102024 0 0 0
645 2 9.894811570276449 4.029532583579237 18.337554011007054 0 0 0
646 1 8.724836811604781 6.619504083073455 16.963645304528765 0 0 0
647 2 9.588255738582331 6.2829834196989385 16.726980086645256 0 0 0
648 2 8.871399421109775 7.082143144734066 17.827491032329846 0 0 0
649 1 11.435147308918998 6.433799119264129 16.715523744441235 0 0 0
650 2 11.68088308249768 7.1585706453378 17.271116313104024 0 0 0
651 2 12.171167453035931 5.75584742844358 16.73930597010522 0 0 0
652 1 12.420512595575252 7.004588471201365 12.260444801003215 0 0 0
653 2 13.010368775261854 6.337787069425595 12.67196092545465 0 0 0
654 2 12.036931634868404 7.523294883864018 13.02408764620706 0 0 0
655 1 13.590071016344432 5.005206398356382 13.607003116178683 0 0 0
656 2 13.775780914692472 4.285653900901231 12.952356618837278 0 0 0
657 2 -3.7821635365934196 5.29687011155257 14.028243349689102 0 0 0
658 1 10.790208685827269 5.370754468177995 10.74759371179815 0 0 0
659 2 11.190149733439878 5.958747235818399 11.443415485819017 0 0 0
512 2 14.252975150161662 5.546482909567487 10.302343668034547 0 0 0
521 2 -0.16291577927078058 0.8911637889144178 10.85621915513205 0 0 0
838 1 10.949744158932084 10.591361538404549 12.339068606529748 0 0 0
663 2 10.544789648614318 1.1447507478741006 14.175574020373963 0 0 0
835 1 13.592904755020788 10.117553452740518 12.18527143873395 0 0 0
667 1 13.597523485248908 3.0786883489025376 11.601752633018616 0 0 0
668 2 13.622818454994752 3.5871184465099537 10.786355869134988 0 0 0
669 2 12.708906749399537 2.6655552918091505 11.60457586410608 0 0 0
670 1 10.92034282760197 2.902626423585635 11.907943521946413 0 0 0
671 2 10.420859631314936 3.6580318193691523 11.480531086896288 0 0 0
672 2 10.399133328984659 2.111131794646337 11.792361170995473 0 0 0
685 1 -0.9942659046163675 10.272183974999852 9.73678265420111 0 0 0
837 2 12.60535582160628 10.286205788166532 12.29836934168166 0 0 0
684 2 -3.291183307128003 9.859621216008094 14.414930229006535 0 0 0
688 1 -0.1471014075260144 8.207784988836323 11.929661305205494 0 0 0
689 2 -0.02984492380720971 7.658735275893257 11.104414659570253 0 0 0