LAMMPS data file via write_data, version 15 Apr 2020, timestep = 6225000

6144 atoms
2 atom types

-2.9343879153656616e-01 6.0261727922695968e+01 xlo xhi
0.0000000000000000e+00 2.8019737024003852e+01 ylo yhi
0.0000000000000000e+00 2.7080012640079858e+01 zlo zhi
1.0145239932469494e+01 1.0169247242217665e+01 7.1048969265845230e+00 xy xz yz

Masses

1 16
2 2

Atoms # atomic

1595 2 2.1476371584221564e+01 2.2182201660466092e+01 1.4954162165677717e+01 0 0 0
1604 2 1.7582035008033706e+01 1.8147750194988131e+01 2.3408602437534757e+01 0 0 0
1811 2 4.9799127036256960e+00 3.7974013672850426e+00 1.1974443291825530e+01 0 1 0
987 2 6.9451897555345337e+00 8.3774272114431803e+00 5.1432358342155542e+00 0 0 1
225 2 6.6092774498181512e+00 4.6334719589205129e+00 4.6404193966643659e+00 0 0 0
1579 1 2.1409494621820954e+01 2.1010899017012317e+01 1.8395023395794396e+01 0 0 0
25 1 1.2347758565623613e+01 1.1985694381008217e+01 4.9132399718257211e+00 0 0 -1
1625 2 1.8601373090941735e+01 1.7993746381251199e+01 1.9332856182663292e+01 0 0 0
2562 2 2.8195755820888277e+01 3.0543756585078309e+01 1.3428378441345508e+01 0 0 0
886 1 1.8151602167012555e+01 2.1690162297265910e+01 1.9614471397250899e+01 0 1 -1
1633 1 1.5056901715310229e+01 1.5009401932300911e+01 1.9492707460619467e+01 0 0 0
849 2 2.0672564292875094e+01 2.4152642939695827e+01 1.3333477997048595e+01 0 0 -1
2443 1 1.3503331436266361e+01 1.5421771066196239e+01 9.8543583716456062e+00 0 1 0
358 1 2.4523109433144292e+01 2.3385292165368440e+01 2.6597527440929664e+01 0 0 0
1618 1 8.7567437257579108e+00 1.8490263235568204e+01 6.4159989079314048e+00 0 0 1
1895 2 1.1070566738453842e+01 1.7672623961491301e+01 6.0250009023297157e-01 0 0 1
1670 2 1.3005404916714632e+01 1.4592370622747545e+01 2.1312493503646759e+00 0 0 0
1634 2 1.4434287544329631e+01 1.5224910114640588e+01 1.8741471662712595e+01 0 0 0
1064 2 1.7469688833545561e+01 2.6941043911240456e+01 1.2677167813010358e+01 0 0 -1
1894 1 1.1196198346244925e+01 1.8307007305612860e+01 1.3270130314813406e+00 0 0 1
1740 2 1.7547656851596095e+01 2.2427733422621927e+01 2.6005947825661323e+01 0 0 0
1916 2 2.0319609416839661e+01 2.3979289487478972e+01 2.6065382020425062e+01 0 0 0
611 2 2.2127149474592152e+01 2.8473028720018714e+01 1.4543655841281081e+01 0 0 0
900 2 1.5570663844386390e+01 2.5774878630455369e+01 1.8502739687527082e+01 0 0 0
487 1 1.6009512487939038e+01 1.3907378941633011e+01 4.3171004950198162e+00 0 0 0
707 2 1.7370752129884330e+01 9.7984051901385332e+00 2.0149738366944003e+01 0 0 0
1587 2 1.5071168735614734e+01 1.2551814160697791e+01 1.6359104815824150e+01 0 0 0
1586 2 1.4354048343444324e+01 1.3873261334090543e+01 1.5823699034103356e+01 0 0 0
2531 2 1.4608375736974526e+01 2.3762118863684961e+01 1.5269393305529745e+01 0 0 0
2564 2 1.8427571803786911e+01 2.4312156313603186e+01 2.4358701924525160e+01 0 1 -1
1086 2 1.7261373045678265e+01 1.5717260385423389e+01 1.6107719359375905e+00 0 0 0
1871 2 1.9378531562251009e+01 2.4661134379795953e+01 2.1116927242687826e+01 0 0 0
610 1 2.2372002075616230e+01 2.9407818615877709e+01 1.4477170393582544e+01 0 0 0
1275 2 4.7567151932837346e+00 5.4427240010830022e+00 1.7052846549102993e+00 0 0 0
1003 1 2.6315153448229218e+01 1.6734504156920952e+01 2.5937223662362381e+01 0 1 -1
2450 2 1.6024570055064544e+01 2.2919813114293174e+01 2.4184297782570230e+01 0 0 0
227 2 4.8150375564422978e+00 1.2199726257044947e+00 5.5646393541643158e-01 0 1 0
27 2 1.1694194577951070e+01 1.1555027438085231e+01 5.4615831422905536e+00 0 0 -1
907 1 1.0795648068452016e+01 1.3860093903960188e+01 6.1649464511031538e-02 0 0 0
2427 2 1.0520764292749323e+01 1.2593453236394321e+01 2.1268627276906283e+01 0 0 0
1561 1 1.3453144398713734e+01 1.5790384523698648e+01 1.7358390352347008e+01 0 0 0
1901 2 1.3727544605928628e+01 1.1371703801479985e+01 2.4433765154990770e+01 0 0 0
2986 1 2.3497281000497466e+01 1.2329833031172015e+01 1.9797444777304353e+01 0 1 0
1664 2 1.0249676917886756e+01 1.7735508452120044e+01 1.4368809985536309e+01 0 0 0
2464 1 2.2218811992253102e+01 2.3586765195734198e+01 1.2674319494605546e+01 0 1 0
149 2 1.3140717617107375e+01 8.2661627701739295e+00 2.5715923345765887e+01 0 0 -1
224 2 6.6689039613164347e+00 5.3295161556954822e+00 3.1696589423776258e+00 0 0 0
1781 2 1.3779739173147263e+01 9.3353138077347761e+00 1.0785756649605604e+01 0 0 0
1128 2 2.2226109562705645e+01 2.5164126578518495e+01 2.4162346400317727e+01 0 0 -1
1689 2 8.8220104648857820e+00 9.0102089971211026e+00 3.6650519284542011e+00 0 0 0
1715 2 9.8808600137590652e+00 7.4405918435815792e+00 2.5053887393589019e+01 0 0 0
1773 2 1.2593002106128447e+01 2.2674648234454146e+01 5.5852253863544910e+00 0 0 0
1116 2 9.2800137280475248e+00 9.9016368759471938e+00 1.1945954353042927e+01 0 1 0
1570 1 1.3224001226541109e+01 1.2900934770094475e+01 1.8906313183700995e+01 0 0 1
2314 1 1.6192994602338075e+01 2.9957816176551553e+01 1.2403381819903759e+01 0 0 1
1129 1 1.4635860291296897e+01 1.5731828280370213e+01 2.3434794323530213e+01 0 0 -1
2360 2 8.8361928571005475e+00 9.3807664670185069e+00 8.6439360285917708e+00 0 0 0
1635 2 1.5191743254253828e+01 1.5889763912741589e+01 1.9883296784483843e+01 0 0 0
1017 2 1.2494077005120479e+01 4.2029556860003821e+00 1.3071983487692631e+01 0 1 -1
786 2 1.4157673107380852e+01 2.4173933467323842e+01 1.2242301883533049e+01 0 0 0
821 2 2.1439935597794985e+01 2.8355990210897847e+01 2.5050118988523945e+01 0 0 -1
67 1 9.6759321067891477e+00 3.7455974766605125e+00 1.4439139031428891e+00 0 0 -1
896 2 1.9916083617636691e+01 2.9139034375387677e+01 2.3264873447176541e+01 0 0 -1
868 1 9.5230338564268262e+00 1.5309972355029650e+01 8.6732384630458128e+00 0 0 0
73 1 2.5722196323028967e+01 1.9845465470761745e+01 1.6128945738635796e+01 0 -1 0
1571 2 1.3561886118820219e+01 1.3096038721079456e+01 1.7991370234480680e+01 0 0 1
1659 2 1.9020798221872084e+01 2.6880229368098242e+01 2.2536083499364192e+01 0 -1 0
1699 1 1.4021395069405202e+01 1.6658259585303217e+01 2.6707015664255668e+01 0 0 0
1709 2 1.8848537431752693e+01 1.1634154703434712e+01 1.2512877572138709e+01 0 0 0
2534 2 2.4520132875359714e+01 2.0358857916168798e+01 2.5702182560826571e+01 0 1 -1
1113 2 1.7509909081139956e+01 2.3921943134332356e+01 5.1564831575957806e+00 0 0 0
1669 1 1.3183020957162512e+01 1.4481605220086760e+01 1.1891665507441727e+00 0 0 0
1063 1 1.7975823083530891e+01 2.6826380731832668e+01 1.3508917292684746e+01 0 0 -1
1671 2 1.2368283405618703e+01 1.4221745615180430e+01 7.8722054767979999e-01 0 0 0
287 2 2.6566899167259763e+01 3.1232624088609732e+01 2.6160893991566613e+01 0 0 -1
1001 2 8.3456298137402758e+00 1.3933493613834042e+01 4.5211018470683078e+00 0 0 0
846 2 1.8670833270995281e+01 1.9779120984402027e+01 2.6590851112458036e+01 0 0 -1
359 2 1.4948454868561187e+01 1.6612383661118582e+01 2.1346790735504648e-01 0 0 1
1739 2 1.8489673472612232e+01 2.1895534231320791e+01 2.4836993193615719e+01 0 0 0
822 2 2.0290012236598269e+01 2.7730401311492500e+01 2.6026605047563081e+01 0 0 -1
1732 1 2.2130247144941944e+00 4.2248594863460802e+00 1.1280020374311375e+00 0 1 0
1112 2 1.8551393102254348e+01 2.4962689118779576e+01 5.7095977516383805e+00 0 0 0
887 2 1.8495812064564952e+01 2.0769960085813995e+01 1.9502369508298997e+01 0 1 -1
2621 2 2.5870516566062051e+01 1.3443546323304988e+01 2.6722728779547989e+01 0 0 0
938 2 2.2171738806054854e+01 1.0246765436971224e+01 2.5467268305490087e+01 0 1 -1
60 2 1.7565525905428807e+01 2.5080616383578558e+01 2.2224320107697974e+01 0 0 -1
223 1 6.0805734458651441e+00 5.0292625911837900e+00 3.9083195962240977e+00 0 0 0
1917 2 2.1706981283739154e+01 2.3191568141553908e+01 2.5756935929468046e+01 0 0 0
353 2 9.4268257652081413e+00 6.6959632529877338e+00 7.3128426565687938e+00 0 0 0
2407 1 1.6133111190600836e+01 1.6175301758197779e+01 1.0679405382946271e+01 0 0 0
1687 1 9.2928543546711957e+00 8.7305479262804013e+00 2.8222103202973123e+00 0 0 0
986 2 7.6080490747284069e+00 9.7001341884556336e+00 5.6255469508657709e+00 0 0 1
1539 2 1.1686549609557062e+01 1.5361960221047514e+01 2.0064542527089536e+01 0 0 0
1703 2 1.2173646062775962e+01 1.4821693135325299e+01 1.6738382697177645e+01 0 0 0
2495 2 1.6047385712776496e+01 5.6792217388447401e+00 1.8116538117205081e+01 0 1 0
1688 2 9.6778676054981752e+00 9.5836595228469577e+00 2.5119628172733250e+00 0 0 0
1002 2 8.1265605868554136e+00 1.4281964411037931e+01 6.0039254952420524e+00 0 0 0
1610 2 1.2429918949350895e+01 1.4740943818243366e+01 4.5186982729890097e+00 0 -1 0
192 2 2.1852055684350209e+01 2.6205806991456672e+01 8.3504303789722236e+00 0 0 0
2409 2 1.6681588391881171e+01 1.6814257180667592e+01 1.0216123539379955e+01 0 0 0
845 2 7.7183510742095951e+00 1.2568582056305969e+01 8.8404713673308932e-01 0 0 0
1563 2 1.4267228815512766e+01 1.5837643856228610e+01 1.6816848094523447e+01 0 0 0
908 2 2.0918907923875651e+01 2.0256798230563668e+01 2.6473669968893592e+01 0 0 -1
1706 2 1.8608387760728935e+01 9.5893035480400872e+00 5.3876906495073094e+00 0 0 -1
28 1 1.8436430712511687e+01 2.6745548118368532e+01 1.8999775059976290e+01 0 0 0
2550 2 3.1745643020685314e+01 3.1736256999920187e+01 2.6517253623242983e+01 0 0 0
870 2 9.8944099563652657e+00 1.4505252336262506e+01 8.2413547006732450e+00 0 0 0
300 2 1.6349590083097539e+01 1.5473701870942909e+01 7.4485790040066249e+00 0 0 0
1585 1 1.4476630053641861e+01 1.3326744456523262e+01 1.6646643040010090e+01 0 0 0
2414 2 1.0887584458781085e+01 1.5915791935812452e+01 1.1393186352107252e+01 0 0 1
2523 2 1.4590675345680742e+01 2.8253964642610359e+01 1.4435683617234593e+01 0 0 0
2441 2 2.4821388961311495e+01 2.6228828329676233e+01 1.5202526330164458e+01 0 0 1
847 1 1.9910036973111715e+01 2.4623104589489778e+01 1.3692134050372211e+01 0 0 -1
1562 2 1.3354551839322614e+01 1.6658727966664237e+01 1.7797031529582181e+01 0 0 0
1015 1 1.1732272806465716e+01 4.0360944254294155e+00 1.2491374408680331e+01 0 1 -1
1738 1 1.8085151454228260e+01 2.1675203288671671e+01 2.5747305210853870e+01 0 0 0
860 2 2.2654087309588437e+01 2.9564317636858032e+01 7.0805762836697888e+00 0 0 -1
30 2 1.7710645273009320e+01 2.6100949444895221e+01 1.8887587896458829e+01 0 0 0
101 2 7.0045310387563386e+00 8.4360707867333300e+00 9.6703514936876278e+00 0 0 0
84 2 1.3680784406478452e+01 1.8542363455194959e+01 2.3845069996026169e+01 0 0 -1
150 2 1.4125393553203526e+01 7.1369990363168316e+00 2.5678555766870208e+01 0 0 -1
2440 1 2.4295657082593301e+01 2.6321444563046036e+01 1.4351482168885322e+01 0 0 1
2434 1 2.6077819237392163e+01 2.4877705616802917e+01 8.4435830999952515e+00 0 0 0
2408 2 1.6648554848870543e+01 1.5328898033347890e+01 1.0738322761002721e+01 0 0 0
369 2 1.2532701937558418e+01 1.3210920503374986e+01 1.2167573500408922e+01 0 0 -1
1065 2 1.8698809804942503e+01 2.6155544487193310e+01 1.3473778267248974e+01 0 0 -1
167 2 2.6746479778056845e+01 2.5107435387584907e+01 2.4958732193541206e+01 0 0 -1
2355 2 7.1454534724689065e+00 1.8145445469544246e+00 6.0072437559995606e+00 0 1 0
437 2 2.0241535137449905e+01 1.6386371974585611e+01 3.1001323309880391e+00 0 -1 0
888 2 1.7542196459573521e+01 2.1522237152012771e+01 2.0430958440268320e+01 0 1 -1
1135 1 1.1764835872125012e+01 9.0120984911695334e+00 2.3201664634777561e+01 0 1 -1
299 2 1.7659272371686335e+01 1.5414726163805422e+01 6.5982270429188423e+00 0 0 0
626 2 1.7708253873698602e+01 1.3578042453569445e+01 2.4613126287189708e+01 0 0 -1
873 2 1.8093447395483338e+01 6.1126913254969262e+00 1.8817141908844818e+01 0 0 0
105 2 9.1854567930159430e+00 1.1386729512786607e+01 9.0842963839085318e+00 0 0 0
2311 1 1.1434610677776647e+01 8.3520668454506843e+00 5.4900574139355989e+00 0 1 0
1515 2 1.8093411725131823e+01 6.7251088643357679e+00 2.4827827362000331e+01 0 1 -1
1896 2 1.1795072420806880e+01 1.9011287815901028e+01 9.0054526364074128e-01 0 0 1
1546 1 1.6309625515523024e+01 1.7460871677690982e+01 2.4211390331569824e+01 0 1 0
984 2 1.4451206151054810e+01 9.6304038114848360e+00 1.5290848002395082e+01 0 1 -1
588 2 9.3439959481452899e+00 6.2758290230974865e+00 3.6564246437511176e+00 0 0 0
909 2 2.0797417598533876e+01 2.1855875703359267e+01 2.6744438915216698e+01 0 0 -1
2668 1 1.9297949933346125e+01 2.8720734643838291e+01 1.0725831542359247e+01 0 0 0
2354 2 1.8511483373046552e+01 2.9719058635630216e+01 6.9835084221123536e+00 0 0 0
217 1 1.4448839889301391e+01 2.4073946678321377e+01 8.6871312308384070e+00 0 -1 0
50 2 5.7041820832430536e+00 1.2255633874393942e+01 4.9090934936880775e+00 0 0 0
1130 2 1.4837612194480130e+01 1.5028279048641043e+01 2.2792755516228645e+01 0 0 -1
1132 1 1.4215181987378017e+01 1.3235495855934692e+01 8.7932066974903673e+00 0 1 0
1780 1 1.4100229393958827e+01 9.5943112633875973e+00 9.9339245793435502e+00 0 0 0
898 1 1.6240098167028098e+01 2.5187844210460646e+01 1.8909028744233886e+01 0 0 0
1514 2 1.6988146273496490e+01 7.6433249107952896e+00 2.3925098050143482e+01 0 1 -1
293 2 7.7610002480746338e+00 1.2849922348498554e+01 8.2487590737322041e+00 0 0 0
352 1 8.5250336590506723e+00 6.8816840461506352e+00 7.1077420077545863e+00 0 0 0
961 1 3.2010721251263462e+01 3.2531966664787511e+01 2.3183547901271115e+01 0 0 -1
885 2 2.5775184566117431e+01 3.0543968154477231e+01 2.2615106175716139e+01 0 0 -1
1619 2 8.3959825136596002e+00 1.9113110098560345e+01 5.7154631150784478e+00 0 0 1
2316 2 1.6392192866626324e+01 2.9668516008359052e+01 1.3289634945429086e+01 0 0 1
975 2 1.3248006940613626e+01 2.8405726945580216e+01 6.4353787972765959e+00 0 0 0
818 2 1.3475088635292664e+01 7.3164817966713311e+00 1.9187530183581710e+01 0 1 -1
775 1 1.4541199757004087e+01 2.3482528257041547e+01 2.9641399487521101e+00 0 0 0
1603 1 1.8238460172121510e+01 1.8772392022732248e+01 2.2982727846433455e+01 0 0 0
104 2 8.0827180602321853e+00 1.1966600860022295e+01 1.0132639570971987e+01 0 0 0
1605 2 1.8768338987018367e+01 1.9093722725722504e+01 2.3749965746097541e+01 0 0 0
1140 2 1.8031360219202963e+01 2.4869943996180766e+01 1.0162775328973352e+01 0 1 -1
77 2 1.0823105264234878e+01 2.4572424150908450e+01 3.7407050753506863e+00 0 -1 0
100 1 7.0963347311296570e+00 8.4792993603283158e+00 8.7014957830520014e+00 0 0 0
1877 2 1.0213065676245026e+01 5.1948898073945671e+00 1.8979883488681139e+01 0 0 0
2669 2 1.9592301068826401e+01 2.9198929506991629e+01 1.1493377386622729e+01 0 0 0
2323 1 9.6035222319569300e+00 2.0491915931711691e+01 2.4768284850164295e+00 0 1 1
2374 1 2.1678717786821394e+01 2.3354169060519613e+01 4.9915475740601583e+00 0 0 1
1016 2 2.1576822473384436e+01 3.1216563674072937e+01 1.2873159328700373e+01 0 0 -1
2283 2 1.7534311570261643e+01 2.0941776930503437e+01 1.6060539614761431e+01 0 -1 0
995 2 5.8590924243244844e+00 1.1096343333072351e+01 2.0329916412853772e+00 0 1 0
195 2 8.3378885853548166e+00 2.2087467439186621e+01 4.7653483999430640e-01 0 -1 0
2361 2 1.0455549945918611e+01 9.3804532770380398e+00 8.5100583113348574e+00 0 0 0
1152 2 1.6633461476404932e+01 1.0876294045981417e+01 1.2408891804594855e+01 0 0 0
1513 1 1.7670101842796225e+01 7.6642693394807093e+00 2.4653797201376481e+01 0 1 -1
2677 1 2.4734776341209422e+01 1.5967880400144335e+01 1.6593975922058981e+01 0 1 0
963 2 3.1636660207939041e+01 3.2118618388700369e+01 2.3980271161137555e+01 0 0 -1
1547 2 1.6689812490903286e+01 1.7044035375188248e+01 2.5047840495939965e+01 0 1 0
2353 1 1.7990592234408822e+01 2.9250446345588184e+01 6.2885993264319930e+00 0 0 0
917 2 1.6074799614530782e+01 1.4270831973584247e+01 2.5642475963701024e+01 0 1 -1
2667 2 9.8038137457326684e+00 1.8095513684211650e+01 1.1344938417799897e+01 0 0 0
985 1 7.8164386789405391e+00 8.8422247953218260e+00 5.1786970013520435e+00 0 0 1
1884 2 1.6686380960494706e+01 2.2669177578101493e+01 1.0402884755122926e+01 0 0 0
76 1 1.1651911417796386e+01 2.4759048811735113e+01 3.1826055106014275e+00 0 -1 0
298 1 1.7196562005418393e+01 1.4973915396984802e+01 7.3171151083171191e+00 0 0 0
435 2 2.2850891636195605e+01 1.2479366529110429e+01 1.5584100581080232e+01 0 0 -1
147 2 1.6689821831682693e+01 3.0881156361033202e+01 1.7112385315882293e+01 0 -1 -1
612 2 2.3300794560893284e+01 2.9515352286382647e+01 1.4828350335884016e+01 0 0 0
1704 2 1.1014310114506610e+01 1.4750099053940282e+01 1.5669164609476825e+01 0 0 0
945 2 7.2751076893404525e+00 1.5891935600258067e+01 4.6029684588406630e+00 0 1 0
883 1 2.5114643056807815e+01 3.0648645604101972e+01 2.1901467740785510e+01 0 0 -1
2442 2 2.4737490555406811e+01 2.7049174961545756e+01 1.3921227812246805e+01 0 0 1
1915 1 2.1096783287939438e+01 2.3509073084839969e+01 2.6515888977408721e+01 0 0 0
2451 2 1.6405143145897085e+01 2.3546245401715119e+01 2.2843002836992312e+01 0 0 0
2315 2 1.6327598760851476e+01 2.9194740017382102e+01 1.1758847713732973e+01 0 0 1
1789 1 4.1467911653814244e+00 4.3770305070805495e+00 6.1205490200284371e+00 0 0 1
983 2 1.5887524995669210e+01 9.7677294176487290e+00 1.4690473306220042e+01 0 1 -1
812 2 2.9450943229273467e+01 2.6297259511517161e+01 2.0159930419397739e+01 0 1 -1
2572 1 1.6223431892921141e+01 2.2805093605493600e+01 1.7819289713222414e+01 0 0 0
354 2 8.6202975008071174e+00 7.3897208494705025e+00 6.2434521829366760e+00 0 0 0
156 2 5.0524404457816878e+00 3.0840118009591944e+00 5.5021561283323575e+00 0 0 0
1589 2 2.1220967792864727e+01 3.2323403010034575e+01 2.5044536622981088e+01 0 -1 0
1616 2 1.3475697088492009e+01 1.8571306376446774e+01 1.1215674028606891e+01 0 -1 0
2637 2 1.8167929044315493e+01 2.7813431977975366e+01 2.5188386803620915e+01 0 0 0
1081 1 1.8234075162724643e+01 1.6853897833388167e+01 1.7908139985005072e+01 0 0 -1
1594 1 2.2361621200840077e+01 2.2601700138674900e+01 1.5098545182200793e+01 0 0 0
2445 2 1.3772688631590043e+01 1.4535020365734525e+01 9.3781515007856928e+00 0 1 0
1588 1 2.1629638098935473e+01 3.1495151379639722e+01 2.4657539617788476e+01 0 -1 0
145 1 1.6063907559083095e+01 3.0694792856086199e+01 1.7876449200442032e+01 0 -1 -1
1841 2 1.0909475116024090e+01 7.9957465760115376e+00 2.8037399907542953e+00 0 0 1
313 1 1.4576473062719991e+01 1.8826501042895512e+01 1.5485884415058370e+01 0 0 -1
1118 2 2.7770874787346099e+01 2.8488087553695671e+01 1.9425300557446924e+01 0 0 -1
1872 2 1.8353722489587902e+01 2.3663547432821950e+01 2.0648360866163941e+01 0 0 0
2613 2 7.1105217062685213e+00 3.8795053902403063e+00 9.0991675271267454e+00 0 1 1
1133 2 1.4412317483542358e+01 1.2966765334373239e+01 7.8444608928091775e+00 0 1 0
1762 1 1.3865745727082952e+01 1.5014684174814388e+01 1.4529759171057155e+01 0 0 0
2556 2 2.9645409203322725e+01 2.4578191629385906e+01 2.6565233202320044e+01 0 0 0
1680 2 1.8358584210759958e+01 1.0552073202097668e+01 3.6083392551902729e+00 0 0 1
1870 1 1.8731122572374570e+01 2.4048936985329775e+01 2.1492902163634188e+01 0 0 0
1662 2 9.6434849081172800e+00 1.5778628752575289e+01 5.3346794929208610e+00 0 -1 1
1136 2 1.1073725778660503e+01 8.9049072741752724e+00 2.3837907881453368e+01 0 1 -1
1736 2 1.0868737966401278e+01 8.8647404962766210e+00 1.4803364631349105e+01 0 0 0
376 1 2.4605913216221992e+01 2.8859394454625054e+01 2.0062943003500372e+01 0 -1 0
1109 2 1.1816763709156074e+01 1.2778260816802819e+01 1.5388528772376819e+01 0 0 0
372 2 2.8106701078209795e+01 3.0670936353049797e+01 2.3733248793736013e+01 0 -1 0
333 2 1.8935927668997600e+01 3.1265641004359175e+01 1.8562158168354646e+01 0 0 0
2336 2 8.1376317008164492e+00 6.6369051842969498e+00 2.0480914722613445e+01 0 1 0
374 2 5.4210679841481912e+00 7.0642576551149867e+00 6.2383954707647442e+00 0 0 0
1801 1 1.9223425828708471e+01 1.5113102730340600e+01 9.3138135033351954e+00 0 -1 0
1914 2 2.2062293331346634e+01 3.4373579918417882e+01 2.5645344876524252e+01 0 0 0
2601 2 2.3765754581208785e+01 2.8952601167875798e+01 1.1762832712543601e+01 0 0 0
2600 2 2.3140445713756257e+01 2.9605651129375985e+01 1.3006535209371636e+01 0 0 0
188 2 1.3231221134685537e+01 2.6088224471981469e+01 1.0719822660747596e+01 0 0 0
2444 2 1.4236878149234983e+01 1.5736637044536934e+01 1.0407460059850528e+01 0 1 0
1786 1 1.6432939813089739e+01 2.7243319984404142e+01 1.1271973342036754e+01 0 -1 1
2642 2 1.2278209744274445e+01 9.9743859834550221e+00 4.2570248844379721e-01 0 0 1
1827 2 7.1400164085733984e+00 8.6685782077776903e+00 1.5015974398525785e+01 0 0 0
1119 2 2.7686190849483861e+01 2.7007999338619292e+01 1.9598504624637425e+01 0 0 -1
1088 2 1.1082531498794916e+01 5.9367915568370790e+00 2.2216791446493708e+01 0 1 -1
988 1 1.8667177214182693e+01 3.2498835856452558e+01 2.4647896610377060e+01 0 0 0
269 2 1.2921824132019720e+01 9.1659284953909648e+00 3.0628050240876639e+00 0 -1 0
1551 2 1.7978134366336892e+01 7.0168603766034803e+00 8.0429656917069128e+00 0 0 0
198 2 2.2714764666808424e+01 3.0445384965898569e+01 9.2661213417236432e+00 0 -1 0
1089 2 1.2142683338571882e+01 6.5197626152326889e+00 2.1186829162192598e+01 0 1 -1
2468 2 9.1625055086035800e+00 1.1869300144623478e+01 3.3794747138249819e+00 0 0 1
2570 2 1.6032598359710065e+01 2.6881597485428227e+01 7.2883009605332809e+00 0 0 0
776 2 1.4035655822822433e+01 2.3474048722226858e+01 3.7398710921948308e+00 0 0 0
204 2 7.9110668603236860e+00 6.6766413440992158e+00 1.7483085872661068e+01 0 1 0
1658 2 2.0504991074591263e+01 2.6926405307272603e+01 2.2719452564786856e+01 0 -1 0
202 1 7.0904438078536742e+00 6.3307451662149345e+00 1.7892401572196793e+01 0 1 0
2604 2 2.5311335551255389e+01 1.9823199879542816e+01 2.3028274590934078e+01 0 1 0
2397 2 1.9211484085759476e+01 2.8408120687593076e+01 1.5521379609847557e+01 0 0 0
1134 2 1.5015730099218725e+01 1.2912379273600681e+01 9.2568789982614756e+00 0 1 0
2644 1 2.1575633480513346e+01 1.0202406727292953e+01 2.0827906380315905e+01 0 0 0
725 2 3.4198987841455100e+01 3.4022962694651127e+01 2.5740128230944993e+01 0 -1 0
332 2 1.8569931012653868e+01 3.1716569773219216e+01 1.9980695699789688e+01 0 0 0
1735 1 1.1513193890429477e+01 8.2144958896303422e+00 1.4511796366091083e+01 0 0 0
2646 2 2.2361993834603645e+01 1.0773111441229760e+01 2.0640716853871385e+01 0 0 0
2413 1 1.0829380377749947e+01 1.6723261690575590e+01 1.1974603650948438e+01 0 0 1
895 1 1.9637938968991556e+01 3.0057063246134533e+01 2.3266038961872969e+01 0 0 -1
2603 2 2.4809657263847708e+01 2.1343834341071542e+01 2.3194432717745276e+01 0 1 0
2554 1 2.9970321229386172e+01 2.5501619829841012e+01 2.6628266361933019e+01 0 0 0
2629 1 9.1073887845998787e+00 7.1694130296045548e+00 1.0533008428231041e+01 0 0 0
2609 2 2.7668771220957304e+01 2.2600178116888383e+01 2.1903847435535184e+01 0 0 0
1874 2 1.4888469504889700e+01 1.9747715816025725e+01 1.3832626528138483e+01 0 -1 0
2257 1 2.3642535745167599e+01 2.5226565257189208e+01 2.4952279477323756e+01 0 0 0
462 2 2.7183034921960477e+01 2.7536460824082031e+01 2.1533167955414939e+01 0 0 -1
994 1 6.4644863407348776e+00 1.0667093388043840e+01 2.7063844615676791e+00 0 1 0
2641 1 1.2282171204280043e+01 8.9937317952063669e+00 2.9190200155499474e-01 0 0 1
897 2 2.0330670143007026e+01 3.0516047171424798e+01 2.3796803606545211e+01 0 0 -1
1060 1 1.2112663646288812e+01 9.5029311673091748e+00 2.6418279968035140e+01 0 1 -1
165 2 2.0556916683926850e+01 1.5688307346163837e+01 8.2546923996269221e+00 0 0 0
2456 2 2.3207001416604037e+01 2.8774515340029758e+01 2.3867596535818894e+01 0 0 0
1672 1 1.0184422223218728e+01 4.1079385326167985e+00 9.8120234431365443e+00 0 0 0
1617 2 1.2643963304612667e+01 1.9099195255242812e+01 1.2457863947430818e+01 0 -1 0
1117 1 2.7186440790479615e+01 2.7805248288673940e+01 1.9849743431636544e+01 0 0 -1
1737 2 1.1100884770386079e+01 7.5291130621644493e+00 1.3876123270872602e+01 0 0 0
1106 2 7.9931692841619189e+00 1.8263423117225010e+01 1.4180016230612460e+00 0 0 0
1682 2 6.3305295923595502e+00 5.8057240333450153e+00 9.0772310648097783e+00 0 0 0
368 2 1.2619728188965732e+01 1.2425399203817824e+01 1.3483850213638284e+01 0 0 -1
197 2 2.3011956056199239e+01 3.0674146433759411e+01 1.0831520051427656e+01 0 -1 0
2624 2 1.2015754404261855e+01 1.7188532323204598e+01 2.1604550831676352e+01 0 0 0
2576 2 7.2736805229908867e+00 4.0219544003887489e+00 6.7831973462737327e+00 0 1 0
107 2 1.1004942486176979e+01 2.1388842361916428e+01 1.1696785382896612e+01 0 0 0
2513 2 2.0133835567171339e+01 2.8431147713702249e+01 2.0944770376681518e+01 0 0 0
1861 1 4.4460901078994457e+00 9.4460702930913154e+00 4.2576302624466935e+00 0 0 0
1681 1 6.6953419502756493e+00 5.4792975028044371e+00 9.9250469871432880e+00 0 0 0
2467 1 8.4794245685011340e+00 1.2002854412623250e+01 4.0586188523123097e+00 0 0 1
1596 2 2.2285126658224360e+01 2.3574260062999016e+01 1.5595012717564114e+01 0 0 0
1621 1 1.3979636464716009e+01 9.6527740366969272e+00 2.1223164393128730e+01 0 0 -1
1622 2 1.4329912922383322e+01 1.0059976695608292e+01 2.0433165451730186e+01 0 0 -1
2411 2 1.1345693747059119e+01 2.7685384770023560e+01 3.8914752923153730e+00 0 0 1
1691 2 1.0576049116138678e+01 2.2426714119126348e+01 5.2913428215707317e+00 0 -1 1
316 1 1.9795733536032984e+01 3.2889258875193889e+01 2.2184226338043675e+01 0 -1 -1
2612 2 7.6904499439479928e+00 2.5216285511523697e+00 8.7253124413043430e+00 0 1 1
2491 1 1.6164145344904952e+01 1.7159201210234592e+01 1.6201174096714634e+00 0 0 1
164 2 2.1010388240961603e+01 1.4559060663066447e+01 7.3021652035597349e+00 0 0 0
1110 2 1.2458677972890989e+01 1.1449691421946250e+01 1.5574358530140055e+01 0 0 0
1876 1 1.0974390288292408e+01 5.8510736837560930e+00 1.8845620563059246e+01 0 0 0
2563 1 1.9174668314959803e+01 2.4766408478217208e+01 2.4772059936067969e+01 0 1 -1
2630 2 9.9515644020696286e+00 7.5271244989639570e+00 1.0275169071641276e+01 0 0 0
216 2 2.1318432991308331e+01 1.8715862395355320e+01 1.2531161592319664e+01 0 0 0
819 2 1.3264701451404044e+01 8.2793274543190947e+00 2.0263914755929772e+01 0 1 -1
2389 1 1.2682507229110167e+01 2.7336218469987827e+01 8.1274580635698879e+00 0 0 0
2596 1 1.4044175565518987e+01 2.1753008065604696e+01 2.0007966770261213e+01 0 0 0
2512 1 2.0276073912971711e+01 2.8963456111516386e+01 2.0127982457154442e+01 0 0 0
214 1 2.1766193131815371e+01 1.8756832033668559e+01 1.3362834258172148e+01 0 0 0
1900 1 1.3967653033751414e+01 1.0601996088694001e+01 2.3831150092758278e+01 0 0 0
90 2 2.8164438012426420e+01 2.6250329702191877e+01 1.4936316822012310e+01 0 -1 -1
1668 2 1.8453181512316409e+01 1.6294205534178641e+01 2.6024663817127600e+01 0 0 0
2439 2 9.4078010119258728e+00 1.1180595598269781e+01 5.2039264307241302e+00 0 1 0
189 2 1.4239749222649277e+01 2.5388865296806355e+01 9.7995376989822081e+00 0 0 0
844 1 8.1909200053143181e+00 1.2075147467610041e+01 1.7393576271538241e-01 0 0 0
187 1 1.3995310962928423e+01 2.6323120127858868e+01 1.0122528560137177e+01 0 0 0
1611 2 1.2184380993175724e+01 1.3390513647763303e+01 4.0254526723964421e+00 0 -1 0
314 2 1.3701021661320304e+01 1.8380380049529215e+01 1.5406451428726857e+01 0 0 -1
2602 1 2.4583221574175319e+01 2.0435180751965071e+01 2.2890898606024699e+01 0 1 0
1548 2 1.5578361931171415e+01 1.6832841769170546e+01 2.3932607235024644e+01 0 1 0
1560 2 1.4552955229276801e+01 2.6151380313279446e+01 6.4690534640242736e-01 0 0 1
1881 2 1.0730786860333200e+01 9.3455199391460972e+00 2.1919343468866298e+01 0 0 0
271 1 1.1855033191298345e+01 1.1816400230694484e+01 2.1959564661650138e+01 0 0 0
2469 2 7.6812169910099470e+00 1.1738499670900861e+01 3.5861881270031888e+00 0 0 1
1657 1 1.9751336636280161e+01 2.7511038437786162e+01 2.2517787942923466e+01 0 -1 0
385 1 1.6457826444734742e+01 1.1818691271103216e+01 9.2827602912510994e+00 0 0 0
154 1 5.5825783002211784e+00 2.3229225914601912e+00 5.2328117585272507e+00 0 0 0
29 2 1.9124003460850968e+01 2.6236062655985311e+01 1.9507168446741268e+01 0 0 0
58 1 1.7289889126001334e+01 2.5954165858469779e+01 2.2602886294309652e+01 0 0 -1
1857 2 2.0876641218105277e+01 3.1514097145952164e+01 2.1676364732994170e+01 0 0 -1
1878 2 1.1682467261859063e+01 5.4520199957780298e+00 1.9385533548356598e+01 0 0 0
2437 1 1.0065601898252634e+01 1.0931358686510855e+01 5.8862770884133226e+00 0 1 0
1615 1 1.3116101765463089e+01 1.8318629694091364e+01 1.2070070981624818e+01 0 -1 0
920 2 1.3147474115830654e+01 1.2012164652101550e+01 6.4823174070993139e-01 0 0 0
284 2 2.1296254901603177e+01 2.7929393526098320e+01 1.7757550195044082e+01 0 0 -1
871 1 1.8703975017580689e+01 6.6954904224931422e+00 1.9310961260985255e+01 0 0 0
820 1 2.1054165592390760e+01 2.8350759033602731e+01 2.5929638415897308e+01 0 0 -1
2670 2 1.9659820204541770e+01 2.7812126394858840e+01 1.0907060470060189e+01 0 0 0
117 2 1.5500715252926028e+01 2.0025471076626861e+01 3.4968438003439566e+00 0 0 0
785 2 1.2610963010387797e+01 2.4356017457099693e+01 1.2038428576454987e+01 0 0 0
2492 2 1.6527880046076437e+01 1.8092362528007897e+01 1.7465685602711596e+00 0 0 1
347 2 8.2469380831662811e+00 1.4135724129545615e+01 1.1323013329905606e+01 0 0 0
848 2 1.9790282115666720e+01 2.4210072924276588e+01 1.4590768311452885e+01 0 0 -1
273 2 1.2563458630030734e+01 1.2540627703137220e+01 2.2007820190482278e+01 0 0 0
233 2 1.3775106068515523e+01 1.9294123413277379e+01 2.1940542989833258e+01 0 -1 0
139 1 2.3480917657985128e+01 1.6708492241397749e+01 1.3452603327926679e+01 0 0 -1
1087 1 1.1916682476026836e+01 6.4709109907239784e+00 2.2154964057344735e+01 0 1 -1
360 2 2.4046666875170672e+01 2.2649329576659873e+01 2.7001408329527354e+01 0 0 0
196 1 1.2512326403480543e+01 3.0838983648811835e+00 1.0017668200355390e+01 0 0 0
777 2 1.4492599809709702e+01 2.4318190363133894e+01 2.5043267127391404e+00 0 0 0
267 2 2.1460113533003202e+01 1.4267880071150213e+01 1.1762778842547320e+01 0 0 -1
309 2 2.2411475316900869e+01 7.7988881140076405e+00 2.3633046083432593e+01 0 1 -1
3003 2 1.9034290520353768e+01 9.0598203518471969e+00 1.4527590433013041e+01 0 1 0
113 2 1.8326479697475207e+01 3.0492943101126567e+01 2.2005335107203646e+01 0 -1 0
880 1 1.6760664027470895e+01 2.0882428510682537e+01 2.2053037709249882e+01 0 0 0
315 2 1.5100303339006445e+01 1.8140622049096535e+01 1.5889060454896089e+01 0 0 -1
283 1 2.2060351272618895e+01 2.8205991285087883e+01 1.8352029224347564e+01 0 0 -1
386 2 1.7381747423693074e+01 1.1851987444645035e+01 9.5773358524457350e+00 0 0 0
2376 2 2.1072382930193100e+01 2.4158578702234983e+01 5.0946770480122749e+00 0 0 1
1812 2 5.3187645211858285e+00 4.8046040110563020e+00 1.0818871531407924e+01 0 1 0
1545 2 9.3579299195969554e+00 6.2172735804691417e+00 1.6146570091870380e+01 0 0 0