LAMMPS data file via write_data, version 15 Apr 2020, timestep = 500000

3072 atoms
2 atom types

1.9230131008374229e-01 2.9947892689912258e+01 xlo xhi
1.8216562897653787e-01 2.8158300371020580e+01 ylo yhi
1.7721167068926569e-01 2.7234233329305894e+01 zlo zhi
1.0129249960376198e+01 1.0157790673861806e+01 7.0682999625583465e+00 xy xz yz

Masses

1 16
2 2

Atoms # atomic

1 1 7.2991933519175296e+00 5.5893695096251799e+00 4.2434412293332473e+00 0 0 0
2 2 6.5025242331883559e+00 5.1771845515506261e+00 3.8212953360201447e+00 0 0 0
3 2 7.0492412786570657e+00 6.3153430098407686e+00 4.8463079308282699e+00 0 0 0
4 1 9.7828523122228610e+00 7.2271848039903075e+00 1.0759085975034598e+01 0 0 0
5 2 1.0176147655895830e+01 6.7598353646591960e+00 1.1495417606373053e+01 0 0 0
6 2 9.7936783477447911e+00 8.1669330083285914e+00 1.1014471143379861e+01 0 0 0
7 1 1.0170747032316241e+01 1.2276220708456353e+01 3.9150621583945973e+00 0 0 0
8 2 1.0798524005610270e+01 1.1965041054318823e+01 4.6078901165450272e+00 0 0 0
9 2 9.7560975260947238e+00 1.3037923413142700e+01 4.3927509957268400e+00 0 0 0
10 1 1.2392758101760515e+01 1.4023491801273568e+01 1.0745663357995239e+01 0 0 0
11 2 1.3164588155779823e+01 1.4211337602538444e+01 1.0159609880616737e+01 0 0 0
12 2 1.1803689485493479e+01 1.3327168319752266e+01 1.0314636379869278e+01 0 0 0
13 1 1.4938257680743430e+01 5.4584511216141198e+00 4.0819771998553112e+00 0 0 0
14 2 1.5509643934045199e+01 5.0300716698633288e+00 4.7748911457012921e+00 0 0 0
15 2 1.4743067503911682e+01 6.3369400061870271e+00 4.4754511665143939e+00 0 0 0
16 1 1.7457521323404002e+01 7.2298395452038742e+00 1.0709771687842467e+01 0 0 0
17 2 1.7816660155244961e+01 6.8512108410289407e+00 1.1532041207242132e+01 0 0 0
18 2 1.8233419787405367e+01 7.4414321852935901e+00 1.0144826987316932e+01 0 0 0
19 1 1.7382076547073666e+01 1.2236359070525410e+01 4.2684057743298611e+00 0 0 0
20 2 1.8214031756807351e+01 1.2385556716298790e+01 3.7859631838075365e+00 0 0 0
21 2 1.7718105058091595e+01 1.1965232457214638e+01 5.2099876569821966e+00 0 0 0
22 1 2.0172284474070793e+01 1.3778065894333075e+01 1.0867250362775442e+01 0 0 0
23 2 2.0833359781548197e+01 1.4086594558686221e+01 1.0158298143160930e+01 0 0 0
24 2 1.9855116995465181e+01 1.4661361403252066e+01 1.1167476792943233e+01 0 0 0
25 1 1.1467391004769359e+01 8.1161161969900579e+00 6.3779979195752032e+00 0 0 0
26 2 1.0772602475391208e+01 8.6233155159202131e+00 5.9332705144445423e+00 0 0 0
27 2 1.1108163990621222e+01 7.4282793194506915e+00 7.0004938514349266e+00 0 0 0
28 1 1.4277339000371217e+01 1.0104478456572798e+01 1.3142215949384223e+01 0 0 0
29 2 1.4524558107448197e+01 9.4939435559443375e+00 1.2423623056214117e+01 0 0 0
30 2 1.3538090018917270e+01 1.0597783015870307e+01 1.2778055963076334e+01 0 0 0
31 1 1.4319272750048832e+01 1.5286299349784429e+01 6.2137028731299075e+00 0 0 0
32 2 1.4408264093674653e+01 1.4522443504108054e+01 5.5929918440593509e+00 0 0 0
33 2 1.3477560783440250e+01 1.5704230838607801e+01 5.8257054114359867e+00 0 0 0
215 2 2.1725666712104633e+01 1.1444086509470983e+01 1.0155443967035215e+01 0 0 0
35 2 1.5747852047079620e+01 1.7454646199613361e+01 1.2626073511612619e+01 0 0 0
882 2 1.9884707516809257e+01 1.9401866146069462e+01 1.3427742771609502e+01 0 0 0
953 2 2.4416597903301540e+01 2.0811784149548352e+01 1.3314335905916961e+01 0 0 0
38 2 1.8264015237657297e+01 8.4647130917414266e+00 6.2237449109046761e+00 0 0 0
216 2 2.0730442849954901e+01 1.0541946962664275e+01 9.3344505149648160e+00 0 0 0
40 1 2.1486131610710107e+01 9.7552573585738696e+00 1.3130377838666639e+01 0 0 0
512 2 2.0137441253372785e+01 1.0780695410816389e+01 5.1537628967442126e+00 0 0 0
42 2 2.0693394184103692e+01 1.0265584193473885e+01 1.2727759617671770e+01 0 0 0
43 1 2.1805820495545678e+01 1.5215846098975536e+01 6.5444399117249477e+00 0 0 0
44 2 2.0963303893466897e+01 1.5475122637108896e+01 6.1895535242044692e+00 0 0 0
1152 2 2.4117288344737080e+01 3.1127610777848261e+01 1.1883540995881981e+01 0 0 0
46 1 2.4037174473028596e+01 1.6974550776928961e+01 1.2922537889142580e+01 0 0 0
47 2 2.3291037031977886e+01 1.7561857079407122e+01 1.2504071345358726e+01 0 0 0
855 2 1.3198192945102724e+01 1.4377488389950944e+01 3.4190310778611221e-01 0 0 0
49 1 5.3742843228691299e+00 4.1509294645307930e+00 2.7976157576983174e+00 0 0 0
50 2 5.7668046692124602e+00 3.4184693217181366e+00 2.2825725226502338e+00 0 0 0
51 2 4.7121251879252783e+00 3.7295331811873949e+00 3.3326394481215513e+00 0 0 0
52 1 7.7699766617446517e+00 5.5805975026201313e+00 9.7729623320214802e+00 0 0 0
53 2 7.2563010282186458e+00 6.0595304131718013e+00 9.1402962087458750e+00 0 0 0
54 2 8.5048284176448803e+00 6.2260656405554338e+00 1.0086109542351007e+01 0 0 0
55 1 7.6491989282609758e+00 1.0920578546880762e+01 2.8408214950294011e+00 0 0 0
56 2 8.0020960888881660e+00 1.0069984705171509e+01 2.5150164113965663e+00 0 0 0
57 2 8.3529185878246448e+00 1.1299992721955181e+01 3.3430098661687513e+00 0 0 0
58 1 1.0337671365226578e+01 1.2406130585453687e+01 9.7705358402620313e+00 0 0 0
59 2 1.0011847205500477e+01 1.2911033774283677e+01 8.9613862533686675e+00 0 0 0
60 2 1.0582931032577928e+01 1.1555262540302000e+01 9.3605434457612144e+00 0 0 0
61 1 1.2875842616849088e+01 3.8470476267308760e+00 3.1061585116721133e+00 0 0 0
62 2 1.3445845949545765e+01 4.5658490627140900e+00 3.4214468555142159e+00 0 0 0
63 2 1.2398317254828171e+01 4.2959829752265950e+00 2.3056178531473077e+00 0 0 0
64 1 1.5404122268575907e+01 5.7706256358926442e+00 9.7061428430463330e+00 0 0 0
65 2 1.6152463227544729e+01 6.1599501827026089e+00 1.0114476953822043e+01 0 0 0
66 2 1.5660061388067458e+01 4.8568195807871106e+00 9.5221566067829553e+00 0 0 0
67 1 1.5449423056069408e+01 1.0744160280513082e+01 2.9030405888617845e+00 0 0 0
68 2 1.6098667529640689e+01 1.1209466416000643e+01 3.4690158600400527e+00 0 0 0
69 2 1.5813411869809611e+01 9.8249957152227267e+00 2.6363664998800145e+00 0 0 0
70 1 1.8055317751338400e+01 1.2416552961433187e+01 9.6855357097728234e+00 0 0 0
71 2 1.7628824461174759e+01 1.2985707087677101e+01 9.0264727039204420e+00 0 0 0
72 2 1.8813944287484016e+01 1.2908886177039435e+01 1.0030829107322447e+01 0 0 0
73 1 1.3747324676819672e+00 9.5443461760353454e-01 8.1397801759177846e-01 0 0 0
191 2 2.1526044772967907e+01 1.2715174004163526e+01 1.3528676640376501e+01 0 0 0
804 2 2.2333050743018756e+01 3.1370650729223510e+01 1.3653074067738364e+01 0 0 0
76 1 3.4820524923738017e+00 2.9879057959706223e+00 7.3175839332182520e+00 0 0 0
77 2 4.1869040928834327e+00 2.3766104107704558e+00 7.5812985899174397e+00 0 0 0
210 2 1.9238155510094714e+01 4.4701970396820414e+00 1.0202298494089542e+01 0 0 0
79 1 3.6542931241575189e+00 8.2465453184602939e+00 7.1197978706348231e-01 0 0 0
869 2 1.3188806894817059e+01 2.1060512799736195e+01 1.3494703000898083e+01 0 0 0
81 2 4.3686004569351464e+00 7.6806181100463169e+00 1.0563007984246533e+00 0 0 0
82 1 6.2509042017270966e+00 9.6444030646888130e+00 7.5050078243181284e+00 0 0 0
1151 2 2.4294264630833538e+01 3.0135277797312177e+01 1.3030326562540241e+01 0 0 0
84 2 7.0678613674477742e+00 9.1100913970314394e+00 7.7596481540487003e+00 0 0 0
85 1 8.5355403438755726e+00 9.3062359315350918e-01 8.0451244035273162e-01 0 0 0
974 2 2.1654271236864847e+01 1.6586634914032349e+01 3.1618298307206327e+00 0 0 0
87 2 8.3205320289739966e+00 1.3722366095021106e+00 1.6153132475399856e+00 0 0 0
88 1 1.0917498753820347e+01 2.7795621424554384e+00 7.4160201091436484e+00 0 0 0
89 2 1.1718323469301136e+01 2.3131378098520394e+00 7.7675907364332621e+00 0 0 0
90 2 1.1243972885477366e+01 3.2860159781652656e+00 6.6375816349875265e+00 0 0 0
91 1 1.1305463809110606e+01 8.2740848983370494e+00 7.1157302008863754e-01 0 0 0
1135 1 1.4626688183137032e+01 2.8720204093991622e+01 5.2909730580380376e+00 0 0 0
93 2 1.2202788184605863e+01 7.9832696338858060e+00 1.0630708834873999e+00 0 0 0
94 1 1.3534918468905731e+01 9.5635196258202608e+00 7.5799142031574869e+00 0 0 0
95 2 1.4184045935841441e+01 8.8993508006060509e+00 7.8814167230681944e+00 0 0 0
96 2 1.2769115245536796e+01 9.1237802081446162e+00 7.1357599786381254e+00 0 0 0
97 1 5.4729367203593391e+00 4.6536877188917645e+00 6.2044759327031134e+00 0 0 0
98 2 5.6744957568569250e+00 5.2583622254154090e+00 6.9621147543538857e+00 0 0 0
99 2 4.7026494274625144e+00 4.1945486103369118e+00 6.5558490302804264e+00 0 0 0
100 1 7.8926936026818293e+00 6.3216222427544233e+00 1.2987104107678785e+01 0 0 0
101 2 7.6555297478493243e+00 6.7011904581416699e+00 1.2088306324191821e+01 0 0 0
102 2 8.5866274399825642e+00 5.6695422673386062e+00 1.2704590944419923e+01 0 0 0
103 1 7.9511243439594237e+00 1.1515087007219211e+01 6.3817423077549966e+00 0 0 0
104 2 7.4737339978927899e+00 1.1948501436509911e+01 5.6682006755926588e+00 0 0 0
105 2 7.2163608038615283e+00 1.1007884880132671e+01 6.8436320763587570e+00 0 0 0
106 1 1.0230740939174122e+01 1.3284810762167160e+01 1.2984582866437059e+01 0 0 0
119 2 1.7137335689829783e+01 1.2714573681245483e+01 1.3386142678960208e+01 0 0 0
108 2 1.1032878591261928e+01 1.2825764487599020e+01 1.2567016614555724e+01 0 0 0
109 1 1.2751462916167725e+01 4.5151968835405540e+00 6.2965936430208522e+00 0 0 0
110 2 1.3344554008424213e+01 3.8377291874775601e+00 5.9125646511417917e+00 0 0 0
111 2 1.2513176028645011e+01 5.0540823455427137e+00 5.5500497666840163e+00 0 0 0
112 1 1.5418508196465655e+01 6.0994472663791965e+00 1.2819747439852552e+01 0 0 0
1134 2 1.4580478620020433e+01 2.3103512944172795e+01 1.3059002153212381e+01 0 0 0
1280 2 2.5167371931574817e+01 2.4618652836846067e+01 5.1506603682218417e+00 0 0 0
115 1 1.5245786246768350e+01 1.1153552752151906e+01 6.2447383349272876e+00 0 0 0
116 2 1.4554344836379085e+01 1.0600113104705759e+01 6.6319922112848335e+00 0 0 0
117 2 1.5483485520249616e+01 1.1676380592546032e+01 7.0250648827725435e+00 0 0 0
118 1 1.7962766051354659e+01 1.2981964887220045e+01 1.2861123234559916e+01 0 0 0
206 2 1.6578970044955405e+01 2.8249832302150995e+00 3.2097399251386127e+00 0 0 0
120 2 1.7601335946875214e+01 1.3468563200325368e+01 1.2070808792834947e+01 0 0 0
121 1 3.1991291470020227e+00 3.0550651783187841e+00 4.2509919379465133e+00 0 0 0
1150 1 2.4733220008012204e+01 3.0503918913279353e+01 1.2300678384200070e+01 0 0 0
123 2 3.6223983135572180e+00 2.2489508177799826e+00 4.6982176549366992e+00 0 0 0
124 1 5.8666519853647108e+00 4.4766176833977145e+00 1.1116075355042240e+01 0 0 0
125 2 6.6606837735333997e+00 5.0034547638410043e+00 1.0777185852527721e+01 0 0 0
126 2 6.3334476549522778e+00 3.7298492415200122e+00 1.1575311056064871e+01 0 0 0
127 1 5.4542832665886065e+00 9.6681734528569407e+00 4.5257300176446273e+00 0 0 0
1857 2 1.1399344025790782e+01 1.5765431703237210e+01 1.3666723137036906e+01 0 0 0
129 2 6.1981530092618318e+00 1.0302987154604279e+01 4.2952478688293194e+00 0 0 0
130 1 8.0061105577151359e+00 1.1823034829186174e+01 1.1256674676534644e+01 0 0 0
1130 2 1.3085852091380570e+01 2.2211300417905846e+01 5.2641058793525852e+00 0 0 0
132 2 8.5847690929579858e+00 1.2412547944497920e+01 1.0697751269204213e+01 0 0 0
133 1 1.0592944659420684e+01 3.0144117615803947e+00 4.3325823642912358e+00 0 0 0
134 2 1.0994614663467276e+01 2.0800672725803713e+00 4.5415932438464903e+00 0 0 0
135 2 1.1387560356339977e+01 3.3105391518895591e+00 3.8403784859391599e+00 0 0 0
136 1 1.3204052869490088e+01 4.5776426717480749e+00 1.0898698134935866e+01 0 0 0
137 2 1.4011720585574770e+01 5.0503997930788351e+00 1.0564397182237544e+01 0 0 0
138 2 1.2900458051859353e+01 5.1825118794175324e+00 1.1589595837851922e+01 0 0 0
139 1 1.3341849590192389e+01 9.8125212586507242e+00 4.3295085096086900e+00 0 0 0
140 2 1.4097955154768940e+01 1.0248030399741069e+01 3.8654376455774799e+00 0 0 0
141 2 1.3769722526494252e+01 9.0593309421623367e+00 4.8302246909153483e+00 0 0 0
142 1 1.5731050107392086e+01 1.1980442657848352e+01 1.1107781179245054e+01 0 0 0
143 2 1.6427723609580895e+01 1.2382858732064621e+01 1.0571872178181897e+01 0 0 0
144 2 1.6162675046041002e+01 1.1231894911639593e+01 1.1569537158394260e+01 0 0 0
145 1 6.5940066248297562e+00 2.3035280367320046e+00 4.9998239683788999e+00 0 0 0
146 2 7.3915509687051291e+00 2.2112320469201228e+00 5.5796642923634359e+00 0 0 0
147 2 6.1600017267246123e+00 3.0379154223714711e+00 5.4279428181693268e+00 0 0 0
148 1 9.4269764614412566e+00 4.1667104955123033e+00 1.2003511150749464e+01 0 0 0
149 2 9.6983795343906127e+00 4.3127921944326122e+00 1.1078930432995671e+01 0 0 0
150 2 1.0151913371053102e+01 3.5852597503285244e+00 1.2358477336556657e+01 0 0 0
151 1 9.4250384525160094e+00 9.2015953900572587e+00 5.1418740436364061e+00 0 0 0
152 2 9.0882343644638794e+00 9.9358745882919646e+00 5.6432755771074508e+00 0 0 0
153 2 9.8169227925871869e+00 9.5587068845962353e+00 4.3423690108392856e+00 0 0 0
154 1 1.1954619034153717e+01 1.1381951381461828e+01 1.2104939364599261e+01 0 0 0
155 2 1.1251830098947782e+01 1.0711040483331395e+01 1.2229025935530419e+01 0 0 0
156 2 1.2197654115837960e+01 1.1170289236185852e+01 1.1141142188884638e+01 0 0 0
157 1 1.4273134610366258e+01 2.5899067139866969e+00 5.2548078127435254e+00 0 0 0
158 2 1.5143031364871671e+01 2.3685549429514587e+00 5.5668991001239228e+00 0 0 0
159 2 1.4390716356667932e+01 2.5840827074686423e+00 4.3068181140456705e+00 0 0 0
160 1 1.6699452344723035e+01 3.8720974422410648e+00 1.1712453665970632e+01 0 0 0
161 2 1.6255485372127040e+01 4.7258047867803263e+00 1.1998097563551438e+01 0 0 0
162 2 2.6221286516461774e+01 3.1185674402376474e+01 1.1969585082961798e+01 0 -1 0
163 1 1.7001361014521127e+01 9.2537428623767433e+00 5.3251616482608179e+00 0 0 0
164 2 1.6490788538018762e+01 1.0032886161704786e+01 5.5924043306025366e+00 0 0 0
165 2 1.7514550676428339e+01 9.6285056670499607e+00 4.5323207357521653e+00 0 0 0
166 1 1.9477060421907247e+01 1.1068060780695363e+01 1.1951234870623603e+01 0 0 0
167 2 1.8866960464478204e+01 1.1793164596771959e+01 1.2228876083290276e+01 0 0 0
168 2 1.9968390293579116e+01 1.1369723952812425e+01 1.1155660969461689e+01 0 0 0
169 1 8.8399917289482133e+00 4.4010451961018546e+00 6.1043568875999501e+00 0 0 0
170 2 9.4629462313117187e+00 3.8614990500369464e+00 5.5414872414173848e+00 0 0 0
171 2 8.1187237550905316e+00 4.6850508633990273e+00 5.4505667186910296e+00 0 0 0
172 1 1.1602092138953186e+01 6.4175264711637077e+00 1.2647570125629182e+01 0 0 0
981 2 2.4405004790528320e+01 2.3845770006520464e+01 3.2497036324909265e+00 0 0 0
850 1 1.1464555907654587e+01 2.3689965429617093e+01 7.6589975039798919e+00 0 0 0
175 1 1.1755625743395051e+01 1.1404555093259717e+01 5.9140453799053736e+00 0 0 0
176 2 1.2379313166234356e+01 1.0826762979231495e+01 5.3743852842228206e+00 0 0 0
177 2 1.2289478508335401e+01 1.1974141047984896e+01 6.4863549539182817e+00 0 0 0
178 1 1.4165754694177437e+01 1.3501507835511056e+01 1.2733547872413608e+01 0 0 0
179 2 1.3383273954925700e+01 1.3499494315918575e+01 1.2148579292969654e+01 0 0 0
180 2 1.4809398184662552e+01 1.3061666117287231e+01 1.2148711710066422e+01 0 0 0
181 1 1.6491053781026576e+01 4.2697911791348906e+00 5.9643377779516618e+00 0 0 0
182 2 1.7167684969877666e+01 3.7788354994849609e+00 5.4377685889545395e+00 0 0 0
183 2 1.6950680745278579e+01 4.8379459451708779e+00 6.6192261908636292e+00 0 0 0
184 1 1.8842383552350825e+01 6.0695281075802772e+00 1.2762582364955820e+01 0 0 0
34 1 1.6544789736704473e+01 1.6921249860242018e+01 1.2847157277107051e+01 0 0 0
1140 2 1.8312774094159934e+01 3.1054566540050967e+01 1.2254883200872008e+01 0 0 0
187 1 1.8736366002918839e+01 1.1429524621800836e+01 6.3423534216376103e+00 0 0 0
188 2 1.8292995518965114e+01 1.0835052092553278e+01 6.9099476326360856e+00 0 0 0
189 2 1.9266853290697572e+01 1.1982845694754086e+01 6.9403816282395567e+00 0 0 0
190 1 2.1937084019238483e+01 1.3205708824717860e+01 1.2797171289584792e+01 0 0 0
207 2 1.5745969990558484e+01 2.0342522120821682e+00 2.0339259407023063e+00 0 0 0
192 2 2.1264225528778738e+01 1.3433337744966609e+01 1.2144366797175378e+01 0 0 0
193 1 8.1957873219507889e+00 2.9225828411627441e+00 2.8059485431530260e+00 0 0 0
194 2 7.4463716950760492e+00 2.9311685677219996e+00 3.4634589103527200e+00 0 0 0
195 2 9.0670890813681027e+00 2.9561995312549048e+00 3.3506907961845940e+00 0 0 0
196 1 1.0725704518101683e+01 4.3622727218443638e+00 9.6636724275424974e+00 0 0 0
197 2 1.0771536539057157e+01 3.8413680173850979e+00 8.8368904619290678e+00 0 0 0
198 2 1.1642553595444944e+01 4.3102786313757866e+00 1.0009555829915261e+01 0 0 0
199 1 1.1062618548843096e+01 9.8257783563424130e+00 2.9317035438572150e+00 0 0 0
200 2 1.1106887067327346e+01 9.1508648178145862e+00 2.2021122089476091e+00 0 0 0
201 2 1.1960095643667477e+01 9.8493772610742223e+00 3.3782009328620148e+00 0 0 0
202 1 1.3330640279726182e+01 1.1531370508708669e+01 9.5717546940053904e+00 0 0 0
203 2 1.4212066294517633e+01 1.1765856563975767e+01 9.9115517117851564e+00 0 0 0
204 2 1.3423174444806344e+01 1.0722502607640157e+01 9.0174010075790783e+00 0 0 0
205 1 1.5768326084962602e+01 2.7808124026714642e+00 2.6322305470193883e+00 0 0 0
314 2 3.4842160699442459e+00 4.2587022374785013e+00 2.6345877382281646e-01 0 0 0
1029 2 2.3418240857071567e+01 2.6122234530760245e+01 6.0945399057292449e-01 0 0 0
48 2 2.3650761995508521e+01 1.6437531741253732e+01 1.3557717887129419e+01 0 0 0
209 2 1.7745584640532787e+01 4.1538524363502560e+00 1.0277895963851325e+01 0 0 0
36 2 1.6235109983882776e+01 1.6227285077449125e+01 1.3475353878990989e+01 0 0 0
211 1 1.8504455229031432e+01 9.7558287694887493e+00 2.8641233458583546e+00 0 0 0
1101 2 1.9301485779071854e+01 2.6351435004484149e+01 3.4952450515422817e-01 0 0 0
213 2 1.8184959319910796e+01 1.0571148529515161e+01 2.3992470168822289e+00 0 0 0
214 1 2.0862550415608258e+01 1.1427926489873098e+01 9.7049785046305619e+00 0 0 0
509 2 2.0189904791423174e+01 5.3011417315797393e+00 1.1874676535884733e+01 0 0 0
1106 2 8.5959655829173283e+00 2.0264892981322806e+01 3.5977842978307666e+00 0 0 0
217 1 5.7913791174620846e+00 1.4926987606390556e+00 1.8299779603481583e+00 0 0 0
218 2 4.9165143619761755e+00 1.1125188385997873e+00 1.8874957351918507e+00 0 0 0
219 2 6.0097153384527697e+00 1.6589458209440375e+00 8.9059494419231111e-01 0 0 0
220 1 8.0911724584743663e+00 3.2262190122300325e+00 8.4328041200462476e+00 0 0 0
221 2 8.1403335051658097e+00 3.9220680164539798e+00 9.1117292773159839e+00 0 0 0
222 2 8.2952220444683160e+00 3.5957092679776599e+00 7.5400631893598558e+00 0 0 0
223 1 7.9775310223481952e+00 8.4321276503542997e+00 1.6779738811300260e+00 0 0 0
224 2 8.7362017462925685e+00 7.8662803248555022e+00 1.9384409994434708e+00 0 0 0
225 2 8.1172392481224307e+00 8.6090613507240139e+00 7.3768705380384503e-01 0 0 0
226 1 1.0640623664105981e+01 1.0166449558310557e+01 8.3076448115754769e+00 0 0 0
227 2 1.1326910277738294e+01 9.4952843240611653e+00 8.5533098171058946e+00 0 0 0
228 2 1.0864132618418525e+01 1.0432563438236061e+01 7.3974418363188406e+00 0 0 0
229 1 1.3364551483116502e+01 1.5224778264393473e+00 1.6969851177811774e+00 0 0 0
230 2 1.2452291591832806e+01 1.1936480829307088e+00 1.6442293224561881e+00 0 0 0
231 2 1.3401957699139803e+01 2.3801528315068410e+00 2.2341069727469494e+00 0 0 0
232 1 1.5560001480775330e+01 3.1634180257862208e+00 8.6997854351906341e+00 0 0 0
233 2 2.6237308204627148e+01 3.0348615063939725e+01 9.0456083799614575e+00 0 -1 0
234 2 1.5810329464941411e+01 3.3598328716737922e+00 7.7793215347783233e+00 0 0 0
235 1 1.5901571415363673e+01 8.3298814415808682e+00 1.9341780124920951e+00 0 0 0
236 2 1.6202088741124122e+01 8.5127955879480872e+00 1.0358153598833790e+00 0 0 0
237 2 1.6623022914532324e+01 7.6652784108175327e+00 2.2522586645389686e+00 0 0 0
238 1 1.7835707217731979e+01 1.0050650613620711e+01 8.7300035953456163e+00 0 0 0
239 2 1.8557210221130322e+01 9.4412212267096045e+00 8.8335246429080083e+00 0 0 0
240 2 1.8011224686385059e+01 1.0854930006609731e+01 9.2794870725077061e+00 0 0 0
241 1 7.5845847622619651e+00 4.7091895938202182e+00 8.8102495741690279e-01 0 0 0
242 2 7.8321116519245191e+00 4.0283851493488907e+00 1.5368818086615190e+00 0 0 0
243 2 6.9225960457892901e+00 5.3351010870796740e+00 1.2559370555031912e+00 0 0 0
244 1 9.9394386682410847e+00 6.3793605254000063e+00 7.7648482529371456e+00 0 0 0
245 2 1.0152139764706913e+01 5.7804357690851429e+00 8.4953975572335700e+00 0 0 0
246 2 9.4740659857632430e+00 5.8337952504204518e+00 7.1170965622876761e+00 0 0 0
247 1 1.0013636865269282e+01 1.1331837563245035e+01 9.1628853621245476e-01 0 0 0
248 2 9.2753483908749566e+00 1.1863026446608826e+01 1.2645524773716990e+00 0 0 0
249 2 1.0373208353046424e+01 1.0988894965248051e+01 1.7368600111741594e+00 0 0 0
250 1 1.2512221173685164e+01 1.3674619832966837e+01 7.6476084569879728e+00 0 0 0
251 2 1.3005782466008021e+01 1.3081749627282438e+01 8.2316862362188274e+00 0 0 0
252 2 1.3178946844683525e+01 1.4259224085843529e+01 7.1929145055052892e+00 0 0 0
253 1 1.4867474246305083e+01 4.9440530233131224e+00 9.2750548675592970e-01 0 0 0
254 2 1.5165679112644492e+01 4.3426410034624316e+00 1.6716463819266583e+00 0 0 0
255 2 1.4130778994559387e+01 5.5972950341458647e+00 1.1616044800894787e+00 0 0 0
256 1 1.7652901185745872e+01 6.1791258840055239e+00 7.8347552909396905e+00 0 0 0
257 2 1.8194551345355872e+01 5.6972913180409268e+00 8.4895565379707634e+00 0 0 0
258 2 1.7107623875557124e+01 6.7729914285170967e+00 8.3610466335086731e+00 0 0 0
259 1 1.7671037154082953e+01 1.1593341451811366e+01 1.0761593932064195e+00 0 0 0
260 2 1.6996495620075201e+01 1.2314191792476645e+01 1.3074390309076291e+00 0 0 0
173 2 1.1996803604834366e+01 7.1825651145348814e+00 1.3136167704432635e+01 0 0 0
262 1 2.0038451197898429e+01 1.3204610049984028e+01 7.7933708726022806e+00 0 0 0
263 2 2.0359346436472073e+01 1.2565241598073120e+01 8.4490459597790828e+00 0 0 0
264 2 2.0863092054751242e+01 1.3579094437678458e+01 7.4426364235051130e+00 0 0 0
265 1 9.7646349630533482e+00 6.2202336114262158e+00 2.9883406101264214e+00 0 0 0
266 2 8.8439851644766740e+00 6.0129642318335543e+00 3.2108081211965724e+00 0 0 0
267 2 1.0049900574092783e+01 5.5620861139930025e+00 2.2938777196910145e+00 0 0 0
268 1 1.2197721239958586e+01 7.7586562419556682e+00 9.5533631346048526e+00 0 0 0
269 2 1.2692141713960662e+01 7.1860615728158592e+00 8.9192641480800905e+00 0 0 0
270 2 1.1416155887332479e+01 7.2362665159461947e+00 9.9843398511097270e+00 0 0 0
271 1 1.2308841722079078e+01 1.3428310040911914e+01 2.7252225844366760e+00 0 0 0
272 2 1.2950710791241388e+01 1.3566555301841960e+01 3.4117323201658123e+00 0 0 0
273 2 1.1621170005040822e+01 1.2877644993960862e+01 3.1768357824820583e+00 0 0 0
274 1 1.4671190951704524e+01 1.4868336052910621e+01 9.3449056466487743e+00 0 0 0
275 2 1.4277323336110163e+01 1.5764528118208867e+01 9.2633759320607734e+00 0 0 0
276 2 1.5467092332195378e+01 1.4960704566719683e+01 9.8902671216976046e+00 0 0 0
277 1 1.7267989043912394e+01 6.1953230292052979e+00 3.0604646470771528e+00 0 0 0
278 2 1.6359572310273201e+01 5.9148687264666115e+00 3.4076638577252600e+00 0 0 0
1149 2 2.2319165224439995e+01 2.7907932576845035e+01 4.9420460083808750e+00 0 0 0
280 1 1.9667580013919874e+01 8.0455687944934784e+00 9.4353144948954828e+00 0 0 0
1137 2 1.5491642625185417e+01 2.9257272882446038e+01 5.1791261861468971e+00 0 0 0
208 1 1.8489555378098196e+01 4.2426432311335622e+00 9.6434370402216931e+00 0 0 0
283 1 1.9596088002431671e+01 1.3129675538882616e+01 2.6486370036995996e+00 0 0 0
185 2 1.9232988971574834e+01 6.8962595912543891e+00 1.3177963406483059e+01 0 0 0
1364 2 9.6495347820725925e+00 2.3564160326960049e+01 3.1524023176577849e+00 1 0 0
286 1 2.2302361837120692e+01 1.4800399771084361e+01 9.5610225305078682e+00 0 0 0
39 2 1.8672763552537990e+01 7.1892690226627085e+00 6.9676059042360947e+00 0 0 0
288 2 2.2032814918521908e+01 1.5666096630057297e+01 9.2086128591607181e+00 0 0 0
289 1 5.6662521715434826e+00 6.9316938914563924e+00 1.7387105354353352e+00 0 0 0
290 2 5.4370853419509135e+00 6.8164109608083692e+00 2.6963460921842648e+00 0 0 0
291 2 6.4204574454217926e+00 7.5519094300123450e+00 1.6635966219566598e+00 0 0 0
292 1 8.4057188057575711e+00 8.6375753238601227e+00 8.8029582732903773e+00 0 0 0
293 2 8.9951756402800367e+00 7.9082317576674264e+00 8.4173721253183125e+00 0 0 0
294 2 8.9969114023185739e+00 9.3722410973114254e+00 8.6741273171503224e+00 0 0 0
295 1 8.4918360667299595e+00 1.3892460924940961e+01 1.8139104132890329e+00 0 0 0
296 2 8.0106128604285587e+00 1.3423043913531538e+01 2.4784382441817221e+00 0 0 0
297 2 7.7724853987031919e+00 1.4307820667873818e+01 1.3191086031627826e+00 0 0 0
298 1 1.0972040815176824e+01 1.5881240746226727e+01 8.6317372080109411e+00 0 0 0
299 2 1.1242123819392077e+01 1.5136961927393159e+01 8.0697494503445419e+00 0 0 0
300 2 1.0232178617004781e+01 1.6232362012248739e+01 8.0841735054986898e+00 0 0 0
301 1 1.3513740924040693e+01 7.2390225510785413e+00 1.8178671223143568e+00 0 0 0
302 2 1.3182503942610708e+01 7.0957639841957132e+00 2.7526242338024649e+00 0 0 0
303 2 1.4319043107505282e+01 7.8140376551246602e+00 1.9623188042241113e+00 0 0 0
304 1 1.5756013601511503e+01 8.3496724662252682e+00 8.5413074786701753e+00 0 0 0
305 2 1.5542891438299653e+01 8.1858480794050426e+00 9.4751942134225065e+00 0 0 0
306 2 1.6407398299732819e+01 9.1394564355806569e+00 8.5788799237147213e+00 0 0 0
307 1 1.6151263954333121e+01 1.3686999203267865e+01 1.7601558919187812e+00 0 0 0
308 2 1.5307103742631634e+01 1.3960345390896205e+01 1.3265424437473521e+00 0 0 0
309 2 1.6877801650458093e+01 1.4318452870529034e+01 1.6503809083976562e+00 0 0 0
310 1 1.8679390328847759e+01 1.5484081583775003e+01 8.6007430811184520e+00 0 0 0
311 2 1.9028538086186590e+01 1.4670138553571793e+01 8.2008120269272187e+00 0 0 0
312 2 1.7885152118693206e+01 1.5680815165744633e+01 8.0427436649165589e+00 0 0 0
846 2 8.6252321651640003e+00 1.7331933512635086e+01 8.0749599010519404e+00 0 0 0
860 2 1.5867477727461431e+01 2.1583484963633204e+01 3.7179280638556500e-01 0 0 0
315 2 4.3183550933182087e+00 4.5137301903386522e+00 1.5662684002998395e+00 0 0 0
316 1 6.3148961380428883e+00 6.7034390128434200e+00 7.8986537507303289e+00 0 0 0
317 2 6.6195088757279050e+00 7.1759184894882280e+00 7.1475364652739222e+00 0 0 0
318 2 5.5042880388480864e+00 7.1406927316263591e+00 8.2241094387849518e+00 0 0 0
319 1 6.2138624430307310e+00 1.1758787279930786e+01 7.7512003396442131e-01 0 0 0
1136 2 1.4594766093646893e+01 2.8377353092551591e+01 6.2017501498565055e+00 0 0 0
321 2 6.7810141909940853e+00 1.1484046566927342e+01 1.5738721334529440e+00 0 0 0
322 1 9.0573117879007246e+00 1.3665693736662375e+01 7.6396829368056194e+00 0 0 0
323 2 8.4483377099521064e+00 1.4154358072249071e+01 8.2421956959440656e+00 0 0 0
324 2 8.5057864787847421e+00 1.2918083757059140e+01 7.2454448293752813e+00 0 0 0
325 1 1.1307546079818369e+01 4.7186815233932915e+00 1.1548653825175452e+00 0 0 0
978 2 2.3782949803975370e+01 1.7720858195415026e+01 9.0194599253725478e+00 0 0 0
114 2 1.4697900299645422e+01 5.5926417571490958e+00 1.3218128716120333e+01 0 0 0
328 1 1.3758954986960628e+01 6.4858992160652349e+00 7.6182446108244886e+00 0 0 0
329 2 1.3377041394058930e+01 5.5910460344785147e+00 7.2424216657919036e+00 0 0 0
330 2 1.4572952926700861e+01 6.2613246178750996e+00 8.0960342894637876e+00 0 0 0
331 1 1.3987332087968284e+01 1.1985189185895232e+01 1.1008636972297072e+00 0 0 0
332 2 1.3383132514302437e+01 1.2568298877308555e+01 1.6545734994387777e+00 0 0 0
333 2 1.4621375169777446e+01 1.1501136144582595e+01 1.6669308509026521e+00 0 0 0
334 1 1.6305067654947290e+01 1.3194434653882771e+01 7.6747601329643294e+00 0 0 0
335 2 1.6538345978447182e+01 1.3619956247199813e+01 6.7785077584275291e+00 0 0 0
336 2 1.5742265358780362e+01 1.3860930338008593e+01 8.1123853472804726e+00 0 0 0
337 1 4.4202279954768260e+00 6.4744753121043912e+00 4.4013945473822522e+00 0 0 0
338 2 4.7427521072995322e+00 5.6056254035062354e+00 4.8103510919798760e+00 0 0 0
1109 2 1.2131809673689357e+01 2.2881699116499572e+01 1.1718935586303028e+01 0 0 0
340 1 6.6556838216731826e+00 8.1956642652749530e+00 1.0962513288291804e+01 0 0 0
814 1 2.9103528069194923e+01 3.1017972705234193e+01 1.2875065014349062e+01 0 0 0
342 2 7.3339678350117907e+00 8.4634753646342524e+00 1.0307931031595237e+01 0 0 0
816 2 1.8149916015576480e+01 3.4336056507750898e+00 1.2469538653012401e+01 0 1 0
1050 2 2.4881446487739222e+01 2.1297539467440860e+01 8.9989418086011330e+00 0 0 0
1617 2 9.1616641967717598e+00 1.1739884616423844e+01 1.3420581756963786e+01 0 0 0
346 1 9.4118135989636293e+00 1.5005463232601457e+01 1.1090469354353401e+01 0 0 0
347 2 1.0022953945101690e+01 1.5103227687592947e+01 1.0350259660288602e+01 0 0 0
348 2 9.7078579605770443e+00 1.4242151433640633e+01 1.1671179753424530e+01 0 0 0
349 1 1.2210982249731170e+01 6.5870286313975335e+00 4.3542871442378397e+00 0 0 0
350 2 1.2039404344736070e+01 7.1999616486834688e+00 5.1316802515696347e+00 0 0 0
351 2 1.1350743182810090e+01 6.4835627259170243e+00 3.9504400691124135e+00 0 0 0
352 1 1.4404353173277975e+01 8.2795512223144989e+00 1.1109077620580667e+01 0 0 0
353 2 1.4791404150722739e+01 7.5292566028049137e+00 1.1624713610013099e+01 0 0 0
354 2 1.3536024470460843e+01 7.9488204776477591e+00 1.0873408911501048e+01 0 0 0
355 1 1.4474764466770774e+01 1.3208299217057053e+01 4.5206007415106244e+00 0 0 0
356 2 1.4696983131051828e+01 1.2568685045905063e+01 5.1998853620678753e+00 0 0 0
357 2 1.5190506898096583e+01 1.3051058257237454e+01 3.8834557120098840e+00 0 0 0
358 1 1.6976885285029734e+01 1.5016943012364518e+01 1.0948108377485516e+01 0 0 0
359 2 1.6979098801790403e+01 1.5800002979108100e+01 1.1589081429795108e+01 0 0 0
360 2 1.7662546021854116e+01 1.5332961033880805e+01 1.0327976318798646e+01 0 0 0
361 1 7.1303247278208293e+00 7.8779715331213405e+00 5.5978604254633408e+00 0 0 0
362 2 6.5653197026312258e+00 8.5059185954200824e+00 5.1173936713461758e+00 0 0 0
363 2 8.0392793276319949e+00 8.0921289163497292e+00 5.3170716403477840e+00 0 0 0
364 1 9.6020178745074531e+00 9.5604209151953512e+00 1.2089315884215345e+01 0 0 0
365 2 9.0432838481681017e+00 1.0290704137015666e+01 1.1816191942629839e+01 0 0 0
366 2 9.1264079684950019e+00 9.2749334186323260e+00 1.2925984293285524e+01 0 0 0