LAMMPS data file via write_data, version 15 Apr 2020, timestep = 0

6144 atoms
2 atom types

-1.5856074745518178e+00 6.1553896605734408e+01 xlo xhi
0.0000000000000000e+00 2.8019737024003852e+01 ylo yhi
0.0000000000000000e+00 2.7080012640079858e+01 zlo zhi
1.0145239932469494e+01 1.0169247242217665e+01 7.1048969265845230e+00 xy xz yz

Masses

1 16
2 2

Atoms # atomic

1595 2 1.9632374694679516e+01 2.2685404695424310e+01 1.8188385113293862e+01 0 0 0
1604 2 1.6438614703419539e+01 1.9917261196064278e+01 2.3539147318979740e+01 0 0 0
1023 2 2.1849722619647121e+01 1.8519048069269761e+01 1.0231428808852527e+01 0 0 0
987 2 1.5687535240417123e+01 1.3268129735694913e+01 2.1735764185181655e+01 0 0 0
225 2 6.3048559380560043e+00 4.6383706217161684e+00 3.2877936426589760e+00 0 0 0
52 1 1.3509991515887215e+01 2.7543290391124085e+01 1.1845480013155408e+01 0 -1 0
25 1 9.2092097437528189e+00 1.1824700325602880e+01 1.0168015339114451e+01 0 0 -1
1625 2 1.7655934724319767e+01 1.9235884988668538e+01 1.9121188330395253e+01 0 0 0
2464 1 1.1270326156755470e+01 1.8159316919796201e+01 7.0727916035375005e+00 0 1 0
886 1 1.6982040648474726e+01 2.2365765030164980e+01 2.0238618331840350e+01 0 1 -1
1633 1 1.8417763441756026e+01 1.6578080474012541e+01 2.1405485543263008e+01 0 0 0
849 2 1.5060294561993118e+01 2.0384457228004280e+01 1.1780385247454680e+01 0 0 -1
2443 1 1.2537083500543096e+01 1.4433985124347551e+01 9.1592785859801644e+00 0 1 0
358 1 1.6726603089737875e+01 2.4278343443732602e+01 2.3633732984765278e+01 0 0 0
2466 2 1.1575297371278088e+01 1.9081383184335163e+01 7.0385639999450138e+00 0 1 0
1895 2 9.9208981842006505e+00 1.3844182059869892e+01 7.0018086386375185e+00 0 0 1
1670 2 3.3255068000965160e+00 4.2115914089324189e+00 1.7048105110836562e+00 0 0 0
1634 2 1.8276851414178196e+01 1.6091057080857208e+01 2.0566044898101698e+01 0 0 0
1064 2 2.5588069097198701e+01 2.8660730953863617e+01 2.2783241872266004e+01 0 0 -1
1894 1 9.1114254857454888e+00 1.3311848846431440e+01 7.1175204558300003e+00 0 0 1
1740 2 1.6659097271858503e+01 2.1737997504342395e+01 2.6842629664335735e+01 0 0 0
1916 2 1.6781763728665570e+01 2.3134590291229941e+01 1.6567965261180376e+01 0 0 0
611 2 8.2369937897691550e+00 4.1126739754514761e+00 1.4843209873121760e+01 0 1 0
1709 2 1.2273089749979645e+01 6.4056584163197954e+00 1.7657418239674133e+01 0 0 0
487 1 1.6949986348091045e+01 2.6251070525380115e+01 2.5657442347990301e+01 0 0 -1
53 2 1.4182192202163705e+01 2.6947712723137549e+01 1.2203897419090282e+01 0 -1 0
1587 2 1.3699262080684754e+01 1.5570371670751307e+01 1.5574882450019372e+01 0 0 0
1586 2 1.4602940871901914e+01 1.6600291619333522e+01 1.6322607428614994e+01 0 0 0
2380 1 9.9904192438333617e+00 2.0359740877169337e+01 1.4405635347962292e+01 0 0 0
2564 2 1.9393933859622198e+01 1.8501273897553979e+01 2.6404616636576876e+01 0 1 -1
416 2 1.2646082624692458e+01 1.8730763640416214e+01 1.9483634652484717e+01 0 0 0
1871 2 1.6075923163759114e+01 2.3911851215432556e+01 2.0144200421569394e+01 0 0 0
610 1 1.7798704440627446e+01 3.1393763404047647e+01 1.4899709443578738e+01 0 0 0
1275 2 3.4704556446347992e+00 6.3662978892414142e+00 2.1481881392377575e+00 0 0 0
2671 1 5.7516821418764899e+00 5.6930977011765291e+00 1.3525088008826659e+01 0 1 0
2450 2 1.5353278139896997e+01 2.3164552605924914e+01 2.3220458687852759e+01 0 0 0
1708 1 1.2380204841913967e+01 6.9041248648739160e+00 1.6819976135573874e+01 0 0 0
27 2 9.8806416416378564e+00 1.1304213392692223e+01 9.6602458593779552e+00 0 0 -1
907 1 1.9499598707556775e+01 2.6233690176141877e+01 2.2405791665807602e+01 0 0 -1
99 2 1.2166884539339286e+01 8.9291881341415174e+00 4.3021050228897808e+00 0 0 0
1561 1 1.2265934132039852e+01 1.5515904826802915e+01 1.4603958490384693e+01 0 0 0
1901 2 1.1814111368901019e+01 9.2888207529915263e+00 2.5974291089497253e+01 0 0 0
174 2 2.0163345290453538e+01 5.0390180662104793e+00 1.8464609286752768e+01 0 0 -1
1521 2 1.7483880076262562e+01 1.0322356991733889e+01 4.0507698905008072e+00 0 0 0
924 2 1.8818795378452812e+01 2.0332921187917350e+01 1.0657493914506043e+01 0 0 0
149 2 9.2951206584542412e+00 8.0343752859917981e+00 2.4638786584807875e+01 0 0 -1
224 2 7.0958929944025204e+00 5.9527484080967268e+00 3.7402663919366281e+00 0 0 0
1781 2 9.9411288649167062e+00 1.1343373692110966e+01 1.6480667963371587e+01 0 0 0
1710 2 1.2695043751044835e+01 6.2297687086727258e+00 1.6185603809195648e+01 0 0 0
1689 2 1.1405874684130080e+01 8.0270878447024092e+00 1.0332625752857680e+01 0 0 0
1705 1 1.5415951470713306e+01 1.7332000736233134e+01 1.8750622522720342e+01 0 0 -1
1773 2 2.1337211310389829e+01 3.2048829557166123e+01 2.5718683351414967e+01 0 0 -1
101 2 5.0431624339916539e+00 7.0153139504088138e+00 8.6681968529204489e+00 0 0 0
1570 1 1.3493884821652014e+01 1.2979589886154006e+01 1.7645518305087290e+01 0 0 1
2314 1 1.7020342076498000e+01 2.7617925095197190e+01 1.2095216270738865e+01 0 0 1
1129 1 1.2298717276730871e+01 1.4954337816962845e+01 2.2281171049427286e+01 0 0 -1
2360 2 1.0727901031453900e+01 1.3875348202590303e+01 1.1652930707713914e+01 0 0 0
1635 2 1.7592910429725013e+01 1.6319143902033385e+01 2.1870505859005259e+01 0 0 0
1017 2 1.0847278097589403e+01 5.4839500667672709e+00 1.1729136625131259e+01 0 1 -1
1202 2 2.3942094547671502e+01 1.5033234809602678e+01 1.6084014327234460e+01 0 1 -1
821 2 1.0143442217233265e+01 1.7700611329897189e+01 1.0927032409351227e+00 0 0 0
1059 2 1.1043776853658510e+01 2.6586470394329833e+01 4.0806909191051804e-01 0 0 0
896 2 2.1140402494844889e+01 2.8862871031090052e+01 2.3289695544080040e+01 0 0 -1
868 1 7.7449184999870582e+00 1.5050692166867567e+01 8.9256670471563311e+00 0 0 0
944 2 5.6644632780014472e+00 1.3929920082364577e+01 1.8088254474641314e+00 0 1 0
1571 2 1.4152888053740169e+01 1.3704516062852168e+01 1.7629588261936192e+01 0 0 1
1659 2 1.7786327570403841e+01 2.7019478822814659e+01 1.9205684595242932e+01 0 -1 0
894 2 1.3178695778145579e+01 2.0284119260396736e+01 1.0749060569978864e+01 0 0 0
2217 2 2.8815029731747295e+01 2.6327118210075618e+01 2.0633780149259572e+01 0 0 0
292 1 5.5069404657111249e+00 1.3141266032678502e+01 7.5323933277905413e+00 0 0 0
1113 2 1.1951002230091554e+01 2.1548949017661215e+01 1.1730816898904816e+01 0 0 0
1669 1 3.8941644026257523e+00 4.9304946927762714e+00 1.4519317826639246e+00 0 0 0
1063 1 2.4689839539335711e+01 2.8260919446270595e+01 2.2862912768421367e+01 0 0 -1
1671 2 4.7709916708577387e+00 4.5787625349725332e+00 1.6326344643581954e+00 0 0 0
850 1 7.1429253504691879e+00 1.3036237384964053e+01 1.3019823854108166e+01 0 1 0
1001 2 6.8616844983521670e+00 1.4962688790873777e+01 5.4125760063837847e+00 0 0 0
846 2 1.5712041006326427e+01 1.7820868009534326e+01 2.6163695251206519e+01 0 0 -1
359 2 1.6542000479158258e+01 2.5031999614052065e+01 2.2943706985223386e+01 0 0 0
1739 2 1.6563493593952547e+01 2.1162965435368157e+01 2.5414987520125596e+01 0 0 0
822 2 8.9191420759814068e+00 1.7575207058192383e+01 1.2870629459323485e-01 0 0 0
2471 2 2.2216555919254972e+01 1.1692257311140901e+01 1.7933678863286836e+01 0 1 0
1112 2 1.1418937022738557e+01 2.2705941431300012e+01 1.2722286727981780e+01 0 0 0
887 2 1.7670119380258438e+01 2.2371193828367808e+01 1.9516048892200679e+01 0 1 -1
2465 2 1.2051046091151170e+01 1.7581977155880924e+01 6.8910732967811024e+00 0 1 0
54 2 1.2836031523468689e+01 2.7652843369361911e+01 1.2516695989743056e+01 0 -1 0
102 2 5.4927561735094574e+00 8.4535558434680880e+00 8.7670346585937882e+00 0 0 0
223 1 6.4098875107910960e+00 5.2923125811325313e+00 4.0074942940289331e+00 0 0 0
1917 2 1.5382745942017035e+01 2.3784801836379039e+01 1.6759569641946065e+01 0 0 0
353 2 7.1842636747152522e+00 9.9754727516410266e+00 8.2094581945947223e+00 0 0 0
2407 1 9.0966940602234700e+00 1.7641976287668392e+01 8.4918306618819237e+00 0 0 0
1687 1 1.0570384443563434e+01 8.2591594222542675e+00 9.8804736046796400e+00 0 0 0
986 2 1.4197917752693765e+01 1.2957244627908288e+01 2.1477143424359603e+01 0 0 0
1706 2 1.6184743342407721e+01 1.7874885452729096e+01 1.8462998290855936e+01 0 0 -1
1703 2 9.8830383728098887e+00 1.3206423260714651e+01 1.6149508197801776e+01 0 0 0
1374 2 2.7982636920802335e+01 2.3971097141007011e+01 2.6340950664048638e+01 0 0 -1
1688 2 1.0588246803753908e+01 9.2042399606957712e+00 9.7524658602401377e+00 0 0 0
1002 2 6.2586291290524718e+00 1.3748278738056223e+01 6.2346189506670191e+00 0 0 0
1610 2 8.0259100385901068e+00 1.7769606063162513e+01 1.8757108496555392e+00 0 -1 0
922 1 1.8605171820544179e+01 1.9714341964151991e+01 1.1360801869712732e+01 0 0 0
2409 2 9.2229728638329398e+00 1.7967634815826038e+01 9.3911773333855617e+00 0 0 0
845 2 1.4783382712435774e+01 1.8076942672830100e+01 2.4887466854690555e+01 0 0 -1
1563 2 1.2797193563989655e+01 1.6015957874655637e+01 1.3940091260707129e+01 0 0 0
908 2 1.9940617343980815e+01 2.5940323529100706e+01 2.1574393416910137e+01 0 0 -1
893 2 1.2394436828395476e+01 2.0691264555253859e+01 9.3688481129619454e+00 0 0 0
28 1 1.9674665141494874e+01 2.2048160170366501e+01 1.4408918532269480e+01 0 0 0
1115 2 5.7277763817949037e+00 8.5763852476504674e+00 1.2510132274818480e+01 0 1 0
870 2 8.3739831129309952e+00 1.5814089416777964e+01 8.8746669690394953e+00 0 0 0
300 2 1.2275780579009416e+01 2.1162543859042398e+01 6.8832392773388724e+00 0 0 0
1585 1 1.4377973591061684e+01 1.5643630675866905e+01 1.6266807276400876e+01 0 0 0
2414 2 1.3782749235585374e+01 1.8389916939453311e+01 1.4820141305964022e+01 0 0 1
2436 2 2.2993019589833271e+01 2.5181261377464459e+01 1.0268949248677798e+01 0 0 0
2441 2 1.6660469791144887e+01 2.1944912431337787e+01 1.1805965917721553e+01 0 0 1
847 1 1.4477118906625627e+01 1.9574603362394175e+01 1.1815085342563837e+01 0 0 -1
1562 2 1.1624732686576394e+01 1.6136000870452165e+01 1.5036961303029026e+01 0 0 0
1015 1 1.0503029352238039e+01 6.0836029243046159e+00 1.2378199009120802e+01 0 1 -1
1738 1 1.6439978174899810e+01 2.1984651851340033e+01 2.5953598066168173e+01 0 0 0
949 1 2.4205468322386793e+01 2.2707684728059306e+01 1.4314181188314365e+01 0 -1 0
30 2 2.0122039840320273e+01 2.2864786554662089e+01 1.4301776757459910e+01 0 0 0
633 2 7.6663859948513000e+00 1.4298306902436220e+01 1.3936542326506673e+01 0 0 0
293 2 6.0500718077937083e+00 1.2525641254560441e+01 8.1344853077323709e+00 0 0 0
150 2 1.0728535705224264e+01 7.5311243465761297e+00 2.5064623853245664e+01 0 0 -1
2440 1 1.5809755004549370e+01 2.1846750656771221e+01 1.1287023402502106e+01 0 0 1
98 2 1.3692235845213466e+01 8.9593699256704227e+00 4.0370707354901088e+00 0 0 0
2408 2 9.9496148840407788e+00 1.7843321534473930e+01 8.0653564286504054e+00 0 0 0
369 2 1.2896886187496165e+01 1.3400853107395983e+01 1.2626961486124742e+01 0 0 -1
1065 2 2.4143336814973765e+01 2.8223577026948313e+01 2.2064470836777421e+01 0 0 -1
1130 2 1.2217623967456067e+01 1.3983328356283366e+01 2.2065449398660380e+01 0 0 -1
2355 2 2.2459257129332517e+01 2.8528048647879153e+01 1.6976847488962189e+01 0 0 0
962 2 2.6288444886170883e+01 2.9444751595775195e+01 2.4859375705044496e+01 0 0 -1
888 2 1.6262907530733113e+01 2.1820017720742964e+01 1.9798228066776165e+01 0 1 -1
1135 1 1.0965654004200410e+01 1.0786324538327499e+01 2.3269367577259395e+01 0 1 -1
299 2 1.1038787671303101e+01 2.1261083189484083e+01 7.7358411445196493e+00 0 0 0
626 2 1.1127563797900919e+01 8.1316704841357623e+00 4.5888381980618609e-01 0 0 0
873 2 1.2541528549330151e+01 1.5299667958376830e+01 1.7534132771094683e+01 0 0 0
105 2 7.8000456191835976e+00 1.1773210627067010e+01 9.2886984915537170e+00 0 0 0
2311 1 2.0081496802438320e+01 1.5740068303291761e+01 2.6658140477587978e+01 0 1 -1
1515 2 1.0187286005550508e+01 1.7794361426947166e+01 3.8080326532200557e+00 0 0 0
1896 2 8.4668360221157091e+00 1.3672049342361170e+01 6.4731439200388294e+00 0 0 1
1546 1 1.3508096850513029e+01 1.4770374334126618e+01 2.4730188744100548e+01 0 1 0
984 2 1.7473579792320962e+01 8.0908933551458802e+00 1.4250613202941581e+01 0 1 -1
588 2 6.4320417690942850e+00 1.1322145606516138e+01 3.5853433404743869e+00 0 0 0
909 2 1.8487451301784983e+01 2.6246383788700903e+01 2.2253719897539504e+01 0 0 -1
2668 1 2.0543545500407006e+01 2.6155364455235780e+01 1.2468451735044848e+01 0 0 0
2354 2 2.4012663271270426e+01 2.9082281065081553e+01 1.6879142411572385e+01 0 0 0
217 1 1.1534545709092340e+01 2.3918432679690870e+01 9.2540050716706190e+00 0 -1 0
435 2 1.9436161953179329e+01 1.0952961114542083e+01 1.3602700494668072e+01 0 0 -1
32 2 9.8337904595460284e+00 2.6079066540456722e+01 6.6421512234576729e+00 0 0 0
1132 1 1.0315930540647917e+01 7.2012010503946371e+00 7.3423446888723225e+00 0 1 0
1780 1 1.0528202755789422e+01 1.1677666803685412e+01 1.5833079347345786e+01 0 0 0
898 1 1.4655663898951996e+01 2.6155482040809069e+01 1.7942681946311978e+01 0 0 0
1514 2 1.0469037366467401e+01 1.7599043655390901e+01 5.2831322541867038e+00 0 0 0
932 2 1.7552550092012542e+01 5.6038872203942560e+00 1.0206248846568437e+01 0 1 0
352 1 7.3234965235564093e+00 9.0612402130783671e+00 7.9422894204587013e+00 0 0 0
961 1 2.6737338494882376e+01 2.9683482966363435e+01 2.3978054805240117e+01 0 0 -1
885 2 1.5704861898983882e+01 5.3146123315316789e+00 1.9269230062595174e+01 0 1 -1
1638 2 9.4436940972756069e+00 1.1524899014679157e+01 1.8529911509638623e+01 0 0 0
2316 2 1.7269528460035215e+01 2.7251305323114508e+01 1.2997979543265973e+01 0 0 1
975 2 1.5480083739520712e+01 2.5465636029442550e+01 9.0059752065539840e+00 0 0 0
818 2 2.0895143612306487e+01 3.2468714325549563e+01 1.7217456269955825e+01 0 0 -1
775 1 1.1442293323272876e+01 2.3829476357197194e+01 5.2957158428075797e+00 0 0 0
1603 1 1.7014939772546743e+01 1.9887786816905205e+01 2.4363043687273727e+01 0 0 0
1678 1 1.9425344471473633e+01 1.3045560601104880e+01 2.5088304347664372e+00 0 0 1
1605 2 1.6892755774463762e+01 1.8989284734949134e+01 2.4685604425164509e+01 0 0 0
2532 2 1.4210036455740788e+01 2.2233106864124011e+01 1.7453976609920517e+01 0 0 0
77 2 1.0113284614871670e+01 2.5455396795914346e+01 2.1240408715561889e+00 0 -1 0
100 1 4.7290219505430144e+00 7.9565989221183377e+00 8.8148362235073616e+00 0 0 0
1877 2 2.1045406839353667e+01 3.3560413971086952e+01 2.1588804696752266e+01 0 -1 0
2669 2 1.9987685006067739e+01 2.5705174733490125e+01 1.1784614058417281e+01 0 0 0
2323 1 7.9029848727823104e+00 2.0662927355901100e+01 1.3733681366142791e+00 0 1 1
2673 2 5.0761469212298032e+00 5.0306968223691104e+00 1.3829856841938112e+01 0 1 0
1016 2 9.6900530876418571e+00 5.7358201650441298e+00 1.2762399613512425e+01 0 1 -1
2283 2 1.2776810551307857e+01 2.3441274019820455e+01 7.7665216468081431e+00 0 -1 0
995 2 3.3748443677139601e+00 8.7440936402966916e+00 2.3474572473493547e+00 0 1 0
97 1 1.2996945880852204e+01 8.7317212368577852e+00 4.7303698055995360e+00 0 0 0
2361 2 1.0003431994164464e+01 1.4968954991918835e+01 1.0938999043066413e+01 0 0 0
2186 2 2.3618088634472624e+01 2.8960075562861810e+01 4.3101780650932131e+00 0 -1 0
1513 1 1.0072760120965299e+01 1.7132783039881517e+01 4.4957529657832094e+00 0 0 0
1078 1 1.6926008579889231e+01 2.4783439984597898e+01 1.4320668817793402e+01 0 0 0
963 2 2.7497710858104913e+01 2.9066675044741899e+01 2.3849263536180146e+01 0 0 -1
1547 2 1.3087724765881614e+01 1.4687833905126240e+01 2.3836522303115974e+01 0 1 0
2353 1 2.3460596245379634e+01 2.8286305485667967e+01 1.6907629919582867e+01 0 0 0
917 2 1.4126238103965994e+01 1.2327591574397220e+01 2.6569783580901454e+01 0 1 -1
417 2 1.2752603318487289e+01 2.0008669795726092e+01 2.0274510010925997e+01 0 0 0
985 1 1.5083225737647684e+01 1.3068559733628289e+01 2.1046082570468688e+01 0 0 0
1884 2 1.0751728336615161e+01 1.8637572061851948e+01 1.1894819321253644e+01 0 0 0
76 1 9.5864825786577299e+00 2.4615357945550574e+01 2.1468827281378706e+00 0 -1 0
298 1 1.2021032505523998e+01 2.0953175695158958e+01 7.7656316201466815e+00 0 0 0
1707 2 1.4745982299786782e+01 1.7953851036004508e+01 1.8280929119794990e+01 0 0 -1
2651 2 2.7129136620261523e+01 2.4741622349009383e+01 2.1270287990851070e+01 0 0 0
612 2 1.8224769093633274e+01 3.0822494056990895e+01 1.5613340301331974e+01 0 0 0
2391 2 1.1370428545523108e+01 2.6730487562755396e+01 8.3461624440463140e+00 0 0 0
1079 2 1.6794333084702128e+01 2.4361473095794917e+01 1.5198921849143270e+01 0 0 0
883 1 1.5929269634195041e+01 5.9969175348850658e+00 1.8584788708343218e+01 0 1 -1
2442 2 1.6115408625882676e+01 2.2215794503728265e+01 1.0422833825352566e+01 0 0 1
1915 1 1.6337526942426020e+01 2.3997502326560966e+01 1.6732448541713627e+01 0 0 0
2451 2 1.4050792342539019e+01 2.3128705258628433e+01 2.2342450033495584e+01 0 0 0
2315 2 1.6679211931279863e+01 2.6781718155954557e+01 1.1675385680884142e+01 0 0 1
348 2 7.0932123907730684e+00 1.4566884555299865e+01 1.0475495963743786e+01 0 0 0
983 2 1.7333904106345521e+01 8.7765707218400184e+00 1.5766403698664526e+01 0 1 -1
923 2 1.7819763627775114e+01 1.9152823166903929e+01 1.1029430425833295e+01 0 0 0
2572 1 1.5114354105090190e+01 2.1081560340346133e+01 1.8797199986296317e+01 0 0 0
354 2 8.0326640725063072e+00 8.6987522935881145e+00 8.4320820734308288e+00 0 0 0
156 2 9.5981327669624612e+00 5.5879674092664322e+00 7.8268623725284412e+00 0 0 0
1589 2 9.7503237101245528e+00 2.3240656583767976e+01 9.2533904632734432e-01 0 -1 1
1616 2 1.2866823071699701e+01 2.0432198358920726e+01 1.5012461421751810e+01 0 -1 0
1050 2 1.1796307665463246e+01 2.0170965719826022e+01 4.3686849096105336e+00 0 0 0
1081 1 1.8508899084427870e+01 1.4999740934975165e+01 1.9007092597672738e+01 0 0 -1
1594 1 1.8922275220010594e+01 2.2021298823006287e+01 1.8425534325395212e+01 0 0 0
2445 2 1.1713450101685773e+01 1.4383836351332924e+01 9.7085599822013275e+00 0 1 0
1588 1 9.7098302226726041e+00 2.2388431374643059e+01 4.2178508333033315e-01 0 -1 1
1150 1 1.8922763768423042e+01 1.8915576525552158e+01 1.6284814358156332e+01 0 0 0
1841 2 1.9341060711576237e+01 1.4597973305713564e+01 2.5276304344862275e+01 0 0 0
313 1 1.4137871521180523e+01 1.8631648620567990e+01 1.6636242078740345e+01 0 0 -1
1118 2 2.4443456330850641e+01 2.7673907011984745e+01 2.0206320784538160e+01 0 0 -1
1872 2 1.5693957129018063e+01 2.5307261243235246e+01 2.0742003939801020e+01 0 0 0
2613 2 1.8869746151074860e+01 2.8125246630500854e+01 1.4349584344341398e+01 0 0 1
1133 2 1.0567705928636112e+01 7.6078259286268519e+00 8.2275487586654457e+00 0 1 0
1762 1 1.1415653920003175e+01 1.3477287431633856e+01 1.3220327256814585e+01 0 0 0
2556 2 1.9895921246405781e+01 2.0069598026693043e+01 2.3247756294150538e+01 0 0 0
2548 1 2.1854454654831773e+01 1.0562325067282623e+01 2.5361902642896968e+01 0 1 0
1870 1 1.5409005927817891e+01 2.4690015594412387e+01 2.0085906185092462e+01 0 0 0
1662 2 7.2722366135833916e+00 1.5485359725545052e+01 1.9115145920060412e+00 0 -1 1
1136 2 1.0064171157506317e+01 1.0973830895849378e+01 2.3130492635030926e+01 0 1 -1
1736 2 1.3224256486300032e+01 1.2774303826516309e+01 9.4258479461338496e+00 0 0 0
376 1 1.9916527742711043e+01 3.1552022754922447e+01 2.0133529757746658e+01 0 -1 0
1109 2 1.0240952958070190e+01 8.5732289159026411e+00 1.5169788580958064e+01 0 0 0
372 2 1.2837829959331925e+01 8.3731857894645572e+00 2.2550488049091765e+01 0 0 0
333 2 1.6422752024173896e+01 3.1766345805195975e+01 1.7655362704347198e+01 0 0 0
2555 2 1.8591489956791829e+01 2.0414786077740455e+01 2.4051539540743576e+01 0 0 0
374 2 4.0165570455768460e+00 6.1690386043394083e+00 5.4782256353264920e+00 0 0 0
1801 1 1.5785879042847228e+01 2.0272795513443242e+01 1.5128157905408290e+01 0 -1 0
442 1 8.9057903041529940e+00 6.4698203000785615e+00 2.0836512431635690e+00 0 0 0
2601 2 1.5822401989642838e+01 2.4682147841553725e+01 1.0893080041015976e+01 0 0 0
2600 2 1.7240911353391198e+01 2.5128092567031846e+01 1.0438513906467550e+01 0 0 0
188 2 1.3326341528825621e+01 2.3808219507618009e+01 1.0351971634239284e+01 0 0 0
2444 2 1.2838360230086234e+01 1.5336944713636957e+01 9.3953974428008600e+00 0 1 0
1786 1 1.3003104149919956e+01 2.7076070893227268e+01 9.2599766220450466e+00 0 -1 1
2642 2 7.0780130170147793e+00 3.0673337602863917e+00 6.3426768110918932e+00 0 0 1
2307 2 1.9528974837896669e+01 2.8350728660884588e+01 3.1030973730328304e+00 0 -1 0
1119 2 2.2904014230629862e+01 2.7312018187307444e+01 2.0276704139912486e+01 0 0 -1
1088 2 1.9443880263199539e+01 3.0215202699875260e+01 2.4190206643111097e+01 0 0 -1
243 2 4.7353427399633112e+00 1.1790751431231744e+01 6.9607347776245492e+00 0 0 0
269 2 1.8136196470766397e+01 1.8340224822850008e+01 2.1052506009952840e+01 0 -1 -1
2306 2 1.9451363066684834e+01 2.6765757877632186e+01 3.0252890326152309e+00 0 -1 0
198 2 1.8867221008057218e+01 3.0543197280941694e+01 1.0537871965145580e+01 0 -1 0
1089 2 1.9219898937594582e+01 3.1442509062508488e+01 2.5113652326989175e+01 0 0 -1
2468 2 1.0800997700927176e+01 1.2748375206625452e+01 2.7339735324671741e+00 0 0 1
2570 2 1.9617802780088137e+01 2.8445187156596468e+01 9.3817352957181939e+00 0 0 0
776 2 1.0802261032966639e+01 2.4603399789678459e+01 5.3937595531373645e+00 0 0 0
8 2 1.7710808954907751e+01 1.3498999421787383e+01 4.8630823574865394e+00 0 0 0
1658 2 1.8430906595837119e+01 2.8202708306228995e+01 1.9991818904514638e+01 0 -1 0
2363 2 1.2374578670268262e+01 2.3675586186703768e+01 1.7440732842899994e+01 0 0 0
2604 2 1.6474309763406097e+01 1.4990580484024647e+01 2.3139340356577058e+01 0 1 0
2397 2 1.4687198820355075e+01 3.0521554755555634e+01 1.2047214500648643e+01 0 0 0
1134 2 1.0962000889802775e+01 7.6281299531300784e+00 6.7574774801807740e+00 0 1 0
2644 1 1.3617331027667671e+01 8.5190803277439393e+00 1.9400615185951821e+01 0 0 0
3026 2 2.6014353969454074e+01 2.9672498438088574e+01 1.5439375359656184e+01 0 0 0
332 2 1.6513194620617842e+01 3.1737881678252016e+01 1.6024010607327995e+01 0 0 0
1735 1 1.3356274950318509e+01 1.1834447900907245e+01 9.2023846398678106e+00 0 0 0
2646 2 1.4104229104295257e+01 9.2993309921381702e+00 1.9076347334058255e+01 0 0 0
2413 1 1.3248709061104851e+01 1.8413472865121832e+01 1.4001251209748984e+01 0 0 1
895 1 2.0364993217699048e+01 2.8820948924284679e+01 2.2644631053999060e+01 0 0 -1
2603 2 1.6156696403339456e+01 1.6322618370722445e+01 2.3822009192890018e+01 0 1 0
2554 1 1.9499495886013623e+01 2.0780320628470651e+01 2.3807209003721468e+01 0 0 0
2629 1 8.0078037888514100e+00 7.4994804871925522e+00 1.0414696358818869e+01 0 0 0
2305 1 1.9964388265536204e+01 2.7503745757954270e+01 3.4220497964578489e+00 0 -1 0
443 2 9.2755681501475102e+00 6.6425355880608574e+00 2.9496615422603911e+00 0 0 0
933 2 1.8540833473902705e+01 5.2919367129319923e+00 1.1339108845046070e+01 0 1 0
2375 2 1.2789428009304956e+01 2.8651213206252784e+01 8.5218936262842053e+00 0 0 1
994 1 3.7159447824611016e+00 9.6731113811280007e+00 2.3154227011138713e+00 0 1 0
2641 1 6.8965606311789642e+00 3.9804121668589492e+00 6.5190369185135664e+00 0 0 1
897 2 2.0087038191616660e+01 2.7875422577403697e+01 2.2744194132261647e+01 0 0 -1
318 2 2.1244483068302440e+01 2.6003322820407089e+01 2.5435057714679420e+01 0 -1 -1
725 2 6.9272501433814782e+00 4.3654576457723628e+00 1.2248342689955349e+00 0 0 1
2456 2 1.3663391554036158e+01 1.9406854100046633e+01 5.1992190641714844e+00 0 0 1
1672 1 1.8193183281525133e+01 2.9019540197990711e+01 1.0119971285845688e+01 0 -1 0
1617 2 1.2739663906924838e+01 2.1535634231775127e+01 1.3941742628885210e+01 0 -1 0
1117 1 2.3560859528776383e+01 2.8068990969043931e+01 2.0497758780575989e+01 0 0 -1
1737 2 1.3981357500519991e+01 1.1876633115489170e+01 8.3948275498427876e+00 0 0 0
1909 1 1.4585393658283866e+01 1.0393989935114810e+01 1.1200079050503602e+01 0 0 0
1682 2 5.7499363050223451e+00 4.8028447853257257e+00 7.9190570310242832e+00 0 0 0
368 2 1.3922635568388369e+01 1.3596405138211701e+01 1.1330025317572552e+01 0 0 -1
197 2 9.4237310892925841e+00 3.8112881166660157e+00 1.0108606715409717e+01 0 0 0
759 2 1.9692244739271899e+01 2.7532265484682785e+01 5.0368649766885794e+00 0 -1 0
2576 2 4.0489730604157472e+00 2.8477735290990465e+00 1.0300554243710573e+01 0 1 0
444 2 8.5535106961520349e+00 7.3198781145357827e+00 1.8165483884818743e+00 0 0 0
2513 2 1.8921852449548656e+01 2.5321742564249295e+01 1.7524293290088220e+01 0 0 0
1103 2 1.0883563631842641e+01 1.1283315969593009e+01 2.6637869042284667e+01 0 1 -1
1681 1 5.2772383386884121e+00 5.2119348691735947e+00 8.6546258106899074e+00 0 0 0
2467 1 1.0123726897296809e+01 1.2108372542762670e+01 2.4368190066367328e+00 0 0 1
1596 2 1.8372183308733607e+01 2.1766526072948817e+01 1.7630168204067246e+01 0 0 0
1621 1 1.1128309449165862e+01 1.2143729602566076e+01 1.9251814222881613e+01 0 0 -1
1622 2 1.1589058264694952e+01 1.2585100465586310e+01 1.8538013968710185e+01 0 0 -1
1151 2 1.8361828472696860e+01 1.8723197885928879e+01 1.5513697585268481e+01 0 0 0
1691 2 1.2580816382268154e+01 2.3077223562952696e+01 2.6182316490863955e+00 0 -1 1
316 1 2.1963337717652220e+01 2.6408962892815122e+01 2.5924122829413740e+01 0 -1 -1
2612 2 2.0274851157365159e+01 2.7972171615846886e+01 1.3557120270622077e+01 0 0 1
2491 1 1.0545300432940172e+01 1.9782422580037359e+01 3.5119763614784003e+00 0 0 1
78 2 8.9870225565381663e+00 2.4565801168088072e+01 2.9501292034332867e+00 0 -1 0
1110 2 1.0852622041940723e+01 7.8468679544529962e+00 1.6360521825200376e+01 0 0 0
1876 1 2.1780708480337598e+01 3.2935154310025681e+01 2.1506694060015199e+01 0 -1 0
2563 1 8.7440719135889111e+00 1.1771781098399401e+01 6.9860891096997321e-02 0 1 0
2630 2 7.6514960365208182e+00 6.5979623625714368e+00 1.0495241279378501e+01 0 0 0
216 2 1.7749100576056811e+01 2.3903527283453251e+01 1.2997107890904287e+01 0 0 0
819 2 2.0001517016472651e+01 3.2571551957802569e+01 1.8530509879699082e+01 0 0 -1
373 1 4.4382244790670091e+00 6.9753751530548715e+00 5.0342588064824101e+00 0 0 0
1049 2 1.2924591119958585e+01 2.1289746383407635e+01 4.4557573507320525e+00 0 0 0
2512 1 1.8268502462184284e+01 2.5204499963192415e+01 1.8211485145555457e+01 0 0 0
214 1 1.7955820661296524e+01 2.3146862949705611e+01 1.2387209136477898e+01 0 0 0
1900 1 1.1970555430077694e+01 8.3207870559459849e+00 2.5894760919135933e+01 0 0 0
375 2 5.3900055604207937e+00 7.0578805754232476e+00 5.2498456083605536e+00 0 0 0
1668 2 5.6325855850273747e+00 1.1774097723887374e+01 9.7515200824208348e-01 0 0 1
2439 2 8.6954354840589332e+00 1.2515926638319964e+01 3.2617861719707717e+00 0 1 0
189 2 1.4282212217526759e+01 2.2842057958452010e+01 1.1079690482704160e+01 0 0 0
844 1 1.5467454583990552e+01 1.7485738561885675e+01 2.5227460009596719e+01 0 0 -1
187 1 1.4064714318282263e+01 2.3801611062400276e+01 1.1002009667412807e+01 0 0 0
1611 2 7.2445755658317914e+00 1.7347969102908639e+01 3.2227068420973990e+00 0 -1 0
314 2 1.4827603238870481e+01 1.9233959860883981e+01 1.6289192923441579e+01 0 0 -1
2602 1 1.6312381588154555e+01 1.5955496547633057e+01 2.2960447198393801e+01 0 1 0
1548 2 1.2925229834796319e+01 1.5488881870857224e+01 2.5167262692647025e+01 0 1 0
1560 2 1.5309183802753317e+01 2.6235956355141781e+01 1.1194526449039850e+00 0 0 1
684 2 1.8903087257028108e+01 1.0781027037438260e+01 6.5808240608305013e+00 0 0 0
271 1 1.2446063979459442e+01 1.2390459185878093e+01 2.1887314534101218e+01 0 0 0
2469 2 1.0448792655542590e+01 1.1200620273436082e+01 2.6592450460668111e+00 0 0 1
1657 1 1.7575378687686143e+01 2.7827934253531172e+01 1.9714912858026960e+01 0 -1 0
385 1 2.0664679393343580e+01 1.7997037069047451e+01 2.5492427766382818e+01 0 0 -1
154 1 9.2306900587743534e+00 4.7293491582296250e+00 8.1208554097920675e+00 0 0 0
29 2 2.0310857291165586e+01 2.1327917854681349e+01 1.4640942981219416e+01 0 0 0
1152 2 1.9242360469955223e+01 1.8069660160406350e+01 1.6651157155549232e+01 0 0 0
625 1 1.2003979044263057e+01 8.2046382821893804e+00 9.5684998946084321e-01 0 0 0
1878 2 2.2362241294535902e+01 3.3143148697268380e+01 2.0783610551806561e+01 0 -1 0
2437 1 7.7476018940047382e+00 1.2761756611617377e+01 3.3457900136517131e+00 0 1 0
1615 1 1.3304414670602778e+01 2.1257789845823343e+01 1.4734014472738325e+01 0 -1 0
920 2 2.2212602283210760e+01 2.2933657625381706e+01 2.3080824403983893e+01 0 0 -1
284 2 2.4893654924491234e+01 3.1184994699943378e+01 1.9793875221973732e+01 0 0 -1
871 1 1.1652529313739361e+01 1.5511841276346782e+01 1.7828412673022228e+01 0 0 0
820 1 9.2684793585917120e+00 1.8077523717351109e+01 9.1492111151353994e-01 0 0 0
2670 2 2.1177188201769230e+01 2.6748784432033659e+01 1.2064027197737889e+01 0 0 0
117 2 2.4490012021856931e+01 2.1452302824446402e+01 2.7062792601870367e+01 0 0 -1
2433 2 1.5595634509413589e+01 2.8537817957509855e+01 1.9353948769734149e+01 0 0 0
2492 2 1.0019575057146682e+01 2.0552971317122939e+01 3.8057694141630307e+00 0 0 1
1085 2 1.5908895272158247e+01 1.6253695938330409e+01 1.1895890768740809e+00 0 0 0
848 2 1.5018813226019201e+01 1.8906547948506365e+01 1.1383104561058060e+01 0 0 -1
273 2 1.2047894942175844e+01 1.2290505247671973e+01 2.0998995416478440e+01 0 0 0
1084 1 1.5782636536162894e+01 1.6355756669649580e+01 2.1279682192810316e+00 0 0 0
1910 2 1.4116504637043663e+01 1.0874716292754666e+01 1.0485285458811914e+01 0 0 0
1087 1 1.9100947795299955e+01 3.0517485976103252e+01 2.5031608739071704e+01 0 0 -1
360 2 1.7599899690046161e+01 2.3874794798498044e+01 2.3250172342827149e+01 0 0 0
196 1 8.8185432965143065e+00 3.4954834465870706e+00 1.0779957810602077e+01 0 0 0
777 2 1.2070138216524473e+01 2.3835461971226341e+01 6.0297065965081833e+00 0 0 0
308 2 2.5078420924588958e+01 3.2335990948341767e+01 2.3162101743213732e+01 0 0 -1
309 2 2.6115445717408793e+01 3.1226808042490621e+01 2.3294481268368258e+01 0 0 -1
3003 2 1.0442006412950176e+01 5.9617922770511207e+00 5.1463282956334746e+00 0 1 0
1809 2 1.5993458538858118e+01 1.3329602902176145e+01 9.6378897001375901e+00 0 0 0
880 1 1.5741371870017790e+01 2.0333268404878410e+01 2.1929127101920564e+01 0 0 0
315 2 1.3315496985680568e+01 1.9126469209213582e+01 1.6922225849758004e+01 0 0 -1
283 1 2.5694079981921668e+01 3.1811248001303568e+01 2.0095987770645255e+01 0 0 -1
386 2 2.0301338606386444e+01 1.8042901786234303e+01 2.4588747083558708e+01 0 0 -1
2376 2 1.3020059379213299e+01 3.0211905145323744e+01 8.4849942025031577e+00 0 0 1
726 2 6.3087141596784129e+00 2.9142060007459811e+00 1.5743309180403733e+00 0 0 1
1545 2 8.5246939253022642e+00 9.8874881118134326e+00 1.5362215658439579e+01 0 0 0