LAMMPS data file via write_data, version 15 Apr 2020, timestep = 1157000

1920 atoms
2 atom types

-5.9188847122459975e-03 2.4730323884717620e+01 xlo xhi
1.4743993105878950e-01 2.4576965068945434e+01 ylo yhi
3.8933132167819906e-03 2.2788478686786373e+01 zlo zhi
-2.5176946870719069e-01 6.2702686128862040e-02 3.4750971745677867e-01 xy xz yz

Masses

1 16
2 2

Atoms # atomic

1 1 4.4776507486811630e+00 1.7118408239082739e+00 4.0394850306781303e+00 0 0 0
2 2 5.3035360408715277e+00 1.6396043087073606e+00 3.5306682256612505e+00 0 0 0
3 2 4.4423454812232652e+00 1.1215549560555320e+00 4.8650419462518588e+00 0 0 0
4 1 2.9938712161397141e+00 1.5760449651856547e+00 1.9205370996894049e+00 0 0 0
655 1 1.0903822311372018e+01 1.2327305455894301e+01 6.5903313089060260e+00 0 0 0
6 2 3.4430548966502617e+00 1.5291094058566550e+00 2.8373849387532895e+00 0 0 0
7 1 6.0507165743334870e+00 4.7670366613540347e+00 3.5054029756916529e+00 0 0 0
8 2 5.1149432071132814e+00 4.8002426262910900e+00 3.6833013069697880e+00 0 0 0
9 2 6.3909723856014944e+00 4.0398481273326672e+00 4.0912691374285517e+00 0 0 0
10 1 3.2311004228917062e+00 5.0292984835290051e+00 3.7185682991276496e+00 0 0 0
11 2 2.8810687307610290e+00 4.3406255780024203e+00 4.3406489051469590e+00 0 0 0
12 2 2.8518519654343821e+00 5.8063753043638089e+00 4.1991866059243774e+00 0 0 0
13 1 1.8553078883834604e+00 3.1132151487199122e+00 5.1327751983428316e+00 0 0 0
14 2 1.7202013676949679e+00 2.1706337597615253e+00 5.1329794762134897e+00 0 0 0
15 2 1.8024292539006037e+00 3.4162749265011949e+00 6.0607249616353869e+00 0 0 0
1456 1 3.8927303202466984e-01 2.0558966002001293e+00 1.9113359983030161e+01 0 0 0
17 2 1.2288123578834615e+00 1.5030884893613259e+00 2.4773324599311399e+00 0 0 0
19 1 4.8261954953801744e+00 3.2387898701336262e+00 7.3353527242575201e-01 0 0 0
20 2 4.1316737261034655e+00 2.8324134323572503e+00 1.2708282181816992e+00 0 0 0
21 2 4.6100900252699235e+00 4.2211705377455964e+00 8.0305832744478878e-01 0 0 0
22 1 1.5771253860433101e+00 4.4136402025967314e+00 1.6152354611338051e+00 0 0 0
23 2 2.3138611768282691e+00 4.6293514237375035e+00 2.2009691210163469e+00 0 0 0
24 2 1.7677164210580163e+00 3.7514966636481271e+00 9.1151815954427517e-01 0 0 0
25 1 4.5430184594628020e+00 5.8923374232241503e+00 8.7568615473956279e-01 0 0 0
26 2 4.0891313658657822e+00 6.3372365623853888e+00 1.6047915106069619e+00 0 0 0
27 2 4.4118668071231495e+00 6.5034898098380731e+00 1.1207240514410383e-01 0 0 1
145 1 4.4684056470549045e+00 1.2168928811841063e+01 7.7448459587973684e-01 0 0 0
31 1 1.0981606904922064e+01 1.6023491654456867e+00 4.4243776965595627e+00 0 0 0
32 2 1.1023506594667818e+01 2.4079358106451902e+00 4.9051012353364607e+00 0 0 0
1230 2 2.0242359059962887e+00 1.2282476547510537e+01 1.6148789018773019e+01 0 0 0
34 1 9.0206995603275661e+00 1.6184231938068272e+00 1.9799580665956342e+00 0 0 0
1739 2 6.7655741180643689e+00 1.2456468578340466e+01 2.1921839435281829e+01 0 0 0
36 2 9.3083405890280133e+00 2.3296666735303524e+00 1.4007641777647202e+00 0 0 0
1857 2 1.1593619026398775e+01 9.6789943515443044e-01 1.8148916014738546e+01 0 0 0
39 2 1.1295159763771931e+01 4.4385122238013857e+00 3.4110911864540956e+00 0 0 0
40 1 9.6395844170471676e+00 4.1336860564555069e+00 3.5017888126296892e+00 0 0 0
41 2 9.1486320764299034e+00 4.6211375118675706e+00 2.8485447045160104e+00 0 0 0
42 2 9.0438804213118669e+00 3.6610504887926938e+00 4.0951973569335971e+00 0 0 0
43 1 7.5506767562761068e+00 3.0998787257393783e+00 4.9470541725209607e+00 0 0 0
44 2 7.6087054301368680e+00 3.4660922822582849e+00 5.8443594271000112e+00 0 0 0
45 2 7.5951504678065280e+00 2.1250636316722504e+00 5.0148980770689473e+00 0 0 0
46 1 6.3630069297782503e+00 1.3485091297876091e+00 1.9087439640179178e+00 0 0 0
47 2 7.3205549370238687e+00 1.2677750606651683e+00 1.8198828247860885e+00 0 0 0
48 2 6.1088620920528696e+00 2.1964690642808589e+00 1.5088224947296609e+00 0 0 0
49 1 1.0535371298428856e+01 3.3317750046583048e+00 2.9420654749708114e-01 0 0 0
50 2 1.1216031424882368e+01 2.9733111475042886e+00 9.2734118161515555e-01 0 0 0
51 2 1.0478718221190224e+01 3.0103143244910848e+00 2.2406045033040144e+01 0 0 0
52 1 7.7460483065233259e+00 4.7510915389836326e+00 1.4972919610898046e+00 0 0 0
53 2 7.4803028593165921e+00 3.9364542190925262e+00 9.7637522169891522e-01 0 0 0
54 2 7.1032004499739205e+00 4.7923195208520850e+00 2.2306972774406266e+00 0 0 0
55 1 1.0815228947172583e+01 6.0467107810119636e+00 5.9254011223191205e-01 0 0 0
56 2 1.0053294002171516e+01 6.1921444414582885e+00 1.1567304403058758e+00 0 0 0
57 2 1.0917607015101883e+01 5.0776371361714689e+00 4.3841161563907138e-01 0 0 0
749 2 1.7532638524548307e+00 1.2052635691997201e+01 1.1453454010269503e+01 0 0 0
614 2 5.4643210320450386e-01 9.5897812158062408e+00 1.0086003944747951e+01 0 0 0
1608 2 7.2397928111569927e+00 8.0119226427083916e+00 1.9484048817000883e+01 0 0 0
531 2 1.0732174142373744e+01 4.5019537641690048e+00 6.3260533788627127e+00 0 0 0
121 1 4.6022444810397980e+00 7.9542723991987820e+00 4.0493721887682144e+00 0 0 0
122 2 5.4052346870009682e+00 7.8680747347778963e+00 3.4877357252758703e+00 0 0 0
123 2 3.7743507186208243e+00 7.7879207646977431e+00 3.4426469200030008e+00 0 0 0
124 1 2.8011514996200666e+00 7.8372200841113351e+00 2.1406250070046569e+00 0 0 0
125 2 3.2360136326662574e+00 8.6081837172154216e+00 1.7590178641279530e+00 0 0 0
126 2 1.8133860377017521e+00 7.8778669109726263e+00 2.1084325117037337e+00 0 0 0
127 1 5.9227311136777843e+00 1.0943610003100838e+01 3.8177956196578768e+00 0 0 0
128 2 6.2786458674275076e+00 1.0124892831464168e+01 4.2798840774679396e+00 0 0 0
129 2 4.9273796730309813e+00 1.0827465062582139e+01 3.6652133317061724e+00 0 0 0
130 1 3.2372390727850533e+00 1.0728939119622920e+01 3.6398313523396677e+00 0 0 0
131 2 2.6331478223271856e+00 1.0184292141825045e+01 4.1369458099225627e+00 0 0 0
132 2 2.9120223834360899e+00 1.0688124959100914e+01 2.7201403902558949e+00 0 0 0
133 1 1.3267681269018323e+00 9.1202100166397315e+00 5.0666124401862680e+00 0 0 0
134 2 1.2759447656448137e+00 9.6411137588017812e+00 5.8900464251735754e+00 0 0 0
135 2 5.7285009808414777e-01 9.3753851472941268e+00 4.4497567555061188e+00 0 0 0
1347 2 5.3417116745049906e+00 7.7522108643652932e-01 1.2911398880698913e+01 0 0 0
139 1 4.6632179545640700e+00 9.5466730134930380e+00 9.2906099600967318e-01 0 0 0
140 2 4.8768466193894096e+00 1.0481944094750988e+01 8.8221409001907103e-01 0 0 0
141 2 5.3836636855302613e+00 9.0289684251495217e+00 1.3502485019458075e+00 0 0 0
142 1 1.3307413585250882e+00 1.0821523293727182e+01 1.5736892866283070e+00 0 0 0
143 2 1.2301398374139347e+00 1.0075143690531776e+01 9.9827830628688041e-01 0 0 0
144 2 1.5496430310939466e+00 1.1509995595658934e+01 9.8686372018583624e-01 0 0 0
219 2 -7.9356347812424233e-02 1.1360209512376905e+01 4.4507529039272260e+00 0 0 0
148 1 1.5632798576543172e+00 6.6663045023100533e+00 5.0198279991734287e+00 0 0 0
1096 1 1.0046910409908415e-01 7.8239442528410024e+00 1.3753271963308466e+01 0 0 0
150 2 1.4573124503880515e+00 7.6522413321200196e+00 5.1300746474923766e+00 0 0 0
151 1 1.0938868373656275e+01 7.8117201040953024e+00 4.0557467679184782e+00 0 0 0
1710 2 7.3612597570218519e-01 1.2439335839244963e+01 2.1697283389392776e+01 0 0 0
153 2 1.0995545582017050e+01 8.6799619409276954e+00 4.5062162834301605e+00 0 0 0
154 1 9.1749862712394403e+00 7.9286905682617128e+00 2.0079258179399737e+00 0 0 0
155 2 9.7128004120793481e+00 8.4836489513987487e+00 1.4652844664317222e+00 0 0 0
156 2 9.5936985391177938e+00 7.9564621185994540e+00 2.8978941629126069e+00 0 0 0
37 1 1.2259259614624396e+01 4.7187482978080935e+00 3.4853776892185930e+00 0 0 0
158 2 1.1435299756911352e+01 1.0982468855969463e+01 3.4431186587000795e+00 0 0 0
160 1 9.7520153317866889e+00 1.0726214897485702e+01 3.5188903276904022e+00 0 0 0
161 2 9.2676405597835565e+00 1.0728046857459319e+01 2.6864991606630597e+00 0 0 0
162 2 9.5498752955190120e+00 1.1613918389003890e+01 3.9074170573814588e+00 0 0 0
163 1 7.7797927032773373e+00 9.1353978788224328e+00 4.9694807137827519e+00 0 0 0
164 2 7.9244215745796769e+00 8.1593537395415350e+00 5.0874673382294144e+00 0 0 0
165 2 8.6198900530891027e+00 9.3922965321292153e+00 4.5904145395232963e+00 0 0 0
166 1 6.4612187067707296e+00 7.5376418863170533e+00 2.1866292335735062e+00 0 0 0
167 2 6.1645551174000044e+00 6.7717310522574694e+00 1.6026379847780330e+00 0 0 0
168 2 7.4281165782496572e+00 7.6439261966578744e+00 2.1620252822415789e+00 0 0 0
169 1 1.0984100298494736e+01 9.4110059921784028e+00 8.4201056993154788e-01 0 0 0
170 2 1.1043221825452513e+01 1.0380706697767572e+01 8.3003969315808812e-01 0 0 0
171 2 1.0944631798245958e+01 9.4876392217269636e+00 2.2669176345083674e+01 0 0 0
172 1 7.9664836898211977e+00 1.0579677391382718e+01 1.4736202039859521e+00 0 0 0
173 2 7.2800883748950840e+00 1.0577922855940210e+01 2.1952215917337794e+00 0 0 0
174 2 7.6986887100342374e+00 9.8589276511318431e+00 8.7528283859060407e-01 0 0 0
578 2 3.8610029699816278e-01 5.7071402700697318e+00 9.7045596045746727e+00 0 0 0
178 1 8.0730638944688096e+00 6.4591086980108869e+00 4.8674336271198513e+00 0 0 0
179 2 7.5082162051238583e+00 6.0769815765518196e+00 4.1961398773384495e+00 0 0 0
180 2 8.9909723013246676e+00 6.1722086954938042e+00 4.6244266015878708e+00 0 0 0
1615 1 1.0264905565151908e+01 1.2609334486217692e+01 1.7745767710204927e+01 0 0 0
136 1 7.4774879363741054e-02 7.4805887453396549e+00 1.9324448440738373e+00 0 0 0
218 2 3.9251828771198627e-01 1.0853971766773402e+01 3.0163976004109432e+00 0 0 0
1638 2 1.1752596966733638e+01 8.2780505874178392e+00 1.9893024745560773e+01 0 0 0
1619 2 7.8028098196109799e+00 5.7652810996892976e+00 1.8035685196003548e-01 0 0 1
1611 2 1.1030738654119794e+01 9.3817176456066740e+00 1.8108254939510871e+01 0 0 0
1618 1 8.1323578618591910e+00 6.6504907038385124e+00 2.2156058466617232e+01 0 0 0
1537 1 9.9255270520417146e-03 5.0728084865487046e+00 2.0582181342537904e+01 1 0 0
1458 2 5.9427474246253359e-02 2.8532817504165005e+00 1.8718959116377519e+01 1 0 0
481 1 4.7156267994269641e+00 1.7023567394100945e+00 9.8705894325485595e+00 0 0 0
482 2 5.2235112263707162e+00 1.1215614716023952e+00 1.0502768943052862e+01 0 0 0
483 2 5.3499562243559753e+00 2.2453112871740997e+00 9.3623295007019376e+00 0 0 0
484 1 2.9202825602061897e+00 1.6364936406985664e+00 7.6668739652583735e+00 0 0 0
485 2 3.3722437801202414e+00 1.7436176669999663e+00 8.4944374849790805e+00 0 0 0
486 2 1.9367888422821771e+00 1.5440434698596219e+00 7.7399060834629321e+00 0 0 0
487 1 5.9908022588502456e+00 4.5492716994981635e+00 8.7396305279463480e+00 0 0 0
488 2 5.0688486972694395e+00 4.7963356094071683e+00 8.9489089177731724e+00 0 0 0
489 2 6.4504339835543076e+00 4.5938057438808695e+00 9.5580819252621492e+00 0 0 0
490 1 3.4916176499205824e+00 5.1148255228634847e+00 9.2976460575659630e+00 0 0 0
491 2 3.0276816015204528e+00 4.3442874091277162e+00 9.6533641702539512e+00 0 0 0
492 2 3.0329571515169444e+00 5.9085265420499660e+00 9.7572040317058200e+00 0 0 0
493 1 1.6304504374988626e+00 3.0554423595745446e+00 1.0482967396538204e+01 0 0 0
494 2 1.7002231614020782e+00 3.4418345680990887e+00 1.1390524604617459e+01 0 0 0
1855 1 1.0857438301221970e+01 4.8267217108456961e-01 1.7598407485441811e+01 0 1 0
1613 2 7.4662762730677281e+00 1.1671349216612168e+01 1.8049676715336766e+01 0 0 0
499 1 4.4549493164977347e+00 3.5273508457064393e+00 6.2683594495044188e+00 0 0 0
500 2 3.7468754575880090e+00 2.9645928457191544e+00 6.7034533516752113e+00 0 0 0
501 2 4.5158958615191960e+00 3.1725620620751931e+00 5.3559710177304067e+00 0 0 0
502 1 1.8009008250383176e+00 4.8065713723328694e+00 7.1835820026964567e+00 0 0 0
503 2 2.5702863720709925e+00 5.1045557442875227e+00 7.5936213936728185e+00 0 0 0
504 2 1.3417324259648891e+00 5.4118774942610726e+00 6.5926688386811936e+00 0 0 0
505 1 4.9269032692538843e+00 6.3598826139982281e+00 6.2259608835762208e+00 0 0 0
506 2 4.8653765405980787e+00 5.4070431882744225e+00 6.0317000731736305e+00 0 0 0
507 2 4.6675334088224112e+00 6.8762710209344586e+00 5.3922526541650733e+00 0 0 0
5 2 3.2497202442093216e+00 7.4108923169200658e-01 1.4453576470009388e+00 0 0 0
509 2 1.3603765068804849e+00 1.3689051928498164e+00 1.0577479495640976e+01 0 0 0
511 1 1.0808932781616450e+01 2.0076360467574457e+00 9.9064552298456920e+00 0 0 0
512 2 1.0456379857161348e+01 1.3209325174480500e+00 1.0532001370556918e+01 0 0 0
513 2 1.0045871867720880e+01 2.3186094460724500e+00 9.3086134522257460e+00 0 0 0
514 1 9.1438827578536603e+00 1.8517977067589466e+00 7.8981153183367301e+00 0 0 0
515 2 8.2299545915244234e+00 1.7054842062688917e+00 7.7164777564690068e+00 0 0 0
1158 2 1.2159310061459141e+01 8.6728338927025970e+00 1.3343946296981525e+01 0 0 0
1058 2 2.5974744008573603e-01 4.3090794073599765e+00 1.5647468170161133e+01 1 0 0
520 1 9.3702803103996484e+00 5.0119533144866555e+00 9.3090664085024546e+00 0 0 0
521 2 1.0392050189968838e+01 5.0763251243741472e+00 9.2222819415399986e+00 0 0 0
522 2 9.0586630269604527e+00 4.8524217023421530e+00 8.3789919334486580e+00 0 0 0
523 1 7.8178247672399301e+00 3.8002881561422734e+00 1.0869853682142281e+01 0 0 0
524 2 7.6713302371830370e+00 2.8767123388074394e+00 1.0795395893141006e+01 0 0 0
525 2 8.7114218358030353e+00 4.1198375161262977e+00 1.0393826522117028e+01 0 0 0
526 1 6.2704544001344766e+00 1.8156944142459270e+00 7.3666809451288460e+00 0 0 0
527 2 5.7557435014928453e+00 2.5672806055016526e+00 6.9913813865738037e+00 0 0 0
1105 1 4.3555494058597928e+00 1.2240829181836888e+01 1.2260098757983375e+01 0 0 0
529 1 1.0816850599362665e+01 3.4706092174226528e+00 6.4785241837041720e+00 0 0 0
530 2 9.9713002206691463e+00 3.1629552038535893e+00 6.8369795983305002e+00 0 0 0
976 1 2.8570312991969127e-01 2.1134159722783679e+00 1.3399195700262503e+01 0 0 0
532 1 7.8504597826545810e+00 4.6722330681524227e+00 7.0920717462437297e+00 0 0 0
533 2 7.8330356532657399e+00 5.4671742453998311e+00 6.5664963273789594e+00 0 0 0
534 2 7.0523341164258238e+00 4.6172111295654732e+00 7.6050166736314448e+00 0 0 0
535 1 1.0867860550586993e+01 6.2930440558316532e+00 6.3502441796035942e+00 0 0 0
536 2 1.0081242738676650e+01 6.6833050432428900e+00 6.7956071362318085e+00 0 0 0
537 2 1.0985450697290700e+01 6.8442651828629621e+00 5.5723372819102366e+00 0 0 0
1607 2 5.7054698920306643e+00 8.0218026148238497e+00 2.0125751692438286e+01 0 0 0
198 2 1.2230609275748193e+01 6.9519086399302639e+00 1.5866851682930732e+00 0 0 0
1472 2 1.1436902122874947e+01 1.6184392807997094e+00 2.0847688171021787e+01 0 0 0
997 1 1.2296736308685560e+01 5.0332098800176439e+00 1.5002738169997414e+01 0 0 0
1612 1 7.5143581687795686e+00 1.1197250333438847e+01 1.8869980027857164e+01 0 0 0
601 1 4.9227911201532217e+00 7.9295310307794757e+00 9.9202261863151247e+00 0 0 0
602 2 5.3660013215668068e+00 8.1129874044286119e+00 9.0503026987862167e+00 0 0 0
603 2 4.8127434423449857e+00 8.6579762453302038e+00 1.0475344433449131e+01 0 0 0
604 1 2.9784485733624244e+00 7.7372921270968860e+00 7.8998856473789010e+00 0 0 0
605 2 3.4327894800766097e+00 8.0653626428154830e+00 8.7041706025465988e+00 0 0 0
606 2 3.5632366209122837e+00 7.1744548426079060e+00 7.3976640066804142e+00 0 0 0
607 1 5.9569649203256745e+00 1.1029444225518565e+01 9.3682873798537276e+00 0 0 0
608 2 6.6236699176643725e+00 1.1280049396142571e+01 8.7392041263035001e+00 0 0 0
609 2 6.4519357190273894e+00 1.0286023948347317e+01 9.8639266291829681e+00 0 0 0
610 1 3.2165407517614888e+00 1.0815547094078100e+01 9.0498728101880719e+00 0 0 0
611 2 2.7430551704300883e+00 1.0676510849442872e+01 8.1568369389089632e+00 0 0 0
612 2 4.1558170924823061e+00 1.0740711122563814e+01 9.0523886294831080e+00 0 0 0
613 1 1.4116577867309095e+00 9.2183647232702928e+00 1.0307763276291714e+01 0 0 0
1376 2 1.1494510906635487e+01 6.5127691123621645e-01 1.2573091139713037e+01 0 0 0
615 2 2.0726153700137955e+00 9.7690043448767021e+00 9.8163071810184572e+00 0 0 0
779 2 8.2225621086941842e+00 1.2313727567745017e+01 1.0421827207356383e+01 0 0 0
618 2 1.0672727352269951e+00 8.0880237113888818e+00 7.9575443818703038e+00 0 0 0
619 1 4.3223346235053937e+00 9.7203685901455774e+00 6.2639025758917874e+00 0 0 0
620 2 4.3397926012298642e+00 9.3551412938067049e+00 5.3711063730053290e+00 0 0 0
621 2 3.6074735975840593e+00 9.1697513550055607e+00 6.7560551239787072e+00 0 0 0
622 1 1.4508544633237055e+00 1.0830056616995567e+01 7.1370001908437990e+00 0 0 0
623 2 7.5554561189666558e-01 1.0865538408592574e+01 7.8650762738308924e+00 0 0 0
624 2 1.3941731645631181e+00 1.1630243211862087e+01 6.5385651192949314e+00 0 0 0
495 2 9.2250774997186447e-01 3.6685365599100166e+00 9.9693202857083616e+00 0 0 0
626 2 4.8792716163567773e+00 1.1499470583795787e+01 6.2558953414396257e+00 0 0 0
628 1 1.7035233813043855e+00 6.6145070124116474e+00 1.0689433408284678e+01 0 0 0
629 2 1.8711225014508461e+00 6.0752161500262298e+00 1.1502051575218649e+01 0 0 0
630 2 1.4964966396169261e+00 7.5794943313484850e+00 1.0719431904889452e+01 0 0 0
631 1 1.0742533355015096e+01 8.1876619434817357e+00 1.0065072962506056e+01 0 0 0
632 2 1.0712854805426339e+01 7.4433985738731341e+00 1.0708238469364405e+01 0 0 0
633 2 1.1573537113014314e+01 8.0976170210782143e+00 9.4659088726992842e+00 0 0 0
634 1 9.0734556423614574e+00 7.9643357117687579e+00 7.5841576873111496e+00 0 0 0
635 2 9.4465582011526728e+00 8.0543885051112625e+00 8.4727696485995221e+00 0 0 0
636 2 8.1116971132487734e+00 8.0305625116782551e+00 7.6440520720119887e+00 0 0 0
654 2 8.1133546458637955e+00 1.1823259638009635e+01 6.3362745368575366e+00 0 0 0
639 2 1.1091281708096309e+01 1.0840498119539008e+01 9.5698576804263649e+00 0 0 0
640 1 9.3426720610099672e+00 1.1286989631214634e+01 9.5913978326352876e+00 0 0 0
641 2 8.8731184674258827e+00 1.1284514995829211e+01 8.7226346140637236e+00 0 0 0
642 2 8.9702686557202025e+00 1.0505285634661902e+01 1.0071147680723897e+01 0 0 0
643 1 7.5534125317291245e+00 9.5319922185998642e+00 1.0729666649634748e+01 0 0 0
644 2 7.3959693557915118e+00 8.5761972053721820e+00 1.0784781503141453e+01 0 0 0
645 2 7.3936325735557720e+00 9.9402769154941630e+00 1.1615616872409193e+01 0 0 0
646 1 6.3174575008716563e+00 8.2567400918401521e+00 7.5518380822039131e+00 0 0 0
647 2 5.8602422862887025e+00 7.4748773430749420e+00 7.1488710472379360e+00 0 0 0
648 2 5.8832992397431250e+00 9.0165498064611658e+00 7.1213577056282276e+00 0 0 0
649 1 1.0779516009801325e+01 9.4651799767635030e+00 6.1807905909024567e+00 0 0 0
650 2 1.0889074840253363e+01 1.0440570045565048e+01 6.1194387897427038e+00 0 0 0
651 2 1.0025785743708342e+01 9.2430357876352911e+00 6.7708023128897583e+00 0 0 0
652 1 7.9997556147053039e+00 1.1102292205039578e+01 6.9665321569914802e+00 0 0 0
653 2 7.9778361100570176e+00 1.0310421577660909e+01 6.3751213392610850e+00 0 0 0
1259 2 8.3825713093429730e+00 1.2189567104684718e+01 1.6015869067831847e+01 0 0 0
1089 2 4.9688720678644902e+00 1.0981588819120045e+01 1.4855289510471961e+01 0 0 0
658 1 7.5904314000697832e+00 6.8406527655495593e+00 1.0703395161457207e+01 0 0 0
659 2 6.8173030421701259e+00 7.0202948965362317e+00 1.0112471250052334e+01 0 0 0
660 2 8.2537659479730401e+00 6.3685580434993643e+00 1.0191843138144334e+01 0 0 0
1610 2 1.0698794270025436e+01 9.5961445411609816e+00 1.6652373609625982e+01 0 0 0
1518 2 1.2152511645310158e+01 2.6737160212309226e+00 1.8942126843358498e+01 0 0 0
780 2 6.7292709821208767e+00 1.2418361719538135e+01 1.0349735060572568e+01 0 0 0
1576 1 5.8831882542518671e-02 8.2276693160813998e+00 1.9324999713879865e+01 0 0 0
1614 2 8.4717454720415972e+00 1.1245122447194785e+01 1.9101284487395866e+01 0 0 0
699 2 -6.2282633540671317e-02 1.1614009391950887e+01 9.7380236836258494e+00 0 0 0
1585 1 5.0294361915424046e+00 1.2441021304267158e+01 1.8145217163680044e+01 0 0 0
1616 2 1.0489315587943102e+01 1.1651326634263796e+01 1.7726793233331374e+01 0 0 0
496 1 2.5578427573467155e-01 1.6867469683544847e+00 7.7372655067892344e+00 0 0 0
538 1 7.6920086391489271e+00 8.1920737927785980e-01 1.0610500267096649e+01 0 0 0
961 1 4.5255240797491725e+00 2.2454667657690783e+00 1.5664356561480357e+01 0 0 0
962 2 4.5259990821916904e+00 3.0411552037599456e+00 1.6175609562842791e+01 0 0 0
1117 1 1.2277335595490397e+01 1.1098222323712863e+01 1.5053597554460840e+01 0 0 0
964 1 2.8676682089138734e+00 1.7577883204067173e+00 1.3693766995297839e+01 0 0 0
965 2 3.3671059595647157e+00 1.7733020670642106e+00 1.4537334987714649e+01 0 0 0
966 2 3.2881703512724512e+00 2.4795710118247429e+00 1.3184357127101114e+01 0 0 0
967 1 5.8538100893741030e+00 5.1534889108582034e+00 1.5188246357924177e+01 0 0 0
968 2 6.3272478079856702e+00 5.8228671458250654e+00 1.5767842969412271e+01 0 0 0
969 2 6.4519087636738668e+00 5.0236207753683733e+00 1.4430469907457713e+01 0 0 0
970 1 3.2633541912027506e+00 5.1908581432266478e+00 1.4989136985712888e+01 0 0 0
971 2 4.2488829047748160e+00 5.4212444051569282e+00 1.4940060708244950e+01 0 0 0
972 2 2.8626817263808744e+00 5.8695778709796445e+00 1.5589087196430974e+01 0 0 0
973 1 1.5628933101445643e+00 3.2542129408362439e+00 1.6342361074082536e+01 0 0 0
974 2 2.1422804980669681e+00 3.7543544591023950e+00 1.5754647990961837e+01 0 0 0
975 2 1.7065982897641976e+00 3.7493930567297564e+00 1.7203997341691302e+01 0 0 0
677 2 1.2246810523597757e+01 8.7341487342054211e+00 7.2291877134237970e+00 0 0 0
977 2 1.2225930656966202e+00 1.8613215274421675e+00 1.3607080371908445e+01 0 0 0
979 1 4.5961256176020111e+00 3.5857319801015741e+00 1.2036060050087185e+01 0 0 0
980 2 4.4622884545819366e+00 3.1368191275224553e+00 1.1165330381530246e+01 0 0 0
981 2 5.4363358650515536e+00 3.2667310528997282e+00 1.2372754616641179e+01 0 0 0
982 1 1.6956935218538673e+00 4.7886460107044577e+00 1.2826705339219179e+01 0 0 0
983 2 2.2986456949053657e+00 4.9575734819374340e+00 1.3653285925419777e+01 0 0 0
984 2 8.4020202995425264e-01 4.7541500615585965e+00 1.3315428619595751e+01 0 0 0
985 1 4.6086077573726181e+00 6.2350182948984072e+00 1.2111229657871450e+01 0 0 0
986 2 4.6780948855995668e+00 6.5724202440136246e+00 1.1195411568273551e+01 0 0 0
987 2 4.3031617474258441e+00 5.3295538362562631e+00 1.2108155016970834e+01 0 0 0
897 2 1.1703723248527783e+01 3.8714040408284911e-01 6.7858211551305558e+00 0 0 0
989 2 1.5841635041181223e+00 1.5140557833517614e+00 1.6263746831398421e+01 0 0 0
991 1 1.0662048746293951e+01 1.9512680805066325e+00 1.5543902520383222e+01 0 0 0
992 2 1.0687952527143270e+01 1.2222197843921936e+00 1.6206304839085035e+01 0 0 0
993 2 9.9294638449361052e+00 1.8206236477091653e+00 1.4899262492139401e+01 0 0 0
994 1 9.0281911966263202e+00 2.0888085050368721e+00 1.3474629570283936e+01 0 0 0
995 2 9.2957920467818234e+00 1.2207630136777508e+00 1.3065553366793408e+01 0 0 0
996 2 9.6909015695346703e+00 2.6567633472284076e+00 1.3142105946445865e+01 0 0 0
1602 2 9.0994619967235835e+00 1.1618836904137270e+01 2.1101236677591391e+01 0 0 0
998 2 1.1320623474490825e+01 5.0415373293041057e+00 1.4993747986665044e+01 0 0 0
1000 1 9.4183601410439834e+00 5.0231723933288253e+00 1.5031497758842937e+01 0 0 0
1001 2 8.9593365413243546e+00 4.3596388019216850e+00 1.5520445759811158e+01 0 0 0
1002 2 8.9632515682270277e+00 5.1254381016261510e+00 1.4186393143400151e+01 0 0 0
1003 1 7.6823636289910846e+00 3.5097604078750364e+00 1.6454328482278452e+01 0 0 0
1004 2 6.9590622666885729e+00 3.9101446702043932e+00 1.5895846660314033e+01 0 0 0
1005 2 7.8530236699536911e+00 4.1171327320039630e+00 1.7245559333199726e+01 0 0 0
1006 1 6.2893820160786129e+00 2.1653218888166865e+00 1.3635151558150827e+01 0 0 0
1007 2 5.9363425672841696e+00 2.2204427469284678e+00 1.4529687051002714e+01 0 0 0
1008 2 7.2885762934677087e+00 2.3034339171435803e+00 1.3677479951892380e+01 0 0 0
1009 1 1.0932699545349216e+01 3.5948156470133261e+00 1.1865450485036991e+01 0 0 0
1010 2 1.1765233247801124e+01 3.2801945075130936e+00 1.2226556067905472e+01 0 0 0
1011 2 1.0879832887783106e+01 3.1253630910645223e+00 1.1012101717674188e+01 0 0 0
1012 1 7.4694060800760296e+00 5.0819436398316027e+00 1.3051362208290115e+01 0 0 0
1013 2 7.6527405420208181e+00 4.4509441291298177e+00 1.2313323390218738e+01 0 0 0
1014 2 7.4572448490041081e+00 5.9470566914012561e+00 1.2555261929496154e+01 0 0 0
1015 1 1.0852350742994622e+01 6.3566641424518542e+00 1.2251946067409358e+01 0 0 0
1016 2 1.1004321822234280e+01 5.4113126377444782e+00 1.2121129277021639e+01 0 0 0
1017 2 1.1573767197248561e+01 6.6422853717059809e+00 1.2749098685748001e+01 0 0 0
35 2 9.3830659179875671e+00 1.7616633278274614e+00 2.8203937692501664e+00 0 0 0
1019 2 7.5682793996564310e+00 1.7319111075186786e+00 1.6709457450089410e+01 0 0 0
98 2 3.0304983013545511e-01 4.4460001386513701e+00 2.6887673782885573e+00 0 0 0
1133 2 7.3901031225105482e+00 1.2112703066599673e+01 1.2358728699296925e+01 0 0 0
1081 1 4.3253783818052804e+00 8.2009529126218847e+00 1.5646747772707533e+01 0 0 0
1082 2 5.0745795895256958e+00 8.1733526522533033e+00 1.5007091175201413e+01 0 0 0
1083 2 4.4431100603407589e+00 7.5122909635994795e+00 1.6296812030463865e+01 0 0 0
1084 1 2.7874538032645018e+00 8.1438098414618025e+00 1.2977196455037374e+01 0 0 0
1085 2 2.9808607876056126e+00 8.5853305295451481e+00 1.3823679510527203e+01 0 0 0
1086 2 3.3744142211309276e+00 7.4224201932047178e+00 1.2898277584316268e+01 0 0 0
1087 1 5.9200508076665708e+00 1.1155289489277152e+01 1.4856407381305774e+01 0 0 0
1088 2 6.4146249950553900e+00 1.0455259737142054e+01 1.5344687084544905e+01 0 0 0
558 2 1.2227169732725805e+01 2.4918974395528593e+00 7.2477770335333878e+00 0 0 0
1090 1 3.2125509674341686e+00 1.0860041178694425e+01 1.4962018269267666e+01 0 0 0
1091 2 2.7191704678875150e+00 1.0227476377352941e+01 1.5497280834017900e+01 0 0 0
1092 2 2.7952275709105852e+00 1.0932283238559714e+01 1.4123526864342764e+01 0 0 0
1093 1 1.6574035529026614e+00 9.3827871229015880e+00 1.6452785489072610e+01 0 0 0
1094 2 1.7970373887885429e+00 8.4374487622410506e+00 1.6517483323829548e+01 0 0 0
1095 2 8.8618035223743030e-01 9.6015436032129013e+00 1.5906621051611088e+01 0 0 0
1598 2 1.2263898086092718e+01 1.1132998830037531e+01 2.0099997519393280e+01 0 0 0
1097 2 1.0699161791950749e+00 7.9272854673954862e+00 1.3583522492524247e+01 0 0 0
1099 1 4.7789152854108510e+00 9.6471024110406827e+00 1.1925038670813258e+01 0 0 0
1100 2 3.9069732898841312e+00 9.3441420925232244e+00 1.2228959848849991e+01 0 0 0
1101 2 4.7506957126872846e+00 1.0615004655380330e+01 1.1889676692320929e+01 0 0 0
1102 1 1.3688291414836797e+00 1.0865407696361668e+01 1.2758931929527812e+01 0 0 0
1103 2 1.3296326582956122e+00 1.0077280025293827e+01 1.2200391213072985e+01 0 0 0
1104 2 5.7938026483685345e-01 1.0829862375137550e+01 1.3331117047581667e+01 0 0 0
988 1 1.6604875452150223e+00 5.4760615178720473e-01 1.6160387057045334e+01 0 0 0
1108 1 1.5058922547936653e+00 6.7265990032016703e+00 1.6362789091961705e+01 0 0 0
1109 2 1.0279038826268585e+00 6.3400927433055596e+00 1.5619657774854431e+01 0 0 0
1110 2 1.3692872415539636e+00 6.1625886749339500e+00 1.7148978086999300e+01 0 0 0
1111 1 1.0545494486299438e+01 7.6507081413692468e+00 1.5631789470989796e+01 0 0 0
1112 2 1.1372425457109571e+01 7.7062554463431754e+00 1.5146639722173216e+01 0 0 0
1113 2 9.9167355912962112e+00 7.9217225177345059e+00 1.4949255052944599e+01 0 0 0
1114 1 9.0077673403158318e+00 8.1293893465615614e+00 1.3550284650132706e+01 0 0 0
1115 2 9.4712793902344110e+00 7.3823190131651621e+00 1.3121497130521508e+01 0 0 0
1116 2 8.0377748514158593e+00 8.1009848868558869e+00 1.3474472502629913e+01 0 0 0
33 2 1.1552094307957757e+01 1.6334915488053652e+00 3.5892773194379100e+00 0 0 0
1120 1 9.5395919623504231e+00 1.1214167988095204e+01 1.4852399233844082e+01 0 0 0
1121 2 8.8605016396930463e+00 1.1019330869471844e+01 1.4138438120400199e+01 0 0 0
1122 2 1.0463324109128214e+01 1.1150290838066866e+01 1.4591151813020224e+01 0 0 0
1123 1 7.4831665945808918e+00 9.3682785372268302e+00 1.6289554008378069e+01 0 0 0
1124 2 8.3847041646806488e+00 9.5845464437759027e+00 1.6033280744989671e+01 0 0 0
1125 2 7.5381657347737754e+00 9.6304976398521358e+00 1.7218859436205392e+01 0 0 0
1126 1 6.0999143907103299e+00 7.8779417241969067e+00 1.3589456313554347e+01 0 0 0
1127 2 5.7555669486862797e+00 7.0548072948780520e+00 1.3257722519212933e+01 0 0 0
1128 2 5.5890817021361672e+00 8.5459827988450225e+00 1.3024200849796474e+01 0 0 0
1129 1 1.0760357220400852e+01 9.7735502413207787e+00 1.2371452029963299e+01 0 0 0
1130 2 9.9978469709886344e+00 9.4285921096344261e+00 1.2842527312713626e+01 0 0 0
1131 2 1.0791697292830333e+01 9.1683194096588156e+00 1.1520265882138906e+01 0 0 0
1132 1 7.4756836813384169e+00 1.1178325232195514e+01 1.2749895316554454e+01 0 0 0
1135 1 1.0774723238416623e+01 1.2368402624454276e+01 1.2089602452137004e+01 0 0 0
1134 2 6.7176812605825678e+00 1.1106318034493418e+01 1.3437014345531551e+01 0 0 0
516 2 9.5360986261991805e+00 1.0045930045922342e+00 7.5907107588140077e+00 0 0 0
1137 2 1.0902708993766657e+01 1.1383956839825533e+01 1.2072914606877562e+01 0 0 0
1138 1 7.9647590699212536e+00 6.6457972183642982e+00 1.6494589731065354e+01 0 0 0
1139 2 7.8717438336856089e+00 7.5373014195297392e+00 1.6145602418530139e+01 0 0 0
1140 2 8.3747687559175219e+00 6.1120228351002623e+00 1.5825220295815923e+01 0 0 0
77 2 1.2236740412810182e+01 1.1785788355266209e+00 1.8297767188112475e+00 0 0 0
1658 2 2.3602186777767969e-01 1.1225952802976543e+01 1.9817058149799191e+01 0 0 0
1571 2 2.6918952596301109e+00 1.2224915161748962e+01 2.0881550658720123e+01 0 0 0
1178 2 1.6657438116559245e-02 1.1671159337442559e+01 1.5210684375666617e+01 0 0 0
678 2 1.2296691401785093e+01 7.2704939903362806e+00 7.2471143523092341e+00 0 0 0
152 2 1.1626157340752668e+01 7.9598508430754267e+00 3.3469699179557102e+00 0 0 0
1606 1 6.2166794522388011e+00 7.9265269892918919e+00 1.9315976426913586e+01 0 0 0
508 1 1.2854648218284788e+00 3.9294163383980518e-01 1.0417411155994417e+01 0 0 0
557 2 1.2242711423649977e+01 1.6823108301390208e+00 8.5380986921889424e+00 0 0 0
1441 1 4.5823388858827947e+00 1.8332208939438135e+00 2.1169339612348530e+01 0 0 0
1229 2 9.3998291521496657e-01 1.2121390790825444e+01 1.7057745988090030e+01 0 0 0
1443 2 4.4372942195079776e+00 2.6022289382234209e+00 2.1750774958443024e+01 0 0 0