LAMMPS data file via write_data, version 8 Apr 2021, timestep = 21761000

576 atoms
2 atom types

0.07060837832982123 17.849392621668965 xlo xhi
-0.13439262167258154 17.64439162166878 ylo yhi
0.21560837833168597 17.994392621669924 zlo zhi

Masses

1 16
2 2

Atoms # atomic

133 1 3.457433886831608 0.7380013427824939 1.8903517908388727 1 0 2
529 1 0.6363897706858944 2.8655585685205662 3.5169460743004786 1 0 0
501 2 3.547929753415087 3.695745793279556 2.457989454917384 -2 2 1
500 2 4.034677357397954 2.243609899555153 2.520190281266559 -2 2 1
499 1 4.326711720522633 3.149748748988412 2.5246101959863867 -2 2 1
135 2 4.08723927634511 0.0465614812032005 2.050901406548463 1 0 2
134 2 2.583217187153099 0.22525662520788353 2.083913384678577 1 0 2
531 2 0.37062265830514185 2.276639743283842 2.8382316999149166 1 0 0
434 2 0.07943932869380771 0.47629825961001854 1.7824854332140947 2 0 -1
101 2 7.742627652612097 3.6580592285543556 1.1599077842854844 0 -1 3
471 2 5.727964879931491 2.7701621661134492 1.6041982652200002 0 2 1
469 1 6.593318888425454 2.420426812168315 1.2782503184651735 0 2 1
99 2 5.286023282578934 3.8155210533948067 3.9894976655278196 4 0 1
386 2 7.056507846356014 0.9421221744911799 1.5254510980089482 -1 0 1
470 2 6.635242475509326 2.5706834279599433 0.2982431026828418 0 2 1
385 1 7.353331534304219 -0.017218173871459214 1.6615783575832 -1 0 1
387 2 8.163371831045849 -0.04751078702332133 2.0975917060308054 -1 0 1
315 2 1.501264259081562 4.413288989359476 2.6173893420534284 4 -1 -1
313 1 2.336485194519293 4.9208224441124555 2.5241517616945255 4 -1 -1
314 2 2.371925866254746 5.3513651376097355 1.6952212444552537 4 -1 -1
485 2 2.6318831002193948 5.5552410231365315 4.042379781915212 3 0 1
18 2 0.6626475249692272 7.976942013702306 3.7567341464026 -2 0 1
70 1 0.37656622564264774 8.576858564411923 2.019119648563189 3 -2 2
100 1 8.358586707181018 4.41468828311458 1.1987896264197293 0 -1 3
560 2 8.472720747711099 6.6238837640879344 3.585303959124058 -1 1 2
6 2 8.081715405066719 4.772332874281646 2.7829478904448877 -2 1 0
5 2 7.433636058528836 4.789860072589196 4.23865281449987 -2 1 0
102 2 7.933460384990944 5.246638006320837 0.8364812862861337 0 -1 3
4 1 8.2568753642585 5.041416577958459 3.741307019505531 -2 1 0
506 2 8.1614341089877 7.333991335494404 0.3272497013514632 -3 1 1
357 2 5.227492874995873 8.472193973393276 0.275464375093863 3 2 -5
263 2 5.694032027499063 8.096241542214344 4.232358776913992 2 -1 0
559 1 8.747372343867776 7.578982263230814 3.496099058432934 -1 1 2
264 2 6.949262303285172 8.382797163365963 3.5290175107498114 2 -1 0
59 2 4.209889094718773 -0.046577285946416344 5.991733699159144 1 4 2
392 2 1.3557830190730789 2.2974075659999382 5.020593992078518 -3 0 -1
60 2 3.656467152501018 0.5064931301093221 7.390862163121986 1 4 2
391 1 1.7074538727019026 2.14937495261233 5.923639245822403 -3 0 -1
393 2 2.60255487098315 1.7418419147361395 5.807289400300714 -3 0 -1
288 2 2.1197167642266352 3.657639449210217 6.701937306185388 -1 0 -3
545 2 0.35280126363266606 0.9108275983993424 6.277301239328072 1 1 0
58 1 4.058335804272371 0.7811382635335336 6.522215762652516 1 4 2
283 1 4.098320625111941 4.044568512887355 8.614084497520357 0 0 3
285 2 4.700510938936381 3.5564298415095816 8.012609644109636 0 0 3
300 2 5.087350413063308 1.9791596801474372 6.928368552824435 1 2 -3
299 2 6.431914922094291 2.5273979652330194 7.416469133228304 1 2 -3
298 1 5.596173571328098 2.7955668180473605 7.026954428354964 1 2 -3
98 2 5.809706185349138 3.6058417277660126 5.481318379372251 4 0 1
325 1 8.019352280503607 2.892202162055377 8.24810396726797 -2 0 -1
326 2 8.413450569992055 3.748696051896442 8.51356097809934 -2 0 -1
97 1 5.885196248542388 4.182277720314092 4.676943298897588 4 0 1
16 1 0.8830375270792944 7.825994924778888 4.690699081582339 -2 0 1
284 2 3.424682646896772 4.46144498402777 8.03494593692352 0 0 3
286 1 2.076038475557733 4.605976371925704 6.974347239292562 -1 0 -3
17 2 1.0260314641630355 8.676830882009714 5.158987807169155 -2 0 1
287 2 2.358949645481228 5.089993312070244 6.135778072436267 -1 0 -3
484 1 2.693719191538093 6.02121213528431 4.934902750386609 3 0 1
486 2 2.0184822901207595 6.73418335255458 4.886476720396362 3 0 1
492 2 4.345216925753832 6.582105188341127 5.02679377121793 1 -2 0
372 2 0.21349080862231057 8.527304393079381 7.89164540921121 -2 -1 -3
222 2 0.5589501985500716 4.606901841881068 7.6585620068263625 0 1 1
491 2 5.656355823526027 5.760669742647437 4.89156848096917 1 -2 0
490 1 5.3331632922063035 6.677724182130669 5.129343539135592 1 -2 0
413 2 5.905982279435115 7.437527929124422 6.776926879507773 -1 0 2
155 2 7.985188364905072 7.861456795382406 8.107996191467697 -1 1 -1
412 1 6.076988981215511 7.916520148798867 7.58632871369718 -1 0 2
302 2 5.86978628627038 6.763393968573422 8.884670266339382 1 -1 0
154 1 8.828383267262545 7.771695159487926 8.555243998643958 -1 1 -1
414 2 5.543927196990832 8.711219725615662 7.556799841624176 -1 0 2
166 1 3.3591721626223685 0.020349860739156955 9.17351020546624 0 2 0
172 1 1.6015345265119427 0.011465095300363576 13.101761187610819 1 0 5
168 2 2.884961173747389 0.653646259130453 9.756052770301453 0 2 0
173 2 1.714680562866024 0.6401506534494195 12.35100804385635 1 0 5
216 2 2.5727031216624847 2.2180472549757337 11.16822428704479 -1 0 -3
215 2 1.0445866692149912 2.0807521498840242 10.669077122582138 -1 0 -3
214 1 1.8042003081781295 1.5820118590741261 11.082410794097644 -1 0 -3
347 2 3.5283016124799746 3.9078036789577593 12.897586724648663 -1 0 0
184 1 3.9196313776933707 3.370733380311456 11.242203897425656 -1 -1 -1
185 2 3.8484601264812657 3.7031655862837227 10.361991478610802 -1 -1 -1
167 2 4.322774218556378 -0.10933826089810988 9.41225459562538 0 2 0
327 2 7.928131980444431 2.3678663611565196 9.117918464636757 -2 0 -1
186 2 4.865971192542564 3.362809866380774 11.388142993602589 -1 -1 -1
116 2 8.235485905309211 2.750673228269477 12.731670595835878 0 -2 -3
73 1 7.749538256075429 1.2700324292349285 10.171420164959914 -2 3 2
75 2 7.532123969548498 1.7125777880876065 11.030435394287478 -2 3 2
115 1 7.303915183286905 2.8110718521278457 12.331395466386148 0 -2 -3
117 2 7.239289627852478 3.7414645145674084 12.021936959510768 0 -2 -3
74 2 8.487194631947428 0.7191786413921815 10.32215507003135 -2 3 2
511 1 4.311899763766601 8.092969537209811 11.168529162552112 2 0 0
266 2 3.6626082202420323 7.413981928854744 12.775110887353788 1 0 3
348 2 3.295371393423398 5.335638428607831 13.466786872795732 -1 0 0
573 2 1.3476664372193532 8.713151625665084 9.987024859741936 0 1 2
417 2 8.952836722610133 8.108174431193788 13.300469444293963 1 2 -1
156 2 8.684655857853299 8.333553843939221 9.365570837778336 -1 1 -1
512 2 4.686012516657165 7.291143579098256 10.711115932944475 2 0 0
303 2 5.05363598290846 5.434591104894127 9.144420300858572 1 -1 0
192 2 8.542990480149475 5.248177707115726 10.454411272237273 3 0 0
301 1 5.551225349111045 6.191744488918096 9.60865433246343 1 -1 0
380 2 6.686217331808096 5.511927372319978 10.774575244365174 0 2 1
381 2 7.314225861236431 5.952827372610708 12.220911035923987 0 2 1
379 1 7.353601206464275 5.325824585753929 11.450161557541424 0 2 1
139 1 0.32732876415077883 2.188958932824941 17.030991928655105 4 -1 -2
324 2 0.17466199206724814 0.9121538560203766 13.964641441277095 -1 0 0
441 2 3.2595123643295456 1.0709465906161335 17.691185241345426 -1 0 -1
150 2 2.8119735520839026 0.2317340452133545 14.155516818023 2 2 0
140 2 1.273445572519493 1.9467077928569259 16.945922064554804 4 -1 -2
148 1 3.710845280618512 0.5736868797038677 14.495453637348591 2 2 0
149 2 3.5363169117607485 0.7189193122447961 15.442991289026466 2 2 0
439 1 2.9081949842031243 1.407342464966422 16.816005307237305 -1 0 -1
440 2 3.309039370151628 2.290873576588093 16.793266990939888 -1 0 -1
436 1 4.005992151655079 3.9056365580623553 16.263276823636268 0 2 0
307 1 0.5086931422834203 3.8957354126084245 14.16207865961453 -2 1 3
308 2 1.4393943512262755 4.016386881308441 13.89489111042838 -2 1 3
309 2 0.4151749101439135 2.923300627139593 14.355236682730288 -2 1 3
437 2 3.8979196700220613 4.198849065306162 15.321173695942646 0 2 0
243 2 7.067764757518947 -0.052424358686371436 13.715682031958886 0 2 -1
452 2 6.645317017079623 2.080829444946395 13.714873503256056 1 1 1
105 2 7.497690462040163 3.663867274020209 16.151705391733344 1 0 1
438 2 4.934201320402871 3.7310340121791747 16.519320939641812 0 2 0
453 2 5.295322557430937 1.3322860293203678 14.328494001208021 1 1 1
451 1 6.271259584709778 1.4439491983361428 14.38791035614076 1 1 1
104 2 6.69461584436704 2.3256586390738496 15.811688675155 1 0 1
103 1 6.794176914085038 3.066888429621946 16.467499258588088 1 0 1
265 1 3.4285326534927116 7.057208208045875 13.611036350876244 1 0 3
346 1 3.177622390803137 4.356219017894944 13.663844860274768 -1 0 0
267 2 4.185874737155461 7.363837007099144 14.118561755124809 1 0 3
127 1 2.994273386520844 5.932390277977753 17.70774463137882 -2 4 -1
356 2 4.457925831749838 7.1230197359253475 17.87113982713809 3 2 -6
50 2 0.5925656030987636 6.562237111886884 15.975983080359109 1 1 1
176 2 0.8142493249703134 8.550225698164923 14.303400687464151 2 2 -2
175 1 1.3300080236814138 8.129109164023419 15.044902982063997 2 2 -2
51 2 0.3839292287518722 5.076001314519191 15.917318130663327 1 1 1
129 2 2.0683934417990097 6.021607604579354 17.386668525036427 -2 4 -1
49 1 0.5124389696833567 5.7788548342638295 16.55665452438225 1 1 1
177 2 1.9974099600944224 7.514114803461208 14.6127947637888 2 2 -2
128 2 3.379341325426748 5.138533074171512 17.142893023281374 -2 4 -1
384 2 8.340100633653023 5.842068537140174 16.53268934608986 0 -3 2
355 1 5.286839960591952 7.585285018437315 17.63391178436273 3 2 -6
382 1 8.605454295705407 5.326701009781866 15.752167473264091 0 -3 2
459 2 6.834756875182345 7.364651021502515 14.176686673786763 -1 0 0
553 1 5.50084219999715 8.180764709010086 15.008299408932862 -3 1 0
507 2 6.697269440999107 6.949644820326162 17.843539582858604 -3 1 0
457 1 7.601985496215081 6.884624405720859 13.78168742079888 -1 0 0
505 1 7.560699321615138 6.549586082887844 17.9500443591796 -3 1 0
458 2 7.906187989437897 6.377599394691147 14.606038921117907 -1 0 0
555 2 5.517256266373264 7.897021123027999 15.938425728713067 -3 1 0
408 2 2.238224265884421 10.823465032456241 1.5308484340294826 3 -2 1
25 1 1.2382480791408093 12.153916380124329 2.1785901982522335 2 -5 -3
406 1 2.6040602867517197 10.03056459970922 1.087942862557439 3 -2 1
407 2 3.5402276931685983 9.927646799710393 1.332441174355093 3 -2 1
39 2 2.7320932617675484 12.19558790112903 3.235443208636476 1 -2 1
37 1 3.6667467824926003 12.368211272085079 3.484961900347981 1 -2 1
26 2 1.189951653830031 12.965757192936826 1.633881361708051 2 -5 -3
38 2 3.9501876662059248 12.921324474017496 2.7546130291601685 1 -2 1
27 2 0.35603142057363324 12.158580725646518 2.6630596683120653 2 -5 -3
71 2 1.1691867675271288 9.014049973751078 1.6063312844699453 3 -2 2
57 2 5.888166631228078 10.461002033737499 1.271110175099101 -1 0 0
55 1 5.239071091090002 9.799932305986152 1.3415722692651784 -1 0 0
205 1 7.349573489150668 11.606479337522213 0.5359426369519484 -1 0 0
270 2 5.989511027544248 10.215313503116185 4.437407904155109 1 -1 -1
113 2 7.912807346996856 12.76685012691436 1.6260141544491344 1 0 2
269 2 4.902005122454014 11.350819347535646 4.265311248992906 1 -1 -1
56 2 5.471466583112976 9.273390733168242 2.1687385363319764 -1 0 0
262 1 6.085887818972493 8.755302636262092 3.65425592510837 2 -1 0
563 2 1.3012226147779147 16.071245321046565 1.4714165780827015 0 -1 0
564 2 1.1515356736929716 16.422160266004113 2.9408541460272337 0 -1 0
562 1 1.345545326401575 16.860538255213918 2.0573158564976244 0 -1 0
350 2 2.513334904203467 14.229395821431309 0.9607126699307049 -1 -1 1
349 1 1.5756993662471603 14.495218484922846 0.8619504922663627 -1 -1 1
94 1 4.244027877596853 14.045000123817248 1.3113683163632952 3 0 -1
95 2 4.495892105857161 14.90082551958152 1.6261432485255396 3 0 -1
431 2 0.2608471867925085 15.47021399068049 4.485017392801182 5 1 1
112 1 8.148935496762068 13.540817140928493 2.1999627277398655 1 0 2
53 2 7.974172027936528 13.213379656780257 3.938455295280285 1 1 1
388 1 5.280239700231724 16.387793959110464 2.15097076666192 0 0 -1
389 2 5.125759483659838 16.512808627902952 3.0786427738907585 0 0 -1
390 2 6.117256912981466 16.910334729073718 2.0374254094594733 0 0 -1
114 2 7.842715299459435 14.278296494541426 1.6204929221823114 1 0 2
410 2 7.936487961666303 16.457348602635136 0.4292225346026223 0 -3 3
96 2 4.765920891722797 13.847889255224695 0.5025254237153209 3 0 -1
395 2 1.5223729166724635 10.061917258943884 6.956233845078407 -1 1 1
444 2 3.4963218465199737 10.645378932911235 7.766104961510264 -2 -5 1
442 1 2.6033439148908557 10.863540655360927 8.145454597577944 -2 -5 1
281 2 2.5288855961163073 12.477608349340587 8.462334629992588 3 -1 -1
443 2 2.3875221891431795 10.249036779394944 8.897142669613853 -2 -5 1
394 1 0.7725207621629538 9.64871834514786 6.511461661523789 -1 1 1
396 2 0.16178101206894888 10.335251898763746 6.218927764803736 -1 1 1
268 1 5.591797899701107 11.020948337488704 4.814251458438446 1 -1 -1
54 2 6.950488695229223 12.44690392177737 4.750285131161204 1 1 1
523 1 5.042534201689192 10.301754381907404 7.2820064094995685 1 -1 1
525 2 5.438163677953782 10.944474069841329 7.896393725154762 1 -1 1
524 2 5.254124824557967 10.633237526467223 6.359552522538956 1 -1 1
541 1 5.540147266462883 12.670471441533588 8.693023513963322 0 -3 -1
52 1 7.631281826205209 13.14006278099522 4.83996682114022 1 1 1
542 2 4.7177766553227425 13.070537350203224 8.375247318829114 0 -3 -1
9 2 8.622943840693695 12.808804461252626 6.109737901835117 2 -1 0
430 1 1.0937918632372463 15.858506406617717 4.7969889482429995 5 1 1
165 2 3.4343815290827995 13.576642214688055 4.7104208751627645 1 3 2
398 2 0.4830289464091301 16.25997163500953 8.673715104520689 1 -1 1
432 2 0.9167120014019651 16.65131148813359 5.249511355908295 5 1 1
280 1 2.748614656927536 13.419323842710343 8.20801068703614 3 -1 -1
164 2 2.3404407933658558 14.735207456701234 5.05957571500783 1 3 2
163 1 3.1727375314671513 14.2503403514311 5.384191786250321 1 3 2
282 2 2.730002228554081 13.363669445378468 7.269983188061314 3 -1 -1
125 2 4.1493971933307625 15.813064261869549 5.176800916432947 -4 0 2
237 2 2.1878117800550108 14.794961574839013 8.945273521176736 0 2 2
14 2 8.676439708828136 15.028237933219149 8.982451648524604 -3 -1 -2
124 1 4.753143148470723 16.543463814039757 4.958242885896391 -4 0 2
126 2 5.656553083602637 16.202953902835745 5.255311698752544 -4 0 2
157 1 7.236962000069672 15.551612686548689 5.74573257047819 2 -2 -1
158 2 7.350753702051806 14.696466683529238 5.236203844550947 2 -2 -1
159 2 7.987812186914316 16.136602163397832 5.474681609526362 2 -2 -1
551 2 7.334144599059115 15.26117370401369 7.267747911504615 1 0 2
550 1 7.087500412777843 15.09643445890504 8.208891689908167 1 0 2
552 2 6.565953173690773 14.24646519965626 8.29938585859615 1 0 2
572 2 2.726369390422831 8.960844573000266 10.678487425979007 0 1 2
571 1 1.95095915525562 9.393047146421322 10.272562375152583 0 1 2
40 1 2.048885702635848 12.067526227372369 11.131412705941656 1 0 1
107 2 3.7295189951332897 12.52800518727989 11.391360946565248 2 2 2
41 2 1.9497594623592684 11.069273833864989 11.000112533919053 1 0 1
42 2 1.2952820075518126 12.409011648639614 10.637160918798584 1 0 1
575 2 1.0227394570862423 12.272807652288682 12.63434973007208 2 4 5
574 1 0.15206284653530475 11.993557841833042 13.04344093774073 2 4 5
106 1 4.68541708682635 12.566767024587971 11.329323896841862 2 2 2
543 2 5.291132691614062 12.568876298793336 9.645737653194548 0 -3 -1
21 2 5.669101237862831 10.956649193093043 11.336715512347649 4 1 1
19 1 6.041536810214006 10.134740395870061 11.616797417187167 4 1 1
20 2 6.851521823058541 9.958572989595577 11.09519122196929 4 1 1
219 2 6.600110078548058 10.565035850132288 13.25465462807328 -1 -1 -2
256 1 8.447296271943376 9.383460158445692 10.573128166216724 4 -1 0
257 2 8.851865660159646 10.233449336397527 10.271995859023777 4 -1 0
513 2 4.973579671474128 8.82618043513027 11.22388485837366 2 0 0
11 2 8.921716759184397 12.423240003313865 10.229976109600237 -1 1 1
236 2 2.4595952438048125 16.319087956676775 9.152468764724855 0 2 2
252 2 0.7578709925163041 15.229219359820238 11.821607003259572 2 1 1
235 1 1.879879830411134 15.601704189813411 9.405502498149628 0 2 2
251 2 2.1185480334218845 15.635064170033667 11.109904967802121 2 1 1
250 1 1.8038048584493849 15.428398161560548 12.022344583582404 2 1 1
174 2 1.735849294975464 16.836027763240203 12.694600281468826 1 -1 5
276 2 2.291516607596175 14.533396083007927 13.454897781002193 -1 1 2
84 2 8.869075176691586 14.280999035884655 11.0341341154887 0 -2 -3
197 2 8.175232556821715 13.574957007244263 13.108639997488831 -1 2 -1
242 2 7.36000045898966 16.403616618013462 12.874118186338983 0 1 -1
108 2 4.989471909374098 13.289445488566999 11.928934739832705 2 2 2
343 1 5.67855850753126 16.977980326169405 9.643336765828149 2 0 0
345 2 6.100544451319141 16.247011578296632 9.135062535529961 2 0 0
82 1 8.271438459690948 13.667862038962685 11.501766120370121 0 -2 -3
83 2 7.438722826976891 14.196393130062285 11.436804066233242 0 -2 -3
339 2 5.5570170109783215 15.657408512056307 12.939802274781732 -1 0 -1
337 1 5.927885103393079 15.270541469956749 12.133766838520316 -1 0 -1
338 2 5.651360743342317 15.859353382089974 11.393734933366446 -1 0 -1
241 1 7.824314816683699 17.15487700104688 13.26395693472604 0 1 -1
344 2 6.407221925006991 17.593759899801892 9.887100003585552 2 0 0
565 1 0.27222269322638826 12.166272547541608 15.983252145051978 -1 1 -2
576 2 0.26493357920064364 12.170257711966396 13.9823983249128 2 4 5
566 2 0.925594187531787 11.410114703462373 16.21838758120148 -1 1 -2
77 2 2.085647766335883 9.634065343688421 15.685839501969324 0 1 2
28 1 4.124938439692929 12.021216370247686 14.961046493419522 1 -2 -1
78 2 2.525770899714046 10.105501209789935 17.159927372478165 0 1 2
76 1 2.382456813240128 10.370754031191526 16.24138362046647 0 1 2
30 2 3.625383750317531 11.35523940138788 15.45614317337729 1 -2 -1
207 2 8.18721086084166 11.360898764576769 17.897453261434997 -1 0 -1
29 2 4.818073924291805 11.44652036455186 14.505517623508576 1 -2 -1
554 2 5.7469281282246385 9.110151004379812 14.977502554017999 -3 1 0
376 1 5.578708830229033 13.170225040019783 16.94707794607979 1 2 1
378 2 5.101815100755104 12.637170556748453 16.347416476584804 1 2 1
206 2 6.873661274153561 12.189758188730229 17.696716554144217 -1 0 -1
196 1 8.094835104003879 13.194366471806305 14.061500642416963 -1 2 -1
218 2 7.1387737989994395 11.565281977487714 14.169890354595672 -1 -1 -2
217 1 6.494854466406165 10.85583899703702 14.187833521424436 -1 -1 -2
333 2 0.1919773960315626 14.038399957006574 15.694763093401829 1 -3 1
351 2 1.4325772099424157 14.670000030525047 17.681387955711138 -1 -1 0
122 2 4.148743497572998 15.38999998604459 14.466342153323893 0 4 0
275 2 2.883834158616278 13.422418227689084 14.579476736855478 -1 1 2
332 2 1.387463040727926 14.979842554282522 15.364899110271782 1 -3 1
331 1 0.5077303483508575 14.95343874451581 15.814674258514756 1 -3 1
274 1 2.7237826657699302 14.367932213360652 14.359258138329443 -1 1 2
123 2 4.332660129605625 16.947944605783064 14.441867701385222 0 4 0
377 2 6.037382417553309 13.932542852500342 16.485600491136466 1 2 1
121 1 4.8170949501430504 16.06274036625738 14.273334439919717 0 4 0
409 1 8.099996013300265 15.585472821258636 17.821904595154894 0 -3 2
119 2 7.420145873257389 15.375465381645856 16.452323790434317 -2 0 -2
198 2 7.5590121357117255 13.864303004950074 14.553414471118982 -1 2 -1
118 1 6.8650370105169305 14.9980384219674 15.740382001571858 -2 0 -2
120 2 6.180741242060231 15.555371534396853 15.273624930158176 -2 0 -2
244 1 11.477138765199062 1.4719532349908766 1.9733998691003807 2 0 4
246 2 11.463612816791459 1.8472094589187955 2.927741442676975 2 0 4
245 2 12.321558786558889 0.9239276436887092 1.8435992684442426 2 0 4
291 2 9.925058323434191 3.5568305192458456 0.7790737924537876 -1 -3 0
290 2 11.050062939026136 2.5105673898957037 0.677320356119139 -1 -3 0
289 1 10.7266968173007 3.33184278330345 0.24764138939214717 -1 -3 0
200 2 11.048707808124881 3.4705221528383654 4.279199120976486 -1 -1 0
199 1 11.289239946514257 2.4551140912571228 4.352217514237781 -1 -1 0
2 2 10.345438353017505 0.3993670647025049 2.3602598460147663 -1 1 2
311 2 14.60263827014938 2.532826147403882 3.367486037410824 -1 2 -1
310 1 14.974077277864932 1.6504254383908787 3.2448901724237715 -1 2 -1
312 2 15.837629902439888 1.7754357320686323 2.830499038847537 -1 2 -1
538 1 13.682079500379078 3.709962462099086 4.59169262169932 2 0 2
433 1 17.274105075037845 1.2200804167669965 1.641968562617574 1 0 -1
181 1 13.624417314087406 0.2528155843090724 1.1966321030694023 -1 3 1
48 2 15.162661842983116 0.6725430004600308 4.651216628141935 1 0 1
162 2 15.069700158139417 3.7837441970152987 0.8480878935254702 -1 -4 0
160 1 14.888809617367038 4.147485459480787 1.708409678774868 -1 -4 0
435 2 17.502441285173695 1.5157164733456292 0.716745772381547 1 0 -1
182 2 14.337259365380856 0.44713818923657406 1.8194936420180055 -1 3 1
530 2 17.607265523296054 3.262534580763743 3.9146721552780592 0 0 0
369 2 11.733592958115818 4.3984084599526705 1.1507326149877461 -2 -2 3
367 1 12.29234621132685 5.0952433083446 1.6541216181995848 -2 -2 3
476 2 11.297898140437916 5.105265269438819 3.0643092212447436 0 -1 -1
477 2 9.906087013236068 4.958832307921802 3.8333966420093493 0 -1 -1
475 1 10.901815607039332 4.8827979162568464 3.944664587465027 0 -1 -1
143 2 11.721313907271295 6.0219714545020775 0.4467935015420358 -3 1 3
368 2 13.19231925588778 4.698749258048233 1.6594663170420665 -2 -2 3
144 2 10.341028437324546 6.808737221004377 0.21927904413860613 -3 1 3
402 2 13.401642233715023 8.282784942375288 1.7287511733837992 -1 -1 -1
279 2 9.208028248708475 8.250394502433169 1.8588628300089762 2 2 1
561 2 9.190948115292304 7.978329998018319 4.186802241645036 -1 1 2
277 1 9.3612702901944 8.351572975876842 0.8941034017603233 2 2 1
539 2 13.599480762330332 4.624175885933487 4.296106022626096 2 0 2
161 2 15.493312938361544 4.891412455984399 1.822851421282645 -1 -4 0
423 2 14.078530804941744 7.137149625376486 3.5916783531043137 -1 0 -1
109 1 16.832727737220907 6.572014389618457 0.961703023656861 -1 -2 -1
421 1 14.159406830484471 6.51903939974944 4.352123894016814 -1 0 -1
110 2 16.079351141100833 7.002858786366322 0.5272800996061442 -1 -2 -1
400 1 14.049659491238607 8.508135061432915 2.432879300519694 -1 -1 -1
111 2 17.41580504075898 6.25050332520451 0.23815818659858373 -1 -2 -1
72 2 17.73866430277549 7.811020174416334 1.4650249944228684 2 -2 2
540 2 12.872928602911482 3.227237974099701 4.733419875429839 2 0 2
201 2 10.778653479769346 2.0441767488124643 5.129219480610305 -1 -1 0
80 2 10.640327000997823 1.5694480273370388 7.408189245271679 0 1 2
79 1 9.950789314392036 1.6392331356804983 6.722378133054882 0 1 2
81 2 9.174901304631865 2.0796864869469918 7.060527312710572 0 1 2
366 2 12.729722566073589 0.9331226387310019 8.488983548938858 3 1 -1
364 1 11.860691875069953 1.3678561131025526 8.767471666656245 3 1 -1
170 2 9.917855376157958 -0.09812489725324325 6.150087036629447 -1 1 2
47 2 16.129592516155657 0.1611198833844561 5.753155037051681 1 0 1
318 2 15.548697202123378 3.812679321183294 5.2425137835424005 -2 -1 -1
221 2 16.984950212439553 4.302331804615622 6.981101168696553 -1 1 1
220 1 17.416271882267473 4.263654286028398 7.872393519611394 -1 1 1
316 1 16.48870789211391 4.056531325178593 5.280917417771338 -2 -1 -1
544 1 17.67561591604515 0.01249772948170022 6.002135209251844 0 1 0
239 2 17.403752117539614 3.181312426965654 8.925776458782869 2 -4 -4
46 1 15.162128899057253 0.1805044680675143 5.521031544030533 1 0 1
404 2 14.210379925371992 0.23311493350433182 7.038243244638287 -1 -1 -3
403 1 13.956614750952435 -0.10965020902765345 7.926543149485069 -1 -1 -3
405 2 14.713600101566772 0.055639320045786395 8.560631921183413 -1 -1 -3
209 2 9.876235439730223 8.24938954316087 6.870214507156662 2 -3 0
210 2 10.981935203795897 7.778642678684304 6.071544167423407 2 -3 0
204 2 12.10573722515098 5.849502672016995 6.29317782385579 0 3 -1
202 1 12.434383459022033 6.714775598339011 6.389895419564465 0 3 -1
203 2 12.820049746466562 6.705464662438087 7.2846373879156205 0 3 -1
208 1 10.251758621694558 8.382106787854855 5.972554906584791 2 -3 0
422 2 13.511729651393846 6.681962320507374 5.043134922196149 -1 0 -1
335 2 15.180752871018843 8.527680301441501 6.5758985142766795 1 1 2
317 2 16.367704297884398 5.062081711098982 5.308527667379138 -2 -1 -1
32 2 15.570672543498487 6.8125825771351645 5.079198293002547 0 2 -1
31 1 16.339436008540805 6.734973447200331 5.691362523761571 0 2 -1
86 2 16.70208436869105 5.465040125880498 8.604958387857426 0 1 2
33 2 17.06909795492397 7.141851909740026 5.259435749141327 0 2 -1
371 2 17.1709705592827 7.46752852942442 8.61136471774469 -3 -1 -3
85 1 16.243463419509485 6.205450303440587 9.086282286493514 0 1 2
370 1 17.823495383642882 8.171682990770748 8.798403690859297 -3 -1 -3
297 2 10.497717946027668 0.11339836890751492 9.53504782569664 0 0 -2
365 2 12.15165270848247 2.219754835055449 9.195015394683281 3 1 -1
228 2 10.53046751626682 3.7652817373974914 12.105903649653975 -2 0 -3
518 2 12.31508936293873 3.916156744659093 10.847929120879698 1 0 -2
233 2 10.174091359324693 1.758267465415753 12.866303393650687 2 -1 0
232 1 9.968862978076576 2.6979463657036353 13.0664224021599 2 -1 0
517 1 13.00996978802384 3.60841832980624 10.232196377483055 1 0 -2
130 1 10.42793506474176 0.12867556199510755 12.72779512945718 0 0 -3
296 2 10.23331058995781 -0.12636226840329168 11.078693846657993 0 0 -2
62 2 14.993713704252018 0.29390139135124344 12.858282619780162 0 0 2
519 2 13.866801289161854 3.372302144525939 10.781797331665667 1 0 -2
138 2 16.644121543687962 1.024053999863272 9.99211594116161 1 3 0
537 2 15.178784234225631 2.41143151674792 12.158137100008608 -1 -2 0
535 1 15.115232276980699 3.1739929216442415 11.501785969195435 -1 -2 0
240 2 16.924028843293105 3.029771446356006 10.437621260301842 2 -4 -4
238 1 17.536149822436926 2.6587262606278457 9.789053324571938 2 -4 -4
536 2 15.440629889333373 3.9823441606069854 11.999931853360405 -1 -2 0
61 1 15.013066848331924 1.1933303585468957 13.315578632600555 0 0 2
136 1 15.986407638385948 0.34759904646995243 9.830672837065535 1 3 0
137 2 15.744406227961838 0.03025555345758199 10.702768778285384 1 3 0
494 2 13.300725661673631 6.700772443386671 9.790730456588511 -2 2 1
495 2 13.325081132658129 5.132402275160899 9.566063867811998 -2 2 1
226 1 10.965804777147435 4.516224707420664 11.57747007951002 -2 0 -3
227 2 10.277865802336095 4.874720630015134 10.947340873664613 -2 0 -3
522 2 12.789243232512298 7.480169415263444 11.703716352650046 -1 1 0
449 2 11.522434526265771 5.9653324966860986 12.347798970394393 0 -2 -2
450 2 11.006967829221741 7.464110476438626 12.710551580123681 0 -2 -2
448 1 11.7408927058822 6.824687472618215 12.798160702530302 0 -2 -2
415 1 9.70361133604329 8.548230476665777 12.872268140331197 1 2 -1
191 2 9.014495230471862 6.014550648145192 9.200224627821786 3 0 0
190 1 9.15280805513323 5.1788850028725415 9.681210673079221 3 0 0
493 1 13.544507704844486 6.023969032879574 9.112553608797061 -2 2 1
87 2 15.30202834758511 5.98094777388105 9.194646004699202 0 1 2
359 2 17.1511477324434 4.610808743217698 13.407115136133715 -1 4 -2
520 1 13.43676122353833 7.9292474317641854 11.036937565300269 -1 1 0
358 1 16.318971130321383 5.14448778691945 13.119562681206565 -1 4 -2
521 2 14.359386234988941 7.648944845956221 11.275841753542549 -1 1 0
375 2 16.133672467468127 6.555857056912692 12.096202471922899 -1 1 1
374 2 16.35568527200308 6.923496683760402 10.626837058378912 -1 1 1
373 1 15.986910620460314 7.319125299628787 11.455504943398271 -1 1 1
234 2 10.143632273296785 2.904697329412631 14.02639313741964 2 -1 0
534 2 10.769131745141566 3.004603033403416 16.326861834023024 1 1 -3
532 1 11.060331002278486 2.9927799200811105 15.398752149988061 1 1 -3
44 2 12.152982134845105 1.8153804354124643 15.12865906374085 0 2 1
43 1 12.82578935509077 1.0357324214711028 14.968630246248804 0 2 1
533 2 11.469863661139428 3.882371056294035 15.29429042964623 1 1 -3
141 2 17.722433854439 1.775144361607469 16.164858204692692 3 -1 -2
45 2 13.463174532739265 0.962353932063728 15.684984805927291 0 2 1
322 1 17.37383757489658 1.3783596576002497 14.60486699139383 -2 0 0
447 2 15.266257424613876 2.5637949141425826 16.68223540147687 1 1 -2
323 2 16.47215361149857 1.3182839212879112 14.183595219871892 -2 0 0
445 1 15.657117564246402 3.3995613255077712 16.98857057537452 1 1 -2
319 1 14.856300774510334 0.9144137355422981 16.678750037054623 0 -1 0
321 2 14.340970035622734 0.8183014302613218 17.564277997772844 0 -1 0
63 2 14.194528470109645 1.3613890403778648 13.941616305291916 0 0 2
446 2 16.64663035933661 3.1784608691093648 17.006669904921765 1 1 -2
320 2 15.363769205987964 0.05677458594923554 16.557721914528877 0 -1 0
142 1 11.12602860948206 6.478127177106612 17.53410053625214 -3 1 2
383 2 9.557873350156092 5.154543995588578 15.725589133918431 0 -3 2
547 1 11.873474104679428 5.385926588054078 15.132939408154803 -1 0 -3
548 2 11.724425686287073 5.958839034002845 14.3604624754489 -1 0 -3
549 2 11.620979149590829 5.903979320517874 15.936503443360523 -1 0 -3
188 2 12.057676475504236 8.14247621170054 17.850801320996897 0 0 -1
231 2 14.901983998992497 4.812979129502907 16.036369993330243 -6 1 0
34 1 14.927835593797086 7.746950756180901 17.015673219142425 1 0 -1
36 2 15.32754288794078 8.494664629646573 16.566528574933646 1 0 -1
35 2 14.808143296448133 7.036486598460481 16.376314816991155 1 0 -1
360 2 15.785716615480391 5.329450000319417 13.94315031057765 -1 4 -2
189 2 13.545864542163878 8.454963659398379 17.399276160520586 0 0 -1
230 2 13.717532721221293 5.2705971595989425 15.306487091970515 -6 1 0
229 1 14.629775384810818 5.578303270707734 15.442247933005026 -6 1 0
509 2 12.712451534129235 11.488765788899535 1.5957129947106596 0 2 3
508 1 12.191589723994651 11.349812953977546 0.7952828883482153 0 2 3