LAMMPS data file via write_data, version 8 Apr 2021, timestep = 21543000

576 atoms
2 atom types

0.3257494005514984 17.59425159945584 xlo xhi
0.12074840055354724 17.389250599454876 ylo yhi
0.4707494005511303 17.739251599457944 zlo zhi

Masses

1 16
2 2

Atoms # atomic

314 2 1.4403899745410236 1.1397752732685877 3.7149195612238737 -2 -2 1
241 1 3.392660759225861 4.092090624385973 2.637051250221223 -3 1 0
242 2 3.6894265347716986 3.6491714215181057 3.453178910160761 -3 1 0
500 2 4.5222843699685225 0.8457718186522158 3.7128185684529105 0 1 0
244 1 2.9043553239371573 0.12146809117279389 3.777467667782772 1 -1 3
96 2 4.6069023340586375 4.421186628244149 1.799728249345838 0 -1 2
313 1 0.6690581762912987 1.7594872136438104 3.6225225539115025 -2 -2 1
554 2 5.525613162941826 2.8570066154137397 4.284983629708704 -1 0 2
499 1 5.466331435099722 1.1076815843823378 3.580734670999677 0 1 0
501 2 5.911392059608482 0.7657571467150275 4.361941151177743 0 1 0
489 2 7.812246295870904 2.7190845922536395 1.5473009273873906 0 2 2
555 2 5.588817935024671 4.393357730466519 4.7232170569845024 -1 0 2
487 1 8.581256621051873 3.0353092599467866 2.0727107667933766 0 2 2
417 2 6.304940245372264 0.3421799563831018 2.3673836309725313 -2 1 0
95 2 5.7180370822675926 3.878434149449716 0.9994933032084067 0 -1 2
488 2 8.412869655979735 3.9714862640079227 2.347119739328464 0 2 2
243 2 2.6267512130319814 4.605061167336899 2.7829941517199748 -3 1 0
218 2 1.3502049994412864 6.9606295326161325 3.427264502408863 1 2 0
514 1 1.3823509971510177 5.7550824909399365 2.018174430048284 -2 -2 2
217 1 1.2761018049931676 7.4757541626151855 4.296724562821533 1 2 0
516 2 0.5482508701847835 5.253109805777093 1.987703059520997 -2 -2 2
515 2 1.4756183741183415 5.998258052517204 1.0440110307547117 -2 -2 2
219 2 2.040495426836346 7.10488056882521 4.738167450543832 1 2 0
94 1 5.426424418393176 4.728023365616838 1.2710280583396163 0 -1 2
292 1 6.461360729168962 6.836270689387519 2.4197826667326114 0 1 -4
293 2 6.046631502318643 6.073792308150698 1.9469942202922361 0 1 -4
294 2 6.125983249619338 6.851186189551184 3.3322509220063687 0 1 -4
54 2 8.049424334784861 6.003202499034459 2.9359789272300634 -1 -1 0
92 2 5.622734345322079 8.302091722453504 1.741118315121464 2 -1 2
356 2 2.5341908780370774 9.779281507978892 0.537218976214906 2 0 2
30 2 2.3432206868881655 9.256642424654599 3.0204746389842527 0 1 0
28 1 2.7205873334096546 9.675686756428286 2.2029444209424853 0 1 0
29 2 2.710766968097352 10.59413378980899 2.495920195065358 0 1 0
328 1 2.7756588325337748 12.422617267360627 2.9925390568812524 3 -2 -1
330 2 3.387996482716167 12.679955704076088 2.2705718021359367 3 -2 -1
93 2 4.453909103717527 9.330372422358655 1.902311767825419 2 -1 2
329 2 1.9309399555191824 12.886758709149783 2.752265477351672 3 -2 -1
154 1 4.499296864690025 13.025191206176837 0.7606046085764286 -1 0 1
564 2 2.5224971302393357 12.430178830917207 4.657745194991669 1 -1 -1
321 2 7.82652291539442 10.651092748919844 1.4396569337747083 4 0 -3
91 1 5.4502105463324275 9.224006717048804 1.822273459755019 2 -1 2
398 2 6.030165248386678 9.6513592655824 3.455778221690057 3 1 0
397 1 5.717841901016593 9.908383418053187 4.338208130632329 3 1 0
275 2 7.609157291245375 12.161230897056896 3.5847639078507734 0 -2 1
274 1 7.6196411044126 12.847131851277972 4.2631254529275 0 -2 1
399 2 4.777853775004053 9.6862161884618 4.459019955350863 3 1 0
319 1 8.162842733174395 11.203682779391974 2.093224070035674 4 0 -3
320 2 8.802656847947246 10.683931982269915 2.5842995726665032 4 0 -3
70 1 2.635103330716643 16.203675762585284 1.3550125678304228 1 -1 -1
245 2 2.8515411347737865 16.9660417827092 2.8867021939073823 1 -2 3
246 2 2.639986172077588 16.731815593843677 4.42783476460502 1 -2 3
72 2 2.0800539521751973 15.451491882192835 0.8536791148944681 1 -1 -1
71 2 3.5233552157762693 16.042363985446812 0.9797297100313745 1 -1 -1
276 2 7.062416879024791 13.577345973958147 3.992845605494736 0 -2 1
416 2 7.616833435570514 16.871614270526983 1.8284014164651003 -2 0 0
240 2 5.441228027653541 14.13363788462813 2.139218371447117 -1 -2 2
239 2 5.989484552497195 15.56698594106318 2.5217470167594254 -1 -2 2
238 1 5.688434429090368 14.692135862442068 2.8969564267262733 -1 -2 2
415 1 6.644427763094997 16.94839921215745 1.6904951282599705 -2 0 0
507 2 5.742204677938585 14.705591429481146 4.591226637283779 -1 -2 2
280 1 7.468944985009981 13.801158408230833 0.4911010911461224 1 -1 0
441 2 2.555067040776718 2.9787494707190403 7.829567046658982 -1 0 -1
186 2 2.0115339114717066 3.5608227261775625 6.021897369486952 0 1 1
222 2 1.2902854511133075 1.2784993392862063 7.786592293335686 2 1 0
185 2 3.703778932624887 3.417316194181864 5.8374905828712365 0 1 1
184 1 2.9731826479966075 3.76427722342395 6.363569225615634 0 1 1
439 1 2.416012391356143 2.5255507968160975 8.76159860958711 -1 0 -1
73 1 0.38693489267301406 3.4534693278020896 5.660752837829753 1 -1 2
440 2 3.141074127665052 1.8862849337410836 8.93010526869083 -1 0 -1
74 2 0.46451469354595143 2.7540926315586214 4.973164002992824 1 -1 2
220 1 0.8025354923440036 0.5889964730225126 7.249434684940119 2 1 0
553 1 5.254896066353015 3.532419882262397 4.9283313425753645 -1 0 2
455 2 6.806537327349289 1.185229189050996 6.81300419381662 1 2 -2
454 1 6.724217852081077 1.7062099757485034 7.645117461606641 1 2 -2
456 2 7.333898548804279 1.1914451525381045 8.181981442281144 1 2 -2
77 2 8.212420023767404 2.835708617793837 7.624017144016093 -2 2 0
482 2 5.247161474920311 1.3205711179882544 8.42713566965972 0 -1 1
257 2 5.138942341458628 4.28101121135567 8.091132209134232 -2 0 1
76 1 8.94835410306188 3.3997137118605267 7.892818929102476 -2 2 0
346 1 3.4342138773344453 6.418271004111504 5.657105983337484 2 1 2
348 2 3.3502717233585426 5.5276324605611515 5.9887389947436525 2 1 2
347 2 3.4858578413226753 7.090080510483522 6.402979774788826 2 1 2
16 1 2.767447060921423 8.144651452885268 7.470165485177296 0 1 1
18 2 2.73551594296768 7.4637276535703245 8.149818492447098 0 1 1
159 2 0.7887557775737248 8.429846562203677 6.952597852555388 1 2 1
256 1 5.0212496852016955 4.84808388804535 8.837860986091576 -2 0 1
308 2 4.941700097476467 6.331453823317804 5.232837450693685 1 -1 0
307 1 5.900966386072814 6.267183153647922 4.895747822390654 1 -1 0
309 2 6.524325394796832 6.438834818985353 5.63294891814681 1 -1 0
259 1 7.83984768625033 6.783094370496163 6.959923560452221 2 0 1
260 2 7.925389737217194 6.922761613724215 7.8692039196343355 2 0 1
261 2 7.9554588381560505 7.683988073590452 6.568073448560485 2 0 1
189 2 8.8493334959964 5.7764922749287075 6.302073594977909 0 2 0
395 2 0.39515906734721074 11.942346501754013 7.600259621538336 2 1 3
318 2 2.705442680652117 9.060617611106911 5.723662732758571 1 1 -2
17 2 3.1769372695020968 8.922930483205677 7.848057801092358 0 1 1
317 2 2.8738821959000926 10.589143283967033 5.5576366365950385 1 1 -2
562 1 2.5397511652451823 12.268205975606525 5.6157600895499895 1 -1 -1
563 2 1.6348406110301188 12.02048844126705 5.962954178176514 1 -1 -1
316 1 3.0373833998160693 9.752675911620079 5.1116591755992244 1 1 -2
39 2 4.529734996303131 10.968743078641818 7.935820863744392 1 0 -1
409 1 0.44394212377884856 12.787339933982892 9.051427782331295 3 2 -2
37 1 4.072669043536453 10.39885574936003 8.568889679430614 1 0 -1
459 2 8.64908214879153 8.983726963847056 4.857425136382936 -1 0 0
457 1 7.9329066272020174 8.839869561441148 5.5500884415672225 -1 0 0
539 2 8.144805828664543 10.401166852126135 6.267019660719524 -3 -1 2
458 2 7.083851468010984 9.145624899704572 5.037804806590009 -1 0 0
252 2 5.800892383725682 12.750219090534472 6.28013182887257 2 1 2
538 1 8.203052310079975 11.352057728044707 6.571403142364187 -3 -1 2
250 1 5.738974830364279 12.139299103135546 7.100728377472091 2 1 2
540 2 8.352664229808113 11.914486772309976 5.787872215390751 -3 -1 2
251 2 6.5417688515129955 11.663294158257779 6.988731025305072 2 1 2
420 2 1.2003930860616634 15.984872749588552 8.317126412609106 3 2 -1
410 2 0.8508268604746181 13.650487581216616 8.862186604428805 3 2 -2
107 2 3.3794810828320516 13.570879061104478 6.485327293398974 -1 -1 1
145 1 1.2217801285601673 16.003026466231535 5.243365525432915 1 -1 2
106 1 3.49001609717692 14.501441236968457 6.708908076759728 -1 -1 1
146 2 1.0291122805525421 16.69765344386146 5.93992718860501 1 -1 2
147 2 1.5560112943447864 15.193307105364097 5.615486708628542 1 -1 2
108 2 2.880706426733136 14.744141187618347 7.461842500972571 -1 -1 1
418 1 1.6869886052223861 15.186075948148998 8.66347352873312 3 2 -1
505 1 5.820370459886463 14.659376245462783 5.572863373680674 -1 -2 2
324 2 8.01810277416845 17.195559945640788 5.631781127610281 -2 -1 0
284 2 7.023648003487595 14.617631768018775 8.1811047285324 -1 2 0
139 1 8.532329486831719 15.53524788867909 8.103544652638494 -1 2 -1
141 2 8.44168034397531 16.429651831156082 8.445836297658921 -1 2 -1
506 2 4.931291505291399 14.622313933765557 5.946930461201061 -1 -2 2
323 2 6.759206206787587 16.36963430032703 5.895857507283225 -2 -1 0
283 1 6.3518977884036785 14.199982902055217 8.740487976350837 -1 2 0
285 2 6.017721026012317 13.498850199275351 8.143902220071586 -1 2 0
322 1 7.058597438994098 17.280898244705938 5.742794279982297 -2 -1 0
520 1 2.3885078286641424 0.398684346576239 12.443989412084536 2 0 0
522 2 1.9331183905756693 1.014171720118295 11.908451429302302 2 0 0
150 2 1.7007816102069169 2.6684151485659036 10.188313009375156 4 -1 1
149 2 1.6011605499389492 3.2851335084765387 11.594583474168914 4 -1 1
148 1 1.228666900359914 2.5178355638215666 11.031505996546679 4 -1 1
521 2 3.255304485631353 0.7733462688862953 12.745085060928355 2 0 0
483 2 4.584066325662319 0.2891328659610043 9.534280402688191 0 -1 1
481 1 4.554449271289782 1.2155867165861434 9.153280345618944 0 -1 1
451 1 5.433305459613493 2.6889098205458275 11.227449812587576 -1 0 -1
453 2 5.148177104830911 2.20718522428827 10.324748844367136 -1 0 -1
452 2 6.3303425646695155 3.0864748989326376 10.960968546151875 -1 0 -1
480 2 7.719837822111921 0.9614691385342473 12.8817940684467 -1 -1 0
57 2 5.1912255165758285 1.6668053795681281 12.554202792180067 0 0 -2
31 1 8.376263553842934 0.5281709564020742 9.461225407144486 -1 2 1
14 2 4.931741615237517 4.117787459832054 11.94530214534346 1 0 0
35 2 8.58903047457799 3.9880199442045603 11.735759304020569 0 3 -2
32 2 7.845890106105725 0.26793973510674585 10.280424359108169 -1 2 1
55 1 4.810422367706359 1.2762289214052602 13.374780034097455 0 0 -2
572 2 8.177947483216156 4.029528491855642 9.443381682914273 0 -2 1
550 1 2.0897200157586378 4.520726456354929 12.693668729431272 0 -2 -1
552 2 3.089455891240912 4.5261726067328025 12.701058023296905 0 -2 -1
89 2 3.4707953849003474 6.8986551268496346 10.500896525022753 -1 0 1
88 1 4.201083856878807 7.347232228213222 11.01935024366962 -1 0 1
90 2 3.6776437363692747 7.809732995419431 11.712226584580614 -1 0 1
6 2 1.5563459467803686 6.093793940525525 12.216720456632423 -1 2 2
4 1 1.2700173500039464 6.904012378961848 11.714277727307934 -1 2 2
15 2 4.469694866604462 5.707025552301138 12.010788613879974 1 0 0
268 1 2.659396469604227 6.0647990567463514 9.13999882794852 0 2 3
269 2 1.940163204901827 5.742759600956466 9.608163889229923 0 2 3
5 2 0.8400315488420158 7.495922337951755 12.330604889517936 -1 2 2
270 2 3.342799965370169 5.382539827282962 9.13343564094969 0 2 3
312 2 8.281757475616686 7.9913409713137975 13.335005828573841 2 1 0
571 1 7.692112146200932 4.515610357508605 10.129607901685347 0 -2 1
13 1 4.693029353089094 4.8593527128928535 12.506342326286452 1 0 0
130 1 8.075623856486349 7.224393811610589 9.937877237595618 2 0 1
573 2 7.894878814200038 5.438547725035788 9.903140618100734 0 -2 1
50 2 5.294687069072866 8.358366915446325 10.304130026905492 2 0 0
310 1 8.019702603000509 7.357904171975805 12.687000860868997 2 1 0
132 2 7.901951346503483 7.2285055182768145 10.896197233646646 2 0 1
311 2 7.515245625429413 6.694442606405677 13.114820260860819 2 1 0
258 2 5.909353279176593 5.076220803653374 9.123322319212246 -2 0 1
205 1 2.49230670376031 11.63870633321986 10.420234813360894 -2 3 -1
207 2 1.6106027846590063 11.99985789105464 10.006102723935607 -2 3 -1
450 2 3.8723765122725773 12.455546101261197 11.30061834613326 1 -1 -2
464 2 2.009607860174004 11.399683312484818 12.161870745701927 1 1 2
206 2 2.9229567693772536 11.16076510535287 9.676883375559468 -2 3 -1
448 1 4.561439537224699 12.595434554392122 11.974586087595158 1 -1 -2
463 1 1.541532974767703 11.013665096622669 12.95535855333265 1 1 2
465 2 1.8819409480933362 10.10131188922541 13.056418898997482 1 1 2
373 1 3.257780643884016 8.869702625204495 13.14453300762332 -2 1 0
375 2 4.135649810920075 9.351491208235759 13.147345321241367 -2 1 0
51 2 6.760308030873196 8.871334492145191 9.912267336816203 2 0 0
49 1 5.874198296961976 9.129549946022292 10.155090426262795 2 0 0
353 2 5.119335709968097 11.212023459049355 12.636964835541573 -1 -1 0
354 2 5.672449979679854 9.892910811169061 12.035042629085064 -1 -1 0
352 1 5.462743096041256 10.316762138239085 12.846857995233462 -1 -1 0
194 2 7.365164220352968 12.139435233756506 10.607680780529636 0 0 0
449 2 5.330886923507263 12.68466905984991 11.417054467870571 1 -1 -2
193 1 6.966743922823218 12.990236855384042 10.775790434670053 0 0 0
508 1 8.615303099874833 10.930790089073591 10.528235189371983 -1 1 1
510 2 8.608649604754069 10.040220675738906 10.986221485452555 -1 1 1
38 2 4.7464259352245355 10.080305609199884 9.211295443863337 1 0 -1
100 1 0.8951973566577303 13.990317985946469 12.280693549173893 1 -1 0
419 2 1.9827614479288787 15.45442678632745 9.604576129323545 3 2 -1
288 2 2.565863074184698 16.267027018754643 11.598553952168562 1 -2 -1
286 1 2.7429972816363777 15.527757944806915 11.00281151838197 1 -2 -1
287 2 2.3929599468275953 14.791481128370544 11.50106226991788 1 -2 -1
254 2 4.033707946360616 13.654660509185858 13.327458889301727 0 0 -1
339 2 4.351155876620174 15.727060358437893 10.552599754635303 1 -1 -2
101 2 0.4141490021347498 13.193959167311618 11.954474301196354 1 -1 0
102 2 0.3834129726319766 14.79369617264817 12.097222554495042 1 -1 0
512 2 8.18841313399822 14.526006518400344 13.210143433208518 0 -1 1
195 2 6.921958857260851 13.479153726716142 9.895402182557364 0 0 0
513 2 7.5427129605689816 14.020001322239242 11.865504093505198 0 -1 1
376 1 7.192992556317856 17.021917582238906 11.709515428301838 0 0 0
377 2 6.316474380908862 16.72559307776834 11.38936993612693 0 0 0
378 2 7.65647610084801 16.194045072164148 12.014657966612395 0 0 0
337 1 5.164027070056254 16.07704709732538 10.21173646532667 1 -1 -2
338 2 5.5508959247459355 15.345972234324952 9.680511406954343 1 -1 -2
511 1 8.166925848115092 14.666289441971031 12.263634119123406 0 -1 1
85 1 0.8836132735887614 0.5438954519418726 14.743595796061108 3 0 1
291 2 1.5225964495632012 3.2569909097560683 15.756477949310758 2 2 1
359 2 4.135195847794467 3.2969713567859156 15.75283092297484 -1 1 -1
496 1 1.2570313926281 0.945276962090656 17.330462438671958 -2 0 -1
289 1 1.0203613132079723 3.8573348554592117 15.119637599864166 2 2 1
551 2 1.7240706116483107 4.248772594962235 13.595811991983071 0 -2 -1
332 2 2.270680322340104 2.140873950147477 17.28643738290903 2 -1 -1
87 2 1.4839093751727834 0.8136244131235777 14.053473984113925 3 0 1
498 2 1.2514491135992596 0.8567483883358384 16.300118856204413 -2 0 -1
331 1 2.7944798805334257 2.9192566014514054 16.970511626123596 2 -1 -1
497 2 1.8204840022500026 0.2684147785447525 17.653833473200542 -2 0 -1
333 2 2.712709357234249 3.489862453532142 17.73280287473499 2 -1 -1
479 2 8.012637770008693 2.2201665654620144 13.679308511288495 -1 -1 0
478 1 8.252511700415642 1.283975970662283 13.662501768714964 -1 -1 0
358 1 4.960463497244198 3.174758476088762 15.19033375290459 -1 1 -1
56 2 4.7793010567172125 2.020955831802453 13.97581719099651 0 0 -2
40 1 7.027023045519769 2.7071252456828137 17.00890721513621 0 -1 -1
41 2 7.114967287474206 1.7512643848127079 16.723916686781266 0 -1 -1
360 2 5.584705152414464 2.7968707372572132 15.839039949968434 -1 1 -1
401 2 8.22299841305366 0.5234883118156592 15.193889174636425 0 2 -1
42 2 7.739492575603802 3.1137924189283144 16.379444924855402 0 -1 -1
400 1 8.289204570148728 0.2115556377786867 16.144377111203678 0 2 -1
412 1 8.466218911347635 3.9053259663830566 15.404963224516761 0 -1 0
227 2 1.4339503554408402 5.382425087572531 15.920092188031411 -1 -1 -1
143 2 2.7870121168424484 7.122125756021214 15.933385250263475 0 0 -1
226 1 1.5974289160121262 6.144642590336637 16.47923199433802 -1 -1 -1
142 1 3.389225191353709 7.89075329837717 15.640680816328004 0 0 -1
144 2 4.3240672564986005 7.641287626226741 15.693187795021487 0 0 -1
374 2 3.191956570854663 8.414569169389786 14.013113433068467 -2 1 0
228 2 0.8286692170779588 6.769176080528065 16.380510650974106 -1 -1 -1
172 1 8.461123272896694 6.594944833157607 16.894052793628674 1 1 -2
174 2 8.710463974519984 5.6888040988550355 16.65153707288661 1 1 -2
414 2 7.997571053478246 4.452024119718117 14.701381473760636 0 -1 0
344 2 6.101252337991903 4.93887078949181 13.60089865392205 1 1 0
425 2 6.660635683429145 6.653716236832001 16.62321435671159 0 0 0
343 1 6.790746791886611 5.404095214840743 14.092824777838533 1 1 0
424 1 5.674786188996769 6.500701339630015 16.333905304595643 0 0 0
345 2 6.354741569257984 5.6994646340378035 14.87115165771876 1 1 0
426 2 5.3341353209678335 5.886743899171403 16.98614444789576 0 0 0
404 2 0.7142013927025277 10.038327442130102 16.83600541240523 1 -1 -2
357 2 2.8889145380195176 9.223511292942987 16.37641061178164 2 0 1
302 2 2.0367077742379402 11.987153154861778 14.633257687894906 2 -2 -3
355 1 2.3660219975486583 9.959427795429091 16.87133355991022 2 0 1
303 2 2.505320087086795 11.51777617037511 16.053715367258032 2 -2 -3
301 1 2.436865973433088 12.279410134278628 15.45268346053089 2 -2 -3
164 2 5.921754376713532 10.557784521043013 17.361294544235207 1 0 -2
560 2 8.50015332110171 11.408411905764368 13.84041659184347 -1 3 0
163 1 6.423584047710406 11.307277893008676 17.027386139112267 1 0 -2
167 2 7.938044738333993 9.802715327776296 14.874211419677165 0 -1 -2
165 2 6.819804592668886 11.038938657774139 16.197371674972715 1 0 -2
166 1 7.274377553650043 10.554138767271803 14.777532209414137 0 -1 -2
168 2 6.62151474507586 10.235580488405244 14.144204377324746 0 -1 -2
155 2 5.060293361988355 12.312372603356636 17.733725393514767 -1 0 0
282 2 7.318607373075986 12.847159030507745 17.707698884651883 1 -1 -1
156 2 4.5698478738978086 13.615336097141729 17.281818482966727 -1 0 0
524 2 1.75434811962659 13.431849199272747 17.05606023226707 -2 3 2
365 2 0.7829669847702193 16.151408168407105 14.838365391070981 1 -2 2
366 2 1.0462710090917156 14.786120084629191 14.140032308214813 1 -2 2
255 2 3.2548803153790127 13.519669653020074 14.655732005925495 0 0 -1
525 2 1.2285610016791093 14.707703798323736 16.411810110893192 -2 3 2
253 1 3.703051173378584 14.214683246028406 14.011743940911819 0 0 -1
523 1 1.4158320401454236 14.282612584008096 17.315432270143756 -2 3 2
364 1 0.5913413395762517 15.213487468027786 14.863614927401361 1 -2 2
66 2 6.927726324983847 15.249793406195634 14.782459110497227 -1 1 -1
543 2 5.347760317555046 17.059372112766614 14.086109879949356 -1 -3 -2
65 2 7.807101423681423 14.317074523115583 15.558131273657557 -1 1 -1
402 2 8.26112025839961 16.51426241771111 16.026496051170785 0 1 -1
10 1 5.32412527394663 15.48014696287228 17.29618213132232 2 -3 0
11 2 5.250409062974097 15.782728262851512 16.315184504142415 2 -3 0
542 2 4.738499952495267 15.500042779139388 14.210610763720236 -1 -3 -2
541 1 5.461445360837597 16.147062464185282 14.39682114167896 -1 -3 -2
64 1 7.880358999761555 15.037873684105023 14.945477331196887 -1 1 -1
281 2 6.764284323437233 14.349996845352596 17.41298558889032 1 -1 -1
12 2 5.746549246758733 16.26567229890905 17.722565480651824 2 -3 0
569 2 9.647292516272213 2.674641382582419 3.2941683826767987 2 0 0
568 1 10.341618462340998 2.520310414766127 3.9866825056578548 2 0 0
407 2 11.77228260762499 3.2857972031302123 3.5065664489042767 2 1 -1
215 2 11.447267572707077 0.5734735710894765 3.819755183154657 1 1 1
406 1 12.378523045893669 3.808336285783141 2.966371999368634 2 1 -1
214 1 12.330297622702176 0.31725616531578427 3.6282140047300184 1 1 1
570 2 10.091082753255465 3.064509941759241 4.748354582397806 2 0 0
443 2 12.269968002565099 3.945089944681977 1.1466910398048884 -2 0 1
83 2 9.9961895135992 1.9881775854226476 0.6152539858344604 2 0 -3
24 2 13.45899347376316 1.036470497673573 2.258006226950346 0 0 0
63 2 14.67674231960826 2.4517680358280947 0.6878241685425637 2 1 -1
408 2 13.281424300036157 3.714997931118535 3.352518055858495 2 1 -1
535 1 16.66736822279937 3.8682611146374297 2.5552173374524907 -1 -2 -1
537 2 16.189824847254318 3.4516645462964126 1.795200740288499 -1 -2 -1
22 1 14.009040534423702 1.03409986047758 1.4531047927681817 0 0 0
114 2 15.538792888868011 3.649305860623244 3.826349263320225 -2 1 1
112 1 14.76436148198596 3.697085737805146 4.427282546535928 -2 1 1
113 2 14.555591804782761 2.7153085178885332 4.686227758598859 -2 1 1
471 2 15.639222088537975 0.5903858484834059 1.8052227552653917 1 1 0
315 2 17.387319075644836 1.1933613117452946 3.0694223515765553 -3 -2 1
470 2 17.05172664205244 0.6964521053170392 0.9932757969650581 1 1 0
469 1 16.57583482934491 0.2577742948113009 1.6882381073876436 1 1 0
23 2 13.425717513384305 0.5855232290852553 0.7957801526659132 0 0 0
536 2 17.421519878938525 3.2781144961050277 2.8164965745312314 -1 -2 -1
53 2 9.139818653365234 5.504191033885465 4.06010274056312 -1 -1 0
491 2 12.21617705937102 5.6689978277455255 3.1658451377082133 1 0 -2
237 2 9.694055378837055 8.63311520778399 2.8209150707605595 0 1 -3
490 1 12.33386491145092 6.649879186223417 3.138849317485515 1 0 -2
519 2 9.800892163254531 6.571357575805306 1.9717204374528483 0 -2 0
517 1 10.0462145422294 7.423567604729724 1.5751998993173382 0 -2 0
492 2 12.037927794841632 6.861620093240233 4.046275761739783 1 0 -2
518 2 11.012174764354311 7.3665369195404145 1.4186189551465695 0 -2 0
52 1 8.962588158955857 5.56804244780583 3.0766599103120247 -1 -1 0
386 2 15.238042020904794 6.2708749819651635 1.4965419904166526 -1 -2 1
484 1 14.907354670982059 7.052470690573162 3.0223850903028397 0 1 -1
485 2 15.370666062061924 6.586380527405301 3.7387422792387768 0 1 -1
486 2 13.864546917795218 6.932965326449102 3.285413706777276 0 1 -1
231 2 15.500572249569798 8.494951380073875 3.8293166924003508 -1 -2 -4
385 1 15.288533908754186 5.977988023401748 0.534129154819927 -1 -2 1
387 2 15.402919092443575 4.992028742434729 0.4789305553644412 -1 -2 1
235 1 9.705436496589243 9.325209589382071 3.512400613003506 0 1 -3
236 2 10.595498136053196 9.71186243826378 3.6710447824911645 0 1 -3
304 1 11.917971988684435 10.751364023912043 3.9201469112039433 -2 -1 0
306 2 11.338349523019613 11.571507251980764 3.970999030720856 -2 -1 0
26 2 9.2944212080935 12.865797130770424 4.338786144756404 1 -1 -1
305 2 12.67068059017113 10.790413662897109 4.606324086408565 -2 -1 0
25 1 10.253775570383445 12.81532163873401 4.2205489847360775 1 -1 -1
383 2 13.076491272875439 10.85377862113804 2.55383044528227 0 1 -1
120 2 13.606338939819391 10.295468372554817 0.5332798092715172 -2 2 0
229 1 15.949008020887751 9.220999111602906 4.328534342060364 -1 -2 -4
382 1 13.71202987571164 11.218526435707831 1.8395474042708675 0 1 -1
384 2 14.630200250150201 11.100382520400471 2.154697704994078 0 1 -1
176 2 16.43666431192774 10.315704881330062 2.9388015842203856 1 -2 2
175 1 16.29826309820764 11.070783404096696 2.276010160529959 1 -2 2
177 2 16.827652188576522 11.854542512896868 2.487043996217208 1 -2 2
462 2 13.583124241106129 12.963450354536713 2.1398469086413616 -2 -1 0
405 2 16.960037404071894 10.37644220613668 0.7413593269279062 0 -1 -1
566 2 8.968597483344556 14.030683883000252 1.628931896812437 -1 1 2
210 2 9.719713340633085 17.26729754799674 1.4986803898875887 -1 -1 -1
216 2 12.52051692720057 16.675004305176046 3.9226457762171743 1 0 1
27 2 10.461213437717294 13.35966754465475 3.380598634501894 1 -1 -1
565 1 9.910494205167463 14.040857626794777 1.9068806990540854 -1 1 2
567 2 10.449610759688602 14.154897197507061 1.0953928485282907 -1 1 2
183 2 9.71312956861379 16.95580676612291 3.9959802305038403 -1 0 1
7 1 13.23455803749572 15.068272233993781 4.415449984288245 2 0 -1
9 2 13.22173630543297 14.75867377424954 3.4596052122878906 2 0 -1
208 1 9.304259097107224 16.662310576738975 2.1723751706025274 -1 -1 -1
209 2 9.918335642582027 15.911968453804587 2.0998540797018936 -1 -1 -1
391 1 15.787737534334148 16.05347885222255 4.626262042480397 -1 0 1
223 1 17.471869370167276 13.43971072428734 3.3884224709868445 1 1 -1
110 2 16.98537766445183 14.53455214250163 0.9413237987081045 -3 -1 1
225 2 16.964221876750468 13.511751044782697 4.219632178282254 1 1 -1
461 2 14.256480197263874 14.24303320132054 1.5310224864072974 -2 -1 0
460 1 13.477607070186826 13.883234090943018 1.934401668967531 -2 -1 0
224 2 17.098783373966263 14.171210650506524 2.8479662354590385 1 1 -1
8 2 14.151509513886168 15.409889924577259 4.340799216292713 2 0 -1
109 1 16.16615609236603 14.911525664242378 1.3865046691094634 -3 -1 1
111 2 16.3482433110015 15.87550305467265 1.4687327508008772 -3 -1 1
393 2 16.752020557768002 16.042313040353253 4.542016884094731 -1 0 1
78 2 9.13084185234985 3.945139239248586 7.092562942788917 -2 2 0
370 1 10.77460704923078 1.4280522092585974 6.941437292027769 -1 1 -2
372 2 10.239529251503198 0.9811078063700458 6.240950275287381 -1 1 -2
2 2 11.89125856320628 2.996115583530974 6.191479954538539 -1 2 2
1 1 11.843255892929673 3.9140237855014193 6.531819701520735 -1 2 2
371 2 10.120341797622313 1.9505974633270784 7.47315351305056 -1 1 -2
3 2 12.70672739956364 4.311053239873948 6.388897287135173 -1 2 2
171 2 12.29125779734497 4.112363399916799 8.530131604998033 -3 1 2
162 2 13.357686302381577 1.107457724271971 4.970466985094107 0 2 1
533 2 15.402668888280184 0.5225908565522646 8.990405339344928 -1 2 0
558 2 13.513251825696432 1.6293227365593996 7.743921497983494 -2 0 -1
556 1 13.999198104358811 1.7636290241812256 8.62049457144539 -2 0 -1
161 2 14.80428880770428 0.5523344461415216 5.358269504641306 0 2 1
160 1 14.165498877893588 1.290146598801885 5.488657511839787 0 2 1
545 2 14.946327447529187 2.9164998547919034 7.841577991912365 1 2 2
544 1 15.761607071400482 3.432740060038581 7.578253211963387 1 2 2
75 2 16.999564532213054 3.1406215020453825 6.310584719714382 0 -1 2
546 2 15.407036704024295 4.285654380264672 7.151748131470881 1 2 2
221 2 17.27389224776725 0.35629761938362015 7.785427006260352 1 1 0
557 2 13.441654210609626 2.4104595314363455 9.072729444098094 -2 0 -1
187 1 9.447955837671389 5.166429347155477 5.76951046868319 0 2 0
247 1 11.81015757045966 6.870463348570583 5.844160799689986 0 -2 0
248 2 11.84774437319089 7.686665852106458 6.363986609839559 0 -2 0
188 2 10.358542514333688 5.456863095521339 5.802740892459542 0 2 0
249 2 12.52129716151858 6.3359084544710855 6.26840694054733 0 -2 0
434 2 11.189914260220704 8.496233738673183 8.415594340425118 -1 -1 -1
277 1 16.531930762717447 6.116738407286168 5.20507686474276 -2 2 1
278 2 16.76739000542617 5.15966569869436 4.979451262336366 -2 2 1
197 2 15.464093550142593 7.3417368084484655 8.664703135777813 1 1 1
196 1 15.159876618356071 7.866196511680724 7.89645328507459 1 1 1
198 2 16.00378025579008 8.161110979866711 7.491940952141598 1 1 1
232 1 14.373330904762042 5.376681427903084 6.587772325684354 0 -1 1
233 2 14.578605634335187 5.331897268592459 5.676003083632267 0 -1 1
234 2 14.690833074953428 6.275609162951492 6.80412394146182 0 -1 1
279 2 17.297230191987648 6.685879759881654 4.951214569732178 -2 2 1
230 2 16.504340492220376 8.74923683980851 4.965718833809939 -1 -2 -4
437 2 10.766402303255385 11.968113205628747 9.072732345565198 0 0 0
351 2 11.049207412865288 10.586746779908502 7.55186725803544 1 2 0
433 1 11.48474704086717 8.865042349420115 7.557611167644011 -1 -1 -1
350 2 9.79840844236238 11.376527459468772 7.362730784299092 1 2 0
349 1 10.74921829351225 11.490421769567513 7.518342853156589 1 2 0
435 2 12.4329072051343 9.14952088669936 7.731871058058609 -1 -1 -1
204 2 12.272407768918885 12.707536180797543 6.205816866872118 0 0 0
394 1 17.450648132256763 11.523487526771586 6.72066621090182 1 1 3
157 1 17.246087643643975 8.79464110649685 6.649095634827294 0 2 1
158 2 17.31893207944957 9.774406870372463 6.779537088976011 0 2 1
68 2 14.360982501970005 9.178837088794854 7.9251865831734865 -2 -1 -1
69 2 13.832288759893622 10.541701143175397 8.610581295132533 -2 -1 -1
80 2 14.773588947843965 10.163877571448541 4.956503574401527 -1 -1 1
67 1 13.829963678254709 9.99298381677562 7.760300312668078 -2 -1 -1
334 1 15.49630769834686 12.957977472968363 5.655554642232981 0 2 1
335 2 14.841367999065632 12.243374432021351 5.439044274162506 0 2 1
79 1 14.092477695701982 10.750364000146392 5.298994010978152 -1 -1 1
81 2 14.071857295938631 10.515171237759224 6.302856685902129 -1 -1 1
396 2 16.743052304282685 12.118544506315382 6.399468221744967 1 1 3
140 2 9.295686055507701 15.415627947996711 7.5480565857083946 -1 2 -1
432 2 12.088061534718605 17.186642527289493 7.545354639594812 0 4 1
202 1 12.795617223392053 13.412690097740315 6.53288710972649 0 0 0
430 1 12.72076647961023 16.469557167432317 7.793167453427675 0 4 1
181 1 9.795662965327612 16.954562298713366 4.965267253792708 -1 0 1
151 1 10.445601805761866 14.623992633527877 6.287925011754209 0 0 2
152 2 11.334497102232303 14.393706326419071 6.5548809751931705 0 0 2
153 2 10.190148238869797 13.914598225341233 5.7188231853187315 0 0 2
431 2 12.453485629348199 16.289068390641944 8.770852194585915 0 4 1
182 2 10.144224241374346 16.04289145444125 5.288665755263609 -1 0 1
203 2 12.945578122563782 13.932074970472044 5.733211013567338 0 0 0
392 2 15.621052582105516 15.65198474421772 5.525113793935974 -1 0 1
336 2 15.044157787345023 13.676372880553533 6.214210837173394 0 2 1
423 2 15.416601819798935 15.885980928237334 7.557665796266012 -1 2 -1
532 1 16.125164909542477 17.17652466355755 8.883559453563874 -1 1 0
422 2 13.985736460738517 15.618861391159179 7.320156499073863 -1 2 -1