LAMMPS data file via write_data, version 3 Mar 2020, timestep = 25700000

2016 atoms
2 atom types

0.0000000000000000e+00 1.7937403201895691e+01 xlo xhi
-8.5863418261507007e-02 4.5082023395131685e+01 ylo yhi
0.0000000000000000e+00 1.9074533405989353e+01 zlo zhi
4.0991637058371638e-02 -6.6678308343594992e+00 -2.1945219567257368e-02 xy xz yz

Masses

1 16
2 2

Atoms # atomic

1162 1 5.9358492476007703e+00 4.8072758389271790e+00 8.1016597273334892e+00 0 0 -2
468 2 8.8515382653144492e-01 2.8558391000537080e+00 8.7973263799145016e+00 -1 0 2
296 2 7.9062249871690709e+00 3.7087941573331964e+00 1.0015243864474899e+01 1 0 3
85 1 -2.9494863863648861e+00 5.2120075522208600e+00 1.2147336452561483e+01 2 0 -3
754 1 -1.8777404301859653e+00 9.0950576766223499e+00 1.8979026248739906e+01 0 0 0
748 1 1.0059939677925229e+01 1.3180052437099796e+00 9.7964841358465709e+00 -3 0 1
708 2 9.1098228884270842e+00 5.4006798582016584e+00 1.0822767591119252e+01 -1 0 -3
696 2 1.0797740016125950e+01 4.1452484796844402e+00 1.7047902158251972e+01 -2 0 -1
786 2 3.9243080501338303e+00 4.0234203512313647e+00 1.4241124051968871e+01 -3 0 -2
685 1 1.2562923586991257e+00 1.5859080749790579e+00 9.9122116902517217e+00 -3 0 1
165 2 7.9426471191172077e+00 1.0419116715700476e+01 1.0464916759099148e+00 4 0 3
247 1 -3.2557158517583051e-01 5.3757357669712560e+00 7.2355596704572838e+00 0 0 0
1044 2 1.0406820620006847e+00 7.8636633466581856e+00 5.6169261863172402e+00 0 0 0
260 2 1.3289811743946071e+01 9.6265253261969104e+00 1.2998026119141086e+01 -2 0 -1
1518 2 -3.0513419826134465e+00 8.8468826289437121e+00 1.1931263543256152e+01 0 0 0
878 2 2.8087641147150060e+00 3.9680233788230206e+00 6.8829553469946603e-01 -3 0 0
1076 2 1.0497107005616707e+01 7.3952825213393423e+00 1.2118760253619671e+01 0 0 0
29 2 3.9865137167225413e+00 5.0638908016976520e+00 4.6984631020545331e+00 -3 0 -4
690 2 1.1607344316155100e+01 7.4039216289020890e+00 6.6228430411878172e+00 -4 0 -1
1043 2 3.6077557294709495e-01 8.6760443101820677e+00 6.7302510528901882e+00 0 0 0
993 2 4.1111255049610911e+00 2.5622196493186284e+00 1.8186991405898297e+01 2 0 1
785 2 5.2617217092333668e+00 3.2493062709603548e+00 1.4301864830066631e+01 -3 0 -2
94 1 1.3480466577476372e+01 1.6460367683001160e+00 2.8811913035215753e-01 -2 0 -1
890 2 9.5389995549774440e+00 8.1714496111005974e-01 6.6639568544944749e+00 -1 0 0
370 1 -1.8779006984793978e+00 1.0390505421316117e+01 9.4130333260169987e+00 -5 0 -3
310 1 6.1075758568367799e-01 5.6298276561203222e+00 2.3223188474304148e+00 1 0 -2
302 2 1.0810701099313174e+01 8.9552964114841949e+00 1.4599959757241074e+01 1 0 -1
615 2 1.3813646773389232e+01 9.3571601564957749e+00 8.0910675132118703e-01 -2 0 0
525 2 2.3773703798975760e+00 1.1033980396864340e+01 7.3769141823366924e-01 -2 0 -3
47 2 8.5055094980152361e+00 6.6192085613723064e+00 8.7142957192380273e+00 -3 0 1
627 2 8.6365200778130919e+00 1.0959081504961619e+01 4.9014307125770911e+00 -1 0 0
460 1 9.8899705917424097e+00 1.8699799787716096e+00 2.1113628598284646e+00 -4 0 -2
38 2 1.2964805512542512e+01 5.2783095505456137e+00 4.3851837408601950e+00 -4 0 -2
250 1 1.0349258693329094e+01 3.1161637900801371e+00 4.4945195073914439e+00 -4 0 2
652 1 1.4131174067729338e+01 1.0484676686016609e+01 2.1277691329681434e+00 -2 0 -1
301 1 1.0038319292477533e+01 9.5443304262954225e+00 1.4343136763673320e+01 1 0 -1
949 1 -1.9579984756847502e+00 3.0107187629305900e+00 1.4079498712710047e+01 -1 0 1
292 1 1.1659885251818038e+01 5.3310370389668806e+00 1.3933741355866305e+01 1 0 -3
463 1 -4.8296744123940458e+00 2.9424866866362911e+00 1.8814081246387524e+01 2 0 -1
434 2 1.4853960695967114e+01 5.8366929044173679e+00 3.3930982197418702e+00 -1 0 1
74 2 3.1592673312662756e+00 6.3560832472422559e+00 4.8389282743681417e-01 -4 0 1
780 2 3.1827410203511914e+00 8.8719596410255139e+00 9.5713397772895235e+00 0 0 -1
365 2 1.4023954401496736e+01 6.9588678367642762e+00 6.5523334642834703e+00 0 0 1
87 2 -3.5359944670509886e+00 4.4987472210787489e+00 1.1776866430278961e+01 2 0 -3
439 1 8.6639321126165072e+00 5.0282881890078546e+00 7.0748926846676694e+00 -2 0 0
320 2 1.2640205798926100e+01 3.8707804024076440e+00 1.4119356778179290e+01 -4 0 -3
267 2 -1.9473057843560415e-01 6.5828407931061825e+00 1.7393133067207547e+01 1 0 -1
503 2 9.8101595415528808e-01 3.1011830108182803e+00 4.0085872414875761e+00 0 0 0
527 2 5.1098381233918628e+00 1.1843729086341939e+00 5.5330665218986796e+00 -2 0 0
765 2 2.5991486681846760e+00 5.9822904704312894e+00 1.3286772092821082e+01 -3 0 -3
441 2 7.7942784730741241e+00 4.5672015659570429e+00 6.9345251638465593e+00 -2 0 1
25 1 4.2392348786774585e+00 8.3460056933471112e+00 1.2943051198581145e+01 -1 0 -4
273 2 1.4483215009448747e+01 4.5448080617056918e-01 5.5678850870907102e+00 -1 0 -1
2 2 9.0929578941329918e+00 8.2359551172269061e+00 1.3631764924535592e+01 -2 0 -1
467 2 4.2952099642311659e-01 3.9682666407444893e+00 7.7167740150289328e+00 -1 0 2
230 2 9.2439364509697608e-01 3.3448368186502259e-01 5.4284376187042493e+00 0 0 -2
359 2 5.0640805499650856e+00 7.7730816410597052e+00 9.8319403158345526e+00 1 0 -2
39 2 1.1579962424866022e+01 4.4115512546062465e+00 4.4355518674180594e+00 -4 0 -2
608 2 1.2170443563454914e+01 7.0168066460528440e+00 1.5088841818832993e+01 -4 0 -1
749 2 1.0071415587385449e+01 1.6511456792351078e+00 1.0685673781871422e+01 -3 0 1
199 1 -3.5858857059198685e+00 6.6680481077360083e+00 1.4241340055216828e+01 -1 0 -6
630 2 7.2560037598762612e+00 9.1618127826645139e+00 1.5481398716150593e+01 -2 0 1
487 1 1.1226936153967690e+00 1.1120932951733995e+01 8.1476777286144433e+00 -4 0 0
83 2 2.9166122492426689e+00 6.4465950869268109e+00 7.9489561167892520e+00 0 0 -3
353 2 2.3310995965594188e+00 7.6858415429633089e+00 1.8714271673782861e+01 -2 0 0
299 2 2.1108374841671207e-01 4.0378943224393673e+00 1.1407220724672744e+01 -2 0 -2
557 2 1.8601134603064002e+00 7.2305976335258002e+00 1.6268886791545096e+01 0 0 1
398 2 5.1631597195609946e-01 6.0135009060900790e+00 4.1160745137085808e+00 2 0 0
620 2 1.0881994638901894e+01 7.4216872073482394e+00 1.9038590357213614e+01 -5 0 -2
205 1 1.3015415466796298e+01 3.5018842395361380e+00 1.0948324776932617e+01 3 0 0
606 2 5.8809676129875124e+00 2.1246220114368253e-01 1.8969362287081101e+01 0 0 1
1635 2 5.9245326225334258e+00 5.7676111068533737e+00 5.1850962086566357e+00 1 0 0
881 2 1.2984774232658733e+01 2.5908563527253636e+00 6.2080051022471467e+00 -4 0 1
251 2 1.0202541702714241e+01 2.8127246736450808e+00 3.5705424568591209e+00 -4 0 1
687 2 7.3274375666860969e-01 8.0057611798679562e-01 9.7954750642003070e+00 -3 0 0
505 1 -1.2935070651955611e+00 8.9995933762928342e+00 7.1834173752103814e+00 -3 0 -2
599 2 1.5481575490770062e+01 1.1140790782536778e+00 2.7081577504076799e+00 -4 0 1
64 1 7.8446056879954549e+00 1.5291782573715609e+00 7.2186962083899351e+00 -2 0 -3
311 2 1.5038612809678704e+00 5.2213051292626522e+00 2.1364804219850311e+00 1 0 -2
628 1 7.3474000165647109e+00 8.2923545614838687e+00 1.5955158354413946e+01 -2 0 1
609 2 1.1043001664975744e+01 7.5534906663557955e+00 1.5927662385066185e+01 -4 0 -1
259 1 1.3377212633124591e+01 8.7239047075051719e+00 1.2623168205080427e+01 -2 0 -1
309 2 1.1392021216410186e+01 3.4703537952740020e+00 7.6588355813641860e+00 1 0 2
733 1 3.6557266351542768e+00 3.3852010269363109e+00 6.9276461744718514e+00 -2 0 -1
560 2 2.1923011953805105e+00 8.0017481739307641e+00 3.1708174043364719e+00 -1 0 1
128 2 7.7913323660444824e+00 9.8392689514324161e+00 6.6334710495464648e+00 -1 0 -2
1004 2 8.9376911791574063e+00 1.3138169624650817e-01 9.4366006044175048e+00 -3 0 -1
407 2 9.0797212517545240e+00 7.4247504945559868e+00 1.6404409525665660e+01 -3 0 -2
297 2 6.7351425892432211e+00 3.5391927701809340e+00 9.0360380860237530e+00 1 0 3
784 1 4.3022064804873041e+00 3.1676102131794051e+00 1.4343318426326997e+01 -3 0 -2
168 2 7.4678293211698161e+00 1.9668247629737881e+00 1.5355658325737513e+01 -4 0 -4
231 2 1.1683456403027792e+00 1.7893073601305032e+00 5.8429915100981260e+00 0 0 -2
951 2 -2.8626404952308726e+00 3.3294720623607090e+00 1.4039075444200032e+01 -1 0 1
187 1 1.6676011150309034e+01 1.1032894054829045e+01 1.5595442472117376e+00 -6 0 -5
133 1 1.4648383946205289e+01 6.7438557233577026e+00 2.0274251675520998e+00 0 0 -1
466 1 1.1802870855583238e+00 3.5022861507636192e+00 8.1526228817476198e+00 -1 0 2
714 2 -3.4126304818717257e-01 6.2138143204956977e+00 1.0092692513700593e+01 0 0 3
943 1 5.0897615679467787e+00 1.0428317058580049e+01 2.3037810583294065e+00 1 0 2
858 2 4.8065105855784580e+00 7.0818101190710800e+00 2.5658797046559703e+00 -1 0 -4
614 2 7.7572842182865083e+00 8.8774199818682700e+00 1.8560880200518657e+01 -2 0 -1
921 2 1.4914079650810118e+01 6.2583170849691818e+00 3.0747757200336368e-01 -1 0 -2
994 1 1.2777716258398380e+01 1.0530381473902326e+01 6.6650140754219045e+00 2 0 2
526 1 4.4223700084649833e+00 1.6670759828476518e+00 4.9818666596863679e+00 -2 0 0
282 2 -5.1224124530547401e+00 8.9150171626273238e+00 1.6809837533101181e+01 -2 0 1
841 1 -2.0326461754789329e+00 7.9299919741373937e-01 1.5711123524046496e+01 -5 0 -5
1014 2 1.1529256742204936e+01 6.2659180882833594e+00 1.0605636248138630e+01 0 0 -1
541 1 1.3697029671323069e+00 1.1082848944960686e+01 5.1785895436635698e+00 -1 0 3
1013 2 1.1715153889550347e+01 6.2469240831533952e+00 9.0304258932273846e+00 0 0 -1
927 2 -4.5983825002739387e+00 1.6694696494973484e+00 1.3385468152487620e+01 2 0 2
755 2 -2.5258296041163169e+00 8.3504569166823845e+00 1.8955245594705080e+01 0 0 0
207 2 1.2536942684582360e+01 4.1937783578540246e+00 1.0373537593803551e+01 3 0 0
497 2 3.6655654903738681e+00 2.2349144433830967e+00 8.3529765423294808e+00 0 0 1
788 2 7.2165706182997651e+00 4.3652138543936978e+00 1.8191800851152390e+01 -2 0 -1
731 2 -2.1789083890086554e+00 7.1446006382835803e+00 9.6135003496199172e+00 1 0 1
34 1 1.0263337271996125e+01 9.0051241819867904e+00 2.2970661217264263e+00 -3 0 1
200 2 -3.7245552151336021e+00 6.1541541237697706e+00 1.5087308853276447e+01 -1 0 -6
131 2 1.4176070865308930e+00 2.3192847590235828e+00 1.1389831700733261e+01 0 0 1
1616 2 5.2496296403102400e+00 6.0668836773336796e+00 1.7091345229951393e+01 0 0 -1
1077 2 1.1849673481759011e+01 7.9568702578263668e+00 1.1871392447673493e+01 1 0 0
916 1 3.0647791909374318e+00 1.9814135024637070e-01 3.2334003389367423e+00 1 0 3
686 2 2.2214721214078184e+00 1.4420163585575563e+00 9.7108533503851113e+00 -3 0 0
367 1 9.5440176118094548e+00 5.6718853811384724e+00 2.2827807068264301e+00 -2 0 0
1617 2 5.8080731339281959e+00 4.6825567452714107e+00 1.6660028364201043e+01 0 0 -1
727 1 -1.2807200991129002e+00 1.5297406206412514e+00 7.2602483756616563e+00 0 0 1
664 1 7.4125133338526190e+00 1.0161598818821155e+01 9.6663592070546631e+00 2 0 5
561 2 3.0155787748836991e+00 6.7202222358443526e+00 3.8818126729456202e+00 -1 0 1
995 2 1.2800250377236701e+01 9.8156912175179034e+00 7.3327203356174122e+00 2 0 2
760 1 7.3014076034529118e-01 1.4360700075246511e+00 1.8536152685924197e+01 -3 0 1
130 1 1.5464439288799054e+00 3.0732031352683000e+00 1.1994598729501632e+01 0 0 1
1633 1 5.8546285005540799e+00 5.0021252052106551e+00 4.5835106441751172e+00 1 0 0
319 1 -4.7328253606984632e+00 3.0616000520925670e+00 1.4164472634283610e+01 -3 0 -3
689 2 1.2066996588830424e+01 5.9771214938497508e+00 6.4737766833384125e+00 -4 0 -1
909 2 6.7479240273163255e+00 4.9694134522175757e+00 1.1812790619726252e+01 -1 0 0
321 2 -4.8962040663506485e+00 2.8057241490632063e+00 1.5106826227644936e+01 -3 0 -3
521 2 5.6928685682978406e+00 8.7573524404001652e+00 1.2200292529569234e+01 -4 0 -2
650 2 1.4599020160536494e+01 5.4603232726797755e+00 8.4452857200616460e+00 -4 0 0
364 1 1.4866865389138873e+01 7.3103239965944322e+00 6.1423860198539542e+00 0 0 1
655 1 5.7095410780686837e+00 7.3653120403727259e+00 6.0785528772425401e+00 -3 0 -1
1002 2 8.3530327067340231e+00 4.3390969221699152e+00 1.6939477590504559e+00 -1 0 1
730 1 -3.0926092539283880e+00 7.0249660159216898e+00 9.9245736028772935e+00 1 0 1
156 2 6.0036183336403308e+00 3.1394436535390047e+00 2.2630624338318772e+00 3 0 -2
35 2 9.3161427442445834e+00 8.6913569610863313e+00 2.4480846062276331e+00 -3 0 1
607 1 1.1858191203015362e+01 7.8350493047134817e+00 1.5479226026407540e+01 -4 0 -1
625 1 7.6641591863430385e+00 1.0609517110313631e+01 4.9895204540353753e+00 -1 0 0
728 2 -2.0569132166084563e+00 1.0006854612227907e+00 7.0588336232773417e+00 0 0 1
391 1 2.3758116946580383e+00 6.8446516396865889e+00 1.1765114519751316e+01 -2 0 -1
713 2 3.5281107178280724e-01 7.5562194831202731e+00 9.7252290203865428e+00 0 0 3
308 2 1.0679029658433990e+01 4.1701474163670040e+00 8.8801931203334057e+00 1 0 2
762 2 9.6244593513588228e-01 2.2416018911033047e+00 1.9037150472687404e+01 -3 0 1
1124 2 1.0038705097884753e+01 1.0427979411391897e+01 8.6306279152547489e+00 -1 0 1
480 2 -1.0695127581163515e+00 3.2629894219053521e+00 1.7031285553395254e+01 -1 0 -4
953 2 1.2015892561038857e+01 6.6982677024471649e+00 3.8436808580277075e+00 -2 0 1
768 2 1.0592806332068889e+00 1.0012182429837599e+01 3.4449610238301824e+00 -3 0 0
944 2 6.0410785507759046e+00 1.0675376149407400e+01 2.0948756378550111e+00 1 0 2
644 2 1.2280324505423508e+01 8.6750052738977619e+00 8.9746833273864439e+00 -4 0 -3
1000 1 7.5297310637539638e+00 3.9157353780478266e+00 1.5129075326294412e+00 -1 0 1
938 2 6.7723242057070534e+00 1.0454426332458633e+01 1.8148792345190916e+01 1 0 2
709 1 1.0367555611801979e+01 2.8318367700377598e+00 1.2056076859652114e+01 -4 0 -3
229 1 1.2130248211019850e+00 9.0291214660295882e-01 6.2169811750049861e+00 0 0 -2
351 2 -2.0199629661455836e+00 1.9252207020145944e+00 1.2704235068294480e+01 2 0 3
167 2 6.5774048913236838e+00 1.3434178741169307e+00 1.6412323261400314e+01 -4 0 -5
829 1 4.7788043838089287e+00 1.3996539876216187e+00 5.8171496887320845e-02 -3 0 0
352 1 2.7954034916066917e+00 6.7905165444374465e+00 1.8926012938395598e+01 -2 0 -1
119 2 9.1107920141366101e+00 5.2874808689584682e+00 1.5161046614399867e+01 -2 0 -3
154 1 5.0775097442675952e+00 2.9193521745555366e+00 2.4592031121972759e+00 3 0 -2
538 1 1.0989216090481548e+00 1.7737823704853564e+00 2.0739401786935319e+00 -4 0 -3
66 2 7.9269985358410526e+00 1.9812755490592751e+00 8.0762930833855862e+00 -2 0 -3
82 1 3.0142141555250386e+00 6.8094104049584230e+00 7.0640118087501902e+00 0 0 -2
767 2 1.4133276230788638e-02 9.0078399266338725e+00 2.8758637430799325e+00 -3 0 0
530 2 8.1276339524413679e+00 7.5603932379487759e-02 3.8238625255127952e+00 -1 0 0
711 2 1.1275254420808235e+01 3.0460189065350405e+00 1.1853602413502893e+01 -4 0 -3
385 1 -1.6025319189014975e+00 3.5374469434979061e+00 5.3286934113199038e+00 0 0 -2
120 2 8.7759704529049891e+00 5.8408878218057660e+00 1.3719117269023734e+01 -2 0 -3
961 1 1.6398499104759942e+01 3.9216534632919089e+00 1.6601809118077144e+00 -3 0 0
865 1 4.4036379442999412e+00 9.3540056630730586e+00 4.8264792632654467e+00 -2 0 1
458 2 1.0218288541889660e+01 3.4412294052116849e-01 1.8951363574299013e+01 -3 0 -3
213 2 5.9963245038252744e+00 1.2082463495801532e+00 1.1917936886423121e+01 -4 0 -2
827 2 1.0460839882918467e+01 1.0344383305816518e+01 3.6906504623245016e+00 1 0 0
695 2 1.1435903581842698e+01 5.3733705926803186e+00 1.7805211899611571e+01 -2 0 -1
771 2 -2.3937293409960518e+00 7.7263497078699608e+00 1.5233440586845241e+01 2 0 -3
459 2 9.5900579805713058e+00 1.3852896753899619e+00 1.7930723010520218e+01 -3 0 -3
1517 2 -1.7826155621048683e+00 9.6978234072976566e+00 1.2347698258485472e+01 0 0 0
274 1 7.0535587334677396e+00 3.0958016508179940e+00 1.4247969001538372e+01 2 0 -1
500 2 3.1487132631074726e+00 3.4624112819370731e+00 1.1612615080443438e+01 0 0 0
440 2 9.2565820193120381e+00 4.2760051561406742e+00 7.3608248815972948e+00 -2 0 0
303 2 1.0348454245850002e+01 9.9587623655895676e+00 1.3486710796418379e+01 1 0 -1
46 1 8.5041837508138887e+00 7.0649212389389167e+00 9.5470573882744585e+00 -3 0 1
331 1 1.4275348495606432e+00 9.0767388385552508e+00 9.8387894489408403e+00 -1 0 -3
248 2 -2.7487433201556222e-02 6.0485554980179383e+00 7.8593594676422045e+00 0 0 0
889 1 1.0459431214011602e+01 7.2904332297435748e-01 6.3613171882558515e+00 -1 0 0
592 1 1.3633825770665201e+01 9.2747411573935068e+00 4.4015081266833214e+00 -3 0 -1
640 1 -3.8805595874252035e+00 5.2989568319172884e+00 1.6584457913841966e+01 5 0 -1
118 1 9.0433847117823305e+00 5.0169571931629768e+00 1.4225501759654332e+01 -2 0 -3
1597 1 1.5012364468919914e+00 9.2797799745773073e+00 1.4500735004357921e+01 0 0 0
879 2 3.8736823221600973e+00 4.3620293946388511e+00 1.8119750913615806e+00 -3 0 0
280 1 -4.4694701967927841e+00 9.6422502261746317e+00 1.6962615058706294e+01 -2 0 1
976 1 4.4731244373081784e+00 1.6454916637837793e+00 1.6740188896405709e+01 -3 0 -1
150 2 9.4349718969769203e-01 3.8332694830236127e+00 1.6509711852821532e+01 -3 0 -1
502 1 1.1612605681631472e+00 3.3601999946767527e+00 4.9196647331979975e+00 0 0 -1
969 2 1.6354120533588361e+00 1.0216635962721522e+01 1.3071407478684920e+01 1 0 2
433 1 1.4732811108967176e+01 5.4725303554987441e+00 4.3267997003084870e+00 -1 0 1
175 1 4.2936546491048775e+00 8.4607817104222560e-01 1.2335564889187619e+01 -5 0 1
681 2 7.5156894914433199e+00 2.3038920009921129e+00 4.3008696061066107e+00 -3 0 -3
499 1 3.9085061759429762e+00 3.5723242271694255e+00 1.0987110280765949e+01 0 0 1
479 2 -2.0608859832136481e+00 2.6943402954644231e+00 1.8026021421993011e+01 -1 0 -4
393 2 2.3025524316235599e+00 6.2639681567801757e+00 1.0978162341197613e+01 -2 0 -1
750 2 1.0121685422191064e+01 2.1784707860649752e+00 9.3213889205423008e+00 -3 0 1
160 1 9.4742511506961566e+00 3.0918111189301225e+00 1.6783436545347925e+01 0 0 -6
763 1 2.7220359816628363e+00 5.4973988376013390e+00 1.4126108450674666e+01 -3 0 -3
357 2 4.4383757000579003e+00 9.8362977757959094e+00 1.8186497769333805e+01 -4 0 -4
211 1 6.8915854112029731e+00 1.5914826457547619e+00 1.2001696353453497e+01 -4 0 -2
53 2 3.2652175468325528e+00 5.1034297895542293e+00 9.6396576314259548e+00 3 0 0
593 2 1.4078255863968058e+01 8.4127665451557103e+00 4.8059861201831238e+00 -3 0 -1
770 2 -2.7064480359842782e+00 8.7579611388245890e+00 1.6427338888790377e+01 2 0 -3
836 2 5.1877537661798279e+00 7.2202383765169174e+00 1.4156104172469211e+01 -1 0 0
161 2 9.3574162347954157e+00 2.6401431376484630e+00 1.5895510101873093e+01 0 0 -6
255 2 7.4068733262654973e-01 8.7240035439582775e-01 1.3699130435735576e+01 -3 0 -4
641 2 -4.7362069106916458e+00 4.9131160434525860e+00 1.6785070406537180e+01 5 0 -1
1042 1 1.2356199199908913e+00 8.5437238681281258e+00 6.2638869777070028e+00 0 0 0
831 2 -9.8159945789782643e-01 1.1004852768636464e+00 1.8850620330989898e+01 -3 0 -1
598 1 1.6234753943224224e+01 1.3109905302262181e+00 3.2469156902750815e+00 -4 0 1
967 1 1.6294378467574875e+00 1.0627581514511512e+01 1.2176460705734440e+01 1 0 2
978 2 4.1310121480400168e+00 2.2139530671549221e+00 1.6043947493615146e+01 -3 0 -1
1086 2 6.9052290929447944e+00 8.6345287422237522e+00 3.0245483393539102e-01 -1 0 0
149 2 6.5600947763203976e-01 2.3040812254510068e+00 1.6944063939090082e+01 -3 0 -1
461 2 8.9655159473786767e+00 1.5940542098599564e+00 2.0460762556830390e+00 -4 0 -2
925 1 1.3324466252042384e+01 8.7634006590131042e-01 1.2731110829029916e+01 1 0 2
554 2 -1.5520927458235407e+00 1.0173947865264891e+01 5.8120849084968542e+00 -4 0 -2
249 2 -1.2668219752612651e+00 5.3402148609172544e+00 7.3600757552956830e+00 0 0 1
127 1 7.7234655753642478e+00 9.0759532698793066e+00 7.2907420682206681e+00 -1 0 -2
1075 1 1.1365426108472601e+01 7.1116080085206583e+00 1.1887473998763085e+01 0 0 0
507 2 -1.5037617062553867e+00 9.5395363883308768e+00 7.9829106249286665e+00 -3 0 -2
600 2 1.6003689772384995e+01 1.8741174721956768e+00 3.9437098567762243e+00 -4 0 1
45 2 -1.0405048106738146e+00 5.6404523344531082e-02 1.2562221957475616e+01 0 0 0
645 2 1.3767183395141624e+01 8.3000196725798947e+00 9.4663021357714729e+00 -4 0 -3
1615 1 5.1366011668351730e+00 5.3834683005993176e+00 1.6419913941721450e+01 0 0 -1
392 2 1.4758193590563815e+00 7.1264806407714447e+00 1.1969105587593633e+01 -2 0 -1
478 1 -1.9505541202264647e+00 3.5258726432235092e+00 1.7412396068267817e+01 -1 0 -4
962 2 1.6641107312265504e+01 2.9950407652174835e+00 1.8995642102489934e+00 -3 0 0
501 2 4.6452404761176309e+00 4.0112817298535894e+00 1.1474584758714204e+01 0 0 0
185 2 5.6364808615484741e+00 6.1083721432105698e+00 4.9351240701991700e-01 -5 0 -6
954 2 1.1378129119804854e+01 7.7526544911014170e+00 2.8846161047702559e+00 -2 0 1
166 1 7.2986297125955213e+00 1.1014533238541360e+00 1.5826898240800972e+01 -4 0 -4
369 2 9.3428799839608772e+00 6.2508791022482573e+00 1.5350467423982446e+00 -2 0 0
710 2 1.0297480697715892e+01 2.3963380050091172e+00 1.2930926750769434e+01 -4 0 -3
455 2 5.0384849485263032e+00 3.4281169725586580e-01 9.4603177990513068e+00 -1 0 0
679 1 7.6420618998381471e+00 3.0569053183750321e+00 4.8898801647002053e+00 -3 0 -3
225 2 -1.0364182155129071e+00 7.6544355421589287e+00 4.0585133363727905e+00 -1 0 -2
867 2 3.7141244432430280e+00 8.8533513136773880e+00 4.3070516129114846e+00 -2 0 1
210 2 1.0465752683417120e+01 9.3329797708059345e+00 5.6099767314792910e+00 2 0 -2
522 2 6.9109701139694728e+00 9.5697543741158793e+00 1.2829018581169491e+01 -4 0 -2
776 2 2.3573717140671864e+00 5.5087848953750207e+00 1.7942014295160270e+01 -3 0 0
228 2 -2.5237367927575516e-01 5.7754748625219081e+00 1.5301500850009646e+01 0 0 -2
408 2 9.4497272218896100e+00 6.2053894578263886e+00 1.7338293925160201e+01 -3 0 -2
694 1 1.1623902598368019e+01 4.5716868028404720e+00 1.7279970666767117e+01 -2 0 -1
1 1 8.8858288923443851e+00 7.5240857864596462e+00 1.2963924046091917e+01 -2 0 -1
870 2 8.9843014384911051e+00 5.8194362738328094e+00 5.6244446464847773e+00 0 0 1
680 2 7.0567173078903416e+00 3.8167246142140590e+00 4.6314945022560483e+00 -3 0 -3
920 2 1.5693936804172868e+01 4.9398409863214550e+00 3.7874628560911498e-02 -1 0 -2
186 2 -8.6465840398793503e-01 4.9426343057222955e+00 1.8477948351445647e+01 -5 0 -6
872 2 6.3324333859595203e+00 2.9203325952931281e-01 6.9865121574017888e+00 -2 0 -1
707 2 9.3406002013664633e+00 4.0882869727521252e+00 1.1818452209744768e+01 -1 0 -3
358 1 5.4359750405232123e+00 6.8413730060285864e+00 9.8051190419140681e+00 1 0 -2
224 2 1.6299170606545239e+01 9.1353058334361208e+00 4.0301818041937381e+00 -2 0 -2
891 2 1.0657532966612898e+01 1.5938964449198700e+00 5.9694422264315632e+00 -1 0 0
226 1 -1.3138477236612900e-01 5.2524912571752447e+00 1.4468570945652456e+01 0 0 -2
465 2 1.4649027807067723e+00 2.5002313940142953e+00 5.4681558803293329e-01 2 0 0
24 2 -1.2165488304955741e-01 6.7854100770732959e+00 1.3308700966524752e+01 -2 0 0
778 1 4.1250073259373359e+00 9.0866103601452544e+00 9.3565781344411256e+00 0 0 0
276 2 7.6765713053287747e+00 3.8261871681735835e+00 1.4281259391632043e+01 2 0 -1
802 1 1.0228377370122166e+01 9.2365993215318856e+00 9.4891967261789656e+00 -1 0 -1
37 1 1.2077913555465189e+01 5.1987826424632022e+00 4.7475513453364684e+00 -4 0 -2
939 2 7.8904392012128151e+00 1.1177091477739383e+01 1.7256134622581726e+01 1 0 2
559 1 3.1349850551568768e+00 7.6668429821180855e+00 3.3898615107964547e+00 -1 0 1
1098 2 6.0609094303592670e+00 7.4096324527393200e+00 1.8888980699667325e+01 2 0 -1
1067 2 8.7137896631481571e-01 1.0297680898662735e+01 1.6083598866051140e+01 0 0 0
293 2 1.0808724456101725e+01 5.1585150522379388e+00 1.4215402330736312e+01 1 0 -3
756 2 4.6202129800020399e+00 9.6292040932600074e+00 7.0341115857393188e-01 0 0 1
882 2 1.3610141225528293e+01 3.6564982297016781e+00 7.4110028886087553e+00 -4 0 1
536 2 5.7630829478354695e+00 8.6196683262978429e+00 1.6692293881582245e+01 -3 0 1
834 2 7.5869765950639856e+00 9.2132288332496675e+00 3.7144736633410798e+00 -3 0 0
1583 2 -3.6242828762952870e+00 1.3420401551528287e+00 1.6485398478978688e+01 0 1 1
252 2 9.4043185505987843e+00 3.2811740345533202e+00 4.7721489492207541e+00 -4 0 1
281 2 -4.6084612466354757e+00 9.8791109386088731e+00 1.7906306788611893e+01 -2 0 1
227 2 -6.2643553458169166e-01 4.4184602611576382e+00 1.4549642795961635e+01 0 0 -2
464 2 -5.5221777119043933e+00 3.5962152289695939e+00 1.8590269157912250e+01 2 0 -1
28 1 3.0620500154711996e+00 5.3285569339970253e+00 4.8419934779970522e+00 -3 0 -4
155 2 4.7792515116316485e+00 2.2988646679980027e+00 1.7843011163350213e+00 3 0 -2
209 2 9.4398028991705250e+00 8.7216755591820547e+00 6.7019731738519051e+00 2 0 -2
22 1 -1.3349548842080949e-03 7.6426676840963967e+00 1.2866400801225776e+01 -2 0 0
48 2 7.6195152736901726e+00 7.4516490369634729e+00 9.6898140539223085e+00 -3 0 1
245 2 -2.2034929755213044e+00 2.2089012441565323e+00 1.0382878116904211e+01 -3 0 -4
266 2 -6.7217017654830524e-01 7.6185902878806804e+00 1.6322615992405034e+01 1 0 -1
594 2 1.2980574884032981e+01 8.7611266512654371e+00 3.8518109793179836e+00 -3 0 -1
345 2 1.2122522554125172e+01 4.7184971113072627e-01 1.6464333823241979e+01 -2 0 1
96 2 1.4378511629555033e+01 1.3009373889975295e+00 3.5141171197961854e-02 -2 0 -1
528 2 5.0231722005425858e+00 2.2728841707293994e+00 4.4603859026711330e+00 -2 0 -1
1664 2 6.3568849803573757e+00 7.9769178899014630e+00 6.5745099708164076e+00 -3 1 -1
653 2 1.3350756369209630e+01 1.1083158389370904e+01 2.1357940064124876e+00 -2 0 -1
312 2 5.0636596360300079e-01 6.2502361661949735e+00 1.5576431739794088e+00 1 0 -2
52 1 2.3440622902941928e+00 5.4450906019092260e+00 9.4644981581605929e+00 3 0 0
832 1 7.6610933154382250e+00 8.2802122759788706e+00 3.3314186953573266e+00 -3 0 0
223 1 1.6520751392229474e+01 8.3632783430068613e+00 3.4838509612446495e+00 -2 0 -2
294 2 1.1689759550873308e+01 5.8185412486275965e+00 1.3075235424569147e+01 1 0 -3
726 2 1.2563002081703061e+01 1.9031146571306570e+00 8.3976244899936070e+00 1 0 1
539 2 1.7245021949934562e+00 1.0689271030628957e+00 2.4125194707860413e+00 -4 0 -3
950 2 -1.9199465068833970e+00 2.3648142346630778e+00 1.4847912597712616e+01 -1 0 1
1407 2 1.3911976552170424e-01 6.1076443979298070e+00 5.5381966497508754e+00 2 0 0
435 2 1.5279768527114332e+01 4.6681060957192413e+00 4.4596533694123801e+00 -1 0 1
135 2 1.5290686361368547e+01 7.5101005810747807e+00 2.0538905354974291e+00 0 0 -1
1665 2 4.9137376554043852e+00 7.4366166557257944e+00 6.6232053292364554e+00 -3 1 -1
826 1 1.0377506315836779e+01 1.0753803274684477e+01 4.5515223562165090e+00 1 0 0
743 2 1.6384628825318156e+01 9.3405996498725035e+00 6.1204575014279605e-01 1 0 2
613 1 6.9250974118377977e+00 8.8627725327389104e+00 1.9067976932569596e+01 -2 0 -1
991 1 3.7132605948448720e+00 3.1151284205155179e+00 1.8864133461704405e+01 2 0 1
688 1 1.2160119674041736e+01 6.6952420412150788e+00 7.0859650316895504e+00 -4 0 -1
265 1 8.6438014144141206e-02 7.0610099743872050e+00 1.6576272334860445e+01 1 0 -1
574 1 -4.5149888183659836e+00 1.6735690377821602e+00 1.6510499033555913e+01 0 0 1
520 1 6.6524299520390819e+00 9.0385429812859961e+00 1.2034812498824600e+01 -4 0 -2
702 2 9.2324240122631558e+00 8.3967643130111003e-01 1.3911177922858860e+01 -3 0 -3
173 2 6.0983083707418446e+00 1.0861244673477213e+01 1.4236270122826465e+01 -2 0 -2
803 2 9.5634371624338570e+00 8.5172269879224025e+00 9.4628216960248288e+00 -1 0 -1
366 2 1.5092564335483139e+01 6.5886890167018821e+00 5.4142858595019252e+00 0 0 1
866 2 5.0525048265976960e+00 8.5815378108764904e+00 5.0022888651330213e+00 -2 0 1
368 2 9.4226762747821553e+00 6.2084181234486415e+00 3.0934938839540478e+00 -2 0 0
176 2 3.5886137514922636e+00 2.7051774440769871e-01 1.1976168137131436e+01 -5 0 1
576 2 -4.5187360567304991e+00 2.2089627029109975e+00 1.7386939269224946e+01 0 0 1
372 2 -2.0158823546256652e+00 9.7915714106504019e+00 1.0204721563628896e+01 -5 0 -3
877 1 3.0411012896405403e+00 4.6559238946105088e+00 1.3713254170054654e+00 -3 0 0
649 1 1.4597733366496533e+01 4.5088641403044827e+00 8.2638505071715826e+00 -4 0 0
86 2 -1.9825043833895348e+00 4.9454459952141931e+00 1.1970171663444770e+01 2 0 -3
462 2 1.0126826615770765e+01 2.2446227003939208e+00 1.2127060680655080e+00 -4 0 -2
869 2 9.6146719017240283e+00 7.1661268760486649e+00 5.2374693052336871e+00 0 0 1
212 2 7.0141614028360735e+00 2.1099035691659620e+00 1.1157358493230410e+01 -4 0 -2
504 2 1.9115065166431311e+00 4.0012123216545010e+00 4.9207180720097066e+00 0 0 -1
129 2 7.6820495692235919e+00 9.5544368610803350e+00 8.1358841152668688e+00 -1 0 -2
766 1 9.9944334021272840e-01 9.2726468934404132e+00 2.8383014386253285e+00 -3 0 0
1012 1 1.1456063349672192e+01 5.6563425083643688e+00 9.7784873447261660e+00 0 0 -1
523 1 1.6838282667384505e+00 1.0508886288304993e+01 3.5647383771840319e-01 -2 0 -3
1164 2 5.6732044528820502e+00 5.6007888581996008e+00 8.6655623260116990e+00 0 0 -2
732 2 -3.0605826955542934e+00 6.4431517089294150e+00 1.0719933715047700e+01 1 0 1
65 2 7.7301945813091848e+00 2.2843161728629080e+00 6.5558334624838546e+00 -2 0 -3
208 1 1.0354272100777258e+01 8.6164371655731031e+00 6.2765457435985637e+00 2 0 -2
354 2 3.7589881340549134e+00 7.0393296363809466e+00 1.8863646052462350e+01 -2 0 -1
915 2 8.1272824597311253e+00 2.0145201707444532e-01 1.2059232016826346e+01 0 0 2
996 2 1.3100517780231538e+01 1.0129019064784908e+01 5.8500076292564618e+00 2 0 2
725 2 1.1667979984974188e+01 1.3729720986907117e+00 9.5163588814990892e+00 1 0 1
295 1 7.3299630677424901e+00 3.0270878069714504e+00 9.5683275322050161e+00 1 0 3
406 1 9.7215033806395503e+00 6.6498706925080704e+00 1.6512691313535310e+01 -3 0 -2
542 2 1.4454224540756360e+00 1.0184498812448235e+01 5.5667294522529849e+00 -1 0 3
540 2 3.6669882442879176e-01 1.2219662062385450e+00 1.7700722403852762e+00 -4 0 -3
114 2 1.1289798308838527e+01 5.2425699474776488e+00 1.9124363391869565e+00 -2 0 0
1001 2 7.0248670644362479e+00 4.6688534218550011e+00 1.1438168170230860e+00 -1 0 1
371 2 -1.2846903904271105e+00 1.1003072517362510e+01 9.8495507269514277e+00 -5 0 -3
880 1 1.2877463594985285e+01 3.0143063773772760e+00 7.0559662811358965e+00 -4 0 1
457 1 9.3883497456465754e+00 8.4465042328599338e-01 1.8735757890035732e+01 -3 0 -3
261 2 -4.3423471022409119e+00 8.1621595388092540e+00 1.3339506854911718e+01 -1 0 -1
300 2 -9.5424795997683987e-01 3.8088518989755737e+00 1.0445361695652217e+01 -2 0 -2
683 2 1.3958938650382537e+01 2.1881999874750230e-01 9.7751538981065540e+00 1 0 2