LAMMPS data file via write_data, version 3 Mar 2020, timestep = 0

2016 atoms
2 atom types

0.0000000000000000e+00 1.7937403201895691e+01 xlo xhi
-1.6270778782120132e+00 4.6623237855128096e+01 ylo yhi
0.0000000000000000e+00 1.9074533405989353e+01 zlo zhi
4.3789062761852945e-02 -6.6678308343594992e+00 -2.1945219567257368e-02 xy xz yz

Masses

1 16
2 2

Atoms # atomic

579 2 6.1997958629310279e-01 6.0472008856213808e+00 1.3230482986196670e+01 0 0 0
223 1 5.6374333396062504e-01 6.1906355463675338e+00 1.6932618772398790e+01 -2 0 -2
995 2 4.9098632837487948e+00 8.6626040902361012e+00 8.9837648457911055e+00 3 0 1
654 2 2.2461992228807492e-01 7.6818677830620956e+00 5.7376358186599736e+00 -1 0 0
394 1 1.0599684731325617e+01 3.6850830546098878e+00 2.2886849873547064e+00 -3 0 -3
578 2 -8.2831034111708490e-01 6.1226821111197012e+00 1.3671711256367232e+01 0 0 0
929 2 1.4483580528907920e+01 8.2865657791532303e+00 5.4408091809688317e+00 0 0 0
513 2 7.6325892844613792e+00 -6.2052543178591013e-01 1.5687389298858589e+01 1 0 0
705 2 -4.4895301411260347e+00 4.3856597565612860e+00 1.5635888220821563e+01 -2 0 -1
302 2 1.2661721176747728e+01 7.6346831094533592e+00 1.5818148901480158e+00 0 0 0
299 2 -5.5182855842465095e+00 8.2116734548961912e-01 1.8037226432835368e+01 -2 0 -2
896 2 -4.9512774782365838e+00 2.2119889668180917e+00 1.5379969013103420e+01 0 0 -1
150 2 1.1244562424565947e+01 8.3109744409735598e+00 1.4360149114910485e+01 -4 0 -1
406 1 4.2634685461395323e+00 1.2201850530132292e+00 1.1550244675524210e+01 -2 0 -2
761 2 2.4963380319511801e+00 -1.3499162004932830e+00 1.9009445808919821e+01 -3 0 1
596 2 -1.1265981609923317e+00 6.2353940667193113e+00 4.8545972196378901e+00 3 0 -2
686 2 1.7406591563579044e+00 -3.4802071837693815e-01 1.1301689250411721e+01 -3 0 0
685 1 1.9965423788337278e+00 -7.1971411199886148e-01 1.0456559093163170e+01 -3 0 1
881 2 -2.9009379956597559e+00 4.7979615217367080e+00 1.0141542513279056e+01 -2 0 2
319 1 1.0846793608158137e+01 -4.1614117306409137e-01 1.4818962297547317e+01 -4 0 -3
53 2 1.2429081359741968e+01 7.1953513694093640e-01 4.2415691285178108e+00 2 0 0
548 2 6.8011639799400374e+00 5.9295117353269751e+00 1.1258862308626078e+01 -3 0 -4
609 2 3.8293838919353296e+00 2.6176286062774645e-01 2.3925902884041825e+00 -3 0 0
1583 2 -4.0415856752293227e+00 5.5797016683578660e-01 1.6248162614081888e+01 0 1 1
122 2 9.0501787540358212e+00 5.1286938771765662e+00 1.3484029858716250e+01 -2 0 -1
295 1 5.4513749449055338e-01 6.7622483757763217e+00 2.8651060334016376e-01 2 0 3
407 2 3.3203160314208668e+00 1.1812359617499428e+00 1.1912411133058651e+01 -2 0 -2
707 2 3.1387384865037342e+00 7.8471976736508839e+00 1.6115468818211763e+01 -1 0 -1
972 2 5.0901332385389511e+00 5.9689973300490928e+00 6.3504905976552972e-01 0 0 1
448 1 2.8408999799545036e+00 5.5759956967989339e+00 1.1342731350484790e+01 -1 0 1
991 1 1.3528984925826355e+01 -1.0369168450559032e+00 9.9409393543866624e+00 1 0 1
762 2 1.9917269908531958e+00 -1.3745991502755062e-01 1.8074299602567567e+01 -3 0 1
165 2 1.0279355309216420e+01 9.7580918172472142e+00 8.3382218185981340e+00 2 0 0
938 2 1.2827986534958407e+01 6.8219238809295231e+00 4.7937864117283171e+00 1 0 1
618 2 2.0640884177436498e+00 9.0118987256593890e+00 8.6436901584130439e+00 -2 0 -1
301 1 1.3574696625717237e+01 7.2129058409681868e+00 1.4036015583564552e+00 0 0 0
1994 2 3.3988737740620465e+00 9.8822845338926228e+00 5.6658288893077442e+00 -2 0 -2
635 2 1.4643206106090854e+00 5.7458852687803095e+00 6.2932508704543810e+00 1 0 -2
463 1 2.2556297124564262e+00 4.6303381616202355e+00 5.3156455189073339e+00 2 0 0
449 2 2.8503961282639292e+00 5.9603945234220976e+00 1.2256859852706535e+01 -1 0 1
524 2 2.3953502588551450e+00 7.0222005398610641e+00 1.4582695421252042e+01 -2 0 -4
585 2 1.0915111994143134e+01 8.1277523231231914e+00 1.1454510015935149e+01 -5 0 -4
523 1 2.1587979430844708e+00 7.1371177602036528e+00 1.3606202331355432e+01 -2 0 -4
658 1 5.1116389808073768e+00 4.5077856462239252e+00 1.4850481312035807e+01 -1 0 -2
206 2 5.4502738960122441e+00 1.8530677402491751e+00 1.2681676714378387e+01 3 0 0
96 2 1.5625208964546950e+01 3.0644897000495401e+00 6.1606287360319811e+00 -2 0 -1
441 2 -2.9180812642445986e-01 4.3413805415859530e+00 1.4242038911517824e+01 -2 0 -1
151 1 6.0973911067033342e+00 3.0953932602360421e+00 3.0108314942009242e+00 3 0 0
781 1 1.7560704843741834e+00 4.0088264460487801e+00 7.8117213941932129e-01 -2 0 -2
880 1 -3.1234656542926542e+00 3.8955241207884646e+00 1.0357018878116556e+01 -2 0 2
626 2 9.9266666968820712e+00 5.9431169405681601e+00 8.0471901716740402e-01 0 0 0
531 2 8.9858798252104943e+00 -5.5681699468421142e-01 2.8085706516289419e+00 -1 0 0
703 1 -3.7230770897108769e+00 4.9380915504762974e+00 1.6050570466844587e+01 -2 0 -1
382 1 1.7102572610612938e+01 4.8037166204227164e+00 2.0121242724553579e+00 -2 0 1
21 2 8.2871617834747102e+00 8.2605229974613650e+00 3.1247069668879237e+00 -3 0 -3
919 1 1.0742606375267124e+01 -3.5675273378690964e-01 9.9498018552313408e+00 0 0 -2
54 2 1.1516310572197760e+01 -3.9976581567864100e-02 5.2478696436365553e+00 2 0 0
620 2 -4.1891563623905084e+00 8.9737736557244236e+00 1.6827629710195772e+01 -3 0 -1
689 2 1.7712878586376934e+00 1.3567936257646958e+00 5.8528922226587259e+00 -2 0 0
502 1 4.7976000774517926e+00 -1.1735127203354547e+00 1.0015565117197534e+01 0 0 -1
392 2 1.3542390288666830e+01 5.4918052061045035e+00 1.2081815172345374e+01 -2 0 -1
652 1 -4.3898514300500402e-01 8.2486513500809835e+00 5.3109736761594899e+00 -1 0 0
52 1 1.1496968580001619e+01 5.5626297847483519e-01 4.5273617016133603e+00 2 0 0
356 2 -1.6986495603352676e+00 4.8756359882196740e+00 1.7870141925529669e+01 -4 0 -3
477 2 4.7513596146866117e+00 4.3074171786267579e+00 7.4563398832186127e+00 -1 0 2
500 2 3.4240248295259645e-01 2.8238178465665920e+00 1.1020209728708316e+01 1 0 0
389 2 1.3730754125739040e+01 -1.1907088814511000e+00 4.5181608607399717e+00 -1 0 0
806 2 1.1296000906084972e+01 3.9822508481815690e+00 6.0508361059428175e+00 -4 0 1
160 1 1.3298872763874389e+01 9.9366187356300628e+00 1.1748649079733722e+01 0 0 -5
810 2 4.8788544856353155e+00 7.1609519040068648e+00 5.8270281760469231e+00 -4 0 -1
930 2 1.5983214594452363e+01 8.6161834634548242e+00 5.4169098082026581e+00 0 0 0
702 2 4.3395209132468846e+00 1.9563342604268685e-01 1.5903660450516403e+01 -3 0 -3
501 2 -1.0503290252175068e+00 2.5855045718214882e+00 1.1723554539553341e+01 1 0 0
625 1 9.8534330315079774e+00 6.2876020766901437e+00 1.7257224893775007e+00 0 0 0
939 2 1.2138871467489450e+01 8.0771903202294641e+00 5.5209948949630103e+00 1 0 1
775 1 1.0759596525847540e+01 -6.2811425743587124e-01 2.5164810878752570e+00 -2 0 2
384 2 1.6754553343406194e+01 5.1366696978471706e+00 2.8830855600472169e+00 -2 0 1
591 2 -2.8940533282743033e+00 9.1842883584352943e+00 9.1525164270430839e+00 -4 0 -1
622 1 3.9493576213482648e+00 2.6083726930014279e+00 1.5879262673101655e-01 -2 0 -1
624 2 4.2592289571178119e+00 2.2021469964285050e+00 9.5639724871571841e-01 -2 0 -1
179 2 1.1956100415219073e+01 3.6055155432269270e+00 1.1465117672885645e+00 -3 0 0
699 2 2.2173739373195396e+00 9.5895567602591107e+00 1.5977051127285989e+01 2 0 3
713 2 -1.2090029833366707e+00 -1.3880019945023281e+00 1.2634930960023338e+01 0 0 3
829 1 2.8152668604145932e+00 8.2830728236288902e+00 3.1494684329042424e+00 -3 0 0
976 1 4.8446402425066086e+00 -7.8112411470654841e-01 1.7324146373082236e+01 -3 0 -1
353 2 6.3803742352538375e+00 7.3940898409555018e+00 9.8577585110952484e+00 -1 0 1
49 1 7.8472064896558020e+00 3.6167433004589151e+00 9.8805197700649767e+00 -1 0 0
183 2 8.0633221256381304e+00 8.1935806559773550e+00 5.6213057522106480e+00 -1 0 0
464 2 3.0567073062279455e+00 4.1283622090350294e+00 5.5922019584377978e+00 2 0 0
393 2 1.3093535815251988e+01 6.9077616956149495e+00 1.1713617136614493e+01 -2 0 -1
539 2 1.7357331008802057e+00 -1.1942545549149690e+00 1.6293467532978325e+00 -4 0 -3
671 2 -6.9527892735961172e-01 1.4471096595394304e+00 4.7757205111764494e+00 -3 0 -1
135 2 -9.3457743078996325e-01 9.4139941544693295e-01 1.0443637423894762e+01 1 0 -1
778 1 4.8634407116203295e+00 9.2515116702557041e+00 1.5816037292097223e+00 1 0 0
802 1 8.2706956411534307e+00 8.7253868101797014e+00 1.5543109520166125e+01 -2 0 -2
598 1 -4.0960796406264022e-01 -4.9855137441769459e-01 7.3558821279310491e+00 -3 0 1
120 2 8.0486237342187543e+00 2.8339052085286616e+00 4.0746169125887677e-01 -2 0 -2
858 2 -1.2866883085472438e+00 5.3311909095379928e+00 8.5751709777916556e+00 -1 0 -3
640 1 1.0539521962712808e+01 5.6115597865382556e+00 1.3037538021510571e+01 3 0 -1
753 2 -3.2854189624199601e+00 6.1329885925144607e+00 1.4691416600954730e+01 0 0 2
527 2 4.3591891817157613e+00 -1.6024731950604387e-02 5.9326830051559947e+00 -2 0 0
119 2 8.4253140400649009e+00 1.3928642538535558e+00 7.4854259253469890e-01 -2 0 -2
525 2 2.0885367536407911e+00 8.0984414436216223e+00 1.3468916934649297e+01 -2 0 -4
495 2 2.2618764578966855e+00 6.6862128322877084e+00 1.0161354647186446e+01 -3 0 -2
971 2 -2.2037318264242813e+00 6.7975412917938112e+00 1.8464569293790543e+01 0 0 0
636 2 3.8816380042648913e-01 5.7244437049818666e+00 7.3231197444901985e+00 1 0 -2
212 2 1.1301452004212988e+01 3.8979716780139571e+00 9.7931473563484435e+00 -5 0 -2
701 2 4.6085623972483143e+00 1.0825958086859462e+00 1.4615392049717670e+01 -3 0 -3
102 2 4.4684820510838685e+00 9.4291856341469948e+00 1.4574099620034405e+01 -1 0 -1
470 2 1.6369191735348522e+01 3.3407871342830644e+00 1.5865790632713610e+00 -7 0 -2
471 2 1.5750325956010592e+01 2.5686362230687108e+00 4.4942946025196601e-01 -6 0 -2
708 2 3.1380850910323970e+00 6.5830756391377836e+00 1.7015648162024402e+01 -1 0 -1
672 2 -1.0547943444672154e+00 3.4231042388213750e-01 5.8616844876334655e+00 -3 0 -1
46 1 7.4077664572654172e+00 7.2209038381771009e+00 7.0058010508963999e+00 -3 0 0
541 1 5.7598614388918676e+00 8.2036508493436813e+00 1.7323674798056665e+01 -1 0 1
856 1 -6.2058791312105921e-01 4.7099203620286101e+00 8.1156568185125888e+00 -1 0 -3
627 2 1.0092976925993451e+01 5.4867048107523928e+00 2.1685455090290957e+00 0 0 0
111 2 8.3430274658913994e-01 6.2771646678815607e-01 1.6166565390301049e+01 1 0 -4
869 2 1.4558584877296816e+01 6.0999451246236225e+00 8.6632924417338941e+00 1 0 0
16 1 2.3711417517259568e+00 3.5309628461694134e+00 1.5068503237548139e+01 0 0 1
178 1 1.2548347816696346e+01 3.4282184228816819e+00 3.8866857339647004e-01 -3 0 0
974 2 1.0662024750830184e+01 2.5416519970538820e-01 1.6603102418082930e+01 -4 0 -2
118 1 8.1144272760987910e+00 2.2141930159218766e+00 1.1557163234434213e+00 -2 0 -2
329 2 1.3873914909714822e+00 8.7071373850380258e+00 2.6199187279472915e+00 -1 0 0
623 2 -3.3317045256005660e+00 1.9022764292724621e+00 1.8862971298411594e+01 -2 0 -2
1668 2 5.5293819210675954e+00 5.4226387325626551e+00 1.4789053501330537e+01 -1 1 -2
644 2 1.2007796467501471e+01 1.1796625933787865e+00 1.1958545924753475e+01 -4 0 -3
547 1 6.3690951990210793e+00 5.4071314056675375e+00 1.1988670926557434e+01 -3 0 -4
276 2 1.4870516344778938e+01 -1.2325361433397657e+00 4.7470971203509360e-01 2 0 0
239 2 1.0257724330641089e+01 5.5995080473770935e+00 1.1068115701433754e+01 0 0 0
716 2 2.7873311073543681e+00 4.4710753355563622e+00 1.8154852309775400e+01 1 0 1
717 2 4.2227122819742782e+00 4.5796652274642646e+00 1.8310155713140496e+01 1 0 1
240 2 9.2795644924397145e+00 4.8734835719096985e+00 1.0069098552302899e+01 0 0 0
904 1 1.1006841645290491e+01 9.2113894354073143e+00 4.9614261795524888e+00 -3 0 2
17 2 1.3906683979889634e+00 3.4646188364402679e+00 1.4928366431824005e+01 0 0 1
779 2 5.6023378440846416e+00 8.7899002740497849e+00 1.2200976705600737e+00 1 0 0
977 2 4.7577451248464824e+00 -2.7185173308046506e-01 1.8180534315568746e+01 -3 0 -1
645 2 1.0760587277380640e+01 4.5388972094375424e-01 1.1560516669970346e+01 -4 0 -3
613 1 1.1438191420976676e+00 3.6069762083959400e+00 1.7793669501022531e+01 -2 0 -1
315 2 6.5093318113446763e-01 8.4751342345154939e+00 1.0648994148295809e+01 -4 0 -3
238 1 1.0169108408506958e+01 5.1917341954550080e+00 1.0161785810759001e+01 0 0 0
522 2 7.4985010631191571e+00 2.3255352450584477e-01 1.0591265075371581e+01 -5 0 -2
715 1 3.4588957356778716e+00 5.1300967068203835e+00 1.8252200885404843e+01 1 0 1
115 1 1.2623720374173232e+01 3.9874017120004126e+00 1.2511307745344299e+01 -5 0 -5
426 2 1.2638161059575946e+01 3.1515109827639867e+00 4.2024420991355589e+00 -2 0 1
427 1 -4.8469948302197183e+00 8.8341792259812735e+00 1.4013443439635557e+01 0 0 -1
993 2 1.3802996166289773e+01 -4.9413048723068353e-01 9.1473166129741657e+00 1 0 1
738 2 1.4583919482741175e+01 1.0318317267231945e+01 4.5913012605454773e+00 -1 0 1
933 2 -9.3308063655327445e-01 1.9027066392085770e+00 1.4366498972860878e+01 -2 0 -1
857 2 -1.0777589844581472e+00 3.8690705378875592e+00 7.9834776699356365e+00 -1 0 -3
868 1 -2.6054156434607036e+00 6.2692098030411083e+00 9.1598592077787409e+00 2 0 0
244 1 8.9998172079274816e+00 8.5575429449173939e+00 1.1014800320660646e+01 -4 0 -4
18 2 2.7373638401848277e+00 2.7734924702835286e+00 1.4603779648169526e+01 0 0 1
709 1 6.2252592240589282e+00 7.1378651026858240e+00 1.4330166707895343e+01 -3 0 -2
504 2 4.8899080854427810e+00 -5.8978386520704884e-01 9.2494632528375735e+00 0 0 -1
785 2 -3.8285634005749847e-01 1.7524713677410175e+00 1.4945969514370105e+00 -3 0 -2
870 2 -2.7601395772683821e+00 7.2114840377932268e+00 9.5377729069530179e+00 2 0 0
211 1 1.2075869447579098e+01 3.3392891033369105e+00 9.8236923458032503e+00 -5 0 -2
387 2 1.1873388719278157e+00 3.2101771232572993e+00 4.9292702721493411e+00 0 0 -2
978 2 5.7962737188988216e+00 -9.9869626845826454e-01 1.7257991058669010e+01 -3 0 -1
643 1 1.1179884486352799e+01 8.9252088516473060e-01 1.2364807575074794e+01 -4 0 -3
222 2 -1.6976273103641581e-02 8.8320058724704698e+00 1.5107237139750037e+01 -2 0 -3
714 2 -1.4768863110178625e+00 -2.9954660727782967e-02 1.3032778901964178e+01 0 0 3
328 1 4.1112583453659790e-01 8.7599919972008280e+00 2.4686612506138372e+00 -1 0 0
116 2 1.3080985623861542e+01 3.3444388682570230e+00 1.3058648813931022e+01 -5 0 -5
224 2 1.1372823040052262e+00 5.4024088550714318e+00 1.6891124969458065e+01 -2 0 -2
845 2 7.6568046075982945e+00 -1.7434389140007278e-01 1.2967630220922192e+01 1 0 1
48 2 7.7277135976229463e+00 7.2785950717664498e+00 7.8896502778982924e+00 -3 0 0
117 2 1.2441321471074598e+01 3.6914513189067719e+00 1.1631824969177941e+01 -5 0 -5
931 1 -1.1674529831159188e+00 1.0096035680797271e+00 1.4691658569289064e+01 -2 0 -1
164 2 8.7852668845524100e+00 9.5326258968980273e+00 8.0064807952507966e+00 2 0 1
385 1 8.7266349599448501e-01 2.3425792644281436e+00 4.6036810644568220e+00 0 0 -2
494 2 1.8899922846186610e+00 6.9122508207604962e+00 8.5915717498476756e+00 -3 0 -2
961 1 1.1464316277608262e+00 -8.1128952537288701e-01 1.4795133015614306e+01 -3 0 -1
42 2 5.9616476873154367e-01 4.2846726248080893e+00 9.4340209189057642e+00 -2 0 3
726 2 1.4062976726120207e+01 1.2607930985681186e+00 7.4437509639695172e+00 1 0 1
1914 2 1.1059109582040048e+01 9.0358635612637119e+00 4.0156297931734892e+00 -3 0 2
769 1 -2.0988289730075080e+00 2.3445880608145164e+00 8.0920411602649764e+00 1 0 -3
1002 2 6.9514055978565912e+00 3.3523710125668451e+00 4.5987514570596488e+00 -1 0 1
848 2 3.4345306726791431e+00 1.0217552203619523e+01 8.4776234616736501e-01 1 0 0
5 2 6.8355423796213497e+00 1.0218275028898002e+01 7.6256277879838779e+00 1 0 0
41 2 1.6257061072581731e+00 4.6107598616221832e+00 1.0642126432855267e+01 -2 0 3
163 1 9.5436075916430116e+00 9.1316824694378784e+00 8.4936773103161443e+00 2 0 0
812 2 1.2831989275005286e+01 4.9001724565495044e+00 7.6171637535191321e+00 -2 0 -1
932 2 -2.1706836545164152e+00 1.0485361071058321e+00 1.4842392966717025e+01 -2 0 -1
275 2 1.3402486818498346e+01 -6.4174010525920966e-01 3.1866217998858426e-01 2 0 0
213 2 1.1980576742770641e+01 2.5194021280950869e+00 9.2563299314104928e+00 -5 0 -2
369 2 1.6234866824195194e+01 8.8311505111331687e+00 2.2244230053491965e+00 -2 0 0
698 2 3.4988558900832123e+00 9.8011110733704463e+00 1.6865411565435419e+01 2 0 3
338 2 2.0317536749712573e+00 5.3216662085073798e+00 2.0657811662763104e+00 -1 0 -1
921 2 1.0575610097962940e+01 2.6938536945795866e-01 9.1820344475437548e+00 0 0 -2
969 2 2.1817491568207901e+00 6.8726650622419783e-01 9.6438769494842962e+00 -1 0 1
545 2 1.6944851916712755e+00 3.6912226943577475e-01 1.3478716884548286e+01 2 0 1
386 2 9.2138473753380890e-01 2.3170048076018852e+00 3.6208284482203483e+00 0 0 -2
846 2 6.4610187789932425e+00 -1.0186138141438095e+00 1.2258892023630926e+01 1 0 1
40 1 1.1181494081896406e+00 3.8379188102061539e+00 1.0157925691007183e+01 -2 0 3
786 2 8.9028667539638939e-01 2.5668439011041686e+00 1.5198196937449286e+00 -3 0 -2
330 2 2.2902528946286893e-01 9.6710570104112907e+00 2.1320926048735673e+00 -1 0 0
724 1 1.3596320213113145e+01 3.8840538550495518e-01 7.4474496308800768e+00 1 0 1
784 1 4.4960560673559347e-01 1.8553596578972900e+00 1.9725441385269546e+00 -3 0 -2
967 1 2.2413693853636278e+00 1.4755839799032096e+00 9.0058056605492052e+00 -1 0 1
553 1 9.0910166826278171e+00 2.7517103024892737e+00 1.7810919248498546e+01 -5 0 -2
681 2 6.5652366680535668e+00 3.7783187542021253e+00 1.6259235107321373e+01 -3 0 -3
649 1 7.4380091743319392e+00 5.3573509531286634e-01 5.5909707710467185e+00 -4 0 0
650 2 7.3185476713722766e+00 1.5232372135949852e+00 5.6621904005985186e+00 -4 0 0
51 2 7.8578899288226687e+00 2.6161890562144210e+00 9.9328053411170600e+00 -1 0 0
36 2 1.4403405035199754e+01 2.3697981281974356e+00 4.0030464005643251e+00 -2 0 0
945 2 3.9062932698104404e+00 5.5306047569842809e+00 2.4836121979430672e+00 0 0 3
673 1 -3.8677685391064540e+00 7.2628738270439950e+00 1.7770456063069748e+01 0 0 -4
458 2 -1.1357248093376184e+00 -6.9554971296324775e-01 4.1358434408446660e+00 -2 0 -2
252 2 3.7816167438135269e+00 1.0075040131116827e+01 1.1675798469640714e+01 -3 0 1
127 1 1.3568989698838482e+01 5.8977697810949818e+00 3.6250962118525085e+00 -2 0 -1
128 2 1.3490059558284914e+01 6.4064396044754073e+00 2.7555044792066483e+00 -2 0 -1
616 1 1.7247683696763341e+00 9.9142860689577716e+00 8.2889868283046066e+00 -2 0 -1
34 1 1.3804678108436864e+01 2.1037983628002608e+00 3.2918594592936148e+00 -2 0 0
928 1 1.5117473045517578e+01 9.0083088647427285e+00 5.5761268619402706e+00 0 0 0
100 1 5.2893748951014743e+00 9.6096791899302456e+00 1.4097222923684711e+01 -1 0 -1
152 2 6.8864772273354609e+00 2.8881712254514778e+00 2.5469985669312321e+00 3 0 0
439 1 -4.8110327665457930e-01 3.5915029923100432e+00 1.4852314663483975e+01 -2 0 -2
350 2 1.1664857052276469e+01 5.5340825737234578e-01 1.3539273682053135e+00 2 0 4
268 1 -1.4039233984281818e+00 9.1126020868078879e+00 1.3741323807259032e+01 2 0 -2
148 1 1.0549774403918363e+01 7.7734016722356252e+00 1.4749769127527895e+01 -4 0 -1
783 2 2.6187017553695475e+00 3.5941902288379195e+00 5.6612197088772076e-01 -2 0 -2
670 1 -1.3113920580491860e+00 7.0288207270144776e-01 5.0034240000472865e+00 -3 0 -1
994 1 4.9129208840482175e+00 8.0314659279653053e+00 9.7472313324046986e+00 3 0 1
725 2 1.3746147790067010e+01 -3.2026012831403161e-03 6.5665500583833989e+00 1 0 1
723 2 4.5358639779737331e-01 1.0199342747918806e+01 1.8433464815349051e+01 -5 0 -3
129 2 1.4503754325835503e+01 5.9397797529846788e+00 3.9451820224181438e+00 -2 0 -1
589 1 -2.5918569252194730e+00 8.8549345103479897e+00 1.0016828102691280e+01 -4 0 -1
173 2 1.0269510500488352e+01 1.9954432853191570e+00 1.3356329599011314e+01 -1 0 -2
1664 2 7.5058935051432405e+00 5.3797204827818721e+00 1.7563121693360451e+01 -3 1 -1
493 1 2.0968355568785757e+00 7.3312146402868947e+00 9.4308562660873854e+00 -3 0 -2
149 2 9.7043009730111862e+00 8.3420841728870041e+00 1.4878485021583749e+01 -4 0 -1
462 2 7.9327650508320691e+00 4.4464090254692756e+00 8.1700216305297371e+00 -4 0 -2
651 2 7.8548721749840391e+00 3.3363663886602346e-01 4.7391881909899256e+00 -5 0 0
996 2 4.0416853792182117e+00 7.6284262781940946e+00 9.7202607582884983e+00 3 0 1
611 2 -3.3776330457887727e+00 1.1774510226054158e+00 1.2229954321373301e+01 0 0 2
962 2 6.4558362745746045e-01 -1.4981369834649607e+00 1.4336401830457699e+01 -3 0 -1
750 2 4.7351417053321700e+00 4.1488983541150111e+00 9.5513002685703228e+00 -3 0 1
749 2 4.5990775905502153e+00 2.8299275576153038e+00 1.0610749492277300e+01 -3 0 1
920 2 1.0082475719585890e+01 -1.1030854970515089e+00 9.8389942244117012e+00 0 0 -2
497 2 3.9762765755180780e+00 2.2812508086508392e+00 6.1474751568872277e+00 0 0 1
498 2 5.1762619028359769e+00 3.2353977062066361e+00 5.5539265346898201e+00 0 0 1
395 2 1.1033201066802796e+01 3.5690421222338129e+00 3.1855151740880738e+00 -3 0 -3
687 2 1.2551358003039810e+00 -1.2897427527034722e+00 1.0161190554954336e+01 -3 0 0
349 1 1.2098122276365560e+01 7.7232785592243225e-01 5.0101196702856599e-01 2 0 4
679 1 7.4548534647532270e+00 4.0123010552570371e+00 1.6430574084253617e+01 -3 0 -3
985 1 2.8323591564367483e+00 9.1047028934041414e+00 5.8565086081678270e+00 -2 0 -2
540 2 1.3980435060243133e+00 6.8751235023987833e-02 2.2564760346919064e+00 -4 0 -3
245 2 8.7913691641938954e+00 9.3318699010373560e+00 1.1546423118168928e+01 -4 0 -4
321 2 1.1086467985436848e+01 1.0271400438849287e-01 1.4001630058848923e+01 -4 0 -3
943 1 4.8482430097321751e+00 5.4165035240291823e+00 2.0837467583406828e+00 0 0 3
429 2 -4.0972289098751338e+00 8.2071902831680319e+00 1.3968887665587125e+01 0 0 -1
922 1 1.8856905877768435e+00 9.7767865387272064e+00 1.2818989720450354e+01 -3 0 -3
220 1 4.6020982366799856e-01 8.6963582728181557e+00 1.5913732182089566e+01 -2 0 -3
172 1 9.9735124372359127e+00 2.4565831340300557e+00 1.4183140286288019e+01 -1 0 -2
298 1 -4.5133970531952405e+00 8.4284695370681284e-01 1.8033339963660030e+01 -2 0 -2
680 2 7.7087829673391788e+00 4.3462089631428027e+00 1.5556431697855356e+01 -3 0 -3
831 2 2.9502482978758446e+00 8.5885000993689076e+00 4.1087468304430246e+00 -3 0 0
538 1 2.1278295650389785e+00 -6.1509743971263986e-01 2.2995050169734155e+00 -4 0 -3
944 2 5.2008395073316391e+00 4.5890290823978583e+00 2.3554521840127265e+00 0 0 3
246 2 9.4093905969328375e+00 8.9518782122355756e+00 1.0199475581023734e+01 -4 0 -4
1667 2 4.2289225723903643e+00 4.6838533480226685e+00 1.5174421921421798e+01 -1 1 -2
890 2 1.0197445975032478e+01 -1.1008695224598224e+00 6.9648964960897732e+00 -1 0 0
174 2 9.4279055745948241e+00 3.1866352073446471e+00 1.3850830175754325e+01 -1 0 -2
388 1 1.4104919562423824e+01 -4.6391599841945363e-01 5.0124905005882168e+00 -1 0 0
465 2 2.3842725937741678e+00 5.0789366901844515e+00 4.4590752683691690e+00 2 0 0
274 1 1.3945374111420477e+01 -1.4451924403629175e+00 3.7441562214345425e-01 2 0 0
460 1 8.2150536065741946e+00 4.6337831947401655e+00 7.2699695658222190e+00 -4 0 -2
607 1 4.5377823383483591e+00 9.0970251778562083e-01 2.4352436618975224e+00 -3 0 0
600 2 4.3385473723511314e-01 -9.8956606475342757e-01 7.1592352806467101e+00 -3 0 1
697 1 3.1642495756270712e+00 9.5905734063468113e+00 1.5997906056405272e+01 2 0 3
590 2 -3.1650742816242525e+00 9.1940427681084831e+00 1.0660799844101845e+01 -4 0 -1
595 1 1.6147618352026946e+01 5.7050840191400356e+00 4.4308759677570491e+00 2 0 -2
528 2 5.9173517566500244e+00 -1.3856506034932337e-01 5.6835738789795194e+00 -2 0 -1
109 1 1.4669633652297440e+00 1.0655396901699099e+00 1.6779439547051847e+01 1 0 -4
615 2 2.1061227234944013e-01 3.7938854153712853e+00 1.7679824197294280e+01 -2 0 -1
277 1 5.1953358785371044e+00 1.0032361188522536e+01 8.0920705660589576e+00 -4 0 -1
461 2 7.7536043886922608e+00 5.5764917386709758e+00 6.9686530792838273e+00 -4 0 -2
599 2 -5.3883204693093312e-01 -4.8399973646311922e-01 8.3450179538462184e+00 -3 0 1
408 2 4.4669841002136188e+00 3.5585607678023479e-01 1.1150735714850912e+01 -2 0 -2
20 2 8.4208787308208706e+00 7.2820829786737633e+00 1.9748664896017492e+00 -3 0 -3
182 2 9.2052060418452193e+00 8.9778113654580807e+00 5.0500556640950851e+00 -1 0 0
35 2 1.4343860294558676e+01 2.1830715310669992e+00 2.4619854691430794e+00 -2 0 0
830 2 3.6151624690631112e+00 8.5939352967765501e+00 2.7004256951132697e+00 -3 0 0
186 2 5.6606254124054507e+00 -1.3571873506417755e+00 4.2787696138416881e-01 -4 0 -5
475 1 4.8115144982863054e+00 4.7625163761998577e+00 8.3229232731528580e+00 -1 0 2
68 2 9.1654382850019029e+00 6.7126965396608380e+00 1.7466209358521692e+01 -4 0 -3
526 1 5.0316844969568058e+00 -6.2288917258005849e-01 5.6600487789156055e+00 -2 0 0
133 1 -1.2765784140380778e+00 2.9228601324135406e-01 9.7977394126262283e+00 1 0 -1
610 1 1.3680939112012686e+01 1.0821405015430714e+00 1.1859890450783931e+01 -1 0 2
675 2 -3.8199483719363272e+00 6.5913316401251194e+00 1.7045431065629867e+01 0 0 -4
334 1 7.9846898977446861e+00 1.0165871382219471e+01 6.3791079283364027e-01 -2 0 -1
300 2 -4.2415516639768978e+00 -9.9032523544104967e-02 1.8222791732840552e+01 -2 0 -2
279 2 4.9322115574086034e+00 1.0161763718799634e+01 7.1397653045986571e+00 -4 0 -1
782 2 -5.2554534196624072e+00 4.3573757035825311e+00 1.9011054629780944e+01 -2 0 -3
690 2 2.1614013710531403e+00 1.0686105784605946e+00 7.3174085773111681e+00 -2 0 0
367 1 1.5437581035118749e+01 9.1055220523042291e+00 1.7745014045982193e+00 -2 0 0
728 2 1.0857639038830150e+01 6.1666771565706950e+00 9.2473762806996316e+00 0 0 1
113 2 8.4728975591435436e+00 1.1945717071259239e+00 1.4655288143318389e+01 -2 0 -1
889 1 1.0967341203413259e+01 -1.3911286922157071e+00 6.4014175665558382e+00 -1 0 0
529 1 8.2152924460583829e+00 -6.9080255617664854e-01 3.3425168571798132e+00 -1 0 0
352 1 7.2505124010888657e+00 6.8540321115221570e+00 9.9187996581799371e+00 -1 0 0
561 2 8.1869838862666562e+00 -1.6860760822301812e-01 7.0588572857717367e+00 -2 0 1
67 1 1.0054826565938502e+01 6.5777567304256710e+00 1.7229457400803259e+01 -4 0 -3
727 1 1.1397906765024555e+01 6.8596630087873098e+00 8.7420042648626790e+00 0 0 1
114 2 6.9713960501930181e+00 1.2682338906813238e+00 1.4178486424561235e+01 -2 0 -1
425 2 1.2527501225081703e+01 4.7122871359790031e+00 4.0987201796154915e+00 -2 0 1
544 1 1.7981551163395011e+00 9.0894630753349315e-01 1.2645797330136380e+01 2 0 1
215 2 1.4665330419675195e+01 9.6342820774644427e+00 6.9409268442375502e+00 -1 0 -2
1001 2 7.5610959084336145e+00 3.7199367149328140e+00 6.0308261422947478e+00 -1 0 1
496 1 4.2629665102820917e+00 3.2193921747566048e+00 5.9194917886023664e+00 0 0 1
655 1 7.4098388272460847e+00 6.1855737700073572e+00 1.8110131942295510e+01 -3 0 -1
337 1 2.4633862934710753e+00 5.7552631462217017e+00 2.8576949398320357e+00 -1 0 -1
777 2 1.1076288502682466e+01 -2.0276313304488935e-01 3.3721799200826057e+00 -2 0 2
368 2 1.4838244385220568e+01 8.3297156201689173e+00 1.7738408855402064e+00 -2 0 0
844 1 7.4142921590589248e+00 -7.5703808396537753e-01 1.2175849159413001e+01 1 0 1
583 1 1.1793168378497615e+01 8.0858892614159394e+00 1.1033212946992791e+01 -5 0 -4
584 2 1.1743559311831772e+01 7.7506093926816622e+00 1.0085138531403079e+01 -5 0 -4
641 2 1.0693101571254029e+01 6.3410774971653101e+00 1.3694475410615942e+01 3 0 -1
110 2 2.3021333101597508e+00 1.0970083016015435e+00 1.6300396896371961e+01 1 0 -4
760 1 2.1339070962473361e+00 -4.1408899959205270e-01 1.8987498631855235e+01 -3 0 1
47 2 6.4226905542849835e+00 7.3469067835189783e+00 7.1717000456585973e+00 -3 0 0
207 2 5.6601333318534000e+00 2.9722176054996945e+00 1.3838561067129456e+01 3 0 0
808 1 4.7519157757956041e+00 7.4270510901876339e+00 6.7329549475067108e+00 -4 0 -1
468 2 -1.2680257378058335e-01 9.8174973231607900e+00 6.0407790592092532e+00 -1 0 2
577 1 -2.6250203634172120e-01 5.5968265627707554e+00 1.3097036990539413e+01 0 0 0
19 1 7.8154397385230068e+00 7.9716056993651296e+00 2.3573204961518468e+00 -3 0 -3
1000 1 6.9917622881390500e+00 3.0983661817449430e+00 5.5769691979314029e+00 -1 0 1
294 2 -2.6968018455869318e+00 3.4950810306316367e+00 1.2018201213973503e+01 1 0 -3
184 1 6.0299203458816351e+00 -5.3200587854112791e-01 7.4780893802113313e-01 -4 0 -6
297 2 5.4562721737196362e-01 7.5688202399970894e+00 8.1772585447241919e-01 2 0 3
521 2 7.7944137783564607e+00 2.8490277839085354e-01 9.0741538516805935e+00 -5 0 -2
813 2 1.3148635829998730e+01 6.1481802451351921e+00 6.8715694686316215e+00 -2 0 -1
912 2 1.1871277737658172e+01 1.0232737775079475e+00 7.5507748757851196e+00 -2 0 1
549 2 5.9315196863385049e+00 4.6537583774078506e+00 1.1484764038922426e+01 -3 0 -4
269 2 -2.1009976326557624e+00 8.4761275823124560e+00 1.3757147885448084e+01 2 0 -1
771 2 -1.6432363793188189e+00 1.4762634995313997e+00 8.3412494090736118e+00 1 0 -3
711 2 5.7322218358041876e+00 7.9390173727646260e+00 1.4091696759915729e+01 -3 0 -2
809 2 4.0077804424556787e+00 8.0735255333123987e+00 6.4396864295463265e+00 -4 0 -1
866 2 1.1072006681627217e+01 9.2101364109685964e+00 1.7180375996553716e+00 -3 0 0
94 1 1.4976285199390198e+01 3.5347389243789209e+00 5.6194004462698190e+00 -2 0 -1
225 2 1.8423719023922835e-01 6.2116655721710394e+00 1.7863590537454034e+01 -2 0 -2
770 2 -2.4470866176965087e+00 2.7353645443797507e+00 8.9577047782800676e+00 1 0 -3
123 2 7.4956110509792460e+00 4.7835242678130383e+00 1.3106812736549747e+01 -2 0 -1
440 2 -8.5877282010520162e-01 4.0705367246114941e+00 1.5609046594969211e+01 -2 0 -2
383 2 -3.8351737705282962e-01 5.4857320857106417e+00 1.5342659842726560e+00 -1 0 1
313 1 3.2149615404417631e-03 8.9973550853639477e+00 1.1129796151028277e+01 -3 0 -3
499 1 -2.1700823149679715e-01 2.1648998176811594e+00 1.1478493930167373e+01 1 0 1
910 1 1.1181080920951423e+01 1.3602312454807519e+00 8.1407803345096230e+00 -2 0 1
546 2 1.0054955152836120e+00 1.4409423039527316e+00 1.2388885077847549e+01 2 0 1
85 1 1.6590573366600115e+01 -9.3541516409702730e-01 7.0579377170243429e-01 1 0 -2
729 2 1.0775295858072825e+01 7.3748023954489899e+00 8.2288265723963896e+00 0 0 1
612 2 1.3558155510658150e+01 2.4563085784765915e-01 1.1410042036788855e+01 -1 0 1
674 2 -4.6602701346372148e+00 6.9488495062840734e+00 1.8305072731622431e+01 0 0 -4
121 1 8.2098530019713589e+00 4.6953395414113777e+00 1.3780391861406049e+01 -2 0 -1
911 2 1.0928941229071759e+01 2.2359165162411494e+00 7.7678660837732565e+00 -2 0 1
424 1 1.2022841907153227e+01 3.9034096556959446e+00 4.4274329894272340e+00 -2 0 1
811 1 1.3542880585378903e+01 5.2545171170342204e+00 7.0913487424171748e+00 -2 0 -1