LAMMPS data file via write_data, version 3 Mar 2020, timestep = 1000000

1008 atoms
2 atom types

2.3136429214863874e-01 1.8168190707846591e+01 xlo xhi
4.6859746069269903e-02 2.2523529253920522e+01 ylo yhi
1.9639843973563309e-01 1.9309317560257362e+01 zlo zhi
8.0223980255706512e-02 -6.6481794944620392e+00 3.2876942254916441e-02 xy xz yz

Masses

1 16
2 2

Atoms # atomic

1 1 6.7382998314899245e+00 1.1501382446319279e+00 4.8371377938769333e+00 0 0 0
97 1 1.4315928267760741e+01 5.0571265133830403e+00 9.5567226945998538e+00 0 0 0
3 2 6.6964612254710776e+00 1.4991353904775442e+00 3.8992131304470306e+00 0 0 0
4 1 4.0475575640320756e+00 9.5868841016060757e-01 5.0822324336184321e+00 0 0 0
5 2 5.0026998528607258e+00 1.0640664925154522e+00 4.8244169601850633e+00 0 0 0
6 2 3.9741388559591666e+00 1.2449918864641485e+00 5.9992989608322649e+00 0 0 0
7 1 -4.7564329856526411e-01 6.3453894945484048e+00 5.3035775462868768e+00 0 0 0
8 2 -5.3103226449804786e-01 6.0727093914829942e+00 6.2237878509456985e+00 0 0 0
9 2 -1.1531932513145862e+00 7.0180955802807583e+00 5.0749542281867024e+00 0 0 0
10 1 2.2487103578865657e+00 6.3843342473192557e+00 4.9292923598131111e+00 0 0 0
11 2 1.2580295874650553e+00 6.5128967757584562e+00 5.0825570837789655e+00 0 0 0
12 2 2.7549448616936423e+00 7.1653640643950904e+00 5.2572755614569342e+00 0 0 0
302 2 1.4817791246541237e+01 1.0652904600397935e+01 6.6820184830871758e+00 0 0 0
14 2 4.9415709293142527e+00 5.2366602636282700e+00 8.6110286058241847e+00 0 0 0
104 2 9.7176896079111632e+00 3.3926874068946429e+00 2.5282938769739566e-01 0 0 1
399 2 7.8277749783483763e+00 3.2251665432664445e-01 1.1976351731774750e+00 0 0 0
18 2 5.5436341039272028e+00 5.0852006463851751e+00 1.0588519893308137e+00 0 0 0
301 1 1.5676536784589878e+01 1.0797594552059138e+01 6.0585417768577026e+00 0 0 0
780 2 1.3014761751196513e+01 9.2106045064608111e+00 7.4960177956925433e-01 0 0 0
21 2 1.1236121220468893e+00 2.2352251133185819e+00 1.3508059864927064e+00 0 0 0
146 2 1.7527143109819271e+01 6.3673996036138210e+00 1.3124127529024412e+00 0 0 0
254 2 1.5571412015788571e+01 9.0167265044056695e+00 5.5221611483802047e+00 0 0 0
486 2 1.1525084733681764e+01 3.3116932685353673e-01 8.9332657880786250e+00 0 0 0
25 1 4.6659476300859790e+00 6.3123695077598461e+00 7.3069057744909403e+00 0 0 0
26 2 5.3087909940021705e+00 7.0036135121111922e+00 7.5436409317134263e+00 0 0 0
27 2 3.7748059320928475e+00 6.6212808256815796e+00 7.5586318460630366e+00 0 0 0
28 1 5.5673913566390016e+00 6.3162449553813218e+00 2.5320220642651994e+00 0 0 0
29 2 5.3419989884629846e+00 5.9860755095910578e+00 3.4377760342891195e+00 0 0 0
30 2 4.9835187786859088e+00 7.0436424635312358e+00 2.2892142031327447e+00 0 0 0
31 1 1.3909288388899297e+00 1.3525589162368492e+00 2.8582592368426538e+00 0 0 0
32 2 2.3264219067376342e+00 1.1240531405316168e+00 2.7938154883121622e+00 0 0 0
33 2 1.3449283346079417e+00 1.6982821800130883e+00 3.7391973437717718e+00 0 0 0
34 1 2.3356929121258529e-01 9.7032051896103877e-01 7.4105151416638968e+00 0 0 0
303 2 1.5273746317388323e+01 1.1287459973831323e+01 5.3270911827824792e+00 0 0 0
36 2 5.6831756070004680e-01 1.6765913395018393e+00 8.0080623456885522e+00 0 0 0
37 1 6.2574082771483512e+00 2.5157292724721776e+00 2.4903530087480892e+00 0 0 0
38 2 5.3882259929487253e+00 2.8455540080559056e+00 2.7273478591517990e+00 0 0 0
39 2 6.8830933346622025e+00 3.1925535516562427e+00 2.6664853430637039e+00 0 0 0
40 1 4.2063155736175997e+00 2.2627828179547951e+00 7.4310268641714039e+00 0 0 0
41 2 5.0342277456189679e+00 2.7166770996408980e+00 7.1753998114096431e+00 0 0 0
42 2 3.5717665079076939e+00 3.0211148885564381e+00 7.3905436749607718e+00 0 0 0
43 1 -3.1484056450232689e-01 4.8419635284134372e+00 7.5287596052005110e+00 0 0 0
44 2 -1.0097072614059948e+00 4.2385355706884820e+00 7.2176484438286712e+00 0 0 0
45 2 -5.1180925550228062e-01 5.3317231525851847e+00 8.3539488183009727e+00 0 0 0
46 1 1.8605866974632925e+00 4.7812479261147462e+00 2.5120257120282985e+00 0 0 0
47 2 9.7837130298414976e-01 4.4566741886308723e+00 2.8787028431611188e+00 0 0 0
48 2 2.2772233710866061e+00 5.3660649410564085e+00 3.1370562642619415e+00 0 0 0
49 1 6.8136070643305482e+00 3.3304804008866453e+00 6.5429078631890238e+00 0 0 0
50 2 6.4976884540533790e+00 3.9856647551660780e+00 5.8438768843805624e+00 0 0 0
51 2 7.0327469509445866e+00 2.5550953322791008e+00 6.0189928351649797e+00 0 0 0
52 1 3.8325741622799843e+00 3.2348910367497443e+00 3.7878892309592058e+00 0 0 0
53 2 3.0893962958629135e+00 3.4278723096695303e+00 3.2036136617213433e+00 0 0 0
54 2 3.6394972508937804e+00 2.4242920571704469e+00 4.3214186090204620e+00 0 0 0
55 1 -5.7801688031713216e-01 4.2525839743354572e+00 3.7567390996999004e+00 0 0 0
56 2 -6.9813452005981635e-01 5.1127457026205985e+00 4.2706345867669295e+00 0 0 0
57 2 -4.4529114980715945e-01 3.5485677142460128e+00 4.4205075664470828e+00 0 0 0
58 1 2.2802722968833367e+00 4.2298182884394864e+00 6.6558328568140350e+00 0 0 0
59 2 2.4580937470687907e+00 4.9691908306948918e+00 6.0576168231807017e+00 0 0 0
60 2 1.4337196931582725e+00 4.5019637985948826e+00 7.0951084931441821e+00 0 0 0
61 1 8.3977223166013495e+00 7.0616978338273606e+00 1.9107303825591000e+00 0 0 0
62 2 7.6063382517871876e+00 6.7993648672984710e+00 2.4396082278011320e+00 0 0 0
485 2 1.0397569982868179e+01 9.3931659873851409e-02 7.9042733629917983e+00 0 0 0
64 1 2.3287119251966248e+00 7.2814442323263586e+00 8.3467084332935073e+00 0 0 0
65 2 1.4417498180387738e+00 7.7479149399176226e+00 8.0167944194645848e+00 0 0 0
66 2 2.6407203974020779e+00 7.9129611175946453e+00 9.0451670206945245e+00 0 0 0
152 2 7.6116146660108992e+00 9.9347856003613766e-01 7.7707531922282840e+00 0 0 0
68 2 -2.4733388283394890e+00 1.2245468191060658e+00 8.7581775592427533e+00 0 0 0
22 1 8.3597159476938687e-01 2.5698445441219304e+00 9.4296514034350558e+00 0 0 0
72 2 4.2148307279232204e+00 1.0259613606263964e+00 1.1877069414611747e+00 0 0 0
73 1 5.5222418519460295e+00 5.0705363810595507e+00 5.0441798315868018e+00 0 0 0
74 2 5.1599140484647190e+00 5.4872095952173590e+00 5.8877415774608401e+00 0 0 0
75 2 4.7290425179030766e+00 4.4956443182463648e+00 4.6817879967819982e+00 0 0 0
76 1 8.3273233753020581e-01 2.3801122739703056e+00 5.1543331044024177e+00 0 0 0
77 2 5.5362644286900542e-01 1.8188721531853809e+00 5.9157967035404040e+00 0 0 0
78 2 1.3166479475572348e+00 3.1156801106650032e+00 5.5724453127110225e+00 0 0 0
151 1 6.7189979504826152e+00 6.9363557042385338e-01 8.1076735987044479e+00 0 0 0
19 1 1.1942646245632371e+00 2.5814807080763584e+00 5.0090745595544206e-01 0 0 0
224 2 -2.1599701368344870e-01 1.1130415571413749e+01 3.9197685213214712e+00 0 0 0
85 1 1.5428650006412690e+01 1.2941473357373441e+00 4.9575803741474749e+00 0 0 0
87 2 1.5355984191452034e+01 1.7012820149802599e+00 4.0642332876940079e+00 0 0 0
88 1 1.2708857704546011e+01 1.1838519358262358e+00 5.5036408482806323e+00 0 0 0
89 2 1.2585169168566194e+01 1.8801157560070383e+00 4.7905234317839467e+00 0 0 0
83 2 2.0833504742585940e+00 5.4404080744793903e+00 6.1235612297863673e-01 0 0 0
91 1 8.2907970098075836e+00 6.7011417883387461e+00 5.1983927181781375e+00 0 0 0
92 2 7.9620188912513976e+00 6.1125567023706173e+00 4.4843862269831787e+00 0 0 0
93 2 9.2609936664930785e+00 6.7975614562652407e+00 4.9978403245218113e+00 0 0 0
94 1 1.0788983204064143e+01 6.6622891190789808e+00 4.6942000665145329e+00 0 0 0
95 2 1.1475547306674539e+01 7.3617785292001434e+00 4.7995150207163739e+00 0 0 0
96 2 1.0968925687808024e+01 5.8910368494339025e+00 5.2217260514872041e+00 0 0 0
584 2 2.9386471906576670e+00 4.0603128813121381e-01 9.3700732276400114e+00 0 0 0
24 2 -3.9735339187355834e-02 2.9950522513571354e+00 9.4113974987587490e+00 0 0 0
219 2 5.9127287725310946e+00 1.0509033877477410e+01 7.2576140491364196e+00 0 0 0
101 2 1.4537898228495585e+01 5.1375320339719845e+00 1.2411669080604895e+00 0 0 0
63 2 8.4499547212968178e+00 6.2092338641978904e+00 1.3801614610819257e+00 0 0 0
86 2 1.6038001693728074e+01 5.5505263045473785e-01 4.8357863008269026e+00 0 0 0
165 2 1.6489407010123394e+01 9.6418102609681600e-01 8.1234940373920150e-01 0 0 0
109 1 1.3651603391859897e+01 6.5517374316553685e+00 7.2940056795442771e+00 0 0 0
110 2 1.3893933159705453e+01 5.9801991672379424e+00 8.0608143417547637e+00 0 0 0
111 2 1.2792571590478559e+01 7.0022866769796162e+00 7.4724287075113143e+00 0 0 0
112 1 1.4856159432300860e+01 6.0516531599907077e+00 2.7408642433858654e+00 0 0 0
113 2 1.4130801824345887e+01 6.6709728537831765e+00 2.4250360806786322e+00 0 0 0
114 2 1.5710640846247280e+01 6.5075336203632368e+00 2.5191393161841527e+00 0 0 0
115 1 1.0301708162375894e+01 1.0621356924363878e+00 2.7042512993891616e+00 0 0 0
116 2 1.0090640806012583e+01 1.6555125178142640e+00 1.9601522913255103e+00 0 0 0
90 2 1.3617043048891173e+01 8.4612107439935602e-01 5.4688999749306895e+00 0 0 0
118 1 9.1199351152994534e+00 1.3559523418149064e+00 7.4423750361324910e+00 0 0 0
119 2 9.3391908352792719e+00 2.0538807298303898e+00 8.0826194220892909e+00 0 0 0
120 2 9.2344593582825283e+00 1.9176482773566461e+00 6.6341742842132492e+00 0 0 0
121 1 1.5150574880634940e+01 2.9637805873500214e+00 2.8550800092394075e+00 0 0 0
122 2 1.5867100370163667e+01 3.6259209359823048e+00 3.0444228388130656e+00 0 0 0
123 2 1.5274478917806192e+01 2.7098245469524045e+00 1.9589526511622228e+00 0 0 0
124 1 1.3113642498711705e+01 2.7528959401770621e+00 7.5226975549485395e+00 0 0 0
125 2 1.4091453915189911e+01 2.9535477578747034e+00 7.5563509239242554e+00 0 0 0
126 2 1.2944643021053045e+01 2.1402948097475454e+00 6.7400478980115768e+00 0 0 0
127 1 8.5837393295907862e+00 5.2325779092027203e+00 7.5912643283151588e+00 0 0 0
128 2 7.9570856161564514e+00 4.5156500471550443e+00 7.4092076143200414e+00 0 0 0
129 2 8.5530804201745170e+00 5.8417888376869298e+00 6.8022297503718940e+00 0 0 0
130 1 1.0548519018965266e+01 4.9095561954235896e+00 2.5463290600831074e+00 0 0 0
131 2 1.1131633617815240e+01 4.1718837468534371e+00 2.7938503997910398e+00 0 0 0
132 2 1.0814077088667437e+01 5.5060831750595947e+00 3.2424885210964374e+00 0 0 0
134 2 1.5049117299915546e+01 4.0904518281622000e+00 5.9325959155934314e+00 0 0 0
136 1 1.2576390860921061e+01 3.1740593437860816e+00 3.8107327724804394e+00 0 0 0
137 2 1.2883213207885792e+01 3.9973828904995239e+00 4.2781154217600283e+00 0 0 0
138 2 1.3340991637088830e+01 3.0304358084365886e+00 3.2055587540768076e+00 0 0 0
139 1 8.0130457953178436e+00 4.2777422587654073e+00 3.5224791206017803e+00 0 0 0
140 2 8.8265015446159314e+00 4.5306145831674129e+00 2.9247800483253417e+00 0 0 0
141 2 8.5294077487832674e+00 3.6846024315285275e+00 4.1116659518585585e+00 0 0 0
142 1 1.1166173981901716e+01 4.5761132787664343e+00 6.2253718715917987e+00 0 0 0
143 2 1.2015659121198057e+01 4.2884607461362139e+00 6.6098355011529559e+00 0 0 0
144 2 1.0556492399611587e+01 4.7194830704122426e+00 6.9848399321816483e+00 0 0 0
147 2 1.7109896033020952e+01 7.8769198597679173e+00 1.4102869082142071e+00 0 0 0
148 1 1.1130107086683914e+01 7.2548368910603207e+00 8.2025834177099775e+00 0 0 0
149 2 1.1084326492445582e+01 6.3929450264072365e+00 8.6267318945818960e+00 0 0 0
150 2 1.1499317334050838e+01 7.8431231183882320e+00 8.8905335422093259e+00 0 0 0
587 2 -1.4441871533444435e+00 7.1000288447094038e+00 9.4732577990115825e+00 0 0 0
100 1 1.4420613068972017e+01 4.5781509664546682e+00 3.8121415529068181e-01 0 0 0
153 2 6.4408058516720157e+00 1.3471628633069526e+00 8.7460222607707081e+00 0 0 0
209 2 3.6070606924337718e+00 1.0834708124648374e+01 7.3609906758312009e+00 0 0 0
155 2 1.2962653828386934e+01 1.1600132581038363e+00 1.3560532759116359e+00 0 0 0
35 2 -7.3609998988554115e-01 9.8997123416017496e-01 7.6192816177864984e+00 0 0 0
157 1 1.3855244627187492e+01 5.1301561043510935e+00 5.0162635277712280e+00 0 0 0
158 2 1.4368429961331165e+01 5.5276226874846692e+00 4.2973739248658349e+00 0 0 0
159 2 1.3758969699285419e+01 5.7186170206456852e+00 5.8263111454377530e+00 0 0 0
160 1 9.6670007440548300e+00 2.5956803367243904e+00 5.0935771375310335e+00 0 0 0
161 2 1.0338178091597046e+01 3.2985936206777855e+00 5.3866812637029291e+00 0 0 0
162 2 1.0134681692250469e+01 2.1392125426883917e+00 4.3873801879289562e+00 0 0 0
67 1 -2.2443800579776516e+00 4.8175338731174411e-01 8.1767565136469926e+00 0 0 0
521 2 1.9948591245748002e+00 6.0174595412133449e+00 9.2772151032966246e+00 0 0 0
167 2 1.0798746553035864e+01 5.5866487803839844e+00 8.7252961466243595e-01 0 0 0
169 1 6.7543340275547390e+00 8.8145770585383953e+00 4.8933441689473440e+00 0 0 0
170 2 7.3440991968524596e+00 8.0945026479923268e+00 5.1221638472348907e+00 0 0 0
171 2 6.8253171829787256e+00 9.5142551004258973e+00 5.5629660028634067e+00 0 0 0
172 1 3.9101801118937121e+00 8.6926642403665575e+00 5.4010522216431101e+00 0 0 0
173 2 4.0120807002660834e+00 9.3960785615884301e+00 4.7378214706246826e+00 0 0 0
174 2 4.7472492019540136e+00 8.1598370164474083e+00 5.2849235908261134e+00 0 0 0
163 1 1.6026648415320999e+01 1.7116621232346318e+00 4.0952383778256962e-01 0 0 0
331 1 1.5789240031482423e+01 8.7078421416978991e+00 2.6668568136965692e-01 0 0 0
306 2 1.3695446714357983e+01 1.0439790586746307e+01 3.1788068171179620e+00 0 0 0
192 2 5.7250530428482183e-01 9.6974164296055161e+00 8.7375097161390478e+00 0 0 0
199 1 1.3553032235850360e+00 8.9747855785755171e+00 2.6869389775981332e+00 0 0 0
200 2 1.4266228579751985e+00 9.5052171927048104e+00 1.8872349349305637e+00 0 0 0
201 2 7.9284033369318441e-01 8.0981713800196822e+00 2.4972319981147795e+00 0 0 0
202 1 2.2459793253677329e-01 8.7582720194138002e+00 7.4201867976747149e+00 0 0 0
203 2 -7.4651884471729968e-01 8.4263536278934605e+00 7.5665181849415903e+00 0 0 0
204 2 1.9438667245275854e-01 9.2543288279825564e+00 6.5340159621036973e+00 0 0 0
205 1 6.2481132859638953e+00 1.0322270330219851e+01 2.7469884988309006e+00 0 0 0
206 2 6.5342012145551811e+00 9.6416406254070619e+00 3.3781377529611603e+00 0 0 0
207 2 6.4398571200892833e+00 9.9463739610683657e+00 1.9118992203551035e+00 0 0 0
208 1 4.0763274176007522e+00 1.0070237759127256e+01 7.6463271442523011e+00 0 0 0
691 1 -2.2677763073590516e+00 1.0295052323783029e+01 9.7467520620500387e+00 0 0 0
210 2 3.9210627534749558e+00 9.4130745455774445e+00 6.9926411698855224e+00 0 0 0
601 1 1.7371706814284011e+01 5.1230631684581969e+00 2.8506122011747925e-01 0 0 1
135 2 1.5736050173487634e+01 2.7179554631751550e+00 6.3642819456078756e+00 0 0 0
23 2 1.3694931472073177e+00 3.4146880742302268e+00 9.5408731607040540e+00 0 0 0
117 2 9.5534228954813010e+00 4.1168142672576491e-01 2.7309943206543053e+00 0 0 0
102 2 1.3737702842443841e+01 3.8855235323431634e+00 5.1700416769020086e-01 0 0 0
235 1 -2.1843423476981161e+00 8.2945489803486883e+00 8.1098006136328848e+00 0 0 0
236 2 -2.4970059018496040e+00 9.0469366251076035e+00 8.6114732304073058e+00 0 0 0
238 1 3.5970400516702492e+00 7.9154904487997477e+00 1.6873631122689643e+00 0 0 0
239 2 2.8543474159290780e+00 8.2710705503778144e+00 2.2552019066548605e+00 0 0 0
240 2 3.9327197833707510e+00 8.7286109272152892e+00 1.2045271703730627e+00 0 0 0
244 1 7.7514676532898230e-01 9.9567832360261086e+00 5.0142826818841701e+00 0 0 0
245 2 1.3087325810271078e+00 9.5332435053617228e+00 4.3586433739297892e+00 0 0 0
246 2 1.3293573707787911e+00 1.0422283842679194e+01 5.6367901962402467e+00 0 0 0
290 2 1.5918608336617526e+01 1.0605410988767870e+01 2.7629230624931980e+00 0 0 0
217 1 6.5468503529264694e+00 1.0893511146791676e+01 6.6328608534272027e+00 0 0 0
253 1 1.5300841055150864e+01 8.3131016573496765e+00 4.8847169747329779e+00 0 0 0
255 2 1.5418782793393447e+01 8.7467357712138529e+00 4.0185173042749582e+00 0 0 0
256 1 1.2665408603688306e+01 8.5298795628134787e+00 5.2001483554229662e+00 0 0 0
257 2 1.3574895846789788e+01 8.1954982214822074e+00 5.2391411051019920e+00 0 0 0
258 2 1.2664554341927509e+01 9.2284651748886013e+00 4.5055878843924004e+00 0 0 0
80 2 6.7252342548749695e+00 1.9368060098976376e+00 8.9524230702163865e-01 0 0 0
272 2 1.0354279984028535e+01 9.9792243491109289e+00 7.9226849611391215e-01 0 0 0
668 2 1.2818358284796870e+01 1.6991071149428145e+00 8.8986853207750389e+00 0 0 0
276 2 9.4911908153531961e+00 1.0132009570294409e+01 8.5517357544477335e+00 0 0 0
283 1 1.0602683394652445e+01 9.0120945325984927e+00 2.4318234963735978e+00 0 0 0
284 2 1.0406473119888876e+01 9.4925204365071885e+00 3.2673121833027809e+00 0 0 0
285 2 9.8199477283008658e+00 8.3652132690539869e+00 2.3843395542694390e+00 0 0 0
286 1 9.2632253556426072e+00 8.7724479801331476e+00 7.0662542478111172e+00 0 0 0
287 2 1.0055320810342959e+01 8.1220308213377006e+00 7.2157531987118189e+00 0 0 0
288 2 8.4401144604528238e+00 8.2988742056554106e+00 7.1170253362548292e+00 0 0 0
289 1 1.5305131097115497e+01 9.8995961232749838e+00 2.6074930792587323e+00 0 0 0
304 1 1.2917739363708900e+01 1.0717231833199312e+01 3.6918043413210375e+00 0 0 0
291 2 1.5569973546391999e+01 9.3745328194545312e+00 1.8069594618539464e+00 0 0 0
292 1 1.3274743078275948e+01 1.0136119443910857e+01 7.3115641593799268e+00 0 0 0
237 2 1.5002746703318047e+01 7.8316256095027752e+00 7.6827108363913963e+00 0 0 0
294 2 1.2951206466589504e+01 9.4591834028667616e+00 6.6719827053220371e+00 0 0 0
585 2 3.9773669172921036e+00 1.5113603862972516e+00 8.9829978990792512e+00 0 0 0
583 1 3.6771900697793982e+00 9.3400589801016964e-01 9.7246945282638180e+00 0 0 0
220 1 3.7729659783461411e+00 1.0773487884588121e+01 3.6774464956072697e+00 0 0 0
190 1 6.2120418303134439e-01 1.0286998934971702e+01 9.5312582469960585e+00 0 0 0
319 1 6.3370597630278400e+00 7.9243881935724056e+00 8.5024122807539282e+00 0 0 0
320 2 6.3454558897125395e+00 8.8786989718494862e+00 8.7422926390892037e+00 0 0 0
321 2 6.9749113013400139e+00 7.4311982112550359e+00 9.0275554020545261e+00 0 0 0
322 1 1.2739820737641823e+01 7.6197080818912539e+00 1.7961747397590184e+00 0 0 0
323 2 1.1990200780631998e+01 8.0869042264933970e+00 2.1940286836684146e+00 0 0 0
324 2 1.2292367849133935e+01 6.8980074578999062e+00 1.3276687562364387e+00 0 0 0
328 1 1.0168514971147498e+01 1.0027995965288001e+01 4.8412004643707034e+00 0 0 0
329 2 9.8650375821904248e+00 9.3985379552300081e+00 5.5469663460574141e+00 0 0 0
330 2 9.3628882862962168e+00 1.0544217334567259e+01 4.5776688311618248e+00 0 0 0
70 1 3.8607827622518127e+00 4.0084231881467147e-01 1.8959479106269301e+00 0 0 0
518 2 7.5486603222776507e+00 4.8158941242273299e+00 3.4966459772986069e-01 0 0 0
247 1 6.8621177108873130e+00 8.7794248587391301e+00 4.3859833004614934e-01 0 0 0
145 1 1.7439606581502645e+01 7.1144918758834788e+00 1.9372635240776155e+00 0 0 0
133 1 1.5601128878073409e+01 3.6237045048587602e+00 6.6006354388457318e+00 0 0 0
528 2 3.0540082710156660e+00 2.7804865363963134e+00 2.9578483420096408e-01 0 0 0
274 1 9.4484558903041123e+00 1.0309467859504533e+01 9.5155653089607792e+00 0 0 0
156 2 1.2013599262608690e+01 5.8120401397007826e-01 2.5034914892570503e+00 0 0 0
671 2 8.2356142698889325e+00 5.7721760964905657e+00 9.1668631245860013e+00 0 0 0
836 2 1.3358840503471905e+01 9.3144506692915225e+00 8.9669841190646054e+00 0 0 0
753 2 4.1311289233537334e+00 9.4328677198401625e+00 9.2000343913955334e+00 0 0 0
221 2 4.3293766768799236e+00 1.0700162537548614e+01 2.9024498443310636e+00 0 0 0
13 1 4.8889205377172544e+00 4.7038109176117899e+00 9.4607009039982817e+00 0 0 0
154 1 1.2811550588722666e+01 3.8140004436987623e-01 1.9318352544107444e+00 0 0 0
84 2 2.8609880892038957e+00 6.6938808297690118e+00 7.3435645437791242e-01 0 0 0
293 2 1.2616405528437440e+01 1.0865523493095500e+01 7.3701230842629490e+00 0 0 0
103 1 1.0200826036040898e+01 2.5778918155550508e+00 3.9599388930478285e-01 0 0 0
248 2 7.4922657603268892e+00 8.1195881641525744e+00 7.7283565386510056e-01 0 0 0
2 2 7.3205946620831490e+00 4.0991876941478161e-01 4.9634771271917426e+00 0 0 0
305 2 1.2274522112473345e+01 1.1127107742675792e+01 3.0198439528854157e+00 0 0 0
520 1 1.9463206278213852e+00 5.0458164098728293e+00 9.6370610914245596e+00 0 0 0
604 1 1.1183639119485495e+01 5.0036643657920283e+00 9.6980049592830984e+00 0 0 0
311 2 1.0984105140900287e+01 1.0985834265099925e+01 6.1756940587498583e+00 0 0 0
106 1 9.3415036911546157e+00 3.0202405349246559e+00 9.6265677638686089e+00 0 0 0
835 1 1.2814324826546043e+01 8.8624013148808114e+00 9.6054928762361502e+00 0 0 0
693 2 -1.3300275830769346e+00 1.0440223458763773e+01 9.5386710872924265e+00 0 0 0
602 2 1.6514089686189855e+01 4.6626060151211028e+00 3.0887299273597396e-01 0 0 0
222 2 3.0593472299022455e+00 1.1243614200584172e+01 3.3198218507555732e+00 0 0 0
20 2 6.1971897913695928e-01 3.3521727254131486e+00 4.5955789609055653e-01 0 0 0
15 2 3.8923743234550083e+00 4.6373987808678248e+00 9.5708497994559334e+00 0 0 0
482 2 4.0969001449375098e-02 2.5324516279655329e-01 2.2496120912981712e+00 0 0 0
606 2 1.0396329009588674e+01 4.4281859352056303e+00 9.6970466292213935e+00 0 0 0
612 2 1.1872629988432935e+01 2.6868899836097579e+00 2.6975886931845816e-01 0 0 0
692 2 -2.7322156854257260e+00 1.1132847545236119e+01 9.6160337431221024e+00 0 0 0
523 1 -1.8786631282852060e+00 2.8359730103418865e+00 9.7215343871229649e+00 0 0 0
667 1 1.2460314746498378e+01 1.3480085402120980e+00 9.7195857632830371e+00 0 0 0
108 2 8.3998670674143998e+00 3.0851328301543539e+00 9.7181776964311553e+00 0 0 0
809 2 1.0122600669119068e+01 1.0413206428017331e+01 1.2594103333262964e+01 0 0 0
510 2 1.4497205450080113e+00 1.1758395167402231e+00 1.4366033497842935e+01 0 0 0
828 2 8.8353226799067723e+00 8.3107355909111185e+00 1.1747975957642771e+01 0 0 0
833 2 6.6852318919401315e+00 9.4479512547250231e+00 1.3948836590027641e+01 0 0 0
168 2 4.1692541362150397e+00 6.6923728576209101e+00 1.8925035463214058e+01 0 0 0
187 1 -5.3805703021250935e+00 1.0304048615992629e+01 1.9261620798741610e+01 0 0 -1
17 2 -1.2710828258377465e+00 3.9478330158615877e+00 1.9090855548840921e+01 0 0 -1
694 1 -2.6751653734979475e+00 1.0008595659573016e+01 1.8844079545391928e+01 0 0 0
573 2 1.1352502926027880e+01 3.3593265886061813e-01 1.7330903961324239e+01 0 0 0
816 2 7.6073333245719557e+00 1.1151361389569713e+01 1.5234751010162951e+01 0 0 0
990 2 7.1883533507427089e+00 8.2952542530500786e-02 1.7387646313024653e+01 0 1 0
752 2 3.6561815221745348e+00 9.3454087498156291e+00 1.0761381230642263e+01 0 0 0
776 2 7.6790640083667974e+00 1.0547955543755871e+01 9.7839366979521927e+00 0 0 0
656 2 2.4561979862819632e+00 2.5487466423857386e-01 1.7383617878342591e+01 0 1 0
778 1 6.4599137442961894e+00 9.9964217263503841e+00 1.9276429496821493e+01 0 0 0
832 1 6.4048598168223805e+00 9.9225997609694048e+00 1.4771824314442176e+01 0 0 0
105 2 3.1788202587781704e+00 1.9579486891800757e+00 1.8859082446686614e+01 0 0 0
721 1 3.4637501692220027e+00 1.0662318700022468e+01 1.5672906170544806e+01 0 0 0
505 1 3.2945494156513142e+00 1.5134070704875047e+00 1.4050034334970498e+01 0 0 0
506 2 3.3527477753065025e+00 2.1086718603133692e+00 1.4859101506640837e+01 0 0 0
509 2 1.3848445759908401e-01 3.7522403279740912e-01 1.4530825711796917e+01 0 0 0
508 1 4.5752536900730156e-01 1.2804013020988916e+00 1.4393089514833628e+01 0 0 0
620 2 6.6133136042562555e+00 3.3733539863312884e-01 1.2135144193404596e+01 0 0 0
107 2 9.5228502222588727e+00 2.3032425097714011e+00 1.0233882373124301e+01 0 0 0
511 1 -3.9433099019116593e+00 6.6397521420047338e+00 1.4462064368686248e+01 0 0 0
512 2 -4.0013801822909940e+00 5.7547650683116469e+00 1.4064443035221185e+01 0 0 0
513 2 -3.6878323293750812e+00 6.5004392061487275e+00 1.5413086462278105e+01 0 0 0
514 1 -1.1980338677678231e+00 6.7386342575174423e+00 1.4178433094270959e+01 0 0 0
515 2 -1.1419538917261574e+00 5.9334776402740177e+00 1.4714515338455046e+01 0 0 0
516 2 -2.1590622768984802e+00 6.9983651917422289e+00 1.4206061227022952e+01 0 0 0
986 2 1.3558634617297093e+01 8.8326257491377735e-02 1.0747299916599976e+01 0 0 0
519 2 2.0035410224504906e+00 5.3337738466547817e+00 1.8365680325713129e+01 0 0 0
827 2 1.0274591991898205e+01 7.8437697136474158e+00 1.1512229709708974e+01 0 0 0
522 2 2.1637349773894363e+00 5.2125576829521014e+00 1.0557960897855930e+01 0 0 0
826 1 9.4512877146547112e+00 8.1048058280879669e+00 1.1027868089958167e+01 0 0 0
574 1 5.9236817475559311e-01 4.7173180979199936e-01 1.1158103038318140e+01 0 0 0
525 2 -1.8746708033465227e+00 2.4398668439345199e+00 1.0578352617494827e+01 0 0 0
823 1 3.3129716062490893e+00 7.8772670870593329e+00 1.7884973786545743e+01 0 0 0
527 2 -2.8021139674932920e+00 2.1622971319958513e+00 1.8151409360625465e+01 0 0 0
529 1 1.4683522718122752e+00 6.2572508583693223e+00 1.6887217045308390e+01 0 0 0
530 2 1.5554226496845880e+00 6.1629504444810523e+00 1.5898516527413140e+01 0 0 0
531 2 5.1583787959638627e-01 6.3743666504023366e+00 1.6979724045480410e+01 0 0 0
532 1 2.7834777270766242e+00 6.1587870388967074e+00 1.2121420435112878e+01 0 0 0
533 2 3.6808668785848493e+00 6.4315899617529517e+00 1.2140155505569126e+01 0 0 0
534 2 2.4492348249174549e+00 5.8511914831444019e+00 1.3058206155303127e+01 0 0 0
535 1 -2.0593682384680161e+00 1.1941359085754772e+00 1.2369524330951192e+01 0 0 0
610 1 6.1423907048066750e+00 2.3810750956065196e+00 1.9220524873188253e+01 0 0 0
537 2 -1.0923699945242027e+00 1.0340453936285150e+00 1.2226594181617031e+01 0 0 0
538 1 -3.2226496895556602e+00 9.7043124601732966e-01 1.6805801235639713e+01 0 0 0
539 2 -4.2171427655749092e+00 8.0633486395805343e-01 1.6924858324213041e+01 0 0 0
540 2 -3.0169994290487754e+00 1.4921364749232480e+00 1.5989442503980678e+01 0 0 0
541 1 3.0700326423653999e+00 2.7565547146876361e+00 1.1603187462708886e+01 0 0 0
542 2 2.9967441737614857e+00 2.2574689898054090e+00 1.2441030501057616e+01 0 0 0
543 2 3.1884257112803964e+00 2.1572339461003649e+00 1.0778106371392028e+01 0 0 0
544 1 9.5202968848536162e-01 2.5803933361290126e+00 1.6728256509061879e+01 0 0 0
545 2 7.1551654358134620e-01 2.2123850942303327e+00 1.7594234397411313e+01 0 0 0
546 2 5.2142771972007207e-01 1.9745852891141713e+00 1.6069182376833780e+01 0 0 0
547 1 -3.4704622995597787e+00 5.1429312615249962e+00 1.6745265420946588e+01 0 0 0
548 2 -4.1929367525003549e+00 4.5066335850437165e+00 1.6656285893661448e+01 0 0 0
549 2 -3.5616266897512769e+00 5.3405468299052616e+00 1.7720384984055258e+01 0 0 0
550 1 -1.3721654127043394e+00 5.0715128474036124e+00 1.1997219715076900e+01 0 0 0
551 2 -7.3566142438021753e-01 4.2893901806195514e+00 1.2160589837188526e+01 0 0 0
552 2 -1.0472425939573013e+00 5.7250811567294182e+00 1.2667161684019458e+01 0 0 0
553 1 3.1903679153373732e+00 3.3352914897501824e+00 1.5801122304934612e+01 0 0 0
554 2 2.4078073571762744e+00 3.1753600501876917e+00 1.6388930464734308e+01 0 0 0
555 2 4.0015341423939770e+00 3.6849144873740816e+00 1.6215720327741650e+01 0 0 0
556 1 3.7279141587366826e-01 3.2484530488447647e+00 1.2695464758898401e+01 0 0 0
557 2 1.2300158471285432e+00 3.1328391084406859e+00 1.2139323888280677e+01 0 0 0
558 2 2.1942819994491281e-01 2.4625235755454824e+00 1.3254019872982303e+01 0 0 0
559 1 -4.0835743384936114e+00 4.3176861936743638e+00 1.2878875407603710e+01 0 0 0
560 2 -3.2983250880574739e+00 4.5424807827376759e+00 1.2375389461080539e+01 0 0 0
561 2 -3.7727983902145557e+00 3.6426198127442118e+00 1.3535310823706650e+01 0 0 0
562 1 -1.2121384294535846e+00 4.4252216295819293e+00 1.5658215324400080e+01 0 0 0
563 2 -4.3728303876939556e-01 4.1252436735543512e+00 1.6120727943164326e+01 0 0 0
564 2 -1.8718875828062251e+00 4.6933786029000615e+00 1.6318774752205329e+01 0 0 0
565 1 5.3171156613765236e+00 7.0413723255148764e+00 1.1277836207413513e+01 0 0 0
566 2 4.8187651042245143e+00 7.6843290708877356e+00 1.0734751857951281e+01 0 0 0
567 2 5.5833038494262119e+00 6.2328023401105153e+00 1.0783254108222950e+01 0 0 0
568 1 -1.0813377015732089e+00 6.9998742983624052e+00 1.7676410776662237e+01 0 0 0
569 2 -1.1778676417774570e+00 6.1567184388511738e+00 1.8167126366213267e+01 0 0 0
570 2 -6.4939047388842486e-01 7.6237283704359760e+00 1.8289101858883910e+01 0 0 0
655 1 3.2977894346132377e+00 5.8063545827301932e-01 1.7805858275312808e+01 0 0 0
572 2 -5.8466068952833705e+00 1.4887229181890298e+00 1.8269285108764308e+01 0 0 0
740 2 -5.6537588167406154e+00 7.5339139939899473e+00 1.8311593788707341e+01 0 0 0
188 2 -5.6603783229232647e+00 9.5970678958376840e+00 1.8636735376159436e+01 0 0 0
576 2 6.9139441733918394e-01 1.2468202253872931e+00 1.0591187806651831e+01 0 0 0
577 1 1.8066218281779047e+00 5.1493044943165636e+00 1.4421096352694716e+01 0 0 0
578 2 1.2636451429752018e+00 4.4665277324400074e+00 1.3977472212211248e+01 0 0 0
579 2 2.4281595721199380e+00 4.5498751314635548e+00 1.4941756841775653e+01 0 0 0
580 1 -2.7904176546506259e+00 2.3107286720230875e+00 1.4441163253316290e+01 0 0 0
581 2 -2.4744229652736527e+00 1.7192674019476344e+00 1.3694131392926710e+01 0 0 0
582 2 -2.0115331006881760e+00 2.8726313173911513e+00 1.4634815609924267e+01 0 0 0
808 1 9.3514771645899675e+00 1.0555238912954060e+01 1.3185385655765918e+01 0 0 0
837 2 1.2442901182587432e+01 9.5768243940920659e+00 1.0167318948554181e+01 0 0 0
589 1 1.2408855499124828e+01 1.2777658864269286e+00 1.4275512437996882e+01 0 0 0
571 1 -5.7674741488506394e+00 8.5481038265546516e-01 1.7504474276752980e+01 0 0 0
591 2 1.2560017328243864e+01 2.0049629263521709e+00 1.4902938374118943e+01 0 0 0
592 1 9.6459770912252285e+00 1.1799144038117377e+00 1.4863613041134990e+01 0 0 0
526 1 -2.6746275741577548e+00 2.6539084761635801e+00 1.9025465337242252e+01 0 0 0
594 2 9.4570030679421269e+00 1.9490646271182113e+00 1.4280208983932148e+01 0 0 0
595 1 4.6809130139217547e+00 6.3028861930185300e+00 1.4585979016967126e+01 0 0 0
596 2 4.6093079205847722e+00 6.0317586428839389e+00 1.5515262807592917e+01 0 0 0
597 2 4.8694209571958638e+00 5.4287739869176912e+00 1.4165154165024282e+01 0 0 0
598 1 7.6953754988024583e+00 6.3895954040648251e+00 1.4530141343242411e+01 0 0 0
599 2 6.7549968807348151e+00 6.7154506053554481e+00 1.4622022753654763e+01 0 0 0
600 2 7.7095608765189869e+00 5.8839255167145437e+00 1.3628948030111449e+01 0 0 0
191 2 8.3967769848544949e-01 9.7163126591226270e+00 1.0290109808204582e+01 0 0 0
603 2 1.0661559658690004e+01 5.6589310378515458e+00 1.8576045114130288e+01 0 0 0
825 2 3.0448775063940934e+00 8.7064104460128426e+00 1.8178329239770918e+01 0 0 0