LAMMPS data file via write_data, version 15 Apr 2020, timestep = 500000

3072 atoms
2 atom types

1.7217373128947244e-01 2.9968020268707171e+01 xlo xhi
1.4326127731554017e-01 2.8197204722680894e+01 ylo yhi
1.5888351676183987e-01 2.7252561483236324e+01 zlo zhi
1.0166870169793372e+01 1.0165056566790044e+01 7.0949960688825504e+00 xy xz yz

Masses

1 16
2 2

Atoms # atomic

1 1 7.4412189926126144e+00 5.3196929319969897e+00 4.1916824652502793e+00 0 0 0
2 2 6.6049031452946458e+00 5.0917683222143193e+00 3.7903585994478237e+00 0 0 0
3 2 7.3883047294942559e+00 6.2447167379690676e+00 4.4783624696506870e+00 0 0 0
4 1 1.0259180022245697e+01 6.8599973220113650e+00 1.0933727177399316e+01 0 0 0
5 2 1.0876159230956734e+01 6.6416037095050626e+00 1.1665223395604626e+01 0 0 0
6 2 9.8869009807494379e+00 7.7480163434013409e+00 1.1220634270988073e+01 0 0 0
7 1 1.0170972078172751e+01 1.2058535947049817e+01 4.1962726753718895e+00 0 0 0
8 2 1.0571075495771703e+01 1.1739274896953900e+01 5.0213919114692152e+00 0 0 0
9 2 9.6846211883700928e+00 1.2890891021037772e+01 4.5191920565158155e+00 0 0 0
10 1 1.2731867769066572e+01 1.3952332146470308e+01 1.0843880708325660e+01 0 0 0
11 2 1.3390120619934859e+01 1.4169376380221943e+01 1.0194975809213263e+01 0 0 0
12 2 1.1910417532111246e+01 1.3610154112947907e+01 1.0466733217128256e+01 0 0 0
13 1 1.4946207790558061e+01 5.0850280058947561e+00 3.9376157932140123e+00 0 0 0
14 2 1.5445810726634742e+01 4.6621131223853913e+00 4.6354242469336606e+00 0 0 0
15 2 1.4737599544636772e+01 5.9524721186652219e+00 4.3008408910733227e+00 0 0 0
16 1 1.7555255684367982e+01 6.8555127357701897e+00 1.0826363848175658e+01 0 0 0
17 2 1.7797981084552791e+01 6.3395843468342417e+00 1.1642883483042009e+01 0 0 0
18 2 1.8464399311328574e+01 7.0318919756306020e+00 1.0501119693639824e+01 0 0 0
19 1 1.7421542850250265e+01 1.2434918355809227e+01 4.0034433008795682e+00 0 0 0
20 2 1.8157988707993020e+01 1.2650840045174919e+01 3.3393888415619037e+00 0 0 0
21 2 1.7881068819757701e+01 1.1920397919560022e+01 4.6536618245013086e+00 0 0 0
22 1 2.0047684079090288e+01 1.4184102756976319e+01 1.1035473872265701e+01 0 0 0
23 2 2.0950235043321637e+01 1.4491115216660198e+01 1.0816726227818267e+01 0 0 0
24 2 1.9703480243757749e+01 1.4955726102649185e+01 1.1485331735430245e+01 0 0 0
25 1 1.1816428276172282e+01 8.0351788244589279e+00 6.4314466000226451e+00 0 0 0
26 2 1.1147348560238036e+01 8.6633958506827131e+00 6.1320851693044789e+00 0 0 0
27 2 1.1344599262969991e+01 7.4247824632746369e+00 6.9934091127784006e+00 0 0 0
28 1 1.4528956047316404e+01 9.9040145538162587e+00 1.3094983684044513e+01 0 0 0
29 2 1.4921722481989212e+01 9.1884562171008159e+00 1.2520568953294184e+01 0 0 0
30 2 1.3865173094556614e+01 1.0385527323146603e+01 1.2508735660424756e+01 0 0 0
31 1 1.4299116669925255e+01 1.5267358558514662e+01 6.0960165093988783e+00 0 0 0
32 2 1.4662175442314002e+01 1.4760792029878335e+01 5.3766940528288183e+00 0 0 0
33 2 1.3478841799794022e+01 1.5661467358016861e+01 5.7201453955626178e+00 0 0 0
34 1 1.6803377010721736e+01 1.6958083410456403e+01 1.3264518440240691e+01 0 0 0
35 2 1.6139261725148454e+01 1.7428503990167087e+01 1.2783145883302550e+01 0 0 0
341 2 6.9284303502792177e+00 8.8263161374133094e+00 1.1748628937186510e+01 0 0 0
37 1 1.9231918860174638e+01 8.2653221476099272e+00 6.6766445563474548e+00 0 0 0
38 2 1.8489723127177665e+01 8.8402905664052795e+00 6.3786242743045527e+00 0 0 0
39 2 1.8833773301030899e+01 7.4670845755655701e+00 7.1195938638963439e+00 0 0 0
314 2 3.1941527113161783e+00 3.8408595336298759e+00 2.6638082752565506e-01 0 0 0
1152 2 2.4103848086527069e+01 3.1132082208245905e+01 1.1789301891836423e+01 0 0 0
42 2 2.1159070949411309e+01 1.0498691076042268e+01 1.3202508787950981e+01 0 0 0
888 2 2.2364472029228406e+01 2.7029595449721825e+01 1.3556355389100961e+01 0 0 0
44 2 2.0817621629889860e+01 1.5940128524079991e+01 6.1544167368253833e+00 0 0 0
284 2 2.0058590269547135e+01 1.2980912266044314e+01 2.1123618441863061e+00 0 0 0
46 1 2.3933333480002592e+01 1.7246683425069143e+01 1.3190238188957883e+01 0 0 0
47 2 2.3081201632983475e+01 1.7558284950781697e+01 1.2777844463873627e+01 0 0 0
1095 2 1.5793673685582187e+01 1.8485623983449671e+01 3.4974749164393493e-01 0 0 0
49 1 5.1581614031314844e+00 3.8490782864251107e+00 2.8241484103035566e+00 0 0 0
50 2 5.4187282019615930e+00 2.9713432093552434e+00 2.4705876055482792e+00 0 0 0
51 2 4.5893167572210567e+00 3.5747102048356405e+00 3.5683149549733311e+00 0 0 0
52 1 7.7557365607355049e+00 5.5157857500577130e+00 9.7938272810163376e+00 0 0 0
53 2 7.6255003849131207e+00 5.7750795204215368e+00 8.8643310434342055e+00 0 0 0
54 2 8.5735140551648179e+00 5.9118505617026678e+00 1.0087490219474125e+01 0 0 0
55 1 7.8136023063936069e+00 1.0545612963876978e+01 3.1039553184763187e+00 0 0 0
56 2 8.1829369419733933e+00 9.7394023050320762e+00 2.6873478984256094e+00 0 0 0
57 2 8.5756944356334692e+00 1.1019146277495725e+01 3.3432981869816856e+00 0 0 0
58 1 1.0354215029740324e+01 1.2723937329291500e+01 9.6877094231273979e+00 0 0 0
59 2 9.8339720137007109e+00 1.3065482032486512e+01 8.9092140753424296e+00 0 0 0
60 2 1.0575969239467348e+01 1.1810156656376359e+01 9.4173111673361003e+00 0 0 0
61 1 1.2670240404417477e+01 3.6666074079153024e+00 2.9114614334077529e+00 0 0 0
62 2 1.3480061245992678e+01 4.2336448751002402e+00 3.0948496356544148e+00 0 0 0
63 2 1.2270261952308282e+01 4.0141397336888502e+00 2.0793722296137860e+00 0 0 0
64 1 1.5255326821730055e+01 5.4273076125577369e+00 9.4780484450074329e+00 0 0 0
65 2 1.5982037663491344e+01 5.8742087793853726e+00 9.9285046032436099e+00 0 0 0
66 2 1.5552224437110993e+01 4.5666267784678061e+00 9.1092115054816656e+00 0 0 0
67 1 1.5318809720818349e+01 1.0614868928748416e+01 2.8970403411413166e+00 0 0 0
68 2 1.5976507838544553e+01 1.1163718926538989e+01 3.4238106138678401e+00 0 0 0
69 2 1.5737585406391418e+01 9.7603895972258243e+00 2.5883856022116700e+00 0 0 0
70 1 1.7942679986508228e+01 1.2482441399128435e+01 9.9181832807508812e+00 0 0 0
71 2 1.7391848822497174e+01 1.3028061747415849e+01 9.2746790719514003e+00 0 0 0
72 2 1.8826840276452241e+01 1.2914412437398459e+01 1.0030314697493591e+01 0 0 0
808 1 2.6531377670675322e+01 2.4122515331010156e+01 1.3232761982214807e+01 0 0 0
881 2 2.0819679916181780e+01 2.0623407028134828e+01 1.3385555104651701e+01 0 0 0
1151 2 2.4520980998099134e+01 3.0241731753477701e+01 1.3032179024690196e+01 0 0 0
812 2 2.7408785521791611e+01 2.9602351904994734e+01 6.3250378082758036e+00 0 0 0
77 2 1.4627541263343179e+01 3.0061033210355340e+01 7.9442688285656171e+00 0 -1 0
1150 1 2.4787532441892090e+01 3.0501518374434696e+01 1.2106495348653240e+01 0 0 0
79 1 3.9395814217480396e+00 7.9275530327223338e+00 7.2359487961637536e-01 0 0 0
123 2 3.2841693492895638e+00 2.4393118190833327e+00 4.7060960689360503e+00 0 0 0
81 2 4.5979773930877395e+00 7.2547416737475707e+00 1.0374165002780695e+00 0 0 0
82 1 6.4078004433122269e+00 9.3200783097028665e+00 7.8147952837334120e+00 0 0 0
1053 2 2.5552639622368840e+01 2.7056489718484748e+01 3.3548834192699650e+00 0 0 0
84 2 7.3074668989462719e+00 8.9622412641861064e+00 8.2338140568263984e+00 0 0 0
85 1 8.9633858093327738e+00 9.9164221771826111e-01 8.3597087737893161e-01 0 0 0
1139 2 1.7290420363397455e+01 2.9994725251084894e+01 1.2924280745652961e+01 0 0 0
87 2 8.6653144027252509e+00 1.6425492879837371e+00 1.5039291350094348e+00 0 0 0
88 1 1.1153723960334634e+01 2.5643757821419082e+00 7.4707419019751518e+00 0 0 0
89 2 1.1981767441887097e+01 2.2339387001701985e+00 8.0208657416345019e+00 0 0 0
90 2 1.1588927093614849e+01 3.1580316534374395e+00 6.8605629215366344e+00 0 0 0
91 1 1.1150435595419843e+01 7.8988723652580921e+00 9.0678755307894654e-01 0 0 0
512 2 2.0025573952800862e+01 1.0425569489388419e+01 5.1175575445175667e+00 0 0 0
93 2 1.1971811836089501e+01 7.4384714446556623e+00 1.0888228617522573e+00 0 0 0
94 1 1.4199710570985367e+01 9.7583977732166591e+00 7.4994762128431995e+00 0 0 0
95 2 1.4872554121063153e+01 9.0928743204653006e+00 7.8117271663623367e+00 0 0 0
96 2 1.3513143459025184e+01 9.2263131835232848e+00 7.0431347691650545e+00 0 0 0
97 1 5.3547611929690433e+00 4.3710135551267637e+00 6.2505043254885733e+00 0 0 0
98 2 5.8444798306561605e+00 4.8021643033265757e+00 7.0071024481556252e+00 0 0 0
99 2 4.7005860006043090e+00 3.7258998785474988e+00 6.5972003593438506e+00 0 0 0
100 1 7.9806813546304278e+00 6.0691241760781001e+00 1.2793926061929980e+01 0 0 0
101 2 7.5429678496844961e+00 6.7822096385594062e+00 1.2267280916417715e+01 0 0 0
102 2 8.5003583712874828e+00 5.5446953412018853e+00 1.2169038363252705e+01 0 0 0
103 1 8.0330770166718217e+00 1.1148887948982651e+01 6.4287520842552022e+00 0 0 0
104 2 7.5152723391108420e+00 1.1665281342736339e+01 5.7547946426512082e+00 0 0 0
105 2 7.3661082782592198e+00 1.0678846621853049e+01 6.9045815042179832e+00 0 0 0
106 1 1.0376409105323550e+01 1.3028215884852356e+01 1.2539441921407604e+01 0 0 0
113 2 1.5314258073708020e+01 6.7642449124550561e+00 1.3670945254522751e+01 0 0 0
108 2 1.1159977244028372e+01 1.2483010378687908e+01 1.2249155526946709e+01 0 0 0
109 1 1.2598216239912533e+01 4.4145485554041475e+00 6.1088079106787001e+00 0 0 0
110 2 1.3220475006660164e+01 3.8481682298761912e+00 5.5521374524982985e+00 0 0 0
111 2 1.2245701222229316e+01 4.9981944710684054e+00 5.3851500574995388e+00 0 0 0
112 1 1.5161774241332663e+01 6.1084878012872394e+00 1.2927583409744487e+01 0 0 0
326 2 1.1808535708104246e+01 4.8965024615157535e+00 2.5510141377815820e-01 0 0 0
261 2 1.7536217325546389e+01 1.1111287480689647e+01 5.0209886789268654e-01 0 0 0
115 1 1.5597165987486012e+01 1.1472171059899571e+01 6.0869260268929004e+00 0 0 0
116 2 1.4944699792399383e+01 1.0904768798002547e+01 6.5395476555019671e+00 0 0 0
117 2 1.5849510300038531e+01 1.2093255975930566e+01 6.8207486633922825e+00 0 0 0
118 1 1.8017526880328806e+01 1.3338309329620936e+01 1.3038350564682528e+01 0 0 0
119 2 1.7329520730651108e+01 1.2776003699397593e+01 1.3440494344723435e+01 0 0 0
120 2 1.7603611758215628e+01 1.3772562703791261e+01 1.2242469309187804e+01 0 0 0
846 2 8.7775690361900089e+00 1.7242379242599867e+01 8.3927455780329936e+00 0 0 0
806 2 2.4920021712556846e+01 2.2580985332403493e+01 6.6319197378291808e+00 0 0 0
121 1 2.9995789269656070e+00 3.2922655392315843e+00 4.3534387856953067e+00 0 0 0
1275 2 2.2483571855192068e+01 1.7469465447489149e+01 4.8737439517389349e+00 0 0 0
125 2 6.6622406176076243e+00 4.8154571717986050e+00 1.0840084789373062e+01 0 0 0
126 2 6.2759753866503090e+00 3.5449310743927467e+00 1.1657504439709939e+01 0 0 0
127 1 5.6637928798393888e+00 9.7193738364321742e+00 4.2708047929912434e+00 0 0 0
1134 2 1.4647833733554140e+01 2.3384588300392132e+01 1.2873538995764651e+01 0 0 0
129 2 6.4998322623749045e+00 1.0060640897370670e+01 3.8326318977944114e+00 0 0 0
130 1 8.1050696620749321e+00 1.1632094208690996e+01 1.0943369978209780e+01 0 0 0
882 2 1.9758165982437955e+01 1.9513653666841520e+01 1.3260747433234455e+01 0 0 0
132 2 8.8795151760337969e+00 1.2104634411726723e+01 1.0514643234517646e+01 0 0 0
133 1 1.0543626425521319e+01 2.7652958708059483e+00 4.4133824637335719e+00 0 0 0
134 2 1.0936395311632008e+01 1.8874595447467122e+00 4.6545038875798630e+00 0 0 0
135 2 1.1189676531569400e+01 3.2500034704578966e+00 3.8813896062633821e+00 0 0 0
136 1 1.3202862557073074e+01 4.3908367854497161e+00 1.1028216878760785e+01 0 0 0
137 2 1.3965369788066750e+01 4.8522897777762344e+00 1.0579128531294346e+01 0 0 0
138 2 1.2963347747002150e+01 4.8919135535979823e+00 1.1811665406975266e+01 0 0 0
139 1 1.3129225199538423e+01 9.9692697062026614e+00 4.2663820160500148e+00 0 0 0
140 2 1.3852476522269964e+01 1.0447270219733443e+01 3.7704120292795613e+00 0 0 0
141 2 1.3540863216123300e+01 9.1384572225903540e+00 4.5703612791697283e+00 0 0 0
142 1 1.5746394528987022e+01 1.1583554097754599e+01 1.1130531710141833e+01 0 0 0
143 2 1.6559872655539511e+01 1.2052092173667443e+01 1.0726632275577058e+01 0 0 0
144 2 1.6138268378386154e+01 1.0719475449117903e+01 1.1537390914805055e+01 0 0 0
145 1 6.8447616090170973e+00 2.1814951916529668e+00 5.1230244147568804e+00 0 0 0
146 2 7.6260961621829484e+00 2.0182297229552866e+00 5.6981644324885607e+00 0 0 0
147 2 6.3515311009283737e+00 2.9627261875805093e+00 5.3699843135392982e+00 0 0 0
148 1 9.4771124417881847e+00 3.9981270177907700e+00 1.1760303531388779e+01 0 0 0
149 2 1.0043514166183385e+01 4.1463100851712031e+00 1.0951644964417049e+01 0 0 0
150 2 1.0092840798383950e+01 3.6405585334467117e+00 1.2469243256194543e+01 0 0 0
151 1 9.5699696076998411e+00 9.2633730382560415e+00 5.2961456112194867e+00 0 0 0
152 2 9.2542634735345377e+00 1.0102285193247289e+01 5.7242326125060101e+00 0 0 0
153 2 9.9171923499233525e+00 9.5436286939432140e+00 4.4570320790859252e+00 0 0 0
154 1 1.1992155234508294e+01 1.1019452836080342e+01 1.1794500458399284e+01 0 0 0
155 2 1.1210295693560965e+01 1.0463967705442998e+01 1.1793905464311687e+01 0 0 0
156 2 1.2323165845772522e+01 1.1014573897777032e+01 1.0831543601175435e+01 0 0 0
157 1 1.4213231674205540e+01 2.2766321168686812e+00 4.9801612104776565e+00 0 0 0
158 2 1.4965508804051090e+01 1.8823749611393243e+00 5.4856132728702631e+00 0 0 0
159 2 1.4689001635426465e+01 2.4539889269324444e+00 4.1288452012730783e+00 0 0 0
160 1 1.6708587207301388e+01 4.0022875018026802e+00 1.1644050661158515e+01 0 0 0
161 2 1.6225979309192496e+01 4.7348008081788988e+00 1.2051813886910582e+01 0 0 0
162 2 2.6298556495665704e+01 3.1259925602921818e+01 1.1974095550031510e+01 0 -1 0
163 1 1.6894735683412332e+01 9.1653350910113502e+00 5.2860069131112395e+00 0 0 0
164 2 1.6529771070011609e+01 1.0110021424437567e+01 5.3771846900251266e+00 0 0 0
165 2 1.7371159536295668e+01 9.0646459404771207e+00 4.4699505599482130e+00 0 0 0
166 1 1.9587408473681695e+01 1.0882277638644640e+01 1.2074145948892925e+01 0 0 0
167 2 1.9248304673148834e+01 1.1731877983520016e+01 1.2386871281767361e+01 0 0 0
168 2 2.0084188033065743e+01 1.1157055307525191e+01 1.1290985013097350e+01 0 0 0
169 1 9.1419295985955173e+00 4.4572767516877629e+00 6.1939898651683061e+00 0 0 0
170 2 9.6313467126252910e+00 4.0276128159151634e+00 5.5205636714812263e+00 0 0 0
171 2 8.3463643756336552e+00 4.7371277022258118e+00 5.7346684566623480e+00 0 0 0
172 1 1.1745241397131556e+01 6.0319885579996075e+00 1.3010246237207607e+01 0 0 0
43 1 2.1549920462428751e+01 1.5373251571962202e+01 6.5543430396569651e+00 0 0 0
900 2 1.2561552500868782e+01 2.5700545903714271e+01 1.0436275720453221e+01 0 0 0
175 1 1.1712946023175594e+01 1.1114132583366201e+01 6.1817882919375569e+00 0 0 0
176 2 1.2277013833342062e+01 1.0714736529540756e+01 5.4676218212759347e+00 0 0 0
177 2 1.2205205912748895e+01 1.1812481829095416e+01 6.6894587345834999e+00 0 0 0
178 1 1.4248722732914587e+01 1.3194256289024144e+01 1.2896533721881458e+01 0 0 0
179 2 1.3724202848673286e+01 1.3463871875183894e+01 1.2098177756299249e+01 0 0 0
180 2 1.4944817004357891e+01 1.2625618451498898e+01 1.2526895265768120e+01 0 0 0
181 1 1.6514822836543026e+01 4.2634108655096394e+00 5.9369389479965022e+00 0 0 0
182 2 1.7242831559618072e+01 3.6890508521857921e+00 5.6398542804472909e+00 0 0 0
183 2 1.6937548524226226e+01 4.9054400731586778e+00 6.5528832870401521e+00 0 0 0
184 1 1.8889263817317744e+01 5.9850784079656041e+00 1.3109849292346633e+01 0 0 0
1016 2 1.5556114437477875e+01 2.6452757995730046e+01 8.3871404483714440e-01 0 0 0
594 2 4.6075662542676499e+00 4.3125678732190522e+00 1.0098585620862602e+01 1 0 0
187 1 1.9281931773183192e+01 1.1486318620683811e+01 6.3201759150860077e+00 0 0 0
188 2 1.8866376811035991e+01 1.1060323971000292e+01 7.0933298414434223e+00 0 0 0
189 2 1.9585199453267464e+01 1.2273049411375931e+01 6.7325234184972533e+00 0 0 0
190 1 2.1812095823566736e+01 1.3065472130550694e+01 1.3173655534832568e+01 0 0 0
855 2 1.2907153717574026e+01 1.4526976277079502e+01 5.9160807867629261e-01 0 0 0
192 2 2.1024325689845160e+01 1.3250479906238269e+01 1.2643667639475279e+01 0 0 0
193 1 8.4355726777973956e+00 2.6861617416586641e+00 2.8006005298932997e+00 0 0 0
194 2 7.7563422372025981e+00 2.5312716372556139e+00 3.5012285558816294e+00 0 0 0
195 2 9.3083114639317230e+00 2.8479528938872569e+00 3.3028661575849618e+00 0 0 0
196 1 1.0963398580452736e+01 4.2990975106047529e+00 9.5368066048162490e+00 0 0 0
197 2 1.0926520609798002e+01 3.7223654320805850e+00 8.7335740923534697e+00 0 0 0
198 2 1.1932568870753942e+01 4.3696880972269874e+00 9.8361073113503146e+00 0 0 0
199 1 1.0903070436255076e+01 9.7764765231523754e+00 2.7442776116221674e+00 0 0 0
200 2 1.0942944010755296e+01 8.9256190040130683e+00 2.2003506466673186e+00 0 0 0
201 2 1.1846269868449751e+01 9.8799022468685500e+00 3.1769698147562471e+00 0 0 0
202 1 1.3501687890225789e+01 1.1265061892253071e+01 9.5842139434559783e+00 0 0 0
203 2 1.4290966375294856e+01 1.1390717160106178e+01 1.0103719838203752e+01 0 0 0
204 2 1.3739670187154974e+01 1.0594879028819213e+01 8.8948165456930699e+00 0 0 0
205 1 1.5987868984597819e+01 2.7330425797095721e+00 2.8231161370568727e+00 0 0 0
114 2 1.4693676871082852e+01 5.3938612590841206e+00 1.3367108952368229e+01 0 0 0
327 2 1.0782959270172398e+01 3.7511500014787487e+00 3.9346606050303229e-01 0 0 0
208 1 1.8299405081128061e+01 4.2027114751473427e+00 9.5427179821813191e+00 0 0 0
209 2 1.7731945719168877e+01 3.9642443873826791e+00 1.0350244485629657e+01 0 0 0
1113 2 1.1991901114796086e+01 2.8000645923975760e+01 5.0177482006895850e+00 0 0 0
211 1 1.8441280547778849e+01 9.5958628707349582e+00 2.8139118910242509e+00 0 0 0
978 2 2.3485297812886344e+01 1.7821036457065333e+01 8.9350117843832191e+00 0 0 0
213 2 1.8263530856087826e+01 1.0519883428137323e+01 2.4164593738963767e+00 0 0 0
214 1 2.0919663210448373e+01 1.1454338432508788e+01 9.7023286674779463e+00 0 0 0
282 2 2.0567066367193213e+01 8.1277876010712582e+00 1.0440428216514064e+01 0 0 0
215 2 2.1808496618922629e+01 1.1798405719282389e+01 9.9318765987143838e+00 0 0 0
217 1 5.6169972068657641e+00 1.4035344181100040e+00 1.7138774074170284e+00 0 0 0
218 2 4.7525171774646795e+00 1.0922921952603488e+00 1.8890658465740164e+00 0 0 0
219 2 5.6773619067091259e+00 1.7615937957620236e+00 7.9360887192626695e-01 0 0 0
220 1 8.3031577869069224e+00 2.9618137257561226e+00 8.7746239124975691e+00 0 0 0
221 2 8.3717199772567916e+00 3.7139211279487316e+00 9.3568223752928876e+00 0 0 0
222 2 8.7892781360480843e+00 3.2223433144315718e+00 7.9659949151288636e+00 0 0 0
223 1 8.0654877367221953e+00 8.2038429664439025e+00 1.7751465826315045e+00 0 0 0
224 2 8.7813650037966262e+00 7.6639995075499625e+00 2.2100995011936120e+00 0 0 0
225 2 8.4861008526980850e+00 8.5652518817347101e+00 9.4486539951455750e-01 0 0 0
226 1 1.0816050118266631e+01 1.0093226906068475e+01 8.5100453468910722e+00 0 0 0
227 2 1.1448978749595733e+01 9.4017599595710202e+00 8.7700776206738542e+00 0 0 0
228 2 1.0993106817491682e+01 1.0262873316316616e+01 7.5968318661537522e+00 0 0 0
229 1 1.3431180251456132e+01 1.3341311978130479e+00 1.8038875897693987e+00 0 0 0
230 2 1.2564449298977827e+01 8.8151987047907610e-01 1.8664567881116247e+00 0 0 0
231 2 1.3314921537701338e+01 2.1015168070296815e+00 2.3864207116887419e+00 0 0 0
232 1 1.5753892350087169e+01 3.0643081929180278e+00 8.3833418328111016e+00 0 0 0
233 2 1.6470888000866015e+01 2.4602746495357359e+00 8.6255104600824648e+00 0 0 0
234 2 1.5861352267537638e+01 3.3331928407855207e+00 7.4464503632825112e+00 0 0 0
235 1 1.5918131478904039e+01 8.3671796603969142e+00 1.7979454608185210e+00 0 0 0
236 2 1.6079179666288386e+01 8.7136532575786205e+00 9.2141032326934713e-01 0 0 0
237 2 1.6628070545884331e+01 7.8127568737589215e+00 2.1413088129432265e+00 0 0 0
238 1 1.7938806292402766e+01 1.0369036406022897e+01 8.5194364446079067e+00 0 0 0
239 2 1.8521585102961026e+01 9.6988577586105098e+00 8.9362049724654575e+00 0 0 0
240 2 1.7967175539024108e+01 1.1166030568009988e+01 9.1564980148455266e+00 0 0 0
241 1 7.5420470524246372e+00 4.4332592576456635e+00 1.0827153197097097e+00 0 0 0
242 2 7.7610411866798117e+00 3.8999657524100191e+00 1.8846918633502616e+00 0 0 0
243 2 6.8286879469123809e+00 5.0602902987688365e+00 1.3512415052787830e+00 0 0 0
244 1 1.0220208606579753e+01 6.3827072519831809e+00 7.8449349280409200e+00 0 0 0
245 2 1.0377067861118334e+01 5.7433841511731405e+00 8.5861070121404399e+00 0 0 0
246 2 1.0018688241764096e+01 5.7754198036522446e+00 7.0827999022871193e+00 0 0 0
247 1 1.0014893194863138e+01 1.1543133290818163e+01 9.8055398958336804e-01 0 0 0
248 2 9.4541751017733429e+00 1.2285624758521129e+01 1.4105605920746165e+00 0 0 0
249 2 1.0230819761840875e+01 1.0901383534607373e+01 1.7027448136656453e+00 0 0 0
250 1 1.2875456908340432e+01 1.3241149980055571e+01 7.8228004857526559e+00 0 0 0
251 2 1.3382572458232675e+01 1.2536349474265577e+01 8.2522793149250120e+00 0 0 0
252 2 1.3506946611576709e+01 1.3791544486258607e+01 7.3525261685782581e+00 0 0 0
253 1 1.5174057433009377e+01 4.6191186471666796e+00 8.7905606983476270e-01 0 0 0
254 2 1.5424255213528967e+01 4.1764293539571575e+00 1.7019666543617329e+00 0 0 0
255 2 1.4596304437663866e+01 5.3719572122335437e+00 1.1314397848405897e+00 0 0 0
256 1 1.7640535060518616e+01 6.2677206076889860e+00 7.7412976538208271e+00 0 0 0
257 2 1.7958680909498945e+01 5.8357949272847556e+00 8.5429663924254147e+00 0 0 0
258 2 1.6994000587351952e+01 6.9548118901377958e+00 8.0626207552841205e+00 0 0 0
259 1 1.7774560532708044e+01 1.1681619560194717e+01 1.2752641349971048e+00 0 0 0
260 2 1.6993982088098239e+01 1.2214058019904709e+01 1.5130794194858599e+00 0 0 0
210 2 1.9177214340992773e+01 4.1130234851086325e+00 9.9227980938877014e+00 0 0 0
262 1 2.0032744076672124e+01 1.3603004514060984e+01 7.9957138170109312e+00 0 0 0
263 2 2.0620559345588081e+01 1.3026859515186354e+01 8.5278015782829666e+00 0 0 0
264 2 2.0597959202862491e+01 1.4132843328883792e+01 7.3736647183665074e+00 0 0 0
265 1 9.8178447144341678e+00 5.8596410692335930e+00 2.8997616273411602e+00 0 0 0
266 2 8.9226210772693246e+00 5.4456937027530028e+00 3.2385555203965142e+00 0 0 0
267 2 1.0050696969923019e+01 5.3784761163639176e+00 2.0673346519070739e+00 0 0 0
268 1 1.2397511054346298e+01 7.8558881974414501e+00 9.4917281070442137e+00 0 0 0
269 2 1.2870395092976356e+01 7.4034090064542335e+00 8.7910110396514742e+00 0 0 0
270 2 1.1536019454441107e+01 7.3779792342104162e+00 9.6300583950941618e+00 0 0 0
271 1 1.2247034641908238e+01 1.3012446567082483e+01 2.9056215208842877e+00 0 0 0
272 2 1.3019142158690885e+01 1.3219661115840649e+01 3.4762833231524386e+00 0 0 0
273 2 1.1612040951857539e+01 1.2518269959626002e+01 3.4321411697316182e+00 0 0 0
274 1 1.4861855357654596e+01 1.5004343076667729e+01 9.3882664152975490e+00 0 0 0
275 2 1.4424404360593080e+01 1.5861311068379269e+01 9.1110205362357117e+00 0 0 0
276 2 1.5620376869662294e+01 1.5190790900913084e+01 9.9685339390117971e+00 0 0 0
345 2 6.0773103901069314e+00 1.2805751578141564e+01 4.0464747665832554e+00 0 0 0
278 2 1.6696862618525753e+01 5.9295079556780017e+00 2.8148281208878685e+00 0 0 0
1149 2 2.2319004543228981e+01 2.7857531071153737e+01 4.8236929060807361e+00 0 0 0
280 1 1.9706118104743510e+01 8.1926942739137392e+00 9.8619352891837231e+00 0 0 0
1082 2 8.3680464712893166e+00 1.8307972696866599e+01 3.1328747875393814e-01 0 0 0
850 1 1.1659469824412525e+01 2.3748920663832600e+01 7.5655564562887498e+00 0 0 0
283 1 1.9659681469501855e+01 1.3405334415404411e+01 2.8813724804353988e+00 0 0 0
128 2 5.0013455743061161e+00 9.9372577904438373e+00 3.6095388888609476e+00 0 0 0
92 2 1.0586916674103811e+01 7.1851371736448133e+00 5.3640689426545085e-01 0 0 0
216 2 2.1130181346565116e+01 1.0764249864223141e+01 9.0661917281056699e+00 0 0 0
2477 2 1.1191356517952441e+01 1.6118719189174165e+01 3.6033138948315990e-01 0 0 1
288 2 2.1872830455991910e+01 1.5860393880751291e+01 9.2353114945132813e+00 0 0 0
289 1 5.8861439828331577e+00 6.6628492440665541e+00 1.9094699183369750e+00 0 0 0
290 2 5.4643529957362551e+00 6.6937383890272537e+00 2.8040157000156634e+00 0 0 0
291 2 6.6012152690522292e+00 7.3016792787466231e+00 1.8990319343713780e+00 0 0 0
292 1 8.6586219155277249e+00 8.4327326545641110e+00 8.8838874419411020e+00 0 0 0
293 2 9.1925003748109120e+00 7.6531463258600745e+00 8.4903027587223363e+00 0 0 0
294 2 9.2983223174140370e+00 9.1544345823286069e+00 8.8818693008875744e+00 0 0 0
295 1 8.2869644049461755e+00 1.3645320195560430e+01 1.7575246834544740e+00 0 0 0
296 2 7.9802527523839490e+00 1.3599127798015685e+01 2.6540335589681123e+00 0 0 0
297 2 7.5154953276228706e+00 1.3998287856574017e+01 1.2841560662084373e+00 0 0 0
298 1 1.1406809628424938e+01 1.5594032413924323e+01 8.6546198832738188e+00 0 0 0
299 2 1.1834243296256631e+01 1.4727761864563169e+01 8.3764040725339335e+00 0 0 0
300 2 1.0653171776608044e+01 1.5774370703289330e+01 8.0707247050799928e+00 0 0 0
301 1 1.3670062378553551e+01 6.7890550735100197e+00 1.8341188519086171e+00 0 0 0
302 2 1.3143427195565829e+01 6.4912077293174386e+00 2.6376126115726897e+00 0 0 0
303 2 1.4396819949555903e+01 7.3147664341171010e+00 2.1389938246442739e+00 0 0 0
304 1 1.5924733259801066e+01 8.2986770713060292e+00 8.6067125378245937e+00 0 0 0
305 2 1.5666647524524601e+01 8.2247760333160400e+00 9.5625553627867781e+00 0 0 0
306 2 1.6579523436035505e+01 9.0029621022220905e+00 8.6476477690474578e+00 0 0 0
307 1 1.6167362038475897e+01 1.4001703828412538e+01 1.6991920167027355e+00 0 0 0
308 2 1.5392123468565849e+01 1.4304682002563561e+01 1.1751269473023132e+00 0 0 0
309 2 1.6720523341969329e+01 1.4770222743966896e+01 1.7737431555868559e+00 0 0 0
310 1 1.8748742585873973e+01 1.5696323089863677e+01 8.9640083977415905e+00 0 0 0
311 2 1.9219335529240180e+01 1.4906321444879952e+01 8.6228921107337104e+00 0 0 0
312 2 1.8042284097593868e+01 1.5951113381105758e+01 8.2988385518309808e+00 0 0 0
313 1 3.4349608967618743e+00 4.6191758100711668e+00 8.5437730098475162e-01 0 0 0
669 2 5.3724310355529390e+00 1.2372028078400852e+01 2.0497880292951067e+00 1 0 0
315 2 3.9654878484014864e+00 4.2691090180921289e+00 1.5966211078339769e+00 0 0 0
316 1 6.6270028423369016e+00 6.3591305725622824e+00 7.5403267331282997e+00 0 0 0
317 2 6.8927613059403487e+00 6.8942144541937704e+00 6.7515004000393173e+00 0 0 0
318 2 6.0911382223177526e+00 7.0258709734664109e+00 7.9599991059431368e+00 0 0 0
319 1 6.3700754763149199e+00 1.1591319452101420e+01 1.0767863674285816e+00 0 0 0
80 2 3.1133561296168395e+00 7.4644514309113275e+00 3.7968730732086858e-01 0 0 0
321 2 7.1473448772608812e+00 1.1406899709441468e+01 1.6161098935629969e+00 0 0 0
322 1 8.7709208285208007e+00 1.3495942440365980e+01 7.4797359620497073e+00 0 0 0
323 2 8.0156912307693418e+00 1.3906416034777267e+01 7.9074055398635057e+00 0 0 0
324 2 8.4772667999982634e+00 1.2589698284981212e+01 7.1611794597495164e+00 0 0 0
325 1 1.1103871779413149e+01 4.6081558926352741e+00 8.8618577364345241e-01 0 0 0
2378 2 1.1921490961595719e+01 1.8995936429516682e+01 1.3536816461838129e+01 0 0 0
1056 2 2.7925345258648772e+01 2.8942524202008414e+01 9.9200244968775024e+00 0 0 0
328 1 1.3938121373931700e+01 6.4954995557274078e+00 7.4581302091585107e+00 0 0 0
329 2 1.3520067410117059e+01 5.6358335221415059e+00 7.1925352020422588e+00 0 0 0
330 2 1.4604714705748084e+01 6.2480713515857511e+00 8.0998430578641489e+00 0 0 0
331 1 1.3881785647590362e+01 1.1507402316661302e+01 8.9225360812596832e-01 0 0 0
332 2 1.3193189519025649e+01 1.1961761345045138e+01 1.3736221807277609e+00 0 0 0
333 2 1.4591706901687456e+01 1.1419627229289411e+01 1.5387708278658179e+00 0 0 0
334 1 1.6454652806249037e+01 1.3530791415142804e+01 7.7405775506264645e+00 0 0 0
335 2 1.6930931232377691e+01 1.4044470951834748e+01 7.0929942822048817e+00 0 0 0
336 2 1.5900146194383405e+01 1.4186171205597388e+01 8.1743161137006712e+00 0 0 0
337 1 4.3498775834938064e+00 6.4056723064013417e+00 4.1730380312189217e+00 0 0 0
338 2 4.6866125856839052e+00 5.8036366000693844e+00 4.8879032395333937e+00 0 0 0
1135 1 1.4691190386013011e+01 2.8783052424504078e+01 5.0153885536300349e+00 0 0 0
340 1 6.6868335648919253e+00 8.0303635613596533e+00 1.1226927507741546e+01 0 0 0
1133 2 1.5204098283058165e+01 2.2580315701251877e+01 1.1706032926320878e+01 0 0 0
342 2 7.3919758583008726e+00 7.9407352302251697e+00 1.0518454430725990e+01 0 0 0
343 1 6.9059247945540889e+00 1.2761139111145102e+01 4.5341303387175618e+00 0 0 0
285 2 2.0460665244800811e+01 1.3523190647920934e+01 3.4872469890987636e+00 0 0 0
897 2 1.0550287219252290e+01 2.4644593271426459e+01 5.1423367548104748e+00 0 0 0
346 1 9.6969215395874357e+00 1.5383171061746582e+01 1.1030274721793809e+01 0 0 0
347 2 1.0303778846638156e+01 1.5569878453952526e+01 1.0261123830959471e+01 0 0 0
348 2 9.8488885439003742e+00 1.4490769718532334e+01 1.1357742251515345e+01 0 0 0
349 1 1.2161689834527088e+01 6.3247789362395608e+00 4.2076133184980868e+00 0 0 0
350 2 1.2131261800590718e+01 7.1222644669374748e+00 4.7835840581600664e+00 0 0 0
351 2 1.1225497947064587e+01 6.1923954505259298e+00 3.8769817851931427e+00 0 0 0
352 1 1.4678081215000518e+01 7.9430460575082424e+00 1.0904352146085115e+01 0 0 0
353 2 1.4970637956536599e+01 7.1758008146561982e+00 1.1423591434122278e+01 0 0 0
354 2 1.3799753939777734e+01 7.6981212027413894e+00 1.0579028264022435e+01 0 0 0
355 1 1.4691766093931276e+01 1.3403010626696886e+01 4.1679544865144411e+00 0 0 0
356 2 1.5119691219263848e+01 1.2776481662931552e+01 4.7655453405869750e+00 0 0 0
357 2 1.5163062723808341e+01 1.3430329319698428e+01 3.3369827573243578e+00 0 0 0
358 1 1.6949433510996897e+01 1.5266228993331662e+01 1.1055673986380310e+01 0 0 0
359 2 1.7065164777281765e+01 1.5944108508384831e+01 1.1708079966093651e+01 0 0 0
360 2 1.7627688018659153e+01 1.5475911574558367e+01 1.0382940156171076e+01 0 0 0
361 1 7.2639879495289712e+00 7.6967626153208748e+00 5.3223587930921248e+00 0 0 0
362 2 6.5565272764307583e+00 8.2970253499329214e+00 4.9234845349213820e+00 0 0 0
363 2 8.1442959721201866e+00 8.1169142871971722e+00 5.3422967606450973e+00 0 0 0
364 1 9.4322792790639340e+00 9.4151261624166178e+00 1.1755401511229477e+01 0 0 0
365 2 8.8550848182702442e+00 1.0151385943343289e+01 1.1456740513919069e+01 0 0 0
366 2 9.0147839214894105e+00 9.2849123141632113e+00 1.2651943868101952e+01 0 0 0