LAMMPS data file via write_data, version 15 Apr 2020, timestep = 6600000

6144 atoms
2 atom types

1.9115161762256960e-01 5.9777137513543963e+01 xlo xhi
0.0000000000000000e+00 2.8018293477355723e+01 ylo yhi
0.0000000000000000e+00 2.7078227487874763e+01 zlo zhi
1.0153445518275262e+01 1.0175838037971047e+01 7.1097421248499764e+00 xy xz yz

Masses

1 16
2 2

Atoms # atomic

322 1 1.1686335123813397e+01 2.1747102858607640e+01 1.1274893377642909e+01 0 0 0
1604 2 1.0214401902565003e+01 1.1365454795155490e+01 1.8461480636527836e+00 0 0 1
1203 2 1.8337127595750299e+01 1.9526370673922834e+01 1.5324923105679503e+01 0 1 -1
987 2 1.6888501351447641e+01 2.0184080026734868e+01 1.7635452884240451e+01 0 0 0
225 2 1.4278928662653389e+01 6.1057274716006917e+00 1.3188345645961304e+01 0 0 0
52 1 1.5176253171391874e+01 2.6357702029017194e+01 9.7252056777255209e+00 0 -1 0
25 1 1.9877632298335449e+01 2.4835890446576627e+01 2.9405020845334122e+00 0 0 -1
1625 2 1.6875739472326625e+01 1.3071642669879097e+01 1.7274566559508745e+01 0 0 0
2464 1 1.1837390951395001e+01 1.3338337681649969e+01 2.7170660391997585e+00 0 1 0
886 1 1.7754264317893512e+01 1.4445909671104447e+01 2.3305417524244941e+01 0 1 -1
248 2 5.2652410641495440e+00 5.0417085584778896e+00 6.7075224977011620e+00 0 0 0
849 2 1.6637664673506141e+01 1.1712565708840149e+01 3.7454141882604661e+00 0 0 -1
2443 1 1.2633071229471453e+01 1.4383403196680593e+01 1.6488362823591313e+01 0 1 0
1890 2 1.8973381603342691e+01 1.0801801195832123e+01 1.9764726230027950e+01 0 0 0
2466 2 1.2713447384372678e+01 1.3393966138739970e+01 3.2495186043989910e+00 0 1 0
1895 2 1.3436121111998879e+01 1.7422472664525873e+01 1.1922693796886843e+01 0 0 1
1670 2 1.3340028998775292e+01 8.3916639946472387e+00 2.5963560794196731e+01 0 0 -1
2521 1 1.6058002689236666e+01 2.9256106705187367e+01 1.4419787953603782e+01 0 0 0
1659 2 2.2849878041987839e+01 2.4399075815076344e+01 2.1725845358158885e+01 0 -1 0
1894 1 1.4243555809003102e+01 1.7968508036839708e+01 1.1890055537008712e+01 0 0 1
1908 2 5.0611840625354310e+00 6.6846163907119367e+00 2.8879827197439107e+00 0 0 1
1846 1 1.7884305861759533e+01 4.4266232589596894e+00 9.5529657043583587e+00 0 0 1
611 2 2.0665612252728483e+01 2.6526205489816473e+01 7.2279934656923439e+00 0 0 0
1709 2 8.0750440509202743e+00 4.7412684381414456e+00 5.5497693934125563e+00 0 0 0
75 2 2.7786490232871380e+01 2.4417210660849662e+01 2.5227619337270621e+01 0 -1 0
53 2 1.5730602518149430e+01 2.7109340613378432e+01 9.9347817734818751e+00 0 -1 0
819 2 7.9621633466483708e+00 5.5058256951415734e+00 1.7951264309642404e+01 0 1 -1
1586 2 1.4326441477069151e+01 1.1087240719339023e+01 2.2710860955125267e+00 0 0 0
1675 1 2.0660396797290080e+01 1.7286588211235141e+01 1.5194191525150277e+01 0 0 0
2564 2 2.0945862997180019e+01 1.2993971476537320e+01 2.6230449950670224e+01 0 1 -1
416 2 1.5026803917897796e+01 1.0123604314191111e+01 2.5305737011373630e+01 0 0 0
1871 2 1.6166673736755587e+01 2.5836059627894755e+01 1.8670345781577435e+01 0 0 0
610 1 2.0829445830839642e+01 2.7423830911435452e+01 7.5646214228680462e+00 0 0 0
1275 2 1.5982348659048334e+01 2.8585721404045064e+01 2.5132401120648962e+00 0 -1 0
102 2 6.7816693249592124e+00 6.1867355454922013e+00 8.1295946478167291e+00 0 0 0
2450 2 1.8200524922572779e+01 2.2307598356675051e+01 2.3150312383927304e+01 0 0 0
1708 1 8.4158105416514726e+00 4.1450050333409285e+00 6.2427758091773713e+00 0 0 0
27 2 1.9129322353241868e+01 2.4468196035301233e+01 3.4419715293823048e+00 0 0 -1
907 1 2.4281168479097918e+01 2.5404870816997700e+01 1.8481527779864098e+01 0 0 -1
99 2 2.1695874367039092e+01 2.0117090214597766e+01 2.5797372071207526e+01 0 0 -1
1561 1 1.2699646473092850e+01 1.9683280685357111e+01 9.6595029626369033e+00 0 0 0
1901 2 6.3634073124532788e+00 5.5606233252597210e+00 1.2813827625399277e+00 0 0 1
319 1 1.3689742371638008e+01 1.5445376294708192e+01 6.5119444010482503e+00 0 0 -1
2635 1 1.9400695817717040e+01 2.7065367015393051e+01 2.5609167559780094e+01 0 0 0
924 2 2.0109651790469112e+01 1.4399751524317370e+01 1.0616109267599198e+01 0 0 0
359 2 1.8498688468442854e+01 2.7731482825281127e+01 1.9170694418321496e+01 0 0 0
224 2 1.5656293511144339e+01 6.9034324435727372e+00 1.3564233769013351e+01 0 0 0
286 1 1.8307158244782304e+01 1.5278252681544851e+01 8.8780267417917056e+00 0 0 0
1710 2 8.9678740904363536e+00 3.5111822617225501e+00 5.7869453131714970e+00 0 0 0
1689 2 1.4315570247535952e+01 1.2918843141260156e+01 1.2583701002580463e+01 0 0 0
1705 1 2.2920193351587969e+01 2.3867902426952778e+01 2.8413653459625698e+00 0 0 -1
112 1 1.8340216731737613e+01 3.1016747901651918e+01 2.1182137654984253e+01 0 -1 0
774 2 1.1688003729092165e+01 2.0347101142711320e+01 7.9467060241320757e+00 0 0 0
1570 1 1.3685775516566341e+01 1.3103728432817082e+01 1.8632769751588214e+01 0 0 1
2314 1 1.8143237297617699e+01 1.0328271824993507e+01 1.5507001079727768e+01 0 0 1
1129 1 1.6329293029291708e+01 1.4798502993576768e+01 2.5828699522766698e+01 0 0 -1
2360 2 1.5639188188039416e+01 1.4399477963072950e+01 2.0139340826693257e+01 0 0 0
842 2 1.4964737684992969e+01 2.2055825518893318e+01 2.3932804153126973e+01 0 0 -1
1017 2 2.4657380865742216e+01 2.7963889386707670e+01 1.6953167123912081e+01 0 0 -1
829 1 1.7200490829143984e+01 2.8032337915489677e+01 1.0969055573200391e+01 0 0 0
821 2 2.1967945233189031e+01 2.4111120916634484e+01 2.6880735547842924e+01 0 0 -1
1760 2 1.1008318974887633e+01 1.3992882252563170e+01 1.7200531589160473e+01 0 0 0
896 2 2.0067609989752516e+01 3.2882789075957575e+01 1.8533104373669175e+01 0 0 -1
868 1 1.0479402739810636e+01 1.5725608448586504e+01 8.8081454912796975e+00 0 0 0
944 2 8.9030816239248072e+00 1.4586196498008405e+01 2.1220137213794130e+00 0 1 0
1571 2 1.3013108927922520e+01 1.2402046706050960e+01 1.8509647586230827e+01 0 0 1
193 1 8.5211391324861996e+00 2.1722728230771740e+01 6.9832183078797816e-01 0 -1 0
243 2 7.8190464347586683e+00 1.2027078210367481e+01 6.6390118292181937e+00 0 0 0
1538 2 1.4621533159747370e+01 1.6824909658178431e+01 2.1612725512334560e+01 0 0 0
1274 2 4.3176940305283651e+00 1.0183855774413335e+00 2.2478255111102290e+00 0 0 0
2625 2 1.5705927634156016e+01 1.6835665587184703e+01 2.3741168413430675e+01 0 0 0
1669 1 1.3724012740767984e+01 7.5109019923684679e+00 2.5809182171312290e+01 0 0 -1
2448 2 3.7939230567071265e+00 3.3499900074327562e+00 7.0471975975612304e+00 0 1 0
1671 2 1.3035320557907276e+01 6.8721253418983546e+00 2.6032719751173783e+01 0 0 -1
1791 2 6.3002483780950822e+00 7.5915925381418337e+00 5.8474289209590857e+00 0 0 1
2284 1 1.5786457025279258e+01 1.1357352842693158e+01 1.4175499666097275e+01 0 0 1
253 1 2.2234512560323807e+01 1.5792849053331853e+01 1.7479982681716027e+01 0 0 -1
233 2 1.5161709405129256e+01 1.9461491496749918e+01 2.1513387916046860e+01 0 -1 0
2665 1 1.0498034648786625e+01 1.8868514828761654e+01 1.1205150223121509e+01 0 0 0
822 2 2.0790183992901145e+01 2.3790112649988835e+01 2.5884172510509615e+01 0 0 -1
5798 2 1.6330820102455601e+01 2.4625040580812147e+01 2.0370640016991281e+01 1 0 0
2538 2 2.8171912506449420e+01 2.4062473086426916e+01 1.7453751841003250e+01 0 0 1
887 2 1.7434854064604888e+01 1.5318822885723574e+01 2.2984054376222385e+01 0 1 -1
2465 2 1.1160523763045838e+01 1.2924948416822767e+01 3.3298825212364402e+00 0 1 0
54 2 1.4632982585279645e+01 2.6750674585688810e+01 8.9750584121812977e+00 0 -1 0
1520 2 1.5708067651322253e+01 2.3972427427991305e+00 8.9010456841706169e+00 0 0 0
223 1 1.5238281676270226e+01 6.1809024307424112e+00 1.3030867655869516e+01 0 0 0
2414 2 1.2017360877675138e+01 1.9561948425837574e+01 1.3527975359490362e+01 0 0 1
353 2 8.9086080746725482e+00 9.1202433036339432e+00 8.2879986970853636e+00 0 0 0
2407 1 2.0148239992114835e+01 2.5941038327958509e+01 1.1450939668221103e+01 0 0 0
1687 1 1.3683505671686474e+01 1.3378625657198381e+01 1.3129362988784038e+01 0 0 0
986 2 1.6250166250156234e+01 2.0729748695345211e+01 1.9026748748788179e+01 0 0 0
1706 2 2.2319960561714204e+01 2.3720671406865804e+01 3.5943899659941514e+00 0 0 -1
272 2 1.2131731991240660e+01 8.5473987293354199e+00 2.2739890495468362e+01 0 0 0
1374 2 2.6523589711944762e+01 2.9444938966055460e+01 1.7092915324148748e+01 0 0 -1
1688 2 1.4200714565100780e+01 1.4094670016184615e+01 1.3516133926781364e+01 0 0 0
1002 2 9.0404570706003415e+00 1.4410259393394313e+01 6.2137539742775063e+00 0 0 0
1610 2 1.0768229051096636e+01 1.5610601544181520e+01 7.7138610609181590e-01 0 -1 0
922 1 1.9467427330775656e+01 1.4126150488605907e+01 1.1294107463798994e+01 0 0 0
2409 2 1.9515165873979122e+01 2.5755617087283653e+01 1.0739981526528281e+01 0 0 0
2427 2 1.1201706753311571e+01 1.2838583116246538e+01 2.1283594834339347e+01 0 0 0
1563 2 1.2955517706506544e+01 1.8825192973625349e+01 9.3171302342472035e+00 0 0 0
908 2 2.4068377441125556e+01 2.5087848787951536e+01 1.9379529909849747e+01 0 0 -1
1281 2 1.9987964508183563e+01 1.8245185603401733e+01 1.5930329209979226e+00 0 1 0
35 2 2.8268706684203575e+01 2.5126605872584488e+01 2.0583189562804584e+01 0 -1 -1
933 2 2.0475850107996383e+01 9.3012404379927798e+00 1.3705334039487296e+01 0 1 0
870 2 1.0871618187782687e+01 1.4857733931817009e+01 8.3931259278520223e+00 0 0 0
300 2 2.2181192483372588e+01 2.8526351616471260e+01 2.4824018490904209e+01 0 0 -1
1585 1 1.4825614561254424e+01 1.0911616949887055e+01 3.1467007378303555e+00 0 0 0
2433 2 1.7167394654601587e+01 2.9616028567671954e+01 1.9199712915969403e+01 0 0 0
1137 2 2.4181385543260497e+01 2.6571147004072976e+01 2.1507755394786354e+01 0 0 -1
2441 2 1.8729532234930701e+01 2.2471503886235929e+01 4.7277005163843420e+00 0 0 1
847 1 1.7419549211209091e+01 1.2308790832937309e+01 3.9990627800084115e+00 0 0 -1
1562 2 1.3389547611197610e+01 2.0066032039116472e+01 1.0247203256204950e+01 0 0 0
1015 1 2.5406220925038365e+01 2.8067725367025318e+01 1.6332753110808447e+01 0 0 -1
1810 1 5.3624708013936910e+00 4.8788908501736685e+00 1.1036261894670664e+01 0 1 0
1972 1 2.7178984629193845e+01 2.9115248492975780e+01 1.4163151442554719e+01 0 -1 0
1444 1 2.4583239311721805e+01 2.8050204712340602e+01 1.0750975496589156e+01 0 0 0
2322 2 1.4215528239369295e+01 1.8093902980091126e+01 1.9345244718293827e+01 0 0 0
2626 1 1.8563338696362290e+01 1.6997138950403954e+01 2.6429999030384828e+01 0 0 0
155 2 1.3685926111055849e+01 4.9215005171070638e+00 3.8808088099525406e+00 0 0 0
2440 1 1.9504763204299930e+01 2.1853602691521004e+01 4.8953268656627760e+00 0 0 1
98 2 1.1186814336032253e+01 1.2856059669049067e+01 2.5325071906975805e-01 0 0 0
2408 2 2.0883801594693526e+01 2.6510176159763695e+01 1.1074128892003225e+01 0 0 0
369 2 1.6995844812714946e+01 1.3573716876971698e+01 1.2534484236333912e+01 0 0 -1
846 2 1.5678856835265291e+01 5.8911963877292131e+00 2.1889461225794732e-01 0 0 0
1130 2 1.6641316945918870e+01 1.4838260958898747e+01 2.4911554359264017e+01 0 0 -1
2355 2 2.5563922016048483e+01 2.4316504749840227e+01 2.6886173584802602e+01 0 0 0
228 2 1.5242251006652150e+01 2.9323907840802789e+01 5.4867729235291876e+00 0 0 0
888 2 1.7994600307556784e+01 1.3905003961034687e+01 2.2473146543264814e+01 0 1 -1
1135 1 2.3564530552946760e+01 2.7100287180543170e+01 2.0919312145539550e+01 0 0 -1
299 2 2.1002639107898116e+01 2.7817168719524702e+01 2.5650546039571719e+01 0 0 -1
626 2 1.3393753974407053e+01 1.0192241044239562e+01 3.8504950158769207e+00 0 0 0
1898 2 1.6518240749259714e+01 2.7805334716716949e+01 2.0375541185206423e+01 0 0 0
105 2 1.0733816429227563e+01 1.2987737610531594e+01 1.0229335753754700e+01 0 0 0
1537 1 1.4029443713045076e+01 1.7262778765968239e+01 2.0971690318454179e+01 0 0 0
344 2 5.1684894445718683e+00 1.0794878004913272e+01 7.4443026352775399e-01 0 0 0
1896 2 1.3868210224262633e+01 1.8803331544429209e+01 1.2202406309534405e+01 0 0 1
1546 1 1.9347905496547938e+01 1.8239997451677073e+01 2.2788976148974111e+01 0 1 0
2684 2 2.2609408563601018e+01 2.9932661398055519e+01 1.5761058990482674e+01 0 0 0
588 2 1.0977580872280278e+01 9.3323541880784866e+00 8.8244001295077581e+00 0 0 0
909 2 2.5047325570568983e+01 2.5974769080539360e+01 1.8650667750885560e+01 0 0 -1
2668 1 2.1613852905036733e+01 2.9061766152639350e+01 1.1299422474715525e+01 0 0 0
2354 2 2.5812211688727540e+01 2.3127417477249448e+01 2.5961550496710796e+01 0 0 0
2382 2 1.3313373967143715e+01 2.1307692299453453e+01 1.4073734812168851e+01 0 0 0
435 2 1.1443769071468271e+01 1.6175296990050679e+01 1.3072720854723526e+01 0 0 -1
1273 1 5.2717034079672809e+00 1.3351342973942630e+00 2.2668436875158147e+00 0 0 0
467 2 1.5838366323492766e+01 1.0250960551306687e+01 5.7573127484492987e+00 0 0 0
775 1 1.2350985547309705e+01 2.5451553970839097e+01 5.7788941458096925e+00 0 0 0
898 1 1.7133124343124511e+01 2.2794544183754414e+01 1.7637482774325221e+01 0 0 0
296 2 3.1531835675678831e+01 3.1688540120658907e+01 2.6711959128333628e+01 0 -1 -1
2541 2 7.4510348158107771e+00 5.2543024387772674e-01 3.0234205725132368e-01 0 1 0
352 1 8.1019356929458652e+00 8.6462002315029167e+00 8.1161641944183476e+00 0 0 0
817 1 7.7464826656932564e+00 6.3135364144214465e+00 1.7531273545870750e+01 0 1 -1
885 2 9.3443925190690766e+00 4.0025004693206014e+00 1.0771865386157874e+01 0 1 -1
488 2 1.7729491776694534e+01 2.5945677487945492e+01 2.2953027031388824e+01 0 0 -1
2316 2 1.8850102274253278e+01 1.1019844427158976e+01 1.5382098249841755e+01 0 0 1
1029 2 1.7658295058138592e+01 1.4036233733921941e+01 2.6314413388735129e+01 0 1 -1
1128 2 1.8800531770566877e+01 1.2631784330793806e+01 2.9569445278273658e+00 0 0 0
755 2 1.4536230463296210e+01 2.4633725848664866e+01 1.4998126918556517e+01 0 0 0
1603 1 9.8764387030943226e+00 1.1842315869493069e+01 1.0544186735616730e+00 0 0 1
2351 2 2.1788077275844422e+01 7.3937939573873885e+00 1.9002914956955379e+01 0 1 0
1605 2 9.1790430382237407e+00 1.2447078594406891e+01 1.4404239903868632e+00 0 0 1
2532 2 1.4718912311809977e+01 2.1678523462882865e+01 1.5846203520601321e+01 0 0 0
1739 2 1.8680904938061044e+01 9.7597761350931123e+00 3.4856551582210860e+00 0 0 1
213 2 2.0553424815437499e+01 2.6364843147462288e+01 1.9231274491316576e+01 0 -1 0
1877 2 2.7110473215461436e+01 3.0873472778922977e+01 2.2518742713181283e+01 0 -1 0
2313 2 1.4884219439339208e+01 1.3602717111121022e+01 3.6132615537809385e+00 0 1 0
2323 1 1.0190650916170462e+01 1.7701844723851199e+01 3.1292995013987159e+00 0 1 1
3033 2 2.6930141551034698e+01 2.7000755886114408e+01 1.7784763264560805e+01 0 0 0
1016 2 2.4937981062752119e+01 2.8428746128069175e+01 1.5561976128373301e+01 0 0 -1
2283 2 2.2592167592865394e+01 2.2586057506904268e+01 2.5172691207218236e+01 0 -1 -1
995 2 7.6892798078244100e+00 9.8040763981909578e+00 2.6365735067927587e+00 0 1 0
97 1 2.1817303873971465e+01 2.0504974050267087e+01 2.6649227932817364e+01 0 0 -1
2361 2 1.6789315088654075e+01 1.4249475385738913e+01 1.9101889601764039e+01 0 0 0
725 2 5.0587148388311238e+00 2.9877820352381255e+00 2.7375508295336108e+00 0 0 1
1969 1 1.2785034361064969e+01 1.7307036502079832e+01 8.5773850921802008e+00 0 0 0
1078 1 2.1048273355104232e+01 3.0709064104559094e+01 1.3014884879337584e+01 0 0 0
2049 2 2.4422445347279034e+01 2.2884345516272191e+01 2.3935148151149658e+01 0 0 0
1547 2 1.9629685316741021e+01 1.7598991674843070e+01 2.2075049352494805e+01 0 1 0
2353 1 2.5077368084313989e+01 2.3656942556375753e+01 2.6344381046731257e+01 0 0 0
917 2 1.9111164453730503e+01 1.1092845312329100e+01 2.4975587267789344e+01 0 1 -1
417 2 1.3745840248688070e+01 1.0178648587860467e+01 2.4220936624951609e+01 0 0 0
985 1 1.6614867600200501e+01 1.9935780213777033e+01 1.8554224070087979e+01 0 0 0
981 2 2.9346919580811704e+01 3.3315394761152760e+01 2.5095673833262026e+01 0 0 -1
1620 2 8.5185938813979210e+00 1.7437164634162720e+01 3.9155081311091728e+00 0 0 1
298 1 2.1597366203601677e+01 2.8574232896022867e+01 2.5664847194862553e+01 0 0 -1
1707 2 2.2452827524396312e+01 2.4584122982263082e+01 2.3785459338661283e+00 0 0 -1
900 2 1.7917096194318972e+01 2.2759035973127979e+01 1.7044204710560017e+01 0 0 0
612 2 2.1496176982037568e+01 2.7261751499701351e+01 8.2874246421461937e+00 0 0 0
2396 2 1.6406235896551294e+01 3.0278255948489758e+01 1.2696717933638704e+01 0 0 0
2624 2 1.4419500123082109e+01 1.5919445240486622e+01 2.3842151224026839e+01 0 0 0
883 1 8.8306931125861805e+00 3.8216590464604656e+00 1.1677592011985753e+01 0 1 -1
2442 2 1.9232523508702563e+01 2.0959094383235744e+01 4.6721402842734854e+00 0 0 1
1787 2 1.4658839556893195e+01 2.9192595119241364e+01 1.0448389469678593e+01 0 -1 1
34 1 2.8700976255526903e+01 2.5732679022799399e+01 1.9952401739408462e+01 0 -1 -1
2315 2 1.8541244409747488e+01 9.5229405586121274e+00 1.5193932812701826e+01 0 0 1
1058 2 1.2293896933177789e+01 2.8180501744894212e+01 1.4027378407605482e+00 0 0 0
377 2 2.4966806644673635e+01 3.1456647139366098e+01 1.4730261184547851e+01 0 -1 0
923 2 1.8911236537057235e+01 1.3534874294033187e+01 1.0733841137432131e+01 0 0 0
2572 1 1.9002562591200096e+01 2.2051772892942910e+01 1.9642349536865193e+01 0 0 0
354 2 8.2861493994742688e+00 7.7046643684185163e+00 8.2494112190688291e+00 0 0 0
2978 2 2.5759778264716616e+01 1.6828668373178047e+01 1.7524852480406238e+01 0 0 0
1589 2 1.2430366077317586e+01 2.2844541647794845e+01 7.8693515327103674e+00 0 -1 1
1616 2 1.9061549366749311e+01 2.6605771682281109e+01 1.2816362067907695e+01 0 -1 0
1050 2 2.4001166821499641e+01 2.4835762489957403e+01 2.5169239496817401e+01 0 0 -1
1081 1 1.9941445685003597e+01 1.5473134650985536e+01 2.4399320000873697e+01 0 0 -1
219 2 1.3835146552606108e+01 2.6193348990787300e+01 1.0768162506816591e+01 0 -1 0
2445 2 1.3384291843185274e+01 1.4793514068356913e+01 1.6961404591667737e+01 0 1 0
1588 1 1.3148851332087292e+01 2.2407675816578656e+01 8.4059768388820633e+00 0 -1 1
1106 2 9.0195700800602747e+00 1.8281735543476920e+01 1.8303599829876771e+00 0 0 0
631 1 1.0883470960969316e+01 1.5355033747397037e+01 1.4517935764584861e+01 0 0 0
313 1 1.6300763956790131e+01 2.2050414368255659e+01 6.1530815950106943e+00 0 0 -1
706 1 1.6691433044474781e+01 9.4983983543148689e+00 1.1927247342707290e+01 0 0 0
2426 2 1.1221720665861397e+01 1.4035995576459097e+01 2.0347850413421661e+01 0 0 0
2613 2 2.1531087405282666e+01 2.1830728805753569e+01 1.5007959281083902e+01 0 0 1
1513 1 9.7159597609824164e+00 1.8472655823166988e+01 5.9227415072530878e+00 0 0 0
1762 1 1.2157981288920199e+01 1.4130285404958228e+01 1.1000370302538702e+01 0 0 0
2556 2 1.9214533213746126e+01 2.3960778360244781e+01 2.4301551704948924e+01 0 0 0
31 1 1.3570976928047846e+01 2.7338082284168213e+01 7.8961181259101894e+00 0 0 0
1870 1 1.6792270847624373e+01 2.5229908989576863e+01 1.8928196249646071e+01 0 0 0
2417 2 1.2810709342573325e+01 6.6807573066589168e+00 8.0961247510681282e+00 0 1 0
1655 2 1.0359125307897184e+01 2.4810000805897445e+01 5.3938371415381414e-01 0 0 2
1559 2 3.0876785326780787e+01 2.5487889653359119e+01 2.4050689119306298e+01 0 0 0
2048 2 2.5815377706250256e+01 2.3629779331975811e+01 2.3719682024806104e+01 0 0 0
1109 2 1.3806243130231193e+01 1.8110151202470210e+01 1.5240053073627115e+01 0 0 0
372 2 2.0923281391779479e+01 1.1138308071381246e+01 1.5724482989545729e+01 0 0 0
333 2 1.8636349568955605e+01 3.0523616542648185e+01 1.5182229682766646e+01 0 0 0
2555 2 1.9449856039684736e+01 2.5475224253526367e+01 2.4920733844139146e+01 0 0 0
374 2 2.0050533918799090e+01 1.2905431026495853e+01 8.3030441007508013e+00 0 0 0
1801 1 2.2213662391330168e+01 1.5203444028212818e+01 1.4765492366959673e+01 0 -1 0
1301 2 1.9263398985320979e+01 1.6549481942379259e+01 4.2124874256414202e+00 0 0 0
2601 2 1.5252864716399756e+01 2.1495400041597712e+01 8.2395567173751783e-01 0 0 0
2600 2 1.6833136779644068e+01 2.1458914782777107e+01 1.3334674614996762e+00 0 0 0
2667 2 1.1278270244107061e+01 1.9110967773464601e+01 1.0610369255814581e+01 0 0 0
2444 2 1.2889030311970560e+01 1.3466390411164804e+01 1.6286362216683255e+01 0 1 0
1447 1 1.1369533362966951e+01 1.6276367159150748e+01 5.1485746036041506e+00 0 1 0
1073 2 2.6859377918703778e+01 1.9267674203677785e+01 2.0154188311846127e+01 0 0 0
1591 1 8.4059922904976574e+00 1.1636464500072952e+01 1.4145639898669371e+01 0 0 0
1859 2 1.3207951973935320e+01 1.4518240133324088e+01 2.5162027369941637e+01 0 0 0
1088 2 2.7065238794163246e+01 3.3047205241120373e+01 2.3746736886637919e+01 0 0 -1
2320 1 1.4466517298418360e+01 1.8393712343337626e+01 1.8430076703020557e+01 0 0 0
336 2 1.5760955969201838e+01 2.2719000851105420e+01 2.0431093910796353e+01 0 0 0
729 2 2.5702750016995996e+01 2.4214859868639596e+01 8.3154193809112211e+00 0 0 0
198 2 1.8815722989782852e+01 2.9416177677520515e+01 1.7562175720604834e+01 0 -1 0
1089 2 2.7297619267945471e+01 3.2293572793133222e+01 2.4952403263555219e+01 0 0 -1
2468 2 1.1095063327040899e+01 1.0868689755935437e+01 6.7992645058252199e+00 0 0 1
1645 1 1.9320772396914037e+01 7.9204613638074246e+00 9.5806892862912072e+00 0 0 0
2679 2 2.6346569413440374e+01 1.9441196990981901e+01 2.2738227276237833e+01 0 1 0
830 2 1.7320300158174422e+01 2.7658959775733535e+01 1.1873753691091393e+01 0 0 0
1619 2 7.9306169412783678e+00 1.6241351386517866e+01 4.6414917827456721e+00 0 0 1
2393 2 1.5327485727613244e+01 1.2180446444533631e+01 6.8010580975246890e+00 0 1 0
1032 2 2.6667624846908726e+01 1.8043971932733992e+01 2.4979547485016827e+01 0 0 -1
2397 2 1.6706761705123466e+01 2.9604625561556624e+01 1.1350397196053175e+01 0 0 0
1553 2 2.1956493414648190e+01 1.8638158861583602e+01 1.4902542748054795e+01 0 -1 1
1574 2 2.0543864416962226e+01 1.2101417729048494e+01 1.8659410468462848e+01 0 0 0
3026 2 1.9072095691935456e+01 1.4152743769427856e+01 2.0391836746818480e+01 0 1 0
2522 2 1.6670881886197492e+01 2.8906873055284439e+01 1.5062931970069375e+01 0 0 0
1737 2 1.9679166471145496e+01 7.5113490410817523e+00 1.5126254642642486e+01 0 0 0
723 2 1.9690128812130869e+01 1.0493262793067021e+01 1.2459325212905407e+01 0 0 0
796 1 4.1005672938715225e+00 6.3800040930605695e+00 4.3055432583739703e+00 0 1 0
895 1 1.9233121124203088e+01 3.2367234669818451e+01 1.8696749581052003e+01 0 0 -1
1732 1 1.2247614244839351e+01 9.8214234533395217e+00 2.6532739152462849e+01 0 1 -1
2554 1 1.9874310210472707e+01 2.4594329898185130e+01 2.4719716989204894e+01 0 0 0
2629 1 7.5552328490115617e+00 5.8318399898526962e+00 9.6175078338480304e+00 0 0 0
2347 1 2.9474632092561340e+01 3.0570313074199362e+01 1.6112609004816434e+01 0 0 0
2987 2 2.1057471039001985e+01 1.2640707640467326e+01 2.1586886049170730e+01 0 1 0
48 2 1.4089995808456663e+01 2.3310156264167826e+01 1.3074495359966374e+01 0 0 0
2375 2 7.2452110031628916e+00 2.3764484627981837e+00 5.4298662426557964e+00 0 1 1
994 1 7.3830264785267428e+00 1.0694240732938976e+01 2.8942200562376477e+00 0 1 0
32 2 1.2902071322478555e+01 2.7975349008392115e+01 8.1707324928169012e+00 0 0 0
897 2 1.9392467748738586e+01 3.1545097309699770e+01 1.8195867169896356e+01 0 0 -1
318 2 1.3495895710915782e+01 6.9244691045791820e+00 2.4293589854472394e+01 0 0 -1
554 2 2.2053978944563788e+01 1.7827794690803675e+01 1.2229487911144593e+01 0 0 -1
2456 2 1.2514678493476488e+01 1.7845635754022410e+01 1.6085219686570498e+00 0 0 1
1672 1 2.0430835574192454e+01 2.7290636623328968e+01 1.6418884033600150e+01 0 -1 0
1617 2 1.8103936560270309e+01 2.6226255561222530e+01 1.4042249473487871e+01 0 -1 0
457 1 2.1274218947054752e+01 1.5516753536249855e+01 6.4436350511218530e+00 0 0 -1
722 2 1.8773833971031003e+01 1.1703522952315414e+01 1.2543457563840972e+01 0 0 0
1909 1 1.6590892879611989e+01 1.1503732390345469e+01 2.2908780802070392e+01 0 0 0
1682 2 1.7799164920171346e+01 2.6812473184828288e+01 8.4953761157517054e+00 0 -1 0
368 2 1.7021343123006304e+01 1.2401829192352515e+01 1.3560994347723899e+01 0 0 -1
197 2 2.0027306795301573e+01 2.9410029425949816e+01 1.8570717348214767e+01 0 -1 0
759 2 1.5531769958704118e+01 2.5647097158665549e+01 5.4822171848456218e+00 0 -1 0
2576 2 1.6091755633940934e+01 2.8857689397264480e+01 8.3549053951432928e+00 0 0 0
2052 2 1.6867124503834322e+01 4.1510253430899278e+00 1.5657789659988710e+01 0 0 1
2513 2 2.0339729920439968e+01 1.8480480492592470e+01 2.3946281891841060e+01 0 0 0
1515 2 9.9618096683006669e+00 1.9032830801292810e+01 6.6877767754921953e+00 0 0 0
1681 1 1.7489462392638913e+01 2.7326743070653976e+01 7.6973393583969676e+00 0 -1 0
2467 1 1.1325365338567526e+01 1.1452553863534488e+01 6.0103624520612851e+00 0 0 1
1701 2 1.4522294525841151e+01 1.7596428124900875e+01 2.5669825275498678e+01 0 0 0
1621 1 9.9520288591683865e+00 7.1985073538306494e+00 1.6321233142085351e+01 0 0 -1
1622 2 9.5789593832890993e+00 7.5818660884632738e+00 1.5480469833949037e+01 0 0 -1
114 2 1.9041825201642165e+01 3.0813245128151252e+01 2.1810142491002548e+01 0 -1 0
1691 2 1.6863554570090809e+01 1.8459811176332224e+01 1.3117997540389237e+00 0 -1 1
316 1 1.3527724147087204e+01 6.5816246517053489e+00 2.3360271214843774e+01 0 0 -1
2612 2 2.1327245440699510e+01 2.2679142372336567e+01 1.3680746714757269e+01 0 0 1
2491 1 2.3980684233262046e+01 2.7340897416307371e+01 2.6821480056548967e+01 0 0 0
556 1 1.8744818225223089e+01 1.8513359838616179e+01 1.9777483751313298e+01 0 0 0
1879 1 1.0774547816783041e+01 1.0128462939924370e+01 2.0956889986063729e+01 0 0 0
1876 1 2.7427596198745366e+01 3.0256221759790510e+01 2.3231125212689410e+01 0 -1 0
2563 1 2.1343760230510377e+01 1.3440246322226240e+01 2.5455435233151459e+01 0 1 -1
2630 2 6.7641459687597418e+00 5.8052215687956927e+00 1.0204613564745241e+01 0 0 0
216 2 2.0605767171094548e+01 2.4739325314683658e+01 5.6939166702468738e+00 0 0 0
2363 2 1.4554163453625943e+01 2.4057465678542108e+01 1.7225831014774045e+01 0 0 0
373 1 1.9734856196343287e+01 1.3356221321001165e+01 7.4998583703691919e+00 0 0 0
1049 2 2.4624935296173359e+01 2.5554103237069331e+01 2.3880849178781379e+01 0 0 -1
2512 1 2.1093296028719877e+01 1.8850332868630748e+01 2.4527668878052445e+01 0 0 0
214 1 1.9961617963132834e+01 2.5385625814760715e+01 6.1191460085705724e+00 0 0 0
1900 1 7.0485184369111664e+00 4.9064191836056112e+00 9.4047082535900473e-01 0 0 1
375 2 2.0373950585901209e+01 1.3987055635407447e+01 7.1261037482355727e+00 0 0 0
1668 2 8.1989240191288140e+00 7.6157117594288364e+00 1.6914886525603099e+00 0 0 1
2439 2 9.3659644813408125e+00 1.3249377027611748e+01 4.5293175398469190e+00 0 1 0
2239 1 1.8381085660220165e+01 2.0186866846511460e+01 8.2577600557440523e+00 0 1 0
1782 2 2.0420203397629290e+01 1.0861496515084962e+01 9.1002058466422380e+00 0 0 0
2539 1 8.1530265021315707e+00 1.0253573790936130e+00 7.7271881871816639e-01 0 1 0
2595 2 6.4940341889428632e+00 6.9798367684608280e+00 1.2102361583466360e+01 0 1 0
314 2 1.5772932372192900e+01 2.1467755641476518e+01 6.7661167657627068e+00 0 0 -1
941 2 1.1350783857123760e+01 1.6293673544984649e+01 1.7875108008333111e+01 0 0 0
1548 2 1.9025940848764122e+01 1.9062266127377196e+01 2.2414440815523172e+01 0 1 0
2329 1 1.0918334274776598e+01 2.3627343636728384e+01 7.3480262989910266e+00 0 0 0
1637 2 1.4146785725343250e+01 7.4806097104638480e+00 1.9275341446844987e+01 0 0 0
271 1 1.2230859032130384e+01 9.3347580963282439e+00 2.3286722950946704e+01 0 0 0
2469 2 1.1815235785017315e+01 1.0889326510431877e+01 5.3978306417982793e+00 0 0 1
2432 2 1.7876863323706985e+01 2.9495144469869409e+01 2.0466179457364227e+01 0 0 0
385 1 1.2843776920626548e+01 7.0589482650513133e+00 2.1304815175185423e+00 0 0 0
2337 2 9.1337623746521839e+00 5.8565109707527476e+00 2.1282497380147966e+01 0 1 0
106 1 1.7027510911536631e+01 2.2232715405501153e+01 1.4594871871704450e+01 0 0 0
823 1 1.1203052705864287e+01 5.7905268011205120e+00 1.8507039666386650e+01 0 1 -1
625 1 1.2778020274060658e+01 9.8011466723749301e+00 4.5134135716575443e+00 0 0 0
1878 2 2.6616301287602777e+01 3.0031345969771102e+01 2.3848617217497992e+01 0 -1 0
2437 1 9.6689894147697082e+00 1.2375162577274228e+01 4.2201624939374440e+00 0 1 0
1615 1 1.8268903355750044e+01 2.6900704024562156e+01 1.3336570853915809e+01 0 -1 0
920 2 2.3336042065837759e+01 1.9284148050452671e+01 1.8713439224659098e+01 0 0 -1
132 2 1.5490207539895877e+01 2.0965047259645182e+00 2.1700439350306699e+00 0 0 0
871 1 1.4648102799632689e+01 1.5898794138577289e+01 1.7472899248295469e+01 0 0 0
820 1 2.1575419346779274e+01 2.3407048863630305e+01 2.6340435752717749e+01 0 0 -1
2670 2 2.1539968057236518e+01 2.9843421196989695e+01 1.1972014791968853e+01 0 0 0
477 2 2.1580546692043178e+01 1.7200124164002496e+01 3.1525568388861651e+00 0 0 0
794 2 1.4117486518629104e+01 9.1383886365749483e+00 7.8182283775366876e+00 0 0 0
2492 2 2.4155944662137276e+01 2.6830266392417801e+01 2.6005665248068286e+01 0 0 0
1085 2 1.0665376719484275e+01 7.6278934222339174e+00 7.0661287922832425e+00 0 0 0
848 2 1.7085344827643070e+01 1.3116963655159561e+01 4.4603992794436005e+00 0 0 -1
273 2 1.1497647761287480e+01 9.2430313779931943e+00 2.3904185841837549e+01 0 0 0
1084 1 1.1156817494733531e+01 8.2827328640020941e+00 6.4752869310373784e+00 0 0 0
1910 2 1.7356692171610529e+01 1.1814621145176096e+01 2.3475744847240822e+01 0 0 0
1087 1 2.6633929011965819e+01 3.2958425008786904e+01 2.4623394839766291e+01 0 0 -1
1098 2 2.1449272194352279e+01 1.5880753269655258e+01 9.4198579870457984e+00 0 0 0
196 1 1.9614871318875860e+01 2.9905280240531351e+01 1.7761070405464938e+01 0 -1 0
1304 2 2.2054901760377408e+01 1.7484726675145328e+01 1.8285647171840210e+01 0 0 0
201 2 2.3604345374090851e+01 2.3366563839030441e+01 8.9371078470940812e+00 0 0 -1
1740 2 1.7527814817550624e+01 1.0310846635392744e+01 2.4501762583296771e+00 0 0 1
199 1 2.2901954177029644e+01 2.4051358602560402e+01 8.7733954464310067e+00 0 0 -1
1809 2 1.4698930051037566e+01 1.8037759021385607e+01 5.5311534912081095e+00 0 0 0
880 1 1.8323229110576801e+01 2.0622565136566390e+01 2.2081135950092790e+01 0 0 0
315 2 1.5699760289999407e+01 2.2741355192977256e+01 5.8628235993026303e+00 0 0 -1
2362 1 1.4163116514736160e+01 2.3754863537010909e+01 1.8043897969088860e+01 0 0 0
386 2 1.2190948535503848e+01 7.5307518748958717e+00 1.5291568538063911e+00 0 0 0
2376 2 6.0417302028036950e+00 3.1924054902350170e+00 5.3220774472416181e+00 0 1 1
2618 2 1.0306545097235947e+01 2.0390917714032025e+01 2.8126863483364666e+00 0 0 0
1545 2 1.3103905025560383e+01 1.2348592575163385e+01 1.4468364275804978e+01 0 0 0