LAMMPS data file via write_data, version 15 Apr 2020, timestep = 0

6144 atoms
2 atom types

-1.1484558516508869e+00 6.1116744982832010e+01 xlo xhi
0.0000000000000000e+00 2.8018293477355723e+01 ylo yhi
0.0000000000000000e+00 2.7078227487874763e+01 zlo zhi
1.0153445518275262e+01 1.0175838037971047e+01 7.1097421248499764e+00 xy xz yz

Masses

1 16
2 2

Atoms # atomic

1595 2 1.9406517370501035e+01 2.5256381122117276e+01 1.8193423103802388e+01 0 0 0
1604 2 1.7055731940950690e+01 1.9060077921693754e+01 2.6564689324017202e+01 0 0 0
1203 2 2.3543821593876608e+01 1.9187894586623681e+01 1.8221290261130438e+01 0 1 -1
987 2 1.6573513998450192e+01 1.3095264099453210e+01 1.9893714706371952e+01 0 0 0
225 2 7.4831983675636415e+00 3.3772921514018606e+00 7.6707292871388804e+00 0 0 0
52 1 1.4280197279181481e+01 2.6548594068465032e+01 9.8136372005917956e+00 0 -1 0
25 1 1.0559085792307259e+01 1.4126884246626890e+01 9.7336995711245553e+00 0 0 -1
1625 2 1.6398604933604283e+01 1.7778837374214408e+01 1.6175884510100371e+01 0 0 0
2464 1 1.3826219623337666e+01 1.6165548577518503e+01 8.4439807622647667e+00 0 1 0
886 1 1.5908380470190931e+01 1.9487245295637706e+01 1.8857961185281304e+01 0 1 -1
1633 1 1.9244895621408745e+01 1.4454645114052408e+01 2.1318472627395384e+01 0 0 0
849 2 1.5835420359872138e+01 1.3600177448798314e+01 8.8739195469522212e+00 0 0 -1
2443 1 1.3644648483061314e+01 9.6676816487685429e+00 1.0512216865570920e+01 0 1 0
358 1 1.6526806176302994e+01 2.5563112452933112e+01 2.2881034635696878e+01 0 0 0
2466 2 1.4680421537503399e+01 1.6037679818177693e+01 8.8940292739268934e+00 0 1 0
1895 2 1.1042089830437343e+01 1.6906239693664347e+01 6.8020275075203021e+00 0 0 1
1670 2 1.4786637025991272e+01 8.8647727566385086e+00 2.6449674391633973e+01 0 0 -1
1634 2 1.8581045558480682e+01 1.3897748722947913e+01 2.0906140365029028e+01 0 0 0
1064 2 2.4113665401508030e+01 3.2035642245305084e+01 2.1634840649464341e+01 0 0 -1
1894 1 1.1229534284206814e+01 1.5950830920462694e+01 6.9200731423231812e+00 0 0 1
1740 2 1.6421232866923820e+01 2.2581989983773440e+01 2.4941069188823757e+01 0 0 0
1916 2 1.6297594514751893e+01 2.2633724293098979e+01 1.4837005060069986e+01 0 0 0
611 2 8.1580287754561720e+00 4.4635405330900291e+00 1.4282904281249746e+01 0 1 0
1709 2 2.2789771549765099e+01 3.1931829095149862e+01 1.5284147155146185e+01 0 -1 0
487 1 1.9473554199812838e+01 2.3602895464755584e+01 2.3848807010024412e+01 0 0 -1
53 2 1.3757597421632122e+01 2.5689262225111975e+01 9.5684568954806402e+00 0 -1 0
1587 2 1.2660911108306388e+01 1.2764400514813127e+01 8.6125382049486738e+00 0 0 0
1586 2 1.3444641822241245e+01 1.4111032237990999e+01 8.8722280179917945e+00 0 0 0
1675 1 1.1343223413110870e+01 1.8391279621632645e+01 1.5975345849629258e+01 0 0 0
2564 2 1.0983725128956619e+01 1.0281897789283303e+01 2.2628850011144639e+00 0 1 0
416 2 1.5483835243119998e+01 1.5815673308912084e+01 1.6406560174412455e+01 0 0 0
1871 2 1.5378203001951224e+01 2.4642414011640536e+01 1.9845224140930121e+01 0 0 0
610 1 1.7640135435068000e+01 3.1827945466847979e+01 1.4568635808699208e+01 0 0 0
1275 2 5.0151118124919423e+00 4.9597393164611843e+00 1.7619766146786178e+00 0 0 0
2585 2 4.7210310910632227e+00 9.1869752579529322e+00 7.3895675929068370e+00 0 1 1
2450 2 1.5643076075504105e+01 2.4293322885868943e+01 2.3354272111436558e+01 0 0 0
1708 1 1.2298701479191278e+01 4.7369966016814988e+00 1.4835809311358796e+01 0 0 0
27 2 1.1503265101459279e+01 1.3916993047227782e+01 9.6086036079279413e+00 0 0 -1
907 1 1.9646972858848741e+01 2.9341126177877321e+01 2.1615004173298072e+01 0 0 -1
99 2 1.2733468478595947e+01 7.1550513438879797e+00 5.3326655253315023e+00 0 0 0
1561 1 1.2911985114533490e+01 1.6208334343375689e+01 1.3547694754244379e+01 0 0 0
1901 2 1.2172833922330561e+01 1.0772916700101705e+01 2.3550668848887636e+01 0 0 0
174 2 2.7702577031566520e+01 3.1693327778579373e+01 1.8404210219953693e+01 0 -1 -1
2635 1 1.6952550637157341e+01 2.7106421634155069e+01 2.5202817021202989e+01 0 0 0
924 2 2.2455403194440105e+01 2.0475625628814790e+01 1.1152755992124767e+01 0 0 0
1062 2 9.0257783084548713e+00 7.8571728110971355e+00 2.5070364318600149e+01 0 1 -1
224 2 7.1241283818150389e+00 3.9056450190287508e+00 6.2457720449229184e+00 0 0 0
1781 2 1.2662420235355668e+01 1.1928264126634588e+01 1.5462624560461666e+01 0 0 0
1710 2 1.2272050372236873e+01 4.4504356200874042e+00 1.3876072178051448e+01 0 0 0
1689 2 1.1542972649841680e+01 7.4539040618906185e+00 1.2898171550816373e+01 0 0 0
1705 1 1.6008137710922750e+01 1.7256701490946330e+01 1.2693011906245276e+01 0 0 -1
1773 2 2.2701714829171983e+01 3.0158560945277422e+01 2.6364000116903064e+01 0 0 -1
101 2 6.3899777844949064e+00 7.7235387740442425e+00 8.5010706855781262e+00 0 0 0
1570 1 1.2957935050359209e+01 1.2812398436159729e+01 1.8259232978933579e+01 0 0 1
2314 1 1.5484038906885441e+01 2.1026995932731918e+01 1.0467610922970243e+01 0 0 1
1129 1 1.3792411866818441e+01 1.5503977124010923e+01 2.2515398387613839e+01 0 0 -1
2360 2 1.0207731630134603e+01 1.5021356836933506e+01 1.4920432241270843e+01 0 0 0
1635 2 1.8937752868875251e+01 1.5320058747260305e+01 2.1583771478586058e+01 0 0 0
1017 2 1.9057118481565048e+01 3.0646031932554219e+01 1.0718676057825745e+01 0 0 -1
15 2 2.7543862262069263e+00 5.1793403068811177e+00 7.8650734225818197e-01 0 0 0
821 2 1.8647628061010671e+01 2.4380620655945023e+01 2.5335272976116130e+01 0 0 -1
1059 2 2.1296283127699347e+01 3.3294772738047591e+01 2.6448461267560990e+01 0 0 -1
896 2 2.2352364543974272e+01 3.0294846926751561e+01 2.3300242479583186e+01 0 0 -1
868 1 8.5562093902626017e+00 1.6446637699737870e+01 8.4974504570955638e+00 0 0 0
944 2 6.6929971307036116e+00 1.4784480406367798e+01 1.6525918474242625e+00 0 1 0
1571 2 1.3888369944648174e+01 1.2754674596044939e+01 1.8094951096214054e+01 0 0 1
1659 2 1.6868920204007825e+01 2.8173520813154600e+01 1.7406159325972663e+01 0 -1 0
894 2 1.5782024153976728e+01 1.9210447857949461e+01 1.0376753678337087e+01 0 0 0
2673 2 4.6855989739170596e+00 5.1985358026906017e+00 1.3287470491926042e+01 0 1 0
1274 2 3.8793309697179730e+00 4.3787679699214470e+00 2.4440883319853239e+00 0 0 0
2382 2 1.1228476083127028e+01 2.2425176493298199e+01 1.3619525325866057e+01 0 0 0
1669 1 4.9016050836426759e+00 1.8513932404974827e+00 3.1696527469826602e-01 0 0 0
1063 1 2.3490581943633515e+01 3.2702350407403145e+01 2.2003999068804642e+01 0 0 -1
1671 2 4.9854726752753091e+00 2.7995100657476670e+00 3.6878252033732783e-01 0 0 0
1791 2 5.5052939947768902e+00 7.4336746492399657e+00 5.5303238925584912e+00 0 0 1
1001 2 7.0542741226863903e+00 1.3993794660018047e+01 6.3715576281724520e+00 0 0 0
846 2 1.7708032607534797e+01 1.7554557948344513e+01 2.4686133197586539e+01 0 0 -1
227 2 1.3304879595409496e+00 1.3095944439652962e+00 4.6268014069265950e+00 0 1 0
1739 2 1.7621249227987384e+01 2.2212542861565236e+01 2.6091683492336042e+01 0 0 0
822 2 1.7843820667064783e+01 2.5587717816281401e+01 2.5885134423642945e+01 0 0 -1
876 2 1.6951748697961033e+00 3.7384180029755716e+00 4.3309728551220141e+00 0 1 0
975 2 1.2250410637972363e+01 2.8968647396409978e+01 1.0134049008185837e+01 0 0 0
887 2 1.6527692429168006e+01 2.0037080765178082e+01 1.8415860346531183e+01 0 1 -1
2465 2 1.4105518249011498e+01 1.6827066666165948e+01 7.7490505041524811e+00 0 1 0
54 2 1.3759400536003394e+01 2.7318552681037989e+01 9.5057160206691744e+00 0 -1 0
102 2 6.7777596819718973e+00 9.2912033314337208e+00 8.3697316740487189e+00 0 0 0
223 1 7.9108142104309493e+00 3.7478632227742694e+00 6.8930701341697764e+00 0 0 0
1917 2 1.6657343911240037e+01 2.3761897335319382e+01 1.5860043833074833e+01 0 0 0
353 2 8.0817368863328127e+00 1.0575342749222241e+01 7.1457282263601947e+00 0 0 0
2407 1 1.2704456982745064e+01 2.1001350044099368e+01 9.7878994335238900e+00 0 0 0
1687 1 1.0697439587940847e+01 7.3717123682550323e+00 1.3443835662042964e+01 0 0 0
986 2 1.6798233295248437e+01 1.3101651726713289e+01 1.8430157780617051e+01 0 0 0
1706 2 1.6112870794242212e+01 1.7566540930788811e+01 1.1760394165119934e+01 0 0 -1
1703 2 1.0030087477219901e+01 1.2066207694916375e+01 1.6227219244267175e+01 0 0 0
1374 2 2.8827412141591932e+01 2.4362256783392283e+01 2.6201383339430066e+01 0 0 -1
1688 2 1.0942556976794714e+01 7.6663766582861008e+00 1.4358148740043855e+01 0 0 0
1002 2 7.7944301423670126e+00 1.4865287185097182e+01 5.2530140217848800e+00 0 0 0
1610 2 7.4496120318582335e+00 1.7307261758930171e+01 1.5861536825079827e+00 0 -1 0
922 1 2.1654743436697551e+01 2.0207586553485420e+01 1.1621709014691913e+01 0 0 0
2409 2 1.2411775879570671e+01 2.1243563776089150e+01 1.0770782311113820e+01 0 0 0
845 2 1.6593186357662574e+01 1.6555317305378079e+01 2.5257582130565289e+01 0 0 -1
1563 2 1.2269398542310881e+01 1.5681892412671980e+01 1.4060135685784680e+01 0 0 0
908 2 2.0335133712099047e+01 2.9902043484123197e+01 2.2059036546584771e+01 0 0 -1
893 2 1.6515528313567010e+01 1.8190684713886856e+01 9.5325313297923628e+00 0 0 0
28 1 2.1997320913951963e+01 2.2475856676599854e+01 1.3127211814316325e+01 0 0 0
2652 2 2.5704612186860125e+01 2.3779508271804819e+01 2.4351597246999507e+01 0 0 0
870 2 9.4587301859470934e+00 1.6181778870976459e+01 8.2297593366352775e+00 0 0 0
300 2 1.3489868701539589e+01 2.0545941445858546e+01 5.2146369980732930e+00 0 0 0
1585 1 1.3067852643319700e+01 1.3328300414965172e+01 9.2803030329090923e+00 0 0 0
2414 2 1.1210332993455411e+01 1.8807184022230821e+01 1.4225101447036442e+01 0 0 1
1137 2 1.0327228627793307e+01 1.1482618560532650e+01 2.2861250591904245e+01 0 1 -1
2441 2 1.8633474961972475e+01 1.9865736126039156e+01 1.1377313306838811e+01 0 0 1
847 1 1.6172532690404235e+01 1.2792453188986890e+01 8.4086297294580543e+00 0 0 -1
1562 2 1.3350506423448579e+01 1.6839992393853372e+01 1.4121369957317629e+01 0 0 0
1015 1 8.2474206204232559e+00 3.0035508607165755e+00 1.1372757580920068e+01 0 1 -1
1738 1 1.6688248482171236e+01 2.2211367378456266e+01 2.5814347824347564e+01 0 0 0
949 1 2.3723954762055769e+01 2.3366710704951881e+01 1.5927180820995584e+01 0 -1 0
30 2 2.1765951891185967e+01 2.1650757731554535e+01 1.2684102974673531e+01 0 0 0
2322 2 1.2692681279000386e+01 1.8522794037676256e+01 1.8547687957608975e+01 0 0 0
2626 1 1.5040472947027361e+01 2.2417876415105958e+01 2.1121110382302284e+01 0 0 0
150 2 9.6642549793338528e+00 6.5135856221421928e+00 2.3346290944718991e+01 0 0 -1
2440 1 1.9137776667493828e+01 1.9398557272495601e+01 1.0655987470899577e+01 0 0 1
98 2 1.4058981527389147e+01 8.0387741880145711e+00 5.5724813902581483e+00 0 0 0
2408 2 1.2429051766917068e+01 2.0051129465995537e+01 9.7029382702439388e+00 0 0 0
369 2 1.3715684713958545e+01 9.7780345239480297e+00 1.3892513676740196e+01 0 0 -1
1065 2 2.3626490462506368e+01 3.2682751759729179e+01 2.2938403182590090e+01 0 0 -1
1130 2 1.3225813839330947e+01 1.4774073194349207e+01 2.2232496168136478e+01 0 0 -1
2355 2 2.4094122642587678e+01 2.7894140319006880e+01 2.0396506849277237e+01 0 0 0
962 2 2.6690811758851627e+01 3.0077730857150481e+01 2.3239898917301733e+01 0 0 -1
888 2 1.5058398439864632e+01 1.9948675710976289e+01 1.8748260482802458e+01 0 1 -1
1135 1 1.0994373718512833e+01 1.1382234119952344e+01 2.2111961360656650e+01 0 1 -1
299 2 1.4969622998849932e+01 2.0774350120059793e+01 5.4945972071942082e+00 0 0 0
626 2 8.9919128538957196e+00 1.9549061946287234e+00 1.5664130996750532e+00 0 0 0
873 2 1.2572986612638253e+01 1.4441035353870816e+01 1.7770611258841463e+01 0 0 0
105 2 9.2096043676190966e+00 1.3026285669571699e+01 9.4951874504892917e+00 0 0 0
2311 1 9.5939663317076871e+00 7.7069301096062004e+00 2.7545709264166424e-01 0 1 0
726 2 2.9042658996181379e+00 5.3910274037560368e+00 3.7227579961514325e+00 0 0 1
1896 2 1.1810726462109734e+01 1.5977303936959007e+01 7.6943898334373113e+00 0 0 1
1546 1 1.4939746196955113e+01 1.6033277237289060e+01 2.4964056477577714e+01 0 1 0
984 2 1.9188481582534738e+01 8.0913679030691004e+00 1.1929739973705596e+01 0 1 -1
588 2 9.9577000603926411e+00 1.0055475209383431e+01 5.6016925977031056e+00 0 0 0
909 2 2.0073838048687747e+01 2.9103665858547490e+01 2.0782561397272911e+01 0 0 -1
2668 1 2.1157516836236059e+01 2.6756275690025191e+01 9.8621341210531739e+00 0 0 0
2354 2 2.2755841474324061e+01 2.8542122112263463e+01 1.9902069508435755e+01 0 0 0
1826 2 7.0183667272832650e+00 7.4752461730343542e+00 1.4871534543570593e+01 0 0 0
435 2 1.4997082343781305e+01 1.2317958711352887e+01 1.1326972502006301e+01 0 0 -1
1273 1 4.2132171015673627e+00 4.4595379626688105e+00 1.4998600045194945e+00 0 0 0
1132 1 1.1077353834791049e+01 5.8407954675791078e+00 1.0241063696146838e+01 0 1 0
1780 1 1.2039984245949579e+01 1.1618879545823384e+01 1.6156429874230113e+01 0 0 0
898 1 1.3847731321136614e+01 2.3628528177087055e+01 1.7215711535334087e+01 0 0 0
1514 2 8.2257658214866112e+00 1.8567642732638859e+01 5.6473215492109725e+00 0 0 0
2508 2 7.3190905413508212e+00 2.0545551252807577e+01 3.2025701265464033e+00 0 0 1
352 1 7.9334860093146435e+00 1.0371428240198833e+01 8.1061333066094470e+00 0 0 0
961 1 2.6366305364615076e+01 3.0510026205889908e+01 2.4068256161632231e+01 0 0 -1
885 2 2.3652647641979030e+01 2.9708655916511681e+01 1.5665900116288126e+01 0 0 -1
2595 2 5.0891370317350031e+00 7.7661337448998058e+00 1.0253655772337739e+01 0 1 0
2316 2 1.5859589605285809e+01 2.1531331743405282e+01 9.7604472465138006e+00 0 0 1
974 2 1.2498936526770249e+01 2.9279971797256586e+01 8.7014460152105180e+00 0 0 0
818 2 1.0562921731304900e+01 5.0543850816167302e+00 1.5996174749772312e+01 0 1 -1
775 1 1.2081161415189808e+01 2.3871560161703584e+01 5.7700475067710704e+00 0 0 0
1603 1 7.6052686779525391e+00 1.2042597834935226e+01 1.0706974157360544e-01 0 0 1
1783 1 3.3422378473062890e+00 3.7680758161588050e+00 6.3419901174351097e+00 0 0 0
1605 2 7.3241126519829916e+00 1.2799396461867939e+01 7.5615944818118708e-01 0 0 1
2532 2 1.3814289282841461e+01 2.1045132884789879e+01 1.4590165936159892e+01 0 0 0
77 2 1.2838443684727709e+01 2.7062524258011472e+01 1.5846960080862138e+00 0 -1 0
100 1 6.0727063492252418e+00 8.6049132441493796e+00 8.6486335999715998e+00 0 0 0
1877 2 1.3470508057900480e+01 6.1949655203883278e+00 2.1258990170105328e+01 0 0 0
2669 2 2.0606020676278920e+01 2.7233594519131721e+01 1.0547726082195631e+01 0 0 0
2323 1 8.4582669963839034e+00 2.0682799411891807e+01 2.0277080009626096e+00 0 1 1
343 1 3.8717718227754956e+00 1.1731855174364435e+01 1.3470778250930713e+00 0 0 0
1016 2 8.8514475050329793e+00 3.5332912940304921e+00 1.1891504130302597e+01 0 1 -1
2283 2 1.2111342968484198e+01 1.9882370915691556e+01 3.0260522576511435e+00 0 -1 0
995 2 6.1014082971993684e+00 1.0029158440370203e+01 2.7261705194208261e+00 0 1 0
97 1 1.3125410867670750e+01 7.9252476668017957e+00 5.8318188898594272e+00 0 0 0
2361 2 1.1419667899616471e+01 1.5045732351882366e+01 1.6036829314922521e+01 0 0 0
247 1 3.7149400602010836e+00 6.1234684019687355e+00 7.4954577883057691e+00 0 0 0
463 1 1.8247556912865722e+01 6.9955287961820920e+00 5.4957264644131421e+00 0 1 -1
1078 1 1.6843217233896464e+01 2.4798434510508010e+01 1.7033771107874685e+01 0 0 0
963 2 2.5425331012080555e+01 3.0218926597770992e+01 2.4030996495222258e+01 0 0 -1
1547 2 1.4384978863266280e+01 1.6022645972353132e+01 2.4135585272872330e+01 0 1 0
2353 1 2.3710136410746312e+01 2.8451365530966211e+01 1.9739269282824644e+01 0 0 0
917 2 4.9562979566517988e+00 7.1302545745081716e+00 3.3719879525218310e-01 0 1 0
417 2 1.3963990765016987e+01 1.5426952515735159e+01 1.6436838670122928e+01 0 0 0
985 1 1.7279383021252663e+01 1.3205657604801022e+01 1.9277780215566064e+01 0 0 0
1884 2 1.6692868820221840e+01 1.5325549010615186e+01 1.0189422164031033e+01 0 0 0
76 1 1.3028901819481689e+01 2.6204164273209287e+01 1.9930429940073273e+00 0 -1 0
298 1 1.4104974653975734e+01 2.0547747368102232e+01 5.9744950109182069e+00 0 0 0
1707 2 1.5636808995060626e+01 1.6314710877737070e+01 1.2548374552608848e+01 0 0 -1
900 2 1.3212516344317029e+01 2.4022105675860260e+01 1.6553844309533897e+01 0 0 0
612 2 6.7838635363424489e+00 4.0299836046034834e+00 1.3904990972853364e+01 0 1 0
2396 2 1.4113854973449142e+01 3.0027394499596650e+01 1.0403832640402056e+01 0 0 0
348 2 7.6659250071361331e+00 1.5752965368904366e+01 9.8707853415471458e+00 0 0 0
883 1 2.2961599807394329e+01 3.0166377613868324e+01 1.5183245632676593e+01 0 0 -1
2442 2 2.0091636959734664e+01 1.9533522053766998e+01 1.0872820562668764e+01 0 0 1
1915 1 1.6706984611682728e+01 2.3512607148697739e+01 1.4825465242468679e+01 0 0 0
2537 2 2.5488565328727098e+01 2.5886221609913395e+01 1.6039469509821455e+01 0 0 1
2315 2 1.4523106031605840e+01 2.1176319814153960e+01 1.0309871501743059e+01 0 0 1
1006 1 2.5641301423402808e+01 2.7458309779200988e+01 1.1583764032764437e+01 0 0 0
344 2 3.5462822707457651e+00 1.1006914947526081e+01 7.8231279475746640e-01 0 0 0
923 2 2.2076085728472197e+01 1.9473342011558799e+01 1.2109530891940352e+01 0 0 0
2572 1 1.3443266498992216e+01 2.0258663882535540e+01 1.8049087770073466e+01 0 0 0
354 2 8.1727760165802756e+00 1.1147627302875865e+01 8.6274112048306488e+00 0 0 0
156 2 1.1461700773480008e+01 5.0990899729737329e+00 8.1957101170877191e+00 0 0 0
1589 2 1.0561688616061998e+01 2.3291135641566385e+01 1.9467330629166755e+00 0 -1 1
1616 2 1.4011049897971606e+01 2.3970484752095942e+01 1.1108682769765082e+01 0 -1 0
1050 2 1.3407924375329721e+01 2.2403634692154530e+01 2.9593855447673616e+00 0 0 0
1081 1 2.0663336449434098e+01 1.4556899496476602e+01 1.9173115938514179e+01 0 0 -1
1594 1 1.9442389765117063e+01 2.4426991314560915e+01 1.7687860034321751e+01 0 0 0
2445 2 1.2804421618820228e+01 9.6542983390149502e+00 1.0054945480496896e+01 0 1 0
1588 1 1.0633825968686542e+01 2.2409666335403944e+01 1.5396474065022978e+00 0 -1 1
1150 1 1.8101119098099819e+01 2.0959182324123393e+01 1.4892295015395860e+01 0 0 0
1841 2 2.2606005626236080e+01 1.4758088262676786e+01 2.5301962865290339e+01 0 0 0
313 1 1.3834217276583214e+01 1.8173628718770750e+01 1.5045729304889681e+01 0 0 -1
1118 2 2.3944745353095993e+01 2.8715901897127637e+01 2.2734745166656840e+01 0 0 -1
1872 2 1.4538284179127549e+01 2.4396132493210462e+01 1.8552267055362659e+01 0 0 0
2613 2 1.8358436728491682e+01 2.5555524306388236e+01 1.3428142123991632e+01 0 0 1
1133 2 1.1148196795066371e+01 5.1979633807310073e+00 1.0931746490026816e+01 0 1 0
1762 1 1.0797261728689524e+01 1.1049175097237995e+01 1.0532585987573134e+01 0 0 0
2556 2 2.1233630099265060e+01 1.8513505019141025e+01 2.5482619697331295e+01 0 0 0
2548 1 2.0360944711690095e+01 1.0837419259809932e+01 2.4700797663266808e+01 0 1 0
1870 1 1.5112284937730880e+01 2.5002888080453161e+01 1.8992529193380413e+01 0 0 0
1662 2 9.7246439392638795e+00 1.3609326029965889e+01 1.4620438032536089e+00 0 -1 1
2321 2 1.2319567390518635e+01 1.7530502904773282e+01 1.9772383719357048e+01 0 0 0
1736 2 1.4717888904603365e+01 5.9296176574701267e+00 8.1162519727629174e+00 0 0 0
376 1 2.0752590871690241e+01 2.9786397528670804e+01 1.6829705686616105e+01 0 -1 0
1109 2 1.2009915839690066e+01 9.7407093956213373e+00 1.2279268009513375e+01 0 0 0
372 2 1.4981536521731460e+01 1.1843609824696468e+01 2.1552562079417857e+01 0 0 0
333 2 1.7549461762109090e+01 3.1788321835656731e+01 1.7781932152705977e+01 0 0 0
2555 2 2.1587339608562985e+01 1.7256992289198770e+01 2.4564287694828803e+01 0 0 0
374 2 8.0147378155645495e+00 8.4981808813099118e+00 5.5382640013627960e+00 0 0 0
1801 1 1.4716702203444846e+01 2.1459612545539002e+01 1.3282021373378845e+01 0 -1 0
442 1 1.3291498739104242e+01 4.4138111390468957e+00 3.5380945123068845e+00 0 0 0
2601 2 1.7572068987869592e+01 2.2195910955871124e+01 8.4630920492254162e+00 0 0 0
2600 2 1.7081170865318160e+01 2.3227815179793946e+01 9.6192857241088259e+00 0 0 0
188 2 1.2095952959078014e+01 2.4258668200438180e+01 9.6237893536520414e+00 0 0 0
2444 2 1.3725569980561618e+01 1.0501625854828424e+01 1.1010869601123691e+01 0 1 0
1447 1 1.7316341003739531e+01 1.8162100208377726e+01 7.6972580433678708e+00 0 1 0
2642 2 9.0837688623855275e+00 2.9408129158833121e+00 5.5362626515442557e+00 0 0 1
2307 2 1.9676630916696464e+01 2.6338956208736995e+01 3.1581791604522995e+00 0 -1 0
1119 2 2.3647883797648745e+01 2.8873190897294997e+01 2.4215156559174691e+01 0 0 -1
1088 2 2.0418267125829608e+01 2.9604893167232586e+01 2.6925845681181940e+01 0 0 -1
2320 1 1.2605975130992444e+01 1.7565377916424730e+01 1.8854396214414546e+01 0 0 0
269 2 1.5804944747987456e+01 1.7960628950584507e+01 2.1059652168364376e+01 0 -1 -1
2306 2 2.0605083251306855e+01 2.5414802488448988e+01 2.4345755612457074e+00 0 -1 0
198 2 1.7567759697241158e+01 2.8981505694662481e+01 9.2842286202377871e+00 0 -1 0
1089 2 2.0200398442914064e+01 2.8753583805336103e+01 2.5545082636124938e+01 0 0 -1
2468 2 9.3219578525304190e+00 1.3479571485265824e+01 6.0435753323875536e+00 0 0 1
2570 2 1.9408875610656970e+01 2.3912127105418111e+01 8.0567736185787435e+00 0 0 0
776 2 1.2852999091881919e+01 2.4534300358308833e+01 5.9731850358147751e+00 0 0 0
830 2 1.3504447796776319e+01 2.7424813367852519e+01 1.2880686786108916e+01 0 0 0
1658 2 1.7786214555787517e+01 2.9149583764091300e+01 1.8311773786425675e+01 0 -1 0
84 2 1.3042143937208063e+01 1.9198852555611055e+01 2.3855574931487336e+01 0 0 -1
2604 2 1.7703585078182350e+01 1.6501444010598743e+01 2.3006715757287587e+01 0 1 0
2397 2 1.5124804607121735e+01 3.0103931803861549e+01 1.1545559550843677e+01 0 0 0
1134 2 1.0239631413550663e+01 6.3921559823453489e+00 1.0416480763572276e+01 0 1 0
2644 1 1.3847790910728186e+01 8.0548592148059530e+00 1.8515997374183947e+01 0 0 0
3026 2 2.7781580501783594e+01 2.9500372702369972e+01 1.8540542641155525e+01 0 0 0
332 2 1.7399033719332461e+01 3.2190522311519956e+01 1.6278028228858197e+01 0 0 0
1735 1 1.4290817905270499e+01 6.3028871509641728e+00 8.9338883713174440e+00 0 0 0
2646 2 1.4861636163254246e+01 8.1982051021042306e+00 1.8579963788173504e+01 0 0 0
2413 1 1.1167590177863037e+01 1.9051778626102703e+01 1.3295269752707252e+01 0 0 1
895 1 2.1377876547340989e+01 3.0444673825226296e+01 2.3400158721027164e+01 0 0 -1
2603 2 1.7736326271498950e+01 1.7140012226930171e+01 2.1690908019541311e+01 0 1 0
2554 1 2.1985788817044511e+01 1.8028078018685640e+01 2.5072182012531524e+01 0 0 0
2629 1 8.8409217532517967e+00 7.2184432073656879e+00 1.0540605086025375e+01 0 0 0
2305 1 2.0411401584674341e+01 2.5732746576483052e+01 3.3086225113740118e+00 0 -1 0
443 2 1.2654857485376885e+01 4.9366828529624378e+00 4.1312800573559665e+00 0 0 0
112 1 1.6992735590669469e+01 2.9745311634020499e+01 2.1772270960087706e+01 0 -1 0
2375 2 1.4430005846831923e+01 2.9249795653636482e+01 6.8017869375552609e+00 0 0 1
994 1 5.6025971418450595e+00 1.0744453430495282e+01 3.0955059867079786e+00 0 1 0
2641 1 9.7944944598459500e+00 2.8931075299721565e+00 4.9135656547363702e+00 0 0 1
897 2 2.1099129663485286e+01 3.0154538396404661e+01 2.4276717673190657e+01 0 0 -1
318 2 2.3763244397447178e+01 2.7848596014644393e+01 2.5645280251336533e+01 0 -1 -1
6 2 2.4603264561612654e+01 1.1431839780989899e+01 2.3994416803210431e+01 0 -1 0
2456 2 1.3760734469153986e+01 1.6588102933602016e+01 1.8292988171145463e+00 0 0 1
1672 1 1.6576280010801224e+01 2.6135643848748398e+01 8.7052990654261606e+00 0 -1 0
1617 2 1.4297218948327750e+01 2.4451386741526129e+01 1.2661520264013690e+01 0 -1 0
1117 1 2.3936826689103363e+01 2.9389324358143380e+01 2.3381299104729880e+01 0 0 -1
1737 2 1.3564408995628698e+01 6.9254105656255671e+00 8.7695148086153107e+00 0 0 0
1909 1 1.6260174568338321e+01 1.1524240149467488e+01 1.5534638561018035e+01 0 0 0
1682 2 7.1210149123447017e+00 5.5762143920967056e+00 7.8397779719722935e+00 0 0 0
368 2 1.5250617414273119e+01 9.6780177993429035e+00 1.3508625930288691e+01 0 0 -1
197 2 1.7624944562232560e+01 2.7454459723490775e+01 9.0584409838494580e+00 0 -1 0
759 2 2.0882953606107890e+01 2.5675448412066711e+01 5.1243855147136141e+00 0 -1 0
2576 2 6.3035319066868265e+00 2.7331273388396760e+00 9.8422389884335963e+00 0 1 0
444 2 1.3873164846238442e+01 3.8819067259174935e+00 4.0447408032196934e+00 0 0 0
2513 2 1.8297742104025993e+01 2.7032268645271930e+01 1.9031618505997383e+01 0 0 0
2632 1 2.7268974262714451e+01 1.7214497488259180e+01 2.4334767902733475e+01 0 0 0
1681 1 6.3696768314968537e+00 5.8869875555740236e+00 8.3566070551618594e+00 0 0 0
2467 1 1.0266106180535470e+01 1.3471099916078401e+01 6.3490528508306232e+00 0 0 1
1596 2 2.0080989999218950e+01 2.4480602864766933e+01 1.6921947761594577e+01 0 0 0
1621 1 1.2652486397489143e+01 1.0369601940794995e+01 1.9701615340212449e+01 0 0 -1
1622 2 1.2651478282009926e+01 1.1051824732015056e+01 1.8988917959706235e+01 0 0 -1
1151 2 1.7703946468256959e+01 2.0078297287672200e+01 1.5077014673175917e+01 0 0 0
1691 2 1.1713256945459483e+01 1.9065583225395343e+01 1.0345388877576209e+00 0 -1 1
316 1 2.2880004744024482e+01 2.8304820125209577e+01 2.5404380876954228e+01 0 -1 -1
2612 2 1.7293043193622946e+01 2.6053131463705011e+01 1.2483271755414416e+01 0 0 1
2491 1 9.7044058479908912e+00 1.8542702709141107e+01 1.2044026998650057e+00 0 0 1
2243 2 2.3427064646099137e+01 1.4387823888344396e+01 1.6342748601154074e+01 0 0 0
1110 2 1.1331011032449341e+01 9.5308087068670844e+00 1.3633372181104223e+01 0 0 0
1876 1 1.3470356965503015e+01 7.1999393621555647e+00 2.1050337561550904e+01 0 0 0
2563 1 1.1333250469576537e+01 1.1146638420804800e+01 2.4928859639144321e+00 0 1 0
2630 2 8.1773071307151746e+00 6.6821096001719997e+00 1.0912084865768119e+01 0 0 0
216 2 1.6662570835741572e+01 2.1043760987134014e+01 1.1870872910070025e+01 0 0 0
819 2 1.0093421181674499e+01 5.5063974149577586e+00 1.7315273899004811e+01 0 1 -1
373 1 7.5067240563920485e+00 7.7374001284185994e+00 5.3091073661637189e+00 0 0 0
1049 2 1.4277043221667595e+01 2.3377572954082471e+01 3.8946801029505282e+00 0 0 0
2512 1 1.9019095312509592e+01 2.6459846500877735e+01 1.9328392742438258e+01 0 0 0
214 1 1.7653638095880648e+01 2.0988714608882063e+01 1.2081075565580464e+01 0 0 0
1900 1 1.3117874253033811e+01 1.0803319760247760e+01 2.3766897677198063e+01 0 0 0
375 2 8.1610671473632692e+00 7.0283671222928978e+00 5.4361938134945573e+00 0 0 0
1668 2 7.4476276209874346e+00 8.2913071902929278e+00 3.4186908489400532e+00 0 0 1
2439 2 7.6216974196271394e+00 1.2728490555063050e+01 4.5574788117860434e+00 0 1 0
189 2 1.3512982888126004e+01 2.3734187839837755e+01 8.9206560095390230e+00 0 0 0
844 1 1.7536301279141547e+01 1.6694542581427143e+01 2.5112632440195213e+01 0 0 -1
187 1 1.3082857003559567e+01 2.4343455288961042e+01 9.5477490996029619e+00 0 0 0
2447 2 1.8736101268727912e+00 2.6690211291104600e+00 6.7472184918156310e+00 0 1 0
314 2 1.4656857723942352e+01 1.7992100930454278e+01 1.5526513799395476e+01 0 0 -1
2602 1 1.8360281056937737e+01 1.6881905024665436e+01 2.2406165073899235e+01 0 1 0
1548 2 1.4474654768001306e+01 1.6642753212046355e+01 2.5604703662125036e+01 0 1 0
1560 2 1.7170431834046447e+01 2.1004067693536776e+01 1.2548739765112489e+00 0 0 1
1637 2 8.8883113710274451e+00 1.0460041155454086e+01 1.9474427065534183e+01 0 0 0
271 1 1.2455828516176306e+01 1.3429124361561282e+01 2.0858869359081396e+01 0 0 0
2469 2 1.0322512767246739e+01 1.4301734322015044e+01 6.8576447434017007e+00 0 0 1
1657 1 1.7139560882720378e+01 2.8385981803364121e+01 1.8289251650112252e+01 0 -1 0
385 1 9.0289694621012693e+00 1.0073968348125101e+01 1.2760523818555716e+00 0 0 0
154 1 1.1164570410776660e+01 4.3218966190910102e+00 7.7378245283173541e+00 0 0 0
29 2 2.1862335712540464e+01 2.3232659473526788e+01 1.2530327221552810e+01 0 0 0
1152 2 1.9066131515483896e+01 2.0941050678340211e+01 1.5166315549229139e+01 0 0 0
625 1 8.3560306249620755e+00 2.6963092581055825e+00 1.4562693312850790e+00 0 0 0
1878 2 1.3635000208328696e+01 7.2920412795806238e+00 2.0127690463785957e+01 0 0 0
2437 1 7.8494103155004815e+00 1.1939723903117468e+01 3.9680394916875064e+00 0 1 0
1615 1 1.4484810235697477e+01 2.3760795717736208e+01 1.1923062327923834e+01 0 -1 0
920 2 2.0367291999797622e+01 2.2741644735757031e+01 1.8413522559248360e+01 0 0 -1
284 2 2.7726345167246087e+01 3.0972731378529790e+01 2.0687891249015539e+01 0 0 -1
871 1 1.2414379066192897e+01 1.5318418506244814e+01 1.7299457651203088e+01 0 0 0
820 1 1.8573170496238347e+01 2.4985740246072297e+01 2.6073885409323758e+01 0 0 -1
2670 2 2.0469800629863300e+01 2.6079133660507267e+01 9.6251517130740218e+00 0 0 0
117 2 2.2021469251965662e+01 2.0613967236127941e+01 2.6721341182159801e+01 0 0 -1
655 1 2.2025077794457133e+01 1.4269506013068467e+01 8.9740685113597802e+00 0 0 0
2492 2 9.3322002659251915e+00 1.8168648934320501e+01 4.0180442594467158e-01 0 0 1
1085 2 1.5716140471701735e+01 1.4948960559057216e+01 5.7433874875610913e+00 0 0 0
848 2 1.6878150921522383e+01 1.3154371689004920e+01 7.8505856841089514e+00 0 0 -1
273 2 1.2651033734681306e+01 1.3091510351424436e+01 1.9948465094634692e+01 0 0 0
1084 1 1.5148701686327119e+01 1.5634623939388339e+01 5.3500385518011244e+00 0 0 0
1910 2 1.6626992243017114e+01 1.2089389286736353e+01 1.4873659154959181e+01 0 0 0
1087 1 2.0146015299199611e+01 2.9683280174730385e+01 2.6014657120329943e+01 0 0 -1
360 2 1.5902042200028703e+01 2.6111020242164390e+01 2.2293239244528905e+01 0 0 0
196 1 1.8125297994040427e+01 2.8211035550641110e+01 9.4565841062577132e+00 0 -1 0
777 2 1.2434675187982631e+01 2.3376624181911989e+01 5.0135315790222430e+00 0 0 0
308 2 2.5979511728548474e+01 3.3545838192257257e+01 2.2669676219772473e+01 0 0 -1
309 2 2.6235746459134894e+01 3.2173507302339175e+01 2.3158311350218277e+01 0 0 -1
3003 2 1.0932224042565513e+01 6.0569044103375465e+00 5.4315458907386915e+00 0 1 0
1809 2 1.4098822300919855e+01 1.5216300052668833e+01 1.3057990420846014e+01 0 0 0
880 1 1.6850141152357711e+01 1.9145048139872273e+01 2.4085221570359398e+01 0 0 0
315 2 1.3699492337236464e+01 1.9160451543086058e+01 1.5178029662976924e+01 0 0 -1
283 1 2.7493857106759652e+01 3.1798487991083686e+01 2.0215012283217554e+01 0 0 -1
386 2 9.1462940395096695e+00 9.3325396585091980e+00 6.1858317234375426e-01 0 0 0
2376 2 5.4603052547871371e+00 1.8123785818372391e+00 6.2021539842213107e+00 0 1 1
2380 1 1.1324937280671048e+01 2.2685398708093366e+01 1.4544008474976112e+01 0 0 0
1545 2 8.8314659164849125e+00 1.0041015639236647e+01 1.3475851652575395e+01 0 0 0