LAMMPS data file via write_data, version 3 Mar 2020, timestep = 0

2016 atoms
2 atom types

0.0000000000000000e+00 1.7949000553553006e+01 xlo xhi
-1.6335862148500233e+00 4.6629746191766614e+01 ylo yhi
0.0000000000000000e+00 1.9088730956632382e+01 zlo zhi
4.5998854583537516e-02 -6.6817868586700122e+00 -2.1689610488543565e-02 xy xz yz

Masses

1 16
2 2

Atoms # atomic

579 2 2.7671105622234062e+00 6.0494597916517394e+00 1.7285783025156192e+01 0 0 0
223 1 -1.9985149433335616e+00 7.6197257652621690e+00 1.8608416567355590e+01 -2 0 -2
995 2 4.8632898458618357e+00 4.9357370646055889e+00 9.0145959440831458e+00 3 0 1
654 2 -1.6409155497064198e-01 8.7076601482760942e+00 3.1617057867198413e+00 -1 0 0
394 1 8.8687013387952174e+00 2.9226283587841380e+00 1.2766995669849379e+00 -3 0 -3
578 2 3.7046611497834858e+00 7.1797386737764572e+00 1.6789215134937059e+01 0 0 0
929 2 1.4868732362099941e+01 5.0552676626039155e+00 5.2434073753184096e+00 0 0 0
513 2 7.6014125814356293e+00 -7.7721268158239598e-01 1.5516426300491617e+01 1 0 0
705 2 -2.4919349681888736e+00 4.0790758697992038e+00 1.1562909771360699e+01 -2 0 -1
302 2 9.7198969251961920e+00 6.0725784927428705e+00 9.4187812199954690e-01 0 0 0
299 2 1.1773168413520875e+01 1.8180673915418377e+00 1.6851089662282213e+01 -3 0 -2
896 2 8.0025796643900904e+00 7.7559953629925502e+00 1.8503836184337473e+01 -1 0 -1
150 2 1.0238978205496405e+01 7.5040967095100193e+00 1.7675525253116426e+01 -4 0 -1
406 1 2.0209874851430283e+00 1.0800259805041144e+00 1.1334847594892601e+01 -2 0 -2
229 1 2.4668873258972503e+00 -1.5587907967033452e+00 7.2931591518314285e+00 0 0 -2
596 2 1.5692439606747288e+00 5.6248628346318750e+00 7.6140770589435531e+00 3 0 -2
841 1 -2.8132141888299880e+00 -1.2027281311244475e+00 1.6498941243412730e+01 -5 0 -5
6 2 4.9881350402279026e+00 7.5643642668839330e+00 5.5970014467249953e+00 1 0 0
881 2 1.2276539251684461e+01 2.1785238958002640e+00 8.5304805933916832e+00 -3 0 2
319 1 1.0687190599282371e+01 -8.3638051088330267e-01 1.4361126037295527e+01 -4 0 -3
53 2 1.0312668468226589e+01 7.0121612723412685e-01 3.1281343594530058e+00 2 0 0
963 2 2.2220353223487477e+00 -1.2871624193685587e+00 1.5010576554182380e+01 -3 0 -1
560 2 8.1344838572060709e+00 -1.3032216610963590e+00 7.2499645546963043e+00 -2 0 1
1583 2 -4.1953690445028524e+00 1.3313291101216871e+00 1.6041550306887867e+01 0 1 1
122 2 1.0907898122187316e+01 3.0792910753762373e+00 1.3966558734065764e+01 -2 0 -1
954 2 1.5606957363404621e+01 1.0176464915646685e+01 2.2506079872465121e+00 -1 0 1
407 2 1.3288511577908499e+00 1.0929456306347851e+00 1.2025216740330418e+01 -2 0 -2
707 2 1.0098587659476692e+00 7.0009159111751913e+00 1.4805328554341086e+01 -1 0 -1
972 2 4.3954189731157971e+00 7.5852766487982297e+00 2.8787797858288164e+00 0 0 1
448 1 7.0834081188449431e+00 7.2234487165099583e+00 9.2658494811347794e+00 -1 0 1
244 1 1.2481163721270121e+01 7.4041262191246684e+00 1.3636040348747768e+01 -4 0 -4
844 1 7.4357505052100175e+00 -1.2510868840033438e+00 1.1801877109080127e+01 1 0 1
687 2 2.1815245266409908e+00 -3.0055191630355549e-01 1.0432848294111018e+01 -3 0 0
981 2 1.3699629014771412e+01 7.3292063686218221e+00 8.4020104297479570e+00 -2 0 0
620 2 1.0860165303216910e+01 8.9718200453386583e+00 1.9016834407983549e+01 -4 0 -1
301 1 1.0158925111655567e+01 5.3064371214740431e+00 1.3844874242162366e+00 0 0 0
149 2 9.5945556273403820e+00 6.2466489315652272e+00 1.7097504534308886e+01 -4 0 -1
270 2 -2.5037708067081699e-01 8.7284590097924610e+00 1.4374440536925214e+01 2 0 -1
463 1 3.9256955952027530e+00 9.5261145026144067e+00 8.2689770217020744e+00 2 0 0
449 2 7.7191392024118359e+00 7.0604682145434001e+00 9.9848894393580174e+00 -1 0 1
524 2 2.5305683745533276e+00 3.3927935214866833e+00 1.3368499918875747e+01 -2 0 -4
585 2 3.7164759359320154e-01 7.4524492768711621e+00 1.1745918610697268e+01 -4 0 -4
523 1 2.3651115214794682e+00 4.0913959471255383e+00 1.2629868279230976e+01 -2 0 -4
658 1 5.9430351478813828e+00 2.3855114510908955e+00 1.4119387957784097e+01 -1 0 -2
206 2 3.6642246936226215e+00 1.2127631536754246e+00 1.1845401551185885e+01 3 0 0
96 2 -2.0129806654710798e+00 5.6187282010992536e+00 9.3458122108159039e+00 -1 0 -1
441 2 1.2182850686259510e+00 5.1060749815773416e+00 1.3387960876725746e+01 -2 0 -1
151 1 6.3971817423088941e+00 8.9331265578900920e-01 3.8803589621427856e+00 3 0 0
781 1 2.9337192055177557e+00 4.8168932476039439e+00 1.4819344842142410e+00 -2 0 -2
880 1 1.1644990458755714e+01 1.6347319172369121e+00 7.9870496828799968e+00 -3 0 2
626 2 1.8879533926384982e+00 1.7440539757829314e+00 1.8983381551873205e+01 0 0 -1
184 1 5.3361616686151399e+00 -1.0402044231594330e+00 2.8847469164383821e-01 -4 0 -6
703 1 -2.5040520736689809e+00 3.0969819757792685e+00 1.1608146930495266e+01 -2 0 -1
382 1 1.6922210945325698e+01 4.1587693911042631e+00 2.9807492033766980e-01 -2 0 1
21 2 1.2514625738724147e+01 2.8547239712611594e+00 1.5126192130522340e+00 -3 0 -3
457 1 -2.5795948475262909e-01 -7.8497414158920575e-01 3.3666540766303079e+00 -2 0 -2
54 2 1.0249849587582750e+01 4.0300086849421435e-01 1.6141603283387960e+00 2 0 0
85 1 1.0394226869479935e+01 -4.0021707793217631e-01 1.8863470411131296e+01 1 0 -3
689 2 2.7032900269317772e-01 1.5282795646474878e+00 5.6332802865887244e+00 -2 0 0
992 2 1.4417092946812543e+01 -4.9785400642218436e-01 8.4138280282658293e+00 1 0 1
392 2 1.9988538952557762e+00 9.1543661405323249e+00 1.0935628179975614e+01 -1 0 -1
652 1 -4.3364822017123861e-01 7.7590158306428503e+00 3.2687281048607191e+00 -1 0 0
52 1 9.6679967876032542e+00 7.7315870787122609e-01 2.3533707869091516e+00 2 0 0
356 2 -3.2475304262845475e+00 4.5467823211426239e+00 1.7680500764214823e+01 -4 0 -3
477 2 7.0886802046038095e+00 3.1422980584139601e+00 1.1238007260561004e+01 -1 0 2
500 2 -8.4456122306214265e-01 2.2623239204929191e+00 1.2365186200282428e+01 1 0 0
428 2 -3.3695298842249928e+00 8.6438711346562176e+00 1.7779342377359306e+01 0 0 -1
806 2 1.2279779143569280e+01 7.5402513712491075e+00 5.0208051401314542e+00 -4 0 1
789 2 6.2549395413128721e+00 8.6767576546271528e+00 2.0177900745475559e+00 -2 0 0
810 2 8.4782799619643416e+00 4.1775444260818828e+00 8.4812249692371537e+00 -4 0 -1
930 2 1.4034322282218136e+01 3.8648038354864305e+00 5.4761973855676693e+00 0 0 0
702 2 4.4367378224277081e+00 6.9163226876199246e-01 1.6840346733452453e+01 -3 0 -3
501 2 -6.8157576847570667e-01 7.8567958547983618e-01 1.2916581329250887e+01 1 0 0
625 1 1.7237514335320157e+00 1.1143310353133162e+00 1.8247463780640150e+01 0 0 -1
5 2 4.5121601469472372e+00 8.4093374952948015e+00 6.8373845926168642e+00 1 0 0
101 2 4.5117785026571475e+00 6.1314086241943828e+00 1.1336742760395218e+01 -1 0 -1
384 2 1.7639717707972192e+01 4.7683259191703771e+00 6.6693575982310038e-01 -2 0 1
245 2 -4.7488117252453490e+00 8.0006410265095838e+00 1.4014652734849030e+01 -3 0 -4
622 1 -3.2126017029411744e+00 3.1127909601493711e+00 1.8461005532126084e+01 -2 0 -2
624 2 -2.4749411433070820e+00 2.4670208790589419e+00 1.8632246270057454e+01 -2 0 -2
179 2 4.8943432443303543e+00 6.0318349747156006e+00 1.8209371046837433e+01 -3 0 -1
1584 2 9.8235914248124150e+00 8.2830100473239288e+00 1.5963719637619002e+01 0 0 0
547 1 6.2601904605134227e+00 9.3437147020982891e+00 1.6188969759536398e+01 -3 0 -4
746 2 -2.7940061384019668e+00 9.1764371812044470e+00 1.4449474195930028e+01 -2 0 0
268 1 -1.0162300420748340e+00 9.0555609573351958e+00 1.3962155891720462e+01 2 0 -2
600 2 -7.3146614744226079e-01 7.7665349736070244e-01 9.7277105042443317e+00 -3 0 1
49 1 9.0320569240712594e+00 3.2499285856643043e+00 9.8511887753650136e+00 -1 0 0
183 2 9.1315088417777570e+00 5.0909538213519188e+00 4.2702438987177826e+00 -1 0 0
464 2 3.0840625673970345e+00 9.1477114036303959e+00 8.1114146225762074e+00 2 0 0
393 2 2.7812613334692680e+00 7.7927816834864760e+00 1.1109201758675530e+01 -1 0 -1
1582 1 1.0154464046494926e+01 8.7758889454757139e+00 1.5219635056154750e+01 0 0 0
671 2 -3.3687639885588094e-02 -2.8788201361060084e-01 6.7029041327987544e+00 -3 0 -1
135 2 -1.4206803578523988e+00 2.8849536061029823e+00 1.0178694523689172e+01 1 0 -1
778 1 6.6061157529808714e+00 7.4890838495094503e+00 4.8719461503820991e+00 1 0 0
949 1 -4.5116267657097255e+00 -1.1310939444479273e-01 1.8550693009056111e+01 -1 0 1
598 1 -9.6925360053648335e-01 -1.5656231676427801e-01 9.7157382643522894e+00 -3 0 1
120 2 3.4113270042675596e+00 5.7047841028077819e+00 2.7450116998263523e+00 -2 0 -2
685 1 2.5804369334312094e+00 -1.0938642220755410e+00 1.0054986022940323e+01 -3 0 1
640 1 -1.2912029347079557e-01 7.8810965306831431e+00 8.5566443411912694e+00 4 0 -1
753 2 -4.6600308662418257e+00 5.2741427821214524e+00 1.5931818598186435e+01 0 0 2
527 2 4.0809242868174209e+00 -6.8411827494837374e-01 6.5611242909780580e+00 -2 0 0
119 2 2.9950312712436444e+00 6.3303880995286814e+00 4.1909635027154861e+00 -2 0 -2
525 2 3.1521418208428891e+00 4.7122148301885103e+00 1.2644253885347737e+01 -2 0 -4
925 1 -4.0063162178915341e+00 -1.4524015774126162e+00 1.3395967722049070e+01 2 0 2
971 2 4.2544839435537636e+00 9.0394323073256242e+00 2.4352541388665063e+00 0 0 1
1008 2 -2.0758296734526986e+00 1.0323054722219185e+01 6.0655919528220288e+00 -2 0 -2
212 2 1.0193034067640040e+01 3.6276531584520946e+00 5.6064774734819114e+00 -5 0 -2
701 2 3.4093990733446686e+00 1.4447060468266946e+00 1.7562428976922799e+01 -3 0 -3
776 2 1.1509581810967445e+01 -1.1415498823730053e+00 1.5523177220398787e+00 -2 0 2
470 2 1.7222048093308231e+01 2.5369765455402504e+00 1.1906266948051567e+00 -7 0 -2
471 2 1.7494523691676253e+01 1.0201552875345499e+00 1.1082522708383387e+00 -6 0 -2
708 2 6.7629739784652898e-01 7.7988974462134539e+00 1.6018154430869302e+01 -1 0 -1
549 2 5.3174723750495545e+00 9.4453943239612812e+00 1.6274656331229011e+01 -3 0 -4
46 1 7.5765775450414354e+00 4.8822818346485084e+00 5.1119508281739385e+00 -3 0 0
274 1 1.4643629402103517e+01 -1.4648721259072504e+00 5.2088201058916284e-01 2 0 0
890 2 1.0649820233370768e+01 -1.2648599990001945e+00 6.8704199815707412e+00 -1 0 0
627 2 1.6258936147830108e+00 2.5772141748210364e-01 1.8703798046807801e+01 0 0 -1
111 2 2.7075664858519133e-01 -6.6801693812341090e-01 1.5695364401136496e+01 1 0 -4
869 2 9.9814634246059981e+00 5.5724848324780822e+00 7.6812978853552041e+00 1 0 0
16 1 -7.0153253453031628e-01 4.8521196105115081e+00 1.6171475142539592e+01 0 0 1
178 1 5.5249312139567675e+00 5.6850637393334349e+00 1.8968686278070848e+01 -3 0 -1
974 2 1.0075872888969457e+01 6.9568447235136244e-01 1.5637207959637845e+01 -4 0 -2
118 1 3.7275135354919744e+00 6.1161874091596582e+00 3.5554554551884450e+00 -2 0 -2
230 2 2.5350614025678060e+00 -1.2389287952365371e+00 8.2311564999600346e+00 0 0 -2
623 2 -3.9585469592473452e+00 2.5518935175920516e+00 1.8098884537424482e+01 -2 0 -2
1668 2 6.3114741107310559e+00 2.8473740020327352e+00 1.3341986965912033e+01 -1 1 -2
644 2 1.1392148648941989e+01 2.9998834157830578e-01 1.1229478138933736e+01 -4 0 -3
953 2 1.4656059585378422e+01 9.5586484835884775e+00 3.3296180304587328e+00 -1 0 1
84 2 -2.2536761880873146e+00 9.9868523872571000e+00 8.2515279031166422e+00 0 0 -3
239 2 4.6623315211230407e+00 5.1450105704903448e+00 1.5871832113710857e+01 0 0 0
716 2 5.9597670021461262e+00 2.5405428220881765e+00 1.4276756342780945e+00 1 0 2
717 2 7.2303758450564137e+00 3.1470839703689570e+00 2.0368791841056564e+00 1 0 2
240 2 5.2426084503577721e+00 5.6957664846499849e+00 1.4662370127929799e+01 0 0 0
904 1 9.0156719388216953e+00 7.9985763769626548e+00 5.2427603983509985e-01 -3 0 2
17 2 -3.4485204101873368e-01 4.9429787619723271e+00 1.5276238425529083e+01 0 0 1
779 2 6.7338954289686157e+00 7.7212735619660258e+00 3.9255708267757550e+00 1 0 0
185 2 6.2647405581274089e+00 -1.3282045713373938e+00 4.9533861825079212e-01 -4 0 -6
645 2 1.2285295317075459e+01 9.1346887444501856e-01 1.2382965247757967e+01 -4 0 -3
613 1 -1.0563442715410760e+00 1.6798343529507931e+00 1.8945425730692602e+01 -2 0 -1
246 2 1.2509251450068755e+01 6.5882994578104199e+00 1.4081597308783662e+01 -4 0 -4
238 1 5.0319268070165801e+00 4.8525007388070636e+00 1.5043902868147761e+01 0 0 0
522 2 8.2282378567123224e+00 -1.8618556256519492e-01 1.0488899977472800e+01 -5 0 -2
715 1 6.2732529058440409e+00 2.9806112184414424e+00 2.2043228241101147e+00 1 0 2
115 1 -4.4074969271881406e+00 2.0896280011702428e+00 1.3046647597484885e+01 -4 0 -5
426 2 1.4122229152392114e+01 2.1698880183611871e+00 4.0067288629067495e+00 -2 0 1
459 2 5.2393086907086128e-01 -4.7468393931731634e-01 2.8381169680924661e+00 -2 0 -2
168 2 1.0862976876249139e+01 8.2024365077393124e+00 3.6086611059407105e+00 -4 0 -3
712 1 -1.3427364337766714e+00 -6.1591965237407287e-01 1.2344175565361221e+01 0 0 3
933 2 -1.7890587515738567e+00 1.6815761137325085e+00 1.5797249106705980e+01 -2 0 -1
857 2 6.7058120278497890e-01 8.7486794125917147e+00 7.3279718533870692e+00 -1 0 -3
868 1 1.0536156303667468e+01 6.3700119677620108e+00 7.6939211002817451e+00 1 0 0
291 2 7.3208289557143020e+00 9.0526719914486673e+00 5.4615265896600365e+00 0 0 3
18 2 -7.7240175857279336e-01 3.8852566810655800e+00 1.6304824321980700e+01 0 0 1
548 2 6.3494739943629526e+00 1.0035423068821236e+01 1.5519741464394157e+01 -3 0 -4
736 1 1.1310166819019875e+01 1.0175672372037486e+01 6.8008918305846109e+00 -1 0 1
785 2 6.5832298289584090e-01 2.7910621310664041e+00 2.7438992543230452e+00 -3 0 -2
870 2 1.0675459210008762e+01 6.6548412342013492e+00 6.7423344650675672e+00 1 0 0
211 1 1.0093665956920720e+01 2.7567459462686346e+00 5.9995927093919059e+00 -5 0 -2
387 2 1.2088062410570970e+00 3.5807743214825241e+00 6.0565970541420864e+00 0 0 -2
166 1 1.0705339803192778e+01 8.8047572842870494e+00 2.8722061856892829e+00 -4 0 -3
643 1 1.1466104046984164e+01 5.2656144501644775e-01 1.2211500509670177e+01 -4 0 -3
923 2 3.3519648957943886e+00 9.3127426485318825e+00 1.7253847035923933e+01 -3 0 -3
559 1 8.8468850063410063e+00 -6.1603153100544583e-01 7.2514368054968719e+00 -2 0 1
289 1 7.3602552372687970e+00 1.0002856035440482e+01 5.7919531840987926e+00 0 0 3
116 2 -4.1383692111929431e+00 1.5383066443190976e+00 1.3796228155459726e+01 -4 0 -5
224 2 -2.2211391224499994e+00 6.6610505495713905e+00 1.8569657839803114e+01 -2 0 -2
845 2 7.2632799496768703e+00 -7.2354657921340637e-01 1.2592262807872093e+01 1 0 1
48 2 7.6709431091037370e+00 4.7446817173109865e+00 6.0531007866091251e+00 -3 0 0
117 2 1.2897450047579932e+01 2.7966927589338901e+00 1.3292774999726870e+01 -5 0 -5
931 1 -9.5157120566614317e-01 2.1033353067671716e+00 1.5792040062167217e+01 -2 0 -1
698 2 9.7929504561092440e+00 9.6156057278697560e+00 1.4302439215819571e-01 2 0 4
385 1 1.5031112080975586e+00 2.7246475445728571e+00 5.6330783678597740e+00 0 0 -2
87 2 1.1079596914113237e+01 -1.0454606016189028e+00 1.8716690894699152e+01 1 0 -3
961 1 1.7352213400101757e+00 -7.3526914997034454e-01 1.4346025259336699e+01 -3 0 -1
42 2 3.4826549244619671e+00 6.5837886847902638e+00 8.6800635714237959e+00 -2 0 3
726 2 -1.8018568458776252e+00 2.5052327325641359e+00 7.9404527768027862e+00 2 0 1
876 2 1.2626420809725964e+01 6.8963312211680066e+00 1.2013366620162106e+01 -3 0 1
769 1 1.3210019271559736e+01 5.5035154247117823e+00 8.1207372629077277e+00 0 0 -3
1002 2 1.1320402001880201e+01 -3.2851386921530334e-02 5.2197328762873383e+00 -1 0 1
369 2 1.3374352676635226e+01 1.0297661029462612e+01 1.7286769923897962e+00 -2 0 0
905 2 8.2173315308677264e+00 8.4104487757646780e+00 9.8512004136318865e-01 -3 0 2
41 2 3.0510501731629329e+00 7.0540513917837941e+00 7.2927129627889169e+00 -2 0 3
748 1 4.7749448259208975e+00 9.3200692950414865e+00 1.0863902305601961e+01 -3 0 1
812 2 1.1334760580070984e+01 5.3308152114655325e+00 1.1083832689617889e+01 -2 0 -1
932 2 -7.7747758524328159e-01 2.2199595234889968e+00 1.4859416800679753e+01 -2 0 -1
621 2 -5.6172275653245221e+00 8.5800676269549641e+00 1.8362512179943529e+01 -3 0 -1
213 2 9.1462847919752228e+00 2.7178232869574313e+00 6.1878823311728928e+00 -5 0 -2
764 2 1.2385248537809357e+01 9.8948892450291126e+00 1.2368441898415554e+01 -4 0 -3
991 1 1.4449802087710959e+01 -9.2832418566812280e-01 9.2463611380989423e+00 1 0 1
338 2 1.5686968703710074e+00 7.6229021167312325e+00 5.5459168476738698e+00 -1 0 -1
938 2 1.5039448662202908e+01 5.5006579501534905e+00 3.2003189023660834e+00 1 0 1
969 2 2.0641568532900574e+00 3.6852172858758321e+00 1.0878337909959736e+01 -1 0 1
545 2 2.4685531409202834e+00 1.0607331154010162e+00 1.4605975096769214e+01 2 0 1
386 2 1.4855666138412329e+00 2.9181864007176195e+00 4.6721339827844703e+00 0 0 -2
937 1 1.5454521280441595e+01 5.9897377636120996e+00 3.9525366686951875e+00 1 0 2
40 1 2.6216145595046205e+00 6.9009226104395225e+00 8.1477659192172034e+00 -2 0 3
786 2 2.0484537084805572e+00 3.6263492812428542e+00 2.5263511474288438e+00 -3 0 -2
889 1 1.1238288206216263e+01 -1.5786900646845812e+00 6.1608553945252016e+00 -1 0 0
724 1 -2.1747947932668099e+00 2.3504199881543890e+00 6.9816960140216251e+00 2 0 1
784 1 1.6022722346469125e+00 2.9262423625248797e+00 3.0266206477785187e+00 -3 0 -2
967 1 1.8336078254204633e+00 3.3856367828485086e+00 1.0018296080053048e+01 -1 0 1
553 1 8.0377404847109730e+00 2.7380753993880980e+00 1.5977981775896295e+01 -5 0 -2
681 2 6.2339279152825808e+00 4.0316959972925330e+00 1.8227591414003950e+01 -3 0 -3
649 1 7.5763625906822796e+00 1.4927513285411393e+00 6.1691054737437634e+00 -4 0 0
650 2 6.9318021658827114e+00 1.7230483800611829e+00 6.8560907628479519e+00 -4 0 0
51 2 9.7101201750311201e+00 3.6382140766747568e+00 1.0464814999430308e+01 -1 0 0
36 2 1.5980263346419216e+01 1.3831662456211120e+00 2.6947135639050503e+00 -2 0 0
945 2 2.9772383359927419e+00 2.2519369336339157e+00 5.7944479356097442e+00 0 0 3
673 1 4.9841799133700954e-01 6.2121636636505535e+00 1.2653565585063258e+00 0 0 -3
939 2 1.6065450141927926e+01 6.6388310545589757e+00 3.5176037565429192e+00 1 0 1
397 1 1.3907173640789846e+01 8.1914507835701507e+00 4.7641421143619382e+00 2 0 0
127 1 1.4687061778616730e+01 5.1304123180851215e+00 1.5787701924759170e+00 -2 0 -1
128 2 1.3826409764646115e+01 4.6078491077853991e+00 1.5446394311362623e+00 -2 0 -1
1407 2 1.4441870589707126e+01 8.7545143627357156e+00 5.3644838439411053e+00 2 0 0
34 1 1.5082454190360014e+01 1.1181696416285067e+00 2.9634348677234161e+00 -2 0 0
928 1 1.4427017195333637e+01 4.5688281991197996e+00 5.9766760739028637e+00 0 0 0
344 2 1.1607512736468276e+01 -1.6341035329286395e+00 1.5426978429756499e+01 -2 0 1
152 2 6.5576098236468505e+00 1.4909704717191521e+00 3.0739419360838389e+00 3 0 0
439 1 4.8118016488694515e-01 5.5770463064260554e+00 1.3877470309804217e+01 -2 0 -2
350 2 1.4082904912304492e+01 1.6849654420267801e-01 4.7522371539505365e-01 2 0 4
1006 1 1.5055538353544527e+01 1.0090018467066827e+01 6.5660979491161582e+00 -3 0 -2
176 2 4.4431325056047735e+00 -8.4758743264131187e-01 1.2468287009707396e+01 -5 0 1
783 2 3.0929056652943130e+00 4.2107224069017999e+00 7.1829535779780829e-01 -2 0 -2
148 1 9.4020357612338685e+00 7.1420120040582162e+00 1.7376483666436421e+01 -4 0 -1
994 1 4.8528101844842855e+00 5.8125643617545375e+00 9.4721096179960913e+00 3 0 1
725 2 1.5452103837206110e+01 3.1994119599094351e+00 6.6492534589071397e+00 1 0 1
710 2 3.6496458607895352e+00 9.3531095378422524e+00 1.3581930193981936e+01 -3 0 -2
129 2 1.4436639503883173e+01 5.9842937920963193e+00 1.1702838981706456e+00 -2 0 -1
429 2 -4.1120509602478350e+00 9.1428907822596628e+00 1.6594348664098412e+01 0 0 -1
173 2 9.8591444478591796e+00 1.6377841255403718e+00 1.2489256989126712e+01 -1 0 -2
335 2 7.6206216817613281e+00 1.0058861018597447e+01 7.3342147042065848e+00 -2 0 -2
504 2 5.0474451732858565e+00 -7.3159569078261433e-01 8.9366111842985720e+00 0 0 -1
531 2 7.0845760867985135e+00 -6.5292805814913013e-01 3.5688972475841654e+00 -1 0 0
462 2 8.4121939525835536e+00 6.9054573019975489e+00 1.2072319520654752e+01 -4 0 -2
651 2 7.0559235727804985e+00 1.2876110435228694e+00 5.3386906835539065e+00 -5 0 0
996 2 5.5616444919743140e+00 6.3933311442884850e+00 9.0912531106469583e+00 3 0 1
611 2 1.4312114287949948e+01 2.6525277280412443e+00 1.0086701694983191e+01 -1 0 2
858 2 4.1630358899362685e-01 9.6331416600306738e+00 5.9996219415727206e+00 -1 0 -3
164 2 1.0854167474919866e+01 8.3815871181330444e+00 1.2008163813427547e+01 2 0 1
749 2 4.9108721072556083e+00 8.3799042551893947e+00 1.1097437473690164e+01 -3 0 1
102 2 4.5949335922002961e+00 6.8885195300242774e+00 1.2770618704731325e+01 -1 0 -1
497 2 4.9318164085783369e+00 2.8500373316079806e+00 9.0151096976522567e+00 0 0 1
498 2 4.2215099024167930e+00 2.9046953548449466e+00 7.6444084110601649e+00 0 0 1
395 2 9.4202623526467306e+00 3.7268555241391255e+00 1.4179663711793447e+00 -3 0 -3
924 2 2.6962576480518381e+00 8.6316078071623412e+00 1.5890634834465995e+01 -3 0 -3
349 1 1.3552463422546758e+01 9.9603493732510939e-01 7.5577055450126285e-01 2 0 4
679 1 6.4295025049469761e+00 3.0904254347990534e+00 1.8045739008854770e+01 -3 0 -3
398 2 1.4394883122107489e+01 7.3715342363280190e+00 4.5598423592201893e+00 2 0 0
540 2 2.0609466085739676e+00 1.3274568980692005e+00 2.1896148159583855e+00 -4 0 -3
980 2 1.3939809658608748e+01 8.8365584997547462e+00 8.0739553099281132e+00 -2 0 0
321 2 1.1186772110185498e+01 -4.6213707842074325e-01 1.3660757669989890e+01 -4 0 -3
943 1 3.9628362053064565e+00 2.2258592461896547e+00 6.0258030324493985e+00 0 0 3
979 1 1.3755524881527315e+01 8.2353740112246907e+00 8.8203438929246989e+00 -2 0 0
978 2 5.6692600328865792e+00 -1.3985044508773075e+00 1.6807895143463384e+01 -3 0 -1
220 1 2.4862132727554442e-01 8.4547456506214189e+00 1.7755261218222692e+01 -2 0 -3
172 1 9.3592517476256809e+00 2.0969034698919300e+00 1.3179960816273352e+01 -1 0 -2
298 1 -5.3550619638466879e+00 1.9639649138194084e+00 1.7333421807270447e+01 -2 0 -2
680 2 5.5613465191141458e+00 2.7241790516492621e+00 1.7708318429450813e+01 -3 0 -3
561 2 8.4372486324743985e+00 1.6045107349867505e-01 6.7210587651880225e+00 -2 0 1
538 1 2.1075884049896580e+00 3.7439176164983534e-01 2.0485806036392709e+00 -4 0 -3
944 2 4.3659500632808159e+00 2.8546596712586405e+00 5.3589080215202065e+00 0 0 3
100 1 4.0027395731911177e+00 6.6098318941935208e+00 1.2027736989293196e+01 -1 0 -1
1667 2 5.4449846857095530e+00 3.1170827936904590e+00 1.4599543439644568e+01 -1 1 -2
352 1 1.0140197318435026e+01 8.7142501742135448e+00 8.8378070265254873e+00 -1 0 0
174 2 8.9771879256130234e+00 2.8332097247108905e+00 1.2705323785302971e+01 -1 0 -2
388 1 1.4459201223449163e+01 -1.0298050223004858e+00 4.6770237529692560e+00 -1 0 0
846 2 6.5719381881507273e+00 -1.4115958459339772e+00 1.1369812791811643e+01 1 0 1
714 2 -1.1745062501549342e+00 -5.0633102960574417e-01 1.1376416042396498e+01 0 0 3
460 1 8.4453575535958798e+00 6.2224098493040954e+00 1.1355396436025435e+01 -4 0 -2
607 1 4.5276014931076709e+00 -5.9818214522591417e-01 2.9713320142949171e+00 -3 0 0
167 2 9.9777729937260329e+00 8.4229835464968215e+00 2.3376868404940190e+00 -4 0 -4
670 1 -1.2955259216889825e-01 -1.0757422170590250e+00 7.2646455074869856e+00 -3 0 -1
320 2 1.0026597384600116e+01 -1.3934018839377795e+00 1.3902434974886253e+01 -4 0 -3
595 1 9.6962879508516409e-01 4.9692680001438152e+00 7.0869115041533126e+00 3 0 -2
528 2 4.5027879122932406e+00 7.0594678885606799e-01 6.4300183825770434e+00 -2 0 -1
109 1 -1.4081185023343679e-01 -5.1667075691745645e-01 1.6530465883788075e+01 1 0 -4
615 2 -3.5428012817278542e-01 1.7760830786099602e+00 1.8294031879994883e+01 -2 0 -1
336 2 8.7193391807187322e+00 9.5618780421967262e+00 8.5191707607553990e+00 -2 0 -2
461 2 9.3506718913872504e+00 5.8717237362338741e+00 1.1449671567710226e+01 -4 0 -2
599 2 -1.9467896000149285e+00 -1.5572332763265218e-01 9.6267672249712408e+00 -3 0 1
408 2 1.8429229403815417e+00 1.8375043865340146e+00 1.0734281055687921e+01 -2 0 -2
20 2 1.2722853467620787e+01 3.2788750539222713e+00 2.9130948870063427e+00 -3 0 -3
182 2 1.0255625019429694e+01 5.2279757336526451e+00 3.0538444337798798e+00 -1 0 0
35 2 1.4555324464411864e+01 1.1877878040365974e+00 2.1675861897286253e+00 -2 0 0
609 2 4.1020125222274153e+00 -1.4105181695416904e+00 3.4510167638427971e+00 -3 0 0
511 1 7.3710691143440803e+00 -1.4605429153917799e+00 1.6171154406523844e+01 1 0 0
475 1 6.9444544544645179e+00 3.7193741179832793e+00 1.1989015354979033e+01 -1 0 2
68 2 5.5402416450984537e+00 7.9272816287839003e+00 1.4910799962492122e+01 -4 0 -3
526 1 4.8710610297323491e+00 -1.8962496247194593e-01 6.5213820559381022e+00 -2 0 0
133 1 -6.7316614572443578e-01 2.6298900404056820e+00 9.6071048850327543e+00 1 0 -1
610 1 1.3827917248097801e+01 2.6788352247359262e+00 9.2354918681177445e+00 -1 0 2
675 2 1.8249568149080708e-01 6.5857327575207112e+00 2.1054793894612627e+00 0 0 -3
727 1 8.4007607545878926e+00 8.2447229753242475e+00 1.3364848022903590e+01 0 0 1
300 2 -5.2107086199804993e+00 1.2022933375632903e+00 1.7909673128820391e+01 -2 0 -2
697 1 3.3875726302314710e+00 1.0376246033781012e+01 1.8688923574652396e+01 2 0 3
782 2 2.0913506870562615e+00 5.2877032800940125e+00 1.2367443604225024e+00 -2 0 -2
690 2 -1.2585939386398359e+00 1.3043052145482301e+00 6.0591873321047744e+00 -2 0 0
738 2 1.0995786623797326e+01 1.0187453749822085e+01 5.8854729722688619e+00 -1 0 1
950 2 2.3222805376759283e+00 -1.8139446110772384e-01 4.2583419785996940e-01 -1 0 2
113 2 8.2773637822321007e+00 7.9083779765954221e-01 1.3641404418171795e+01 -2 0 -1
82 1 -1.7165037577422946e+00 9.9483776177932679e+00 9.1083127892847475e+00 0 0 -2
762 2 7.9733905787110970e+00 -1.2190964476866304e+00 1.6126346019591087e+00 -3 0 2
222 2 -1.2815032471559906e-01 9.3514602705542949e+00 1.7618127673695820e+01 -2 0 -3
713 2 -9.0020143758605098e-01 -1.4353397279932183e+00 1.2678298260564524e+01 0 0 3
67 1 5.7196954602718462e+00 7.4075919193946831e+00 1.4092027919749727e+01 -4 0 -3
165 2 1.0680829801815648e+01 8.8100397172548579e+00 1.0527948192053955e+01 2 0 0
114 2 6.8095635854587551e+00 8.5848932863498728e-01 1.3944899043213466e+01 -2 0 -1
425 2 1.2831941189712966e+01 1.7238348988316834e+00 4.5807068652468876e+00 -2 0 1
544 1 2.8386418422658739e+00 1.9398703332983542e+00 1.4579670432338732e+01 2 0 1
875 2 1.2866686739509710e+01 7.0065854283673730e+00 1.0374159674898067e+01 -3 0 1
1001 2 1.0668260796878236e+01 1.2729565478062721e+00 5.2284930997191239e+00 -1 0 1
496 1 4.2571382632778620e+00 3.3493319307170379e+00 8.5089707828168528e+00 0 0 1
993 2 1.3558098074490687e+01 -7.8097405571077938e-01 9.5856786421045381e+00 1 0 1
337 1 1.4087733990703335e+00 6.8125434054895120e+00 5.0068273674945916e+00 -1 0 -1
709 1 3.8473935123218013e+00 1.0243486953433843e+01 1.3174796784446995e+01 -3 0 -2
221 2 -4.3616366187789701e-01 7.9649654869782722e+00 1.8117457344660913e+01 -2 0 -3
619 1 -6.4561472083222071e+00 8.2381830590826883e+00 1.8768023858549473e+01 -3 0 -1
583 1 -5.3868653479535578e-01 7.2909271371182456e+00 1.2012191923872688e+01 -4 0 -4
584 2 -8.3494312764463574e-01 8.0086559795571599e+00 1.2696832290248349e+01 -4 0 -4
641 2 -4.5476685466281763e-01 6.9293312822717912e+00 8.5943918361490130e+00 4 0 -1
110 2 -6.3958043207838600e-02 4.6375609382699778e-01 1.6572401904573059e+01 1 0 -4
389 2 1.4042834857548900e+01 -7.4926148532941073e-01 5.5091759219661691e+00 -1 0 0
47 2 6.7309624262557568e+00 4.4754918648165800e+00 4.7756551053304159e+00 -3 0 0
207 2 4.5801789383483378e+00 1.3744280997031915e+00 1.2957000390178798e+01 3 0 0
808 1 8.0936894700996813e+00 4.7501241159825627e+00 7.7762856022983655e+00 -4 0 -1
503 2 4.2593813797029103e+00 -1.3536586775453703e+00 1.0075100118906704e+01 0 0 0
577 1 3.7206307233126150e+00 6.2790113986000327e+00 1.7225648494321440e+01 0 0 0
19 1 1.2498561148657535e+01 3.6187965296885887e+00 2.0538652374429249e+00 -3 0 -3
1000 1 1.1226227616733047e+01 7.3502744849438928e-01 4.6385787498634690e+00 -1 0 1
294 2 -3.5041299432137603e+00 5.8726606132005541e+00 1.1072403787634952e+01 1 0 -3
390 2 1.4630425606966751e+01 -2.3729936585640310e-01 4.1347222376828405e+00 -1 0 0
539 2 3.0021319534988797e+00 1.1042763862881011e-01 2.4431505363282326e+00 -4 0 -3
521 2 8.7021367918844863e+00 -3.2234374604922511e-03 8.8909999580902337e+00 -5 0 -2
813 2 1.1028613648488751e+01 4.3940037840277215e+00 1.2323909879117513e+01 -2 0 -1
912 2 1.2911144530444581e+01 6.6651244500666262e-01 7.0976082676683685e+00 -2 0 1
83 2 -1.1911500544553106e+00 9.1322755236794109e+00 9.0422637628489912e+00 0 0 -3
711 2 4.0637431742403871e+00 9.8911576552575600e+00 1.2287778491010984e+01 -3 0 -2
771 2 1.2179338474552031e+01 5.6306327450379081e+00 8.0624311328902056e+00 0 0 -3
962 2 1.2971727302340312e+00 -1.3682592180804529e+00 1.3777246615423220e+01 -3 0 -1
809 2 7.8210055225801423e+00 5.5182857726578209e+00 8.3782633281289005e+00 -4 0 -1
866 2 1.1233272602636291e+00 4.8901262481424324e+00 1.8621379916828676e+01 -3 0 -1
94 1 -1.5823390507459179e+00 5.6784081297008600e+00 8.4479818763075194e+00 -1 0 -1
225 2 4.6377107163923386e+00 7.7670370637756392e+00 5.2216584893647788e-01 -2 0 -1
770 2 1.3481098432089123e+01 5.0619828181120567e+00 7.2108264550200456e+00 0 0 -3
123 2 1.1880686465440871e+01 4.3553219277870099e+00 1.4446384862045250e+01 -2 0 -1
440 2 4.1913201477274953e-02 6.1281437933358944e+00 1.3201997208658097e+01 -2 0 -2
383 2 1.6046750660045664e+01 4.4864112107830501e+00 6.6463786178247974e-01 -2 0 1
745 1 -3.7794270940433217e+00 9.1349025124150778e+00 1.4670495308980088e+01 -2 0 0
499 1 -2.8662005732745222e-01 1.7448979615598281e+00 1.2993147217661082e+01 1 0 1
910 1 1.3824738742923389e+01 4.0676277075404021e-01 6.9451883510349290e+00 -2 0 1
546 2 3.5961830686237368e+00 1.8687838945447237e+00 1.5194930893600162e+01 2 0 1
777 2 1.2140752038361212e+01 6.9876725086067903e-02 8.6322054081784316e-01 -2 0 2
729 2 9.1124513001713652e+00 8.5171856871589426e+00 1.4084353498580230e+01 0 0 1
612 2 1.3801654314082089e+01 3.6363518143626585e+00 9.0792415928451060e+00 -1 0 1
674 2 2.9500469711901645e-01 6.9816976297878686e+00 6.9831024941822706e-01 0 0 -3
121 1 1.1533173294676889e+01 3.7934836169580937e+00 1.3677240904419207e+01 -2 0 -1
911 2 1.4397399343042554e+01 1.2224477399443554e+00 7.0162347972725314e+00 -2 0 1
424 1 1.3412647029632639e+01 2.4846388774941897e+00 4.5735129511034680e+00 -2 0 1
811 1 1.0675294588850395e+01 4.7088130281972500e+00 1.1412315467116436e+01 -2 0 -1