LAMMPS data file via write_data, version 3 Mar 2020, timestep = 1000000

1008 atoms
2 atom types

2.2046857480317783e-01 1.8179086425192416e+01 xlo xhi
1.8684804522495213e-02 2.2551704195471800e+01 ylo yhi
2.0253564322264417e-01 1.9303180356771392e+01 zlo zhi
-3.3591448511602874e-02 -6.7394278946243729e+00 -6.4934484456602617e-02 xy xz yz

Masses

1 16
2 2

Atoms # atomic

1 1 6.6304288799573605e+00 1.2984905197515966e+00 4.6614300008366119e+00 0 0 0
219 2 6.3545486011267425e+00 1.0336700651362822e+01 7.0722804280121165e+00 0 0 0
3 2 6.5890051249616253e+00 1.7738955547479740e+00 3.8015957458502552e+00 0 0 0
4 1 3.7623166567556603e+00 9.1370954769319523e-01 5.2548351783216152e+00 0 0 0
5 2 4.7272888546233105e+00 7.7079597914399123e-01 5.0095702820643906e+00 0 0 0
6 2 3.7155511340174225e+00 1.5405235809612161e+00 6.0521935857772435e+00 0 0 0
7 1 -5.3796814905726797e-01 6.3492479401344744e+00 5.1822344212806151e+00 0 0 0
8 2 -3.7625663419014299e-01 5.8177025964272771e+00 5.9991429493732555e+00 0 0 0
9 2 -1.3107211761200248e+00 6.8357003831248511e+00 5.1712124084747071e+00 0 0 0
10 1 2.1022707957590780e+00 6.5859965359896000e+00 4.8999072242673716e+00 0 0 0
11 2 1.1407132290331323e+00 6.6873660508207671e+00 4.9518368287107446e+00 0 0 0
12 2 2.4356396015275359e+00 7.4641325153354305e+00 5.1015599528305664e+00 0 0 0
301 1 1.5495039602761997e+01 1.0813122000847001e+01 6.4161939493081048e+00 0 0 0
14 2 4.6161434760456430e+00 5.2929315174767639e+00 8.8564000218369632e+00 0 0 0
331 1 1.5975160178926448e+01 8.9071281012449433e+00 4.2398878070782053e-01 0 0 0
135 2 1.5950699819211144e+01 2.4749321251197691e+00 6.2081967335849697e+00 0 0 0
18 2 5.7186088644471802e+00 4.9674514229306110e+00 1.0921412728036322e+00 0 0 0
224 2 -5.6370135270498389e-02 1.0934173889907193e+01 4.2344039606108170e+00 0 0 0
836 2 1.2577517236900780e+01 9.3692808341532814e+00 9.2056761402513043e+00 0 0 0
21 2 1.2763514849001714e+00 2.6065439713945247e+00 8.8584768260328461e-01 0 0 0
606 2 1.0507784548178270e+01 3.8330228899038636e+00 9.6882051458616143e+00 0 0 0
583 1 3.4949204079155103e+00 1.2646872329829819e+00 9.6467282713092608e+00 0 0 0
2 2 7.4287775558711999e+00 7.3891098016482248e-01 4.6324429887241507e+00 0 0 0
25 1 4.5578240148204756e+00 6.4157788423349258e+00 7.5890245165228798e+00 0 0 0
26 2 5.1727521880154468e+00 7.1391469639757954e+00 7.8354409221412569e+00 0 0 0
27 2 3.6691312741056672e+00 6.7099943299570786e+00 7.8759797932585114e+00 0 0 0
28 1 5.9540217581075359e+00 5.9220550265991534e+00 2.5107769525636128e+00 0 0 0
29 2 5.6603461021502461e+00 5.6799842229382431e+00 3.4575973783174341e+00 0 0 0
30 2 5.4663850516949388e+00 6.6679148735574216e+00 2.1563729320885949e+00 0 0 0
31 1 1.1708427614581354e+00 1.5340954058693905e+00 2.8499315128904263e+00 0 0 0
32 2 2.1082648024501358e+00 1.1436639097901014e+00 2.7624115370976230e+00 0 0 0
33 2 9.8832070882001855e-01 1.6254018178196512e+00 3.7747634142464563e+00 0 0 0
34 1 2.5982513711415400e-01 1.2637832029123410e+00 7.4736623124771313e+00 0 0 0
35 2 -6.2285449871926191e-01 8.2599947047387401e-01 7.6478147552712121e+00 0 0 0
36 2 2.0537562615916549e-01 1.9093584681058933e+00 8.3523025951067122e+00 0 0 0
37 1 6.3552108789082933e+00 2.7491221104367471e+00 2.4884816274552941e+00 0 0 0
38 2 5.4885335030691262e+00 3.1509727413683075e+00 2.6609875386532789e+00 0 0 0
39 2 7.0193332852774759e+00 3.3607023302134764e+00 2.7977684236435008e+00 0 0 0
40 1 4.2133955100414830e+00 2.5448994872934052e+00 7.1802096769234360e+00 0 0 0
41 2 5.1369635680121224e+00 2.8065247520290684e+00 6.9857987114332287e+00 0 0 0
42 2 3.6653659888206507e+00 3.3908788424370062e+00 7.1644899718663915e+00 0 0 0
43 1 -1.1627372228796418e-01 4.7967963594749428e+00 7.5657289090723507e+00 0 0 0
44 2 -8.4188514270225112e-01 4.2455699943009426e+00 7.1839870486970723e+00 0 0 0
45 2 -4.4925292944439965e-01 5.2472574402263961e+00 8.3369923045652303e+00 0 0 0
46 1 1.6761083505592893e+00 4.8590770359876867e+00 2.5558206166393393e+00 0 0 0
47 2 7.9648525768615652e-01 4.4935416640744856e+00 2.8249195467258312e+00 0 0 0
48 2 1.8604202450057394e+00 5.5370217398906982e+00 3.2576522591811261e+00 0 0 0
49 1 6.6465202502818084e+00 3.3945813116470274e+00 6.2156244003095926e+00 0 0 0
50 2 6.3101304354808416e+00 4.0897277839791970e+00 5.6266411779162135e+00 0 0 0
51 2 6.8150683292826439e+00 2.6002139324037978e+00 5.6375631937667672e+00 0 0 0
52 1 3.8727249649509803e+00 3.4106663901278083e+00 3.4249423410086557e+00 0 0 0
53 2 3.1093110491798686e+00 3.6985504097273281e+00 2.9390279199351816e+00 0 0 0
54 2 3.6321641848301565e+00 2.5792571600771215e+00 3.9176632404697722e+00 0 0 0
55 1 -8.1443817364161064e-01 4.1700090001549457e+00 3.4227231263874609e+00 0 0 0
56 2 -1.0416066892307676e+00 5.0034463629068684e+00 3.8687583774397045e+00 0 0 0
57 2 -2.9807607405776082e-01 3.7355121013102197e+00 4.1787371832247047e+00 0 0 0
58 1 2.2985679998831596e+00 4.3027853953860919e+00 6.3676855744060825e+00 0 0 0
59 2 2.4208222146815972e+00 5.1885644698748106e+00 5.9498047830832164e+00 0 0 0
60 2 1.5569912800282486e+00 4.4616584688179088e+00 6.9880222275697434e+00 0 0 0
61 1 8.2336233259162412e+00 6.9537600612564363e+00 1.8812307823334664e+00 0 0 0
62 2 7.3958551973811550e+00 6.5865037583788615e+00 2.3885448805241629e+00 0 0 0
63 2 8.3685888307109586e+00 6.2698772995222889e+00 1.1803727719227162e+00 0 0 0
64 1 2.1269920257580113e+00 7.2154464586827576e+00 8.2993311937503087e+00 0 0 0
65 2 1.3013442732111669e+00 7.6010218293003762e+00 7.8160967408326325e+00 0 0 0
66 2 2.5567100362651192e+00 7.8314772840013891e+00 8.9260676082934172e+00 0 0 0
305 2 1.2086091235412983e+01 1.0621406870008537e+01 3.2115185160269104e+00 0 0 0
68 2 -2.3424147530683639e+00 1.2004789889024547e+00 8.7184661512594168e+00 0 0 0
668 2 1.2888144186413090e+01 1.8130662682368746e+00 9.1160732158569626e+00 0 0 0
72 2 3.7800414964382938e+00 1.3009526095134283e+00 1.4906082470568143e+00 0 0 0
73 1 5.1234006881460878e+00 5.3757088936502848e+00 4.8640628593499091e+00 0 0 0
74 2 4.7667978213860414e+00 5.8881588727171534e+00 5.6460736318338487e+00 0 0 0
75 2 4.4213861926268887e+00 4.6740927748640315e+00 4.6926802472669635e+00 0 0 0
76 1 5.7685838741314033e-01 2.6262154036261567e+00 5.1101086262937256e+00 0 0 0
77 2 3.9684741443693028e-01 2.1178662705145377e+00 5.9207502298301664e+00 0 0 0
78 2 1.2501315482498401e+00 3.2587902396003749e+00 5.4440227697295107e+00 0 0 0
80 2 6.7825773194744405e+00 2.0143824830298303e+00 9.2772919841559320e-01 0 0 0
22 1 1.2552717089075482e-01 2.8304238889398197e+00 9.6288021999728777e+00 0 0 0
587 2 -1.9136967974895045e+00 6.4249680933167577e+00 9.4118438197353882e+00 0 0 0
85 1 1.5791658214501123e+01 1.0379773106806687e+00 5.0970746689327351e+00 0 0 0
87 2 1.5757825539365452e+01 1.5677228444705327e+00 4.2529820013830140e+00 0 0 0
88 1 1.3057246612817465e+01 9.9048015285773527e-01 5.4759452445040031e+00 0 0 0
89 2 1.2903186756910820e+01 1.7308841742924401e+00 4.8572671881998568e+00 0 0 0
90 2 1.4093278590178551e+01 8.7762750074114604e-01 5.4972283511410041e+00 0 0 0
91 1 8.2349612669514247e+00 6.5194971611835859e+00 5.2383991575774536e+00 0 0 0
92 2 8.0316082026871207e+00 5.9127872094476785e+00 4.5304171348631801e+00 0 0 0
93 2 9.1667542568800116e+00 6.7594297962831655e+00 4.9665106569446618e+00 0 0 0
94 1 1.0950153798793076e+01 6.4868063212267435e+00 4.7583671555829365e+00 0 0 0
95 2 1.1478054623407811e+01 7.2523672215289796e+00 5.0394091778063599e+00 0 0 0
96 2 1.0821158716237447e+01 5.8425954229647106e+00 5.4348934303319787e+00 0 0 0
163 1 1.6075641406205470e+01 1.3172163201936331e+00 2.8915366498449135e-01 0 0 0
248 2 7.4646598019657295e+00 8.0034379856530506e+00 8.4324123916528082e-01 0 0 0
399 2 8.0728541970761896e+00 4.9735052163526161e-01 1.1363125005014778e+00 0 0 0
101 2 1.4473641169053980e+01 5.1075525319994250e+00 1.1594800789319852e+00 0 0 0
220 1 3.8976479037702791e+00 1.1026091122112312e+01 3.4851499107401556e+00 0 0 0
83 2 2.0826073456388592e+00 5.4052969835636615e+00 9.5695888572809118e-01 0 0 0
187 1 1.4047489694166062e+00 1.0198328420429952e+01 7.0477683230463273e-01 0 0 0
670 1 8.0359650351274432e+00 6.4093639657028900e+00 9.7192566569610648e+00 0 0 0
109 1 1.3354312477949360e+01 6.2390681765901066e+00 7.4705724334962360e+00 0 0 0
110 2 1.3377805201769721e+01 5.7092081856228294e+00 8.2848839318367133e+00 0 0 0
111 2 1.2515045039552689e+01 6.7793120950007868e+00 7.4585053272475701e+00 0 0 0
112 1 1.4681866874060116e+01 6.0846475840977883e+00 2.8110914710411294e+00 0 0 0
113 2 1.3918102294469131e+01 6.6644406217439629e+00 2.5998537164885609e+00 0 0 0
114 2 1.5413196463301393e+01 6.7034699336844206e+00 2.6226180432293602e+00 0 0 0
115 1 1.0380538824346566e+01 1.5013615967159499e+00 2.7328772523144678e+00 0 0 0
116 2 1.0622491711835512e+01 2.1172199789886239e+00 2.0753399697790726e+00 0 0 0
70 1 3.4308188701402766e+00 5.7474827405115714e-01 2.0290889382774351e+00 0 0 0
118 1 9.2903806300092047e+00 1.0591544906402617e+00 7.2532022701426309e+00 0 0 0
119 2 9.5131465031935143e+00 1.7125011351205313e+00 7.9801871331107499e+00 0 0 0
120 2 9.2351287030621592e+00 1.6269423306081849e+00 6.4436661239909521e+00 0 0 0
121 1 1.5317977810248255e+01 2.4217694948432809e+00 2.5447686754515169e+00 0 0 0
122 2 1.5917987860106150e+01 3.1989750352433299e+00 2.6845228981512430e+00 0 0 0
123 2 1.5612166942375127e+01 1.9147560178246454e+00 1.7202773595847005e+00 0 0 0
124 1 1.3017492677903228e+01 2.8687050946625323e+00 7.6431909276345351e+00 0 0 0
125 2 1.3926480177438602e+01 3.1517065668589117e+00 7.4353316950286548e+00 0 0 0
126 2 1.2925396701629484e+01 2.0991998341987310e+00 7.0191809206469573e+00 0 0 0
127 1 8.7065324462951512e+00 5.1079300236719476e+00 7.4641122193485723e+00 0 0 0
128 2 8.0139574687858577e+00 4.4361992861479873e+00 7.2479379263583432e+00 0 0 0
129 2 8.5853158016273881e+00 5.7747896953722009e+00 6.8264423957780220e+00 0 0 0
130 1 1.0961918781148453e+01 4.5818156344679082e+00 2.5284530610097984e+00 0 0 0
131 2 1.1701744217684576e+01 3.9290174785799170e+00 2.8166732731646036e+00 0 0 0
132 2 1.1088359187809065e+01 5.3342036017269443e+00 3.1499904173679294e+00 0 0 0
134 2 1.5404292604786297e+01 3.9288395447707969e+00 6.0268866014984290e+00 0 0 0
136 1 1.3031963699232469e+01 3.2206087409700173e+00 3.6771752622730998e+00 0 0 0
137 2 1.3362103648007400e+01 4.0054705426812145e+00 4.2108941861526441e+00 0 0 0
138 2 1.3753111898426649e+01 2.8995525882625488e+00 3.1525286049380781e+00 0 0 0
139 1 8.2283342329381703e+00 4.3240190902222349e+00 3.7069575409379505e+00 0 0 0
140 2 8.9144013173258099e+00 4.4258288189602428e+00 3.0274037492351269e+00 0 0 0
141 2 8.6526873556886574e+00 3.7290579012141478e+00 4.3978276138634307e+00 0 0 0
142 1 1.1051954046052739e+01 4.3295756695701924e+00 6.5878853043789602e+00 0 0 0
143 2 1.1848784301917791e+01 4.0783991467488763e+00 7.1635054994003351e+00 0 0 0
144 2 1.0277226036928363e+01 4.7120711218389806e+00 7.1570074621507436e+00 0 0 0
147 2 1.6978383884347775e+01 7.8170950479194099e+00 1.3562869187390496e+00 0 0 0
148 1 1.0781596879826662e+01 7.2162485913196788e+00 8.5285869536551537e+00 0 0 0
149 2 1.0664356842854573e+01 6.3721715381208259e+00 9.0058968841271483e+00 0 0 0
150 2 1.1369816390095011e+01 7.7623745741505283e+00 9.0921720441721163e+00 0 0 0
103 1 1.0195570402432844e+01 2.8709603417793006e+00 2.8342114531553153e-01 0 0 0
584 2 2.7269933907938566e+00 8.0016722691849340e-01 9.2467800197599956e+00 0 0 0
153 2 6.5737878533334122e+00 1.3741154012216021e+00 8.6976081729109396e+00 0 0 0
217 1 6.8353405088280965e+00 1.0779199099702856e+01 6.3480243483632366e+00 0 0 0
155 2 1.3214766198229020e+01 1.3408493569568420e+00 1.1467143708574965e+00 0 0 0
100 1 1.4807506059857992e+01 4.7136361149574375e+00 3.2700652046787393e-01 0 0 0
157 1 1.4229951584798204e+01 5.0203542247301431e+00 5.0882651600802298e+00 0 0 0
158 2 1.4535702682839986e+01 5.4460993023131170e+00 4.2241938240953489e+00 0 0 0
159 2 1.3636368610591926e+01 5.4833517731299972e+00 5.6530560599459774e+00 0 0 0
160 1 9.5812452036513829e+00 2.6754921823404807e+00 5.1659107020133233e+00 0 0 0
161 2 1.0267259826678833e+01 3.3554263802938644e+00 5.5243398698488857e+00 0 0 0
162 2 1.0015276513045588e+01 2.1713050303636443e+00 4.4228944496439295e+00 0 0 0
67 1 -2.0573485822257771e+00 3.5085596207728559e-01 8.3551956273833916e+00 0 0 0
154 1 1.2927561520673937e+01 5.6279993170854536e-01 1.6908232190037960e+00 0 0 0
169 1 6.4479658302861038e+00 8.6370869392512493e+00 4.6660670025109106e+00 0 0 0
170 2 6.9596540964290590e+00 7.8362713095972492e+00 4.9880489488121533e+00 0 0 0
171 2 6.6286396428990679e+00 9.4176658113074634e+00 5.2097154990351680e+00 0 0 0
172 1 3.8829710618721869e+00 8.9882457529751516e+00 5.1732163000461968e+00 0 0 0
173 2 3.8189985052431932e+00 9.7742234475304972e+00 4.5108821101031138e+00 0 0 0
174 2 4.7911767020145728e+00 8.6892838366495617e+00 5.0103304699917715e+00 0 0 0
521 2 1.7673645043909225e+00 5.6439501264878906e+00 9.1880627942193822e+00 0 0 0
145 1 1.7466719098124315e+01 7.0951118690506467e+00 1.7837051802163595e+00 0 0 0
486 2 1.1699540609085544e+01 1.8461628941985733e-01 8.6486068885878673e+00 0 0 0
192 2 6.4497202819322830e-01 9.8696357580236054e+00 8.7083844492554352e+00 0 0 0
199 1 1.5314584554025585e+00 8.5523995966276871e+00 2.7123090873797384e+00 0 0 0
200 2 1.4363694754218104e+00 9.3119226993331825e+00 2.1183013269667113e+00 0 0 0
201 2 8.3380097678853859e-01 7.9247292396059539e+00 2.5128190731010447e+00 0 0 0
202 1 -3.2979611235068873e-03 8.4724283551590123e+00 7.3202699082305083e+00 0 0 0
203 2 -9.0176589242716521e-01 8.0888728262941552e+00 7.4696481015399456e+00 0 0 0
204 2 2.1194814285836783e-01 8.7534028964127266e+00 6.3751454197244595e+00 0 0 0
205 1 6.2430736228484918e+00 1.0276056881449680e+01 2.5181171437601475e+00 0 0 0
206 2 6.3640916598762551e+00 9.5535210735754852e+00 3.1733726157759241e+00 0 0 0
207 2 6.2839644409900357e+00 9.8375056501534743e+00 1.6417666275121714e+00 0 0 0
208 1 3.8592845887980491e+00 1.0149218623499507e+01 7.5427092419496580e+00 0 0 0
753 2 3.7654711784889461e+00 9.4607533747514054e+00 9.0242521141739100e+00 0 0 0
210 2 3.8238728446578936e+00 9.6595041630704301e+00 6.7022606991949125e+00 0 0 0
304 1 1.2695631495809332e+01 1.0281860638525631e+01 3.8304580459029460e+00 0 0 0
189 2 2.3993071848025469e+00 1.0262855497062253e+01 5.3724307108491476e-01 0 0 0
780 2 1.2940012456016689e+01 9.2615389267978010e+00 5.9522632434634071e-01 0 0 0
302 2 1.4751265845447131e+01 1.0601655263462019e+01 7.0238868136006491e+00 0 0 0
311 2 1.0593862871061054e+01 1.0891275261778418e+01 6.0461097598032110e+00 0 0 0
235 1 -2.4359334118292217e+00 7.9781725945546356e+00 8.3957025373621246e+00 0 0 0
236 2 -2.8644507953266305e+00 8.6544336131240200e+00 9.0077825776750480e+00 0 0 0
238 1 4.1277637958201776e+00 7.6576993969079830e+00 1.4359793199888196e+00 0 0 0
239 2 3.3298562848386934e+00 7.9974948111491884e+00 1.9369395249239592e+00 0 0 0
240 2 4.3101511339514484e+00 8.2979673262829685e+00 7.6016945543384162e-01 0 0 0
244 1 6.8302247603269528e-01 9.6482067490656913e+00 4.9437887336323936e+00 0 0 0
245 2 1.0602395010530781e+00 9.3639428104596618e+00 4.0727778473192195e+00 0 0 0
246 2 1.3737790741254712e+00 1.0105086186880403e+01 5.4323784503314370e+00 0 0 0
293 2 1.2429725616867689e+01 1.0809118123029316e+01 7.5062031783111811e+00 0 0 0
86 2 -1.4351009590805326e+00 3.6552862039474121e-01 4.9920335772479190e+00 1 0 0
253 1 1.5491935840377176e+01 8.3781993088514124e+00 4.7503449445476624e+00 0 0 0
255 2 1.5421467889290762e+01 8.9254707932941866e+00 3.9325309558183466e+00 0 0 0
256 1 1.2831897446852095e+01 8.4170481681493463e+00 5.6100097444245032e+00 0 0 0
257 2 1.3651126715652685e+01 7.9757784025047407e+00 5.3543197676645597e+00 0 0 0
258 2 1.2657833263369069e+01 9.1134006378689794e+00 4.8724091213018497e+00 0 0 0
156 2 1.2095705962165491e+01 8.3437571255139742e-01 2.1506849024632464e+00 0 0 0
272 2 9.8379759322040226e+00 9.6240533342677743e+00 1.0156067685551204e+00 0 0 0
167 2 1.1249735511901589e+01 5.4807310762635373e+00 1.0028124669284695e+00 0 0 0
276 2 9.7155279177891511e+00 1.0074402020431885e+01 8.7541586390328927e+00 0 0 0
283 1 1.0613721585647195e+01 8.5533178249247559e+00 2.6355266759915881e+00 0 0 0
284 2 1.0311852525723314e+01 8.7146283295453486e+00 3.5418347911467101e+00 0 0 0
285 2 1.0204566732372296e+01 7.7396213900898330e+00 2.3934345079402761e+00 0 0 0
286 1 8.8905033503800741e+00 8.9764790989454522e+00 7.4276404924930564e+00 0 0 0
287 2 9.5987898341052365e+00 8.3648302565636463e+00 7.7241346883542858e+00 0 0 0
288 2 8.0589323085232074e+00 8.5276502401736529e+00 7.7106445120933946e+00 0 0 0
289 1 1.5196738768962357e+01 1.0044634154183736e+01 2.6256352391597302e+00 0 0 0
84 2 3.2668317750783871e+00 6.3158457233398337e+00 5.2540530279690278e-01 0 0 0
291 2 1.5540378847970761e+01 9.7575449569083492e+00 1.7594485508213513e+00 0 0 0
292 1 1.3009614981911707e+01 1.0079667566318721e+01 7.7650175337547163e+00 0 0 0
146 2 1.7720442452463672e+01 6.3367708308300221e+00 1.2833819278674898e+00 0 0 0
294 2 1.2987278776398918e+01 9.5282589048783954e+00 6.8996617656803094e+00 0 0 0
221 2 4.7011253242082978e+00 1.0833399365243624e+01 2.9586954483462824e+00 0 0 0
190 1 4.9142101559087559e-01 1.0427487144854110e+01 9.4695617421361948e+00 0 0 0
306 2 1.3531254180575189e+01 1.0166291542894406e+01 3.3291458120504078e+00 0 0 0
290 2 1.5815805258523532e+01 1.0693263902303210e+01 3.0645215384315900e+00 0 0 0
319 1 6.4576554277069356e+00 8.1016241633924206e+00 8.2973406769958569e+00 0 0 0
320 2 6.1887489021187596e+00 8.8812831282183229e+00 8.8143865786994784e+00 0 0 0
321 2 6.9266909975726927e+00 7.4534129773178499e+00 8.9054047572979780e+00 0 0 0
322 1 1.2945449790329823e+01 7.8445801560064892e+00 1.6926273726761609e+00 0 0 0
323 2 1.2249234833160425e+01 8.2367435084560583e+00 2.2811180239478479e+00 0 0 0
324 2 1.2524382721013945e+01 7.1587464583729084e+00 1.1253102442492215e+00 0 0 0
328 1 9.8465373053282939e+00 9.8029282274741814e+00 5.1883248308778134e+00 0 0 0
329 2 9.4001602509561408e+00 9.3634641472788491e+00 5.9705609697141062e+00 0 0 0
330 2 9.1515763883025691e+00 1.0352359386839710e+01 4.7365774972153094e+00 0 0 0
133 1 -2.0400844433247576e+00 3.3676332994910205e+00 6.6221695166262959e+00 1 0 0
13 1 4.6157749324700248e+00 4.7126460018456013e+00 9.6804576769266362e+00 0 0 0
254 2 1.5611602290063420e+01 9.0824363299598030e+00 5.4289754056214283e+00 0 0 0
151 1 6.6181330631081643e+00 5.4498693992429992e-01 8.2124549693807740e+00 0 0 0
165 2 1.6672566773342613e+01 5.7781031827905094e-01 5.4024542413197452e-01 0 0 0
152 2 7.4847223725064387e+00 6.3053029070023847e-01 7.7753828246183456e+00 0 0 0
237 2 1.4776684048128759e+01 7.4281348882743190e+00 8.0209060198991899e+00 0 0 0
401 2 1.3674532327769136e+00 9.6179766541170691e-02 7.6682837971156097e+00 0 0 0
526 1 4.1815616444790873e+00 2.6205064808561156e+00 2.8415982544984797e-01 0 0 1
524 2 -3.0459979318921175e+00 3.3594624221233720e+00 9.6426340637795516e+00 0 0 0
585 2 4.0076835172566732e+00 1.6354774207897200e+00 8.8484517518686641e+00 0 0 0
671 2 8.4805302812914611e+00 6.0413563006026010e+00 8.8672563170207912e+00 0 0 0
209 2 3.2021267606221353e+00 1.0858134506055977e+01 7.3832494211559974e+00 0 0 0
117 2 9.5944431325778332e+00 9.6679430236482722e-01 2.4784853986057933e+00 0 0 0
523 1 -2.4437444292737136e+00 2.5858837851105854e+00 9.7324645642212690e+00 0 0 0
247 1 6.9638173957673617e+00 8.6000941999229248e+00 2.6821838969432149e-01 0 0 0
82 1 2.6976704978776049e+00 5.6274511147097055e+00 2.4186624846264579e-01 0 0 1
309 2 7.7875161593333555e+00 1.1266494195722750e+01 2.9197349623140711e+00 0 0 0
608 2 5.8717948087418579e+00 3.4592415233283824e+00 9.6328536887429355e+00 0 0 0
274 1 9.8900054848295014e+00 1.0380634590666491e+01 9.7033627065676651e+00 0 0 0
97 1 1.3822531893749074e+01 4.6443075681476502e+00 9.7509075501233582e+00 0 0 0
166 1 1.1664793203673321e+01 6.0362012210513276e+00 3.3190397318144615e-01 0 0 1
520 1 1.9599176951863972e+00 4.8162881839273322e+00 9.7058532571066323e+00 0 0 0
693 2 -1.4898745266491742e+00 1.0261616705024334e+01 9.5836391501689135e+00 0 0 0
23 2 6.9748885482350431e-01 3.6495717872252849e+00 9.6584336823480825e+00 0 0 0
106 1 9.4144984887150827e+00 2.4888416631997097e+00 9.7404875558332815e+00 0 0 0
102 2 1.4020477231418766e+01 4.0906228763241286e+00 2.3240422193538854e-01 0 0 0
692 2 -2.8759522313368895e+00 1.1017426131854240e+01 9.7179942441686169e+00 0 0 0
99 2 1.2855988150592175e+01 4.5378000494473172e+00 9.7493339510245463e+00 0 0 0
837 2 1.2148291705886690e+01 9.3960016825037069e+00 1.0805651305736067e+01 0 0 0
658 1 9.3643326666408999e+00 4.0636725149726793e-01 1.1306164490939285e+01 0 0 0
79 1 3.9023630785773555e-01 1.5279907113861111e+00 1.9192381814527344e+01 0 0 0
752 2 3.5021757714635648e+00 9.5861183891294957e+00 1.0548926986178669e+01 0 0 0
509 2 5.1941903311496951e-02 1.6663869086708180e-01 1.4539528145804329e+01 0 0 0
607 1 6.6948457221742466e+00 2.9479009524431152e+00 9.8634500163502619e+00 0 0 0
16 1 -8.7796095989663492e-01 4.5842717034166132e+00 1.9279725305363165e+01 0 0 -1
805 1 1.2561110113209587e+01 1.0625896997614316e+01 1.5927699799793240e+01 0 0 0
808 1 9.1666620102517982e+00 1.0788057751813000e+01 1.3050194843659641e+01 0 0 0
571 1 -5.4533354497519628e+00 3.3026773205749393e-01 1.7738569318862936e+01 0 0 0
168 2 4.2616905330132804e+00 6.4638946182892427e+00 1.8888121022396867e+01 0 0 0
164 2 8.6223365415073623e+00 7.5857693088189271e-01 1.8923567056460733e+01 0 0 0
81 2 -1.9976555953953312e-01 8.6522788053900190e-01 1.8901280579715262e+01 0 0 0
659 2 1.0097683986260908e+01 1.1128820736686013e-01 1.1794674203811823e+01 0 1 0
825 2 3.4897663651383644e+00 8.4697095783045224e+00 1.8351012300224475e+01 0 0 0
273 2 4.1910673387648067e+00 1.0211453593111623e+01 1.9242630992255776e+01 0 0 0
332 2 9.6895594098679023e+00 9.2913174186542413e+00 1.8773078365336275e+01 0 0 0
655 1 3.1799887972651257e+00 6.7903785861964061e-01 1.7845687528614405e+01 0 0 0
505 1 3.3390813111602560e+00 1.1454963865483960e+00 1.4186134759856817e+01 0 0 0
506 2 3.4454202382336234e+00 1.9076808158522323e+00 1.4797605893536684e+01 0 0 0
728 2 -3.8732257080336625e+00 1.1117338089251204e+01 1.3734431583038115e+01 0 0 0
508 1 4.1199323230242690e-01 1.0625336010888218e+00 1.4608943756515851e+01 0 0 0
586 1 -1.1562968630742838e+00 6.0153914296193607e+00 9.8654342517869527e+00 0 0 0
510 2 1.3643359865988485e+00 8.9006869490500606e-01 1.4466158296476694e+01 0 0 0
511 1 -3.9149623376076779e+00 6.4563138349412510e+00 1.4458938350035808e+01 0 0 0
512 2 -4.1547472735608020e+00 5.6230990716934723e+00 1.4043900438665309e+01 0 0 0
513 2 -3.7369743700873235e+00 6.1562557539463096e+00 1.5406369327275195e+01 0 0 0
514 1 -1.1134959343013087e+00 6.5826996727655489e+00 1.4423812717667904e+01 0 0 0
515 2 -1.0282368163650375e+00 5.7568995156611917e+00 1.4936418615460585e+01 0 0 0
516 2 -2.0370589965315378e+00 6.5356614793162731e+00 1.4243096642390496e+01 0 0 0
778 1 6.0116838175616154e+00 9.9848890058540167e+00 1.9089900921722545e+01 0 0 0
519 2 2.0532678227363661e+00 5.5647055649423711e+00 1.7995520397669424e+01 0 0 0
610 1 6.3919536268376724e+00 2.6436510789404437e+00 1.9132848336544328e+01 0 0 0
522 2 1.9733958979007880e+00 5.1201852169764939e+00 1.0660010426476562e+01 0 0 0
588 2 -1.4112909648364700e+00 5.6366711600088166e+00 1.0730942812196458e+01 0 0 0
826 1 9.4056061529067829e+00 8.0605819270282080e+00 1.1227456273138221e+01 0 0 0
525 2 -2.6341922079444737e+00 2.1146034634812128e+00 1.0578407891344764e+01 0 0 0
834 2 5.8217118669898200e+00 1.0619960829893623e+01 1.4208532630714547e+01 0 0 0
527 2 -2.4380034541614517e+00 2.1308476617278371e+00 1.8527707441706305e+01 0 0 0
529 1 1.1557293757769456e+00 6.5820496945128939e+00 1.6753014771579586e+01 0 0 0
530 2 1.2677779477958442e+00 6.0845427871858284e+00 1.5925885174695637e+01 0 0 0
531 2 2.1396566680239815e-01 6.6734607803549917e+00 1.6874200426128368e+01 0 0 0
532 1 2.3766092983312443e+00 6.1859793269802461e+00 1.2136256640821980e+01 0 0 0
533 2 3.3009458610505691e+00 6.2668346131119934e+00 1.1825122950458223e+01 0 0 0
534 2 2.2854242669688931e+00 6.0238591375224919e+00 1.3097074595216901e+01 0 0 0
535 1 -2.3149887725988982e+00 1.0268267190192437e+00 1.2125109572589093e+01 0 0 0
20 2 -5.7424748063644202e+00 3.4868442213374067e+00 1.8991780191559698e+01 0 0 -1
810 2 8.6737662653631684e+00 1.1193040341303796e+01 1.2286702918873980e+01 0 0 0
538 1 -2.8563882176124431e+00 1.3085175659246371e+00 1.6872681378491620e+01 0 0 0
539 2 -3.7497363704301794e+00 9.4712652910719752e-01 1.6884689913282557e+01 0 0 0
540 2 -2.8184886447294426e+00 1.7800520772337047e+00 1.5998185132186062e+01 0 0 0
541 1 3.1218995522789692e+00 2.7885524967635384e+00 1.1870821415713303e+01 0 0 0
542 2 3.3837083213030299e+00 2.1111254278667184e+00 1.2552906167666453e+01 0 0 0
543 2 3.3326536511366793e+00 2.4044865017385098e+00 1.1050559165355912e+01 0 0 0
544 1 6.2659256505178806e-01 2.8130206714541890e+00 1.6928971266024341e+01 0 0 0
545 2 5.3328516360558442e-01 2.3903993519370701e+00 1.7828387347619696e+01 0 0 0
546 2 4.6855289083636098e-01 2.0728560435132835e+00 1.6326999879159835e+01 0 0 0
547 1 -3.6691827632933727e+00 4.8519385031943072e+00 1.6741475745486099e+01 0 0 0
548 2 -4.4733020967754085e+00 4.3780855277791515e+00 1.6650014175891677e+01 0 0 0
549 2 -3.7226434135570194e+00 5.1444642499140816e+00 1.7658898364140839e+01 0 0 0
550 1 -1.2762933105714276e+00 4.8738494084522515e+00 1.2226409156306628e+01 0 0 0
551 2 -5.9371769954159825e-01 4.1890666474916518e+00 1.2284955150007523e+01 0 0 0
552 2 -1.0460567121448521e+00 5.4862824053463504e+00 1.2954220918684625e+01 0 0 0
553 1 3.2146250147044526e+00 3.2613236811919442e+00 1.5948779163489837e+01 0 0 0
554 2 2.3966852905960581e+00 3.1424729772574951e+00 1.6464220534189955e+01 0 0 0
555 2 3.9477372134697957e+00 3.5845180567808232e+00 1.6519560904944463e+01 0 0 0
556 1 7.7827490708747149e-01 3.2235409738274234e+00 1.3113901499156720e+01 0 0 0
557 2 1.5262874054730693e+00 3.0431162080059617e+00 1.2553345652377702e+01 0 0 0
558 2 5.4567745901951170e-01 2.3659809571221917e+00 1.3593470124920442e+01 0 0 0
559 1 -4.2529409299838878e+00 4.2315469226135392e+00 1.3066205748348057e+01 0 0 0
560 2 -3.5073325450782615e+00 4.3655611790590925e+00 1.2510793779024088e+01 0 0 0
561 2 -3.8713569814314184e+00 3.6118845196384548e+00 1.3691815512961211e+01 0 0 0
562 1 -1.2763519515970683e+00 4.2439680292051642e+00 1.5642291343834509e+01 0 0 0
563 2 -6.4326173549933507e-01 3.7466509448538239e+00 1.6248018988749351e+01 0 0 0
564 2 -2.0817086826305857e+00 4.5144074059290205e+00 1.6108638620596651e+01 0 0 0
565 1 5.0073214809325668e+00 7.0392873084820877e+00 1.1525693486472994e+01 0 0 0
566 2 4.6051592487287412e+00 7.6551303307383467e+00 1.0863922915046086e+01 0 0 0
567 2 5.2426977758852962e+00 6.2441417109814736e+00 1.0986468492601345e+01 0 0 0
568 1 -1.2510309260041650e+00 6.7282061596372653e+00 1.7844550081566929e+01 0 0 0
569 2 -1.2486343442203589e+00 5.8644200607197856e+00 1.8334891762029827e+01 0 0 0
570 2 -8.0954815276692749e-01 7.4126563701876460e+00 1.8417113756963268e+01 0 0 0
275 2 9.7494048901461383e+00 9.5450923000286387e+00 1.0197557162584383e+01 0 0 0
572 2 -5.6658649979740305e+00 1.2223527784891683e+00 1.8173135351634144e+01 0 0 0
98 2 1.3996422480195493e+01 5.3786697394115945e+00 1.0406469031988442e+01 0 0 0
732 2 -5.9513846209284793e-01 1.1190670314180213e+01 1.6532924409903110e+01 0 0 0
576 2 5.4596413239623098e-01 1.4364033689894253e+00 1.0817785470313067e+01 0 0 0
577 1 1.9255199189129968e+00 5.1721604638162351e+00 1.4521099240782574e+01 0 0 0
578 2 1.3132710757631498e+00 4.4719217571123080e+00 1.4173590171501880e+01 0 0 0
579 2 2.6120145615028800e+00 4.6705602479195836e+00 1.5006630885096966e+01 0 0 0
580 1 -2.7820287331362028e+00 2.5385328248227714e+00 1.4373265053808701e+01 0 0 0
581 2 -2.3524899864996458e+00 2.0517750580490888e+00 1.3641097466904860e+01 0 0 0
582 2 -2.0950601464120724e+00 3.1016579706305913e+00 1.4749501586170860e+01 0 0 0
696 2 -2.2481085411236803e+00 1.0911131969932860e+01 1.9170635854404146e+01 0 0 0
990 2 6.8849589349928157e+00 5.0480356318511450e-02 1.7400237032783117e+01 0 1 0
589 1 1.2242425925923134e+01 9.5310125311985949e-01 1.4443977810543185e+01 0 0 0
590 2 1.1373138175719699e+01 6.4296185157554275e-01 1.4649709955693167e+01 0 0 0
591 2 1.2289668324918402e+01 1.7436249277214850e+00 1.5021079513182253e+01 0 0 0
592 1 9.2988756018775032e+00 1.0293483294837238e+00 1.4704225629274399e+01 0 0 0
749 2 -1.7483094381741031e+00 1.0182288739638716e+01 1.4741138987111043e+01 0 0 0
594 2 9.2278252630799624e+00 1.6829366755011093e+00 1.3996416935915567e+01 0 0 0
595 1 4.9135125098047201e+00 6.2920964339604302e+00 1.4649235482878510e+01 0 0 0
596 2 4.9273085789118829e+00 5.9427892379502092e+00 1.5563566945955237e+01 0 0 0
597 2 4.8757056319147027e+00 5.5524544421707347e+00 1.3939651085940664e+01 0 0 0
598 1 7.7512677245669384e+00 6.2421660220789814e+00 1.4594131347558935e+01 0 0 0
599 2 6.8019577326417711e+00 6.5522297102061700e+00 1.4684937076379759e+01 0 0 0
600 2 7.8464221374689735e+00 6.0490999098710780e+00 1.3611622693653407e+01 0 0 0
823 1 3.4181412295121802e+00 7.6057416574455896e+00 1.7848049450762232e+01 0 0 0
603 2 1.0856080869807244e+01 5.2067439260939832e+00 1.8360905526106201e+01 0 0 0
691 1 -2.3981589114697326e+00 1.0188403013767967e+01 9.8861593388229689e+00 0 0 0
605 2 1.0870602807249080e+01 5.0178880317545342e+00 1.0599638197756878e+01 0 0 0
833 2 6.7048537563476147e+00 9.4078710434190409e+00 1.3747272664474158e+01 0 0 0
517 1 1.9151597246102812e+00 4.9756546589047526e+00 1.8765825646593434e+01 0 0 0
809 2 9.9911576946383676e+00 1.0479774143881542e+01 1.2615477936898008e+01 0 0 0
609 2 6.5118750335886668e+00 2.5774377180722610e+00 1.0750954360973697e+01 0 0 0
601 1 1.0960187747839914e+01 4.6329910135818855e+00 1.9160067160916725e+01 0 0 0
611 2 6.4392883030968138e+00 2.1836810964444711e+00 1.8260165123999151e+01 0 0 0
613 1 1.0231588621969667e+01 6.0318810031600867e+00 1.6649773649724537e+01 0 0 0