LAMMPS data file via write_data, version 3 Mar 2020, timestep = 112750000

2016 atoms
2 atom types

0.0000000000000000e+00 1.7949000553553006e+01 xlo xhi
-7.4975507810940201e-02 4.5071135484614167e+01 ylo yhi
0.0000000000000000e+00 1.9088730956632382e+01 zlo zhi
4.3027890761065904e-02 -6.6817868586700122e+00 -2.1689610488543565e-02 xy xz yz

Masses

1 16
2 2

Atoms # atomic

2013 2 9.0671759527710503e+00 2.9768584224145531e+00 1.0011906926490870e+01 -1 1 0
1692 2 -2.7854541010907354e+00 2.6979385008141983e+00 1.2561298345051485e+01 -1 1 1
1530 2 -5.1628426075484513e-01 1.4451798337363766e+00 3.8037099164568851e+00 0 0 -1
1778 2 2.8799956255175023e+00 4.5248438692851396e+00 2.8617384845683180e-01 1 1 1
236 2 1.3047866128424822e+01 8.2747134170479466e+00 2.1740135168331909e+00 -2 0 1
635 2 1.0333628600429172e+01 6.2171741283017541e+00 1.3071482336604461e+01 2 0 -1
1505 2 2.5327192103467882e+00 1.8553356725172356e+00 1.9087903218566733e+01 0 1 -2
1638 2 4.3965879619628279e+00 5.3111139464387884e+00 1.0047091560134801e+01 -1 0 -1
1363 1 1.4707089968329475e+01 1.6904800768924400e+00 1.8816773309323149e+00 -1 1 0
1283 2 -8.7100290585063345e-01 8.1151451423543115e+00 3.5134700214580312e+00 0 1 0
1444 1 9.0674348799110440e+00 9.4894457267453021e+00 1.6204153137855577e+01 0 1 -2
1350 2 5.4219392657783798e+00 4.0236068718975027e+00 7.3660779619976964e+00 2 1 1
1636 1 4.2709298782300955e+00 4.5076860155537846e+00 1.0591256111401753e+01 -1 0 -1
180 2 9.1246659633582912e+00 7.1329850892306945e+00 1.9846657168341817e+00 -5 0 -2
1735 1 -1.4183900297100451e+00 5.8634085758292001e+00 9.3400616017393396e+00 -1 1 0
1869 2 8.4327120784943865e+00 4.9530340540492723e+00 3.9849608691877401e+00 0 1 0
1504 1 2.5899168287893719e+00 1.4106978588456014e+00 1.8244502237075512e+01 0 1 -2
858 2 3.5369906756243408e-01 9.7699165014654437e+00 9.8199654599989419e+00 1 0 -4
115 1 1.5089169307669964e+01 1.0677359339382035e+01 4.2011671545976474e+00 -4 0 -4
116 2 1.5030409260466531e+01 1.0199623533686410e+01 3.3346523855059873e+00 -4 0 -4
959 2 1.4699798682764786e+00 1.4473439762385942e+00 1.1534686433538759e+01 3 0 -1
40 1 2.6679951888276086e+00 8.9452516426311703e+00 1.1362828986352294e+01 -3 0 2
477 2 1.2163675920046364e+01 2.4386780042989127e+00 6.1596978279838268e+00 -1 0 2
946 1 -2.6979919848238159e+00 4.1158321726870817e+00 7.9576885074947921e+00 0 0 5
1507 1 1.1865686497030438e+01 3.0276399273418355e+00 1.3426113058022834e+01 -1 1 1
1234 1 -1.1483313814730778e-01 8.4138345886444554e+00 1.2072572552990779e+01 0 1 0
1691 2 -1.8885336814009226e+00 3.4343196515667729e+00 1.1594108972247124e+01 -1 1 1
339 2 1.4331874277003330e+01 7.5740353383844132e+00 9.2059098490448079e+00 -2 0 0
74 2 1.0749442878983972e+01 3.3771688689262982e+00 1.7275496720261727e+00 -3 0 2
1983 2 -2.9635134200161923e+00 1.0101137218427001e+00 1.4410502929981787e+01 0 1 0
1460 2 2.5421403055354208e+00 2.6621455618647722e+00 1.4162054671754783e+01 -1 1 -1
803 2 5.6491490784746032e+00 9.5916417546754928e+00 1.7441143978572985e+01 -1 0 -3
1866 2 1.3122682333388857e+01 3.5026223243565835e+00 4.3658283233933002e+00 0 1 1
905 2 3.0787387590705277e+00 9.1716854058953743e+00 3.3853528836558788e+00 -1 0 1
1726 1 8.6296830999670284e+00 2.6126987118028429e+00 1.8464354367469099e+01 1 1 1
881 2 2.3512413473112810e+00 8.4051613165439036e+00 1.8810904695434754e+01 0 0 1
567 2 -5.9400664998392361e-02 3.6043394391406394e+00 1.4489484973537521e+00 0 0 0
431 2 -3.5078319114415510e+00 2.3833010970454755e+00 1.6863857547712453e+01 1 0 4
1492 1 5.6719705461613259e+00 9.3971701812806501e+00 2.1598333340480425e+00 1 1 1
669 2 8.0665241470905915e+00 5.5409554679362536e+00 6.3594976654411395e-01 -3 0 -1
437 2 1.3781835429608613e+01 4.6924486343377163e+00 1.5740436965343358e+00 -5 0 -1
878 2 8.1532542776151651e+00 1.0811694528306749e+01 6.9271387656150809e+00 -4 0 0
1389 2 -2.6950518482502184e+00 7.0326985531393704e-01 1.8561617123109919e+01 0 1 -2
948 2 -1.8171762369051649e+00 3.8785059892269063e+00 7.5678665875818592e+00 0 0 5
798 2 5.9792600743574464e+00 9.4417784728561820e+00 5.5374119502545982e+00 -2 0 2
1393 1 1.0703407157915686e+01 7.0380116033159625e+00 9.3724319843408761e+00 0 1 0
1939 1 3.4267287788068583e+00 8.9925435497710691e+00 6.6567593042078110e+00 1 1 1
94 1 7.2030698384820457e+00 7.5600876604785441e+00 1.5267299146133920e+01 -5 0 -5
658 1 7.6016463393213929e+00 7.4780992258299364e+00 2.6559878901109504e+00 -1 0 0
1941 2 3.2406417409290436e+00 9.6682485842980821e+00 5.9345895948236311e+00 1 1 1
1387 1 -3.2799485001950592e+00 1.4703272504512963e+00 1.8399563596791147e+01 0 1 -2
409 1 2.3804869846171348e+00 9.2765776075053386e-01 1.5344947976672421e+01 1 0 0
636 2 9.1667684245739487e+00 7.1879281356957758e+00 1.3288404196108871e+01 2 0 -1
1885 1 6.0497285512028318e+00 1.4021576008781711e+00 9.5066607530848373e+00 1 1 -1
102 2 -2.4043432424502069e+00 4.0946811144001849e+00 1.6867923259456170e+01 -2 0 -1
282 2 -5.6245713512684024e+00 4.9348037442840305e+00 1.7937894641723155e+01 -4 0 0
486 2 5.6928976781378395e+00 9.7642089287738614e+00 1.2080369058887426e+00 1 0 1
927 2 1.2611153070385363e+01 1.0740001999491096e+01 2.0890080605338909e-01 2 0 3
1240 1 -4.7920962287098146e+00 6.9827197636974949e+00 1.6327151005565231e+01 1 1 2
19 1 2.4410009939932098e-01 9.4144140807938488e+00 4.0489160431743958e+00 -2 0 -4
1740 2 9.0220011790699264e+00 1.7566890660366907e+00 1.7106189854478224e+01 -1 1 0
746 2 1.4814366405400484e+01 7.4931968752525195e+00 5.2748638467787554e+00 -1 0 -2
1823 2 3.1905266529839302e+00 3.0760854800902573e+00 5.4282388904603378e+00 0 1 -1
734 2 1.1394402608058012e+01 1.6970461523196392e+00 1.0739953142016921e+01 -1 0 -1
1946 2 5.7790380702328248e+00 9.5970768587960826e+00 8.5650668186600640e+00 1 1 -2
410 2 1.5739337430250568e+00 1.1965711470919840e+00 1.5870439474368988e+01 1 0 0
832 1 5.3200566024127314e+00 1.4842843778736292e+00 1.8635646323995118e+01 0 0 1
174 2 8.6859162985912466e+00 1.4370684283672639e+00 1.2945324177331788e+01 1 0 -3
747 2 -1.9720078240599583e+00 7.9731010424135995e+00 6.1943006575517172e+00 0 0 -2
1982 2 -3.7943930782806130e+00 1.3025076962862685e+00 1.3225273320209986e+01 1 1 0
1487 2 1.5441711572759578e+01 1.0970263050257664e+01 1.4374916963696857e-01 0 1 0
562 1 1.0844568769775528e+01 5.4325771930019471e+00 1.1600806875390207e+01 -4 0 -1
1874 2 1.3880755316619826e+01 4.8154611773423275e+00 6.8374415325925737e+00 -2 1 -1
176 2 -3.7524458404757732e-01 2.0766256079223475e+00 9.7941859169750245e+00 -7 0 0
1738 1 9.2097348484396679e+00 1.2501631750528239e+00 1.6250869334644371e+01 -1 1 0
1486 1 8.1895856607300033e+00 1.0356889001952164e+01 1.8676204957067320e+01 0 1 -1
42 2 1.9051682927846914e+00 8.3872447782598041e+00 1.1418843629918433e+01 -3 0 2
791 2 -6.1817803959314244e-01 1.0720477066670246e+00 1.6265564151973877e+01 -1 0 2
544 1 1.3159026175087391e+01 7.3104840692200899e+00 1.2378448149637757e+01 3 0 1
545 2 1.3070606213698895e+01 6.5386817564049959e+00 1.2988448546723758e+01 3 0 1
1402 1 1.1496448262388913e+01 8.6367502095801036e+00 1.5237712809561490e+01 2 1 0
1639 1 8.9563825246014961e+00 8.9558173496276794e+00 9.3415597153687226e+00 -1 0 1
458 2 1.7302046727463609e+00 6.2880964025482093e+00 1.0915139373007927e+01 -2 0 -2
237 2 1.1609117634515911e+01 7.7982848455048641e+00 2.6079730656138786e+00 -1 0 1
595 1 -2.7547687287568490e-01 1.0649982677447204e+01 1.8830160465441832e+01 2 0 -3
1822 1 3.2120024110123291e+00 3.3965392800236223e+00 4.5371006085478802e+00 0 1 -1
274 1 1.2931601035190532e-02 9.3351086548984408e-01 1.2414106916728874e+01 1 0 -3
555 2 1.7815941804689484e-01 7.0164083321406201e+00 1.8479812735872247e+01 -6 0 -1
360 2 -3.2582076437115655e+00 1.7025553160934710e+00 1.0088137832631721e+01 3 0 -1
167 2 9.1514713065434226e+00 7.0227980734434752e+00 6.4976905312572866e+00 -1 0 -5
57 2 -1.0466851581347010e+00 8.6218719026257116e+00 1.6033193085130623e+01 -5 0 -1
667 1 7.9228188523593808e+00 4.6277538863866710e+00 9.8599099671761981e-01 -3 0 -1
210 2 6.4751909576989570e+00 2.4243540331817490e+00 1.2261746186919090e+01 1 0 -1
1887 2 6.0068149958308030e+00 2.1207681207711708e+00 8.8489450832349625e+00 1 1 -1
95 2 7.9864680441037024e+00 8.0218793759844278e+00 1.5541319511697431e+01 -5 0 -5
1220 2 7.0467503364739397e+00 7.8020680448122404e-01 2.4511814677050956e+00 -1 1 -1
47 2 4.7663767352902484e+00 4.4084509891039438e+00 1.7192081362951206e+00 -3 0 -1
192 2 4.4262630372392131e+00 1.4057148430230764e+00 6.4976497020668802e+00 -5 0 -5
689 2 4.4941063808181392e+00 3.1375189976008802e+00 1.6049418524409816e+01 -2 0 -1
857 2 8.0510082872982380e-01 8.3753156060052305e+00 9.1451771917891467e+00 1 0 -4
1810 1 7.2739666967066352e+00 7.0626233208575826e+00 1.8833100980621420e+01 0 1 -1
880 1 2.8835069781079801e+00 9.1739807231266024e+00 1.8869709773689959e+01 0 0 1
1883 2 -8.4401038327595623e-01 4.6488790568558507e+00 1.0275814865068471e+01 3 1 0
887 2 9.3820598005422369e+00 1.0480192857872153e+01 1.0358175413940801e+01 -1 0 -1
485 2 4.7444864497219319e+00 9.1148004410959604e+00 2.2214989724405267e+00 1 0 1
1637 2 5.1044208247226006e+00 4.3379110598316153e+00 1.1018599330022342e+01 -1 0 -1
1257 2 1.0857797985959166e+01 4.0978432036732038e+00 8.1906860152393524e+00 0 1 0
526 1 5.5493563462791302e+00 9.3425554714099270e+00 1.3699693788892843e+01 -2 0 0
638 2 3.3311390697977457e+00 3.1511043841919739e-01 1.1961257030914783e+01 1 0 1
209 2 7.3444278299537000e+00 3.3452116511881900e+00 1.1394487132270289e+01 1 0 -1
1448 2 9.1432014794234746e+00 3.7554259185902361e+00 7.0896906619327034e+00 0 1 1
117 2 1.5234091523311166e+01 9.9408943945925969e+00 4.8765363925947289e+00 -4 0 -4
1446 2 9.9626847342776141e+00 9.1790737555707214e+00 1.5936854046012211e+01 0 1 -1
668 2 7.1094107070366226e+00 4.6824714004228909e+00 1.4830749031730013e+00 -3 0 -1
1936 1 7.4021301668635324e+00 5.6179797333787906e+00 8.9526119676814151e+00 1 1 1
138 2 7.8740091364285014e+00 7.9035593443301231e+00 1.1835144971885596e+01 -3 0 -1
56 2 5.4690071377123139e-01 8.9496219123091798e+00 1.6113153752187316e+01 -5 0 -1
1436 2 3.3717457686558721e+00 4.0135177715133885e+00 1.7416328285951032e+01 2 1 1
75 2 9.3073700679896021e+00 3.4590314630574843e+00 1.3099364578287420e+00 -3 0 2
1907 2 7.4397985140554823e+00 5.8798281007686937e+00 1.4079568128462242e+01 -2 1 1
985 1 9.8020729704976333e+00 1.0703969911353310e+01 1.9752199640273096e+00 -4 0 -2
1968 2 8.6749390851426469e+00 2.4136046641136275e+00 1.4998666851720825e+01 0 1 0
1736 2 -2.2368780700421285e+00 5.3839012410696574e+00 9.1221567825456429e+00 -1 1 0
358 1 -3.1102558731136245e+00 1.7044058652368554e+00 9.1712072476636060e+00 3 0 -1
231 2 9.9480999323038724e+00 6.5240103872892163e+00 1.7310049994138197e+01 -1 0 -4
48 2 5.2172876177585881e+00 5.4103635377913575e+00 2.8098512567781153e+00 -3 0 -1
190 1 3.6260211246377159e+00 1.6927887013457186e+00 6.9386937051765267e+00 -5 0 -5
430 1 -3.7772730349459844e+00 3.0165629193724457e+00 1.6182727514725620e+01 1 0 4
1989 2 1.2394234205165127e+01 2.4920474059835923e-01 3.4468529967879902e+00 0 1 1
702 2 1.0192592564755875e+01 5.7760164099412341e+00 3.2288057097508166e-01 -3 0 -4
177 2 4.2995269621606047e-01 8.0638449406227264e-01 9.1870490063764159e+00 -7 0 0
707 2 -3.2466549683403416e+00 7.1000676048219562e+00 1.1695857020147731e+01 -2 0 -1
735 2 1.0341182804688074e+01 1.1503946491720389e+00 1.1735445130119009e+01 -1 0 -1
546 2 1.3417075336593502e+01 8.0659158490731446e+00 1.2968277508433369e+01 3 0 1
1435 1 2.8459428456136218e+00 3.5109860290503230e+00 1.6774716268546786e+01 2 1 1
632 2 6.1018581514718813e+00 1.0487515775224383e+01 3.6416354016412185e+00 -3 0 -2
1449 2 8.8681271966778397e+00 2.7973175693287078e+00 5.8684704885224503e+00 0 1 2
1281 2 1.2477043468178874e+01 3.2235013594030830e+00 9.6389004360402595e+00 -2 1 0
1722 2 5.2961455683674004e+00 2.0317796008182825e+00 1.4274283570090557e+01 -1 1 1
164 2 3.4876227810849070e+00 1.1168775879010951e+01 1.6534957791089958e+01 5 0 2
165 2 2.5606572972293504e+00 1.0667050999895253e+01 1.7643349763705739e+01 5 0 1
161 2 5.2906759335808422e+00 7.1831520628506675e+00 1.1864078305612299e+01 2 0 -4
436 1 1.4497278288788584e+01 5.2646962726678286e+00 1.9496922769975535e+00 -5 0 -1
379 1 1.1914552958152935e+01 9.9008976151702832e+00 9.0293624527504797e+00 -2 0 0
682 1 1.2624605973397518e-01 1.0476857833921512e+01 6.6727953844349051e+00 2 0 3
475 1 1.2111288611873153e+01 1.7515266624914074e+00 6.8310592010104143e+00 -1 0 2
1483 1 -2.0958025048805951e+00 5.3538716419684880e+00 1.3959548918097088e+01 -1 1 3
565 1 5.7676485253625565e-01 2.9495824477848758e+00 1.7736705279333651e+00 0 0 0
462 2 6.2842443750736514e+00 1.7100809093398472e+00 5.3960444592981878e+00 -5 0 0
568 1 -2.2907029400883783e-01 3.2228585132822816e+00 1.4028806820121812e+01 2 0 2
457 1 1.8674920134590529e+00 5.6146473943316186e+00 1.1580369204859878e+01 -2 0 -2
683 2 -8.1330007321957654e-01 1.0751272624455037e+01 6.7982957974975973e+00 2 0 3
251 2 5.0105740030948551e+00 3.4324465318255175e+00 4.2604699238723498e+00 -3 0 2
414 2 1.1481758099773064e+01 2.5963810255447082e+00 1.7416304854166786e+01 1 0 -4
1875 2 1.3516354729597195e+01 6.0565033725317035e+00 7.6378048493060477e+00 -2 1 -1
1503 2 1.1173371520050643e+00 6.2666052056102490e+00 8.4657219219024860e-01 1 1 0
1772 2 1.2766040324558456e+00 9.1085678708885431e-01 5.1092777981836068e+00 1 1 1
740 2 -4.6855360155966128e+00 1.0766552337291916e+01 1.6293615736962970e+01 2 0 2
978 2 1.5569220193962355e+01 8.3249949087211750e+00 2.0422313357363722e+00 -3 0 0
1203 2 1.5935593750457111e+01 4.9386279389623349e+00 1.2491467862650258e+00 0 1 0
700 1 3.8440094289748830e+00 5.2589958737720739e+00 1.8608155539774895e+01 -3 0 -5
229 1 1.0010682653741828e+01 6.9826071118435120e+00 1.8161864148359442e+01 -1 0 -4
1812 2 6.6574436851182046e+00 7.8095766545600549e+00 1.8711342555419574e+01 0 1 -1
80 2 9.7038576733890309e+00 5.5629691485491364e+00 1.5158428894672438e+01 -7 0 -2
852 2 1.1179701138824692e+01 8.5535590547202709e+00 1.8550377841815795e+01 1 0 -2
1952 2 5.6819240598155485e-01 7.3648494301929892e+00 1.3199648375791680e+01 2 1 0
188 2 2.1612240975874015e+00 3.7560703449738213e+00 8.1644187467542189e+00 -4 0 -3
1914 2 2.6213691734991653e+00 8.0363131336625351e+00 2.3557354048396557e+00 -1 0 1
178 1 1.0020511257824840e+01 6.8172687175539695e+00 1.7249762092407448e+00 -5 0 -2
101 2 -1.1493194080680400e+00 3.7194013055629465e+00 1.7802183619220799e+01 -2 0 -1
461 2 6.7084632119207157e+00 4.1093253696572990e-01 6.2741191359486423e+00 -5 0 0
1640 2 8.9088272912508106e+00 9.3624160203331730e+00 8.4872341237937459e+00 -1 0 1
1236 2 -2.6635471838533409e-01 9.2635889568841403e+00 1.2562681807327078e+01 0 1 0
958 1 2.3922227326543721e+00 1.7582007948649421e+00 1.1484194021437389e+01 3 0 -1
988 1 -2.2849192247501318e+00 7.5195220456705929e+00 1.5715110110040426e+01 -1 0 -1
851 2 -6.3180483070575288e+00 9.9810554534117983e+00 1.8117842316938134e+01 2 0 -2
1403 2 1.1133050880863010e+01 7.9412999686450423e+00 1.4674270362294696e+01 2 1 0
563 2 1.1691259041672328e+01 4.9869077837343116e+00 1.1429194161772415e+01 -4 0 -1
804 2 4.6266909956932691e+00 9.1757660360984161e+00 1.8534878107228476e+01 -1 0 -3
182 2 1.1250361500913066e+01 3.0464014796085714e-01 1.8877220669296076e+01 0 0 1
1900 1 -3.4639924904564676e+00 9.1739377139662874e+00 1.3801984327758660e+01 -2 1 0
989 2 -3.1056346217564763e+00 7.2632358062564029e+00 1.6158214634923823e+01 -1 0 -1
1995 2 -1.6007092803510092e+00 5.9163244946576174e+00 1.8269596533696109e+01 -1 1 -3
1352 2 -4.2175596697834572e-01 2.8097058188615938e+00 5.8726148755539658e+00 0 1 1
1469 2 1.1815752303155925e+01 8.1929861216078610e+00 1.1782327381300496e+01 0 1 1
230 2 9.1296649604791931e+00 7.2518556402220131e+00 1.8422794293065998e+01 -1 0 -4
2012 2 9.6753198523975232e+00 4.0198258733062202e+00 1.0972593289007566e+01 -1 1 0
947 2 -2.8484662242589085e+00 3.2823672120901288e+00 8.5295134087710238e+00 0 0 5
7 1 3.1726807650213735e+00 1.1399983183602900e+00 2.9928323804303822e+00 -1 0 -1
8 2 3.8002590615905740e+00 1.6236335796605572e+00 2.4060077777523738e+00 -1 0 -1
566 2 1.4907012232772194e+00 3.3163143929858809e+00 1.7505567146353089e+00 0 0 0
1002 2 1.6082641729973752e+00 6.1798125043136487e+00 8.7238981448103985e+00 -4 0 0
1856 2 1.4453969663487632e+01 1.3249729882372441e+00 6.6984884918603962e+00 -1 1 0
1703 2 3.3339052211856215e+00 2.3148064344294017e+00 8.2459035859011198e+00 -1 1 0
987 2 1.0740091632220516e+01 1.0753689003103853e+01 1.6308146274087856e+00 -4 0 -2
1000 1 1.7977198615228200e+00 6.9859231756111075e+00 9.2217881786889997e+00 -4 0 0
1227 2 5.3917978226439258e+00 7.1277095830590271e+00 1.6146164867341032e+01 -1 1 -1
1129 1 1.7151182456865359e+00 7.2453927489040879e+00 5.4555250941515032e+00 0 0 -1
1343 2 6.6788735104021608e+00 5.4868364872796360e-01 1.4973043626991327e+01 2 1 2
879 2 8.8781558421075868e+00 9.7647954743106737e+00 5.9336373384454761e+00 -4 0 0
688 1 5.4851562838843391e+00 2.9879090367343846e+00 1.5922767509590308e+01 -2 0 -1
1902 2 -3.1646775234014592e+00 9.8558206721265726e+00 1.3115164428690596e+01 -2 1 0
1873 1 1.3252925490753279e+01 5.5771617097376556e+00 6.7741629283535287e+00 -2 1 -1
1947 2 6.0158186020170756e+00 9.4469450556755969e+00 1.0096240789285803e+01 1 1 -2
693 2 -4.1327427863393016e+00 8.8930585493002550e+00 1.8879760445671177e+01 2 0 2
20 2 2.0982953999514531e-01 9.8417157266636632e+00 4.9484292843121391e+00 -2 0 -4
214 1 -4.9005392672100001e+00 5.3233796891123779e+00 1.4213117290844227e+01 1 0 -1
1378 1 1.3983583515288802e+00 5.0688853126098854e+00 3.8212864316596593e+00 2 1 2
1959 2 1.3411619289055992e+00 -5.3430626086508101e-02 1.8323643111776196e+01 0 1 1
976 1 1.4742757375222249e+01 8.8279286974679039e+00 1.8613109588204737e+00 -3 0 0
833 2 5.4726812515514203e+00 1.9042538332402181e+00 1.7770029042665723e+01 0 0 1
1113 2 1.2262298086072560e+01 2.9443358055988975e+00 5.7029657718270810e-01 -1 0 -1
1967 2 8.3409736986850884e+00 3.5466635910127278e+00 1.3947255458729199e+01 0 1 0
977 2 1.4807268706313623e+01 9.0850892302570063e+00 8.9865239608969916e-01 -3 0 0
1379 2 1.3837745668438566e+00 5.5391977462050033e+00 3.0038572390942324e+00 2 1 2
337 1 1.3664352224217705e+01 6.8258262738607254e+00 9.1773210154151315e+00 -2 0 0
882 2 9.4427024919917866e+00 9.4945995322960552e+00 7.0254639527850971e-01 0 0 2
1454 2 -4.5640843496555461e-01 4.8963165149671468e+00 4.3217191869811602e+00 2 1 1
1201 1 1.6730342418753104e+01 4.7210335913992143e+00 7.6247969594102794e-01 0 1 0
1771 1 1.6077596206683533e+00 2.7757843507703839e-01 5.7941950117080410e+00 1 1 1
1894 1 1.2753585959968138e+01 8.9291073047249139e+00 6.6552328383702077e+00 0 1 1
1501 1 1.3552948700210847e+00 6.7710946203252425e+00 1.6532080726953111e+00 1 1 0
1484 2 -1.9280073923864274e+00 6.1233290081880991e+00 1.4529389626847443e+01 -1 1 3
1864 1 1.2155302345816954e+01 3.2412178073963611e+00 4.4339963978237638e+00 0 1 1
797 2 6.7067343367197774e+00 8.1343659098938286e+00 6.0428133795101262e+00 -2 0 2
1908 2 6.4062591701292053e+00 4.8683320069336391e+00 1.3944416504253699e+01 -2 1 1
1380 2 1.8159479693066942e+00 5.6505765722225707e+00 4.5092922391476069e+00 2 1 2
1811 2 1.4056330219068206e+01 6.7823845247327315e+00 6.2333412209781836e-01 0 1 0
1727 2 7.9448508696378486e+00 3.2693414981943878e+00 1.8280251107900742e+01 1 1 1
1205 2 6.8419098036823005e+00 5.9970623725415582e+00 1.1805585940351635e+01 2 1 1
189 2 1.0435298458265621e+00 4.2783948290380112e+00 7.1635448363674117e+00 -4 0 -4
1895 2 1.3688410203253651e+01 8.7569647263582979e+00 6.4763315568349142e+00 0 1 1
1508 2 1.1980087604538200e+01 2.3925370105399422e+00 1.2683402451968474e+01 -1 1 0
21 2 6.2884650855982183e-01 9.9859658783094982e+00 3.3822237162895314e+00 -2 0 -4
1511 2 1.1569233603441528e+01 7.6695020365299253e+00 5.6942153732154503e+00 0 1 1
1485 2 -2.0135583143817697e+00 5.6804683054567935e+00 1.3014693949238822e+01 -1 1 3
1728 2 9.3821280016962518e+00 3.2326425592359884e+00 1.8770262903179937e+01 1 1 1
1937 2 8.0922094074635034e+00 5.0489515755747520e+00 9.2930281379827147e+00 1 1 1
422 2 1.3351258678953075e+01 6.0829035513048275e+00 5.1842737772069238e+00 -2 0 0
55 1 -3.1539707687327034e-01 9.3632590175378745e+00 1.6019416523774574e+01 -5 0 -1
918 2 -9.9968702082734695e-01 6.0181427724181855e+00 6.2311752520269339e+00 3 0 3
1364 2 1.3738364343631790e+01 1.5930775755743087e+00 1.9508776885061847e+00 -1 1 1
73 1 9.9412627142236953e+00 2.9134957371774881e+00 1.8453848113882385e+00 -3 0 2
692 2 -2.7172430816941473e+00 8.3773622114099009e+00 1.8831931504813241e+01 2 0 2
281 2 -4.8861364702639145e+00 6.2499763981303431e+00 1.7786330561250459e+01 -4 0 0
1896 2 1.2510760160303327e+01 9.7158070210487963e+00 6.1143506921837432e+00 0 1 1
2007 2 1.0841886353213329e+01 4.6352814864950203e+00 3.9520761500769681e+00 -2 1 -1
171 2 4.2128118918694373e+00 5.6621471732875248e+00 5.7214755408452369e+00 -1 0 3
741 2 -3.7150685885192081e+00 1.0022674296462785e+01 1.7070127497856731e+01 2 0 2
175 1 -4.1466956528007692e-01 1.3613780409024381e+00 9.1409043160416488e+00 -7 0 0
596 2 5.8829511277515678e-02 1.0039452917659396e+01 1.8193176502486317e+01 2 0 -3
794 2 1.2390299901449850e+01 9.8823348162842155e+00 3.6849425453383224e+00 -2 0 0
1861 1 -1.4422960296722653e-01 1.0727267679697430e+01 1.3667828250193622e+01 1 1 1
359 2 -2.1535759486652175e+00 1.4701320298504617e+00 9.1175248886666775e+00 3 0 -1
733 1 1.1289461188743621e+01 1.0667910313272526e+00 1.1524147028452459e+01 -1 0 -1
760 1 -2.8321262637424800e+00 1.0431453687118569e+01 1.1459657904371509e+01 -2 0 2
1458 2 6.0350974896401199e+00 2.2883422484823255e+00 2.7302432885231744e+00 1 1 -2
1374 2 7.9579135955041691e+00 4.7390655002331004e+00 1.6883108110795884e+01 -2 1 -1
1131 2 2.4321872253576746e+00 7.8071251502244445e+00 5.8432196736423059e+00 0 0 -1
761 2 -1.8425688270749063e+00 1.0586064744775502e+01 1.1528964708059611e+01 -2 0 2
631 1 5.9957095599656780e+00 1.0994519433115597e+01 4.4676480854077791e+00 -3 0 -2
1702 1 2.8704141886410768e+00 2.6249623913857030e+00 9.1144775222141199e+00 -1 1 0
1721 2 5.1195843065743842e+00 7.4960822568633056e-01 1.3323381917464232e+01 -1 1 1
205 1 3.2271194864615480e+00 1.0570810446131926e+01 4.4533478306908947e+00 1 0 -1
168 2 8.0925661818155739e+00 6.4280440032456676e+00 7.4391973291930711e+00 -1 0 -4
2014 1 5.3200876940264852e+00 1.0480937073189104e+01 1.6007826009048593e+01 2 1 1
975 2 5.3837648220750971e+00 7.2102125913328283e+00 4.6125864189710200e+00 -3 0 -1
1470 2 1.1656795271488088e+01 9.2856652675386258e+00 1.0666807151125205e+01 0 1 1
1349 2 6.8562165186415012e+00 3.3276098595117483e+00 7.3053261775309108e+00 2 1 1
792 2 -1.6649654304456707e-01 2.3664590788778388e+00 1.5584773371673352e+01 -1 0 2
1528 1 1.0650623363015677e-01 2.0470547548687397e+00 4.2622069871471764e+00 0 0 -1
1945 1 6.0213141103947798e+00 8.9260120708158635e+00 9.2547962769382703e+00 1 1 -1
1459 1 2.5049661639091205e+00 3.3682124438561352e+00 1.3512421696345330e+01 -1 1 -1
459 2 2.6200035472203185e+00 5.0787357675968243e+00 1.1324120651078106e+01 -2 0 -2
2000 2 3.5670937056169727e+00 1.7935354834625716e-02 1.6113494083702431e+01 1 1 1
1404 2 1.1610959892893531e+01 9.5025751015448776e+00 1.4671685676941879e+01 2 1 0
1114 1 6.6267919332321581e+00 1.0470732136413808e+01 1.1496455328543341e+01 0 0 2
413 2 -5.7084772277255205e+00 3.4377462709714721e+00 1.6489369324139076e+01 2 0 -4
1395 2 1.0467398137871788e+01 6.5848996230232570e+00 8.5161228025995381e+00 0 1 0
412 1 1.1480255138597213e+01 3.5080883382557047e+00 1.7090610261497783e+01 1 0 -4
1206 2 6.8259651254433127e+00 6.5494231414816948e+00 1.0393497314511421e+01 2 1 1
181 1 -6.0340732288326429e+00 1.0248441676521245e+00 1.8895240382042225e+01 1 0 1
1757 2 7.9821226096854137e+00 9.3169672063329445e-01 9.1732237484271746e+00 -1 1 -1
1184 2 5.0456085848684111e+00 7.6028168397555724e+00 9.2024257530345679e+00 1 1 1
1777 1 3.1456414208269221e+00 3.7613055867053045e+00 9.1791711308776724e-01 1 1 1
179 2 1.0087334397572015e+01 6.0529147876843918e+00 2.4258957365393958e+00 -5 0 -2
79 1 9.5925151705589897e+00 5.1620994199528925e+00 1.6070713028474952e+01 -7 0 -1
1282 1 1.6888908766305889e+01 7.4331351630875915e+00 2.8861579135456186e+00 -1 1 0
1461 2 2.5118931528277448e+00 2.8606847846477521e+00 1.2659810387761576e+01 -1 1 -1
1884 2 3.8881718137164256e-01 4.2638075014327530e+00 1.1259320400922284e+01 3 1 0
802 1 5.5783924733260255e+00 9.0888306806530412e+00 1.8329989587120512e+01 -1 0 -3
1219 1 7.8262146117717624e+00 3.0186581784729088e-01 2.7543302162614784e+00 -1 1 -1
1185 2 4.6873244878779268e+00 6.6189364016238565e+00 8.1772674838453678e+00 1 1 1
62 2 8.6809765439727542e+00 8.7005601897478861e+00 3.6589913392870796e+00 -3 0 -2
204 2 -2.6216478542177790e+00 9.3422804994486004e+00 1.0079090942275872e+01 -4 0 -3
783 2 3.3723241486362632e+00 4.6809407055294932e+00 1.3899325405779853e+01 0 0 -2
986 2 5.3361127520589271e+00 6.4079592679889510e+00 6.0464209124357127e-01 -1 0 -2
208 1 6.4689019603920643e+00 3.0055886691667162e+00 1.1492096121459747e+01 1 0 -1
1938 2 6.7375573613768331e+00 4.9639972767786897e+00 8.6589980433908522e+00 1 1 1
300 2 1.3525770288532161e+01 2.1207955079733037e-01 8.7659518168552797e+00 -2 0 -3
1510 1 1.0685650915553779e+01 7.3677511274605640e+00 5.4452177656677394e+00 0 1 0
1130 2 1.1311629133646299e+00 7.9080613707068022e+00 5.0542294020880458e+00 0 0 -1
455 2 9.9696386755109003e+00 5.1548907401448330e-01 5.2995374100783357e+00 -2 0 -1
61 1 9.2096668810420255e+00 9.3854583179536828e+00 4.1066592051960793e+00 -3 0 -2
252 2 6.5730330313732068e+00 3.7863457989360527e+00 4.2614695490812506e+00 -3 0 2
216 2 1.2673726800952462e+01 4.4915021879605250e+00 1.3804229721463987e+01 0 0 -1
701 2 4.1745233501382701e+00 5.9148039235163230e+00 1.8017033677631538e+01 -3 0 -5
1478 2 8.5854564382599214e+00 1.0432614746431303e+01 1.4803159677249639e+01 -1 1 -1
1668 2 6.8224841292838239e+00 8.0368452074275325e+00 2.5062857616076952e+00 -1 1 0
782 2 4.0737925076678438e+00 5.7335817663875028e+00 1.4906600880788485e+01 0 0 -2
46 1 5.4308629786217475e+00 5.0431905457391295e+00 1.9488997545985725e+00 -3 0 -1
1966 1 8.7076759958009813e+00 2.6464877936935345e+00 1.4016317751759312e+01 0 1 0
1256 2 1.1255905405782839e+01 4.9835925092439135e+00 6.9515516091147482e+00 0 1 -1
1784 2 1.3470626945013510e+01 5.3173958724455419e+00 1.0296647022333509e+01 0 1 0
1641 2 8.0548991951730997e+00 8.9175571252288854e+00 9.6163616042628171e+00 -1 0 1
1353 2 -4.2570808983807096e-01 2.3387869706195241e+00 7.4023322812187260e+00 0 1 1
476 2 1.1540235662263566e+01 1.0394033683035424e+00 6.3856461186283875e+00 -1 0 2
1566 2 1.5194117687386441e+01 1.0353672433470797e+01 7.8497863157746242e+00 -1 0 0
1690 1 -2.8249784416896406e+00 3.1153496331593211e+00 1.1697282979760766e+01 -1 1 1
2006 2 1.0348736698345828e+01 6.1009271271036383e+00 4.4224877116641803e+00 -2 1 -1
1394 2 1.0149104770065369e+01 7.8146944066240547e+00 9.3000566817293535e+00 0 1 0
1242 2 -4.8725844163652781e+00 6.2692128751688125e+00 1.5624377678221366e+01 1 1 2
162 2 4.2351886226914459e+00 6.6697738217903257e+00 1.2992966877338423e+01 2 0 -4
215 2 -3.8873607936572023e+00 5.2518790957433295e+00 1.4215896543417282e+01 1 0 -1
1447 1 8.5878588171416297e+00 3.0115484388036005e+00 6.8156571848601786e+00 0 1 1
1737 2 -1.1348701139531072e+00 6.2617637719867218e+00 8.4866453795820380e+00 -1 1 0
1857 2 -2.1646624435392954e+00 5.4299431357167049e-01 6.4553333516870239e+00 0 1 0
850 1 -5.9948173317818139e+00 9.1380835162902390e+00 1.8583602748582141e+01 2 0 -2
1544 2 1.0490454217103098e+00 5.8616580143816783e+00 1.5319435667243653e+01 0 0 0
898 1 1.1576881428788845e+01 1.0554618832772755e+00 1.5302945182029021e+01 -2 0 3
423 2 1.3398219644147733e+01 7.2443262329402138e+00 4.0829992190433835e+00 -2 0 0
421 1 1.3889002961074352e+01 6.4750883962212589e+00 4.4263818875879171e+00 -2 0 0
1351 1 -4.4809705420524648e-01 3.1241614903858190e+00 6.8424243172745109e+00 0 1 1
1877 2 1.2700387504151340e+01 1.3402991938974568e-01 1.1857262963424843e+01 -4 1 1
275 2 -1.9741636357393233e-01 1.7205868052849842e+00 1.2966316359958819e+01 1 0 -3
1183 1 4.5391530890851985e+00 6.7802874319001383e+00 9.1297275085721186e+00 1 1 1
1920 2 1.7807513014176504e+00 7.8737661927411660e+00 1.4949772898599516e+01 -1 1 0
280 1 -5.0519731380084423e+00 5.5163475964475257e+00 1.8446901639844317e+01 -4 0 0
1529 2 6.0944566279036017e-01 2.4761906528692208e+00 3.5104865615038077e+00 0 0 -1
1468 1 1.1264135338405620e+01 8.9567084285400895e+00 1.1520845484051042e+01 0 1 1
1502 2 5.2704299914065189e-01 7.2622033858301505e+00 1.9042315279356763e+00 1 1 0
235 1 1.2378865123910895e+01 8.2780851030931544e+00 2.8662519441618697e+00 -2 0 1
593 2 3.2842247904457711e+00 9.8364942146936301e+00 8.2675936005986177e+00 -1 0 0
1202 2 1.6848375021175094e+01 5.4667945961669453e+00 1.2887831541645439e-01 0 1 0
1509 2 1.0894344545728138e+01 3.1360051570296332e+00 1.3417561002942135e+01 -1 1 0
1512 2 1.0359957377123584e+01 8.1123391632634050e+00 4.9014074907383369e+00 0 1 0
1830 2 8.0606532690074373e-01 1.0031924876552118e+01 9.6430765335047086e-01 1 1 2
834 2 4.3476963117264624e+00 1.3598443567672411e+00 1.8529985547244159e+01 0 0 1
790 1 4.4737733109449174e-02 1.8267128553438789e+00 1.6364393564604580e+01 -1 0 2
432 2 -3.6976355284569422e+00 2.6730889018106145e+00 1.5253733998084098e+01 1 0 4
690 2 5.9834817335199206e+00 3.7433274538220020e+00 1.6284154107915057e+01 -2 0 -1
1422 2 9.6075667529995457e+00 2.3719793648066148e+00 3.5285196694003140e+00 1 1 1
202 1 -2.4227885724600422e+00 8.8624330434298031e+00 9.2561837578469408e+00 -4 0 -3
1479 2 8.4312679427443307e+00 9.8122113800174375e+00 1.3366149413098281e+01 0 1 -1
553 1 1.1340984752938859e+00 7.0389020689944273e+00 1.8317503785244615e+01 -6 0 -1
191 2 2.9447664997156560e+00 1.0317793308918948e+00 6.6135370108493952e+00 -5 0 -5
137 2 9.4907464560437980e+00 8.4951606658502854e+00 1.1855335653114725e+01 -3 0 -1
570 2 -8.8671315034940257e-01 3.9343016368531813e+00 1.4090128091626735e+01 2 0 2