LAMMPS data file via write_data, version 15 Apr 2020, timestep = 1145000

1920 atoms
2 atom types

1.5280301038291100e-01 2.4571601989621715e+01 xlo xhi
5.3617197027669761e-02 2.4670787802972967e+01 ylo yhi
3.4830619793465800e-02 2.2757541380210590e+01 zlo zhi
-1.8113581518757252e-01 5.3716745016727747e-02 6.5495514947671099e-02 xy xz yz

Masses

1 16
2 2

Atoms # atomic

1 1 4.6756401479988599e+00 1.8994096022085647e+00 4.3575779911226462e+00 0 0 0
2 2 5.4652941421619952e+00 1.7486550778571961e+00 3.7800809445944736e+00 0 0 0
3 2 4.6739551987676826e+00 1.1536633561638283e+00 4.9876501229798409e+00 0 0 0
4 1 3.0889056149740517e+00 1.7027887910525110e+00 2.1588194584651865e+00 0 0 0
677 2 1.2160537406192619e+01 8.5344074916860855e+00 7.4986590253189220e+00 0 0 0
6 2 3.2607836606919389e+00 1.4655450794778027e+00 3.0571009856991380e+00 0 0 0
7 1 6.2097564956532088e+00 4.8352731154134778e+00 3.7280674376748548e+00 0 0 0
8 2 5.2229332798210386e+00 4.9517326580236789e+00 3.7548934556890585e+00 0 0 0
9 2 6.4182284138712120e+00 4.0835397337277568e+00 4.3729528083895763e+00 0 0 0
10 1 3.5989028804985153e+00 4.5882827749138899e+00 3.5817590631404728e+00 0 0 0
11 2 2.9754895792382894e+00 3.9324292545655264e+00 4.0821193483256266e+00 0 0 0
12 2 3.3795594774541446e+00 5.4566242200119088e+00 3.9809806740213616e+00 0 0 0
13 1 1.8348353285967844e+00 3.0510220395667096e+00 4.9440551989925998e+00 0 0 0
14 2 2.1677282272113367e+00 2.1870749731265642e+00 5.1164809442172361e+00 0 0 0
15 2 1.5741251946621182e+00 3.5407209822867340e+00 5.7658849666699679e+00 0 0 0
699 2 4.0002908258913511e-01 1.1455000980880046e+01 9.5453260842402639e+00 0 0 0
17 2 1.1787762147355090e+00 1.4997307544740457e+00 2.1243279330645630e+00 0 0 0
19 1 4.9951510443886322e+00 3.2351253220145377e+00 8.0819126428901455e-01 0 0 0
20 2 4.2546194707677785e+00 2.8929019003540897e+00 1.3755665518891609e+00 0 0 0
21 2 4.8755086123809095e+00 4.2115724516540594e+00 8.3020906691706320e-01 0 0 0
22 1 1.9819195463400534e+00 4.7316077178445743e+00 1.1852413516831697e+00 0 0 0
23 2 2.5699410358055759e+00 4.5930632672955074e+00 1.9453824875453525e+00 0 0 0
24 2 2.1226427499738123e+00 3.9046570796498590e+00 5.7101168093219967e-01 0 0 0
25 1 4.5989078980920350e+00 5.7249262807036416e+00 6.8867927312295940e-01 0 0 0
26 2 3.8198779823430882e+00 6.2190103409301587e+00 1.0279134827115568e+00 0 0 0
27 2 4.7762589418169856e+00 6.2371507771201049e+00 2.2513591874835178e+01 0 0 0
1611 2 1.1456615884425783e+01 9.1457998224749630e+00 1.8682005752982612e+01 0 0 0
31 1 1.0873376573812481e+01 1.4188927442313293e+00 4.3599540724840748e+00 0 0 0
32 2 1.1060170171985725e+01 2.0190369177288696e+00 5.1071467760143792e+00 0 0 0
988 1 1.6987600741212623e+00 2.9807137502409886e-01 1.6223186526398564e+01 0 0 0
34 1 9.1884274791126277e+00 1.5279769159213825e+00 2.1532660727303625e+00 0 0 0
35 2 9.6524213278631699e+00 1.4084257322246976e+00 2.9712184145399387e+00 0 0 0
36 2 9.5613363185110885e+00 2.4181242324224006e+00 1.8563124325196152e+00 0 0 0
750 2 2.5417282259020686e+00 1.2214395042605709e+01 1.0044209540458954e+01 0 0 0
39 2 1.1244794033441501e+01 4.5548921700973803e+00 3.4821552000387839e+00 0 0 0
40 1 9.4717377596531218e+00 4.8753104304044932e+00 3.6629503658748281e+00 0 0 0
41 2 8.9300528526221772e+00 4.9813615769790935e+00 2.8189520005616080e+00 0 0 0
42 2 9.1085290934755854e+00 4.1919527516518418e+00 4.2354776612117213e+00 0 0 0
43 1 7.4815094639805109e+00 2.9618914869353410e+00 5.1328002680055285e+00 0 0 0
44 2 7.5451504358043140e+00 3.3859470432079557e+00 6.0552762613700377e+00 0 0 0
45 2 7.3292608727480211e+00 2.0098708291010094e+00 5.1869368307882704e+00 0 0 0
46 1 6.5205940488386727e+00 1.7003212232570462e+00 2.3855663151175621e+00 0 0 0
47 2 7.4605545893741372e+00 1.6873198884808753e+00 2.1683763566656871e+00 0 0 0
48 2 6.1304243231227868e+00 2.3652383568717585e+00 1.7915250668034313e+00 0 0 0
49 1 1.0790197319805978e+01 3.3144327544681973e+00 8.5100075770692896e-01 0 0 0
50 2 1.1480457525318171e+01 2.9463835362689945e+00 1.3703457844261500e+00 0 0 0
51 2 1.0837066616817097e+01 2.8059508304451368e+00 2.2741377906896098e+01 0 0 0
52 1 7.8104074399614367e+00 4.9713566484101923e+00 1.3979746131881445e+00 0 0 0
53 2 7.7329063408867400e+00 5.7195779462186014e+00 8.0295588600145551e-01 0 0 0
54 2 6.9747905165124466e+00 4.9301193364552667e+00 2.0032581312645465e+00 0 0 0
55 1 1.0461379165574872e+01 6.0672366195756222e+00 6.4657258323304678e-01 0 0 0
56 2 9.6145568135694557e+00 6.2495169420235426e+00 1.0259346118978607e+00 0 0 0
57 2 1.0549183151656148e+01 5.0902348610323411e+00 5.6814151771989430e-01 0 0 0
145 1 5.0708971580147173e+00 1.2090448645757046e+01 5.2742566447348482e-01 0 0 0
557 2 1.2324856215990405e+01 1.2978026929035962e+00 8.5447887767495843e+00 0 0 0
1608 2 7.3308562452568946e+00 7.8341786307540859e+00 1.9122670987552098e+01 0 0 0
531 2 1.0982026296309321e+01 4.0040138979529427e+00 6.6867310005706129e+00 0 0 0
121 1 4.8979117125259242e+00 7.6162528649401029e+00 4.3557353540016130e+00 0 0 0
122 2 5.6239218212263840e+00 7.7197309508797343e+00 3.7670120977087875e+00 0 0 0
123 2 4.1264618573142950e+00 7.7107163037417692e+00 3.6388129951363837e+00 0 0 0
124 1 3.1606193182429090e+00 7.6997247457941738e+00 2.1201465815504994e+00 0 0 0
125 2 3.6126723765077209e+00 8.3869694734296072e+00 1.5514397920278549e+00 0 0 0
126 2 2.1774070855755272e+00 7.8366262474972563e+00 2.1797283841487971e+00 0 0 0
127 1 6.3357067291714451e+00 1.0942080169067774e+01 3.6120230314712827e+00 0 0 0
128 2 6.5666219785615265e+00 1.0239007505263636e+01 4.2628188753793257e+00 0 0 0
129 2 5.3322358702020143e+00 1.0893836094480996e+01 3.6204742494193187e+00 0 0 0
130 1 3.6759504592077530e+00 1.0746282182944748e+01 3.5693925821842489e+00 0 0 0
131 2 3.2384815246496408e+00 1.0092300118018921e+01 4.1318165104571447e+00 0 0 0
132 2 3.1020661808651129e+00 1.0819206731689151e+01 2.7638835729707552e+00 0 0 0
133 1 1.9785155910758463e+00 8.8873550545716498e+00 4.6228904930641264e+00 0 0 0
134 2 1.6972364428547455e+00 9.2163583972400893e+00 5.5448541213090676e+00 0 0 0
135 2 1.2544046489310663e+00 9.2828657590212700e+00 4.1094721255120259e+00 0 0 0
198 2 1.1992031004889784e+01 6.7525536489167441e+00 1.5835645728570993e+00 0 0 0
139 1 4.6441622744970976e+00 9.2792739447792343e+00 6.1670887905191918e-01 0 0 0
140 2 4.8155344611176227e+00 1.0237934128815258e+01 5.2053214679849169e-01 0 0 0
141 2 5.3298492556425963e+00 8.9360404279795311e+00 1.1890583268764732e+00 0 0 0
142 1 1.8378628216489352e+00 1.0813046040036028e+01 1.3877425439006585e+00 0 0 0
143 2 1.9897120877770424e+00 1.0029700037716831e+01 8.0231501340266054e-01 0 0 0
144 2 2.0792854525685147e+00 1.1613636452038252e+01 8.8366268498413514e-01 0 0 0
1158 2 1.1996056967135024e+01 8.0840373554194791e+00 1.2913009933317740e+01 0 0 0
148 1 1.6820192502945079e+00 6.3146220683757885e+00 4.9456805016911192e+00 0 0 0
149 2 8.9735822252582231e-01 5.9804471905535719e+00 4.4278767077763419e+00 0 0 0
150 2 1.7380010544458913e+00 7.2725057700580127e+00 4.7283043945068419e+00 0 0 0
151 1 1.0870161575339127e+01 7.5226005828440554e+00 4.3882850747140472e+00 0 0 0
218 2 5.6881224638947592e-01 1.0529798255400769e+01 2.5944268094238643e+00 0 0 0
153 2 1.0774315749268855e+01 8.1679077825893209e+00 5.1368543373054498e+00 0 0 0
154 1 8.9966473659882205e+00 7.6556049122175489e+00 2.1528619258358628e+00 0 0 0
155 2 9.4110649819933059e+00 8.4098908895978806e+00 1.7009175249694857e+00 0 0 0
156 2 9.6074713938991501e+00 7.5611831261259859e+00 2.9498115815891155e+00 0 0 0
1105 1 4.6141898920664195e+00 1.2204523569648963e+01 1.2062439167688323e+01 0 0 0
158 2 1.1273136609972282e+01 1.0450660829256531e+01 3.7587089599460888e+00 0 0 0
160 1 9.5534009879942516e+00 1.0460635514930130e+01 3.8279807933154948e+00 0 0 0
161 2 9.0955932935031623e+00 1.0588161486717629e+01 2.9555082889970143e+00 0 0 0
162 2 9.2821802848750536e+00 1.1192722882538472e+01 4.4231412974518376e+00 0 0 0
163 1 7.8107465941874867e+00 9.0679860984970659e+00 4.9716265355753837e+00 0 0 0
164 2 8.0333729390630353e+00 8.1657287175437805e+00 4.8656882778739217e+00 0 0 0
165 2 8.6080641477338027e+00 9.5381748151267161e+00 4.4943343260374169e+00 0 0 0
166 1 6.2469360105105558e+00 7.7678873775003741e+00 2.1000117160410738e+00 0 0 0
167 2 5.8431725394633522e+00 6.9245711670293746e+00 1.8369272522145794e+00 0 0 0
168 2 7.2421054005316785e+00 7.6355804299415810e+00 2.1785404661703880e+00 0 0 0
169 1 1.0887867734661103e+01 9.4517729723946005e+00 8.7186410652021162e-01 0 0 0
170 2 1.0908933150499546e+01 1.0463736545596765e+01 8.7338022827353767e-01 0 0 0
171 2 1.0969096148165631e+01 9.2218414260784289e+00 2.2674546944085421e+01 0 0 0
172 1 8.1251747730112847e+00 1.0897869765493555e+01 1.6728456585437241e+00 0 0 0
173 2 7.3014307852213083e+00 1.0887485853340490e+01 2.1295622876973810e+00 0 0 0
174 2 8.0662703288125854e+00 1.0248724555340157e+01 8.9401846364861626e-01 0 0 0
37 1 1.2192309547864703e+01 4.4790373958459693e+00 3.7060362595847898e+00 0 0 0
178 1 7.9471744533720292e+00 6.3299935654590715e+00 5.2497555828340596e+00 0 0 0
179 2 7.1556269704077504e+00 6.1211392142960559e+00 4.8017003213664591e+00 0 0 0
180 2 8.7232362210257435e+00 5.9634124489588629e+00 4.7410184629748713e+00 0 0 0
1856 2 1.0213075520074561e+01 6.1344775607792201e-01 1.8162088209580389e+01 0 0 0
28 1 2.2166213484798662e+00 3.6280020315080486e-01 4.8006152692744193e+00 0 0 0
416 2 1.1023364214712949e+01 1.0626786648779586e-01 6.2786734688239670e-02 0 0 1
99 2 7.1133502975833585e-01 3.7206024775544759e+00 3.6811923211302289e+00 0 0 0
1619 2 7.7888490954605691e+00 7.6377119574153323e+00 2.1804764524343355e+01 0 0 0
1478 2 1.2277595893616986e+01 5.5934106340779524e+00 2.1491091389400353e+01 0 0 0
1618 1 7.7873715185465038e+00 6.7153144766429529e+00 2.2034840191273467e+01 0 0 0
1135 1 1.0866201033025472e+01 1.2107663031912775e+01 1.1984423395090333e+01 0 0 0
625 1 4.6616693027772405e+00 1.2152714179384686e+01 6.1415463736700069e+00 0 0 0
481 1 4.5154566195149703e+00 1.7039724426164273e+00 1.0207848117083488e+01 0 0 0
482 2 4.5816365099012737e+00 9.1581428569405399e-01 1.0820263508534339e+01 0 0 0
483 2 5.3121499651215567e+00 1.7418279493194688e+00 9.6387639918870605e+00 0 0 0
484 1 3.1557592121610902e+00 1.3913379165757289e+00 7.8881253926851347e+00 0 0 0
485 2 3.4579537576552526e+00 1.5758557661230859e+00 8.8313039961588924e+00 0 0 0
486 2 2.2058540937447813e+00 1.4202369155885277e+00 8.0019385973090262e+00 0 0 0
487 1 6.0141787664737381e+00 4.8579120440367918e+00 9.2660380042526693e+00 0 0 0
488 2 5.0855182778104551e+00 4.7491316106696440e+00 9.2334205084892513e+00 0 0 0
489 2 6.2766908699834785e+00 4.1055543631312785e+00 9.8365636832936652e+00 0 0 0
490 1 3.3617660731448105e+00 4.5058365153101612e+00 9.1073514799184192e+00 0 0 0
491 2 3.0251140284684870e+00 3.8195021000090561e+00 9.7239767742312484e+00 0 0 0
492 2 2.9262127071576285e+00 5.3218250766397812e+00 9.5311947587462296e+00 0 0 0
493 1 1.6656277419889558e+00 2.8975201503599406e+00 1.0428940737032201e+01 0 0 0
494 2 1.5078383739354186e+00 3.2070297899753806e+00 1.1287772018357508e+01 0 0 0
495 2 9.1651541394747971e-01 3.3084255859248639e+00 9.9232491907927418e+00 0 0 0
1613 2 7.7474836534644549e+00 1.1834224271458499e+01 1.7703936756658322e+01 0 0 0
499 1 4.9647354925800746e+00 3.4083595115388134e+00 6.5426578690143886e+00 0 0 0
500 2 4.2397596028282125e+00 3.1491414386735199e+00 7.1290190084830547e+00 0 0 0
501 2 4.8912608572778247e+00 2.9431852284075806e+00 5.6757744806681290e+00 0 0 0
502 1 1.5472338006924828e+00 4.5360033884168924e+00 7.0807130517387646e+00 0 0 0
503 2 2.2547800864873224e+00 4.2959614865258438e+00 7.6441702342908435e+00 0 0 0
504 2 1.8401746209684600e+00 5.2955546746194271e+00 6.4778146236614633e+00 0 0 0
505 1 4.4816851861038725e+00 6.0236812852227510e+00 6.6781958995120414e+00 0 0 0
506 2 4.6986220349523249e+00 5.0143861927640820e+00 6.6011477605291491e+00 0 0 0
507 2 4.4420061868351661e+00 6.2550187345072450e+00 5.7059833453793303e+00 0 0 0
5 2 3.6345695141122714e+00 1.0306670235602273e+00 1.6439504248554071e+00 0 0 0
509 2 1.7461502184894859e+00 1.2275214556322513e+00 1.0550508284952382e+01 0 0 0
511 1 1.0857118492412345e+01 1.5332056412000972e+00 1.0033936440267954e+01 0 0 0
512 2 1.0698090029508480e+01 7.4371952616122516e-01 1.0591188413312269e+01 0 0 0
513 2 1.0122339887400614e+01 1.3755825974513303e+00 9.4445472838601336e+00 0 0 0
514 1 9.0923557868912130e+00 1.3707589176602968e+00 7.7719890382849668e+00 0 0 0
515 2 8.1312918334821340e+00 1.3933107921428656e+00 7.9577703021753390e+00 0 0 0
1136 2 1.0123027258462674e+01 1.2323658600507734e+01 1.2574979918796288e+01 0 0 0
538 1 7.7186247882804127e+00 3.7141956701030449e-01 1.0617220726770622e+01 0 0 0
520 1 9.3997561759368793e+00 4.6319824016525688e+00 9.5009919873915045e+00 0 0 0
521 2 1.0377236499537268e+01 4.6313958616845987e+00 9.4565752834568624e+00 0 0 0
522 2 9.0333227094623005e+00 4.6927466499325181e+00 8.5928526719128477e+00 0 0 0
523 1 7.3791736831513148e+00 3.0570277902534397e+00 1.0736448994460511e+01 0 0 0
524 2 7.4435620497656663e+00 2.0762594634874429e+00 1.0556731762145146e+01 0 0 0
525 2 8.1679507989257090e+00 3.3799928605480578e+00 1.0316276880784551e+01 0 0 0
526 1 6.3433053360628646e+00 1.4192779904337376e+00 8.2925486848368628e+00 0 0 0
527 2 6.0147512572178909e+00 2.2058203892086978e+00 7.8519415059542315e+00 0 0 0
219 2 8.2540471479338529e-01 1.1529838290741544e+01 3.7822462557156400e+00 0 0 0
529 1 1.1004927586786520e+01 3.0482211975011579e+00 6.5322782876412635e+00 0 0 0
530 2 1.0173887755949982e+01 2.6975460857851523e+00 6.8638729236216829e+00 0 0 0
1156 1 1.2300785836551945e+01 7.4256075323413979e+00 1.3520344089641759e+01 0 0 0
532 1 7.7569788571257661e+00 4.6025237781640422e+00 7.2043274088223663e+00 0 0 0
533 2 7.8302592730088740e+00 5.4077447947866277e+00 6.6459572168500136e+00 0 0 0
534 2 7.1194309183055946e+00 4.7214846429891963e+00 7.9210278506547649e+00 0 0 0
535 1 1.0818142195603061e+01 5.8349011645478353e+00 6.4138499475658159e+00 0 0 0
536 2 1.0164943347613637e+01 6.2136391865266436e+00 6.9806456952252622e+00 0 0 0
537 2 1.0988542255676739e+01 6.4897791076213389e+00 5.7532315418324123e+00 0 0 0
1607 2 5.8153402870641235e+00 7.6061561513281175e+00 1.9820072079650345e+01 0 0 0
896 2 1.1017640082668683e+01 1.2957164107567676e-01 5.4250864020590246e+00 0 0 0
1472 2 1.1478008686869005e+01 1.7048387928376949e+00 2.1120795972567301e+01 0 0 0
136 1 5.0058459800937483e-01 7.6339713398212536e+00 2.2800798737940160e+00 0 0 0
1612 1 7.8342482979966501e+00 1.1075138839421816e+01 1.8297609154645727e+01 0 0 0
601 1 4.7758816068091372e+00 7.9223524733616557e+00 9.8528807919872854e+00 0 0 0
602 2 5.4535154294969743e+00 8.0173488097829377e+00 9.1360041798349805e+00 0 0 0
603 2 4.9296195962818201e+00 8.5166912148349745e+00 1.0605803615524746e+01 0 0 0
604 1 2.7070103671587442e+00 7.8293317595033027e+00 7.7386559272841255e+00 0 0 0
605 2 3.0928281508451758e+00 8.2344387981186387e+00 8.5359043504817986e+00 0 0 0
606 2 3.2919513552596276e+00 7.0704025008921079e+00 7.5237794707854428e+00 0 0 0
607 1 5.9214528714064665e+00 1.1007879860021898e+01 9.3838498380334787e+00 0 0 0
608 2 6.5405563819081145e+00 1.1150163508413504e+01 8.6651618705526605e+00 0 0 0
609 2 6.4176446486363732e+00 1.0270740661533170e+01 9.8115983186135836e+00 0 0 0
610 1 3.1603153223636946e+00 1.0694788205365814e+01 9.1583711927529041e+00 0 0 0
611 2 2.5834347493077452e+00 1.0958281793658742e+01 8.4230969812692855e+00 0 0 0
612 2 4.0433992088726374e+00 1.0443026700957850e+01 8.8496377801495036e+00 0 0 0
613 1 1.6212985707833099e+00 8.9438666138811538e+00 1.0474017995710053e+01 0 0 0
779 2 8.4667335069833758e+00 1.1986448573165841e+01 1.0067049422330435e+01 0 0 0
615 2 2.4504993037126668e+00 9.4087533920374149e+00 1.0092807321312607e+01 0 0 0
175 1 1.0759848941543991e+01 1.2265724875494998e+01 8.5896823829000279e-01 0 0 0
618 2 9.2089808698003628e-01 7.5518040092597571e+00 7.8582638422589142e+00 0 0 0
619 1 4.9305961557515090e+00 9.4401000358519234e+00 6.2470082607499151e+00 0 0 0
620 2 5.0765346381317276e+00 8.7739181864560809e+00 5.5107885880351324e+00 0 0 0
621 2 4.0474009307166341e+00 9.1528675101334152e+00 6.5803005179317324e+00 0 0 0
622 1 1.4937604278352363e+00 1.0731231540532752e+01 6.8136580639259980e+00 0 0 0
623 2 7.3868224970966101e-01 1.0784702734279538e+01 7.4269423894184383e+00 0 0 0
624 2 1.4850429110583119e+00 1.1350873156575902e+01 6.0799492770781187e+00 0 0 0
528 2 5.9264096972764406e+00 6.9151518971860559e-01 7.7502906967546314e+00 0 0 0
626 2 4.8090012978438859e+00 1.1182440849497679e+01 6.0572221034755769e+00 0 0 0
628 1 1.7258004850616642e+00 6.3254845693854262e+00 1.0345865284494973e+01 0 0 0
629 2 1.9520228549176950e+00 6.0509930933071061e+00 1.1287641124228617e+01 0 0 0
630 2 1.7210974111963180e+00 7.3192393184710838e+00 1.0282434755542059e+01 0 0 0
631 1 1.0590062462244347e+01 7.5380473376678827e+00 1.0082209258178572e+01 0 0 0
632 2 1.0737536422843025e+01 6.9294627724526423e+00 1.0812911676817459e+01 0 0 0
633 2 1.1388927224744121e+01 7.5428899310765631e+00 9.5641904015013086e+00 0 0 0
634 1 9.1097572297855578e+00 7.6349793530231720e+00 7.7803648185550029e+00 0 0 0
635 2 9.4878028926392837e+00 7.5367418792606315e+00 8.6624950734439672e+00 0 0 0
636 2 8.1728923440354890e+00 7.4089707971203360e+00 7.7285809904903759e+00 0 0 0
1597 1 1.2221235083788853e+01 1.0977973476220159e+01 2.0685498337202382e+01 0 0 0
639 2 1.1044448345964060e+01 1.0830442244235519e+01 9.3771691418782215e+00 0 0 0
640 1 9.3227855509063193e+00 1.0563546706506326e+01 9.2136991270382609e+00 0 0 0
641 2 8.8797578113122597e+00 1.0606154268206252e+01 8.3488532654492875e+00 0 0 0
642 2 9.0563832160499782e+00 9.7580124075514405e+00 9.8090973878237389e+00 0 0 0
643 1 7.6023679170576264e+00 9.0703036026612072e+00 1.0735086577610272e+01 0 0 0
644 2 7.7116408108268963e+00 8.1134537408688274e+00 1.1050671257636500e+01 0 0 0
645 2 7.8856078089412414e+00 9.5869414662472039e+00 1.1540217889882843e+01 0 0 0
646 1 6.2168831914034852e+00 7.5483346676992484e+00 7.6357439978461707e+00 0 0 0
647 2 5.5174995299999763e+00 6.9024374544745672e+00 7.3629860081253904e+00 0 0 0
648 2 5.9203474481814444e+00 8.3884038648320711e+00 7.1976563124465267e+00 0 0 0
649 1 1.0834412005687446e+01 9.3331591574708455e+00 6.5039249562447514e+00 0 0 0
650 2 1.0754321837061235e+01 1.0330724169830475e+01 6.5938035196649656e+00 0 0 0
651 2 1.0184335104305541e+01 8.8235395920343027e+00 7.1155209059528888e+00 0 0 0
652 1 7.8077509439410724e+00 1.0831761995620216e+01 7.1408662152865467e+00 0 0 0
653 2 7.8450039929678343e+00 9.9019877913864338e+00 6.7242955678423328e+00 0 0 0
1468 1 1.7811103638475172e+00 3.8714757156918517e-01 2.2033155324335631e+01 0 0 0
1089 2 5.1174373773269073e+00 1.1020275527831709e+01 1.4601714448252080e+01 0 0 0
658 1 7.6598375643732970e+00 6.2280738056050815e+00 1.0897726691662603e+01 0 0 0
659 2 6.9268828252670067e+00 5.9820257759461235e+00 1.0312154369173285e+01 0 0 0
660 2 8.4664718888076305e+00 5.9012438130471097e+00 1.0382875994073229e+01 0 0 0
1610 2 1.0851748141087933e+01 9.0676778259710495e+00 1.7222449722625669e+01 0 0 0
1498 1 7.7124251938886657e+00 4.6795990469989995e-01 2.2000016159912114e+01 0 0 0
578 2 1.9410618895702580e-01 5.3179652289861004e+00 9.6928671913823372e+00 0 0 0
558 2 1.2177678254504753e+01 1.9274048986368444e+00 7.2110484039125353e+00 0 0 0
1614 2 8.6974116797944472e+00 1.1101990683075666e+01 1.8761231936617683e+01 0 0 0
157 1 1.2245828789913432e+01 1.0589347346091614e+01 3.7752328520750114e+00 0 0 0
496 1 3.1219636214011692e-01 1.7051594726365147e+00 7.7926003381293008e+00 0 0 0
1616 2 1.1292884369212787e+01 1.1424490568969649e+01 1.7678113366322123e+01 0 0 0
1346 2 4.0991105020774210e+00 2.8527491082590972e-01 1.2700724564273349e+01 0 0 0
1376 2 1.1336549422164167e+01 1.6813567205208968e-01 1.2740706303969178e+01 0 0 0
961 1 4.8909615556060357e+00 1.7247104212323123e+00 1.5742862772691010e+01 0 0 0
962 2 4.6253979274437489e+00 2.4111011635877335e+00 1.6380894945151958e+01 0 0 0
614 2 9.1307629245886957e-01 9.4184533634602658e+00 1.0063567840905534e+01 0 0 0
964 1 2.9130486672597429e+00 1.6849737164025294e+00 1.3720581326539499e+01 0 0 0
965 2 3.4613513300256318e+00 1.4478917604081853e+00 1.4481305767237227e+01 0 0 0
966 2 3.4443957416044442e+00 2.4286490937271448e+00 1.3395244352351838e+01 0 0 0
967 1 5.9242704508135855e+00 4.7887852627490783e+00 1.5132861758257183e+01 0 0 0
968 2 6.5687600540468676e+00 5.4370262387026607e+00 1.5309159251591243e+01 0 0 0
969 2 6.2165107918225626e+00 4.5409401870006203e+00 1.4223979099755574e+01 0 0 0
970 1 3.4331081903625207e+00 4.5728424491898512e+00 1.4852654383072563e+01 0 0 0
971 2 4.3965128751336895e+00 4.8600824776616500e+00 1.4963246402861365e+01 0 0 0
972 2 2.8889011223220349e+00 5.3630779642142370e+00 1.5022101506650106e+01 0 0 0
973 1 1.4628354320482042e+00 3.1590269373879489e+00 1.5962551072113987e+01 0 0 0
974 2 2.2307330108686041e+00 3.6592826270238552e+00 1.5598250720041015e+01 0 0 0
975 2 1.4217095703690952e+00 3.5181352285935179e+00 1.6843971357364815e+01 0 0 0
1740 2 8.0240474437282359e+00 1.2081018140415813e+01 4.9642633773091183e-01 0 0 0
977 2 1.1670400924362625e+00 1.6726763689108211e+00 1.3227649108750377e+01 0 0 0
979 1 4.4707255126191754e+00 3.3705495785927035e+00 1.2300064452023452e+01 0 0 0
980 2 4.4013596661150984e+00 2.8641009551882610e+00 1.1426582053075631e+01 0 0 0
981 2 5.2559592215979460e+00 2.9294939742070443e+00 1.2650938701987995e+01 0 0 0
982 1 1.8261924380727292e+00 5.0872245691067057e+00 1.2645966680728515e+01 0 0 0
983 2 2.5562002940696336e+00 4.8151636135229561e+00 1.3212213667636227e+01 0 0 0
984 2 1.0880906877172278e+00 5.1483232431976980e+00 1.3275096934581335e+01 0 0 0
985 1 4.8097927126217561e+00 6.1272063350780863e+00 1.2199124123507312e+01 0 0 0
986 2 4.8502013119725804e+00 6.5319317050586658e+00 1.1293332120065802e+01 0 0 0
987 2 4.4878455086081601e+00 5.1797119999170276e+00 1.2111881294738128e+01 0 0 0
1038 2 1.2139878513229446e+01 1.3648501878774730e+00 1.4464653857845409e+01 0 0 0
989 2 1.5858960207004402e+00 1.1832796564847563e+00 1.5930577398804800e+01 0 0 0
991 1 1.1104026138941840e+01 1.5264246530752039e+00 1.5685634899259007e+01 0 0 0
992 2 1.1081438561592741e+01 1.0065300057386195e+00 1.6490161305725486e+01 0 0 0
993 2 1.0340339689030717e+01 1.4842689085911653e+00 1.5073008931046656e+01 0 0 0
994 1 9.0352557234846902e+00 1.4442495817226830e+00 1.3583780705245205e+01 0 0 0
995 2 9.4262792685892034e+00 7.8063343419644071e-01 1.3031732023447475e+01 0 0 0
996 2 9.4533450423541456e+00 2.2704982269629737e+00 1.3305067620955482e+01 0 0 0
1602 2 9.1788576550176852e+00 1.1805581728309294e+01 2.1129506278394643e+01 0 0 0
998 2 1.1172944003245195e+01 4.6653567124949040e+00 1.4936341987718832e+01 0 0 0
1000 1 9.5467091382820897e+00 4.4382533190720697e+00 1.4833336689205959e+01 0 0 0
1001 2 8.9096200571949709e+00 3.8703356992190114e+00 1.5354749749084695e+01 0 0 0
1002 2 9.0179016640853131e+00 4.6222831508494506e+00 1.4044179287519960e+01 0 0 0
1003 1 7.7900465324174073e+00 2.9104197591759964e+00 1.6512978903189541e+01 0 0 0
1004 2 6.8994330140454103e+00 3.0996389421255617e+00 1.6220973655306977e+01 0 0 0
1005 2 8.0269410285178360e+00 3.5256038646685619e+00 1.7249448538404415e+01 0 0 0
1006 1 6.4983630551754796e+00 1.7983788439141135e+00 1.3406191948354049e+01 0 0 0
1007 2 6.1757465750063805e+00 1.8201695103189679e+00 1.4316973946610638e+01 0 0 0
1008 2 7.5012816266892886e+00 1.7185106332575022e+00 1.3626393581471874e+01 0 0 0
1009 1 1.0874678468769298e+01 3.0244214426203513e+00 1.2152950171683147e+01 0 0 0
1010 2 1.1421686364112098e+01 2.5393628373960091e+00 1.2790977719129556e+01 0 0 0
1011 2 1.0862569488227276e+01 2.6067019054141838e+00 1.1302671514655747e+01 0 0 0
1012 1 7.6534719495310339e+00 4.6017932805285255e+00 1.3002457331154439e+01 0 0 0
1013 2 7.5956325180426498e+00 3.8263158499572762e+00 1.2464618180303237e+01 0 0 0
1014 2 7.7681589924424088e+00 5.2405678203315391e+00 1.2282086290482006e+01 0 0 0
1015 1 1.0341398523392023e+01 6.0086848862767832e+00 1.2332894696326438e+01 0 0 0
1016 2 1.0435303246748839e+01 5.0172391992480136e+00 1.2156928363954650e+01 0 0 0
1017 2 1.1160908571585646e+01 6.1611835851543386e+00 1.2795538593959725e+01 0 0 0
1058 2 4.5947023302653223e-01 4.1224260795427004e+00 1.4962746019797223e+01 1 0 0
1019 2 7.7856207712664789e+00 1.2724475635630124e+00 1.6664593450103901e+01 0 0 0
654 2 7.8233805035738557e+00 1.1436116198248236e+01 6.3496078312777353e+00 0 0 0
517 1 1.1937555126400824e+01 4.7526012520651859e+00 9.4603703121074876e+00 0 0 0
1081 1 4.0496554804302054e+00 7.3670103184462059e+00 1.5770562198104352e+01 0 0 0
1082 2 4.8782100585129404e+00 7.3900030519647570e+00 1.5271251217403906e+01 0 0 0
1083 2 4.2689270445183531e+00 6.7864314852377383e+00 1.6521764246081020e+01 0 0 0
1084 1 2.8500965578880604e+00 7.7657913203452296e+00 1.3324293885308194e+01 0 0 0
1085 2 3.1846818322437964e+00 7.8228185088305464e+00 1.4222848268626935e+01 0 0 0
1086 2 3.4566604171819622e+00 7.1120670838180819e+00 1.2899083356720588e+01 0 0 0
1087 1 6.0575183329069002e+00 1.0834759725302655e+01 1.4487199662076415e+01 0 0 0
1088 2 6.2740994236052128e+00 1.0290696808200435e+01 1.5277130540994698e+01 0 0 0
1018 1 7.9553234955321033e+00 3.2329634205692909e-01 1.6674118157662576e+01 0 0 0
1090 1 3.4038947375948254e+00 1.1162045521081071e+01 1.4936583332712507e+01 0 0 0
1091 2 2.9296253644987273e+00 1.0475520017385177e+01 1.5436486095186048e+01 0 0 0
1092 2 3.0286915860958779e+00 1.1130236987342485e+01 1.4053009978626900e+01 0 0 0
1093 1 1.9141340062365415e+00 9.2951843299775501e+00 1.6436535279590323e+01 0 0 0
1094 2 1.9884999257681244e+00 8.3997108835714833e+00 1.6702280272349412e+01 0 0 0
1095 2 1.0847500374280363e+00 9.3758168254546703e+00 1.5953941045198752e+01 0 0 0
1658 2 4.2792906278600085e-01 1.0217786242670945e+01 1.9860478776679685e+01 0 0 0
1097 2 1.0000109854556096e+00 7.7145338684966047e+00 1.3334211730813955e+01 0 0 0
1099 1 4.7136253712333334e+00 9.4896693887326560e+00 1.2074970180071960e+01 0 0 0
1100 2 3.9076366110734515e+00 9.0860509167722601e+00 1.2486840450275894e+01 0 0 0
1101 2 4.5566287320604753e+00 1.0452727468100489e+01 1.2047045975797031e+01 0 0 0
1102 1 1.7388957323444030e+00 1.0919071504199938e+01 1.2595312107470564e+01 0 0 0
1103 2 1.7627565135218555e+00 1.0125389735460388e+01 1.2007342453399353e+01 0 0 0
1104 2 9.2540122359988097e-01 1.0795297414544139e+01 1.3057571066695276e+01 0 0 0
197 2 1.2127517524125238e+01 8.2750307861513885e+00 1.6401005889494471e+00 0 0 0
1108 1 1.3178603505179187e+00 6.7216827424216898e+00 1.6458440186192632e+01 0 0 0
1109 2 7.5680679178253474e-01 6.3025451530016285e+00 1.5803725556069432e+01 0 0 0
1110 2 1.4241605068615086e+00 6.0995644797884383e+00 1.7231872884969789e+01 0 0 0
1111 1 1.0678235003525653e+01 7.7688961560521221e+00 1.5915420051295174e+01 0 0 0
1112 2 1.1403107951248531e+01 7.7100223595888817e+00 1.5187694013938803e+01 0 0 0
1113 2 9.9109924687029647e+00 8.0569503921653531e+00 1.5359332839434607e+01 0 0 0
1114 1 9.1174530564534262e+00 7.8851955376555045e+00 1.3667120642141805e+01 0 0 0
1115 2 9.4068317213595520e+00 7.0971324644689986e+00 1.3168761679698846e+01 0 0 0
1116 2 8.1671989085850569e+00 8.0767663234532847e+00 1.3372402168566705e+01 0 0 0
33 2 1.1696058978919973e+01 1.5256538549620140e+00 3.8347447116470073e+00 0 0 0
1120 1 9.3363416102200549e+00 1.0905390162680680e+01 1.5403269902644370e+01 0 0 0
1121 2 9.0183991378844439e+00 1.0799302496343753e+01 1.4506451041387379e+01 0 0 0
1122 2 1.0356642048140968e+01 1.0973605405382205e+01 1.5390596823766893e+01 0 0 0
1123 1 7.3005915289321628e+00 9.2294474741649495e+00 1.6212453510582911e+01 0 0 0
1124 2 8.0779617575706535e+00 9.7738133323934377e+00 1.6030727767837519e+01 0 0 0
1125 2 6.9779689327674612e+00 9.5138882745700641e+00 1.7059289151216113e+01 0 0 0
1126 1 6.1755489684097462e+00 7.9433154105959503e+00 1.3938111397575192e+01 0 0 0
1127 2 5.9246410461168857e+00 7.0925383479160695e+00 1.3444114599250133e+01 0 0 0
1128 2 5.7890079713737448e+00 8.6257019696710753e+00 1.3289770753134203e+01 0 0 0
1129 1 1.0841205165448418e+01 9.4612001970210997e+00 1.2103801676659954e+01 0 0 0
1130 2 1.0078833535364492e+01 9.0994950704993762e+00 1.2642824430280681e+01 0 0 0
1131 2 1.0890675588679551e+01 8.8930350508168203e+00 1.1319626424655615e+01 0 0 0
1132 1 7.9953389226422420e+00 1.0957701170346212e+01 1.2772138245974880e+01 0 0 0
655 1 1.0978164730369514e+01 1.2085522228276584e+01 6.5716021773050759e+00 0 0 0
1134 2 7.2160349487516466e+00 1.0891807487971439e+01 1.3392008664562940e+01 0 0 0
516 2 9.2142128062723323e+00 7.2207111847855876e-01 7.0561501013711565e+00 0 0 0
1137 2 1.0940600780345802e+01 1.1119256210564245e+01 1.1912162114814494e+01 0 0 0
1138 1 7.7508871750746176e+00 6.5930420824720093e+00 1.6540046898770989e+01 0 0 0
1139 2 7.5908110201000829e+00 7.5348506883106188e+00 1.6385640529706102e+01 0 0 0
1140 2 8.4674195388073628e+00 6.2846339738593828e+00 1.5945667793729916e+01 0 0 0
1260 2 6.9515124513848034e+00 1.2243116110011380e+01 1.5619249279633291e+01 0 0 0
77 2 1.1963665615913328e+01 7.1844713688875450e-01 1.8304049415201491e+00 0 0 0
867 2 4.0988380284724339e+00 9.1691444343228484e-02 7.3224244973372867e+00 0 0 0
976 1 1.9496824425265963e-01 1.6197449989133510e+00 1.3172824528796530e+01 0 0 0
1857 2 1.1744517358547981e+01 2.4466197591876454e-01 1.8295254332719949e+01 0 0 0
16 1 2.2571729508012706e-01 1.3815794257246496e+00 1.9721873698167713e+00 0 0 0
217 1 3.3235000050266361e-01 1.0767484679811670e+01 3.5103437461544047e+00 1 0 0
997 1 1.2142735127425071e+01 4.7202597762757561e+00 1.4760280455872218e+01 0 0 0
1178 2 4.0439117252787832e-01 1.1532050585420848e+01 1.5376625722454303e+01 0 0 0
1441 1 4.5610035470594115e+00 1.5474694601727716e+00 2.1344321553728349e+01 0 0 0
1442 2 4.7508174243708048e+00 8.4106737450116020e-01 2.2075013086905173e+01 0 0 0
1443 2 4.9005004969793342e+00 2.3611283434591352e+00 2.1801669709443914e+01 0 0 0