LAMMPS data file via write_data, version 3 Mar 2020, timestep = 1000000

1008 atoms
2 atom types

2.1457501659710765e-01 1.8184979983397753e+01 xlo xhi
8.5475852548047015e-02 2.2484913147447330e+01 ylo yhi
2.1523533392305616e-01 1.9290480666074252e+01 zlo zhi
2.9348848181911299e-02 -6.7064778517881516e+00 -7.3927336588463455e-02 xy xz yz

Masses

1 16
2 2

Atoms # atomic

1 1 6.3719400762144005e+00 8.8044515910950949e-01 4.8411406496873726e+00 0 0 0
775 1 6.6557689168208602e+00 9.9538131129779774e+00 9.7520238813382427e+00 0 0 0
3 2 6.3902573563634490e+00 1.2751651455712443e+00 3.9748778254831598e+00 0 0 0
4 1 3.6945786077273906e+00 1.2053848141943964e+00 5.0592352042796485e+00 0 0 0
5 2 4.6582574946815436e+00 9.1084148872772319e-01 4.8853687640859800e+00 0 0 0
6 2 3.7052112446798113e+00 1.6760191698816955e+00 5.9763032367514182e+00 0 0 0
7 1 -8.0521621068899640e-01 6.2225142380194809e+00 4.9778011112455811e+00 0 0 0
8 2 -1.0703609984428168e+00 5.8374665123414031e+00 5.8264792399883722e+00 0 0 0
9 2 -1.2187917976919644e+00 7.0973348614234020e+00 4.9609504573033245e+00 0 0 0
10 1 2.1955650255605228e+00 6.6582275930624109e+00 5.2026357877042217e+00 0 0 0
11 2 1.3376276154883153e+00 7.0828888017251028e+00 5.3968968203573695e+00 0 0 0
12 2 2.8658728783086742e+00 7.4437486476621180e+00 5.2468885030794974e+00 0 0 0
219 2 6.0307592398452670e+00 1.0756311194086386e+01 7.0100653742644292e+00 0 0 0
14 2 5.0209268864282208e+00 5.2035680113317584e+00 8.8078156713677096e+00 0 0 0
780 2 1.2978848801553379e+01 9.5135462951574361e+00 8.6239502975241800e-01 0 0 0
248 2 7.5717163084432437e+00 8.4117767648547250e+00 5.6515432393460574e-01 0 0 0
18 2 5.7384124742234759e+00 5.0619732857233508e+00 1.3076758571428440e+00 0 0 0
584 2 3.3646624363203479e+00 4.3560446244426104e-01 9.3966232113535888e+00 0 0 0
156 2 1.2034074620987237e+01 3.9915922604580523e-01 2.1529242824505790e+00 0 0 0
21 2 1.2161199871579269e+00 2.3945447550772649e+00 1.1538608290729377e+00 0 0 0
331 1 1.5897330011389057e+01 9.1320912549403985e+00 4.3804010732615839e-01 0 0 0
585 2 3.9135573840779303e+00 1.8027421557990824e+00 9.2448376382362056e+00 0 0 0
254 2 1.5459409097360068e+01 9.0886718518802390e+00 5.7274514882143652e+00 0 0 0
25 1 4.6357150856928389e+00 6.1233700654879124e+00 7.2837931616462361e+00 0 0 0
26 2 5.2038834105206337e+00 6.9301683053360819e+00 7.3703033229429540e+00 0 0 0
27 2 3.7625886995753475e+00 6.3961937735794931e+00 7.5843322727075861e+00 0 0 0
28 1 6.0215305125256222e+00 6.1688174296333820e+00 2.6220861693857271e+00 0 0 0
29 2 6.0505427970753995e+00 6.0687154333841562e+00 3.5900019591130699e+00 0 0 0
30 2 5.3817826044103336e+00 6.8521096167884687e+00 2.3858047711616117e+00 0 0 0
31 1 1.4065668653052867e+00 1.3546506047445570e+00 2.6136957501998301e+00 0 0 0
32 2 2.3123100193144239e+00 9.4636255410808634e-01 2.6135248101772164e+00 0 0 0
33 2 1.2059906245549274e+00 1.7021300005010742e+00 3.5632516168190911e+00 0 0 0
34 1 4.0607106938566950e-01 1.1027446397667029e+00 7.4126438196512714e+00 0 0 0
35 2 -5.3713692580010375e-01 8.8370703351268887e-01 7.3074784614544237e+00 0 0 0
36 2 5.2492803871996063e-01 1.8030857629808852e+00 8.1041029289035009e+00 0 0 0
37 1 6.3042371117823421e+00 2.2935304054498702e+00 2.3684660218391524e+00 0 0 0
38 2 5.4558225054789098e+00 2.7698272915653015e+00 2.3968948267689680e+00 0 0 0
39 2 6.9383499268258877e+00 2.9932172402072132e+00 2.6919959479784588e+00 0 0 0
40 1 3.6134848816765079e+00 2.3802627173188671e+00 7.5041505310454593e+00 0 0 0
41 2 4.4800167559499622e+00 2.8404188913391843e+00 7.2792513701539523e+00 0 0 0
42 2 3.0250145369110100e+00 3.1594837403233673e+00 7.4653684665507862e+00 0 0 0
43 1 -6.3162101511568025e-01 4.9498781452710174e+00 7.4484009789157595e+00 0 0 0
44 2 -1.3327238406582933e+00 4.2455971401574253e+00 7.4439014916350166e+00 0 0 0
45 2 -6.5962818879999108e-01 5.3723306007589988e+00 8.3566793943326694e+00 0 0 0
46 1 2.0681010046136739e+00 5.2362447849862450e+00 2.7999590545823030e+00 0 0 0
47 2 1.0990579060971803e+00 4.9784744144671382e+00 2.8231365348143496e+00 0 0 0
48 2 2.1818630973805400e+00 5.9347553487260170e+00 3.4580212304389195e+00 0 0 0
49 1 6.2796559773487104e+00 3.0145302572973742e+00 6.5639102654258803e+00 0 0 0
50 2 6.0476379895230616e+00 3.7048080959792391e+00 5.8545517394220896e+00 0 0 0
51 2 6.3735239234538108e+00 2.1674403165636380e+00 6.0679469972812914e+00 0 0 0
52 1 3.9572425008453793e+00 3.3953110515142852e+00 3.5070967685603640e+00 0 0 0
53 2 3.1524440998232244e+00 3.9355387957839389e+00 3.1602205142084450e+00 0 0 0
54 2 3.5890656576888302e+00 2.6242028975294662e+00 3.9678451828385919e+00 0 0 0
55 1 -6.7631564862003213e-01 4.2676808043477070e+00 3.2456147457513307e+00 0 0 0
56 2 -8.9455969713502603e-01 5.0436794662472160e+00 3.8528757109924863e+00 0 0 0
57 2 -2.8100206287737350e-01 3.5920992964387346e+00 3.8522363825092691e+00 0 0 0
58 1 1.7788934306040929e+00 4.2103829556126309e+00 6.6102817539620187e+00 0 0 0
59 2 2.1804774352656264e+00 5.0400813902216806e+00 6.3214077279759620e+00 0 0 0
60 2 8.9900210853224483e-01 4.4828938987527200e+00 6.9370100110576152e+00 0 0 0
61 1 8.5118647701575778e+00 7.1630286959666973e+00 1.4984347802487130e+00 0 0 0
62 2 7.6592522199254711e+00 6.9246966666971641e+00 1.9551641030198854e+00 0 0 0
63 2 8.6588816938785786e+00 6.3839248125792905e+00 9.4782898506325808e-01 0 0 0
64 1 2.3767102205120443e+00 7.1791392928520832e+00 8.4940759934548886e+00 0 0 0
65 2 1.7377326784413940e+00 7.7083679033432952e+00 8.0220900822842633e+00 0 0 0
66 2 2.7968342183072989e+00 7.7970786856163521e+00 9.0905706680759675e+00 0 0 0
67 1 -2.2168658273057651e+00 5.7108882203434419e-01 8.1854319532431923e+00 0 0 0
68 2 -2.4101581732445672e+00 1.4845271851314257e+00 8.4983663875701900e+00 0 0 0
221 2 4.8059909657958606e+00 1.0599264878014672e+01 2.6655157316866975e+00 0 0 0
72 2 4.1651021202315057e+00 1.4191342486699672e+00 1.1138035530843924e+00 0 0 0
73 1 5.4303078945901291e+00 4.9795970278190813e+00 4.9195930740076061e+00 0 0 0
74 2 4.9829590750269510e+00 5.4070102721882325e+00 5.6383640353550613e+00 0 0 0
75 2 4.7149297105286836e+00 4.4279101528132090e+00 4.3975003586505865e+00 0 0 0
76 1 7.5310047164944871e-01 2.3665636742070135e+00 4.9783423539139147e+00 0 0 0
77 2 5.0590525837559186e-01 1.9947982962393751e+00 5.8584568483123736e+00 0 0 0
78 2 1.2250575206231411e+00 3.1782592390069766e+00 5.3312313696193216e+00 0 0 0
222 2 3.3508627960735642e+00 1.1247144329545611e+01 2.8334337601944579e+00 0 0 0
290 2 1.6011620603337029e+01 1.0815784670588764e+01 3.1108442180163167e+00 0 0 0
836 2 1.2580020339849851e+01 9.6130301899071124e+00 9.0814354666284736e+00 0 0 0
85 1 1.5337618732126911e+01 1.0139740394308898e+00 4.7487052421550793e+00 0 0 0
87 2 1.5384687934312318e+01 1.3767815995831068e+00 3.8410948908904521e+00 0 0 0
88 1 1.2676962765608536e+01 9.5664610056787891e-01 4.9573318305956082e+00 0 0 0
89 2 1.2611933079462661e+01 1.8123136466717364e+00 4.4756437889870151e+00 0 0 0
90 2 1.3642439094700549e+01 8.3211163243878528e-01 4.9449618555262056e+00 0 0 0
91 1 8.2690868695239352e+00 6.4068135977317606e+00 5.2014544355884604e+00 0 0 0
92 2 8.1423562769497018e+00 5.7405099062489171e+00 4.5280125282563066e+00 0 0 0
93 2 9.2414169584509462e+00 6.5211212678383639e+00 5.1203917356233486e+00 0 0 0
94 1 1.0947072589929519e+01 6.1204800093117431e+00 4.7434672517158765e+00 0 0 0
95 2 1.1337172551241427e+01 6.9524289187231867e+00 5.0251033052990710e+00 0 0 0
96 2 1.1257944723585139e+01 5.4666548715672310e+00 5.4942772069983201e+00 0 0 0
273 2 1.1039848394392630e+01 1.0456854241927173e+01 6.1419271446151380e-01 0 0 1
145 1 1.7337165790474536e+01 7.1783443680190153e+00 1.5910621578815116e+00 0 0 0
237 2 1.5106998908993207e+01 7.5271694236319640e+00 8.0062927910130952e+00 0 0 0
101 2 1.4707605194976930e+01 5.5295841294725534e+00 1.1740606702525143e+00 0 0 0
146 2 1.7536094156562896e+01 6.4398967302698846e+00 1.0778474637618856e+00 0 0 0
521 2 1.9135313087554215e+00 5.5652399815658811e+00 9.5834357489138444e+00 0 0 0
84 2 3.3584593460079954e+00 6.3111578083234301e+00 7.8476461920143947e-01 0 0 0
302 2 1.4767291997832823e+01 1.0514023114485164e+01 6.8460598703000901e+00 0 0 0
109 1 1.3877523724515873e+01 6.1426505144823613e+00 7.4054859974427627e+00 0 0 0
110 2 1.4147780117873655e+01 5.6827439462793361e+00 8.2630324608386019e+00 0 0 0
111 2 1.3077240752147784e+01 6.6293343989547946e+00 7.6444860047714993e+00 0 0 0
112 1 1.4831540744679957e+01 6.2952316120559590e+00 2.7405890259516013e+00 0 0 0
113 2 1.4190690076286465e+01 7.0423598393907323e+00 2.6257756322075996e+00 0 0 0
114 2 1.5768821504128631e+01 6.6450800773004426e+00 2.5976105551249509e+00 0 0 0
115 1 1.0337134952468732e+01 1.3352852708920351e+00 2.7535246700602340e+00 0 0 0
116 2 1.0289359604432427e+01 2.0043806947799503e+00 2.0778588796684270e+00 0 0 0
220 1 4.0311488945091938e+00 1.0734124511960756e+01 3.2583868760456625e+00 0 0 0
118 1 8.8453705069000108e+00 9.3592159245441642e-01 7.3160396881577299e+00 0 0 0
119 2 9.0789355052323213e+00 1.5903839376963274e+00 8.0055388376522494e+00 0 0 0
120 2 9.0492910752409195e+00 1.3869141717810440e+00 6.4237665555565426e+00 0 0 0
121 1 1.5274738711814596e+01 2.3437242577021027e+00 2.3441302055450048e+00 0 0 0
122 2 1.5934914495184969e+01 3.0382299613209458e+00 2.5505917044413624e+00 0 0 0
123 2 1.5415530618176815e+01 2.1637290769627486e+00 1.3763258386613348e+00 0 0 0
124 1 1.3143376374860379e+01 2.3506419221599222e+00 7.5632867036563498e+00 0 0 0
125 2 1.3911345378179757e+01 2.7478619829768873e+00 7.1681249484791651e+00 0 0 0
126 2 1.2934549901824132e+01 1.7211624073689737e+00 6.8639871599684366e+00 0 0 0
127 1 8.4012375361526814e+00 4.6047085147086344e+00 7.3835239227707170e+00 0 0 0
128 2 7.7382063887533388e+00 3.9283361813375040e+00 7.1558957324934971e+00 0 0 0
129 2 8.2309316405863573e+00 5.2830226133922134e+00 6.7172687013160779e+00 0 0 0
130 1 1.0838915298934319e+01 4.8556513987768097e+00 2.3861335639416144e+00 0 0 0
131 2 1.1569786396867512e+01 4.1925312303511584e+00 2.5211061306058546e+00 0 0 0
132 2 1.0751367557614403e+01 5.3746468265560701e+00 3.2339389086165466e+00 0 0 0
134 2 1.5269374892408495e+01 3.8889285174996191e+00 6.0253082131769027e+00 0 0 0
136 1 1.2827267343660386e+01 3.3155066300339615e+00 3.4239441672949211e+00 0 0 0
137 2 1.3178949631688861e+01 3.9199539572051720e+00 4.1070734932766140e+00 0 0 0
138 2 1.3597894119101294e+01 3.2388007442233584e+00 2.7663934228219218e+00 0 0 0
139 1 8.2295185664326294e+00 4.1645065892308564e+00 3.2725759491874107e+00 0 0 0
140 2 9.0070500522928896e+00 4.3937663783259637e+00 2.7100504677279362e+00 0 0 0
141 2 8.5881249108121320e+00 3.5299405206421732e+00 3.8903795610147922e+00 0 0 0
142 1 1.1096706273137640e+01 3.8532604057451634e+00 6.3927394405331368e+00 0 0 0
143 2 1.1836679836582634e+01 3.6292591065072863e+00 6.9634411363815722e+00 0 0 0
144 2 1.0384371638368405e+01 4.1042899318007482e+00 6.9765681186347797e+00 0 0 0
147 2 1.6930651924307050e+01 7.9146868452949919e+00 1.0743072059829191e+00 0 0 0
148 1 1.1071957201773200e+01 7.0672548910844224e+00 8.0996583774559898e+00 0 0 0
149 2 1.0808349632356272e+01 6.2734920504553413e+00 8.6256109622490804e+00 0 0 0
150 2 1.1359540986177963e+01 7.6539498529822705e+00 8.7852953363199617e+00 0 0 0
154 1 1.2792161736647845e+01 2.8819619151620535e-01 1.4881743967484948e+00 0 0 0
304 1 1.2681526187719868e+01 1.0734346167137510e+01 3.9767605588513151e+00 0 0 0
153 2 6.2779065786587989e+00 1.2807248669475502e+00 8.9169771997538714e+00 0 0 0
70 1 4.0139629374453341e+00 6.2139617770883215e-01 1.6839430743377291e+00 0 0 0
155 2 1.2855716061140136e+01 1.1396118015179708e+00 1.0582163791253740e+00 0 0 0
271 1 1.0133635396802358e+01 1.0227256035497749e+01 5.5945617887631860e-01 0 0 0
157 1 1.4314839041148597e+01 4.8852272551588696e+00 5.0352611669224396e+00 0 0 0
158 2 1.4618734526218388e+01 5.4631691083988727e+00 4.2838321023447561e+00 0 0 0
159 2 1.4080415155457564e+01 5.4635784770609730e+00 5.7926718970455813e+00 0 0 0
160 1 9.3823532664645253e+00 2.3836834569463043e+00 5.0036726861864240e+00 0 0 0
161 2 1.0105399833793639e+01 2.9058123376280820e+00 5.4476892635775398e+00 0 0 0
162 2 9.7520658045423030e+00 1.8466110310007073e+00 4.2501728929494336e+00 0 0 0
209 2 3.2762728464440318e+00 1.0971411122642902e+01 7.2117900045940520e+00 0 0 0
24 2 -2.4081889950983548e-01 2.7999803083751305e+00 9.6619539491307993e+00 0 0 0
167 2 1.1030669861636657e+01 5.7547499827695781e+00 9.0919747539746065e-01 0 0 0
169 1 6.7123935569893458e+00 8.7206237001431894e+00 4.6096605204246837e+00 0 0 0
170 2 7.0977122376726394e+00 7.8349569432426804e+00 4.8599111881640775e+00 0 0 0
171 2 6.6870598646226673e+00 9.4087323516037138e+00 5.3102333762648355e+00 0 0 0
172 1 4.0919709228397529e+00 8.6031667833447241e+00 5.1464916976075088e+00 0 0 0
173 2 3.7575752090180572e+00 9.3370453872908765e+00 4.5307646148803995e+00 0 0 0
174 2 5.0695581254404418e+00 8.6798732777621321e+00 4.8363873042478378e+00 0 0 0
152 2 7.2132497630695056e+00 7.1085982607321363e-01 7.7760970869602675e+00 0 0 0
86 2 1.6117462203030630e+01 3.5702057600303722e-01 4.8177198242210926e+00 0 0 0
151 1 6.4729789333927616e+00 5.3208846450326375e-01 8.3756315584362966e+00 0 0 0
192 2 4.5868895297480305e-01 1.0118569040886431e+01 8.9184690133475168e+00 0 0 0
199 1 1.3995487937052686e+00 8.7854056092451458e+00 2.5799689507810633e+00 0 0 0
200 2 1.2219379043431520e+00 9.3809872695409720e+00 1.8332608467340377e+00 0 0 0
201 2 9.0790294625569923e-01 7.9697644275746216e+00 2.3384073723665408e+00 0 0 0
202 1 5.4886560207234814e-01 8.9882066939467187e+00 7.5024277450371804e+00 0 0 0
203 2 -3.4657034562710454e-01 8.5895066575947823e+00 7.6807926069691286e+00 0 0 0
204 2 5.3721813377798133e-01 9.1946580306551677e+00 6.5526654731782754e+00 0 0 0
205 1 6.4105792719785262e+00 1.0428198559238954e+01 2.4319485344494893e+00 0 0 0
206 2 6.5258489351972919e+00 9.6078863683188125e+00 2.9355219273893365e+00 0 0 0
207 2 6.5665018801828996e+00 9.9830833877766629e+00 1.5685974610942630e+00 0 0 0
208 1 4.0341113005916149e+00 1.0355450903308325e+01 7.4639612092945242e+00 0 0 0
165 2 1.6614519123634402e+01 9.2136324182689477e-01 5.1846444693764893e-01 0 0 0
210 2 4.0694675304180290e+00 9.7175612220244965e+00 6.7124649228304731e+00 0 0 0
189 2 2.0369619646797217e+00 1.0323770670191461e+01 2.7249365304525153e-01 0 0 0
305 2 1.2034899345745133e+01 1.1128966267334258e+01 3.3661289615070120e+00 0 0 0
80 2 6.6891204700023117e+00 1.7788719632440235e+00 7.1853170700430458e-01 0 0 0
668 2 1.2798183982893141e+01 1.7086692103253838e+00 9.0829957610503484e+00 0 0 0
69 2 1.4876413282392148e+01 2.6850308176009630e-01 7.8062381585837928e+00 0 0 0
235 1 -2.1008413383495412e+00 8.0870225327938723e+00 8.3128518393104720e+00 0 0 0
236 2 -2.5021174479235309e+00 8.8481874341512157e+00 8.8918358892987950e+00 0 0 0
238 1 3.8920054471777461e+00 7.8919806457033426e+00 1.8256918982669355e+00 0 0 0
239 2 3.2076098556422945e+00 8.2883051394683847e+00 2.4116967978747987e+00 0 0 0
240 2 4.0055402099870818e+00 8.3715256342267672e+00 1.0582185750341466e+00 0 0 0
244 1 9.0144622642451866e-01 9.9138142900917376e+00 4.8664389471217238e+00 0 0 0
245 2 1.1674253979476696e+00 9.4622256256681698e+00 3.9900815584719549e+00 0 0 0
246 2 1.6495950100489021e+00 1.0520322947743898e+01 5.1516004336508487e+00 0 0 0
19 1 1.2360999678697133e+00 2.8126444057165858e+00 2.7321249043416967e-01 0 0 0
482 2 7.8375856150435130e-02 2.7373889706029331e-01 1.9593375330566278e+00 0 0 0
253 1 1.5094743689720465e+01 8.3826493135584741e+00 5.1025521228728117e+00 0 0 0
255 2 1.5112073661396733e+01 8.8392302087833627e+00 4.2239905517614602e+00 0 0 0
256 1 1.2447430861269028e+01 8.5822261124174801e+00 5.5814861339421364e+00 0 0 0
257 2 1.3383836366396679e+01 8.3162842441989415e+00 5.4609601787893114e+00 0 0 0
258 2 1.2331082962168312e+01 9.2951317230332862e+00 4.9113094596113163e+00 0 0 0
217 1 6.6990391421633060e+00 1.0988483931697179e+01 6.3593626341604601e+00 0 0 0
272 2 9.9450715441599460e+00 9.7736709491181912e+00 1.4524297817857479e+00 0 0 0
486 2 1.1311015736094751e+01 3.6611939839202035e-01 8.9045450949385359e+00 0 0 0
276 2 9.2465190618945599e+00 9.9455129141346266e+00 8.7803900222132611e+00 0 0 0
283 1 1.0558617028122324e+01 8.4508346126662861e+00 2.7733153509176955e+00 0 0 0
284 2 1.0155195656958272e+01 8.9036624949594430e+00 3.4906798813255593e+00 0 0 0
285 2 9.9585942496502877e+00 7.6980378732368973e+00 2.5632231877591543e+00 0 0 0
286 1 8.9333193976217213e+00 8.6153811852663864e+00 7.1074275720084685e+00 0 0 0
287 2 9.5838372837323753e+00 7.9958285814084702e+00 7.5414221581311534e+00 0 0 0
288 2 8.0717446742735479e+00 8.2636161330624134e+00 7.0353521733365412e+00 0 0 0
289 1 1.5256855253402239e+01 1.0155511943048106e+01 3.0313173129406183e+00 0 0 0
106 1 9.4817580842973577e+00 2.5888750373888803e+00 9.7223596577794869e+00 0 0 0
291 2 1.5440097271777828e+01 9.8124379646590967e+00 2.1462782050734193e+00 0 0 0
292 1 1.3017459870599174e+01 1.0255833322510387e+01 7.4819680973681564e+00 0 0 0
20 2 5.0038281715980126e-01 3.4569527858453575e+00 2.3686410235428210e-01 0 0 0
294 2 1.2559611500917143e+01 9.6237914147933044e+00 6.8403243073204161e+00 0 0 0
224 2 -1.4959972802930155e-01 1.1155892160490367e+01 4.1802797293139697e+00 0 0 0
776 2 7.4833611969411589e+00 1.0361499471247013e+01 9.4193553136853776e+00 0 0 0
306 2 1.3535399805696233e+01 1.0576700370841108e+01 3.4564176672627145e+00 0 0 0
247 1 6.8227911264604524e+00 8.9524716575593573e+00 2.6496945124776944e-01 0 0 0
319 1 6.4424679739682720e+00 7.8448946804734065e+00 7.7777822895721167e+00 0 0 0
320 2 6.2937118899920410e+00 8.5851411831927038e+00 8.3872128190718964e+00 0 0 0
321 2 6.8319219671074336e+00 7.1419473456452947e+00 8.3200046550642384e+00 0 0 0
322 1 1.2974492766152874e+01 7.9228100378434885e+00 1.7058134148105042e+00 0 0 0
323 2 1.2138892407215110e+01 8.1447398238818689e+00 2.1851916335704522e+00 0 0 0
324 2 1.2614640477140826e+01 7.2948491665374391e+00 1.0209639957023611e+00 0 0 0
328 1 9.7887596159608421e+00 1.0065130996521571e+01 4.8739741116695781e+00 0 0 0
329 2 9.3466015852395170e+00 9.5032443853838764e+00 5.5332179687019059e+00 0 0 0
330 2 9.0888857161722019e+00 1.0682055214310205e+01 4.4283859751400989e+00 0 0 0
399 2 8.1074795110009639e+00 1.3638055251150955e-01 1.1574585218051130e+00 0 0 0
133 1 1.5522435282444604e+01 3.1731879406726438e+00 6.6083472395742966e+00 0 0 0
587 2 -1.3179925548685019e+00 7.0137077523101157e+00 9.3182647052435073e+00 0 0 0
671 2 8.2250014333740697e+00 5.6839982409192258e+00 9.1408987533751471e+00 0 0 0
83 2 2.2302678031866141e+00 5.5769209315257715e+00 1.2018471153781749e+00 0 0 0
753 2 4.0082480136694789e+00 9.5043198371646920e+00 9.0544237366791336e+00 0 0 0
293 2 1.2663294530810294e+01 1.1113662022066238e+01 7.1890393208168097e+00 0 0 0
135 2 1.5657595756390625e+01 2.3809956500054774e+00 6.0139434577519193e+00 0 0 0
778 1 1.2844177128950445e+01 1.0314434000274799e+01 2.9229667049796004e-01 0 0 1
301 1 1.5586192055117417e+01 1.0833384662280855e+01 6.4255057154652500e+00 0 0 0
835 1 1.2433145220885740e+01 8.8185291893312581e+00 9.6722175097150807e+00 0 0 0
117 2 9.6521620527251546e+00 6.8581667498182042e-01 2.5447510122763992e+00 0 0 0
2 2 7.0539494495621859e+00 1.7199766301531175e-01 4.8422083293081837e+00 0 0 0
82 1 2.7085880074687609e+00 5.8130236022685047e+00 3.9595477503272775e-01 0 0 1
22 1 6.8210074888281191e-01 2.6098450505517450e+00 9.5518464085849768e+00 0 0 0
16 1 5.9466040268297293e+00 4.8110569782221182e+00 4.0530217204570118e-01 0 0 0
100 1 1.4758195133775487e+01 5.1277490446808747e+00 2.8492966343333648e-01 0 0 0
274 1 9.2156987381361244e+00 1.0220532743561190e+01 9.7299184095308089e+00 0 0 0
693 2 -1.6463604857097522e+00 1.0348313401690177e+01 9.7483807587262685e+00 0 0 0
187 1 1.0352896323806737e+00 1.0198391222901698e+01 2.1668363183646300e-01 0 0 0
17 2 5.2281326805888311e+00 4.1184923737760730e+00 2.3533571401872530e-01 0 0 0
13 1 5.1221648502210817e+00 4.8514521974469114e+00 9.7456411987852327e+00 0 0 0
658 1 9.4401750489532432e+00 2.8182013857740024e-01 1.1328776979070097e+01 0 0 0
604 1 1.1179648638914658e+01 4.8844563927905567e+00 1.0021098673629153e+01 0 0 0
692 2 -3.0300680840007272e+00 1.1061173654514397e+01 1.0137078022377249e+01 0 0 0
728 2 -3.6924338340481073e+00 1.0833672127798145e+01 1.3798485425680058e+01 0 0 0
620 2 6.6098540963682932e+00 5.4032439182271141e-01 1.2081616182752636e+01 0 0 0
166 1 4.8046152407957097e+00 6.2278008943256289e+00 1.9272067800209712e+01 0 0 0
102 2 7.4620017762237234e+00 4.2306065227865437e+00 1.9247478159625310e+01 0 0 -1
536 2 -2.5623028078023156e+00 6.3418527194103025e-01 1.2053406525517627e+01 0 0 0
743 2 1.0768226648647694e-01 7.5292659624491662e+00 1.0726597755275336e+01 0 0 0
752 2 3.4648970811243922e+00 9.6030249343866263e+00 1.0600973023850123e+01 0 0 0
794 2 1.2495367934821411e+01 1.0485764818552010e+01 1.2344051007310247e+01 0 0 0
571 1 -5.4069725278801011e+00 5.9559351067983557e-01 1.7874291939748893e+01 0 0 0
526 1 -2.5513182732577375e+00 2.6452520415351723e+00 1.8992302760771103e+01 0 0 0
163 1 9.3486925945329311e+00 1.4411246833171152e+00 1.9067489662744542e+01 0 0 -1
601 1 1.0839244843346568e+01 4.7808499958239965e+00 1.9080800746725103e+01 0 0 0
816 2 7.7266898462644047e+00 1.0715107156179393e+01 1.5182372808659101e+01 0 0 0
694 1 -2.9855275513362716e+00 1.0240083907811062e+01 1.9215538266141287e+01 0 0 0
808 1 9.4988444508973249e+00 1.0860061142677479e+01 1.2854536240902620e+01 0 0 0
505 1 3.0742646801754416e+00 9.7212657334628927e-01 1.4488161722233617e+01 0 0 0
506 2 3.2425600861579955e+00 1.6298532283774432e+00 1.5259180221390281e+01 0 0 0
188 2 -5.7279272030784307e+00 9.2267224980551905e+00 1.8847689047784030e+01 0 0 0
508 1 2.2420287682318474e-01 1.3166362169555890e+00 1.4583968714438180e+01 0 0 0
103 1 3.7387745839031590e+00 2.8300582127989902e+00 1.9276876647178206e+01 0 0 -1
510 2 1.1069844203187511e+00 8.6907831572042471e-01 1.4603636905496304e+01 0 0 0
511 1 -3.9438301536872515e+00 6.3752417268753421e+00 1.4713507475347948e+01 0 0 0
512 2 -4.3971397738209861e+00 5.7541686131297416e+00 1.4119876174320476e+01 0 0 0
513 2 -4.0238788611313678e+00 5.9541458444394557e+00 1.5567608694762077e+01 0 0 0
514 1 -1.1523550156348392e+00 6.6637042579874155e+00 1.4052491175248104e+01 0 0 0
515 2 -1.1296864917130085e+00 5.8563897480938785e+00 1.4576598690631805e+01 0 0 0
516 2 -2.1022332822191352e+00 6.8918216821417504e+00 1.4164359432636868e+01 0 0 0
523 1 -2.0684288543786051e+00 2.9040085907952529e+00 9.8485281632289823e+00 0 0 0
519 2 1.7690220892546806e+00 5.3669757023445834e+00 1.7941134851315255e+01 0 0 0
724 1 4.4679909983836730e-01 1.0893615556725106e+01 1.3013911731863590e+01 0 0 0
522 2 2.3284983469497447e+00 5.2669479231919576e+00 1.0985029443937341e+01 0 0 0
509 2 -3.8985548316419560e-01 5.5271523185689830e-01 1.4470134989053404e+01 0 0 0
23 2 1.1532206570288084e+00 3.4997274417969324e+00 9.7695355096683461e+00 0 0 0
525 2 -2.1863257063339301e+00 2.4838558588546711e+00 1.0707010081303453e+01 0 0 0
249 2 3.4000039096293655e-01 9.3291160606516677e+00 1.8454257613191679e+01 0 0 0
527 2 -2.7738445234014475e+00 2.3395577152218459e+00 1.8051563291182525e+01 0 0 0
529 1 1.2402912121281222e+00 6.5431595196223515e+00 1.6926756793487542e+01 0 0 0
530 2 1.2470780514715205e+00 6.0285513810246325e+00 1.6017664340075939e+01 0 0 0
531 2 3.5803889432665148e-01 6.7305021026573701e+00 1.7258981350807730e+01 0 0 0
532 1 2.4877072334543522e+00 6.3063958456247056e+00 1.2218966431472500e+01 0 0 0
533 2 3.4410776604935265e+00 6.6001363460450921e+00 1.2096822916188216e+01 0 0 0
534 2 2.4276867293270374e+00 5.8227079546465657e+00 1.3019775712766842e+01 0 0 0
535 1 -1.9587728131876370e+00 1.3635946675433874e+00 1.2354575739006298e+01 0 0 0
190 1 2.8947316035302917e-01 1.0477895237541620e+01 9.8015386059636711e+00 0 0 0
537 2 -1.0979820230046977e+00 9.1187982907320098e-01 1.2341941049669099e+01 0 0 0
538 1 -3.0329325132690279e+00 1.2807965839536615e+00 1.6843795150330152e+01 0 0 0
539 2 -3.9774776885092864e+00 9.6718740368048706e-01 1.6957912146343652e+01 0 0 0
540 2 -3.0457866163410166e+00 1.5903571922632245e+00 1.5910254230112681e+01 0 0 0
541 1 2.8822297325712496e+00 2.4097721336242572e+00 1.2183200853223772e+01 0 0 0
542 2 2.9146067995136056e+00 1.6899803297910627e+00 1.2877510463604278e+01 0 0 0
543 2 3.2951269591814478e+00 2.1014095618999753e+00 1.1317718599646129e+01 0 0 0
544 1 5.6223737725239431e-01 2.9352523089165463e+00 1.7159860887229932e+01 0 0 0
545 2 6.0308902182898283e-01 2.2930847019703804e+00 1.7881329030437279e+01 0 0 0
546 2 2.5111233882092510e-01 2.3629159729948226e+00 1.6419483144540372e+01 0 0 0
547 1 -3.9482497973731228e+00 4.7438025755926141e+00 1.6942589250254045e+01 0 0 0
548 2 -4.6735532931345727e+00 4.0522973560603646e+00 1.6948159685153115e+01 0 0 0
549 2 -4.0328474102413860e+00 5.0883202655829107e+00 1.7830717232672441e+01 0 0 0
550 1 -1.6686651983499918e+00 4.9088223943002296e+00 1.1966370022194594e+01 0 0 0
551 2 -9.9976315845027486e-01 4.1738952431212031e+00 1.2164953435966380e+01 0 0 0
552 2 -1.5337138174161251e+00 5.5034281068448001e+00 1.2732908453779196e+01 0 0 0
553 1 2.8962709370657782e+00 3.1832857338032388e+00 1.5954968042901140e+01 0 0 0
554 2 2.2077037191827165e+00 3.1941071957958336e+00 1.6623603183325464e+01 0 0 0
555 2 3.6927046229819567e+00 3.6453803091875177e+00 1.6337626446639305e+01 0 0 0
556 1 4.3375804702542098e-01 3.4675997112791741e+00 1.3065077616676632e+01 0 0 0
557 2 1.1917706442877476e+00 3.2449420749056923e+00 1.2474574535711449e+01 0 0 0
558 2 2.2948950637219667e-01 2.6621106126281506e+00 1.3588516525394299e+01 0 0 0
559 1 1.3601076845923748e+01 4.1863754775490598e+00 1.3165520799134034e+01 -1 0 0
560 2 -3.8767915966549271e+00 4.5241129124337345e+00 1.2378633957701211e+01 0 0 0
561 2 -3.7382307488008180e+00 3.5650711751780553e+00 1.3658126621478013e+01 0 0 0
562 1 -1.2734145766140470e+00 4.3492363197196608e+00 1.5848431828348025e+01 0 0 0
563 2 -6.4340059317200460e-01 4.1038893813453816e+00 1.6593752835584738e+01 0 0 0
564 2 -2.1216051767560402e+00 4.4079375796330771e+00 1.6266462888884448e+01 0 0 0
565 1 4.9924646281888885e+00 7.1198798133139043e+00 1.1280765250002704e+01 0 0 0
566 2 4.8586329891295312e+00 7.9189481359370255e+00 1.0728707923324967e+01 0 0 0
567 2 5.4149232591521539e+00 6.4534940261780438e+00 1.0684000165067262e+01 0 0 0
568 1 -1.5766790766260090e+00 6.8532882114630436e+00 1.7992037648498723e+01 0 0 0
569 2 -1.5467991651206612e+00 6.1465600078860954e+00 1.8599420691668513e+01 0 0 0
570 2 -1.1360183608251857e+00 7.6363748432526917e+00 1.8408850274883136e+01 0 0 0
809 2 1.0241611504413354e+01 1.0570734600215419e+01 1.2270544735907924e+01 0 0 0
572 2 -5.5290156799628347e+00 1.3692064449583494e+00 1.8488546501767445e+01 0 0 0
607 1 6.5343132160809585e+00 2.6852005532379053e+00 1.0133989989589757e+01 0 0 0
672 2 8.5388046120997227e+00 6.9286092122607910e+00 9.9444164323624769e+00 0 0 0
576 2 7.9951170089285828e-01 1.3189716381507866e+00 1.0767012116424464e+01 0 0 0
577 1 1.7756803846716398e+00 5.2347592441299851e+00 1.4740954443213569e+01 0 0 0
578 2 1.0625503161479601e+00 4.7276586446381961e+00 1.4296388355484675e+01 0 0 0
579 2 2.3170546521056972e+00 4.5397704785324873e+00 1.5176483817842024e+01 0 0 0
580 1 -2.7058422944710583e+00 2.6098295151781294e+00 1.4541079722311528e+01 0 0 0
581 2 -2.4990674209668455e+00 1.9869115858742907e+00 1.3786506483116254e+01 0 0 0
582 2 -1.9449258358030441e+00 3.0712337989733300e+00 1.4926367834468934e+01 0 0 0
593 2 9.2684912542710265e+00 2.3486251820443355e-01 1.4553839140829492e+01 0 0 0
655 1 3.3913965203840037e+00 4.3069107676214446e-01 1.7599671921521029e+01 0 0 0
589 1 1.2599191634221645e+01 1.1280177792565464e+00 1.4256858617581843e+01 0 0 0
590 2 1.1681744244794038e+01 8.5395456869632891e-01 1.4360916957696665e+01 0 0 0
591 2 1.2697858282799309e+01 1.8633021818862527e+00 1.4884117420880525e+01 0 0 0
592 1 9.8635025192688079e+00 9.7465533352422984e-01 1.4697279677539251e+01 0 0 0
602 2 9.9191425919340954e+00 4.6089855544046836e+00 1.9142040710377799e+01 0 0 -1
594 2 9.5069554963300202e+00 1.5863780295121208e+00 1.3978965401987679e+01 0 0 0
595 1 4.6992252525563885e+00 6.3862528457775127e+00 1.4868340056359916e+01 0 0 0
596 2 4.5059293607181186e+00 6.1156176856022055e+00 1.5771695198678181e+01 0 0 0
597 2 4.5393310558484181e+00 5.6041779206211215e+00 1.4286494505238567e+01 0 0 0
598 1 7.5032202686526546e+00 6.6465742465735111e+00 1.4711784837591850e+01 0 0 0
599 2 6.5364588911590706e+00 6.5171881637124089e+00 1.4939331653194143e+01 0 0 0
600 2 7.5278478716031074e+00 6.1673199696622660e+00 1.3889961301889802e+01 0 0 0
669 2 1.2236782580829882e+01 2.1358554928419222e+00 1.0439014280806306e+01 0 0 0
603 2 1.0998044072610574e+01 5.2347535455530361e+00 1.8194482717860680e+01 0 0 0
777 2 6.0394161111365037e+00 1.0689705561167925e+01 9.8741033205156974e+00 0 0 0
605 2 1.1090300023533475e+01 5.2160644762754727e+00 1.0968303170255014e+01 0 0 0
828 2 8.6917886536966069e+00 7.9938036630745986e+00 1.1756258297667776e+01 0 0 0
826 1 9.4389437565839227e+00 7.8302962304507817e+00 1.1142807046428008e+01 0 0 0
612 2 5.5682533636725662e+00 2.9700128408863589e+00 1.9104205509027530e+01 0 0 -1
609 2 6.6171875763092327e+00 2.3389098668989496e+00 1.1022928927684184e+01 0 0 0
524 2 -2.5976525194470774e+00 3.7123412221565948e+00 9.9039153140035356e+00 0 0 0
611 2 6.5005456157982362e+00 2.3821520743056528e+00 1.8073308642947950e+01 0 0 0
613 1 1.0266794733687650e+01 6.1761505523765594e+00 1.6923578738109008e+01 0 0 0
614 2 1.1076770307041363e+01 6.6460915012802824e+00 1.6823596422469301e+01 0 0 0
615 2 9.5794905807877573e+00 6.8402437372696374e+00 1.7169684688193598e+01 0 0 0
616 1 1.1319898121834916e+01 6.1811642053795213e+00 1.2315088409159523e+01 0 0 0
617 2 1.1138942847001307e+01 5.8167613480499947e+00 1.3249495415530545e+01 0 0 0
618 2 1.2187757883716413e+01 6.5717372069575228e+00 1.2234745522053617e+01 0 0 0
619 1 7.1498173089518131e+00 1.2823275940382106e+00 1.2330549492479406e+01 0 0 0