LAMMPS data file via write_data, version 3 Mar 2020, timestep = 31750000

2016 atoms
2 atom types

0.0000000000000000e+00 1.7939600438028148e+01 xlo xhi
-6.3512137707139260e-02 4.5059672114575534e+01 ylo yhi
0.0000000000000000e+00 1.9074631697909506e+01 zlo zhi
4.3911862209114055e-02 -6.6907362778201929e+00 -2.1595687428153099e-02 xy xz yz

Masses

1 16
2 2

Atoms # atomic

495 2 3.9135988230817969e+00 9.0711533180689656e+00 8.2302958900585566e+00 -3 0 -2
223 1 1.2429274185400750e+01 7.3225497420150836e+00 2.5826753759177103e+00 -2 0 -1
149 2 1.5637411692193499e+00 1.0037080528082679e+01 1.1772924836997243e+01 -3 0 0
654 2 2.3633737106729749e+00 3.9486370219633704e+00 7.3329409592179786e+00 -1 0 0
253 1 1.6784508550329242e+01 8.1064419596431883e+00 2.7853781429378932e+00 -3 0 -3
242 2 1.0215680894393813e+01 7.1300285839437354e+00 4.4520827561366332e+00 2 0 1
929 2 8.4432721112190272e+00 4.3117829815797215e+00 1.3974364883138524e+01 1 0 0
152 2 3.7656675941427089e+00 3.9995897143952375e+00 1.3376042259541604e+01 3 0 -1
349 1 1.3791289935922457e+01 1.5796680397427953e+00 3.8334775817869189e+00 2 0 4
340 1 2.7420655620507288e+00 6.6681787253635338e+00 1.0693724464987383e+01 -3 0 0
840 2 7.6943253426583134e+00 8.6331423318582363e+00 5.9905571900136181e+00 0 0 -3
896 2 3.8029601057535309e+00 3.6078110408954558e+00 1.0794336561852319e+01 0 0 -1
335 2 -4.1618602738216834e+00 9.8446947140628982e+00 1.2588283205419588e+01 -2 0 -2
406 1 1.3858573110151466e+00 1.8212985216586974e+00 1.3398377141867563e+01 -2 0 -2
919 1 1.0917721930021351e+01 3.0471007162841421e+00 1.1212428766362871e+01 0 0 -2
235 1 -4.3188415980621677e+00 9.4507298916521432e+00 1.5716377229576045e+01 -1 0 1
368 2 1.4746546501734080e+01 3.6429798046981610e+00 1.6916493451997832e+00 -2 0 0
837 2 1.0310211692273210e+01 9.6762979247743424e+00 1.4169571213252587e+01 -2 0 1
671 2 2.4503414060186568e-01 1.0915206511823430e+00 6.1138586768702536e+00 -3 0 -1
742 1 5.3334148063622333e-01 6.1996899782080925e+00 4.2037420294784278e+00 2 0 1
951 2 -7.2045725402205552e-01 1.3493884291162566e+00 1.8151380984737578e+01 -1 0 1
319 1 1.0275722936010563e+01 1.7069271415243672e+00 1.3554088112532074e+01 -4 0 -3
273 2 1.5948240682367807e+01 -5.6150972511924836e-02 5.6264303129471456e+00 -1 0 -1
1583 2 2.1770444310469550e-01 5.3108002941737515e+00 1.0045245676427921e+01 0 1 1
252 2 5.3709553803740233e+00 5.7960187870285855e+00 1.5089700322926031e+01 -3 0 1
249 2 7.5961339220257909e+00 9.8323507465245648e+00 1.4250635599801914e+01 1 0 1
320 2 1.0981474657210347e+01 1.1491341867158325e+00 1.3930007652208472e+01 -4 0 -3
307 1 -3.5046901083418160e+00 6.7257581851294441e+00 1.8219180531022964e+01 2 0 1
241 1 9.5516516238514217e+00 6.5626954711087855e+00 4.0502384913398837e+00 2 0 1
407 2 1.9429563585148921e+00 2.1966160315546119e+00 1.2705121540883789e+01 -2 0 -2
244 1 -3.9416852384258014e+00 5.1762393379308556e+00 1.6069975364201397e+01 -3 0 -4
685 1 2.2518621323884718e+00 2.8223154128020411e+00 1.1008227676934501e+01 -3 0 1
1994 2 -1.1734008160747571e+00 8.4402169406891741e+00 1.5655865572043718e+01 -2 0 -3
16 1 8.1955764950724515e+00 8.4248353200405877e+00 2.6354595654241701e+00 0 0 2
383 2 5.0814476447316759e+00 2.1468861585186394e+00 3.0369528100528598e+00 -1 0 1
151 1 4.4233263717497486e+00 3.2413261964310993e+00 1.3269514464359496e+01 3 0 -1
143 2 1.6960926896138115e+00 8.1925622304691821e+00 1.8023269428222925e+01 2 0 -1
477 2 3.2058036133243717e+00 7.3395297070394712e+00 5.8998780215882523e+00 -1 0 2
783 2 1.0304546770027228e+01 6.8597439473909896e+00 1.6416595789050451e+01 -3 0 -3
144 2 1.4953581617772524e+00 9.5512835234537725e+00 1.8800701630176540e+01 2 0 -1
524 2 2.7780357439665928e+00 5.8195141081534807e+00 9.0803669580490087e+00 -2 0 -4
585 2 7.3150698470772451e+00 4.6110690247622692e+00 5.6757157152397535e-02 -4 0 -3
523 1 3.1788596992680880e+00 5.2096646803609978e+00 8.3876521502555992e+00 -2 0 -4
231 2 1.6388093686204415e+00 1.9819474040181753e+00 8.1289289746503233e+00 0 0 -2
449 2 2.4538667634101397e+00 7.9544970215549995e+00 2.0012683647363336e+00 -1 0 1
963 2 1.0684100229157288e+01 4.8877976819340008e+00 1.3396876406995519e+01 -3 0 -1
744 2 1.0575703627438164e+00 6.9950951845780054e+00 4.3742197186129479e+00 2 0 1
541 1 1.4340849129689865e+01 1.0710067830484435e+01 2.1246445884664706e+00 -1 0 2
190 1 1.2743314179961129e+00 9.0838964986757418e+00 1.3359278140515600e+00 -2 0 -3
441 2 1.4515761327574598e+01 8.3383894711598217e+00 4.3877534332742361e+00 -3 0 -1
626 2 -5.0810367470516882e+00 1.8727508708198739e+00 1.8978605852010475e+01 0 0 -1
528 2 2.5762458670815294e+00 1.0229426385171939e-01 5.8684942570385461e+00 -2 0 -1
556 1 2.8397539060823549e+00 4.6932819876073664e+00 1.6815279146399920e+01 -1 0 0
521 2 8.9751636864929942e+00 1.1759738861145383e+00 6.1144387763170567e+00 -5 0 -2
702 2 7.5267182875721037e+00 1.0545671422705952e+01 1.7700527399385560e+01 -3 0 -3
843 2 7.3164098603505856e-01 2.7382393902842779e+00 1.5141081288080064e+01 -5 0 -5
651 2 8.5404695838115963e+00 9.3516735601047918e-01 1.7122052366094909e+00 -5 0 0
337 1 3.1108472757189634e+00 4.3999468974531686e+00 7.4872502879485792e-01 -1 0 -1
689 2 3.2774331881282759e-02 2.9557333935362071e+00 3.9721294007127224e+00 -2 0 0
428 2 8.6428755941181823e-02 6.2741994080357424e+00 4.3789094557119768e-01 0 0 0
460 1 -1.4847603257133186e+00 1.0268461638969427e+01 1.3027011779503251e+01 -3 0 -2
652 1 1.8982417859271905e+00 3.2850294088685152e+00 6.8323275531200496e+00 -1 0 0
993 2 1.3730922525402196e+01 2.2656399396907565e+00 9.0360022596418457e+00 1 0 1
268 1 9.0691888000920393e+00 7.4400497432556554e+00 1.2082810727915096e+01 1 0 -2
949 1 -1.5886030056952221e+00 1.6802097150645006e+00 1.8328818069447713e+01 -1 0 1
351 2 1.3539300750718141e+01 1.9726126569126792e+00 4.7347903174734354e+00 2 0 4
367 1 1.3932050277355644e+01 3.1642316247535422e+00 1.8369715734821643e+00 -2 0 0
806 2 -1.3925388215631838e+00 2.4016166469947482e+00 1.3844675318255932e+01 -3 0 1
789 2 8.1154219340829918e+00 4.8928067144354310e+00 1.8048663498082298e+01 -2 0 -1
49 1 -1.8729835832335100e+00 8.7679610411033959e+00 1.0857586372553573e+01 -1 0 0
930 2 9.2079879040483394e+00 5.5761503010955824e+00 1.4666167581641785e+01 1 0 0
248 2 6.4180563275246216e+00 1.0609002016537778e+01 1.3634535535764263e+01 1 0 0
84 2 -1.8559186517012991e+00 1.0770546959307826e+01 8.1174094223224476e+00 0 0 -2
625 1 -4.8031422472731720e+00 2.5161869803943877e+00 1.8255925448825689e+01 0 0 -1
427 1 -6.4568038484544061e+00 6.7527961345308736e+00 1.8611263386732393e+01 0 0 -1
101 2 4.5901563920802868e-01 6.2621933368420342e+00 1.5215751975979126e+01 -1 0 -1
245 2 -3.1541100841437344e+00 4.6186583953271363e+00 1.6404797231793225e+01 -3 0 -4
133 1 1.6962335754756218e+01 6.5197422584673270e-01 2.4662147165347217e+00 0 0 -1
622 1 8.1430726865048264e+00 3.1184382540596549e+00 3.9296432901974643e+00 -2 0 -1
624 2 7.6463565809517231e+00 3.9635989916105183e+00 3.9458991621360417e+00 -2 0 -1
179 2 3.4444943347615871e+00 3.5449150643852589e+00 1.7820180280561893e+01 -3 0 -1
274 1 1.0339196771773535e+01 1.6335886390429715e+00 1.3551918317576859e+00 2 0 0
529 1 4.6864107753011517e+00 1.8109723671017768e+00 1.5636823118939253e+01 -1 0 -1
462 2 -1.4040433972136257e+00 9.7125185185216782e+00 1.2223324149325297e+01 -3 0 -2
538 1 5.9244940834406314e+00 7.2484989654945622e+00 1.5255783185745770e+00 -4 0 -3
600 2 -1.8358955140636173e+00 3.2527934376752423e+00 8.1416959673910849e+00 -3 0 1
991 1 1.3533315768568087e+01 1.3877224384826954e+00 8.6237357554463241e+00 1 0 1
183 2 1.1159775376107117e+01 4.5236497258502597e+00 7.9964121739445035e+00 -1 0 0
160 1 -1.8280440114495153e+00 3.7928668085398862e+00 1.6986770014694102e+01 1 0 -5
558 2 1.9694880873260256e+00 4.4097897721163477e+00 1.6420701378854297e+01 -1 0 0
673 1 -1.6480450224060839e-01 5.4632256014145213e+00 1.3867023768903081e+01 0 0 -3
674 2 -7.0985116464204268e-01 4.6956430007414349e+00 1.3563314886266548e+01 0 0 -3
1663 1 1.2684179699152169e+01 6.6447220101867899e+00 6.5925787464132135e+00 0 0 1
216 2 1.7497983061024165e+00 5.0291469835345062e+00 1.3316625137615862e+01 0 0 -2
355 1 1.1006337646674792e+01 1.0363951830459420e+01 1.0799237152245780e+01 -5 0 -4
598 1 -1.0972262476812749e+00 2.7996571298067887e+00 8.5995970334251304e+00 -3 0 1
120 2 1.2234866907848309e+01 5.9509951860240822e+00 3.7554987657462506e+00 -2 0 -2
270 2 8.2782712937023177e+00 7.7668163386911191e+00 1.1603061645457540e+01 1 0 -1
640 1 9.8550642101766286e+00 5.6168897000234974e+00 1.5177467381571794e+00 4 0 0
865 1 4.4849818474552494e+00 1.0135456507006950e+01 1.8327313690469857e+01 -3 0 -1
353 2 -3.7519763098458436e+00 5.7892621153226358e+00 1.4560130769837466e+01 0 0 1
650 2 7.7507421927514990e+00 1.6730316891623893e+00 2.9271942962283770e+00 -4 0 0
525 2 3.9134750679741104e+00 4.7749723328751852e+00 8.8796622668966858e+00 -2 0 -4
280 1 1.0661471043378521e+01 3.0734562953559692e+00 3.5577798651270895e+00 -3 0 1
417 2 3.5199038109516798e+00 3.1290048707355682e+00 5.9638283431797596e+00 1 0 -2
857 2 -4.4179650316739805e-01 7.8546228964474851e+00 1.1367384198220348e+01 0 0 -3
211 1 1.1428652167550615e+01 7.1915427761287756e+00 1.1078058719171006e+01 -5 0 -2
243 2 9.1985118654418123e+00 6.0285498320198458e+00 4.8113311350668111e+00 2 0 1
82 1 -1.4027053308809403e+00 1.0017837807397921e+01 8.5529126106430962e+00 0 0 -1
470 2 1.0203056427935371e+01 8.8612441954118388e+00 5.8980231449214218e+00 -6 0 -2
914 2 9.4732265818193468e+00 6.2814388975241253e-01 1.2528616286660935e+01 0 0 2
940 1 -4.9399509573063760e+00 1.0298358884304616e+01 1.8109918298111523e+01 -1 0 1
841 1 6.1876291066180045e-01 3.2537556009884230e+00 1.5934372623414660e+01 -5 0 -5
229 1 1.8436322790024828e+00 1.2656264071992995e+00 8.7725725968148698e+00 0 0 -2
476 2 3.7427097263136613e+00 6.2344294181096860e+00 7.0057756174702517e+00 -1 0 2
670 1 -7.0565001026353746e-01 1.2557284718616750e+00 6.2082639262267456e+00 -3 0 -1
627 2 -5.6006433268996654e+00 3.0460721765279475e+00 1.8031928616131378e+01 0 0 -1
111 2 6.1152097988679097e+00 3.7685626498941920e+00 1.7733775822700693e+00 1 0 -3
591 2 1.3783039706195098e+01 9.4329410913239418e+00 7.6796424318293619e+00 -5 0 -1
219 2 9.5334199780337396e+00 8.6345090886362961e+00 1.7609304980736100e+00 0 0 0
178 1 4.1395856847192611e+00 2.8509136831116493e+00 1.8104383076264973e+01 -3 0 -1
974 2 6.2313880507845383e+00 5.8630842574154407e+00 2.9195334016086942e+00 -3 0 -1
808 1 1.5595830720447592e+00 1.0832295118528657e+01 3.5432504750342866e+00 -3 0 -1
751 1 9.9053104718438583e+00 1.0358941477395135e+01 1.5777370101537715e+01 0 0 3
623 2 7.9763544381557789e+00 2.7611610614617161e+00 4.8356165130456716e+00 -2 0 -1
589 1 1.3615258990635056e+01 9.0759475201616997e+00 8.5847441310668451e+00 -5 0 -1
644 2 6.0128908425642571e+00 6.4550346577844806e+00 8.1791758653519313e+00 -4 0 -3
747 2 9.5957090966276652e+00 2.3356663285388035e+00 1.6687348726901973e+01 -3 0 0
191 2 1.1803811519228906e+00 9.3133176745135415e+00 3.7491894123848735e-01 -2 0 -3
471 2 1.1263794515807936e+01 9.1658144041442586e+00 4.9447842412922292e+00 -5 0 -2
177 2 6.8135937916974090e+00 3.1949329957565613e+00 1.7524232180314048e+01 -5 0 1
475 1 3.8594913898527858e+00 6.6313944352616243e+00 6.1189395486506282e+00 -1 0 2
263 2 -6.5088929544198582e-01 8.8874460793066028e+00 1.8572038414732098e+01 1 0 1
459 2 7.2733007499284275e-01 6.7575704968375394e-01 1.6344700249347841e+00 -2 0 -2
236 2 -4.9103637938272202e+00 8.7230768448597864e+00 1.5555937376887588e+01 -1 0 1
713 2 -2.9874880104002957e+00 1.6064768573862824e+00 1.1193606820511484e+01 0 0 3
214 1 2.7168959704998672e+00 5.1526286825283165e+00 1.3290719317606765e+01 0 0 -2
645 2 6.3714594971011760e+00 6.5801009098961041e+00 9.6399229468613754e+00 -4 0 -3
613 1 3.4458131429022290e+00 5.2427423920770861e+00 3.8079487883553602e+00 -2 0 0
334 1 -4.0819789576250800e+00 1.0712950593856888e+01 1.3084811345651229e+01 -2 0 -1
357 2 1.1881489716022585e+01 1.0803838383507264e+01 1.0645558435391964e+01 -5 0 -4
932 2 -4.2762644987028171e+00 2.0818164261378298e+00 1.6786404859979992e+01 -2 0 -1
440 2 1.3224779877884114e+01 8.4003762785616765e+00 3.5573311288306790e+00 -3 0 -2
115 1 6.0028869643156151e+00 6.6956890742562871e+00 1.3483091688837447e+01 -5 0 -5
426 2 1.1347491981526513e+01 5.0235313307498632e+00 1.2573906778289792e+00 -2 0 1
415 1 4.4700766361263984e+00 2.9089281669688951e+00 5.9067658689536966e+00 1 0 -1
354 2 -2.8581614233568664e+00 7.0606349163932816e+00 1.4334060888004988e+01 0 0 0
264 2 -1.9291625952761517e+00 8.1166904451643269e+00 1.8476925315796297e+01 1 0 1
167 2 4.0068434564127351e+00 7.7616080295201924e+00 1.5275093044496758e+01 -4 0 -5
1128 2 1.0759448360357815e+01 8.3637643750790662e+00 1.8727399585850396e+01 -1 0 -1
868 1 7.5548412882998068e+00 2.8776282813894851e+00 8.4972551113938195e+00 1 0 0
215 2 2.9169891551688032e+00 5.7513190541124999e+00 1.3978402225455310e+01 0 0 -2
408 2 8.9505180487528957e-01 1.1484040743987374e+00 1.2922646022195510e+01 -2 0 -2
681 2 -8.2667180472023083e-01 9.4745200012096422e+00 5.6725075298457543e+00 -2 0 -2
897 2 4.9129997945125679e+00 2.8661000571886004e+00 9.9015809163802206e+00 -1 0 -1
785 2 1.5417324022986079e+00 4.9727905418608565e+00 1.7069577598094217e+00 -3 0 -2
703 1 1.3157538798827174e+01 8.2281362124966406e-01 1.1730372059771234e+01 -3 0 -1
156 2 1.0204062383265059e+01 1.0503008576558372e+01 3.9025431483652357e+00 2 0 -1
387 2 -1.5363642538574540e+00 5.2122117308178550e+00 1.1156020052722599e+01 0 0 -3
134 2 1.6879865462164890e+01 1.5758340426889685e+00 2.8049381754399367e+00 0 0 -1
643 1 6.2703841324784442e+00 7.1156010391470668e+00 8.8641099498158802e+00 -4 0 -3
161 2 -1.7567109796506575e+00 2.8706161291741181e+00 1.7447073964202840e+01 1 0 -5
609 2 8.6292357427209208e+00 3.8792327030639679e+00 9.2155098845881458e+00 -3 0 0
539 2 6.7147908697370964e+00 7.7595227609875890e+00 1.8511039640251890e+00 -4 0 -3
116 2 5.1236664523851081e+00 7.0998701042054870e+00 1.3274161795732997e+01 -5 0 -5
224 2 1.3245679264620305e+01 7.0985752450779778e+00 2.0422032588968371e+00 -2 0 -1
516 2 1.1347824132901838e+01 7.9519832270409836e+00 1.4558039167090516e+01 -1 0 -1
336 2 -4.1753258997955145e+00 1.0354386798508214e+01 1.3949226884036918e+01 -2 0 -2
117 2 6.3526298909694381e+00 6.4599097604806577e+00 1.2544616267858100e+01 -5 0 -5
230 2 1.1763723913052977e+00 5.7919782222328309e-01 8.6854359647734931e+00 0 0 -2
858 2 9.0770448876382881e-01 7.1715129394975472e+00 1.1283667927457641e+01 0 0 -3
385 1 -2.4938230546734035e+00 5.3809894067659032e+00 1.1340079009337787e+01 0 0 -3
394 1 7.7750345698485805e+00 8.1789406301942122e+00 1.5143432883785685e+01 -3 0 -4
154 1 1.1145967390812153e+01 1.0369989004109973e+01 3.6625690684780072e+00 2 0 -1
299 2 1.3998429363305245e+01 9.1618500087732588e+00 8.6346683247463130e-01 -3 0 -1
726 2 3.1660727833533597e-01 5.7062646354090933e+00 7.2713950399869693e+00 2 0 1
876 2 1.7365314209362051e+01 3.8884750459820170e+00 1.3388806276929761e+00 -3 0 1
769 1 1.4885660488722058e+01 4.9000041140490751e+00 4.0748254579754715e+00 0 0 -3
950 2 -2.3397983840085956e+00 1.0312501057046297e+00 1.8200771670963242e+01 -1 0 1
933 2 -3.9348479545568047e+00 2.5392148711782778e+00 1.5383956258811356e+01 -2 0 -1
246 2 -4.7935977147648678e+00 4.7556919641554289e+00 1.6340062271464987e+01 -3 0 -4
400 1 1.5220298006449305e+01 7.3218076534906658e+00 5.5698753372660299e+00 -1 0 0
992 2 1.2618475159110490e+01 1.1808008163349837e+00 9.0795719811102131e+00 1 0 1
255 2 -7.7895015049759242e-01 7.4203723273149560e+00 3.3341804983716012e+00 -2 0 -3
14 2 -1.0428082382922024e+00 6.8931897973807237e+00 8.5876088708515077e+00 -3 0 -1
962 2 1.1821996169090472e+01 5.7343781525954638e+00 1.2740751157140620e+01 -3 0 -1
192 2 1.2524750575592232e+00 9.8621585043514770e+00 1.8933892764195650e+00 -2 0 -3
186 2 4.2840317385971867e+00 1.5320597470447299e+00 1.2143195379251949e+01 -4 0 -6
176 2 6.4254333393626313e+00 4.4938507372657934e+00 1.6599896509511986e+01 -5 0 1
395 2 6.9756834978864131e+00 8.4831940086641122e+00 1.5643809240251960e+01 -3 0 -4
614 2 3.3220467628034887e+00 5.7942258377565645e+00 4.6093892120792850e+00 -2 0 0
1667 2 1.2545878570622016e+01 1.1007933537520829e+01 6.1983322481218313e+00 -2 1 -1
290 2 2.2005403347509613e+00 9.1131167643761906e+00 4.9092134616905723e+00 1 0 3
386 2 -2.7619506031494043e+00 5.6084528124644324e+00 1.2254391487565444e+01 0 0 -3
686 2 1.4956087664270008e+00 3.5060391497817238e+00 1.0933377412212799e+01 -3 0 0
51 2 -2.7468390460534668e+00 8.4744948426732165e+00 1.1217698372532114e+01 -1 0 0
786 2 4.6976765908570217e-01 5.4073922394411875e+00 2.6939725040796816e+00 -3 0 -2
1127 2 9.1628327938357383e+00 8.8992002988960515e+00 1.8691798768306317e+01 -1 0 -1
724 1 3.9848243824648577e-02 5.1885433570919171e+00 6.4781690143177508e+00 2 0 1
784 1 5.9939704570088870e-01 5.2559484430395909e+00 1.7204566511486321e+00 -3 0 -2
775 1 6.8798902650095295e+00 1.6338814169700220e+00 1.8737928888331197e+01 -2 0 1
553 1 1.8363179461746002e+00 2.9071293440480117e+00 3.6954727853772313e+00 -4 0 -1
545 2 5.2200560635080180e+00 1.0579496907306496e+01 2.5723694922031046e+00 2 0 1
513 2 6.5921507527400154e+00 9.0292869248454954e-01 1.5769133232395127e+01 1 0 0
536 2 1.2823849510800835e+00 9.5124827995916927e+00 1.4085253914063230e+01 -3 0 2
429 2 -5.4787787479736902e+00 6.8962213062858861e+00 1.8557481611425896e+01 0 0 -1
168 2 2.8761137862770836e+00 8.1232531935466792e+00 1.4153919151549236e+01 -4 0 -4
913 1 9.1204668512062721e+00 -6.0131686881848660e-02 1.1903039612534650e+01 0 0 2
560 2 7.5775613436225928e+00 5.0623010895302603e+00 1.0948906948586933e+01 -2 0 1
972 2 5.7220404901000457e+00 6.6951575280295152e+00 1.7343594596403680e+01 0 0 0
397 1 1.3269271455972493e+01 2.7666746718268374e+00 6.1213067564745218e+00 2 0 0
217 1 1.0450127540752128e+01 8.8013489524018311e+00 1.4361419498354966e+00 0 0 0
597 2 3.9231179887717218e+00 8.9309510307656481e+00 3.3204291144153011e+00 3 0 -2
1407 2 1.2385877584922245e+01 3.1569384482211187e+00 6.0911930110044725e+00 2 0 0
995 2 4.3962099399606576e+00 1.0430014274050908e+01 5.0306735959558280e+00 4 0 1
928 1 8.9574049766802979e+00 5.1254848397120440e+00 1.3843236003452104e+01 1 0 0
1007 2 8.1496590394529331e+00 7.0588948547837971e+00 8.3881099632218739e+00 -3 0 -2
314 2 7.4567948457780453e+00 9.3146333597136337e+00 1.0268789111257346e+01 -3 0 -2
269 2 8.7391757743299117e+00 6.6969496928758261e+00 1.2638083954971385e+01 1 0 -1
350 2 1.3793430198737164e+01 2.2255032595380464e+00 3.0682454777850037e+00 2 0 4
520 1 8.1256159743646261e+00 1.6530279807863584e+00 6.2033059622339310e+00 -5 0 -2
701 2 8.3356108183744126e+00 1.0973242656884381e+01 1.6564886914497286e+01 -3 0 -3
297 2 1.5498905974648268e+01 7.0682960446036640e+00 1.9803911448235911e+00 1 0 3
237 2 -3.4118477335353230e+00 9.0459470046696087e+00 1.5661279217348662e+01 0 0 1
943 1 8.7503780228712369e+00 5.1049105295634547e+00 6.1470774537125363e+00 0 0 3
725 2 -9.2100058665338191e-01 4.9882572196413060e+00 6.6653554105366055e+00 2 0 1
746 2 8.5254558517392383e+00 3.3803751102487332e+00 1.6290199926763488e+01 -3 0 0
433 1 4.6407446059485666e+00 8.5040024328861978e+00 1.1474915460661407e+01 -2 0 0
675 2 -2.2568253258136561e-01 6.1938033513542257e+00 1.3211257209154871e+01 0 0 -3
296 2 1.4901539913550147e+01 6.2103386831455225e+00 8.4742421802664092e-01 1 0 3
356 2 1.1081962705071618e+01 1.0101422171461236e+01 1.1711847258575009e+01 -5 0 -3
971 2 5.9438508551055422e+00 6.1014272201893576e+00 1.8705501152705118e+01 0 0 0
292 1 1.5304934022845353e+01 4.3865910781577151e+00 7.1118769025613133e+00 0 0 -3
889 1 1.0511951704998138e+01 7.5633079164540984e-01 5.3246796431119154e+00 -1 0 0
776 2 7.8208453029237273e+00 1.3039756448308404e+00 1.8677648825683569e+01 -2 0 1
1126 1 1.0128454010113259e+01 9.0588020785800758e+00 1.8456330572643331e+01 -1 0 -1
611 2 -3.5201366753266377e+00 3.2218490411028573e+00 1.3243754599808536e+01 0 0 2
382 1 4.7648948604540378e+00 1.5353481040566621e+00 3.7160761241734104e+00 -1 0 1
745 1 9.4259866408205042e+00 3.0730045879519841e+00 1.6080112736426958e+01 -3 0 0
291 2 1.0713371119047472e+00 8.4345594587323216e+00 5.6710756238334588e+00 1 0 3
102 2 1.6877012873435406e+00 7.0537732418342909e+00 1.5762377368560434e+01 -1 0 -1
497 2 5.5733360671137371e+00 4.3139449389967828e+00 6.5971462527217675e+00 0 0 1
498 2 6.2617029925435475e+00 4.2130082582874637e+00 7.9562070557486111e+00 0 0 1
339 2 2.8409262605854493e+00 3.7049071547176515e+00 1.1102554571905444e-01 -1 0 -1
596 2 5.2888825588651294e+00 8.7114167235900855e+00 4.1460419752129942e+00 3 0 -2
760 1 1.1001464089289330e+00 1.6214073713315176e+00 1.8025760471674296e+01 -3 0 1
819 2 8.4617965789510983e+00 1.0099862301603190e+01 4.9674043716819316e+00 0 0 3
398 2 1.3275438869800048e+01 2.2086152913203847e+00 6.9409239169991812e+00 2 0 0
153 2 4.3904314328827168e+00 2.7215845024094012e+00 1.4081955073895404e+01 3 0 -1
578 2 -4.1701074448404274e+00 7.4829056811661570e+00 1.2658377829702150e+01 1 0 0
712 1 -2.0609839466729625e+00 1.9155847127382430e+00 1.1022858622872596e+01 0 0 3
931 1 -3.9442551803239958e+00 1.7231251303927100e+00 1.5925041948228289e+01 -2 0 -1
213 2 1.1431944527200105e+01 6.6590011786449237e+00 1.0306981990376205e+01 -5 0 -2
866 2 4.0876052625942423e+00 9.6218904537224450e+00 1.9043918674375636e+01 -3 0 -1
247 1 7.4008545564506996e+00 1.0438152942281562e+01 1.3505880499546333e+01 1 0 0
142 1 1.0546751098416438e+00 8.8826920135615310e+00 1.8196035833411745e+01 2 0 -1
1582 1 5.2695914261065386e+00 8.9569078468311041e+00 1.6128532170662520e+01 0 0 0
114 2 4.2519287268933113e+00 9.8224745613471018e+00 1.3312917203541762e+01 -2 0 -1
559 1 6.7699374713593183e+00 5.5718292686500108e+00 1.0939923696176786e+01 -2 0 1
846 2 1.0634084819453289e+01 1.7143844762722220e+00 9.5335412293948121e+00 1 0 1
321 2 9.8921699577593358e+00 2.1746160108236596e+00 1.4299842088058874e+01 -4 0 -3
100 1 7.3853796323713627e-01 6.8930521642116265e+00 1.5955983972792399e+01 -1 0 -1
870 2 7.6492974949295487e+00 2.2533278927552312e+00 7.7576521142339692e+00 1 0 0
352 1 -3.4496523412976194e+00 6.4030104438336224e+00 1.3869737136429560e+01 0 0 0
920 2 1.0276580139531927e+01 3.7099769442949393e+00 1.0806067251276454e+01 0 0 -2
501 2 6.2508022333230047e+00 1.0144870957360332e+00 1.0810857461357891e+01 1 0 0
86 2 1.0646502145080138e+01 3.9708791465361610e+00 1.6785430813151184e+01 1 0 -3
987 2 -1.7076411369171169e+00 9.2079676121481722e+00 1.4418894896458548e+01 -2 0 -3
1409 2 1.5477705733308277e+01 6.4614091202356043e+00 5.1445319758915389e+00 -1 0 0
607 1 9.0864683568887195e+00 4.4177943373721007e+00 9.9091693639300118e+00 -3 0 0
18 2 8.2494970370455736e+00 9.2864551754317102e+00 3.0748736860491359e+00 0 0 2
687 2 2.0232138500985783e+00 2.2030517878979947e+00 1.0290379005709804e+01 -3 0 0
294 2 1.4859977349611537e+01 5.0056490970374732e+00 7.6892886343500395e+00 0 0 -3
631 1 2.8234352025183638e+00 -1.5117879403022602e-03 1.4908598749012445e+01 -3 0 -2
714 2 -1.5332873267711400e+00 1.1704113420986475e+00 1.1380966356034289e+01 0 0 3
109 1 5.3671970513832985e+00 3.1622195946772425e+00 1.7270198224884750e+00 1 0 -3
615 2 2.7485922314781615e+00 4.5341067697019941e+00 3.8161601541462278e+00 -2 0 0
895 1 4.6759204220535491e+00 3.7390088486396746e+00 1.0321652923087724e+01 -1 0 -1
315 2 7.3967116420564425e+00 9.6158835842790911e+00 1.1900843570347448e+01 -4 0 -2
599 2 -1.4445350574428388e+00 2.3539658724186583e+00 9.4157943530787502e+00 -3 0 1
705 2 1.2814077969522646e+01 1.5174004240232382e+00 1.2349654220373926e+01 -3 0 -1
511 1 7.2808709548225918e+00 8.5234194828288889e-01 1.5121732366092969e+01 1 0 0
182 2 1.0394378646380652e+01 4.0167564610950119e+00 6.6620835326185865e+00 -1 0 0
1584 2 5.0701544599263322e+00 9.4050828151083010e+00 1.6986506098574559e+01 0 0 0
839 2 8.1661728061311027e+00 9.6970914612887693e+00 6.9574976381435123e+00 0 0 -3
17 2 8.6290967253019790e+00 7.7890695528206741e+00 3.3200085292278501e+00 0 0 2
396 2 7.3137405664560031e+00 7.6635615885117332e+00 1.4507042421087792e+01 -3 0 -4
68 2 1.2754351354107140e+01 3.5088193654462785e+00 1.0677429219615865e+01 -4 0 -3
96 2 6.5042056114047675e-02 6.2859107765970350e+00 1.7398966244084448e+01 -1 0 -1
531 2 4.3763070204456334e+00 2.2697904033961391e+00 1.6517891639539911e+01 -1 0 -1
610 1 -4.4331121060713050e+00 3.0546907419145697e+00 1.3481304528800843e+01 0 0 2
338 2 3.8021421648500668e+00 4.0352701160374691e+00 1.2830985823973153e+00 -1 0 -1
512 2 8.0922615305952732e+00 5.2293543082182037e-01 1.5577510249923941e+01 1 0 0
543 2 1.3604498902709809e+01 1.0924790524014062e+01 1.5510338917671727e+00 -1 0 2
295 1 1.4797786519982225e+01 6.3790715557654361e+00 1.8165293416135584e+00 1 0 3
884 2 4.0374536472491345e+00 7.1009236069568722e+00 1.8226430893428066e+01 1 0 -1
690 2 -1.2149558848597142e+00 2.4295605250820471e+00 4.6432768078437370e+00 -2 0 0
842 2 -3.1664376167361752e-01 3.4635976886650108e+00 1.6048012817183444e+01 -5 0 -5
728 2 1.2567701011743420e+01 6.1179504071310031e+00 8.1218407027286563e+00 0 0 2
944 2 7.7914014543416625e+00 4.9466516665061420e+00 6.4204592052231604e+00 0 0 3
657 2 1.2217976508456003e+01 7.5259061215404355e+00 6.4282646245685555e+00 0 0 1
46 1 1.8666811739163722e+00 9.0416440539181249e+00 8.5047163509476018e+00 -3 0 0
973 1 6.4394389131410268e+00 5.3457349287404838e+00 3.7434392937653493e+00 -3 0 -1
254 2 -4.7647396789894048e-01 8.4375376169001246e+00 2.2157453271155552e+00 -2 0 -3
67 1 1.3497514795776491e+01 3.8765629309213021e+00 1.0120162747431531e+01 -4 0 -3
727 1 1.2127320235037004e+01 5.6668146430487498e+00 8.9564330049000525e+00 0 0 2
788 2 9.1150164003969145e+00 5.9883474520524222e+00 1.7728286152132629e+01 -2 0 -1
425 2 5.1240548415263243e+00 4.1683827416050168e+00 1.9021676755202026e+01 -2 0 0
251 2 4.3470840818874974e+00 5.0482443558638259e+00 1.5942549164063688e+01 -3 0 1
875 2 1.6349465765429461e+01 4.3306705206336709e+00 1.8201378089968923e-01 -3 0 1
836 2 9.9807088842328540e+00 8.5802443744279540e+00 1.3026123798924196e+01 -2 0 1
496 1 6.1247692768508273e+00 4.8577208620912566e+00 7.1991271874347884e+00 0 0 1
1006 1 9.0844914106056613e+00 6.7289329388499448e+00 8.3331888085960912e+00 -3 0 -2
94 1 -1.9637611739252758e-01 5.6612996920582219e+00 1.8176053400528073e+01 -1 0 -1
891 2 1.1332188560288765e+01 4.4097897150894450e-01 5.7740613405965888e+00 -1 0 0
150 2 2.7405585885050745e+00 1.0777179980854488e+01 1.1139637082472847e+01 -3 0 0
95 2 -2.5333639514617801e-01 6.2670918761237147e+00 1.8909958025302064e+01 -1 0 -1
583 1 7.7340348280481939e+00 4.0400374526094627e+00 7.4256609975556065e-01 -4 0 -3
584 2 7.7788189190294297e+00 3.1258838951136929e+00 4.7052443542582412e-01 -4 0 -3
641 2 9.1880741322774764e+00 4.8881344040919501e+00 1.4257339733118244e+00 4 0 0
110 2 5.4732441771296800e+00 2.6014071407633490e+00 9.6320317402351041e-01 1 0 -3
184 1 4.6077317921577707e+00 6.4900480661733240e-01 1.1852288009342589e+01 -4 0 -7
448 1 3.2327580981063209e+00 7.6998067226931504e+00 2.4947235407041006e+00 -1 0 1
869 2 7.2605510315080100e+00 2.3719882601261379e+00 9.2630656656086128e+00 1 0 0
342 2 3.4087714447032633e+00 7.3015844777346492e+00 1.0874449742771954e+01 -3 0 0
985 1 -1.9464836451945904e+00 8.5498038477881142e+00 1.5089547532025291e+01 -2 0 -3
577 1 1.3643396518793161e+01 8.1693070287131029e+00 1.1968097991606328e+01 0 0 0
680 2 -1.1363051824653956e+00 8.0062642022989046e+00 6.0952565418840079e+00 -2 0 -2
526 1 1.8641598484997011e+00 4.5970390931032468e-01 5.3436114962617243e+00 -2 0 0
502 1 4.6856186591231603e+00 1.7910281623187863e+00 8.3789371688351011e+00 0 0 -1
275 2 1.0398476074446341e+01 2.2065875851675134e+00 2.1749952782669220e+00 2 0 0
856 1 2.5790233940890150e-01 7.5118793164206021e+00 1.1909360064395036e+01 0 0 -3
781 1 9.3795109062838371e+00 6.5439789548833209e+00 1.6346885201804444e+01 -3 0 -3
515 2 1.1934778905866381e+01 6.5953179963491939e+00 1.4906703180563674e+01 -1 0 -1
912 2 6.2422138731768610e+00 2.9212609717612579e+00 1.3190597734113569e+01 -2 0 1
970 1 5.8269848997286919e+00 6.9454900726273712e+00 1.8268146563308282e+01 0 0 0
369 2 1.3197839898216671e+01 3.8130970773112005e+00 1.6647235982407420e+00 -2 0 0
771 2 1.5646289014987929e+01 4.3540797636418009e+00 3.9625765735296419e+00 0 0 -3
281 2 9.7145222395256710e+00 3.1833907484950776e+00 3.7776224837692718e+00 -3 0 1
844 1 1.0900356931283385e+01 1.3362807552108484e+00 8.6609445811471115e+00 1 0 1
835 1 1.0702936665764202e+01 9.1191227165353990e+00 1.3454259882013197e+01 -2 0 1
672 2 -7.8104671396335346e-01 1.8326067687806193e+00 7.0128894581061054e+00 -3 0 -1
225 2 1.1670173546738486e+01 7.5916358157973578e+00 2.0275850761241694e+00 -2 0 -1
770 2 1.4771569343067188e+01 5.2939752146506809e+00 3.2150798370681537e+00 0 0 -3
276 2 1.0969861913209463e+01 9.1493837635485287e-01 1.5364711344469282e+00 2 0 0
439 1 1.3844460178052032e+01 9.0089947038883533e+00 4.0631796689064652e+00 -3 0 -2
54 2 8.1094488130795135e+00 1.0873339716297480e+01 8.9122597319691561e+00 2 0 -1
50 2 -1.9476074389315199e+00 9.2360894749590585e+00 9.9803283054134866e+00 -1 0 0
921 2 1.0718679123901975e+01 2.9246556617866166e+00 1.2167105654519430e+01 0 0 -2
910 1 7.2585156836795592e+00 2.8857819800750817e+00 1.2984945111020853e+01 -2 0 1
885 2 9.6776794627104454e+00 6.5837487575245408e+00 6.1788896185249239e-03 1 0 0
175 1 7.1380493979549691e+00 4.0184024858292151e+00 1.7123157679110317e+01 -5 0 1
729 2 1.2780365979214698e+01 4.9999109044108847e+00 9.2774329234410988e+00 0 0 2
612 2 1.3036823915408402e+01 3.9214640883744583e+00 1.3344252214407645e+01 -1 0 1
42 2 -2.7719625537697272e+00 6.4894492763760203e+00 9.6289248817767046e+00 -1 0 3
961 1 1.1616318639569540e+01 5.1112538966986509e+00 1.3491928145450149e+01 -3 0 -1
911 2 7.5606071010392730e+00 2.1436587560780929e+00 1.3492349081138903e+01 -2 0 1
424 1 1.2084956699009901e+01 4.7489993373254666e+00 7.4973477004697620e-01 -2 0 1
446 2 1.0879820604842797e+01 9.4284814807746624e+00 8.0391615237419725e+00 0 0 0