LAMMPS data file via write_data, version 8 Apr 2021, timestep = 43404000

576 atoms
2 atom types

0.11857381554559923 17.801427184443174 xlo xhi
-0.0864271844553682 17.59642618444315 ylo yhi
0.2635738155477287 17.94642718444296 zlo zhi

Masses

1 16
2 2

Atoms # atomic

270 2 1.9968482935524894 3.4133338687835666 3.8095903824885013 1 0 -1
474 2 4.117541696327545 0.32842783948054843 2.645193977326685 1 0 -1
472 1 3.539563200856041 -0.02840500214345265 3.395314755020382 1 0 -1
221 2 0.7190781950555553 3.4731723565005503 1.7843880392744444 0 1 1
268 1 1.7216998197272257 3.9872734804813503 3.1011344144716007 1 0 -1
269 2 2.497917572329416 4.152205896192215 2.516907627437691 1 0 -1
353 2 2.876140742886232 1.3917799209432258 4.285149483781648 -1 0 3
222 2 0.48895338497791974 2.486385362874677 0.6476712053220026 0 1 1
359 2 3.651685376844786 0.6671054691629265 0.2662193453147779 0 4 -2
220 1 0.20425805756014007 3.3475204573865573 0.9801034128038347 0 1 1
162 2 4.6427356745930135 3.8456394845839297 1.4506128308065622 0 -3 0
181 1 5.022619030490928 0.8549467124677117 1.2380985099858026 0 3 1
182 2 5.633369447192173 1.6120386845495591 1.4238650432592828 0 3 1
144 2 6.645983342942016 2.8735354092331438 2.7830185677999304 -3 0 3
142 1 6.272397398375288 2.988332799209696 1.8655929794681831 -3 0 3
143 2 7.028957592937487 3.3011876921377628 1.2814073018452972 -3 0 3
13 1 7.049747442244386 2.1291107532265694 4.529614845378018 -3 -1 -1
183 2 5.653852584077649 0.07578881045884733 1.0967342687620112 0 3 1
160 1 3.810882201541033 4.431226635141923 1.5707737919336335 0 -3 0
161 2 3.633150193373781 4.857306053235439 0.7131043467389468 0 -3 0
281 2 3.7375198710068314 7.4205813048250455 4.03058931448102 3 0 -1
566 2 0.9724000048382402 5.374070012819633 3.8364870335949033 -1 1 -2
565 1 0.794035516694512 6.258324210623953 4.147751878258141 -1 1 -2
567 2 1.6663190806890467 6.746355104651758 4.230744744968276 -1 1 -2
280 1 2.929713950890499 7.939761114454821 4.293973498266694 3 0 -1
59 2 0.2936977502451682 8.049111515730006 1.8618052577714068 1 3 2
4 1 1.4359458435193628 8.108651629546689 0.4544988969594348 -2 1 0
258 2 8.582285191845337 4.610981100025542 0.3149697316702216 4 -1 1
176 2 4.717285865949688 5.627074095667118 2.839024079801646 2 1 -1
175 1 5.050343295582437 6.399630882371561 3.4356349338232266 2 1 -1
480 2 6.718343302453742 6.805132668837683 2.827937394947636 1 -3 1
478 1 7.344305950575754 7.286592944304626 2.2503404020912954 1 -3 1
479 2 8.06510228726186 6.714270382504274 2.1026641232812153 1 -3 1
413 2 6.441090191828175 8.203721556726803 1.0339219748844917 0 0 2
412 1 6.046570212719358 8.618619237593022 0.27595922132840656 0 0 2
177 2 5.271158015473001 6.0676709620274085 4.27518528685399 2 1 -1
137 2 7.940413096580898 8.47605457893934 3.378589885509457 1 2 1
352 1 2.5545903641147905 2.1071472048814845 4.911436663825045 -1 0 3
452 2 3.217489036923343 1.2783005741762306 8.541654832297779 1 1 1
354 2 3.346612391359809 2.291674027356288 5.430607243572862 -1 0 3
405 2 1.399473156031911 2.917305731962091 6.331837497914324 -1 -1 -3
239 2 1.1436021521885054 3.470134418123114 8.828143517793771 2 -4 -4
403 1 0.7961742136466684 3.11732245683184 7.047586040063429 -1 -1 -3
502 1 4.479529729973959 2.423253012092615 8.674622924402357 2 -2 0
453 2 2.47075647743454 0.014387470607717473 8.993155105840033 1 1 1
451 1 2.785009775643694 0.4704718042072268 8.175423981128517 1 1 1
404 2 0.19541064173338613 2.3522823940655506 7.025569036171284 -1 -1 -3
15 2 7.197912557326843 1.2096314829230879 4.745474215516821 -3 -1 -1
14 2 7.84636361793871 2.6307020508522916 4.810961230345509 -3 -1 -1
544 1 5.046252862378292 3.1515969084385875 6.064965384472704 1 1 1
224 2 8.152340933385664 0.39213748021525685 7.156766710208114 1 1 -4
545 2 5.69383316017585 2.7132917432525945 5.522944729260678 1 1 1
546 2 5.028218374371305 2.5933138297316103 6.917811662437469 1 1 1
223 1 7.368217043061025 0.8210781687702946 7.520938533147282 1 1 -4
225 2 7.699530362893914 1.519065316481418 8.115978274880877 1 1 -4
527 2 2.7685841387621712 7.966823807690814 6.059090091716305 -1 -2 0
528 2 3.433633385155823 7.658104940469878 7.536604508682685 -1 -2 0
234 2 1.1367068831854756 7.901726053356094 7.544007555013963 2 -2 1
526 1 2.6586289839086503 8.114530760527536 7.0433457864803 -1 -2 0
232 1 0.2546122830738621 7.545565503402376 7.897390906769036 2 -2 1
435 2 5.273376565405976 4.816016559456689 6.206030515238492 2 0 -1
313 1 4.617688540830029 6.942325785295399 8.345332247720817 3 -1 -1
443 2 8.16521464945098 5.820975872524118 7.540318068702219 -1 -4 1
315 2 4.9610577298331515 6.457917013898563 7.5253153258510075 3 -1 -1
314 2 5.272754273250047 7.620698629810445 8.571899058983007 3 -1 -1
433 1 5.4301919838253445 5.783490723635683 6.139937290096612 2 0 -1
434 2 6.442950527533233 5.935406184943233 6.246406897798782 2 0 -1
442 1 8.118000317731582 5.862034688191489 6.615304364085726 -1 -4 1
444 2 8.633686529013065 6.70870461434671 6.486113077536267 -1 -4 1
149 2 8.780587933013349 4.431953455154714 5.85548462284996 1 1 0
396 2 2.435811589500397 0.8518086204903177 11.372472050320305 -1 1 1
64 1 2.0408700246598857 2.5701902629133846 11.814180761389789 -1 2 -3
66 2 1.8830984469071816 3.019125028904404 10.939030954588947 -1 2 -3
65 2 2.352272982851516 3.303358695379132 12.403690387869387 -1 2 -3
238 1 1.5110819357814353 3.953507582664892 9.611035730062897 2 -4 -4
92 2 0.49209798997370646 1.9721931068661191 12.489316907033055 3 0 -1
394 1 2.9020794704385837 0.02970743201121516 11.165129274704817 -1 1 1
395 2 3.812634194771022 0.2942081847265472 11.146675557915575 -1 1 1
504 2 4.565048861926874 3.190558262004756 9.231544537988858 2 -2 0
293 2 8.604593096480427 0.5364071983497396 10.948183800877343 0 -1 -3
19 1 8.27317229489352 3.1283618134183766 9.272185555697577 3 1 2
503 2 5.0407009455190686 1.7273841014006506 9.177122932263424 2 -2 0
115 1 5.592196730532408 0.4696645257355042 10.740134137889934 0 -2 -3
117 2 6.5402214413995585 0.7889790228769121 10.82027717760292 0 -2 -3
292 1 8.024875611640034 1.22022523648615 11.26717331299264 0 -1 -3
316 1 5.613148911945368 3.250342066074347 11.592153248742493 -2 -1 0
318 2 5.510938564204144 2.2993152145023896 11.709551035845356 -2 -1 0
126 2 6.516648610645796 4.332495079072509 12.49221132717342 -3 1 1
20 2 8.320332943832351 2.660877745036987 10.129850677721938 3 1 2
294 2 8.1984692263437 1.3546360043649035 12.250385900083154 0 -1 -3
125 2 8.021340891134082 4.235275886291144 12.927267573971832 -3 1 1
317 2 4.87681970146229 3.630205660936841 11.10778315030047 -2 -1 0
38 2 0.28628258739222456 6.3245524741520365 9.287648356488498 1 -2 1
536 2 0.4440281412142103 7.516184241570284 11.244536754455753 0 -2 0
340 1 4.137438857367799 4.935815955009258 9.978528417003124 -2 2 -1
342 2 3.1356098002357347 4.780317011949271 9.813657293827987 -2 2 -1
535 1 0.4864667118060484 7.967601350334674 12.151673191833318 0 -2 0
240 2 0.8561498102025683 4.700403795036377 9.864578608910545 2 -4 -4
107 2 3.514283998093593 7.462227222172745 12.39253117060036 1 2 2
548 2 3.7083035895570404 5.317418420898959 12.876187889722958 -1 0 -2
549 2 4.092423447811544 5.780403984456325 11.463792522616856 -1 0 -2
547 1 4.112708898215245 6.054885802088296 12.394515996805618 -1 0 -2
106 1 3.34075025322092 8.452600266425456 12.310112674479626 1 2 2
108 2 2.387692608921677 8.43433766802667 12.527637588616287 1 2 2
341 2 4.304490831428324 5.755397017349006 9.461095581218549 -2 2 -1
37 1 0.1701795846112415 6.050331193782234 10.211626496879692 1 -2 1
124 1 7.1982939163732 4.604783022930341 13.23392365362995 -3 1 1
103 1 7.523680359017073 7.323958956475184 13.305301538301947 1 0 1
496 1 7.653090397642007 5.608367369068672 9.365116442895017 -3 0 -1
497 2 7.901552021490243 4.639627862663217 9.527547554261085 -3 0 -1
498 2 6.708573071061092 5.4989371458105225 9.250202757418206 -3 0 -1
206 2 8.196554743591602 7.024722237405107 10.260461320714384 -1 0 0
207 2 8.091358737598682 7.809592268088633 11.653026794033938 -1 0 0
104 2 7.294601203039389 6.367282819257937 13.2601954508708 1 0 1
205 1 8.574045466298225 7.720370410226367 10.828895984356476 -1 0 0
272 2 0.23267667434327768 1.7479891713149838 16.522671207814376 0 0 -2
358 1 2.923140042063583 0.13331244413834362 17.54010758772495 0 4 -3
360 2 2.0702589006230174 0.6747342115083532 17.44683097378139 0 4 -3
271 1 0.511023136611339 1.188424397340242 17.259137750339946 0 0 -2
439 1 3.129210888114509 3.9929941080661124 13.7869860723528 -2 0 0
440 2 3.7806430628837755 3.313896963245302 14.149909814174327 -2 0 0
441 2 2.4372045871295245 4.150359036230859 14.402456048913017 -2 0 0
311 2 7.504662421531446 0.6432520564917107 14.510822767370454 -1 2 -1
256 1 7.990223842945572 3.9364536088755586 17.608832849588843 4 -1 0
573 2 4.697250819019292 1.371843667298559 14.85307298133991 0 1 2
571 1 5.034157694760026 2.2476235937675044 14.528797791417263 0 1 2
128 2 5.65769266498251 3.6853735167059654 15.660929838357372 -2 4 -1
572 2 5.956039325660698 2.029015901329901 14.348037634418837 0 1 2
310 1 7.614923033285698 1.454373457029724 14.046728464946392 -1 2 -1
312 2 8.310346778580795 2.0323426311512343 14.503702267241227 -1 2 -1
348 2 8.796717115559614 3.0957410402427583 16.450326146952726 -1 0 0
423 2 3.648966602260135 6.53989035689898 16.5025846686915 0 1 -1
5 2 0.7578879556232966 8.404365438337878 17.440083787601615 -2 1 -1
422 2 2.428803576352106 6.609746015670034 17.544239006339847 0 1 -1
411 2 0.7088743825309098 5.467873293689003 15.080834949174733 1 -3 2
409 1 1.1654090333831801 4.655170633282903 15.536159790062538 1 -3 2
421 1 2.991570682205681 6.0109436942855945 17.03944305362759 0 1 -1
410 2 1.7659733256286532 5.068242645020844 16.194284577716484 1 -3 2
246 2 0.18817794239875713 7.121743273542403 13.5528306314024 2 0 3
521 2 4.95466380551317 8.643710443780972 14.609678933833713 0 1 0
120 2 5.544482276507057 7.66747730671275 16.605973157699808 -1 0 -2
62 2 8.839825170596047 6.999381092495622 14.510159885928267 1 -1 1
105 2 6.691533094779115 7.768208406941757 13.618001460365555 1 0 1
119 2 5.488251044228203 6.3597355338287365 15.702264584151758 -1 0 -2
257 2 7.3616647926635705 4.360700648241093 17.014375222626605 4 -1 0
127 1 6.159712331574717 4.554130918512427 15.667546016547206 -2 4 -1
129 2 6.647280763792082 4.565382214092312 14.80219521013654 -2 4 -1
118 1 5.005351910349037 7.240570450353106 15.898800103701612 -1 0 -2
365 2 3.513739132553116 10.11057667285952 1.4371259300198203 3 0 0
320 2 1.7624914116713046 10.639833830020256 3.0393163242099313 1 -1 1
319 1 2.652756593197836 10.132142978598933 3.084256594226205 1 -1 1
321 2 3.2754430939848502 10.534285683456915 3.6832261013460443 1 -1 1
364 1 3.8080539215098175 9.937375022006286 0.4997891976198675 3 0 0
389 2 4.393701894125288 12.278832260488088 4.626938438948979 1 1 -1
338 2 2.1708861328551685 13.05140666179211 1.1447410554279647 -1 0 0
250 1 0.2219813479759942 10.78190992100105 2.778112606886373 2 2 1
6 2 2.1258635170121316 8.794290191729482 0.2801156014562399 -2 1 0
282 2 2.8358808665844566 8.757384973907786 3.7012795567777865 3 0 -1
388 1 4.7275346010403645 11.389420923862156 4.62511328400383 1 1 -1
242 2 7.330636837035354 12.302225569110064 1.7775374623260927 1 1 0
418 1 7.2907158402903836 11.615337764661916 3.248465464109508 -3 0 -3
419 2 6.351717334674016 11.626595606112078 3.6453343126645024 -3 0 -3
241 1 7.3697592596858925 12.498326710317532 0.7484961733904526 1 1 0
138 2 8.044862923085825 10.004501784745278 3.7208895496754706 1 2 1
420 2 7.714554353145144 12.348503293260599 3.752329560565016 -3 0 -3
243 2 6.616672594605123 13.031499622633556 0.49332477314720985 1 1 0
136 1 8.437616623005571 9.127085484331802 3.851706606164414 1 2 1
366 2 4.588232056332383 9.330799080217446 0.5198290676412428 3 0 0
18 2 0.6750889029647619 13.54413820311474 3.31508226746191 -1 0 1
16 1 1.5726703249537495 13.371236201919002 2.9140182036965316 -1 0 1
17 2 2.270072281535639 13.656050469517025 3.568706952192476 -1 0 1
362 2 2.0076834053401336 15.516722740860699 2.121868438354336 0 1 1
361 1 1.5367545420120188 16.281778305533095 1.814575654811994 0 1 1
363 2 2.0056393637299665 16.473394376615808 1.0141210427405332 0 1 1
339 2 3.3768112760754714 13.700275200910205 0.32406924092968836 -1 0 0
473 2 2.8505222386065148 17.20081355300236 2.778164492839097 1 -1 -1
79 1 3.7301974147823094 14.053065370864743 4.431851389347183 0 0 1
80 2 4.365981797615208 14.784465513372858 4.435857323890595 0 0 1
417 2 0.31534891313286784 16.828143463341448 3.157747161576029 1 1 0
3 2 4.798771799631376 16.696194986182647 4.089185096494516 -1 0 2
279 2 8.075858901089125 16.983274765811206 3.8598487594190165 2 1 1
218 2 7.412076087775063 16.70972497663298 0.8179982047021995 -1 0 -1
217 1 6.586392359323273 16.51139107930985 0.33161644229880133 -1 0 -1
73 1 8.673240160868422 17.09119708447831 2.111605202665288 -2 2 2
375 2 8.953644122956254 13.88179782264613 4.153975635918214 0 0 1
558 2 0.7002451895905302 12.308960668580097 7.471180127566505 0 -2 -2
557 2 1.068559880862065 12.149100609039508 5.924599283348436 0 -2 -2
83 2 2.377456150599701 11.276339370259997 7.686973270321576 0 -1 -3
556 1 1.4540391798603578 12.357303656737173 6.813000754611861 0 -2 -2
82 1 2.8978585568932735 10.537453442597132 8.095956644999973 0 -1 -3
84 2 2.7469404674423 9.701829878788665 7.539717093677601 0 -1 -3
446 2 4.357913621287822 11.018002263719723 7.508058038739965 1 0 0
390 2 5.026093996626186 11.312752510968744 5.5830748752045345 1 1 -1
445 1 5.30678252733707 11.172862606708907 7.202828434366433 1 0 0
447 2 5.665659054600585 10.31384934445577 7.4482133507877 1 0 0
307 1 6.236754309792953 9.017195690332088 8.966128875358773 -2 0 3
551 2 5.975450413542999 13.114820390646898 6.983612803348821 1 0 1
516 2 1.9432935022116558 17.463875749938683 6.303136687364623 0 -1 0
515 2 0.5095515754912554 16.700425891111788 6.612419804621236 0 -1 0
50 2 2.2669778683972766 14.04576685409762 6.959664963254191 1 0 1
51 2 2.5696343509044666 15.503968295982006 6.4838979890285575 1 0 1
49 1 2.959658899413438 14.723875869415796 6.965868762360128 1 0 1
81 2 3.376309571628403 14.170367233084864 5.3381165737152205 0 0 1
514 1 1.3335730466738591 16.735962028010576 5.978473283561881 0 -1 0
485 2 3.5965327674620724 14.688899172434185 8.474137694958236 3 0 -1
543 2 4.5139166517948635 16.959279741074948 7.630098571949385 0 -2 -1
416 2 0.3353452768072904 16.88534460852668 4.728789809852361 1 1 0
345 2 0.2373861821190557 16.62664781161461 8.446210306732729 2 0 0
278 2 6.842313137403034 16.601719162447136 4.757666785721653 2 1 1
1 1 5.2428950861876995 16.06550422788114 4.6988207885106625 -1 0 2
2 2 5.052106333297708 16.496515713389076 5.614301826296248 -1 0 2
374 2 7.763818227035164 13.860760491995812 5.266407776414034 0 0 1
550 1 6.547680236961588 13.865542032669955 6.733921259717114 1 0 1
552 2 5.975483753622005 14.62855732015413 6.667977280381166 1 0 1
464 2 7.460602216281099 14.044459393107276 8.24476906399511 4 1 1
541 1 5.36778756286177 16.880316098167842 7.216076152256192 0 -2 -1
373 1 8.471627634791998 13.376173353543333 4.826853123304621 0 0 1
351 2 8.728590786545835 16.575314024382372 5.980404260197781 -1 -1 1
463 1 7.866937556168859 14.418196119213976 9.080462581539305 4 1 1
277 1 7.718077502369094 17.116859175409427 4.740341527749024 2 1 1
542 2 6.068305684486038 17.38162851607325 7.696392381824778 0 -2 -1
427 1 1.138577910608138 12.940508175928814 11.118695796538386 2 0 0
561 2 3.569176340947481 9.974661958447541 9.612249815450566 -1 2 2
408 2 3.89808995023642 11.667704647028044 10.840881639774558 3 -2 1
406 1 3.759230026640074 12.57535773165068 10.951384384492725 3 -2 1
407 2 2.855129121527057 12.581604035629168 11.12891155150907 3 -2 1
559 1 4.123497226383096 9.930030851066928 10.38259342323141 -1 2 2
560 2 3.800748147747431 9.241863746316403 10.97906027136237 -1 2 2
429 2 0.5232412877756089 12.760182396599191 10.358205272516923 2 0 0
522 2 4.528568163644833 9.203078831299761 13.279851568869695 0 1 0
213 2 0.1691625753576013 10.541587796257359 13.08418550726613 -3 1 -2
309 2 7.144532482159419 9.325298763662484 9.200223691150804 -2 0 3
449 2 8.869064420781344 10.707865082454006 10.197045946641914 0 -3 -2
448 1 8.764972612657909 10.009407167996356 9.536511320959713 0 -3 -2
308 2 5.586375597829559 9.56700187231422 9.553661714770975 -2 0 3
450 2 8.868384823705703 9.154622390282498 9.991266084446103 0 -3 -2
304 1 0.45591032959621036 14.798022677287333 12.936362021072723 -1 2 1
484 1 3.722024449875498 14.791576692828908 9.423645365735027 3 0 -1
486 2 3.8294051391657127 13.9242748323151 9.855546086470444 3 0 -1
524 2 1.49398179354226 16.398612202515945 10.485929720804704 0 -2 1
523 1 1.205908290587673 15.815537335258965 9.790301728545824 0 -2 1
495 2 3.033631242784796 16.370418418668663 12.597203133813972 -2 0 2
525 2 1.9439352161650554 15.167591948752335 9.755403312326077 0 -2 1
494 2 3.4816738599719983 15.036512820360407 13.145904528420164 -2 0 2
493 1 2.827103136386734 15.785275041232834 13.297229192928615 -2 0 2
380 2 4.426986563595002 13.45633055530644 12.063209996697294 0 2 1
305 2 1.3252097424697555 15.24048426110749 13.124529429359114 -1 2 1
428 2 0.7063978497204171 13.68186087772795 11.592098809885336 2 0 0
379 1 4.68097788931508 14.185895164817024 12.671682632820568 0 2 1
116 2 5.724886293383377 17.182307182913984 10.71539091457247 0 -3 -3
230 2 5.019210828955271 15.33422504871112 10.098543824633063 -5 0 1
231 2 6.57768445021687 15.254902108323774 9.8713942537436 -5 0 1
381 2 5.367440935168297 14.667936472655471 12.184161831012496 0 2 1
229 1 5.8964250860237915 15.67368884161262 10.453637536351856 -5 0 1
465 2 8.078448784777196 13.660888264261793 9.648172560305529 4 1 1
174 2 8.78934467235008 15.484127278596045 13.217566166216516 -1 -1 4
333 2 8.853387387118834 16.064301259968893 9.364615370529421 1 -3 1
47 2 0.5288063257194975 10.108783409438523 15.26925653950336 1 -2 0
46 1 1.07084532372551 10.571954757438869 14.601104593528095 1 -2 0
330 2 3.5370246395547245 10.87996073781103 16.909627342343047 -2 2 0
328 1 3.254447825050318 11.340710012635412 16.091450989287775 -2 2 0
48 2 1.9479076411185992 10.716112923129844 15.141231827360066 1 -2 0
329 2 2.9178235829477908 12.161493511924553 16.51444313532653 -2 2 0
426 2 4.42670067714137 12.296235567045873 15.371935638122881 2 0 0
414 2 6.827245610396341 9.014721118449188 17.582162355429986 0 0 1
286 1 8.838121319540944 12.686514977518707 13.588408534323877 -2 0 -4
424 1 5.083391433787196 13.029890340999122 15.224603988695696 2 0 0
287 2 8.09437065961863 12.09003841118555 13.80862263707018 -2 0 -4
513 2 7.705390882928941 11.0422138973397 17.47734178682318 2 0 -1
356 2 6.255519903950485 10.306578726293461 14.220832545830023 4 1 -6
512 2 7.606899733342352 10.41720341657646 15.989109954028049 2 0 -1
355 1 6.8792579438604555 10.990679421827982 14.573113063225772 4 1 -6
357 2 6.324206444372844 11.744666664377773 14.934551546598238 4 1 -6
511 1 7.948572512838144 10.274092106746105 16.896372858102104 2 0 -1
520 1 5.318895886886922 9.187776285935808 13.897600713276548 0 1 0
306 2 0.32792741572881146 14.15642474810292 13.718580303498728 -1 2 1
337 1 2.4710581841993706 13.29106410351193 17.928731219045872 -1 0 -1
101 2 3.5674507399611133 17.56824014879137 16.10603394085858 1 -2 2
192 2 1.0960996975182806 14.363272438816596 17.573044329117685 3 0 0
102 2 3.6705502814286697 16.95370859410159 14.690404261459342 1 -2 2
100 1 4.277408098115801 17.391813347024932 15.333075425045987 1 -2 2
371 2 7.459590628833683 16.027162506532754 14.821651660029755 -2 -2 -3
370 1 6.939854368575572 16.648047901117064 15.394179031241778 -2 -2 -3
425 2 5.038106237122529 13.355144391304043 14.284712067172897 2 0 0
518 2 5.138983537483458 13.903822360372034 16.757081669280122 2 -1 -3
172 1 8.461833122385986 15.09684794993469 14.072084405488967 -1 -1 4
519 2 5.461052489553247 15.05792309592066 17.843597503834555 2 -1 -3
372 2 5.95995554623296 16.722188820345796 15.225174948393132 -2 -2 -3
173 2 8.60903406283506 14.09754107414715 13.961594705755656 -1 -1 4
517 1 5.091445603591187 14.142382535841392 17.7319886447228 2 -1 -3
219 2 6.807214071843212 16.610293577066187 17.030321200515697 -1 0 -2
325 1 10.4761001900129 1.3286052391217762 2.709556928572646 -2 0 -1
327 2 10.856951465262359 1.079880129909328 3.5554364036093498 -2 0 -1
326 2 10.892346837772166 0.9721353794119411 1.9019540418552794 -2 0 -1
167 2 10.47073204780657 3.188474680117612 2.851415761271888 0 2 0
169 1 11.798548864935901 0.5049957518263851 0.542766167187458 -1 1 3
166 1 10.714658419061479 4.026578429364382 3.253346049068202 0 2 0
168 2 11.700546088341849 4.089993744791203 3.1373400168041474 0 2 0
150 2 9.71686378745314 3.927970950233949 4.649588940220894 1 1 0
75 2 9.227108648518392 0.19445272597655647 2.3036112187719704 -2 3 2
164 2 15.285104712177121 1.4756496182982834 3.1149125572550354 0 3 2
297 2 16.334790624054307 2.8566056230414976 1.418272172760972 0 0 -1
295 1 15.488593234235735 2.4658876569997696 1.8767021854549935 0 0 -1
296 2 15.080760937580514 3.224576726045359 2.3388474235154533 0 0 -1
198 2 14.172199532857734 2.5309092828677575 0.6262089188661568 -1 3 0
163 1 15.140262062053173 0.6997276135210116 3.752250212162303 0 3 2
165 2 16.044537663807212 0.30959300060247175 3.8414239929031906 0 3 2
22 1 12.984099108761331 8.099723279052265 2.8842294279890486 0 0 -2
500 2 12.10930087194323 7.650445800561368 1.2783462904331695 -2 2 1
24 2 12.197505068812864 7.624989840441893 3.182965450941145 0 0 -2
261 2 9.785953464721212 4.938826023823256 2.070532036357691 -2 1 2
260 2 10.194469578810457 6.156249358561598 1.048806756599925 -2 1 2
499 1 11.544404232302206 7.187427963454136 0.584938826184868 -2 2 1
259 1 9.481094410951387 5.578176792622877 1.3606448347304643 -2 1 2
187 1 11.307597875638855 6.718881990155946 4.410670210620494 0 0 -1
109 1 13.778613605990312 4.434742007471882 2.998840166978105 -1 -2 -1
110 2 14.120791601597379 5.274745902230979 2.565128721023236 -1 -2 -1
507 2 15.833157651657913 7.023585204338601 2.130815659667152 -4 1 1
505 1 15.075145637574737 6.624945043974352 1.6506662389099631 -4 1 1
506 2 15.504159481188475 5.93794293411213 1.1404594179763012 -4 1 1
575 2 13.943484265618775 8.295211897523394 4.56660981518963 2 4 5
111 2 13.96184123892119 4.581104317174305 3.926833462682009 -1 -2 -1
58 1 17.332309622651735 8.166533196003185 2.522062931462965 0 3 2
60 2 17.635609195195748 7.530016644952969 3.220637109625943 0 3 2
114 2 14.576122797113895 7.784659269504894 0.30920075795728863 0 0 2
458 2 10.771632913827132 0.11203606869841246 5.686046754124776 -1 0 1
457 1 11.399037655231307 0.4786505760253372 4.988544110682416 -1 0 1
459 2 12.06186727730679 1.044663027550121 5.520979988698164 -1 0 1
383 2 10.027964258874515 3.0352518256986376 6.7993903403295075 0 -3 2
382 1 10.46794875171178 2.8703245276573175 7.682250552619445 0 -3 2
384 2 11.018149285649942 3.6175058531132227 8.020542201463634 0 -3 2
45 2 10.979009056175094 1.3218041239686322 8.301566289785798 0 2 1
148 1 9.071639339969819 3.680333616066708 5.3471072676799025 1 1 0
43 1 11.270449403217192 0.5188007357305263 8.786097060820877 0 2 1
21 2 9.141566894727111 3.187975149927872 8.841342161621924 3 1 2
44 2 10.5427351302141 -0.021656892204527378 9.097650359567671 0 2 1
368 2 13.927676027434908 0.2692480843814178 6.490958591279523 -3 -2 3
367 1 14.128690501341824 1.0824158377441861 6.024516399481554 -3 -2 3
369 2 14.488175836781519 0.9237963990601096 5.124638129500579 -3 -2 3
155 2 14.276825306889922 2.9995368524479016 5.530671681440638 -1 2 -1
570 2 15.32713330173635 1.5386865114878017 7.307329098368255 -2 2 -3
568 1 16.12530297015667 1.6761428140708892 7.995178585195428 -2 2 -3
154 1 14.112543012587384 3.95282930048632 5.604862016601665 -1 2 -1
569 2 16.50884950278234 0.7470306179363333 8.008696577359608 -2 2 -3
564 2 16.282708675529022 3.821509373132626 7.84162214094803 -1 0 0
156 2 14.614654491159108 4.1829524578132835 6.452158536313097 -1 2 -1
534 2 11.845544146217133 8.397763496571956 7.243050726455583 1 1 -2
533 2 13.074146885489164 7.796147062255936 6.517260786517904 1 1 -2
300 2 12.79443164377062 4.804874944451288 6.310056870592451 0 2 -3
188 2 10.824137103354577 7.2397795870816 5.073096265631047 0 0 -1
189 2 11.416781988081052 5.870927171477613 4.976232211008022 0 0 -1
298 1 11.885624619288603 5.0240906684329065 6.6462408023680775 0 2 -3
299 2 12.005979091544821 5.90580532574804 7.094413032820244 0 2 -3
267 2 12.694501411811906 7.620935357538813 9.04028856640883 0 0 3
532 1 12.42090706640662 7.6499750505012125 7.249497955978425 1 1 -2
400 1 9.575580492785384 8.093101724826026 6.173007813548967 -1 -1 -2
402 2 9.134430774697542 8.472836512877345 5.366519634974065 -1 -1 -2
555 2 17.206781966104934 6.357588685258453 5.186035965152251 -3 1 0
574 1 14.45254176509235 7.9736023857910725 5.329161397829842 2 4 5
562 1 15.713836408642392 4.588795758594061 7.74061582581979 -1 0 0
554 2 15.781655234816133 7.029365540251548 5.548291767316122 -3 1 0
553 1 16.56392605944342 6.5104428080747585 5.869443981089344 -3 1 0
563 2 16.152331532945876 5.192866821708805 7.149966726666863 -1 0 0
180 2 15.355037315150526 5.624893011271887 9.015158213716484 1 -1 0
233 2 17.4969838765569 7.1259744438971975 7.07265687514719 1 -2 1
71 2 11.836577877019044 0.9735349110328418 12.497457643592845 2 -1 1
437 2 12.319847873835796 0.6988792715847781 10.256562364372545 0 2 0
436 1 12.856096002189023 0.7908579195223369 11.07002374287807 0 2 0
184 1 9.61233649757106 3.2414933047441186 12.721152624939482 -1 0 -1
185 2 9.978734467563438 3.5762410921799295 11.836507539287307 -1 0 -1
72 2 10.596957759625298 1.7107913849945378 12.914073568117013 2 -1 1
228 2 11.662192540778458 3.9887106106386763 10.410796144654373 -2 0 -3
226 1 10.740380447862178 4.284253245742124 10.39766263485219 -2 0 -3
476 2 13.32419492656549 4.090505180899565 11.754188900473507 0 0 -1
70 1 11.01881325027752 0.8006603448685587 12.939151672371695 2 -1 1
186 2 10.21820976613678 3.635323929121485 13.352913796926943 -1 0 -1
253 1 13.224525438426227 4.215500873844843 13.39902894290231 -2 -1 -2
438 2 13.644417661472053 1.2597782503225219 10.758438288849261 0 2 0
152 2 15.762119096212135 1.9450606735333407 9.689638035028317 -3 0 2
153 2 14.917759406677396 2.53092074772151 10.729736374476007 -3 0 2
151 1 15.542246421043519 1.794997278032177 10.630009392453779 -3 0 2
93 2 16.815207938251138 1.7679538902741037 12.046755258093382 2 0 -1
91 1 17.35127530507881 1.5760876770432342 12.824889127142647 2 0 -1
475 1 13.474733866875521 3.9074149500291124 10.739068518488398 0 0 -1
265 1 12.978720163742636 7.605674511704878 9.957251822010566 0 0 3
227 2 10.9230120093761 5.108090737035482 10.919146634664878 -2 0 -3
266 2 12.256073322194029 7.32989986921279 10.580117661967526 0 0 3
215 2 10.20260949158483 6.952183117892031 11.463885915200267 -1 -1 -2
214 1 11.106010347558316 6.7647124016168885 11.797723202419304 -1 -1 -2
216 2 11.240135233831309 7.472826735724059 12.509546796106964 -1 -1 -2
430 1 11.503522248356123 8.700677371408956 13.483966355797039 5 1 0
179 2 14.370223479978197 6.565474786759483 9.700655942330439 1 -1 0
178 1 15.148613194449872 5.9846550044733835 9.89415935937982 1 -1 0
477 2 14.111894167073544 4.5900127820369905 10.494403860451142 0 0 -1
39 2 16.878730355065404 5.889498602451175 10.350456943696072 0 -2 1
209 2 11.062197419788887 0.6027301249064595 14.84457541736109 1 -2 -1
197 2 12.734561568498135 2.0361723295862237 17.861442266538933 -1 3 -1
346 1 9.300960244232739 2.7944790929213803 15.676769413552352 -1 0 0
347 2 9.83428042588085 3.577601409607997 15.402750351586306 -1 0 0
210 2 10.307493189726303 1.5033957692839777 15.844303460814135 1 -2 -1
254 2 12.366419467336536 4.333932000240456 13.834619624039776 -2 -1 -2
171 2 11.26384871556569 0.24185668952839764 17.42210739507387 -1 1 2
208 1 10.775045386502445 0.6230126728564529 15.785339788409889 1 -2 -1
196 1 13.42393385819382 2.704804715558161 17.677005448204504 -1 3 -1
492 2 17.12246870874254 2.310958044369926 14.275976837672562 0 -1 0
490 1 16.89753850219585 2.8329902745795654 15.115656064552839 0 -1 0
248 2 14.16499633743956 0.6631390035075673 15.126765988934771 3 -1 -1
255 2 13.679970420420405 3.4803199287495157 13.787076614422665 -2 -1 -2
530 2 13.865636154623932 2.6101873729494827 15.883146401931661 0 0 -1
529 1 14.312806958099594 2.433921299205745 14.98906845482254 0 0 -1
531 2 15.163757088784436 2.790087488120756 15.172410666586478 0 0 -1
273 2 17.502010089187387 0.4367056636418881 17.312442224932607 -1 0 -2
491 2 17.50300624060939 3.5659714883062015 15.232141563515206 0 -1 0
236 2 10.719587371514141 8.729938984553648 17.72284372455349 -1 2 2
85 1 11.155462750381057 4.801576972864405 14.886365972067264 0 1 2
131 2 13.110214359901766 4.436113602477061 17.40024576691489 0 0 -3
87 2 11.735958609291655 5.08063307675139 15.640811851045411 0 1 2
431 2 12.395602245679532 8.518724788785923 13.855213429515528 5 1 0
61 1 9.712172161698932 7.064242658594966 14.943670923289313 1 -1 1
501 2 12.215706866899108 6.661539879292183 17.809778275544986 -2 2 0
63 2 10.307579117867647 7.661529135239177 14.442663859844586 1 -1 1
86 2 10.629550568308488 5.61428297015109 14.70044807230745 0 1 2
130 1 12.97261687670133 5.310134467811207 16.910592653942686 0 0 -3
9 2 13.98793603833527 8.33221022780713 15.683486419390512 2 -1 -1
135 2 16.96537312320609 4.682521576264661 17.550760238051783 0 0 2
112 1 14.537092530736167 8.47545302050091 17.236750289029885 0 0 1
32 2 14.500473979190785 5.239142720209561 14.189401467835237 0 2 -1
134 2 16.18769776606723 5.386137475063224 16.468862070841674 0 0 2
132 2 13.750365894054008 5.4897558858406805 16.336900064023876 0 0 -3
7 1 14.014777080429418 8.136406288898186 14.728683553058083 2 -1 -1
335 2 17.41479732272677 7.767089146039993 15.76067138256594 0 2 1
33 2 14.666781796052296 6.586615615281935 14.855405193022477 0 2 -1
31 1 15.036722058476284 5.669202519589895 14.816221608218276 0 2 -1
244 1 17.554859276101762 6.551767182745433 14.297755202164213 1 0 3
133 1 16.337420422594555 5.4122576700476515 17.420135266213627 0 0 2