LAMMPS data file via write_data, version 8 Apr 2021, timestep = 4435000

1008 atoms
2 atom types

0.2357164310586221 18.163838568941937 xlo xhi
0.015109793426807322 22.555279206555188 ylo yhi
0.27514587115970973 19.23057012885803 zlo zhi
0.3276515718869639 -7.3957031119750045 -0.13556498940075828 xy xz yz

Masses

1 16
2 2

Atoms # atomic

1 1 6.358461717333336 0.923632363414925 4.955002698908671 0 0 0
3 2 6.356335651364895 1.419408170694793 4.107894056213338 0 0 0
4 1 3.7289420903906603 1.3098535227969486 5.264901894681841 0 0 0
6 2 3.468008443560247 1.6347965817164876 6.125857300398661 0 0 0
7 1 -0.41265827057220167 6.8283589348404234 5.284636733490304 0 0 0
8 2 -0.6170216505475787 6.340593841886207 6.07555603839639 0 0 0
10 1 2.0274768547338278 6.324037872062243 4.961378439236164 0 0 0
11 2 1.086601394164542 6.67065687298622 5.124827474294082 0 0 0
12 2 2.692683363585472 7.046206826368892 4.995293731536295 0 0 0
18 2 5.924961059848251 5.4164872559698605 1.4146990756960378 0 0 0
25 1 4.454080768220626 6.265335848696326 7.457473299798043 0 0 0
26 2 5.062735073601789 7.037749012017346 7.5301610280648426 0 0 0
27 2 3.4969728119645755 6.697146064182632 7.684252286929794 0 0 0
28 1 6.082421001590562 6.423777142917446 2.668118728019943 0 0 0
29 2 5.893960404591601 5.95474548945208 3.5350587040367607 0 0 0
30 2 5.296645012293371 7.034849531053252 2.4453642290986566 0 0 0
31 1 1.504182495655227 1.1197534572811279 2.739444476735895 0 0 0
33 2 1.2794527339888 1.3520155682793749 3.642135670752879 0 0 0
34 1 -0.23138706676566279 1.0760363313625778 7.282993400850101 0 0 0
36 2 0.03551870411200839 1.764946907848428 7.915802223769426 0 0 0
37 1 6.169223277897203 2.4743749814512412 2.8996699205020704 0 0 0
38 2 5.212620549220819 2.824448161516883 2.965776397795944 0 0 0
39 2 6.8044495295638 3.233906573238382 2.913683901811347 0 0 0
40 1 3.9992508238455073 2.7324566525709537 7.769065963458539 0 0 0
41 2 4.9401649547259066 2.9215494541285785 7.4554060049430095 0 0 0
42 2 3.453487907021377 3.4149197738314454 7.332939607614229 0 0 0
43 1 -0.64005662100205 4.848626091733339 7.463277511259419 0 0 0
44 2 -1.4010684857322258 4.238940496722726 7.213356141089025 0 0 0
45 2 -0.8872816817073197 5.253896499045489 8.325320891059247 0 0 0
46 1 1.666394680041614 4.8399611580516515 2.720704780475837 0 0 0
47 2 0.6985208580606872 4.607306319467483 2.7446660827856926 0 0 0
48 2 1.7649612068800293 5.419643651584266 3.566071689569917 0 0 0
49 1 6.416988030744775 3.2037087371317665 6.475845746892591 0 0 0
50 2 6.002840034792114 3.759335254509767 5.7520193290090225 0 0 0
51 2 6.742859642478905 2.4051212351415368 5.954318810038044 0 0 0
52 1 3.7305703657967655 3.345315543619767 3.553740642283504 0 0 0
53 2 3.0147616884428654 3.461307059679201 2.9429067611371558 0 0 0
54 2 3.527795296525732 2.5318794484982052 4.051542926658266 0 0 0
57 2 -0.3055658085275678 3.444436625353316 4.245571397855991 0 0 0
58 1 1.873807088961565 3.901573566779154 6.662682635752202 0 0 0
59 2 1.844201981582909 4.6250457392570095 6.059792910758412 0 0 0
60 2 1.084363365192773 4.023057254823707 7.235565919732277 0 0 0
61 1 8.290896512241787 7.294869569551702 1.7256287783482513 0 0 0
62 2 7.553506488004957 6.976833698964803 2.362279057721595 0 0 0
64 1 2.1614826129485443 7.065109381810074 8.356171324829836 0 0 0
65 2 1.4149646313371582 7.401578331898037 7.891420807321202 0 0 0
72 2 3.9977985174527997 1.168937465105342 1.4504851392085463 0 0 0
73 1 4.9749686851052095 5.176103002546899 5.151432791908489 0 0 0
74 2 4.639116053537117 5.4450666569196855 6.040388342768877 0 0 0
75 2 4.274110450139849 4.701033681662371 4.665678354900986 0 0 0
76 1 0.5439681947723602 2.2257679571745426 4.965061901153481 0 0 0
77 2 0.17258454038195198 1.6745263029301896 5.740100946443925 0 0 0
78 2 1.1981460894511713 2.743542303501378 5.384673807329267 0 0 0
91 1 8.330311602030852 6.586208306684431 5.24390236113188 0 0 0
92 2 8.124251272077428 5.740614395398565 4.768921862406554 0 0 0
93 2 9.306487429849422 6.7005194001577335 5.185997343760019 0 0 0
116 2 10.39282435853566 1.6385001972147781 2.0990847306049676 0 0 0
127 1 8.381658435015558 4.893165179849351 7.408654631218886 0 0 0
128 2 7.759219665569322 4.191570630957082 7.066696334950981 0 0 0
129 2 8.493512258308618 5.604938780936164 6.772880113318707 0 0 0
139 1 8.215503694350252 4.482532418301925 3.3283685475428086 0 0 0
140 2 9.006653263748825 4.879865939036267 2.9669233782850988 0 0 0
141 2 8.475555516611836 3.615471356377138 3.75185265966414 0 0 0
169 1 6.4491036561672255 8.562276722799231 4.7626002705838815 0 0 0
170 2 7.030494751728602 7.750599814316102 4.994290195953388 0 0 0
171 2 6.524892379964547 9.21660884876144 5.559049632225002 0 0 0
172 1 3.7776480175460794 8.402235856455608 5.019394466990497 0 0 0
173 2 3.823427380003798 9.104277432409155 4.380626889930497 0 0 0
174 2 4.66016072438704 8.028709066522495 5.005313784879812 0 0 0
199 1 1.368356714766235 8.556609095679466 2.788201595579182 0 0 0
200 2 0.9615060671148963 9.227392339685515 2.201830321070187 0 0 0
201 2 0.7412976041394876 7.832643882478405 2.5217315497348762 0 0 0
202 1 -0.14409077089569555 8.58700584758203 7.658559773397772 0 0 0
203 2 -1.0651963259463242 8.58610215908496 7.866272683783394 0 0 0
204 2 -0.09942916478654773 8.933204376986378 6.754667995956578 0 0 0
205 1 6.232557786818685 10.36146634050416 2.668321856560889 0 0 0
206 2 6.4785930380783014 9.737497995881771 3.339031150750523 0 0 0
207 2 6.4653485447130485 9.901836447455262 1.8569127090615891 0 0 0
208 1 4.120424752584867 10.04350383843793 7.274588756601245 0 0 0
238 1 4.029711457169029 8.082100247224812 2.1648561091502203 0 0 0
239 2 3.145372795445808 8.112661290112682 2.544426732262118 0 0 0
240 2 4.099855209346527 8.982321404790246 1.7153763124427932 0 0 0
244 1 0.5439952679662985 9.779317973124387 5.242746546096088 0 0 0
245 2 0.9802976883967891 9.329984205779093 4.464399640358655 0 0 0
283 1 10.475905871331737 8.587867184250408 2.752730493131794 0 0 0
285 2 9.690917797771943 8.131022957713515 2.3889092231415563 0 0 0
288 2 8.233186256189407 8.452538067330323 7.503838404821787 0 0 0
319 1 6.401451242923586 8.09718796415531 8.201526310971804 0 0 0
66 2 2.47780672919725 7.811575534459501 8.902258576511102 0 0 0
21 2 0.9355342658533163 1.9809784876537313 1.3007800417105522 0 0 0
321 2 6.658375239202701 7.450970958157697 8.913582777208555 0 0 0
192 2 0.4536520676839988 9.783992232663161 8.919683743316291 0 0 0
5 2 4.673846030096528 1.1293799140952456 5.225605067554699 0 0 0
153 2 6.004917053500047 1.0787835317892618 8.947664218315033 0 0 0
320 2 6.202035842277122 8.941213143639828 8.598331451585596 0 0 0
115 1 10.499864328591563 1.0950221827595006 2.89261304429644 0 0 0
118 1 8.840242835705372 0.7599621306253652 7.391962392960423 0 0 0
130 1 10.566834783516937 5.388558975679881 2.37632709401397 0 0 0
160 1 9.104329788861637 2.2301471261041836 4.964198011017077 0 0 0
162 2 9.622468754731301 1.7227674139029878 4.309346916734561 0 0 0
284 2 10.24839265947564 8.984479448052944 3.6225424775129618 0 0 0
329 2 9.251524638756692 9.544163354262743 5.668471429397958 0 0 0
286 1 9.140536419402599 8.7368597880213 7.100830157126647 0 0 0
328 1 9.678981821259098 10.149235099036694 5.027643799893575 0 0 0
63 2 8.578477492845561 6.478316850881439 1.230547598475427 0 0 0
210 2 3.9231787789515056 9.336491857585818 6.583896859088744 0 0 0
272 2 10.207906233507156 9.752677874403282 1.3116065067583602 0 0 0
330 2 9.04355054380464 10.794170613994039 4.6578485697409455 0 0 0
132 2 10.89217426166382 5.98237085038981 3.0829015058856855 0 0 0
94 1 10.946720604586226 6.4806497446226805 4.701323489549922 0 0 0
119 2 8.995178538900564 1.4535279443198852 8.102402795984368 0 0 0
131 2 11.203638774168972 4.603278258812352 2.45521632184464 0 0 0
161 2 9.77137592278223 2.7730312525343557 5.482358374780339 0 0 0
287 2 9.699776194555474 7.947017918106828 7.23871005655417 0 0 0
144 2 9.878375816988846 4.082656254798714 7.043739818278559 0 0 0
323 2 11.9057673745294 8.22131432274387 1.8849073143851087 0 0 0
276 2 9.43968014241705 10.096485373564063 8.837555509208897 0 0 0
96 2 11.328864697008374 5.758406629951006 5.301964759517878 0 0 0
95 2 11.51249964565065 7.215427727982609 4.853981301045675 0 0 0
322 1 12.666582142530437 7.930806182558897 1.2942193937287663 0 0 0
142 1 10.663636361813701 3.921654696860295 6.424941939398806 0 0 0
155 2 13.207016924402883 1.18254470311973 1.2713727044680039 0 0 0
324 2 12.17303667676219 7.149684276478017 0.7506679578935479 0 0 0
120 2 9.070698493417016 1.227913399775836 6.540542185796013 0 0 0
14 2 5.004068216533544 5.194886113374475 8.949300168804134 0 0 0
136 1 12.46025596968452 3.1853620777121683 3.2709946436859187 0 0 0
258 2 12.360381970046685 9.234224304221362 4.681842487091753 0 0 0
148 1 10.92905287453575 6.836920749730407 8.086020158548997 0 0 0
149 2 10.862769608069813 5.943367332026083 8.492937367299678 0 0 0
143 2 11.317418413362942 3.4663365027005693 7.004249878389532 0 0 0
138 2 13.271203080799099 3.0165402871999047 2.8903499125896164 0 0 0
137 2 12.740657183328763 3.789817317199713 4.009089274394466 0 0 0
585 2 3.5917793595934966 1.9814984288265143 9.200431549836082 0 0 0
246 2 1.2474051082315367 10.322146990913792 5.589681372047194 0 0 0
167 2 10.92586451283102 5.831635161188809 0.5207326855364247 0 0 0
68 2 -2.6747336572120117 1.1986418017673455 8.76254897809682 0 0 0
35 2 -1.091402612628092 0.6834890970948938 7.604209756629663 0 0 0
32 2 2.441607078888552 1.004659689757601 2.578075157625165 0 0 0
89 2 12.278905147863261 1.872889529089547 4.362725682467707 0 0 0
256 1 12.665769356227921 8.429684295617337 5.1122757323543295 0 0 0
306 2 13.346281242391157 10.701696937993866 3.220288791676957 0 0 0
150 2 11.26469468839001 7.465517443624269 8.79515175906278 0 0 0
235 1 -2.743327139109802 8.011667629742773 8.387936377623237 0 0 0
521 2 1.9997609449364178 5.265235754515454 9.113879495777272 0 0 0
9 2 -1.123635569170467 7.511238974361917 5.177937561380803 0 0 0
88 1 12.47424869942226 1.0881253456959705 4.972112662610033 0 0 0
101 2 14.060627142821561 5.3432958925572684 1.2397304351350253 0 0 0
113 2 13.975115748420704 7.34592629429049 2.1080085087230547 0 0 0
294 2 12.78207731577826 9.205874910594135 6.746910113540459 0 0 0
90 2 13.4656679376582 1.0005112907356417 4.862096317651731 0 0 0
753 2 3.7564281353125057 9.555561840524005 8.77215746571876 0 0 0
80 2 6.825943483952427 1.8820628477283472 1.0222602107424026 0 0 0
671 2 8.038236936764687 5.764890827100816 8.968105353445841 0 0 0
83 2 2.364589544252609 5.649034288996158 1.357709287142287 0 0 0
114 2 15.498240850608035 6.875655374528797 2.4665621042825188 0 0 0
56 2 -0.9088555008561765 4.918540707267812 4.396416893064787 0 0 0
189 2 2.196226158867771 10.52013376734887 0.41683966337469297 0 0 0
55 1 -0.7867217632095282 4.189508008150228 3.78456148427328 0 0 0
587 2 -1.8169869514354557 6.577335169492869 9.300297566570059 0 0 0
248 2 7.4938661697840745 8.412193236848038 0.8344811548264269 0 0 0
102 2 13.893276883905893 4.078968152209003 0.3213333150589155 0 0 0
694 1 4.017160150302512 10.312365314535784 0.4496938179219798 0 0 1
236 2 -3.0281426310359536 8.678029412896068 8.992561314705638 0 0 0
156 2 12.190910949951242 0.8204263005210952 2.402139006936185 0 0 0
520 1 2.1214900182283567 4.5344904971939535 9.725215286245561 0 0 0
668 2 12.343621620953481 1.9062213683925342 9.070157808501438 0 0 0
528 2 2.9334771093638006 2.9053428167516606 0.6839771970046686 0 0 0
432 2 11.09069009214459 -0.012848302208049823 5.059180904080479 0 1 0
584 2 2.6603997046486407 0.7341898499525594 9.393089696389088 0 0 0
109 1 13.53747508694445 6.437922877984504 6.918808327779001 0 0 0
209 2 3.4471549896201674 10.743291881825863 7.069064380085572 0 0 0
117 2 10.065881294974492 0.2912273685203859 2.6086842174243263 0 0 0
292 1 12.860075186027261 9.659035704702315 7.636648202539744 0 0 0
112 1 14.563337424368674 6.829314505168943 2.718819151370714 0 0 0
157 1 13.973540623588622 5.0571937770416655 4.738714655016497 0 0 0
111 2 12.698921681984002 6.906865255231056 7.266545691865711 0 0 0
123 2 15.354337561000467 2.2766324506897955 1.9140902953171657 0 0 0
126 2 12.646476153493163 1.8419649126562463 6.693258399744653 0 0 0
257 2 13.651214562442645 8.451196634180468 5.0701284477772655 0 0 0
124 1 12.788626188843613 2.4807536946692177 7.430393499185645 0 0 0
158 2 14.132275397073139 5.836002018091074 4.11456471964826 0 0 0
289 1 15.013179933173145 10.186125836009015 2.47549481512375 0 0 0
291 2 15.407924921605547 9.79820380208251 1.692639151311607 0 0 0
271 1 10.185173501503213 10.274534268165787 0.5312596150787608 0 0 0
836 2 12.377116954804295 9.06507703041191 9.204578219880545 0 0 0
217 1 6.737721876507189 10.895779458909567 6.323019477143231 0 0 0
154 1 12.885364254094487 0.44890190900421933 1.8063489579920753 0 0 0
152 2 6.932909452002302 0.45336229932053573 7.82561625314767 0 0 0
103 1 10.161021936514 2.7326861565529823 0.7719696011040894 0 0 0
304 1 12.607310511435113 10.824608991742911 3.808801530554651 0 0 0
159 2 13.962566998471775 5.510011348020524 5.644727827245619 0 0 0
100 1 14.372416566852275 4.962585078607141 0.4350507976511498 0 0 0
221 2 4.701661127653051 10.778816381699 3.2464550643811245 0 0 0
2 2 6.782526071182074 0.0647215611028837 4.781701512264348 0 0 0
602 2 16.11012672068681 4.509979920846355 0.33197669422825093 0 0 0
104 2 9.688270147260084 3.5889153200561967 0.5348260123578131 0 0 1
220 1 3.8471276329061994 10.941584651836152 3.760821939807667 0 0 0
70 1 3.781237966436671 0.37087585688518965 1.9388150214568258 0 0 0
108 2 8.337907816165261 2.6056974780666513 9.473234733907455 0 0 0
751 1 3.5790085063476536 9.038222837746442 9.590740445292887 0 0 0
399 2 7.999387495528507 0.15712968935431312 1.5135966597932562 0 0 0
106 1 9.267105438701664 2.4475774965275066 9.644564631988988 0 0 0
22 1 0.3312133898618903 2.5724704144605166 9.467191164932123 0 0 0
219 2 5.872416513436187 11.119242123443009 6.718330671235833 0 0 0
151 1 6.211969577497869 0.23381156113476428 8.428194314778796 0 0 0
224 2 -0.27803002958383743 11.078368149981815 3.9783646590655204 0 0 0
518 2 7.682882786970672 4.757184046056316 0.4814662571846326 0 0 0
67 1 -2.6026614905420318 0.4189253992650914 8.227721447543898 0 0 0
780 2 12.956449127351672 9.748570154332338 0.3787887099359768 0 0 0
274 1 9.57844132164506 10.395155898243845 9.735922408796563 0 0 0
247 1 6.960839705212375 9.065423932684508 0.3904247927464074 0 0 0
524 2 -2.8234376979102365 3.6976344748732384 9.440196521997994 0 0 0
16 1 5.921735769815071 4.939542632518976 0.5789625152325971 0 0 0
608 2 5.691063091414572 3.2278511409025943 9.683507555941596 0 0 0
293 2 12.260057202114517 10.44460677055209 7.427837092209503 0 0 0
163 1 15.905920824831005 1.4443317580880408 0.48374499588757547 0 0 0
483 2 0.1281784637199475 0.07699941148790784 2.3171437996255744 1 1 0
84 2 3.2837216195606023 6.870950159160998 1.1201713265113766 0 0 0
79 1 7.36244652674739 1.3388182695491482 0.3927473445781077 0 0 1
187 1 1.2388957674255952 10.263592414956175 0.3555347619549562 0 0 0
82 1 2.786543028005051 6.19680372430596 0.6367615011600481 0 0 1
311 2 10.66860239671576 11.193485336521587 5.951438792287163 0 0 0
17 2 5.28331672141608 4.220733022384174 0.762142621412726 0 0 0
401 2 1.1192596947034843 0.0031543778306593034 7.714051583605856 0 0 0
612 2 11.953275256000136 2.8841379695190135 0.43665842579172337 0 0 0
607 1 6.312405513023052 2.534340432176571 9.705826752228118 0 0 0
526 1 3.864757546563296 2.87917848874208 0.4395863854208013 0 0 1
696 2 4.773305919528204 10.962758349052992 0.41187796431048684 0 0 1
19 1 0.9077628214458702 2.5536575898267664 0.5302874665040015 0 0 0
20 2 0.19045645694041652 3.221327959951699 0.6456546893586402 0 0 0
523 1 -2.3017989875234064 2.912129015587054 9.73655251304658 0 0 0
273 2 11.152216591753895 10.434263690054498 0.3144413722278004 0 0 1
69 2 14.417091295599196 0.18658756418709888 7.98954727703912 0 0 0
86 2 15.511330883222335 0.10996262714015438 4.9504272741470245 0 0 0
135 2 15.527722540827732 2.43350606520166 6.148671003143929 0 0 0
290 2 15.669087358348925 10.845035630567954 2.7355515028545145 0 0 0
253 1 15.533513427057626 8.776079748090707 4.929628617122494 0 0 0
110 2 13.526984591406991 5.810535356388552 7.641323956488928 0 0 0
121 1 15.375726396097498 2.4474464579849142 2.8701908728337573 0 0 0
146 2 17.25600224034832 6.063881573464421 1.1966052045045406 0 0 0
125 2 13.699463753495793 2.794843010479465 7.256566481419892 0 0 0
255 2 15.312885576368103 9.10290686289188 4.043812410399971 0 0 0
85 1 15.072969988810225 0.9410582996056452 4.948876867815469 0 0 0
87 2 15.257291019259847 1.4432054909053644 4.048294936748026 0 0 0
165 2 16.53023146431853 0.8069130243458469 0.9073221930190624 0 0 0
145 1 17.396220578766815 6.935851823486962 1.7153787755582475 0 0 0
147 2 17.126063976163564 7.621813168140951 1.0276034640862513 0 0 0
122 2 15.818214198567103 3.3055525348643537 2.994363124235225 0 0 0
237 2 14.441164585793324 7.60394452601238 7.949295593834851 0 0 0
301 1 15.531783435900717 10.768635996347852 6.753807992262575 0 0 0
254 2 15.674795255456385 9.592593173419411 5.429517412983546 0 0 0
97 1 13.81992716078186 5.025705162824043 9.251945651350052 0 0 0
133 1 15.238976049905524 3.272145122500236 6.601991694833036 0 0 0
134 2 14.788598746597753 3.82158253032379 5.871210201693621 0 0 0
302 2 14.807561423746881 10.363149515207258 7.197424319665556 0 0 0
99 2 12.858728225848814 4.698852127919495 9.311428819631418 0 0 0
601 1 17.11270034405998 4.6490760112846745 0.29306462747120476 0 0 1
333 2 8.151874275940376 8.174889442962698 18.654937495938313 0 0 0
732 2 -0.7409897431471262 11.094615480597065 16.173690677452612 0 0 0
654 2 6.840613315893485 6.311553874762588 18.332840196984563 0 0 0
188 2 -6.074112252005867 9.368731059093369 18.693199023467823 0 0 0
574 1 0.2049640339468933 0.2804360293570972 11.073327517646469 0 0 0
903 2 4.1980219360992015 0.10865562642099037 10.849022998745358 0 0 0
906 2 -2.4005516143179686 0.04243893516046232 17.28739513029892 0 0 0
749 2 -2.3516483358193256 10.372281994359199 14.836195629688163 0 0 0
724 1 0.25992037069891133 10.730455601675057 12.964241185997098 0 0 0
593 2 8.775934124633718 0.3033836690800126 14.278082171317028 0 0 0
815 2 7.725071728282456 11.064109244277605 16.28253173760965 0 0 0
590 2 10.754029599259612 1.0635356274788235 14.561966599886038 0 0 0
168 2 3.5174621286239893 6.823555611834594 18.306372578729462 0 0 0
620 2 5.919607496090772 0.41181057756797446 12.075879542686229 0 0 0
777 2 6.0503496200700635 11.096167854571107 9.944681149962365 0 0 0
191 2 0.6142143995515659 9.186083141499303 10.274535430753135 0 0 0
583 1 3.183766398101428 1.3828834234809004 9.85982298902995 0 0 0
670 1 7.7324418752180355 6.203403015340853 9.784859643500667 0 0 0
505 1 2.7126932375658956 0.8873196583607755 14.27300761752249 0 0 0
506 2 2.9418521997215654 1.6833795311005182 14.776179042425248 0 0 0
621 2 7.328528491697983 0.8807199099969828 12.034073688543911 0 0 0
508 1 -0.02665784128618226 0.8377556602943731 14.794346663184497 0 0 0
692 2 -2.763953138110268 10.850246808252788 9.938875047200904 0 0 0
527 2 -3.587045095599248 2.417213887747172 18.490574429351202 0 0 0
511 1 -4.409397003867428 6.3558588191198435 14.652609785493581 0 0 0
512 2 -4.780925462735526 5.689292501371446 14.028761634728502 0 0 0
513 2 -4.195440091250026 5.8886593001149325 15.461729997402221 0 0 0
514 1 -1.7272215068760939 6.311503293446686 14.15197422194291 0 0 0
515 2 -1.717302941796996 5.539361188742292 14.729260440258564 0 0 0
516 2 -2.6931474722812214 6.587811463971658 14.133253305875181 0 0 0
837 2 12.222044088732387 9.040300370952227 10.728848084593693 0 0 0
519 2 1.25194512931366 5.431414820900643 18.39148630205983 0 0 0
828 2 8.52483396857553 8.18471855714081 11.634932568620853 0 0 0
522 2 2.274720454093033 4.950247595316159 10.614225041317813 0 0 0
166 1 4.045710271248115 6.117749755566059 18.72991892400746 0 0 0
658 1 8.987530854221896 0.35262520421890986 11.220714774024525 0 0 0
693 2 -1.3515058990182607 10.020073554357976 10.191083480561012 0 0 0
798 2 9.265572810400942 9.50413780702077 16.12059714726466 0 0 0
586 1 -1.1857339656294987 6.098971597467883 9.850328785008474 0 0 0
529 1 0.9348789668995308 6.182854093436916 16.801394864225774 0 0 0
530 2 0.9604152015141474 5.868047404085795 15.864921678791186 0 0 0
531 2 0.02256589643130147 6.43459211733419 17.064606435409235 0 0 0
532 1 2.195966256139357 6.396303586534993 12.076918856497796 0 0 0
533 2 3.037834783159361 6.8268182367987995 12.13924723534145 0 0 0
534 2 2.109340878801193 5.86198817605129 12.877789138325474 0 0 0
535 1 -2.3411412590993206 1.149808526546326 12.021081437375601 0 0 0
525 2 -2.8068980895695215 2.5507447964536447 10.441946464409263 0 0 0
810 2 8.574229777035889 11.064849850756877 12.727660156109923 0 0 0
538 1 -3.6345769015887304 1.2714285939055012 16.863129673547267 0 0 0
609 2 6.27795619603059 2.281125323214662 10.613893382741903 0 0 0
540 2 -3.622774366200846 1.6836759750914978 15.945684386965835 0 0 0
541 1 2.393861852200231 2.4587573812088186 12.189628519857209 0 0 0
542 2 2.5173295596721963 1.748250578622468 12.890196555985431 0 0 0
543 2 2.5870296842386415 2.1072380612026023 11.299426595245706 0 0 0
544 1 0.3880880278071417 2.3469899092532422 16.93934926733618 0 0 0
545 2 0.21824425336149478 2.072508063037117 17.8879463393977 0 0 0
546 2 0.20152890833207765 1.6140705002711202 16.36986054551257 0 0 0
547 1 -3.8995479763799126 4.99849196248289 17.164342355348886 0 0 0
548 2 -4.518532869329938 4.317742744802141 16.860507883301274 0 0 0
549 2 -4.023479689095525 5.1813443284978735 18.080161716350833 0 0 0
550 1 -2.0663493385266523 4.661222529443682 12.082025959988618 0 0 0
551 2 -1.693238794490913 3.830317487702625 12.450975670017437 0 0 0
552 2 -1.877323715309287 5.304736549760364 12.807411526398045 0 0 0
553 1 2.8290113953835667 3.10795114797124 15.607200842239338 0 0 0
554 2 2.0853461346138378 2.905929529577722 16.223715752013014 0 0 0
555 2 3.6535018084544775 3.349987587072382 16.14945817895209 0 0 0
556 1 -0.15988536779979484 2.999192906446484 13.178120142309213 0 0 0
557 2 0.6644692337681061 2.8682706904740516 12.674020994741106 0 0 0
558 2 -0.27387315116175 2.2911245749387668 13.864315009125388 0 0 0
559 1 -4.533260466191884 4.135138943841666 13.096943825922622 0 0 0
560 2 -3.907870236058359 4.525055714269454 12.446363678894308 0 0 0
561 2 -3.994554530623138 3.512519070541349 13.627407444572977 0 0 0
562 1 -1.4734178500549011 4.114436610830761 16.10164886261554 0 0 0
563 2 -0.8767436207176758 3.5944887372742773 16.608007310786125 0 0 0
564 2 -2.1632742999383763 4.41125726452098 16.741857201063137 0 0 0
565 1 4.927442735714904 7.220620640148581 11.081600554246737 0 0 0
743 2 -0.24842852809070715 7.39288104083767 10.871902518050055 0 0 0
573 2 11.074703603164258 0.030589056670554227 17.277984759262846 0 0 0
568 1 -1.5657124756774796 6.937338929796901 17.678021338510916 0 0 0
603 2 9.80626212952078 4.770237183389883 18.348189740762702 0 0 0
711 2 1.820748006338299 10.368089469879049 12.201739640499158 0 0 0
805 1 12.072593728206552 10.995502028563923 15.833915769351869 0 0 0
572 2 -6.289040784597302 1.209183188592613 18.303355761396976 0 0 0
827 2 9.986923616775258 7.492053894617723 11.451907424241835 0 0 0
570 2 -1.3211133399568937 7.672101848040847 18.298525187784698 0 0 0
576 2 0.4221586483170747 1.0379634671997795 10.498902967230611 0 0 0
577 1 1.3082764582543815 5.146989669228583 14.438838383441736 0 0 0
578 2 0.5018165214474863 4.654166440225851 14.1970360573149 0 0 0
579 2 1.9747969508084573 4.5179713124926515 14.695335046780775 0 0 0
580 1 -2.9386628508498034 2.526660672580861 14.588778589330875 0 0 0
581 2 -2.464997896239704 2.041410640780442 13.867778036507158 0 0 0
582 2 -2.2279117196333518 2.9458033996852304 15.169997391933828 0 0 0
507 2 3.4722525022500697 0.26744067107164005 14.356597869384867 0 0 0
672 2 8.41890574576468 6.864188700421144 10.111314840444841 0 0 0
589 1 11.796062497828798 1.0716695927362656 14.529698999138871 0 0 0
778 1 5.403277953814202 10.371375402705505 18.76877777621086 0 0 0
591 2 12.124966580301951 1.8019765640801193 15.036218937470966 0 0 0
592 1 9.38347854263933 1.0230197556624658 14.67107162387042 0 0 0
826 1 9.257113140986547 8.041394581217217 11.035092016027656 0 0 0
594 2 9.085925984917331 1.8374767912088492 14.237018947311487 0 0 0
595 1 4.33360022708957 6.047745268303289 14.493602104644653 0 0 0
596 2 4.653038252518476 5.518810567001254 15.268052966508904 0 0 0
597 2 4.243793322760726 5.389700075447853 13.692016602599216 0 0 0
598 1 7.19873486195167 6.098150959608977 14.575782773817773 0 0 0
599 2 6.4389812712742405 6.5582213946104355 14.954353276319432 0 0 0
600 2 7.078083691515307 5.812509432694411 13.672747109997104 0 0 0
794 2 12.59239576641671 10.48279803852945 12.2607277819384 0 0 0
797 2 10.288752608806792 10.516121253004096 16.58468659911836 0 0 0
105 2 2.467267958112809 1.984803614854519 19.06636416378957 0 0 0
605 2 11.132962392694445 5.0329127293789675 10.7113484604169 0 0 0
832 1 6.114173347287327 10.025633976299325 14.22251521323141 0 0 0
740 2 -5.540959598839472 7.04702890859776 18.5754014424743 0 0 0
825 2 2.6604882412468758 8.68429213647427 18.038213669821328 0 0 0
190 1 0.4931542258083598 10.025744141817787 9.83039138338154 0 0 0
566 2 5.081073423582932 6.396424356667092 10.576584573209233 0 0 0
611 2 5.489728652399983 2.136917211899843 18.29165402176519 0 0 0
613 1 9.860505705666393 6.01339725819833 16.942343323534935 0 0 0
614 2 10.495936082648907 6.66028382868003 17.348637307670234 0 0 0
615 2 8.977090687602825 6.387392157855655 17.15011213402511 0 0 0
616 1 10.972113279344928 6.170036266724404 11.972229414931691 0 0 0
617 2 10.740866292944716 5.986974776058835 12.929788821591458 0 0 0
618 2 11.910780179966949 6.506816643974313 11.909105832906164 0 0 0
619 1 6.424051817597519 1.2084124837869223 12.290375925505467 0 0 0
775 1 6.611912008012959 10.293995903972933 9.827243752085216 0 0 0
517 1 1.1919722370882606 4.931666336509996 19.225123038146087 0 0 0
622 1 5.2072119137095765 1.1401327441997628 17.009178609678216 0 0 0
691 1 -2.369863318628087 9.974356815405324 10.194551703581327 0 0 0
624 2 5.3836923334722275 1.4721187962445388 16.095910234104373 0 0 0
625 1 11.437727223303934 2.2272022249806644 12.10776854718209 0 0 0
626 2 11.754098522099678 1.6120210037526364 12.803641392868014 0 0 0
627 2 12.030353240719267 2.987427107118878 12.21710210935235 0 0 0
628 1 9.478059024163645 2.2948745679604388 16.918423928216136 0 0 0
629 2 9.444502655625477 1.9963789563681527 17.83997797153308 0 0 0
630 2 9.402403805281095 1.4933547649972705 16.32858431814553 0 0 0
631 1 4.965343481697051 4.571330653588506 16.635362948694393 0 0 0
632 2 4.658206319136471 5.092186010976337 17.403269938340042 0 0 0
633 2 5.9007272075456045 4.378962413001973 16.686977489047415 0 0 0
634 1 7.173248778721809 5.162544770341019 12.14042015198107 0 0 0
635 2 6.322526853223665 4.683416639019355 12.274748027554255 0 0 0
636 2 7.300561813752511 5.364289121851704 11.234865247304935 0 0 0
637 1 11.905319057333289 3.6369822992478573 16.194266322000317 0 0 0
638 2 11.765885122030463 4.283572059877591 15.519679979934796 0 0 0
639 2 11.016686913814317 3.2196653491229434 16.393185329766336 0 0 0
640 1 9.179192711051012 3.3430577597964617 13.190869397092234 0 0 0
641 2 8.512287622408326 3.8652866642682238 12.717250036654434 0 0 0
642 2 9.835819880467014 3.1201893142499264 12.470059446511653 0 0 0
643 1 4.579277688428002 4.029583631391829 12.93876096762627 0 0 0
644 2 3.8399716450533465 3.470352478577387 12.610310913975193 0 0 0
645 2 5.035846856836487 3.432907088395001 13.62285226962272 0 0 0
646 1 7.397502572228229 3.7417814385409653 16.07482098042506 0 0 0
647 2 8.137378790240149 3.246042625518936 16.489476533955283 0 0 0
648 2 7.730555600138208 4.545487130812286 15.634725711952784 0 0 0
649 1 13.513468997579494 6.5560385132381205 11.307681931988508 0 0 0
650 2 13.1847833132383 7.177299746244199 10.592110672298254 0 0 0
651 2 -3.6819505937901504 7.010019269805485 11.726230825242222 0 0 0
652 1 7.235689973239214 7.0179550160527695 17.816348285421206 0 0 0
653 2 6.51031395926127 7.514759502918935 17.390506322143786 0 0 0
808 1 9.310259109026289 10.624861309026286 13.17799658155595 0 0 0
809 2 10.005866106639463 10.597527530263811 12.541984920274995 0 0 0
164 2 7.986973254315481 0.7496971092184419 18.827894065475654 0 0 0
661 1 10.492096122092113 5.444826507741978 14.558249687427569 0 0 0
662 2 10.037548101836435 5.696900420941032 15.373240213243633 0 0 0
663 2 9.908869979456309 4.665822835079357 14.242364179286108 0 0 0
664 1 5.712798931938948 2.2440120042924607 14.67167812872174 0 0 0
665 2 6.4654342714117465 2.7391029516973533 15.10264100601188 0 0 0
666 2 5.941626391855137 1.7200689997769192 13.850016586406054 0 0 0
81 2 -0.6872298276846847 0.5951123746559506 18.909820070748424 0 0 0
796 1 9.393951936621495 10.23438238456577 16.813548177972418 0 0 0
721 1 2.9911206255984797 10.700614161273156 15.725820725935003 0 0 0
673 1 3.1142236798714653 8.460739284446323 14.225221026878264 0 0 0
674 2 3.5948043851342026 7.6354448559967505 14.378023948825314 0 0 0
675 2 3.353762954879979 9.054312055887072 14.9568890576626 0 0 0
676 1 0.37834951585277 8.37370442207681 14.608938477502111 0 0 0
677 2 1.343237293927812 8.081009795111202 14.583811579156334 0 0 0
678 2 -0.2259041753355982 7.598833445960994 14.603655721465895 0 0 0
275 2 9.568447531689255 9.500630475619909 10.233519608224409 0 0 0
571 1 -6.056034617445987 0.37771855775380725 17.84528599544304 0 0 0
834 2 5.329786762490198 10.565071510771638 13.845328010333164 0 0 0
807 2 11.989873605036957 10.095933532792426 15.43040691663756 0 0 0
695 2 -3.3067275671775107 9.53654302540581 18.66823583231467 0 0 0
610 1 5.511429033125471 2.6766675895087224 19.140499462903207 0 0 0
703 1 -2.3753225046457844 8.1626201835133 12.325744680644885 0 0 0
704 2 -2.390303023774776 8.909822826409396 11.635659733784038 0 0 0
705 2 -1.4324343770661545 7.891470703770448 12.323125885939023 0 0 0