LAMMPS data file via write_data, version 3 Mar 2020, timestep = 25000000

1008 atoms
2 atom types

2.2753541982756964e-01 1.8172019579996167e+01 xlo xhi
3.1248442889335593e-03 2.2567264155582830e+01 ylo yhi
1.9529758235629480e-01 1.9310418417472214e+01 zlo zhi
3.8395701043982350e-02 -6.7017492311513900e+00 -5.2384228640894599e-02 xy xz yz

Masses

1 16
2 2

Atoms # atomic

1 1 6.4812610310369747e+00 1.2473750818997149e+00 4.7971550493210433e+00 0 0 0
153 2 6.4663293342293979e+00 1.3236508441571011e+00 8.9946365160670414e+00 0 0 0
3 2 6.5044859604621372e+00 1.5072872452383619e+00 3.8388389369269351e+00 0 0 0
4 1 3.8669575428204750e+00 1.1755176351163297e+00 5.1116517984477046e+00 0 0 0
5 2 4.8066939315547605e+00 1.0195342350630456e+00 5.1259095384638442e+00 0 0 0
6 2 3.6583277637133294e+00 1.6929872714708130e+00 5.9331179364046900e+00 0 0 0
7 1 -6.8069451722413032e-01 6.4304837470823220e+00 4.9513603468872249e+00 0 0 0
8 2 -7.3865720464350271e-01 5.8595812539002647e+00 5.7465094018017142e+00 0 0 0
9 2 -1.3246444388796370e+00 7.1938401750202381e+00 5.0076337409618423e+00 0 0 0
10 1 2.2246731929871908e+00 6.5380200255227443e+00 4.9545526740275498e+00 0 0 0
11 2 1.3501174937551836e+00 6.7820473464201747e+00 5.2041599601846027e+00 0 0 0
12 2 2.6671869921477058e+00 7.4270664478133135e+00 4.9112104880593801e+00 0 0 0
330 2 9.5015525987141505e+00 1.0298458103782124e+01 4.6801954155554446e+00 0 0 0
333 2 1.5395513096763517e+01 8.1281601889756026e+00 3.6593629903288988e-01 0 0 1
79 1 7.1929801895385461e+00 1.4862709188452117e+00 1.9918209737356943e-01 0 0 1
23 2 1.1853330663763795e+00 3.4881477933255156e+00 9.2045373894960711e+00 0 0 0
18 2 5.9483002288179412e+00 5.1672104522763016e+00 1.1326993031600023e+00 0 0 0
63 2 8.8517487177715068e+00 6.5088876796133350e+00 8.2722888349686530e-01 0 0 0
301 1 1.5637986654916748e+01 1.1019889425920370e+01 6.5489369192948850e+00 0 0 0
21 2 1.1666561653655829e+00 2.4199043124281414e+00 1.1572729325729556e+00 0 0 0
146 2 1.7490682851299418e+01 6.2978068297254497e+00 1.2883634420284213e+00 0 0 0
302 2 1.5102765796762460e+01 1.0456395584892393e+01 7.1112335463826923e+00 0 0 0
311 2 1.1304823545672006e+01 1.1061828135373380e+01 5.6746100048087129e+00 0 0 0
25 1 4.6315282224265850e+00 6.3162822924195163e+00 7.1724272792324753e+00 0 0 0
26 2 5.3560946075451668e+00 7.0172770183072952e+00 7.4250776733101675e+00 0 0 0
27 2 3.7745129981922876e+00 6.6439997217571918e+00 7.4478894471728090e+00 0 0 0
28 1 6.1173217534343918e+00 6.1841629971279479e+00 2.6164016001395511e+00 0 0 0
29 2 5.8340805030370628e+00 6.0132500411050609e+00 3.5656802217365819e+00 0 0 0
30 2 5.5109402357291426e+00 6.8137268741325672e+00 2.2674538319346880e+00 0 0 0
31 1 1.2980391115339693e+00 1.2700121360201484e+00 2.4036315374432284e+00 0 0 0
14 2 5.0636700039312252e+00 4.9903372307818143e+00 8.8391067361885955e+00 0 0 0
33 2 1.1295970440618637e+00 1.6247177680713789e+00 3.3216959041284202e+00 0 0 0
34 1 2.0843584028610218e-01 1.1790109704757878e+00 7.0760567823123504e+00 0 0 0
120 2 9.3130483540335067e+00 1.3577737684423199e+00 6.6730007379608942e+00 0 0 0
36 2 4.8704153026840835e-01 1.9609016808494968e+00 7.6120910733939073e+00 0 0 0
37 1 6.3556784562070536e+00 2.4523398686412112e+00 2.4486170401420355e+00 0 0 0
38 2 5.4729531420765927e+00 2.8053303050270224e+00 2.5880568051279398e+00 0 0 0
39 2 7.0042477944003343e+00 3.1151008348031337e+00 2.7120503758149881e+00 0 0 0
40 1 3.7738675522735936e+00 2.5226543745043628e+00 7.5367527883377710e+00 0 0 0
41 2 4.5868565348723491e+00 3.1607022882723079e+00 7.5694716563197968e+00 0 0 0
42 2 2.9890485272754375e+00 3.0819632914739383e+00 7.2210120220085807e+00 0 0 0
43 1 -4.9397738024527160e-01 4.6118125952136593e+00 6.9393996958505983e+00 0 0 0
44 2 -1.3395082582244218e+00 4.0498223074645407e+00 6.8346569598348381e+00 0 0 0
45 2 -6.5539715311418090e-01 5.1831034803924609e+00 7.7190447347172491e+00 0 0 0
46 1 2.0529442825525988e+00 5.0451342788886180e+00 2.8105058763522925e+00 0 0 0
47 2 1.1149237702275907e+00 4.7715826400265309e+00 2.8914435100307303e+00 0 0 0
48 2 2.1529352230582610e+00 5.6413155383813915e+00 3.5752370987563089e+00 0 0 0
49 1 6.7348713232282122e+00 3.3361567893122261e+00 6.6797729994312451e+00 0 0 0
50 2 6.5436597903306986e+00 3.8261755536042812e+00 5.8653894037575869e+00 0 0 0
51 2 6.7808723111345941e+00 2.4666579380167111e+00 6.3782993643620447e+00 0 0 0
52 1 4.0966445008155876e+00 3.2139212441281484e+00 3.6794754360035578e+00 0 0 0
53 2 3.2447506817608840e+00 3.5238459773713795e+00 3.2932057587250583e+00 0 0 0
54 2 3.8465087252845924e+00 2.4313082868753297e+00 4.2505721188240786e+00 0 0 0
55 1 -7.8244966074034861e-01 4.4152645029475170e+00 3.3647363731243534e+00 0 0 0
56 2 -9.1759026609116368e-01 5.2626322684266640e+00 3.7852167264275405e+00 0 0 0
57 2 -2.8761224312833955e-01 3.8928082046394401e+00 4.0557758983362220e+00 0 0 0
58 1 2.0698207032268594e+00 4.1137733908469905e+00 6.4555921011528818e+00 0 0 0
59 2 2.3556022430199590e+00 5.0100433907932453e+00 6.1685619222110084e+00 0 0 0
60 2 1.1269122609379907e+00 4.0814409310757211e+00 6.7641479242962044e+00 0 0 0
61 1 8.4688057820535168e+00 7.2156039462854684e+00 1.3986646427073004e+00 0 0 0
62 2 7.6980220779738922e+00 6.8423927161517115e+00 1.8140436744806525e+00 0 0 0
601 1 1.7496574930681376e+01 4.8313008313715011e+00 2.4310367297057150e-01 0 0 1
64 1 2.2364439738716881e+00 6.9492744597681284e+00 8.5578771333748502e+00 0 0 0
65 2 1.4658444180172907e+00 7.2557066711631473e+00 8.0548724672959615e+00 0 0 0
67 1 -2.0605202403542147e+00 3.0779538574699505e-01 8.3493487235031356e+00 0 0 0
320 2 6.4085875603213633e+00 8.5704915109422473e+00 8.8816861169208217e+00 0 0 0
35 2 -5.8039614053900213e-01 8.3372493914941059e-01 7.5495013249105618e+00 0 0 0
780 2 1.2912799275606329e+01 9.2699615789693794e+00 6.7156382821776772e-01 0 0 0
72 2 3.8819843436009842e+00 1.2928333149056281e+00 1.1371991453986992e+00 0 0 0
73 1 5.3585063138130185e+00 4.9998842309677203e+00 4.9368891769449341e+00 0 0 0
74 2 4.9423753869249216e+00 5.5428052274757365e+00 5.6432393876101603e+00 0 0 0
75 2 4.7877345806748917e+00 4.3323699653627088e+00 4.5673443342833764e+00 0 0 0
76 1 6.0929206508444955e-01 2.4561138797891386e+00 4.7717938334098680e+00 0 0 0
77 2 3.2557841202507309e-01 1.8605198679572852e+00 5.5244995434245663e+00 0 0 0
78 2 1.2945504856297136e+00 2.9824179272400277e+00 5.2252673663840339e+00 0 0 0
606 2 1.0507518719461215e+01 4.1397150283823096e+00 9.6103301697235910e+00 0 0 0
190 1 5.5149337453937175e-01 9.9477453197064367e+00 9.7243753337224295e+00 0 0 0
220 1 3.6874801951915641e+00 1.0863290293952357e+01 3.2974584351522669e+00 0 0 0
85 1 1.5541041058077688e+01 8.8088786406124353e-01 4.9822343452395499e+00 0 0 0
87 2 1.5309948558425321e+01 1.1865000088788296e+00 4.0526607752969781e+00 0 0 0
88 1 1.2775229878776340e+01 8.8444870838426082e-01 5.3885099617419181e+00 0 0 0
89 2 1.2453603211020708e+01 1.5674080499660850e+00 4.8116609354894919e+00 0 0 0
217 1 6.6059929454491897e+00 1.0969561992103328e+01 6.3935285762020069e+00 0 0 0
91 1 8.4267491842871216e+00 6.4179228648741722e+00 5.1660091479641457e+00 0 0 0
92 2 8.2354244083190089e+00 5.6941797643374779e+00 4.5021276878219156e+00 0 0 0
93 2 9.3653185432493355e+00 6.6583423346854449e+00 5.0433967775435766e+00 0 0 0
94 1 1.1326443323456704e+01 6.4308543065290884e+00 5.0445297466284522e+00 0 0 0
95 2 1.2114532002287072e+01 7.0080532315809858e+00 5.2602227784035671e+00 0 0 0
96 2 1.1197030400672382e+01 5.7340390410794466e+00 5.7164624473383041e+00 0 0 0
304 1 1.3049042312215400e+01 1.0909158754523437e+01 3.9803413445732176e+00 0 0 0
751 1 3.6485295619189162e+00 8.7246358220918037e+00 9.6644990064760012e+00 0 0 0
602 2 1.6641437370415986e+01 4.5129678160904918e+00 5.9028906154600147e-01 0 0 0
101 2 1.4266729773096120e+01 4.9171964334390381e+00 1.2153330403183353e+00 0 0 0
246 2 1.5684936120183215e+00 1.0211571370928358e+01 5.3456573564652379e+00 0 0 0
331 1 1.6119467550331890e+01 8.7933172560582857e+00 5.1328368842085370e-01 0 0 0
154 1 1.3068764794180870e+01 3.7936538072585096e-01 1.4939761481965521e+00 0 0 0
68 2 -2.3718402864025641e+00 1.1338076259979166e+00 8.7404873487424535e+00 0 0 0
109 1 1.3731305534617180e+01 6.1095159345151320e+00 7.4282722536115378e+00 0 0 0
110 2 1.3994101123005089e+01 5.5218304297816125e+00 8.1553314281394158e+00 0 0 0
111 2 1.2827202211466515e+01 6.4229924917331491e+00 7.6473380173117889e+00 0 0 0
112 1 1.4946704147922468e+01 6.4074184325644756e+00 2.9643142876243638e+00 0 0 0
113 2 1.4303615507257062e+01 6.8914181742735243e+00 2.4343879684880965e+00 0 0 0
114 2 1.5882782343637908e+01 6.6839870392538963e+00 2.7107156907439642e+00 0 0 0
115 1 1.0774615868670857e+01 1.2784022049379240e+00 2.7662762867921211e+00 0 0 0
116 2 1.0723936708869404e+01 1.7112792551082081e+00 1.9127869424403445e+00 0 0 0
276 2 9.3163473114378554e+00 9.8577288532395020e+00 8.5838364891289007e+00 0 0 0
118 1 9.0558041680772909e+00 9.4127339567271229e-01 7.5133691608499662e+00 0 0 0
119 2 9.3113893193112052e+00 1.5706431916223844e+00 8.2722492206914371e+00 0 0 0
103 1 1.0267391199884209e+01 2.6119260118134249e+00 2.7829393551022336e-01 0 0 0
121 1 1.5470753698815310e+01 2.2686181146563236e+00 2.8530776162279587e+00 0 0 0
122 2 1.6010272043527536e+01 3.0674827084347092e+00 3.0182089598314006e+00 0 0 0
123 2 1.5623670687644285e+01 2.0814020835589511e+00 1.9297696481709399e+00 0 0 0
124 1 1.3073153070629843e+01 2.6208789862349486e+00 7.4984366206424555e+00 0 0 0
125 2 1.3993836807977843e+01 2.8598720900629151e+00 7.1381684353914849e+00 0 0 0
126 2 1.2764924471748769e+01 1.8749357655786956e+00 6.8621452144943484e+00 0 0 0
127 1 8.5414337629925381e+00 5.0761148706994579e+00 7.6094343784211231e+00 0 0 0
128 2 7.9186829526053284e+00 4.2892836338250930e+00 7.3781442071307746e+00 0 0 0
129 2 8.6362443504064412e+00 5.5086578088219760e+00 6.7441410799546571e+00 0 0 0
130 1 1.0899791137815782e+01 4.9049412070525928e+00 2.8461603322729578e+00 0 0 0
131 2 1.1649332911654234e+01 4.2752573863512655e+00 2.9096115671436373e+00 0 0 0
132 2 1.1074429889406932e+01 5.6069415247084029e+00 3.6098233979290200e+00 0 0 0
134 2 1.4946014638115637e+01 3.7540688322901214e+00 5.7840057341835891e+00 0 0 0
136 1 1.2844734167525123e+01 2.9041114102252981e+00 3.6104675814696732e+00 0 0 0
137 2 1.3124546095272747e+01 3.6873444424457218e+00 4.1692858628548848e+00 0 0 0
138 2 1.3712859480190113e+01 2.7912393393494668e+00 3.1447689526606264e+00 0 0 0
139 1 8.2554619589523703e+00 4.0111916508497947e+00 3.3841402927193291e+00 0 0 0
140 2 8.9192098034563845e+00 4.1215668147503015e+00 2.7155884437980511e+00 0 0 0
141 2 8.6994639146546096e+00 3.4097857247767260e+00 4.0529596111596078e+00 0 0 0
142 1 1.1075383339286184e+01 4.1778573766271441e+00 6.5942033854065771e+00 0 0 0
143 2 1.1727159256685916e+01 3.7277495765470801e+00 7.2123309092045993e+00 0 0 0
144 2 1.0308935006967387e+01 4.4625012174466203e+00 7.2186358476559294e+00 0 0 0
147 2 1.7174903456866744e+01 7.7683471286923060e+00 1.1964262860891990e+00 0 0 0
148 1 1.1179426764301713e+01 6.9667284585748144e+00 8.0969453473310793e+00 0 0 0
149 2 1.1058234084993448e+01 6.2232237021184336e+00 8.7061584322605299e+00 0 0 0
836 2 1.2635389915585554e+01 9.4781414861658586e+00 9.0124856088823755e+00 0 0 0
150 2 1.1545610647760357e+01 7.7234288332847241e+00 8.6832712504778531e+00 0 0 0
290 2 1.5958352610341924e+01 1.0876848799708133e+01 3.0566033813980660e+00 0 0 0
753 2 3.7470015034285806e+00 9.2479361742244297e+00 8.8163732044100254e+00 0 0 0
321 2 6.9811729586715092e+00 7.1559794864086097e+00 9.0962747883076247e+00 0 0 0
155 2 1.3188802573771612e+01 1.1054365821920482e+00 8.3029315850984564e-01 0 0 0
145 1 1.7508875580090653e+01 7.1006300939550711e+00 1.8019665657964430e+00 0 0 0
157 1 1.4065857319255418e+01 4.9919422638131801e+00 4.9927826134637581e+00 0 0 0
158 2 1.4334514048658130e+01 5.6133309652224401e+00 4.2945040667305667e+00 0 0 0
159 2 1.3855483938977189e+01 5.5540613363207507e+00 5.8363155008157692e+00 0 0 0
160 1 9.6792862430284750e+00 2.2705107573745034e+00 5.0909752201658938e+00 0 0 0
161 2 1.0313246670103529e+01 2.8896835465871145e+00 5.5110585530075760e+00 0 0 0
162 2 1.0211787051731010e+01 1.7125369206220131e+00 4.4619696861121101e+00 0 0 0
66 2 2.6299448210078040e+00 7.6867842729366957e+00 9.1599723071215049e+00 0 0 0
221 2 4.4260835921906789e+00 1.0730701183236805e+01 2.7132546038945704e+00 0 0 0
90 2 1.3764222571061664e+01 7.2389624400804053e-01 5.1945158427246376e+00 0 0 0
169 1 6.6469751446747862e+00 8.6170868636815552e+00 4.7324271234345305e+00 0 0 0
170 2 7.1566746286146135e+00 7.8536885779120844e+00 4.9376280075851362e+00 0 0 0
171 2 6.8017503126413210e+00 9.3533465422836937e+00 5.3565650212186853e+00 0 0 0
172 1 3.8033929989089179e+00 8.4872665648093939e+00 4.9848227048758700e+00 0 0 0
173 2 3.5321881804105706e+00 9.2166003173561268e+00 4.4187083052459428e+00 0 0 0
174 2 4.7170359251103902e+00 8.2792855561390049e+00 4.7366709145250283e+00 0 0 0
2 2 6.9963682320773124e+00 3.8685637292417852e-01 4.9020854469107045e+00 0 0 0
604 1 1.1323646784498930e+01 4.7765986518604269e+00 9.6924757438110234e+00 0 0 0
133 1 1.5396604406974943e+01 3.1014772147135856e+00 6.3816463009159303e+00 0 0 0
272 2 9.8811414716116150e+00 9.8945778883850011e+00 8.5977147555076150e-01 0 0 0
199 1 1.6177092190962725e+00 8.4373589187044598e+00 2.6916465022128255e+00 0 0 0
200 2 1.4467478792789978e+00 9.0958053919435180e+00 1.9692409929761334e+00 0 0 0
201 2 8.4598069843665913e-01 7.9080223435414405e+00 2.5256386749799433e+00 0 0 0
202 1 4.6052138893870520e-01 8.1401440960248390e+00 7.2174929984750991e+00 0 0 0
203 2 -5.1670185860336559e-01 8.0954756473269249e+00 7.2836791477422800e+00 0 0 0
204 2 5.9176651661821200e-01 8.5721851814941310e+00 6.3682899326444673e+00 0 0 0
205 1 6.3937430958924493e+00 1.0036236636685485e+01 2.6155985715142114e+00 0 0 0
206 2 6.5494254478969642e+00 9.4263352105187774e+00 3.4022532541711361e+00 0 0 0
207 2 6.6817175317047646e+00 9.5603559689779782e+00 1.7916345111522651e+00 0 0 0
208 1 4.1413769674065355e+00 1.0021171682286322e+01 7.3551427878796050e+00 0 0 0
189 2 2.0834483901958412e+00 1.0211664488750790e+01 2.6956409396838754e-01 0 0 0
210 2 3.9560415434924963e+00 9.4598984977678828e+00 6.6251748521874125e+00 0 0 0
100 1 1.4601144086090629e+01 4.5792767935804148e+00 3.6399925540421496e-01 0 0 0
152 2 7.3229194876882513e+00 4.7357265409390820e-01 8.0805273127980080e+00 0 0 0
83 2 2.3537139786011538e+00 5.4690667427663691e+00 7.1674665107345570e-01 0 0 0
84 2 3.3971747264562464e+00 6.6454380318373705e+00 8.3276381925173915e-01 0 0 0
236 2 -2.3401575898072515e+00 8.6524378936609896e+00 8.5414619084757568e+00 0 0 0
235 1 -2.2558962535736957e+00 7.8950630918788214e+00 7.9510648040429581e+00 0 0 0
668 2 1.2553082365550916e+01 1.6097241245116389e+00 8.9902296218004718e+00 0 0 0
238 1 4.1029618050059176e+00 7.9833703273894976e+00 1.6400793057661383e+00 0 0 0
239 2 3.3483612086158203e+00 8.3247819754928081e+00 2.1878915596019248e+00 0 0 0
240 2 4.2922238539967239e+00 8.7652586896173581e+00 1.0847022614500976e+00 0 0 0
244 1 8.7920397470629941e-01 9.5458648566333313e+00 5.0154575999284043e+00 0 0 0
245 2 1.2195235366872124e+00 9.1734202077010725e+00 4.1524925088065734e+00 0 0 0
70 1 3.7993929725110172e+00 4.5482078927756359e-01 1.6645544568476391e+00 0 0 0
167 2 1.1121672566668938e+01 5.8854751480003209e+00 8.7375429957466400e-01 0 0 0
135 2 1.5626710450061298e+01 2.3108077661687876e+00 5.7841297449998690e+00 0 0 0
253 1 1.5703748612993625e+01 8.7702164995881873e+00 5.0695241395306949e+00 0 0 0
255 2 1.5504985156482418e+01 9.1408917216554730e+00 4.1961438533570732e+00 0 0 0
256 1 1.3070028627989172e+01 8.5495583323426043e+00 5.3577849197582328e+00 0 0 0
257 2 1.4011484345524307e+01 8.4112821032879772e+00 5.3105814176391339e+00 0 0 0
258 2 1.3013337597765002e+01 9.2269471487432764e+00 4.6409688931564625e+00 0 0 0
254 2 1.5783219556780228e+01 9.5294909181777285e+00 5.6841779899570684e+00 0 0 0
305 2 1.2295520040425526e+01 1.1056088987744156e+01 3.3515520656306013e+00 0 0 0
192 2 6.3010580652553561e-01 9.5884511710955671e+00 8.7935497234655617e+00 0 0 0
309 2 7.7569263346623956e+00 1.1130562397457000e+01 3.0476405015701777e+00 0 0 0
283 1 1.0640343977729550e+01 8.0803256460459973e+00 2.6727761781112931e+00 0 0 0
284 2 1.0374012055126050e+01 8.6119931910939158e+00 3.4696291910855579e+00 0 0 0
285 2 9.8769224898300134e+00 7.7995253315845607e+00 2.1612828204794781e+00 0 0 0
286 1 9.2843820916653055e+00 8.5125707690448369e+00 7.2529015258942984e+00 0 0 0
287 2 9.8768031243815226e+00 7.6918546396934167e+00 7.4465710165130776e+00 0 0 0
288 2 8.4012380903045862e+00 8.1701547806869197e+00 7.2027320698453643e+00 0 0 0
289 1 1.5237903606312322e+01 1.0247243168381374e+01 2.8121416274584399e+00 0 0 0
117 2 1.0052727770669993e+01 6.1883018327044859e-01 2.6644487095223441e+00 0 0 0
291 2 1.5514242345956895e+01 9.8752564706527632e+00 1.9775320686002427e+00 0 0 0
292 1 1.3318043548922907e+01 9.9362052616980723e+00 7.4313773778710734e+00 0 0 0
24 2 -2.7084251347792820e-01 3.1478422302649238e+00 9.2690043138823253e+00 0 0 0
294 2 1.3097651796034443e+01 9.3332812294751122e+00 6.7182563288573034e+00 0 0 0
237 2 1.4761928766165907e+01 7.5789376261924941e+00 7.9274591869361535e+00 0 0 0
32 2 2.2422517790454166e+00 1.0084519075588894e+00 2.3620050466662232e+00 0 0 0
293 2 1.2879618002807076e+01 1.0775265576082379e+01 7.1857240211147548e+00 0 0 0
692 2 -2.8168469345747909e+00 1.0780199956502566e+01 9.5749205975694114e+00 0 0 0
319 1 6.5000709064877187e+00 7.7290099337561227e+00 8.4435772487314900e+00 0 0 0
585 2 3.7767307678049553e+00 1.6645481999790364e+00 8.9678471793231367e+00 0 0 0
156 2 1.2475693309330881e+01 7.8912518503850881e-01 2.1503308342262741e+00 0 0 0
322 1 1.3022329842994015e+01 7.9172490387304437e+00 1.7889897376101545e+00 0 0 0
323 2 1.2175228604117661e+01 8.2097188381037434e+00 2.1760281350223600e+00 0 0 0
324 2 1.2645039595213483e+01 7.3483282865424737e+00 1.0662565377402657e+00 0 0 0
328 1 1.0148532272308353e+01 9.6796874564788169e+00 5.0005119326804026e+00 0 0 0
329 2 9.6910642216203602e+00 9.3418236996271258e+00 5.7689298174980914e+00 0 0 0
22 1 5.7610253938702760e-01 2.7303487845012500e+00 9.2118870636537284e+00 0 0 0
80 2 6.6915533184739751e+00 1.8181088607365947e+00 1.0271064538677881e+00 0 0 0
86 2 1.6061622223304767e+01 7.5186198625927153e-02 4.9939960525135483e+00 0 0 0
306 2 1.3820313752377883e+01 1.0818181287788603e+01 3.3188242437603299e+00 0 0 0
166 1 1.1688373718998964e+01 6.2954537425896229e+00 2.2285871939812607e-01 0 0 1
521 2 2.3564671036602158e+00 5.6713890497501609e+00 9.5723369615925815e+00 0 0 0
586 1 -6.9754353776040379e-01 5.7309859890391435e+00 9.2967800905096016e+00 0 0 0
187 1 1.1594915847179568e+00 9.9904740689022624e+00 5.4606608964669745e-01 0 0 0
224 2 -2.4804007115717297e-01 1.1089953764972881e+01 4.3206015567872136e+00 0 0 0
151 1 6.5433734532077796e+00 4.4606078619443484e-01 8.6453643308988806e+00 0 0 0
671 2 8.1548645079484938e+00 5.5419007819356541e+00 9.2656993890734256e+00 0 0 0
587 2 -1.2269270239502434e+00 6.4750913911991939e+00 9.0317656862490470e+00 0 0 0
219 2 5.8117441829325207e+00 1.0717550131928530e+01 6.8907511533975105e+00 0 0 0
274 1 9.2361482040653868e+00 1.0356227985046171e+01 9.3974748725088801e+00 0 0 0
667 1 1.2351900368406248e+01 1.0382898932680824e+00 9.7327648457208333e+00 0 0 0
777 2 6.0435564524178460e+00 1.1055475339367314e+01 9.6372615460842770e+00 0 0 0
106 1 9.3352358172200649e+00 2.7131066959735426e+00 9.6736964550596358e+00 0 0 0
584 2 2.6871460806216549e+00 6.8782039870304923e-01 9.6112208083019013e+00 0 0 0
399 2 8.2002883006048286e+00 5.6239139330378229e-01 1.1198347367248314e+00 0 0 0
209 2 3.5368838976558283e+00 1.0723414528908025e+01 7.0825691645600060e+00 0 0 0
19 1 1.3293290318328830e+00 2.7072279797522456e+00 1.9926819404679219e-01 0 0 0
749 2 -1.8426229821499032e+00 1.0373277501683528e+01 1.5081197867401565e+01 0 0 0
740 2 -5.3181551938562084e+00 6.9705445984108554e+00 1.8624447340902201e+01 0 0 0
721 1 3.4044219787151793e+00 1.0828405951271348e+01 1.5758372716573527e+01 0 0 0
691 1 -2.3677149978367575e+00 9.9378354747810640e+00 9.9335578872935830e+00 0 0 0
572 2 -5.5029526120377916e+00 1.3396687118839588e+00 1.8084862121723411e+01 0 0 0
711 2 2.2177892163016635e+00 1.0147572414780013e+01 1.2231644815609641e+01 0 0 0
809 2 1.0218016724623519e+01 1.0531840574854419e+01 1.2567772273481042e+01 0 0 0
164 2 8.8141965912353388e+00 8.6775680888095086e-01 1.8911914690636635e+01 0 0 0
191 2 9.1066731238144083e-01 9.2206816450992459e+00 1.0310212290785049e+01 0 0 0
794 2 1.2641442175584460e+01 1.1006688000627626e+01 1.2439327495563511e+01 0 0 0
593 2 9.1184059923236962e+00 3.7957526570226935e-01 1.4799921512505092e+01 0 0 0
517 1 1.9757466371384771e+00 4.7514246813175891e+00 1.8982389022883893e+01 0 0 0
778 1 6.0992824759701465e+00 9.9287068720789247e+00 1.9110347578619901e+01 0 0 0
15 2 4.0703544046346369e+00 4.8147962822829848e+00 9.9920175836999050e+00 0 0 0
807 2 1.2560248971618472e+01 1.0295557142940147e+01 1.5749568673279656e+01 0 0 0
659 2 1.0099739839744755e+01 6.2539330129786755e-02 1.1912838241422859e+01 0 1 0
509 2 -1.5207235192575741e-01 3.6260413213295078e-01 1.4554402753537088e+01 0 0 0
752 2 3.4159303275468829e+00 9.3252153544890213e+00 1.0421181775646859e+01 0 0 0
505 1 3.2264239962190198e+00 1.1055664211056011e+00 1.4009176847740159e+01 0 0 0
506 2 3.4614522760700526e+00 1.8478898279192364e+00 1.4561597219999198e+01 0 0 0
797 2 1.0944583976992321e+01 9.8699692599418327e+00 1.7141572860623363e+01 0 0 0
508 1 3.4674009800626493e-01 1.2179002729074035e+00 1.4706342463995131e+01 0 0 0
520 1 2.4602059296831089e+00 4.8433151937967507e+00 1.0118239101199752e+01 0 0 0
714 2 1.7975133302580630e+00 1.0399517064808029e+01 1.6508875693328136e+01 0 0 0
511 1 -3.8224804642223624e+00 6.5812023735531024e+00 1.4563669295353160e+01 0 0 0
512 2 -4.1470833119460373e+00 5.7134613808094121e+00 1.4174106848950879e+01 0 0 0
513 2 -3.8385484142503099e+00 6.4571153080311881e+00 1.5552880805190332e+01 0 0 0
514 1 -1.0776173308058401e+00 6.3683878957639894e+00 1.4029561380625905e+01 0 0 0
515 2 -9.0891338465669236e-01 5.5703766042322185e+00 1.4570674231105896e+01 0 0 0
516 2 -1.9712782763802048e+00 6.6717250906616243e+00 1.4209671262992565e+01 0 0 0
833 2 6.9758344254777684e+00 9.4740815294306202e+00 1.3883154171334668e+01 0 0 0
519 2 2.0114864325470538e+00 4.9608396154362442e+00 1.8035688569274178e+01 0 0 0
507 2 3.9613725998999234e+00 4.3262437289642020e-01 1.4050451203253139e+01 0 0 0
672 2 8.4569763675261687e+00 6.5987934166190509e+00 1.0402562494568041e+01 0 0 0
743 2 6.2448022984633411e-01 6.9985757310905701e+00 1.0471441578891032e+01 0 0 0
603 2 1.0561423081242920e+01 5.1451761115168049e+00 1.8478948392072787e+01 0 0 0
271 1 3.3688623095103507e+00 1.0356288389880834e+01 1.9201690355926544e+01 0 0 -1
826 1 9.2600233753191414e+00 7.6812209001777960e+00 1.1184198547865275e+01 0 0 0
527 2 -2.5065188726753536e+00 2.1224388443564393e+00 1.8121339653363755e+01 0 0 0
529 1 1.7260175215575719e+00 6.1153030881924000e+00 1.6482710148436759e+01 0 0 0
530 2 1.7763896049376164e+00 5.5727105259137728e+00 1.5697920901827290e+01 0 0 0
531 2 8.0551678481565325e-01 6.2610537074978092e+00 1.6654880841225506e+01 0 0 0
532 1 2.6221045862462411e+00 6.5611766166309087e+00 1.2322241821465536e+01 0 0 0
533 2 3.5801524122966306e+00 6.7303496071809761e+00 1.2139717852761333e+01 0 0 0
534 2 2.5156975633847178e+00 6.0145924645414430e+00 1.3158545065911412e+01 0 0 0
535 1 -2.1350317526876141e+00 1.3818580570487065e+00 1.2151733240845893e+01 0 0 0
724 1 6.0920766268138582e-01 1.0751775835688226e+01 1.3101980834652133e+01 0 0 0
98 2 1.3852224691869450e+01 5.6356045663343242e+00 1.0498252232114767e+01 0 0 0
538 1 -2.7658191034089050e+00 1.1003321766130540e+00 1.6774808628764980e+01 0 0 0
776 2 7.5309987494290986e+00 1.0603739435802197e+01 9.8987407637514853e+00 0 0 0
540 2 -2.7089763184951496e+00 1.3306746910258236e+00 1.5767345833085887e+01 0 0 0
541 1 3.0845942151512080e+00 2.9520335876047463e+00 1.1746283581143260e+01 0 0 0
542 2 3.0185250270861701e+00 2.3037862924077337e+00 1.2444930123396242e+01 0 0 0
543 2 3.1354158137168668e+00 2.4390946334972829e+00 1.0909438699079136e+01 0 0 0
544 1 8.6337444896365412e-01 2.9252367498956713e+00 1.6934544098433221e+01 0 0 0
545 2 7.9958626039138814e-01 2.5195408028876072e+00 1.7819050965230879e+01 0 0 0
546 2 9.6982887090396730e-01 2.1508668658934389e+00 1.6328971781341174e+01 0 0 0
547 1 -3.2543792089768382e+00 5.0135389518360443e+00 1.6786358379472112e+01 0 0 0
548 2 -4.0426029641122945e+00 4.4723534110089265e+00 1.6605749054494225e+01 0 0 0
549 2 -3.4064039452655033e+00 5.4096917778347438e+00 1.7661293928452480e+01 0 0 0
550 1 -1.6258527648720187e+00 4.8717936680201541e+00 1.1750560270204664e+01 0 0 0
551 2 -1.1165862661133157e+00 4.1023330845752906e+00 1.2028345888154867e+01 0 0 0
552 2 -1.3724427374434942e+00 5.5615042688049217e+00 1.2369438126927681e+01 0 0 0
553 1 3.5064253170216810e+00 3.3327982652036297e+00 1.5707224926021548e+01 0 0 0
554 2 2.8384392071478928e+00 2.9250557015248582e+00 1.6347426302399640e+01 0 0 0
555 2 4.1939362310524659e+00 3.7853012805334121e+00 1.6240021118898163e+01 0 0 0
556 1 3.1925439290315083e-01 3.2611813595850867e+00 1.2762011965826527e+01 0 0 0
557 2 1.1587238426017512e+00 3.0695208724661858e+00 1.2276280259260933e+01 0 0 0
558 2 2.2734865718972408e-01 2.4766345563072245e+00 1.3395428582701919e+01 0 0 0
559 1 -4.1021632966100805e+00 4.2465294197326982e+00 1.3396401194870766e+01 0 0 0
560 2 -3.3632400842241790e+00 4.4441386031189829e+00 1.2802809458131852e+01 0 0 0
561 2 -3.7978020154781724e+00 3.5402533310350353e+00 1.3992710681761922e+01 0 0 0
562 1 -1.0897225439050029e+00 4.0381236206912066e+00 1.5676441592603197e+01 0 0 0
563 2 -2.8532108072072049e-01 3.8192426581813792e+00 1.6238440110679420e+01 0 0 0
564 2 -1.8236016000311790e+00 4.2152679457634346e+00 1.6277114334117300e+01 0 0 0
565 1 4.8249098894869977e+00 7.2021892119668491e+00 1.1154623725354677e+01 0 0 0
566 2 4.3195261820294437e+00 7.5520255466420343e+00 1.0409484824767825e+01 0 0 0
623 2 4.9303352614208258e+00 4.9841048909824537e-01 1.6970386794297980e+01 0 0 0
568 1 -6.5782190714405608e-01 7.0662253749911113e+00 1.7750604163586949e+01 0 0 0
569 2 -8.0216700581034406e-01 6.2091767245497120e+00 1.8095428845039578e+01 0 0 0
573 2 1.1729936745067938e+01 1.6743324016753255e-01 1.7291036273513626e+01 0 0 0
655 1 3.4440271812966259e+00 2.5947119137356589e-01 1.7722687195263084e+01 0 0 0
332 2 9.7009380988000640e+00 9.0238190131304314e+00 1.8708021988583752e+01 0 0 0
832 1 6.4702996085674336e+00 9.9427184545962373e+00 1.4538048208589913e+01 0 0 0
107 2 9.5811011535238340e+00 2.1282313064250697e+00 1.0454339294569579e+01 0 0 0
567 2 5.2318660165176532e+00 6.4034881439517672e+00 1.0767627270933716e+01 0 0 0
577 1 1.8927694287971315e+00 4.8534424265657297e+00 1.4290074652254088e+01 0 0 0
578 2 1.2038024467576154e+00 4.2199585000038411e+00 1.3972530199824108e+01 0 0 0
579 2 2.6039044083519638e+00 4.3176688816573723e+00 1.4698925682148928e+01 0 0 0
580 1 -2.6339059030759762e+00 2.2242533384903087e+00 1.4471278709287983e+01 0 0 0
581 2 -2.4705236843855252e+00 1.7771776754491297e+00 1.3554325617308240e+01 0 0 0
582 2 -1.8908243082415508e+00 2.8188366239520386e+00 1.4637042695197175e+01 0 0 0
823 1 3.3254282574214864e+00 7.6340177730539684e+00 1.7912175175617264e+01 0 0 0
590 2 1.1191755914000099e+01 8.7052992213836511e-01 1.4485408927176074e+01 0 0 0
589 1 1.2114152679175161e+01 1.0406202115394441e+00 1.4322198890880378e+01 0 0 0
834 2 5.9062457058965778e+00 1.0686218700859021e+01 1.4025399730403034e+01 0 0 0
591 2 1.2439682089122647e+01 1.6152681736145502e+00 1.5037465007748398e+01 0 0 0
592 1 9.5892520247674824e+00 1.2360768695922113e+00 1.4810435126864453e+01 0 0 0
510 2 1.2961036632040637e+00 1.0139130500398905e+00 1.4554882180757525e+01 0 0 0
594 2 9.1322787712607525e+00 1.6925894787255362e+00 1.4053157068802143e+01 0 0 0
595 1 4.7943461420788136e+00 6.4970699904572502e+00 1.4846905833754448e+01 0 0 0
596 2 4.8832520222776870e+00 6.1267055695212065e+00 1.5691369722994574e+01 0 0 0
597 2 4.8421810295899075e+00 5.7590660319554896e+00 1.4202878825301868e+01 0 0 0
598 1 7.7065623547996367e+00 6.3309720065339237e+00 1.4879426738768856e+01 0 0 0
599 2 7.7190772138172639e+00 5.9604517825116874e+00 1.3943043634894533e+01 0 0 0
600 2 6.7154942356246670e+00 6.6123442312524139e+00 1.4876444088055663e+01 0 0 0
528 2 -3.4948367477736451e+00 2.9250180719625867e+00 1.8987774592448027e+01 0 0 -1
816 2 7.3542538801210426e+00 1.0958447273535137e+01 1.5301415398179657e+01 0 0 0
669 2 1.2067879760401164e+01 1.6464092453295049e+00 1.0450268264984993e+01 0 0 0
605 2 1.1272110466622165e+01 5.0708944466618915e+00 1.0680196732341592e+01 0 0 0
693 2 -1.3823017634436143e+00 1.0050219377767114e+01 9.8291407293490280e+00 0 0 0
798 2 9.7930004765782179e+00 9.2217300619962561e+00 1.6579034637839897e+01 0 0 0
607 1 6.6624359056293461e+00 2.7280577456916961e+00 1.0192989792115778e+01 0 0 0
609 2 6.5989225239916154e+00 2.2648755327826735e+00 1.1068188567140883e+01 0 0 0
828 2 8.6995303919010087e+00 8.0554637141576944e+00 1.1892110535738858e+01 0 0 0
611 2 6.1643659560258497e+00 2.0764721887709450e+00 1.8149243767606031e+01 0 0 0
613 1 1.0237227497419680e+01 6.2516049122547876e+00 1.7059582406848101e+01 0 0 0
614 2 1.0994566970780214e+01 6.7955718527674360e+00 1.7432027263327264e+01 0 0 0
615 2 9.3594759020107432e+00 6.5225513773930599e+00 1.7368501696598415e+01 0 0 0
616 1 1.1091177984170455e+01 6.2444392311692294e+00 1.2138087733988925e+01 0 0 0
617 2 1.0849718958706028e+01 5.7750645454204825e+00 1.3007405870081492e+01 0 0 0
618 2 1.2032563755265144e+01 6.5237671324110744e+00 1.2124582742111540e+01 0 0 0
619 1 6.7307613471297341e+00 9.1110253002270314e-01 1.2246573678268797e+01 0 0 0
837 2 1.2119787408774352e+01 9.7128387173812047e+00 1.0419448111521532e+01 0 0 0
536 2 -2.7130849199758167e+00 7.3902429842861217e-01 1.1667463510748549e+01 0 0 0