LAMMPS data file via write_data, version 3 Mar 2020, timestep = 0

1008 atoms
2 atom types

2.4439096445779640e-01 1.8155164035536227e+01 xlo xhi
8.3106381822537045e-02 2.2487282618168074e+01 ylo yhi
2.6187988212351598e-01 1.9243836117870579e+01 zlo zhi
-2.0264673084110167e-02 -6.6148073875240945e+00 3.1595367890295194e-03 xy xz yz

Masses

1 16
2 2

Atoms # atomic

1 1 6.7755417724616285e+00 1.0781677043574396e+00 5.1431642768004489e+00 0 0 0
776 2 7.6319974540709943e+00 1.0361999500698165e+01 9.6257550383801718e+00 0 0 0
3 2 7.0798597010461419e+00 1.4286141145475348e+00 4.3101402042544077e+00 0 0 0
4 1 3.9913208977316970e+00 1.1641695246979653e+00 4.9041426329719497e+00 0 0 0
5 2 4.9579909110712510e+00 9.7878883253171689e-01 4.9621807783239662e+00 0 0 0
6 2 3.8651682416065856e+00 1.6478518720450730e+00 5.8115100645117499e+00 0 0 0
7 1 -2.7951659502078696e-01 6.4302816831678182e+00 5.2431302706402096e+00 0 0 0
8 2 -2.4759182113446543e-01 6.1831574504477773e+00 6.1931942259430874e+00 0 0 0
9 2 -1.0406126896071450e+00 7.0624718271077578e+00 5.2029358605307605e+00 0 0 0
10 1 2.2705759953564177e+00 6.5537241359120237e+00 4.5671659875552937e+00 0 0 0
11 2 1.3801762555451318e+00 6.8922317474292205e+00 4.7816165276442542e+00 0 0 0
12 2 3.0047288831604431e+00 7.3327413317629855e+00 4.6203026018548519e+00 0 0 0
22 1 4.3469759555825016e-01 2.7427784396413375e+00 9.6520308093996317e+00 0 0 0
14 2 5.2201228976135852e+00 5.6551480562879552e+00 8.6913941344506611e+00 0 0 0
90 2 1.3674481095480292e+01 6.9523543228409268e-01 5.1312977304589786e+00 0 0 0
15 2 4.3136991159908593e+00 4.7782226133606329e+00 9.5753803112349285e+00 0 0 0
18 2 5.6275834702006673e+00 5.3331200298352712e+00 1.0694640538573559e+00 0 0 0
290 2 1.6107824904341872e+01 1.1034105194355348e+01 2.8307713393342784e+00 0 0 0
482 2 7.9732592282556469e-02 1.4213197771521816e-01 2.2891103987682713e+00 0 0 0
21 2 1.1046405555814982e+00 2.3960505355870905e+00 1.1717500288599114e+00 0 0 0
146 2 1.7522898868756133e+01 6.4009292620824185e+00 1.3112418135477264e+00 0 0 0
86 2 1.6094455147928606e+01 2.6077414439014446e-01 4.8021910441782412e+00 0 0 0
220 1 4.0241729930542185e+00 1.0629894086604553e+01 3.2891601041711773e+00 0 0 0
25 1 4.7178016745785758e+00 6.5999427768401215e+00 7.0372212836136514e+00 0 0 0
26 2 5.5046505150546334e+00 7.1984453846539989e+00 7.1526164039903923e+00 0 0 0
27 2 3.8541100733707152e+00 6.9475550351921278e+00 7.2907616809750229e+00 0 0 0
28 1 5.9300367698449516e+00 6.2977378540858737e+00 2.4950465560406085e+00 0 0 0
29 2 5.8709980410659117e+00 5.8501805729702117e+00 3.3493612108063839e+00 0 0 0
30 2 5.1830542139085454e+00 6.9794783365505166e+00 2.5917162601447306e+00 0 0 0
31 1 1.3248862119284852e+00 1.4444604852767311e+00 2.6430155785631673e+00 0 0 0
775 1 6.6943677542027560e+00 1.0033584323228109e+01 9.7055487295888572e+00 0 0 0
33 2 1.1282707436041468e+00 1.8165452114747329e+00 3.5721883421389569e+00 0 0 0
34 1 4.5934788997641585e-01 1.2031178346796734e+00 7.2907073552677764e+00 0 0 0
35 2 -3.8249002856903203e-01 8.3837424254070114e-01 7.4653569119735002e+00 0 0 0
36 2 6.7349386031163627e-01 1.7023427075951845e+00 8.1022998653595373e+00 0 0 0
37 1 6.4254862479202819e+00 2.4638243782529043e+00 2.8542317385320368e+00 0 0 0
38 2 5.5038941218344579e+00 2.8659043950730574e+00 2.9422519965854383e+00 0 0 0
39 2 6.9850113273481940e+00 3.2370997254258356e+00 2.9803641809607004e+00 0 0 0
40 1 3.9007550104860291e+00 2.6972039443749929e+00 7.2190280540311944e+00 0 0 0
41 2 4.8610339347704805e+00 2.9410150126356878e+00 7.0438331288301148e+00 0 0 0
42 2 3.3488726917657785e+00 3.5048090674082597e+00 7.1476423230290012e+00 0 0 0
43 1 -3.0365705221977413e-01 4.8743657501530109e+00 7.5978280294030629e+00 0 0 0
44 2 -1.1137430789872418e+00 4.3165742388081698e+00 7.3576367202109685e+00 0 0 0
45 2 -5.2212782200839536e-01 5.1496197138461506e+00 8.5215938145514833e+00 0 0 0
46 1 2.0406485030929535e+00 4.9950960688157382e+00 2.4939026975709742e+00 0 0 0
47 2 1.1306845901906648e+00 4.7164110407210682e+00 2.2797625547587241e+00 0 0 0
48 2 2.0920183965943968e+00 5.7269478252377137e+00 3.2257057240015490e+00 0 0 0
49 1 6.5939226915309872e+00 3.2066516857527732e+00 6.7268074313294699e+00 0 0 0
50 2 6.4170266084638889e+00 3.9377034179823438e+00 6.0496375380085716e+00 0 0 0
51 2 6.8921762551101242e+00 2.4226212524407220e+00 6.2336981629521837e+00 0 0 0
52 1 3.8693608730279458e+00 3.5937092454617448e+00 3.7643974848096708e+00 0 0 0
53 2 3.1162767007054759e+00 3.9577857002576060e+00 3.2915556287347885e+00 0 0 0
54 2 3.7046716042406800e+00 2.6499600132072221e+00 3.9860121367759032e+00 0 0 0
55 1 -5.8901087763706128e-01 4.0559247754328940e+00 3.8109205640181663e+00 0 0 0
56 2 -5.2374220157889106e-01 4.8492005185248868e+00 4.4104663934933637e+00 0 0 0
57 2 4.8982901410682622e-02 3.4075690915704269e+00 4.2189205897943323e+00 0 0 0
58 1 2.1959822911522031e+00 4.4324857407078992e+00 6.3586810507947193e+00 0 0 0
59 2 2.2761966692408429e+00 5.2103763979042474e+00 5.8276136623944268e+00 0 0 0
60 2 1.3230130385463221e+00 4.5780443732872422e+00 6.8058946882686575e+00 0 0 0
61 1 8.6152679619000558e+00 7.1722647161775743e+00 2.0084617788192602e+00 0 0 0
62 2 7.7239737975595775e+00 6.8995780842230667e+00 2.2602471282453562e+00 0 0 0
63 2 8.9375152683464982e+00 6.5025850001317487e+00 1.3908365525383495e+00 0 0 0
64 1 2.2623307106998256e+00 6.9742523864309272e+00 8.2627692881147166e+00 0 0 0
65 2 1.5324514625405214e+00 7.4746798992186951e+00 7.8796115311358390e+00 0 0 0
66 2 2.5914817220945219e+00 7.6757686276795836e+00 8.8708182666368565e+00 0 0 0
152 2 7.5790750458200158e+00 9.0164967843628918e-01 7.7871293156574142e+00 0 0 0
68 2 -2.4608312018822716e+00 1.3130852635126340e+00 8.5304273177404824e+00 0 0 0
32 2 2.1709935015565929e+00 9.2951438385508611e-01 2.6463277256209130e+00 0 0 0
72 2 3.8249044048046996e+00 1.4007084112057904e+00 1.5778642814326438e+00 0 0 0
73 1 5.4996811715920337e+00 5.2639845557505263e+00 4.9382539999218231e+00 0 0 0
74 2 4.9923985119455034e+00 5.6897810483309668e+00 5.7015406782204812e+00 0 0 0
75 2 4.8170965335178053e+00 4.6288810047623645e+00 4.6162160799679572e+00 0 0 0
76 1 1.1428549819096991e+00 2.4279739747584599e+00 4.9754074456218760e+00 0 0 0
77 2 7.8590256470033215e-01 2.2328770405071530e+00 5.9174177105897439e+00 0 0 0
78 2 1.7187172966921584e+00 3.1614381368220377e+00 5.2246369551287088e+00 0 0 0
156 2 1.2143013560173820e+01 3.9788970632730919e-01 2.1766024677757070e+00 0 0 0
668 2 1.2803547096258626e+01 1.9881419925636226e+00 8.9137307164551451e+00 0 0 0
103 1 1.0218520889261479e+01 2.7704043107682668e+00 4.2705531094467630e-01 0 0 0
85 1 1.5403280593584892e+01 9.8461775967405063e-01 4.7998705765149738e+00 0 0 0
87 2 1.5317313916902627e+01 1.4701883207804878e+00 3.9437188931929761e+00 0 0 0
88 1 1.2764443460140415e+01 1.0575987131103601e+00 5.2460831610103087e+00 0 0 0
89 2 1.2631051824148141e+01 1.8238212772688245e+00 4.6496194146348016e+00 0 0 0
13 1 5.2770390685903532e+00 5.0077706967517832e+00 9.4470946240697522e+00 0 0 0
91 1 8.2301726144199172e+00 6.2421839941692605e+00 5.2899517788231387e+00 0 0 0
92 2 8.1161619404443854e+00 5.5590579549321495e+00 4.5360122535457270e+00 0 0 0
93 2 9.1779120790470081e+00 6.5991634700986745e+00 5.1423412124104857e+00 0 0 0
94 1 1.0783572904333393e+01 6.4947566784182174e+00 4.8598843996316923e+00 0 0 0
95 2 1.1359465610220568e+01 7.2511600259865068e+00 5.1715820758711635e+00 0 0 0
96 2 1.1014281349546522e+01 5.6427626985291610e+00 5.3321845355555668e+00 0 0 0
585 2 3.7064308030434212e+00 2.0459558291113273e+00 8.9708164580270839e+00 0 0 0
836 2 1.2571991064168996e+01 9.1192795891451635e+00 9.1844203949033378e+00 0 0 0
80 2 6.7111779575225752e+00 2.0133294821592558e+00 1.0370875263721948e+00 0 0 0
101 2 1.5083332575122542e+01 4.6738698936218794e+00 1.1617750875551245e+00 0 0 0
106 1 9.5599287510090925e+00 2.7667519726618237e+00 9.3856040541781471e+00 0 0 0
190 1 4.5515239273252295e-01 1.0438573174266416e+01 9.6896964551937899e+00 0 0 0
224 2 -9.0705522828014473e-02 1.1277545110899460e+01 4.2173675821836696e+00 0 0 0
165 2 1.6538870552990812e+01 7.4700971528332760e-01 6.1093899001254082e-01 0 0 0
109 1 1.3835990246484030e+01 6.4197538301000323e+00 7.5166784230875718e+00 0 0 0
110 2 1.3891984357641551e+01 5.9185386350883054e+00 8.3610706833919028e+00 0 0 0
111 2 1.2944539781555292e+01 6.7478819624332633e+00 7.5204833038766941e+00 0 0 0
112 1 1.5016509362261086e+01 6.6676212341474734e+00 3.0621375060284750e+00 0 0 0
113 2 1.4282891033645674e+01 7.1230287105683194e+00 2.6086658050189566e+00 0 0 0
114 2 1.5851541603515829e+01 6.9507057055462926e+00 2.6225261973206018e+00 0 0 0
115 1 1.0445358781354518e+01 1.0300506724254790e+00 2.7266001310754309e+00 0 0 0
116 2 1.0442454540516175e+01 1.7604422593670470e+00 2.1086828754935061e+00 0 0 0
521 2 2.1906121245467451e+00 5.2875931301190686e+00 9.0952475330093989e+00 0 0 0
118 1 9.1172108416143782e+00 1.2804497117179163e+00 7.2024607613901592e+00 0 0 0
119 2 9.2069876277291769e+00 1.9573589238842257e+00 7.9049063353361637e+00 0 0 0
120 2 9.1232998840983761e+00 1.6394355545340449e+00 6.3387026359917806e+00 0 0 0
121 1 1.5195758189903339e+01 2.6901674452366282e+00 2.6298563103926522e+00 0 0 0
122 2 1.5880404724239366e+01 3.2722283387714595e+00 2.9798050989078484e+00 0 0 0
123 2 1.5501840436071470e+01 2.2291830775080208e+00 1.8359500373603646e+00 0 0 0
124 1 1.2821849024766152e+01 2.6981066313544582e+00 7.2590709869308991e+00 0 0 0
125 2 1.3782894679954078e+01 2.8881902834097173e+00 7.1118301563350990e+00 0 0 0
126 2 1.2765724328516713e+01 1.9671635237710468e+00 6.6037401505821558e+00 0 0 0
127 1 8.7015813964773390e+00 4.7337776853745979e+00 7.5433970102797492e+00 0 0 0
128 2 7.9615065299752512e+00 4.1260775101507399e+00 7.3757382330133785e+00 0 0 0
129 2 8.4580474165128372e+00 5.4026067023939168e+00 6.8479290682135128e+00 0 0 0
130 1 1.1190080985827153e+01 5.0839666473030922e+00 2.5553073941138145e+00 0 0 0
131 2 1.1708512042886108e+01 4.2755268352062306e+00 2.7286169267531077e+00 0 0 0
132 2 1.1146284571568142e+01 5.5571056869857198e+00 3.3922009992106581e+00 0 0 0
134 2 1.5241207533441122e+01 3.9696794058621525e+00 6.0767539170829910e+00 0 0 0
136 1 1.2743989017381374e+01 3.1729865142577225e+00 3.6229770045508665e+00 0 0 0
137 2 1.3172713432293307e+01 3.8901382678726275e+00 4.1994672008908847e+00 0 0 0
138 2 1.3524476275316596e+01 2.9087828318879998e+00 3.1254889703980706e+00 0 0 0
139 1 8.2506034275157489e+00 4.3045879578949426e+00 3.2275606187497377e+00 0 0 0
140 2 8.9092835392491470e+00 4.7706590172615604e+00 2.6510128018609684e+00 0 0 0
141 2 8.8402996222794581e+00 3.7756454812645708e+00 3.8127661681467848e+00 0 0 0
142 1 1.1071934666831051e+01 4.2830438279091556e+00 6.1349093736258027e+00 0 0 0
143 2 1.1724588015504875e+01 3.7408995233567235e+00 6.5540694724871251e+00 0 0 0
144 2 1.0364803681344537e+01 4.4879118151750594e+00 6.7518291200286349e+00 0 0 0
147 2 1.7078829284778081e+01 7.9375572865891053e+00 1.2652820547535319e+00 0 0 0
148 1 1.1214956100301496e+01 7.2806728724519001e+00 8.0857524650935986e+00 0 0 0
149 2 1.0895364153948904e+01 6.3915144200322223e+00 8.2982624536832308e+00 0 0 0
150 2 1.1403176776772986e+01 7.6641203522809649e+00 8.9433820882939017e+00 0 0 0
167 2 1.1344063514880995e+01 5.7512832803640981e+00 1.1497169493341746e+00 0 0 0
311 2 1.0579966739136404e+01 1.1111867081972033e+01 6.1328838207895160e+00 0 0 0
153 2 6.6073443338120565e+00 1.5631722087065252e+00 8.7390824204833084e+00 0 0 0
236 2 -2.4550070468460916e+00 8.9568221812895281e+00 8.8635455323154364e+00 0 0 0
155 2 1.2997047104413928e+01 1.1517573221008508e+00 1.0589977890837310e+00 0 0 0
217 1 6.7143441857807140e+00 1.0738296946673307e+01 6.4292127366398883e+00 0 0 0
157 1 1.3978798915900494e+01 5.1691441853304907e+00 5.2511632165056552e+00 0 0 0
158 2 1.4513348376637634e+01 5.6655168074379239e+00 4.5585647431677279e+00 0 0 0
159 2 1.3946651467671758e+01 5.7336470183206636e+00 6.0986569752300905e+00 0 0 0
160 1 9.6844903916085130e+00 2.6636684408307381e+00 4.5448787241644517e+00 0 0 0
161 2 1.0408825840710364e+01 3.0610311815934104e+00 5.1010071738133496e+00 0 0 0
162 2 1.0082172190401646e+01 1.9953554649834697e+00 3.9755737285890222e+00 0 0 0
117 2 9.7183867692851447e+00 4.5846923151356722e-01 2.4554148066168535e+00 0 0 0
151 1 6.7680329403786406e+00 6.8588462626140256e-01 8.3444418509012461e+00 0 0 0
248 2 7.8409635109658291e+00 8.1055541059311906e+00 4.3179323605096520e-01 0 0 0
169 1 6.7539311513945357e+00 8.5965753374267990e+00 4.4863534971875643e+00 0 0 0
170 2 7.3668311328138731e+00 7.7772529150903553e+00 4.5255800441869134e+00 0 0 0
171 2 6.7809343233418344e+00 9.0778082304359557e+00 5.3433061169383631e+00 0 0 0
172 1 3.9379527608035740e+00 8.4933782473745545e+00 4.9632085771832690e+00 0 0 0
173 2 3.9667560312200649e+00 9.2032352704714668e+00 4.3298009880312955e+00 0 0 0
174 2 4.7567090089101143e+00 8.0230273620358616e+00 4.7828317521056718e+00 0 0 0
67 1 -2.0678798874929059e+00 5.2729257313467337e-01 8.0458175482481060e+00 0 0 0
753 2 4.0428033570536579e+00 9.3437664559283231e+00 9.3063273882379320e+00 0 0 0
133 1 1.5449828394662187e+01 3.2716797573847112e+00 6.7677608141137986e+00 0 0 0
192 2 6.2110799269001182e-01 1.0026150181466631e+01 8.8332075713209566e+00 0 0 0
199 1 1.4879921096947442e+00 8.8981502684850700e+00 2.6885464638317771e+00 0 0 0
200 2 1.3068218859594669e+00 9.4541443674990724e+00 1.8947721949283616e+00 0 0 0
201 2 7.8142217006034032e-01 8.2018094369545622e+00 2.5755512853361378e+00 0 0 0
202 1 2.8632833969306404e-01 8.8373899414157435e+00 7.6682574015406733e+00 0 0 0
203 2 -5.6824630729976122e-01 8.5508643944773137e+00 7.7209635787738824e+00 0 0 0
204 2 4.3889123145110620e-01 8.9129344781218389e+00 6.6789479557339924e+00 0 0 0
205 1 6.4632903504919765e+00 1.0100717165888961e+01 2.3478195621571132e+00 0 0 0
206 2 6.5529937935956992e+00 9.5037451978318934e+00 3.1752875960715823e+00 0 0 0
207 2 6.7421657841017471e+00 9.4978215627318683e+00 1.5612896987847014e+00 0 0 0
208 1 4.2110121377567111e+00 9.8170013791035160e+00 7.5491821901668938e+00 0 0 0
399 2 8.0327826190508294e+00 2.2874407961997770e-01 1.2308816428011038e+00 0 0 0
210 2 3.9950789179461315e+00 9.2010075464091834e+00 6.8061033374579543e+00 0 0 0
301 1 1.5464514596250670e+01 1.0628149034625213e+01 6.7118877888479123e+00 0 0 0
324 2 1.2770917866286865e+01 7.3529260811502652e+00 1.1084818033776509e+00 0 0 0
274 1 9.3821514836447655e+00 1.0351775905268225e+01 9.3220805472810078e+00 0 0 0
70 1 3.7578204249769351e+00 4.9863516117460249e-01 2.0354952931198831e+00 0 0 0
222 2 3.2237292701302849e+00 1.1060554179864388e+01 2.8057711849248057e+00 0 0 0
235 1 -2.2281459435925757e+00 8.0841401613338881e+00 8.4018882655205296e+00 0 0 0
671 2 8.4687044294836014e+00 5.8698732568853051e+00 8.9405186592816879e+00 0 0 0
238 1 3.9514001330120783e+00 7.9700452285140262e+00 1.7231436361422297e+00 0 0 0
239 2 3.0323851696258735e+00 8.1243906577326239e+00 2.0126370979884030e+00 0 0 0
240 2 4.3040322582270054e+00 8.8397258317533254e+00 1.4363943741535643e+00 0 0 0
244 1 8.2489254938666634e-01 9.8042292933880599e+00 5.0571834724856561e+00 0 0 0
245 2 1.3664694634426475e+00 9.5249411433050479e+00 4.2016588393464023e+00 0 0 0
246 2 1.2908564408747003e+00 1.0526954459683658e+01 5.5543755686932812e+00 0 0 0
83 2 2.4997907613148040e+00 5.3880783630589919e+00 9.1757744630183646e-01 0 0 0
135 2 1.5526347034509126e+01 2.4534711103432794e+00 6.2626598308326145e+00 0 0 0
253 1 1.5693653932999315e+01 8.3677307955181490e+00 5.2343003583900281e+00 0 0 0
255 2 1.5715054020332373e+01 8.6544122204074689e+00 4.2867348087941890e+00 0 0 0
256 1 1.2917346710465699e+01 8.4998126956722491e+00 5.5162413316080858e+00 0 0 0
257 2 1.3825804747251864e+01 8.1963765347943358e+00 5.2850365843014275e+00 0 0 0
258 2 1.2754678331717246e+01 9.2583132170559903e+00 4.9423495728303113e+00 0 0 0
254 2 1.5690776849309835e+01 9.1927620591642878e+00 5.7729788766001580e+00 0 0 0
272 2 1.0013228070550827e+01 1.0104133982803798e+01 1.2785697844356034e+00 0 0 0
304 1 1.3064753857104249e+01 1.0558217229296796e+01 3.7741568505738252e+00 0 0 0
276 2 9.7192457510211661e+00 1.0027132774238170e+01 8.4658106633679395e+00 0 0 0
283 1 1.0557760926003869e+01 8.9266963467485443e+00 2.5866548379951588e+00 0 0 0
284 2 1.0495660333331962e+01 9.2226462824810582e+00 3.5229769879221116e+00 0 0 0
285 2 9.8192878429317005e+00 8.3135542621729055e+00 2.5125111950260699e+00 0 0 0
286 1 9.1321362134505009e+00 8.5364699891748685e+00 6.8904536739508249e+00 0 0 0
287 2 9.8126805515157489e+00 7.9895190157390541e+00 7.3189854823352558e+00 0 0 0
288 2 8.2445868633756909e+00 8.3267599832836545e+00 7.2710734866412601e+00 0 0 0
289 1 1.5611645672706315e+01 1.0190599595823510e+01 2.8284394379227962e+00 0 0 0
486 2 1.1516596775931511e+01 2.3492798295103764e-01 8.8682808715503363e+00 0 0 0
291 2 1.5672077033633530e+01 9.8494041311629790e+00 1.9250376045088879e+00 0 0 0
292 1 1.2938947750585442e+01 9.9915848844080966e+00 7.7311813725756373e+00 0 0 0
219 2 5.9399763636549920e+00 1.0535729061048579e+01 6.9549137244320338e+00 0 0 0
294 2 1.2988664974264687e+01 9.3497348730175105e+00 6.9761050626589087e+00 0 0 0
23 2 1.0299570539804992e+00 3.5271780589010788e+00 9.7312021950368894e+00 0 0 0
584 2 2.9409017196723037e+00 7.0823213113964911e-01 9.3405317130046992e+00 0 0 0
306 2 1.3892001545944899e+01 1.0438507323995630e+01 3.2744028292627800e+00 0 0 0
84 2 3.5482951706853116e+00 6.4669602531121226e+00 5.6617805570205659e-01 0 0 0
319 1 6.7503689778583729e+00 7.9882783291568549e+00 7.9502586640953998e+00 0 0 0
320 2 6.6066146783773920e+00 8.7478094463895086e+00 8.5588676987667771e+00 0 0 0
321 2 7.1469582489024850e+00 7.3632302580414200e+00 8.6015007139170603e+00 0 0 0
322 1 1.3083671326299337e+01 8.1466568874413916e+00 1.5945429850255555e+00 0 0 0
323 2 1.2347355986582325e+01 8.3749075958874908e+00 2.1876597921172518e+00 0 0 0
271 1 9.9414073600551927e+00 1.0373256423942973e+01 3.1419669744008366e-01 0 0 0
328 1 9.9155990828510969e+00 1.0071497597033119e+01 4.9898626901073788e+00 0 0 0
329 2 9.3537678191193994e+00 9.4680911291503023e+00 5.5819842369404382e+00 0 0 0
330 2 9.2493732520887519e+00 1.0633953657472457e+01 4.4593546971170648e+00 0 0 0
305 2 1.2420471728647961e+01 1.0932181194396682e+01 3.1589806029165182e+00 0 0 0
670 1 8.0846914192035300e+00 6.3340654133172940e+00 9.7225122595439437e+00 0 0 0
24 2 -5.1792718856229847e-01 3.0079020922698447e+00 9.7059103560350248e+00 0 0 0
221 2 4.8074279724018920e+00 1.0729715580574613e+01 2.7169144609477098e+00 0 0 0
302 2 1.4606939555582336e+01 1.0417056278938917e+01 7.1985386199168815e+00 0 0 0
189 2 2.1907966195515041e+00 1.0537922929407923e+01 3.6944045587027341e-01 0 0 0
145 1 1.7425550853161063e+01 7.2528204536213270e+00 1.8561341418019597e+00 0 0 0
780 2 1.2848691113361925e+01 9.5868694619021291e+00 4.7216803759069337e-01 0 0 0
237 2 1.5072628726936186e+01 7.7549590204661705e+00 7.7160965072007688e+00 0 0 0
612 2 1.2213981309084961e+01 2.9191841009817412e+00 2.8164461957564385e-01 0 0 0
2 2 7.2362063982846383e+00 2.0054507002114763e-01 5.3027777976994077e+00 0 0 0
331 1 1.6011255093156372e+01 8.9973927385345718e+00 3.1286615454198408e-01 0 0 0
163 1 1.5784804339204312e+01 1.3231456088433977e+00 4.0802459859780843e-01 0 0 0
154 1 1.2876356084044552e+01 2.5880563047441696e-01 1.5361636319825571e+00 0 0 0
166 1 1.1700294638661235e+01 6.1412630195089593e+00 3.5894414992235613e-01 0 0 1
209 2 3.6434221801748592e+00 1.0575562638707497e+01 7.2373124455996400e+00 0 0 0
293 2 1.2358444672045525e+01 1.0639892201276579e+01 7.3614477302243690e+00 0 0 0
523 1 -2.2709015985820304e+00 2.7926659125498730e+00 9.7044575630412844e+00 0 0 0
108 2 8.6341317734334861e+00 3.1098660341597344e+00 9.5254390451662552e+00 0 0 0
187 1 1.2614043830972053e+00 1.0155854997671511e+01 3.7176905666342369e-01 0 0 0
485 2 1.0525300214667061e+01 2.9159150564061159e-01 7.6577919438793058e+00 0 0 0
69 2 1.5070088881243425e+01 2.0559868247984489e-01 7.5024115184677829e+00 0 0 0
99 2 1.2755692430069862e+01 4.5596963070468313e+00 9.7506113465511763e+00 0 0 0
587 2 -1.6195218419263362e+00 6.9650637976468657e+00 9.4038306442492132e+00 0 0 0
583 1 3.5274939393495037e+00 1.4123546155395879e+00 9.7092642169203067e+00 0 0 0
777 2 6.1553365992563194e+00 1.0854331261745230e+01 9.5888879921870682e+00 0 0 0
606 2 1.0370634808777684e+01 4.3591314626674063e+00 9.7140091896125682e+00 0 0 0
524 2 -3.0208665943746027e+00 3.4738951337565651e+00 9.6601098360869369e+00 0 0 0
79 1 7.0630095911117854e+00 1.5260154416564535e+00 2.7852205263961316e-01 0 0 1
667 1 1.2561355391062737e+01 1.4939995643381503e+00 9.7522014168022917e+00 0 0 0
694 1 3.7579839598382194e+00 1.0548386992232935e+01 2.6275511090183656e-01 0 0 1
104 2 9.6010606163939318e+00 3.5528189596791555e+00 2.7826123188304069e-01 0 0 1
518 2 7.5770891246096914e+00 4.8867331994697230e+00 2.7911450615036126e-01 0 0 0
986 2 1.3408571772594767e+01 1.9038020231343150e-01 1.0452370277718071e+01 0 0 0
837 2 1.2143869699735845e+01 9.2381029237087873e+00 1.0702334899949182e+01 0 0 0
247 1 4.7288921298973197e-01 8.6578301053975402e+00 1.9135510202267120e+01 0 0 -1
168 2 4.5180864408702455e+00 6.7503446437159740e+00 1.8867288634415985e+01 0 0 0
574 1 9.1223966184145411e-01 4.9731723548980827e-01 1.1391004482256378e+01 0 0 0
536 2 -2.5069908502134117e+00 3.7214801090142285e-01 1.1626882428571907e+01 0 0 0
107 2 9.5931179304491785e+00 2.0518563425580298e+00 1.0134822008512071e+01 0 0 0
692 2 -2.9259380299581110e+00 1.0899244043106860e+01 9.8757108314767255e+00 0 0 0
537 2 -1.0067254425089520e+00 9.4129800317540380e-01 1.1749371711737158e+01 0 0 0
660 2 9.0662171770187996e+00 8.5311301823896610e-02 1.0838249175896868e+01 0 1 0
81 2 -2.4405205176822964e-01 1.0205140384767035e+00 1.8854168422243198e+01 0 0 0
273 2 4.2454688158346752e+00 1.0603392902583749e+01 1.9062506728302434e+01 0 0 0
621 2 7.6540385205993067e+00 8.9494561431857156e-01 1.2186498214685324e+01 0 0 0
16 1 -8.8166766737574687e-01 4.9002629241714013e+00 1.9186795614457960e+01 0 0 -1
807 2 1.2493640496002879e+01 9.9802825454876753e+00 1.5352525620257737e+01 0 0 0
728 2 -3.4416036874355309e+00 1.1206529392126596e+01 1.3640592242842942e+01 0 0 0
510 2 1.5238163262794790e+00 5.6155156492255909e-01 1.4406072620426201e+01 0 0 0
188 2 -5.3842106036227158e+00 9.4005415678699578e+00 1.8724053175908459e+01 0 0 0
505 1 3.2857944066547624e+00 1.3542480217466304e+00 1.4132717932187179e+01 0 0 0
506 2 3.6355773312098396e+00 2.0150296800184755e+00 1.4817251344755109e+01 0 0 0
100 1 8.4829755864057166e+00 4.5030384118960924e+00 1.9188138865407602e+01 0 0 -1
508 1 6.5858744366583544e-01 1.0328245982677937e+00 1.4575728934344474e+01 0 0 0
526 1 -2.7426736566929377e+00 2.7740901170627952e+00 1.9222538514496158e+01 0 0 0
517 1 1.8914233546570101e+00 4.9799575759940877e+00 1.8959533634952354e+01 0 0 0
511 1 -3.9886269445492015e+00 6.4279153352463689e+00 1.4691321340973451e+01 0 0 0
512 2 -4.0292159954592695e+00 5.6852211909211237e+00 1.4025520466171747e+01 0 0 0
513 2 -3.9291969547062768e+00 6.0740920662454396e+00 1.5582164964612167e+01 0 0 0
514 1 -1.4246322031430485e+00 6.6767930422889075e+00 1.4141408506636132e+01 0 0 0
515 2 -1.1973167675514897e+00 5.9360356583226395e+00 1.4753122599671860e+01 0 0 0
516 2 -2.3857610421635904e+00 6.8545842311849894e+00 1.4313064721006823e+01 0 0 0
833 2 6.8545429638941542e+00 9.4659438604414241e+00 1.3746073377023906e+01 0 0 0
519 2 1.7963710349969144e+00 5.3529282181126163e+00 1.8064058584589464e+01 0 0 0
19 1 -5.4317521769991526e+00 2.7073015528493976e+00 1.9226456029842680e+01 0 0 -1
522 2 2.2594887022884111e+00 5.2076295629273623e+00 1.0715369816730888e+01 0 0 0
509 2 -8.1105165417659997e-02 3.6358898163798253e-01 1.4559149767341772e+01 0 0 0
723 2 4.2446646397619565e+00 1.0927456881462176e+01 1.6471028466471235e+01 0 0 0
525 2 -2.2696005615377057e+00 2.4410489974583189e+00 1.0664901616154278e+01 0 0 0
826 1 9.5257793938769115e+00 8.0435658580472360e+00 1.0962881467673272e+01 0 0 0
527 2 -2.6557264416740338e+00 2.3073527707844308e+00 1.8342123754382627e+01 0 0 0
529 1 1.5743607960159274e+00 6.5575751570569363e+00 1.6680217753317823e+01 0 0 0
530 2 1.6683324548575795e+00 6.0262493523777634e+00 1.5797173736285229e+01 0 0 0
531 2 6.5135705606461158e-01 6.7807605311997214e+00 1.6834130650425127e+01 0 0 0
532 1 2.2249257433914327e+00 6.6552729989935004e+00 1.1958552653436925e+01 0 0 0
533 2 3.1675796119284909e+00 6.9590036290592314e+00 1.1861124795529268e+01 0 0 0
534 2 2.2276289416158246e+00 6.1842067414239610e+00 1.2795175368072213e+01 0 0 0
535 1 -1.9196012047639246e+00 1.0777931553224640e+00 1.1992214769897830e+01 0 0 0
105 2 3.1533200318025250e+00 2.0965957439640337e+00 1.8865333659486886e+01 0 0 0
607 1 6.8430434868852341e+00 3.0286203006254171e+00 9.8806488884666219e+00 0 0 0
538 1 -2.8760980374259164e+00 1.3408110981988777e+00 1.6888778123792235e+01 0 0 0
539 2 -3.7894403933618381e+00 9.8489424428176542e-01 1.7005605383411300e+01 0 0 0
540 2 -2.9298072673881586e+00 1.6703108838869376e+00 1.5930615891372515e+01 0 0 0
541 1 3.1052373669661391e+00 2.9408158944685905e+00 1.2012737496092447e+01 0 0 0
542 2 3.1791225640615703e+00 2.1965291681452825e+00 1.2619648256927476e+01 0 0 0
543 2 3.1146132095198347e+00 2.6013171813247151e+00 1.1082685837661989e+01 0 0 0
544 1 7.7639629258697607e-01 2.9731826616421806e+00 1.6926180512266257e+01 0 0 0
545 2 6.5833158604305364e-01 2.4440489825731113e+00 1.7677187666628129e+01 0 0 0
546 2 6.8524290408547284e-01 2.3730024386261022e+00 1.6168619999388678e+01 0 0 0
547 1 -3.3454965853240091e+00 4.7648962121394538e+00 1.6775835820757493e+01 0 0 0
548 2 -4.1557417083382528e+00 4.1618185986477796e+00 1.6665589119321574e+01 0 0 0
549 2 -3.3985722049644953e+00 5.0238842298995614e+00 1.7691943712082569e+01 0 0 0
550 1 -1.4209700618056020e+00 4.8010947517664952e+00 1.2104080785666749e+01 0 0 0
551 2 -6.3603602958122396e-01 4.2313033537856466e+00 1.2391104335933029e+01 0 0 0
552 2 -1.3096512400721800e+00 5.5664570175728221e+00 1.2774883172287431e+01 0 0 0
553 1 3.2978338302333290e+00 3.3747663017594447e+00 1.6047612629013138e+01 0 0 0
554 2 2.4278859308516232e+00 3.2473351939154718e+00 1.6504728201758304e+01 0 0 0
555 2 3.9764158015105640e+00 3.7897291157402231e+00 1.6636058527678671e+01 0 0 0
556 1 6.9332498503679041e-01 3.3652014244370427e+00 1.3130243659192807e+01 0 0 0
557 2 1.4375696375573392e+00 3.2604052888637756e+00 1.2533633158248895e+01 0 0 0
558 2 6.9023205535102505e-01 2.4649858378615397e+00 1.3496079515670740e+01 0 0 0
559 1 -4.0208603902462414e+00 4.1670065942732029e+00 1.3074828176711488e+01 0 0 0
560 2 -3.3959817954167377e+00 4.5330518580756793e+00 1.2405901301627473e+01 0 0 0
561 2 -3.4821300783105902e+00 3.5807535144615947e+00 1.3652708769125272e+01 0 0 0
562 1 -1.0907243599327066e+00 4.5351681815950453e+00 1.5596743208315058e+01 0 0 0
563 2 -4.5655298020818691e-01 4.2437294449676992e+00 1.6218279504857229e+01 0 0 0
564 2 -1.9734028488297697e+00 4.6072941758181809e+00 1.6070124289541852e+01 0 0 0
565 1 4.9212543984905457e+00 7.1292982552116451e+00 1.1414446274515601e+01 0 0 0
566 2 4.4684253167395855e+00 7.5305789790712820e+00 1.0660922437115401e+01 0 0 0
567 2 5.1277894719559622e+00 6.2958784850389549e+00 1.1064660902123881e+01 0 0 0
568 1 -9.3493052992739578e-01 6.9035529047156095e+00 1.7557068267650134e+01 0 0 0
569 2 -1.1215935173753238e+00 6.0872963651889398e+00 1.8034054549816581e+01 0 0 0
570 2 -5.8917946879280336e-01 7.5219853060784256e+00 1.8259030114879049e+01 0 0 0
805 1 1.2477407894154414e+01 1.0890678208659914e+01 1.5672373377012265e+01 0 0 0
572 2 -5.3261026017830826e+00 1.4495032344382874e+00 1.8366992211799300e+01 0 0 0
832 1 6.5065608842870866e+00 1.0033214815036963e+01 1.4407039573711955e+01 0 0 0
333 2 8.6859516889233923e+00 8.4446631206489329e+00 1.9031320948783403e+01 0 0 0
576 2 8.0252451482945641e-01 1.3799039304252696e+00 1.1027699589937717e+01 0 0 0
577 1 2.1070953673577417e+00 5.2493842600292933e+00 1.4440280895207035e+01 0 0 0
578 2 1.3448860946595804e+00 4.6726754600642462e+00 1.4150382081172305e+01 0 0 0
579 2 2.7034355680286124e+00 4.7293497978255479e+00 1.4965547604667433e+01 0 0 0
580 1 -2.5098012834883683e+00 2.1971523423264339e+00 1.4428818905781219e+01 0 0 0
581 2 -2.0918663295646311e+00 1.5999212034674484e+00 1.3763721101973976e+01 0 0 0
582 2 -1.8169975137739804e+00 2.8180091022444245e+00 1.4707175890375918e+01 0 0 0
823 1 3.7053191864930941e+00 7.7146071830955005e+00 1.7973680601595916e+01 0 0 0
588 2 -1.4582623539995525e+00 5.7508355924058661e+00 1.0597898146630172e+01 0 0 0
589 1 1.2170223359329210e+01 1.3307003599853497e+00 1.4478585032204943e+01 0 0 0
590 2 1.1145409400894071e+01 1.2439951483191034e+00 1.4682693458978468e+01 0 0 0
591 2 1.2474288167494615e+01 2.1128508577500065e+00 1.4960062479385790e+01 0 0 0
592 1 9.6073555222451432e+00 1.3797278784813625e+00 1.4612322816809153e+01 0 0 0
724 1 6.5250070468862376e-01 1.1046677019402706e+01 1.2781284407946567e+01 0 0 0
594 2 9.3229832108862460e+00 2.0086454924181583e+00 1.3981459266244190e+01 0 0 0
595 1 4.8337511480368169e+00 6.1322234733586711e+00 1.4614481594485113e+01 0 0 0
596 2 4.9510968692456272e+00 5.7428960001885203e+00 1.5501897138341967e+01 0 0 0
597 2 4.8280220174753481e+00 5.4256103724884195e+00 1.3875301741506743e+01 0 0 0
598 1 7.6858435300835506e+00 6.4818150022784691e+00 1.4595745199684973e+01 0 0 0
599 2 6.7173381532613279e+00 6.5927119785512538e+00 1.4777163043973040e+01 0 0 0
600 2 7.7371392771183878e+00 6.0616206728194602e+00 1.3671848561447881e+01 0 0 0
332 2 9.7173920501219442e+00 9.2607770650066072e+00 1.8405780578405789e+01 0 0 0
603 2 1.0945757046626543e+01 5.5563379142462122e+00 1.8172943115891769e+01 0 0 0
571 1 -5.3960642627850790e+00 5.5157522416089477e-01 1.7867764639243418e+01 0 0 0
605 2 1.0798140482017903e+01 5.5500713753994582e+00 1.0708062116650213e+01 0 0 0
604 1 1.1000714106054144e+01 5.1121394689275785e+00 9.8294672856609999e+00 0 0 0
798 2 9.8043609797154190e+00 9.5569723754207168e+00 1.6044339944969153e+01 0 0 0