LAMMPS data file via write_data, version 8 Apr 2021, timestep = 1655000

3072 atoms
2 atom types

0.048568353477715036 30.091625646521358 xlo xhi
0.17972683053744462 28.160739169454235 ylo yhi
0.13492329943218992 27.27652170056268 zlo zhi
9.970917456170369 10.1136607372584 7.075414241947933 xy xz yz

Masses

1 16
2 2

Atoms # atomic

1 1 7.482725423958045 5.428927401463281 4.266401672231531 0 0 0
2 2 6.763244765281898 4.847683249747189 4.005365008973049 0 0 0
3 2 7.084986425682898 6.295369961137203 4.5473259909758434 0 0 0
4 1 9.987041666708384 7.172835408263544 10.903861062704163 0 0 0
5 2 10.517299014382054 6.968563751701837 11.6785469006439 0 0 0
6 2 9.766816718413384 8.121889218787695 10.949920578993247 0 0 0
7 1 9.866604767304173 12.294111986095043 4.222237331818669 0 0 0
8 2 10.461719959089137 11.884829372414824 4.869518608301656 0 0 0
9 2 9.627611066417453 13.109331708334562 4.731224342120006 0 0 0
10 1 12.345902009358921 14.210509009019681 11.032085225000088 0 0 0
11 2 13.050873029948141 14.136774355886253 10.36138211358243 0 0 0
12 2 11.664172313382581 13.624125784410921 10.631563182331636 0 0 0
13 1 14.817985225429346 5.048380775937263 4.218727425073081 0 0 0
14 2 15.384317123021626 4.655347341499958 4.904741615276859 0 0 0
15 2 14.4212153207687 5.8678085043079635 4.593313385456087 0 0 0
16 1 17.563495852751686 7.1329444431204 10.965305325861445 0 0 0
17 2 17.910574660735282 6.457268618615783 11.553662429227936 0 0 0
18 2 18.27101171217765 7.389406004420079 10.43335503311129 0 0 0
19 1 17.37446673975717 12.332065538289545 3.9930946521343316 0 0 0
20 2 18.131013271496528 12.534529014404779 3.428891665669048 0 0 0
21 2 17.875005565315224 12.046234393154418 4.835778083037104 0 0 0
22 1 19.978031549013085 13.807279622012622 10.760007602477668 0 0 0
23 2 20.6984759638302 14.17711289284089 10.17599406477953 0 0 0
24 2 19.49066001162733 14.576787801668578 11.096515671042571 0 0 0
25 1 11.459787134059571 8.290265863585514 6.284075364195966 0 0 0
26 2 10.736235733628078 8.774898907316356 5.859852964960873 0 0 0
27 2 11.037172621176923 7.669422653136247 6.924546437431577 0 0 0
295 1 8.256503611124002 14.024327575992647 2.3243371371933335 0 0 0
29 2 14.489090702871561 9.302646548750818 12.359009684494348 0 0 0
869 2 13.029733581090483 20.907806421404207 13.527578562406497 0 0 0
1023 2 20.41846146967858 19.014712790998605 0.606553767174631 0 0 0
993 2 13.21469809852939 22.61369384026925 1.2516506213252634 0 0 0
32 2 14.385327313333727 14.847322085338408 5.648791943887096 0 0 0
38 2 18.33847189488931 8.776946580534284 5.712367515526386 0 0 0
87 2 8.448822325668846 1.2616185424578383 1.6968257260610258 0 0 0
275 2 14.117076786317224 15.57241883727232 9.138938712808125 0 0 0
172 1 11.66184574483124 6.422392831736445 12.915348315317603 0 0 0
49 1 5.185134903647669 3.8367126313288504 2.922422412111232 0 0 0
50 2 5.434574577135324 2.91554276296639 2.8503383115491228 0 0 0
51 2 4.47096096880799 3.6943533932150254 3.618289340083628 0 0 0
52 1 7.858077615107478 5.799225737154172 9.812711693443937 0 0 0
53 2 7.432705560659655 6.303850765037565 9.080795102242629 0 0 0
54 2 8.651520728274905 6.330786050103749 10.117912521512023 0 0 0
55 1 7.594218361937397 10.884463124623382 3.035650648655531 0 0 0
56 2 7.937498287134872 9.970114675125458 2.842356359180015 0 0 0
57 2 8.269013428059685 11.430675520978763 3.510504547861664 0 0 0
58 1 10.399572106485438 12.652245200378509 9.913520078059108 0 0 0
59 2 9.852980023225056 13.151047488607094 9.23111384418473 0 0 0
60 2 10.497572197725832 11.815784461376156 9.429080089189029 0 0 0
61 1 12.829782304609932 3.491049906939934 2.909743555774226 0 0 0
62 2 13.268746077920758 4.103002556099643 3.5286396569943115 0 0 0
63 2 12.559878071252207 3.969046960363811 2.1459539907705385 0 0 0
64 1 15.28283930212862 5.427406718901255 9.701038802994857 0 0 0
65 2 16.14234885428559 5.827256233593028 10.029582715071092 0 0 0
66 2 15.510367104385827 4.553894795201574 9.265669963750266 0 0 0
67 1 15.504493829493068 11.019682776514555 2.868719325114145 0 0 0
68 2 16.369651931922352 11.389299911882405 3.181593745449021 0 0 0
69 2 15.746898362424668 10.306734270205922 2.303655928416991 0 0 0
70 1 17.699582415957263 12.576296628404661 9.773502657097682 0 0 0
71 2 17.322213039670732 13.112390504970367 9.083005996935853 0 0 0
72 2 18.491280105582913 12.975364460549242 10.096242971415217 0 0 0
121 1 3.0815058036462895 2.939414505019859 4.463562727453432 0 0 0
229 1 13.32753001321453 1.0441461982312326 1.420877442128319 0 0 0
84 2 7.105436469892972 9.374883160139927 7.837053679365116 0 0 0
338 2 4.779292335413067 5.607546788842595 4.985456464460622 0 0 0
310 1 18.375527442225245 15.60696113335846 8.386705688905572 0 0 0
90 2 11.290263493888492 3.169648613216075 6.8194692017384595 0 0 0
94 1 13.373212126963177 9.614620420146478 7.376512955067334 0 0 0
95 2 14.13164256920298 9.15738316848374 7.82815964524439 0 0 0
96 2 12.811990260783789 8.94815903198043 6.996863515150747 0 0 0
97 1 5.405222607785215 4.441583971345366 6.273357236899472 0 0 0
98 2 5.680089906745449 5.19519090116367 6.833225040760257 0 0 0
158 2 14.748682551267011 2.2912304696020604 6.138216685664275 0 0 0
101 2 7.649064613434638 6.96789360795179 12.101373666866126 0 0 0
102 2 8.518238858229346 5.699341943629667 12.571397287093893 0 0 0
103 1 7.858437018300689 11.692433267919123 6.267586483847775 0 0 0
104 2 7.280389294796929 12.311187938121254 5.795070176257177 0 0 0
105 2 7.330541038566342 10.936991938017627 6.6841480538725 0 0 0
108 2 10.874253803944056 12.709061913508698 12.719338871997335 0 0 0
109 1 12.54179968282807 4.479968415583825 6.187406697450201 0 0 0
110 2 13.144999796065042 3.7807672102243197 5.9857903526458 0 0 0
111 2 12.438626483639478 5.010565222695075 5.385853271447178 0 0 0
318 2 5.710139569377252 7.258177187297546 8.134153217715326 0 0 0
115 1 15.432768352463622 11.278473554820355 5.998992704633609 0 0 0
116 2 14.610336108461075 10.952266102143764 6.361556927117696 0 0 0
117 2 15.764554797752089 11.94712667082111 6.595849662113894 0 0 0
118 1 17.808932040639885 13.609478379952764 13.053318504442968 0 0 0
120 2 17.218500607059497 13.859468377957258 12.31391597494718 0 0 0
367 1 9.482074432136281 14.782111015158677 5.405775527829148 0 0 0
124 1 5.381720383025776 4.935135076298419 11.139667745050325 0 0 0
125 2 6.139042434511269 5.423347300242328 10.778403299743275 0 0 0
208 1 18.383991735130312 4.068360906416333 9.5589382536492 0 0 0
31 1 13.974522941461625 15.310468585861098 6.423016132441721 0 0 0
129 2 6.201758430483889 10.49010217140332 4.059672695494864 0 0 0
132 2 8.862160783752975 12.476654133058142 10.99119556169861 0 0 0
133 1 10.556025273714704 2.9190486814677223 4.35880314165272 0 0 0
135 2 11.239915499779329 3.2814611094750745 3.7488207690746207 0 0 0
136 1 12.92310747753409 4.654128310624962 11.212051200510775 0 0 0
137 2 13.730356130710856 5.080610122143776 10.788910882022163 0 0 0
138 2 12.593761556053844 5.438821616236846 11.730590111206345 0 0 0
139 1 13.497198549953886 9.518004234686998 4.127795427179714 0 0 0
140 2 14.217532690179802 9.809725633297433 3.5794968780868635 0 0 0
141 2 13.934483447202505 8.89324078088281 4.733253678309037 0 0 0
142 1 15.752253423567165 11.953347883192901 11.166524731678118 0 0 0
143 2 16.502417559401902 12.316107432425023 10.613006172647504 0 0 0
144 2 16.05526530271561 11.07238573141462 11.431882438829149 0 0 0
147 2 6.485618423125016 2.946894544376637 5.9905713074826625 0 0 0
379 1 17.267371909343165 14.69239415863516 5.196055648493602 0 0 0
149 2 9.688755757616082 4.264511497607509 11.19703504603875 0 0 0
151 1 9.23700881153534 9.156893773377977 4.935956277370842 0 0 0
152 2 8.942834170924568 9.97645186124105 5.298011757369373 0 0 0
153 2 9.710213114191044 9.409747729281266 4.109375831975902 0 0 0
154 1 11.95492651779156 11.254890626612449 11.830653795021519 0 0 0
155 2 11.252303566564096 10.542934675278136 11.83295028347175 0 0 0
156 2 12.273472066881997 11.400671200133738 10.927854035642456 0 0 0
157 1 13.95842063449347 2.156201609199835 5.606808352531926 0 0 0
123 2 3.5966030395522983 2.2975249653429217 4.976065653716218 0 0 0
159 2 14.319848948291089 2.095063673128642 4.693003819691798 0 0 0
160 1 16.773941330202256 3.8811871692041695 11.719828879535253 0 0 0
161 2 16.287776947625463 4.568061804694339 12.20978934988341 0 0 0
163 1 16.846919195100174 9.217112234760572 5.053765708310827 0 0 0
164 2 16.35769667084194 10.036319411357333 5.288531289432466 0 0 0
165 2 17.074898876243857 9.327503654930894 4.088345789375045 0 0 0
166 1 19.234398034956946 10.984727584142812 12.27090983556751 0 0 0
167 2 18.99220733511458 11.801834925130313 12.738338981061373 0 0 0
168 2 19.5063022314975 11.265552512779681 11.342794089041725 0 0 0
169 1 9.141239964367461 4.625966390211642 6.062745454498324 0 0 0
170 2 9.741149894542344 4.009995007123934 5.522389067585642 0 0 0
171 2 8.414510147503684 4.779203490100231 5.420438847623971 0 0 0
127 1 5.422302409916892 10.050058954642846 4.425007034012377 0 0 0
175 1 11.567140830180625 11.523632241584478 6.076874682580757 0 0 0
176 2 12.366870570679446 11.31165685257556 5.620279684871599 0 0 0
177 2 11.74504084707338 12.438153831812524 6.491144282622869 0 0 0
178 1 14.11920262439483 13.206270409403706 12.756209711021915 0 0 0
179 2 13.37657898725371 13.318388893464563 12.132693477279993 0 0 0
180 2 14.756616934252998 12.73091275318946 12.208783570696049 0 0 0
181 1 16.514243722517303 4.073506437210126 6.166039693747788 0 0 0
48 2 23.590552517087307 16.19868299711116 13.429975854619164 0 0 0
183 2 16.85609202197156 4.837135997627087 6.632421089812247 0 0 0
184 1 18.888022835404826 5.743203314938099 13.183910548208445 0 0 0
187 1 18.760452546791416 11.437344724282614 6.197890584186265 0 0 0
188 2 18.27872448047592 10.865024375976171 6.813683976938846 0 0 0
189 2 19.234211585798136 12.13580430057853 6.67885539886298 0 0 0
241 1 7.579754887179901 4.534366411903883 0.84382347570996 0 0 0
192 2 21.12540084205023 13.298454145505339 12.425103127593232 0 0 0
193 1 8.343175161398495 2.343187626898161 2.8544682700871964 0 0 0
194 2 7.867024518123307 2.2226310299223493 3.669531383845156 0 0 0
195 2 9.280398005841851 2.3399294853729655 3.222000179106636 0 0 0
196 1 10.709283770919212 4.561460175399923 9.677007809792363 0 0 0
197 2 10.73149449841032 3.851915987156162 9.032737898868547 0 0 0
198 2 11.544548253483564 4.456518079463617 10.163154631067442 0 0 0
199 1 10.88976889133979 10.004732933979307 3.0564059675668234 0 0 0
200 2 10.889941414520973 9.328046310866236 2.3203187974498416 0 0 0
201 2 11.83448319365757 9.917404874312078 3.386505367164784 0 0 0
202 1 13.40442676298493 11.791762156738447 9.446783063530752 0 0 0
203 2 14.196512703474337 11.807529955252202 10.017591130801543 0 0 0
204 2 13.535303381352637 11.032697070431485 8.902596691028515 0 0 0
205 1 15.637262441149634 2.357699922823088 2.507542552062806 0 0 0
209 2 17.68103235048815 4.030343153724823 10.239460478311203 0 0 0
213 2 18.20283940262122 10.471826760788664 1.9773545059289142 0 0 0
128 2 4.6876964742119425 10.107723474427557 3.7802792995929155 0 0 0
960 2 25.706423563872693 27.550996525088777 12.433836919636951 0 0 0
30 2 13.484303757709162 10.469661979515125 12.589528980305833 0 0 0
319 1 6.139068207920184 11.931611530340971 0.8879047111826301 0 0 0
221 2 7.932535710423257 4.261728026952997 8.87821090974501 0 0 0
222 2 8.081887746745158 3.573877753903665 7.486681518322119 0 0 0
223 1 7.841265507717063 8.383133074536163 1.9378723429291194 0 0 0
224 2 8.464094331189292 7.749525240180478 2.2529693179200145 0 0 0
225 2 8.16597887050293 8.719623979844563 1.1156436334667374 0 0 0
226 1 10.741659357583655 10.231516118560425 8.639635706348171 0 0 0
227 2 11.422797348709425 9.533140393985688 8.917813353185467 0 0 0
228 2 11.066284220353245 10.539255795795482 7.774276572547309 0 0 0
231 2 13.43157132031701 1.7906399118104899 2.0069835825073965 0 0 0
234 2 16.071270508585627 3.2939366631709666 7.595989442763316 0 0 0
235 1 15.444822775784303 8.53407250864734 1.5468729892802597 0 0 0
237 2 16.10281211690175 7.921542065130145 1.8668346862864684 0 0 0
238 1 17.86090271684355 10.056367573347961 8.781315374059536 0 0 0
239 2 18.602571410155647 9.577441440496564 9.144821985033767 0 0 0
240 2 18.005807269057165 11.031339944997473 9.009382436242321 0 0 0
242 2 8.071565959354738 3.886603309723887 1.3731351367021123 0 0 0
243 2 6.832414740728792 4.8582464852840985 1.4203001019067931 0 0 0
244 1 10.171474601199733 6.489181914088196 7.8467084392848045 0 0 0
245 2 10.336835369917944 5.979810900366583 8.657666836580239 0 0 0
246 2 9.76730688479387 5.767167011124329 7.29529964034532 0 0 0
247 1 10.023579755468596 12.052418348196227 1.1874513809136276 0 0 0
248 2 9.456513109360346 12.757920066738173 1.5828127861581223 0 0 0
249 2 10.205291282169927 11.537270299126273 1.9941198041755261 0 0 0
250 1 12.222633987370662 13.690768360036524 7.690441691221951 0 0 0
251 2 12.860340192096812 13.40537826403594 8.38342647145228 0 0 0
252 2 12.731660915483188 14.210980008100995 7.044273600215052 0 0 0
253 1 14.813207375399307 4.506750060165258 1.081200900851644 0 0 0
254 2 15.06430016277777 3.7001711366243875 1.640286099175668 0 0 0
255 2 14.119613778821218 5.1497372773668 1.428194310456189 0 0 0
256 1 17.433348589150427 6.5238179521571835 7.499219281377703 0 0 0
257 2 17.88830839583216 6.100823664730421 8.244438909187574 0 0 0
258 2 16.754315239081176 7.113964956755975 7.87165635858801 0 0 0
260 2 16.606850813194683 11.973603031658978 0.6754602023672424 0 0 0
262 1 19.93542196444109 13.34677865165297 7.448657626524103 0 0 0
263 2 20.270245237933477 13.068812589400993 8.38206165479485 0 0 0
264 2 20.69602859821636 13.894917675950422 7.147324621670961 0 0 0
265 1 9.538284389536384 6.2837143566202815 2.4857145531655314 0 0 0
266 2 8.847368933615048 5.734172222400952 2.8757383123695166 0 0 0
267 2 10.101936135014602 5.810759623230223 1.823584547291794 0 0 0
268 1 12.28565564285058 7.940817577165696 9.73356574424176 0 0 0
269 2 12.645956591963763 7.300801354578905 9.005404314977236 0 0 0
270 2 11.418071476951917 7.541299127897357 10.062806099865474 0 0 0
271 1 11.924472411087855 13.464312534093896 3.125884609117261 0 0 0
272 2 12.674624064036259 13.292033395134776 3.7017960167685624 0 0 0
273 2 11.206786347405014 12.901127112265037 3.3929065703354704 0 0 0
274 1 14.507064603501748 14.753164385745016 9.49026770665916 0 0 0
99 2 4.676233161162082 4.092762503226626 6.7522551244171645 0 0 0
276 2 15.250368478353058 15.00270070989714 10.08318366397234 0 0 0
278 2 16.196048766131856 5.705401645910147 3.243462266117165 0 0 0
212 2 18.54191380877 8.961028896192449 1.8038262174022515 0 0 0
283 1 19.544749158807523 13.053897657520851 2.690401627370631 0 0 0
289 1 5.634968973877291 6.4636089856930905 1.7570674069293193 0 0 0
290 2 5.358995796139166 6.273432326995558 2.69873846901807 0 0 0
291 2 6.262659407477377 7.207669579162355 1.9066247175856348 0 0 0
292 1 8.592817322735437 8.826656835631304 9.026850243409362 0 0 0
293 2 8.96636236025773 8.055145526809245 8.50144760676185 0 0 0
294 2 9.37937601160517 9.410127526355682 8.914770674982478 0 0 0
214 1 20.47574357500544 11.294144038112979 9.70625113783193 0 0 0
296 2 7.634315170191083 13.894082828153524 3.1272433856201998 0 0 0
298 1 10.766523553036144 15.769424067747442 8.664615115078059 0 0 0
299 2 11.148838748119825 14.934740764816084 8.365660265235553 0 0 0
301 1 13.303360689504396 6.811016142131973 1.9255023027106508 0 0 0
302 2 12.97118307621934 6.760766741683353 2.854122689873761 0 0 0
303 2 14.077572622777788 7.428944221992213 1.9590397634872612 0 0 0
304 1 15.773009776642635 8.344036794514436 8.626125355695088 0 0 0
305 2 15.44351794462296 8.231197002017778 9.552137814289532 0 0 0
306 2 16.280171117639778 9.190514751394984 8.539920631842824 0 0 0
307 1 15.785178501917587 13.911091644280615 1.9592208089014607 0 0 0
2630 2 21.489744729063894 22.7593421684637 13.613311000478367 0 0 0
134 2 10.997295556086819 2.1133003395295127 4.634944539017281 0 0 0
311 2 18.72844356126236 14.881618081667144 7.827503597063489 0 0 0
315 2 4.369118898230852 4.306630162255014 1.4000009804630515 0 0 0
316 1 6.374941236794511 6.6665863652955535 7.690794967556299 0 0 0
317 2 6.596944737017656 7.188694244054622 6.921254804166643 0 0 0
321 2 6.6725850153839295 11.413001014687763 1.48837380835912 0 0 0
322 1 8.79748718324788 13.548971946232454 7.958681435965067 0 0 0
323 2 8.233827847251751 14.177010264366203 8.457157980156056 0 0 0
324 2 8.238731102854516 12.90169886717337 7.429482478894984 0 0 0
325 1 11.300704601248112 4.68872593946078 0.9825841027194488 0 0 0
328 1 13.524758086787259 6.33720200139754 7.977375416738008 0 0 0
329 2 13.192988735324427 5.603937943147825 7.469150621327023 0 0 0
330 2 14.140084114853112 6.066404163185894 8.686510122036719 0 0 0
76 1 3.4672973853578437 2.789453298805939 7.5558850884232855 0 0 0
332 2 12.754186058715007 12.42090260598896 1.6046136839598413 0 0 0
333 2 14.28079407028782 11.85877034488638 1.902469637938373 0 0 0
334 1 16.164094891806812 13.583168623673757 7.626756977077587 0 0 0
335 2 16.46977425255318 13.969912419863642 6.792656239760179 0 0 0
336 2 15.496504326355991 14.199836660833055 8.009763393203238 0 0 0
340 1 6.776281400561698 8.494514823856644 11.049399434356932 0 0 0
342 2 7.451173480123862 8.72482342664567 10.371808312837635 0 0 0
343 1 6.589620437487051 13.486532405648664 4.376486832606099 0 0 0
337 1 4.441081773706147 6.286986883327597 4.366351454924768 0 0 0
346 1 9.403849273134561 15.40016972257132 10.943666559700189 0 0 0
347 2 10.124303204249397 15.513479156767943 10.28494845339103 0 0 0
348 2 9.766210227942887 14.847538139717381 11.65342293204087 0 0 0
349 1 11.894143478913575 6.310921235358417 4.253733294653506 0 0 0
350 2 11.902876235430275 7.068763095221193 4.953621360079838 0 0 0
351 2 11.051969529863365 6.167589850139045 3.8261864598034387 0 0 0
352 1 14.555114605420842 8.037382200265755 10.989602022785046 0 0 0
353 2 14.819794085480195 7.215989634983053 11.419181173206484 0 0 0
354 2 13.60568925302834 7.919096922804812 10.639574046939718 0 0 0
355 1 14.366029702115194 13.410026197787314 4.189591431030146 0 0 0
356 2 14.795138539726679 12.609421270198643 4.560031143885817 0 0 0
357 2 15.044472306764545 13.651993358549483 3.5161447731609763 0 0 0
358 1 16.71097529916221 15.397451760121912 10.725163228240165 0 0 0
359 2 16.81560528975512 16.126470206231133 11.341811773090901 0 0 0
360 2 17.45452564459732 15.452609267449093 10.143820079878282 0 0 0
361 1 6.8282696628714215 8.030148662163679 5.376362887229532 0 0 0
362 2 6.135376300879037 8.634998617246142 5.003704934443452 0 0 0
363 2 7.72117647251095 8.30261488575893 5.086898499890775 0 0 0
364 1 9.667177514355163 9.70435949221868 11.739466957468714 0 0 0
365 2 9.021381640048189 10.476381638315969 11.55865418555115 0 0 0
366 2 9.388461992542954 9.308434001585011 12.580244791508356 0 0 0
211 1 18.53074867993949 9.707915069865447 2.4417435259757196 0 0 0
369 2 9.280268860797934 14.464097875942292 6.328620109563451 0 0 0
952 1 23.769992326280878 20.1990284776942 12.990658572391434 0 0 0
126 2 5.840021810390127 4.221259284064582 11.687917381470255 0 0 0
372 2 12.305020666713691 15.622740020984532 11.791873775604408 0 0 0
373 1 14.595357128523824 7.489628756246417 5.43328830908221 0 0 0
374 2 15.504162427549833 7.807082231339563 5.602331361511157 0 0 0
375 2 14.212947894944923 7.271214277201383 6.3212340918844 0 0 0
376 1 17.10958733114322 9.312399445029454 12.315477980435336 0 0 0
377 2 17.972315877449052 9.75089750294915 12.307461680012398 0 0 0
378 2 17.26715302978355 8.57670638147054 11.71845877475292 0 0 0
130 1 8.093518598838463 11.997128466876795 11.373030031617576 0 0 0
381 2 17.020839824213024 13.920723330760952 4.635522117482618 0 0 0
382 1 19.37053661165247 16.238918226533507 12.025752226402284 0 0 0
148 1 9.520953722421567 4.151649248460249 12.13929208495826 0 0 0
297 2 7.623265168567699 14.19641854597706 1.622412706379256 0 0 0
220 1 7.890468055901298 3.3761928422894845 8.425909556790133 0 0 0
112 1 15.527567980678763 6.039377552175533 12.691274716767067 0 0 0
28 1 14.255564398520104 10.02359798025572 13.035059563823792 0 0 0
232 1 15.562565651723945 3.091799633191184 8.381498766532166 0 0 0
114 2 14.74227522334547 5.714599963438143 13.205318220566287 0 0 0
286 1 22.184497237419087 14.832398570991664 9.153736821641592 0 0 0
119 2 17.265190456543927 12.989419616886828 13.557185248123044 0 0 0
1566 2 8.737708101490577 5.844119199898141 0.34653197633752336 0 0 1
370 1 12.037630652163484 16.519434811511296 12.223263280165888 0 0 0
422 2 4.236778284160403 7.699152385284205 5.509748214407669 1 0 0
384 2 19.254988045238715 16.062958820715675 13.002645358160347 0 0 0
217 1 5.703918069108495 1.112886969611329 2.1540961203870177 0 0 0
43 1 21.67417120501286 15.13370218517144 6.121624595064862 0 0 0
218 2 14.815215439244742 28.650970949582874 2.2639064675826033 0 -1 0
85 1 8.608716895354853 0.6384410918023546 0.9397071304316496 0 0 0
1022 2 19.659757658694343 17.710245719583604 0.3056698525839273 0 0 0
855 2 13.042868460691556 14.590228609773702 0.32173665983963057 0 0 0
811 1 26.581340025506396 29.120656477902862 6.292561020399957 0 0 0
978 2 23.514014863200266 17.72253403120599 8.802642954018692 0 0 0
145 1 6.730833900105485 2.155550155903185 5.459763730751929 0 0 0
1016 2 15.349456818826608 26.328076291068967 0.529953476834357 0 0 0
288 2 21.906423420482824 15.637800075625027 8.752113398864866 0 0 0
309 2 16.50854012779696 14.563755804684225 1.8780893832414713 0 0 0
371 2 12.885649469755663 17.066523921303705 12.277330567679842 0 0 0
888 2 22.167688306150556 26.502777579976936 13.37860562523648 0 0 0
88 1 10.945259462848274 2.5705010470932677 7.521352158321574 0 0 0
106 1 10.208657933667551 13.344041898000615 13.02067968651958 0 0 0
959 2 27.181358060881088 26.922156318897958 12.527337952381135 0 0 0
1068 2 16.52793521819087 30.052261784226353 8.53367294479018 0 0 0
314 2 3.3310132126686454 3.8771201924154726 0.3555168079333525 0 0 0
282 2 20.311247787733294 8.153261606249282 10.107551325729395 0 0 0
277 1 16.789426527609848 6.306509170168592 2.7239314661646232 0 0 0
236 2 15.484857054194622 8.533182275389143 0.6004773189843716 0 0 0
953 2 24.204990123424942 20.998963428220463 13.367027771150054 0 0 0
82 1 6.34719144532404 9.894886569761491 7.5132412326838365 0 0 0
86 2 8.978996571756653 1.243429046705644 0.2524466973611586 0 0 0
150 2 10.331049279861073 3.711199965921445 12.454549741140934 0 0 0
91 1 11.100284277825335 8.133802336677764 0.9014696054158927 0 0 0
259 1 17.47314983232963 11.644007462382582 0.5111214006186997 0 0 0
796 1 19.26930199762945 23.983107383473477 13.070559568209807 0 0 0
36 2 16.073609509871748 16.397345107440838 13.58016950094009 0 0 0
190 1 21.725466170513332 13.215218546866081 13.233939578881358 0 0 0
1009 1 12.407460803041529 18.684937234989587 1.04711827227194 0 0 0
383 2 20.15023636751693 16.84311723541254 11.97926941133514 0 0 0
107 2 10.540003131581495 13.963916922021985 13.68738304392531 0 0 0
894 2 10.95515277885492 17.918463058060144 11.50807941165076 0 0 0
1116 2 13.877886346150955 29.763731230604638 11.71782291016656 0 0 0
93 2 11.778988451057556 7.536970296380701 1.1558273237051344 0 0 0
207 2 15.83944695216898 1.6677784461377043 1.84255323958335 0 0 0
37 1 19.052730784896987 8.258065301297352 6.124351244743584 0 0 0
100 1 7.957129734299136 6.45734888275018 12.858007755376557 0 0 0
842 2 5.300048615902695 14.511906809825344 0.28844238391268456 0 0 0
312 2 17.558061766279046 15.909785244988507 7.974612295692101 0 0 0
81 2 4.32523053189568 7.320583316302591 1.0801922656716714 0 0 0
34 1 16.480160337941452 17.008930077696082 12.959364840184234 0 0 0
308 2 15.008169172761425 14.286409635705759 1.4886333067501472 0 0 0
341 2 6.623307736225117 9.080873737274539 11.836075634851307 0 0 0
860 2 15.238013674075304 21.34266157442228 0.6979500882117597 0 0 0
80 2 3.0637734809708332 7.486585925712545 0.25142957318783665 0 0 0
1152 2 23.83432770985284 31.0737591467548 12.263698924846617 0 0 0
804 2 22.157913585509164 31.415514944276946 13.457018042876854 0 0 0
327 2 10.885917201712177 3.9687457811389706 0.4214661671820701 0 0 0
285 2 20.174698055217746 13.00894405468423 3.4130484864126105 0 0 0
320 2 5.684709097749151 11.225723322440485 0.2930425140394908 0 0 0
808 1 26.37978215603236 23.814180019563967 13.1618836321412 0 0 0
182 2 17.108027929948843 3.7176064876946624 5.4630908457013225 0 0 0
44 2 20.968248190530964 15.742092647255426 5.872139540898004 0 0 0
816 2 28.313905211000243 31.315281286120474 12.706075952975267 0 0 0
233 2 26.11800451693029 30.419077139727847 8.870940818022122 0 -1 0
313 1 3.6619054181605026 4.65722950070066 0.8290680189896602 0 0 0
851 2 11.30030862052757 24.501870269862586 7.020370198698749 0 0 0
173 2 12.07332824296544 7.143968414348919 13.364515497471421 0 0 0
279 2 17.26588035812772 5.752453957023071 2.000109890406326 0 0 0
331 1 13.584450023953455 12.00100037015711 1.1901133926786178 0 0 0
1092 2 13.176595311671269 27.776459431390958 8.049332944379845 0 0 0
1232 2 23.377317391584516 22.62973583736407 1.3239619306725918 0 0 0
987 2 9.565881415532418 15.003787497680776 2.0043368783285085 0 0 0
1029 2 22.964056407832288 26.294498609736106 0.32540483188568287 0 0 0
1093 1 16.07426154093692 18.740432821472403 1.0854786330111243 0 0 0
380 2 16.77859753617583 15.494770447911336 5.012491643084393 0 0 0
1079 2 23.9728085980769 30.236617964253334 8.789220048744252 0 0 0
1052 2 24.257575086936267 27.622082201739037 2.1055776226697747 0 0 0
1040 2 16.874888291054425 27.318432360270492 2.493557858261787 0 0 0
344 2 6.485783520121643 14.222689805073152 5.066550029466964 0 0 0
215 2 21.363347518308473 11.333614696779904 10.158705013283312 0 0 0
300 2 10.057139947349 16.12319930385446 8.070607201719922 0 0 0
1053 2 25.103754229588976 27.19833929044655 3.3126781942925096 0 0 0
131 2 7.618625024476922 11.79367467132342 10.546591518189043 0 0 0
1137 2 15.30452994764344 29.23352020166964 5.269733378901487 0 0 0
47 2 23.377977798986667 17.55416990558162 12.720947964395444 0 0 0
89 2 21.76925533318961 30.170482349244537 7.910562062892902 0 -1 0
162 2 26.34719002755697 31.057837978550197 11.976285651695534 0 -1 0
802 1 21.491485939711453 30.742153122852482 13.13333593016085 0 0 0
339 2 3.654734056531419 6.009357049627402 3.9808651946036777 0 0 0
46 1 24.102519370816044 16.920757210000826 12.93311432692667 0 0 0
940 1 16.565130833637287 20.223716193419776 12.83711154193215 0 0 0
1004 2 20.924814257936877 22.431287809622773 0.828431761469536 0 0 0
805 1 24.066812488585068 21.906816531751833 5.890492763225628 0 0 0
900 2 12.270049215970348 25.45345535519917 10.817619202941515 0 0 0
1081 1 8.629131084273876 18.77032288553971 0.7018630878979093 0 0 0
859 1 16.084475857300557 21.757979021040487 0.9804902020770611 0 0 0
927 2 18.69356672732398 15.511022744885661 5.079024220815345 0 0 0
1109 2 11.843407373347523 22.668797903434424 11.6535746172098 0 0 0
813 2 26.039747003938295 28.659938868171512 6.977914868262322 0 0 0
809 2 26.664188732006966 23.296932583027832 12.378480904495197 0 0 0
1151 2 24.17221911423816 29.97356445691705 13.272495060704156 0 0 0
1054 1 27.02600685502796 29.0807685721769 9.605311540541013 0 0 0
1139 2 16.61108640206157 30.440018572461998 12.98127695534879 0 0 0
219 2 5.6038593713775375 1.4349433711469832 1.2572069412789881 0 0 0
92 2 10.37862659483844 7.531471947902842 0.6251010704742676 0 0 0
999 2 18.9032538263688 14.706931522999346 2.1216498546027673 0 0 0
983 2 25.95586838188856 24.5376270191481 8.944841786664396 0 0 0
986 2 11.071134787750882 14.886336683709736 2.4418508040832103 0 0 0
1051 1 24.463719902602204 26.784045339114744 2.6482655362611953 0 0 0
853 1 13.703629652849418 15.258540845041688 0.675844353944354 0 0 0
1087 1 11.146161031613822 25.866387860930278 0.57972267377994 0 0 0
368 2 8.653730085975285 15.190711436550961 5.103596585342624 0 0 0
1114 1 14.148516395208189 28.981934619995684 11.23194171680317 0 0 0
1134 2 14.285171554833184 23.349849147531145 13.08514610008997 0 0 0
210 2 19.179857146676838 4.317823623522566 10.077897813897165 0 0 0
280 1 19.581318654678125 7.824948421590746 9.55433311994691 0 0 0
40 1 21.56217537521573 9.985906717936627 13.400322755510484 0 0 0
1000 1 20.50205686975915 17.221437296678474 8.111797066384279 0 0 0
1078 1 23.23179763844111 29.642160581543422 8.867431423189519 0 0 0
230 2 12.428276981701519 0.7376389965967952 1.676508331144862 0 0 0
79 1 3.7681147043005114 7.988406768168217 0.6259521894645655 0 0 0
35 2 15.729818277622783 17.519809085055936 12.454336598501987 0 0 0
841 1 6.073267292351408 14.922905023147832 0.6999725471265489 0 0 0
206 2 16.47795274922929 2.5878628574151925 2.9265062854075734 0 0 0
990 2 12.305239949507637 16.737274769922717 9.054397033889758 0 0 0
185 2 19.1843517113704 6.6288142424801 13.435872870823731 0 0 0
1140 2 17.871096629938393 31.124756795318223 12.208751663038539 0 0 0
814 1 29.0999190119198 30.935837641714112 13.121886894955047 0 0 0
1048 1 24.928534565549505 21.930488380365954 9.39026812827345 0 0 0
801 2 19.76291932102211 29.536128734665212 6.605702647470776 0 0 0
1063 1 13.213275868269964 27.893849528458084 2.045222576795032 0 0 0
1150 1 24.38850587578799 30.305046494319193 12.377516746515363 0 0 0
889 1 7.825540066397857 16.930804926792995 4.205238181885494 0 0 0
1149 2 22.138935959496028 27.73722831529573 4.937677829848258 0 0 0
326 2 11.643747596911131 5.2337487539752425 0.24613014825096644 0 0 0
1124 2 19.98359593662953 27.548060230941246 3.873325632918495 0 0 0
946 1 19.272370640875774 27.253733473258976 12.94857196373763 0 0 0
896 2 10.678367333259791 23.026163511002846 4.258902673196265 0 0 0
1065 2 12.432546107116465 28.223192686832107 1.564532836154685 0 0 0
1133 2 14.56507879036866 22.767066386045236 11.657097498814755 0 0 0
1144 1 22.13808214506597 23.49663490104205 12.099924152794383 0 0 0
1142 2 18.907023529171333 22.27993290050143 4.771878310163335 0 0 0
1143 2 20.497489003264896 22.229639431343372 5.001190889774667 0 0 0