LAMMPS data file via write_data, version 8 Apr 2021, timestep = 1755000

1008 atoms
2 atom types

-0.0011593909306717618 20.673686048167113 xlo xhi
-0.0011593909306717618 20.673686048167113 ylo yhi
-0.0011593909306717618 20.673686048167113 zlo zhi
0 0 0 xy xz yz

Masses

1 16
2 2

Atoms # atomic

395 2 7.89410320441332 5.344652393400417 2.5766483650757275 0 0 2
190 1 20.0709734174727 6.733601912135142 1.7857792247786481 0 -1 0
10 1 2.601915373097411 8.59133842743527 4.16203549146446 0 0 0
76 1 1.7127921147758063 6.443621223109723 8.586058209481141 -1 -2 -1
23 2 14.926220560501005 2.7526521526289485 7.062580599649063 0 1 -1
832 1 13.113686252210632 7.854350864385339 2.971586424299775 1 0 2
118 1 9.570985438429275 4.077897312199172 7.238511292768467 -1 1 -1
898 1 6.432019085633616 9.882325121816574 2.4078316533360877 0 1 2
867 2 1.4281829649692532 1.0512618180523 2.468360739333932 1 3 4
963 2 10.083576224558717 6.426738506971439 8.39983845050951 2 -1 0
256 1 11.87588265706161 0.9685316741298078 1.2311990026518724 -1 2 -1
590 2 9.108188269792823 6.06634862802248 0.6985400051627995 2 0 1
210 2 9.800851381474898 9.370455309614794 10.171260947285832 -2 1 -2
77 2 2.6339085823504798 6.677639560990263 8.303223015450587 -1 -2 -1
477 2 10.795611689758342 2.751109325529872 6.851144154755347 -1 0 -1
592 1 16.743305885729217 9.011269124805404 7.794723017103248 -1 1 1
845 2 7.4675394776236095 1.6286793245832478 6.235233031707777 0 1 1
194 2 9.435343908428699 7.841615678516549 6.676833509514751 2 1 0
563 2 2.681896628764183 1.521345339432257 6.176335525622635 -1 2 0
625 1 16.701688844660794 7.504429326772631 3.038967426542566 2 1 1
914 2 16.661821443836864 1.5472998880364806 7.3860139970756284 0 2 1
955 1 19.653337498140964 7.604394480146572 9.161897255711843 -1 0 1
245 2 19.274632658703645 8.78896805250558 3.5995387452106233 0 1 0
271 1 6.688657663786499 1.2999454043408845 4.571992150790962 0 1 0
973 1 4.4716093511820745 5.515089687809041 2.5180089081690107 0 -2 0
338 2 19.37813200734038 0.7932216726933331 2.979566968147847 -2 0 1
995 2 17.066290256862363 7.195982741896889 9.847070493701022 -1 1 -2
24 2 16.085465343623046 3.4300809032488098 7.738468944627159 0 0 -1
928 1 19.98367972272889 6.051414395545259 4.275777416233734 1 0 0
185 2 2.211103473261543 3.959173364160127 0.9615992907351882 2 0 1
706 1 4.868774740846195 8.1692531622821 1.2366056995113504 0 0 1
209 2 10.489471790444629 9.866577105605145 8.896204003377864 -2 1 -2
962 2 11.45657672557918 5.9949550570791015 9.080045101895582 2 -1 0
833 2 13.208759496908428 7.123349196662489 2.3847745115110976 1 0 2
454 1 18.814217819661835 4.489687954905768 7.407546850099874 0 1 2
8 2 5.662812144802255 9.218699082432511 3.988110539538352 1 0 2
866 2 2.3861917725371873 1.5105919658470033 3.627704544079847 2 3 4
627 2 16.916391047397987 6.552454306190265 2.8586572282100104 2 1 1
589 1 8.209909650543944 6.368208200154345 1.0400167466769183 2 0 1
365 2 3.218572661429612 1.87463721484249 9.936342649963793 2 2 0
325 1 14.026420370944006 1.160277501416977 7.289216215720324 1 0 -1
882 2 13.1533554236144 4.259296174441743 4.834761977168251 -3 0 -1
473 2 17.697751792908406 7.414953581179146 0.03913534223275261 0 1 1
208 1 10.00201787317935 10.21273419444629 9.659025942978701 -2 1 -2
446 2 11.126470592083123 9.155406435276568 6.6386139869404435 2 0 2
593 2 16.940554133347767 9.660936142180484 7.116866402570058 -1 1 1
843 2 20.205209067749813 4.005952010642934 0.6730074663804164 -2 0 -2
530 2 7.811465289469872 6.568782641279661 5.7527350740164955 0 0 3
456 2 19.071638779913346 4.37312046447514 8.368138681446815 0 1 2
316 1 10.304299109803688 5.10217374473438 4.690388499151333 0 1 0
301 1 2.619065405663642 9.511715759480056 8.296921066563934 0 -3 -1
253 1 12.473896650875504 3.2249193302743056 9.011031209215899 0 -1 0
728 2 16.39401877567036 0.6678671690114302 2.071851578915426 -1 -1 2
402 2 9.517228276115233 3.63578440644734 10.297434755095992 0 1 -3
613 1 3.797195306175366 7.083176118130203 7.294456530975409 1 0 1
771 2 11.495241459461704 7.872914727964948 3.548909154672805 2 0 0
61 1 0.860526908583465 4.9002264481776425 0.3301754923486185 1 0 2
191 2 19.168415838289746 6.829540714483421 1.3721719819139708 0 -1 0
186 2 2.7669005032582183 2.846792366618137 1.935111906226718 2 0 1
961 1 10.479855506063993 5.889319503940686 9.131403869857433 2 -1 0
192 2 20.099128801373308 6.272508799888335 2.6391525652372296 0 -1 0
124 1 17.09584921584461 3.013693721906653 4.581106832547727 0 0 0
1004 2 14.453519340146322 8.501548863934461 0.7981174683593739 1 0 2
801 2 17.435843228712034 3.203429560114775 9.6235762026254 -2 2 -2
248 2 1.0537010707637846 9.691382149246136 8.539896453278912 1 -1 0
552 2 13.010767969040181 8.81391468327632 7.801961517427384 -4 0 1
727 1 16.297825360656123 1.6329395834858735 2.338102225641093 -1 -1 3
43 1 13.097386696116306 5.175635408481467 1.9102633515379552 1 0 0
119 2 9.793781237845158 4.802029106761729 6.612525641810639 -1 1 -1
246 2 17.79582111998667 8.411268116853194 3.8213495091712777 0 1 1
891 2 0.034619078876413974 1.876270521298621 9.213346295218626 0 0 1
12 2 3.5460997068956766 8.500269125453665 4.237867135831349 0 0 0
900 2 5.819235918086075 9.153204388879729 2.1438551048492474 0 1 2
352 1 14.076646983654685 5.45807511788529 5.5935814838760844 -2 2 0
184 1 3.020628007773871 3.5438262193080696 1.2571899069146257 2 0 1
839 2 14.46437348485895 1.7730602426603939 3.166063816495317 3 0 2
13 1 17.136735697898242 4.920445771392408 2.480082405385915 2 0 3
327 2 14.158494283705135 0.5320158958792178 6.515275124707279 1 0 -1
847 1 10.788141026103567 5.645582524289542 0.08693199427088938 0 0 0
534 2 1.7625207420200888 4.887258055427939 5.913360076763647 -3 1 3
273 2 7.078255147412114 1.6408231696878983 3.733249223749491 0 1 0
630 2 6.400715248973909 3.5833720286914983 6.711982809181235 -1 3 0
532 1 1.2043689471784746 4.617796219004902 6.6878102836777975 -3 1 3
255 2 12.154819491542844 2.8937544964495525 8.168086312699312 0 -1 0
733 1 14.37950671326738 7.854866017564594 7.857584511203661 0 0 0
156 2 17.570659555737805 10.09113445092195 9.049838082004213 -1 1 -1
326 2 13.134902796413199 1.5635271619126334 7.193374515477396 1 0 -1
408 2 7.622499474102339 1.7024471571040327 1.4161297957560428 0 3 1
990 2 0.9802773459426252 8.618359713069617 3.250758087762423 2 -1 1
629 2 6.565660111479388 5.046212821126121 6.153942957987726 -1 3 0
764 2 10.48434235658054 0.4686682542360349 9.786546217748706 3 0 1
994 1 17.264126807875233 6.520696413479115 9.206862510003328 -1 1 -2
999 2 15.584335823697758 7.788738720801218 4.34543109704852 0 1 1
838 1 13.589985002805566 1.46514008196017 3.4031853746873857 3 0 2
317 2 9.546679239224499 4.806070769131869 4.134554754820418 0 1 0
781 1 6.485055683714536 7.683312206992717 7.9415382557917935 -1 0 1
889 1 0.06302266760754412 1.610880201254149 10.124069077999968 0 0 1
562 1 2.9481380684201537 1.2142222917510646 5.231772338275825 -1 2 0
121 1 19.81095046792295 3.3284851657985732 4.337937420947262 -1 1 -1
998 2 14.171548552500594 8.14244412777551 4.208242521608001 0 1 1
899 2 7.385033485631488 9.476629594104653 2.4093007193224283 0 1 2
529 1 7.037837734123783 6.486519295164697 5.179065683777769 -1 0 3
960 2 13.781916320292416 2.5318157166624538 10.157460845402142 2 1 1
406 1 8.247649560353974 1.9057570074658292 2.170112665742488 0 3 1
339 2 19.804574424027223 1.991617567631919 1.9698473424106737 -2 0 1
913 1 17.12359477902294 0.7558283139851466 7.759905218544638 0 2 1
615 2 4.797090786084183 7.0983111874282665 7.374890857194957 1 0 1
565 1 5.0404891966854555 4.765450989968353 9.366205306460106 -1 -1 0
22 1 15.798951186735989 3.0992347012587835 6.887886407199335 0 0 -1
175 1 4.651606764063374 3.059021064420073 4.331309993523894 1 1 3
170 2 8.545880974770224 7.81206963553635 1.7377900398979758 2 2 0
825 2 0.9404015920455783 7.128370622576948 6.916326900271522 0 0 0
78 2 1.87752086205138 5.873490072275311 9.351766205167307 -1 -2 0
957 2 18.86389720628959 6.951578072312558 9.071573738315365 -1 0 1
100 1 13.219673470742 5.7860751743329315 9.033221035189355 -3 -1 0
707 2 4.591906893469123 7.327495676298494 1.654282195442058 0 0 0
15 2 16.88994218577454 4.350968592995336 3.237011704259224 2 0 4
1002 2 9.898119492658891 0.4826702995874915 5.574777310164157 0 0 0
956 2 20.43415271921315 7.180585309596623 9.571521035799744 -1 0 1
308 2 18.006870537760907 6.006565430582514 6.815618452006105 0 2 1
769 1 10.545466277430664 7.849561046507372 3.779909392140135 2 0 0
846 2 8.354667951787711 2.72325758920473 6.994796721160821 0 1 1
254 2 11.658601263180406 3.3324817298332507 9.626949854383302 0 -1 0
99 2 3.0225879848932897 8.98470910707564 0.7766834894259134 2 -3 1
307 1 17.664227508132317 6.73194852214128 6.226157628867635 0 2 1
880 1 12.542137182941472 3.5024724076691194 4.670093949726263 -3 0 -1
11 2 2.3329834798910905 9.068984910827375 4.934327852894967 0 0 0
841 1 19.320303294953426 3.707943325685382 1.1494692580637866 -2 0 -2
796 1 1.4896022887199607 2.0839681701172483 7.305862039891956 2 0 0
929 2 20.642394926928965 6.384385515445095 4.897985233679955 1 0 0
475 1 11.548691512162716 2.194054494793207 6.763884240940961 -1 0 -1
783 2 6.551530872221754 8.57793794654851 7.509747914290778 -1 0 1
798 2 1.309868337383659 3.0668242867823485 7.032059860756019 2 0 0
844 1 7.470626170352315 2.332038216494997 6.940496812782356 0 1 1
171 2 9.458323788688071 8.52377617141772 2.6718895483454537 2 2 0
407 2 8.912679545713171 1.2340042813281504 2.312999900932693 0 3 1
930 2 19.936415603754 5.039303877708246 4.453762838827345 1 0 0
102 2 13.196532249686523 4.8558457102464585 8.817563197936654 -3 -1 0
795 2 5.0634045685270594 6.254518384811351 10.028176356197477 2 0 0
122 2 20.22326178524408 3.2467779819598657 3.419183303783641 -1 1 -1
279 2 17.917403448295342 10.0803431055549 5.238007898574025 1 2 -1
303 2 3.1052830820331767 8.725268890927426 7.967435106206588 -1 -3 -1
244 1 18.529025982929088 9.004067802456765 4.172063439972146 0 1 0
978 2 6.974477132771514 3.796887612336293 9.93962674204746 -1 -1 1
309 2 18.37163656916343 6.720035380093004 5.528004729831668 0 2 1
123 2 18.883154036916707 3.1752814630472748 4.2203759094090545 -1 1 -1
594 2 17.121765124466265 8.123250048514818 7.525049918515053 -1 1 1
193 1 9.071151461839445 7.051729458590063 7.163492673621319 1 1 0
786 2 19.010442985290833 2.756555323121475 7.35410022521988 -1 0 -1
749 2 14.594486497692861 9.793723491632079 5.141829681206483 1 2 3
177 2 4.075976591961855 2.3841017535870472 4.6929273772236355 1 1 3
997 1 14.867579421892676 8.105920438088514 4.909125208668313 0 1 1
734 2 14.562310143447819 7.791367598333553 6.881250269601582 0 0 0
237 2 6.607563906227482 1.8166088007663932 8.471311619755372 -2 1 -3
834 2 13.002948301900881 8.557210021133605 2.2704000162331552 1 0 2
354 2 14.925575716453245 5.107379048499703 5.982533964963387 -2 2 0
550 1 12.347469801871513 9.540615606076496 7.9161596897986595 -4 0 1
974 2 5.302370782891182 4.99425012573747 2.74998949694644 0 -2 0
988 1 0.42828452311045107 8.85436746514608 2.519232622182795 2 0 1
614 2 3.594536801928579 6.750118085852036 6.355492512024663 1 0 1
205 1 19.39527183034158 4.444190209294334 10.101539856695307 -1 -1 1
785 2 18.836979523629083 1.1801945819193875 7.606287805727329 -1 0 -1
44 2 13.936353791091186 4.975759833622726 1.3798900486605923 1 0 0
533 2 1.5129185663269518 5.1660284839310995 7.485017452637722 -3 1 3
9 2 5.746308051320007 7.952715744710498 4.9592546560806525 0 0 2
975 2 3.898131044143654 4.766789519664542 2.140427418891179 -1 -2 0
337 1 19.967139769142797 1.0983389770263703 2.2329933399171877 -2 0 1
394 1 7.973541250509794 4.651168679440655 3.309597128018925 0 0 2
169 1 8.770046412920077 8.717806005339797 2.039597531298417 2 2 0
120 2 9.562146421691605 4.535851458203703 8.088070389479633 -1 1 -1
729 2 16.74514193389379 2.0285257653082316 1.5188962218207278 -1 -1 3
353 2 14.226144744416438 6.386695422953318 5.339808742289342 -2 2 0
567 2 4.313082502384459 4.07351286366893 9.252358705513021 -1 -1 0
97 1 2.3912621857123173 9.701357278807269 0.848385104781917 2 -3 0
797 2 0.6003326235560534 1.7473286122020144 7.160709958895276 2 0 0
318 2 10.42506845603178 6.028807476586608 4.493088109089466 0 1 0
98 2 1.6099979628997823 9.293398934882562 1.3331772251784502 2 -3 0
881 2 11.692385594905534 4.0288910560131095 4.515398787658362 -3 0 -1
272 2 5.946284390943659 1.9603856952967194 4.636046957959126 0 1 0
436 1 2.763607846200189 5.7487770032302725 4.679751918534311 0 0 1
770 2 10.45943814844375 8.280810423258359 4.637005778115548 2 0 0
865 1 2.313659669242285 1.4037379032097335 2.6465578089671813 1 3 4
824 2 0.027173301346509946 8.139585102563395 6.538492138671141 1 0 0
445 1 10.313448135261126 9.166469099849566 6.095973844171404 2 0 2
396 2 8.06216325221473 3.735112274876195 2.943376767793456 0 0 2
45 2 13.043850584668192 4.628310417685744 2.6501054020949786 1 0 0
591 2 7.540080898321963 6.041263840348881 0.35156471792655525 2 0 1
236 2 6.8026629315275535 1.1421155099014326 9.880364283288726 -2 1 -3
56 2 17.43846765352489 0.6331742966417856 9.554088790259902 -2 1 1
366 2 2.4519700752244877 2.517034253329171 8.74830449957682 2 2 0
840 2 13.163729281133463 2.2598179473346973 3.754011777041475 3 0 2
364 1 2.9425672530634417 2.7433695957360955 9.567637957083619 2 2 0
823 1 0.7198813463242163 7.624753618904002 6.131122236019151 1 0 0
782 2 5.950904338574837 7.683557987993853 8.733239051650184 -1 0 1
125 2 16.597785552380504 2.3788365917293373 4.014703403778457 0 0 0
30 2 11.04916129721409 2.3626003575710084 0.2645842735142481 0 1 1
811 1 19.4054089999171 9.967123399651893 0.38734664611945413 1 -1 2
63 2 0.5656931134355339 5.655954807982168 0.8936967684463223 1 0 2
1003 1 15.175621037321338 9.074850789298564 1.136074174882851 1 0 2
708 2 4.9205383596628565 7.940591382212499 0.23308380532787248 0 0 1
101 2 13.888117678730774 6.2233826378765285 8.487737731469363 -3 -1 0
531 2 7.333214481681705 5.796860904121338 4.511751749249478 -1 0 3
628 1 5.884724740363058 4.421692799113542 6.535077747983393 -1 3 0
116 2 18.408821259339536 1.0823642345529083 4.952265349563658 -1 -2 0
258 2 12.496979909943509 1.272310006848241 1.8962287212896525 -1 2 -1
158 2 14.501811595418493 0.35367068355710085 4.543362960048185 2 0 0
291 2 9.415659123162843 10.01464096704485 1.2280121711414764 2 0 2
26 2 16.182086534252097 5.044431818932802 1.0028803194334723 3 -1 2
476 2 11.994685976740755 2.6094000977624447 5.954282531764268 -1 0 -1
126 2 16.539017568999316 3.236041759269987 5.369325514386442 0 0 0
455 2 19.73285101541837 4.657997161146536 6.993587010589315 0 1 2
7 1 5.202935172469596 8.736085080391074 4.6839152698978745 0 0 2
437 2 3.368076307910078 5.663038356896034 3.8641664031784257 0 0 1
800 2 15.889456653532205 3.0527066925760558 9.921965377979676 -2 2 -2
564 2 3.3573086781364143 0.31883263231162934 5.390946589283941 -1 2 0
735 2 15.233019352522675 8.37278233345839 8.036451822523802 0 0 0
14 2 17.968465411303224 4.4856903435065885 2.1087373244314978 2 0 3
784 1 19.481662388379608 1.877675317501202 7.45094033033103 -1 0 -1
438 2 2.2177870214774704 6.520553008052361 4.4235901529212605 0 0 1
842 2 18.72197115619138 3.235985338530088 0.4497355274949584 -2 0 -2
176 2 4.747124508865678 3.6100711115964375 5.105411375172304 2 1 3
51 2 15.059968336837137 3.0788134430600587 0.03211044150001828 -4 0 -1
996 2 16.98771951413102 5.728733964007842 9.645553385689071 -1 1 -2
447 2 9.904806043820404 10.084998650240184 6.1610633272696465 2 0 2
403 1 6.095315200479382 10.229558879118118 6.8699696127282985 -3 -1 0
235 1 6.1585104606807235 1.3148565188537562 9.153686427048353 -2 1 -3
195 2 8.288656084501799 7.401048329213619 7.576085742007827 1 1 0
247 1 0.1810241024719169 10.04914869656051 8.842162402813225 1 -1 0
249 2 20.245914751006573 9.241534663165535 8.890490050610365 0 -1 0
989 2 20.649179867985257 7.987583468774201 2.184497075418111 1 0 1
626 2 16.166682033961596 7.880545192917617 2.3153015698600816 2 1 1
566 2 5.42747480919123 4.916051032374005 8.485185655359274 -1 -1 0
799 1 16.566006922533763 3.5877551806966936 9.464992204366533 -2 2 -2
467 2 13.405546606702018 9.037982399655203 9.707624758812013 0 2 -2
848 2 11.594110380407654 5.64054720145582 0.6564845926626546 1 0 0
383 2 1.0285882622928675 0.3026030819279764 5.608326679115827 0 -1 1
25 1 15.488216258462243 4.7388687010955115 0.42733269967161724 2 -1 2
1005 2 15.738844407328541 9.272016257036805 0.39289467820361024 1 0 2
984 2 6.365015999641759 0.3905230807682527 0.29343773327363937 3 2 1
302 2 3.0851490351896915 9.933289902659215 9.082717186375373 0 -3 -1
405 2 5.501907845990907 9.961397193192164 6.135840214342669 -3 -1 0
903 2 11.614322254060157 10.150074986658035 1.161234334933591 -2 0 2
793 1 5.114998659741256 7.234660411975795 10.190551557710474 2 0 0
60 2 19.43190454292469 0.13718357270599746 0.9516366005295442 0 1 0
812 2 19.85402184622318 9.900777305704828 1.1883231342209917 1 -1 1
239 2 4.357288065402615 3.2843109131049637 0.2747617195668978 -1 0 2
128 2 4.570939139886495 0.5660533277143234 9.680914449300786 0 -1 -1
115 1 18.781793391488826 0.31256660310399675 4.518902344859142 -1 -2 0
890 2 0.03847517334697357 0.643851198612632 10.105502680923973 0 0 1
257 2 12.30264050363328 0.22952944604288708 0.6600892914277139 -1 2 -1
611 2 18.028071788466974 1.1238456859787345 -0.0009368046412134319 -2 3 0
901 1 12.570816375936426 9.976478837962558 1.407827835551204 -2 0 2
50 2 14.60480248940325 1.6951060977891075 0.5108433204279351 -4 0 -1
472 1 17.821924041602205 6.573628937784304 0.41392466031352904 0 1 1
117 2 19.66979953175911 0.23249570149921114 4.988552901744823 -1 -2 0
127 1 3.8819648344226043 0.3393693459048861 10.332624238529556 0 -1 -1
204 2 2.3040615186695343 9.734760376293213 19.68928089676743 0 0 -2
553 1 16.257011796548976 8.494656233871014 13.63504048498818 -1 -1 -1
322 1 16.48552831217613 8.235917037370356 16.997691856994546 -1 -1 -3
212 2 1.462735122975592 4.540820856030784 15.949746310965258 1 1 -3
420 2 4.534881818659193 0.37652917363330335 11.949656567072825 -1 1 0
357 2 13.334480988432002 6.11881771401831 15.012560067346735 -2 2 -2
328 1 8.76657514168612 2.5997762856803552 18.53296687789981 3 0 -1
719 2 1.8238544891144277 9.320243510395072 16.00074864422761 -2 0 -3
964 1 7.7514810548838815 1.0843489969833005 15.922064865768307 1 1 2
294 2 13.244824879059877 8.880722265927577 16.762841544180194 2 -4 3
575 2 17.673792032205952 4.311299025374054 18.467436053916803 -1 -1 0
918 2 20.514717428113983 2.2724959798502833 12.921622667699687 0 0 0
980 2 14.25981938831528 0.027686590765711443 11.351209544321453 -1 3 1
165 2 17.488112453285265 5.939178969945915 15.326242350866913 -1 0 1
711 2 16.82393587586998 8.98435458002075 18.89318186718422 0 0 0
715 1 12.401567829364975 4.879643142884634 15.932187534268534 -1 1 -1
62 2 0.9888758254143973 5.442806236142919 20.18822419481914 1 0 1
569 2 20.407388413262748 7.797843542641936 13.814015073252436 -1 -1 2
373 1 12.209211070752641 3.1083395451884233 13.976300830337136 0 4 1
624 2 4.594773021988855 4.631447792057321 17.233743835068438 0 1 0
421 1 7.095867739468227 7.863607501300692 14.20699374422679 1 0 1
1 1 3.2605157547501498 2.9329887472656124 13.33335534804494 1 0 0
259 1 12.280696599804797 8.77521576837068 18.68944712216865 0 0 -2
433 1 13.627644504860816 6.20144659921305 11.520690751867171 -1 0 -1
86 2 8.140687113591284 9.878553508700232 16.375301331520607 2 -1 -3
718 1 2.7104152947618196 9.178032730862506 16.309808836820345 -2 0 -3
574 1 18.310186795507988 4.903718024531186 18.95363849643794 -1 -1 0
775 1 16.2101421216188 8.52565296152294 10.895508498450264 -2 -1 1
453 2 13.55118571284838 2.6758312230222896 19.329891393720946 -5 1 -2
220 1 18.961591671648613 9.601080412256005 16.813829972706078 -2 3 0
643 1 9.642015857565461 6.375327385789693 14.063171967473792 3 0 1
3 2 2.286185075798009 2.862263837250141 13.234402936956698 1 0 0
130 1 18.341869734045286 5.41807888236136 12.421915462954514 -1 0 -2
487 1 11.393630272878799 5.0409368427483185 12.503855211546183 1 -1 0
306 2 10.752849396774302 6.465211849480872 17.677223746405645 -1 -1 -1
341 2 9.27159039288541 4.413242147965781 14.979349432591258 -2 0 -3
873 2 15.828949870734881 5.1859217918008795 14.704235941560073 -1 1 1
275 2 8.585265643487794 7.802944143583343 11.11083138425982 0 -2 -2
954 2 6.4118843156906795 5.052820041718729 16.527978208881187 1 2 0
744 2 8.773199267639795 7.840814296629877 16.817449636090227 1 0 -2
905 2 1.626425903654413 6.1959185221985 18.03544512117176 0 0 -1
857 2 0.27418514995015825 5.002033419873037 13.760238338220061 -1 0 -1
721 1 19.520436276906864 7.759466153714881 12.102992763335827 -1 1 -1
731 2 6.830234929291413 9.033143130850727 11.545634980934503 2 0 0
753 2 12.788661797260756 7.914147506113425 20.295767342021318 -3 -1 1
188 2 15.28897207468893 4.010712199920017 12.970562913335971 -1 0 0
305 2 11.32342587818951 6.079520224783357 19.135852763514492 -1 -1 -1
435 2 13.538033906868614 7.139484577620003 11.525099304430382 -1 0 0
648 2 13.149035689333157 9.83161177444474 14.749643420775962 2 -1 2
981 2 15.677147306559798 0.0351806503499742 10.807875987077953 -1 3 2
917 2 0.627200592715909 2.1122194643946717 11.626128811368881 1 0 0
773 2 7.456098970851325 0.7511248881945881 11.834850913857561 1 1 -1
293 2 13.765820231891054 8.127545351846925 15.513751139658165 2 -4 3
892 1 4.676043972840041 5.101538497424542 13.87756346536379 -1 1 -2
494 2 3.540506328178542 2.729559434649758 16.393309451577107 1 2 0
73 1 18.588823085883664 2.5076984333595127 12.12297921768228 3 0 0
732 2 6.184538045905662 7.601347861029763 11.158875591900065 2 0 0
636 2 11.680062521091553 9.064783063484002 13.192774352893911 -1 0 2
211 1 0.9886066240005899 3.7417583132719745 16.29462763921961 1 1 -3
936 2 5.235677945870061 7.923723642849212 14.204302950579114 1 0 -1
635 2 10.699082558298665 8.349133848004744 12.219445587814993 -1 0 2
716 2 11.883717584583762 4.143201528316384 15.482443633346564 -1 1 -1
717 2 12.073482585945149 5.076491853935379 16.840817676977046 -1 1 -1
720 2 2.5479315210830884 9.192006666273466 17.318252992431205 -2 0 -3
132 2 18.86677779500142 5.161039997289069 13.187234394263207 -1 0 -2
893 2 4.2489436387588615 4.248403447269507 13.639132767199515 -1 1 -2
202 1 2.049210872281473 9.60561865003228 18.732112291711097 0 0 -2
906 2 2.78438035088295 6.620324247964199 18.987007011912898 0 -1 -1
554 2 16.15587300004741 9.465687322431844 14.006465030805353 -1 -1 -1
557 2 0.8877465634814212 0.29522356341674644 12.920183566632128 2 0 2
238 1 4.985701278186198 3.1264182858171994 20.215922191165486 -1 0 1
451 1 12.86609141991458 3.058595719716325 18.719406998683983 -5 1 -2
221 2 18.120246698315764 9.125368547740752 16.840545163137477 -2 3 0
894 2 4.213617228649162 5.760841479277133 13.330098398387047 -1 1 -2
173 2 19.52116687367739 1.526663713610107 17.14693958303176 1 1 -1
49 1 14.93757652091271 2.1256531599065496 20.42617835734257 -4 0 -2
681 2 12.20497289367291 0.22449798273437854 16.47957237220517 -1 -1 -1
808 1 14.37721874870861 2.686986732507355 16.275167355898343 0 2 0
709 1 16.974766285834193 9.05988285508328 19.82317146887467 0 0 0
163 1 18.077006224167345 6.649346545140465 15.112337378786178 -1 0 1
509 2 17.80649733535888 1.6529757270764536 15.145418873113318 2 2 2
263 2 0.7144493045109056 2.374982784265308 19.554482327625546 -2 1 -1
85 1 8.079609967123744 9.441361887958006 17.2386135707915 2 -1 -3
872 2 16.304993961603014 4.4127047324485575 15.830545078715728 -1 1 1
642 2 6.338946178388156 8.777126895306917 17.30652772272808 2 1 -2
187 1 15.624478268708954 4.9122822274944875 12.747890371415442 -1 0 0
983 2 5.939014112642465 1.775878899510267 20.397499858627118 3 2 0
207 2 19.065241239816036 5.095498658573362 10.78850901229353 -1 -1 1
860 2 14.143165175673214 4.924774062111991 18.692370978450864 1 1 -1
672 2 8.210872205606872 4.266240954353832 17.870627543488062 0 -2 0
916 1 0.7466238896745074 2.226842399071545 12.642853662199238 1 0 0
172 1 19.219330059919013 1.0604134259000195 16.32751590822073 1 1 -1
423 2 7.250735151646477 8.841200097878184 14.459170661768937 1 0 1
75 2 18.07557691942208 2.826023184589306 12.880935839021216 3 0 0
268 1 6.362936296145164 5.552099035110906 19.969554900312218 0 0 -3
147 2 15.92120082544203 2.9755206501507225 17.72950971692049 3 -1 0
422 2 6.975313502627225 7.855200844641916 13.222979176413942 1 0 1
28 1 10.816858329119555 3.022427058121265 20.29724925214332 0 1 0
466 1 13.570597377143095 8.84008628371613 10.607241928868424 0 2 -2
270 2 6.825077871606507 5.257219266318579 19.16153293063627 0 0 -3
982 1 6.729445888150726 1.1189994855992254 20.463432873132717 3 2 0
623 2 3.208763400933973 4.548712948602708 18.15625363638644 0 1 -1
752 2 13.96510932411023 7.044562567898766 19.8314487272067 -3 -1 1
162 2 6.310647770255277 3.109889442418125 13.281639323508704 1 0 1
350 2 9.642859435480542 2.391763523659178 14.099645378098574 1 0 -1
488 2 12.093947352993961 5.660905076504246 12.165342057380998 1 -1 0
856 1 1.1803232756105397 5.249475281677944 13.406276101231734 -1 0 -1
746 2 1.2909181207537246 6.924976820117758 15.784465243419021 1 -1 0
757 1 19.440960433847284 4.267083072518564 14.685729387044256 -3 2 -1
935 2 4.535893195247028 8.318708758415989 15.532735065371458 1 0 -1
53 2 0.6732730782473426 8.481285542665876 18.765137145004243 2 0 1
489 2 10.77182827537741 5.616429191581027 13.03164396290087 0 -1 0
261 2 12.029081948636458 7.922756134853889 18.31626894122604 0 0 -2
763 1 10.320529187879528 0.8054485858921332 10.673018878960075 3 0 1
29 2 11.605481107985263 3.1441885164950887 19.706953756412037 0 1 0
737 2 2.5421671884956627 6.287950977224031 11.543250568349862 0 -1 -1
776 2 16.353662942197076 8.555525402331522 11.878014227768674 -2 -1 1
545 2 19.8194108001532 3.736612408337375 18.976737610663303 -2 -1 0
493 1 3.2278369366957294 1.893295574680747 15.904021250708928 1 2 0
861 2 14.846717206890853 5.7073054379041155 17.56766046474389 1 1 -1
809 2 13.998378903957187 1.8431799854482036 15.87768850142322 0 2 0
969 2 2.0322391871944006 0.41110206044808933 16.233423342259496 1 0 2
164 2 17.613416563423094 7.337964663353798 14.533751261560937 -1 0 1
559 1 20.01153136977305 6.070515983595934 17.151669612922085 2 0 1
146 2 17.216263549875915 2.4015475118505005 17.255474910655387 3 -1 0
222 2 19.439981107212812 9.485654434619345 17.69178136802842 -2 3 0
634 1 11.13208727404804 8.206563965079837 13.056116842731292 -1 0 2
568 1 0.1260268388214421 8.114790549024834 14.661982726825775 0 -1 2
787 1 3.7101779892799467 10.063143936662922 13.01016036395751 0 0 -2
506 2 1.159065094493712 5.00726301192123 11.74876743646919 -1 2 0
497 2 5.943650131473537 0.8965175863715423 13.339658890609705 -1 0 -3
274 1 9.536748000523533 7.842975572898737 10.939964520586035 0 -2 -2
958 1 14.613321283357095 2.235669790793118 10.538608059648215 2 1 1
670 1 7.727158594004415 5.0871754786616075 17.705841131326697 0 -2 0
496 1 6.75590612042247 1.4122560705342895 13.357369204419328 -1 0 -3
54 2 20.006742709350334 8.51185492235898 19.59368869369604 1 0 1
434 2 13.536822578705031 5.928229666177929 10.57083562459804 -1 0 -1
977 2 7.466031209489483 3.7052892051437376 11.46029103015365 -1 -1 1
789 2 3.9634925602718902 9.19926014848902 13.437456423674893 0 0 -2
505 1 1.4150779389016133 4.956829982958688 10.779150954494236 -1 2 0
640 1 5.548578566689761 8.252245194854547 17.20080389786892 2 1 -2
160 1 6.812985156772687 3.9534167730727376 13.056358467728893 1 0 0
349 1 10.152771953833646 1.5405066389321072 13.806532861930451 1 0 -1
723 2 18.82771303096845 7.180097693399794 11.830769806865373 -1 1 -1
304 1 11.509896609086745 6.165170542445562 18.199332615241953 -1 -1 -1
174 2 19.958925661287093 0.4722150093228434 16.12957533322999 1 1 -1
342 2 8.10564377294584 3.8201680259844135 14.257687623576928 -2 0 -3
474 2 18.021861740272023 6.078811821659714 20.273443654495917 0 1 0
27 2 15.650104576648909 5.276357258337039 20.286522195732957 2 -1 1
576 2 18.865180980112758 5.278480330627392 18.27356265056898 -1 -1 0
375 2 11.572612534573013 2.4010608412712395 13.954403484885239 0 4 1
965 2 8.056838048117363 1.9708536932424014 16.189053587724892 1 1 2
966 2 7.65639787736791 0.5926534898455387 16.78479395556626 1 1 2
710 2 17.796200063110437 9.479974494182102 20.017119754910738 0 0 0
292 1 13.966396398874672 8.890997360113904 16.114943827034335 2 -4 3
644 2 8.651383075704823 6.565321167464598 14.039247974900734 3 0 0
508 1 17.299116601316683 2.4969813759477857 15.009864244958711 2 2 2
161 2 6.107048543842694 4.6527447264476525 13.18787803989616 1 0 0
953 2 5.400431739492493 5.441580356483946 15.411073814675262 1 2 0
452 2 13.021927776922551 2.6434481963267973 17.86830780672915 -5 1 -2
510 2 16.375258793698045 2.309931847641222 15.143747132603664 2 2 2
374 2 11.954768120817349 3.8493409599877846 13.41759761156055 0 4 1
742 1 9.430973740112293 7.042978746103916 16.708497937521123 1 0 -2
240 2 4.485642831377523 3.2634666771074583 19.39032657089571 -1 0 1
904 1 2.019551981851286 6.0104036820325915 18.874871936196865 0 0 -1
758 2 20.09948195835407 4.148136118267843 15.429377260091863 -3 2 -1
520 1 14.685328600329381 2.4690899117819294 13.198591491109577 -1 -2 0
189 2 14.85017236249513 5.244425846186065 12.271507678753142 -1 0 0
871 1 15.828296983928684 5.24421143931452 15.63178172095315 -1 1 1
849 2 10.664072490811003 4.682496390222743 20.633787761123596 0 0 -1
622 1 3.8790212172554814 4.038949041078202 17.665719071848144 0 1 0
398 2 9.935427965121226 0.13651451932794612 14.414674415722134 2 1 1
959 2 14.575925335095981 2.380544191748865 11.491529350709136 2 1 0
2 2 3.547899587719938 2.076026559640631 12.968265869706528 1 0 0
858 2 1.53317097287906 5.715696747598712 14.22437629439043 -1 0 -1
145 1 16.82383583369765 2.9296656681966233 17.937968749929453 3 -1 0
646 1 12.50009077860819 10.150756004977596 14.070568541597208 2 -1 2
74 2 18.72986262249171 3.362610806508696 11.677541217625247 3 0 0
952 1 5.582063091751088 5.5506861245983945 16.338819174182202 1 2 0
140 2 4.519817631705139 0.4779688830983888 16.373229447344873 1 -1 0