LAMMPS data file via write_data, version 15 Apr 2020, timestep = 6626000

576 atoms
2 atom types

3.8432772446896024e-01 1.7535673275496659e+01 xlo xhi
1.7932672446908526e-01 1.7330672275496784e+01 ylo yhi
5.2932772446903265e-01 1.7680673275496911e+01 zlo zhi

Masses

1 16
2 2

Atoms # atomic

394 1 1.4228520306582353e+00 1.5410972977992441e+00 2.7460212176489298e+00 8 1 0
67 1 2.3344599595141382e+00 3.2243424149855122e+00 4.5747616727009044e+00 -5 -2 -3
68 2 1.8849001421084870e+00 2.7540873370472814e+00 3.8855678663725359e+00 -5 -2 -3
538 1 3.3255127235147124e+00 3.7572177212549334e+00 1.8443286571531938e+00 10 5 1
540 2 4.2280896101218648e+00 3.9600094535143926e+00 1.5397947277842385e+00 10 5 1
395 2 6.5848016505810236e-01 2.0422536932439299e+00 2.3579997290773527e+00 8 1 0
396 2 1.0415480509002926e+00 8.2971336236268400e-01 3.3135385113578955e+00 8 1 0
128 2 4.0745337830145427e+00 1.9434889778965623e+00 2.1403335475745546e+00 -1 -1 1
129 2 4.1327342118604022e+00 5.1315612396516397e-01 2.7291703019968079e+00 -1 -1 1
381 2 3.8225494637614954e+00 4.2373909433314996e+00 4.3602759864619021e+00 5 -6 4
539 2 2.9595163583380044e+00 3.2925367310201561e+00 1.0509160650841751e+00 10 5 1
147 2 1.7045646990581245e+00 3.9716230574976269e-01 1.3830940840207337e+00 4 4 3
127 1 4.7133440542890819e+00 1.2647791658923146e+00 2.3879790109511920e+00 -1 -1 1
47 2 7.1737247090314460e+00 2.7318495005202896e+00 3.5581125923806067e+00 3 2 0
46 1 7.1216593613895807e+00 1.7870648844953090e+00 3.2418762079470924e+00 3 2 0
48 2 6.2324531669374830e+00 1.6475064955058598e+00 2.9157970881800450e+00 3 2 0
180 2 7.8778937424189230e+00 2.1550131904169501e+00 1.7606750991448641e+00 -2 7 0
565 1 7.4735096259906397e+00 4.3335861743878743e+00 3.9960161505516565e+00 -4 6 -1
196 1 5.7521745399383386e+00 4.3790270495027261e+00 8.4058757557777319e-01 -1 -8 -4
197 2 6.3995722777305266e+00 3.6562415325923721e+00 9.9305446119382501e-01 -1 -8 -4
178 1 8.1775179592499825e+00 2.6989429805644911e+00 9.8511369915048097e-01 -2 7 0
309 2 1.1439197660586695e+01 2.8927928010840445e+00 2.5115789573245202e+00 4 -1 4
307 1 1.2039102823267227e+01 2.6448947978250801e+00 1.8052283813544552e+00 4 -1 4
308 2 1.1773477504711535e+01 3.1252338804043727e+00 9.9377059922219280e-01 4 -1 4
423 2 1.2288948919889028e+01 1.0997558963499892e+00 1.6863441966696284e+00 -2 5 3
274 1 1.0694169558956425e+01 3.7788828990092997e+00 3.7941712404920080e+00 -5 -1 -2
276 2 9.7248958230662765e+00 3.9520489230647775e+00 3.9933468992235635e+00 -5 -1 -2
324 2 1.6340729077670833e+01 2.9301620533039707e+00 7.5792147446326441e-01 2 5 -1
173 2 1.3615118571187404e+01 4.0840447059323512e+00 1.6426075334241335e+00 0 -3 3
344 2 1.3421514123375296e+01 2.9054731737542649e+00 4.4582678758646681e+00 1 1 0
322 1 1.6997007148230903e+01 3.3077456919555468e+00 1.3831128963965189e+00 2 5 -1
252 2 1.5918398096275178e+01 3.4505612029850332e+00 3.7316031285774569e+00 5 1 2
251 2 1.5119603619020381e+01 2.1558179823649590e+00 3.1280795057163724e+00 5 1 2
250 1 1.5269101692623725e+01 2.7180395005716536e+00 3.9683196788977790e+00 5 1 2
478 1 1.5111904697225675e+01 3.2686943682458081e-01 2.1526994181462844e+00 -2 -2 -1
323 2 1.7524794331730451e+01 3.8849620950003656e+00 8.0716358739995520e-01 2 5 -1
553 1 1.8853104139250358e+00 8.6840441419964982e+00 3.5939112821433152e+00 -1 6 9
258 2 2.2696949546554182e+00 5.1904151895264157e+00 2.1867059123174628e+00 -2 5 4
257 2 2.1505587883078729e+00 6.4487007006830188e+00 2.9805357272490434e+00 -2 5 4
182 2 4.1893969249540639e+00 7.7096415658775355e+00 2.3384711799492188e+00 -8 -8 -1
256 1 1.5775655030982809e+00 5.8347785634695040e+00 2.4772244611284413e+00 -2 5 4
503 2 4.7703859156707457e-01 6.8027899518116257e+00 1.1363883949477613e+00 -1 2 3
181 1 4.3795467836423345e+00 6.7013820573898624e+00 2.2153971732511955e+00 -8 -8 -1
380 2 4.3510924875469481e+00 5.5506178917997335e+00 3.6238316544972413e+00 5 -6 4
379 1 4.5797788243364206e+00 4.9053881001236403e+00 4.3538790094116493e+00 5 -6 4
566 2 6.5066333211404821e+00 4.4942611782312110e+00 4.0622363112366164e+00 -4 6 -1
189 2 7.5503283347117884e+00 6.2563767832809072e+00 1.9111437417929500e+00 -1 8 1
187 1 7.0111917722307071e+00 7.0463433962753017e+00 1.9499581754800421e+00 -1 8 1
188 2 7.5312475403402495e+00 7.5444884744291967e+00 2.6072176637519249e+00 -1 8 1
151 1 8.7578741639915947e+00 7.9443807752298090e+00 3.6609677408659631e+00 4 -1 1
183 2 5.3320930007439715e+00 6.7664496005040933e+00 1.9540420749416714e+00 -8 -8 -1
152 2 8.5315636853696386e+00 7.5156003889586289e+00 4.5401155336430703e+00 4 -1 1
302 2 8.8438270419427081e+00 4.5922027239650447e+00 1.5112983180904755e+00 1 -3 5
221 2 6.0368306957263194e+00 8.3500108842158571e+00 4.6712431615157497e+00 1 2 2
295 1 1.2994853765484574e+01 8.5653542230866098e+00 1.1247579843861031e+00 0 -3 1
297 2 1.2867695542825494e+01 7.8389837004276952e+00 5.4632190333597475e-01 0 -3 1
367 1 1.1541425571587409e+01 8.4513825793902928e+00 3.7991215919317729e+00 -5 -2 0
153 2 9.7026083719222296e+00 8.1917004810787937e+00 3.7289144553311431e+00 4 -1 1
301 1 9.2879271396078611e+00 5.3873586767732862e+00 1.2510719584111061e+00 1 -3 5
275 2 1.0988388037113719e+01 4.7453615915028911e+00 3.6302904971738590e+00 -5 -1 -2
303 2 9.9795064701847913e+00 5.5760729376490410e+00 1.8852053122150441e+00 1 -3 5
27 2 1.1869610177821583e+01 6.8270113886388959e+00 3.2353079142507117e+00 -1 -6 0
26 2 1.2515534586156949e+01 5.6356684046985634e+00 2.4714470789147813e+00 -1 -6 0
25 1 1.1695364633149483e+01 5.9758409565607327e+00 2.8540811888444595e+00 -1 -6 0
174 2 1.4734755527345166e+01 4.9206119786742342e+00 2.2191148971506287e+00 0 -3 3
502 1 1.6909872403282403e+01 7.2718907542950406e+00 7.5747091159549274e-01 -2 2 3
510 2 1.7221280741249597e+01 5.4347778497859371e+00 3.3637390234242974e+00 -1 -2 -1
508 1 1.6311884383143141e+01 5.1210374955630353e+00 3.4723571104441797e+00 -1 -2 -1
172 1 1.3950913311186289e+01 4.9597538196470889e+00 1.6395028185748544e+00 0 -3 3
454 1 1.5262129883278565e+01 8.0401020345698271e+00 2.8282781963710613e+00 -2 -1 0
509 2 1.5974369521711729e+01 5.6154848123306724e+00 4.2863821332466170e+00 -1 -2 -1
455 2 1.5819196805504241e+01 7.5800289960963427e+00 2.1887190437345700e+00 -2 -1 0
456 2 1.5002887735219696e+01 7.5848084388482508e+00 3.6222104183722701e+00 -2 -1 0
296 2 1.3684976602100299e+01 8.3435579512252058e+00 1.8009005956783786e+00 0 -3 1
571 1 2.3554769134351772e+00 3.9768796805568507e+00 8.5776119563838993e+00 0 0 -3
69 2 1.7062405635525493e+00 3.7252229762653366e+00 5.1787171308765778e+00 -5 -2 -3
74 2 3.1024360752835314e+00 1.7705101819047409e+00 5.4894888954120882e+00 8 -3 -2
75 2 3.4373778229931311e+00 9.5080981330417624e-01 6.7530269957927800e+00 8 -3 -2
460 1 2.8139378677924243e+00 1.4491901477240001e+00 8.3793121103044825e+00 -1 9 1
73 1 3.6135885718813316e+00 1.0249507426124760e+00 5.8095867376957706e+00 8 -3 -2
347 2 1.2263190253346838e+00 4.2969026794216685e+00 7.3696976887085173e+00 -1 4 -2
462 2 1.8756844046778469e+00 1.1167314680185298e+00 8.3993186991367956e+00 -1 9 1
461 2 3.3860353675240180e+00 9.0695022833328609e-01 9.0157966902728415e+00 -1 9 1
573 2 2.6414594179539224e+00 3.0326856640460029e+00 8.4641469167552650e+00 0 0 -3
448 1 6.2622186733540888e+00 3.4040755677405641e+00 9.0646304675212175e+00 1 2 -4
567 2 7.6991914681660099e+00 4.2468628534776967e+00 4.9604354592153381e+00 -4 6 -1
438 2 5.2000123308215516e+00 1.6324370531622057e+00 6.3172484315967070e+00 1 -1 -1
437 2 6.6911845214835148e+00 1.3176929726427773e+00 6.7179147254362768e+00 1 -1 -1
436 1 6.0347867395108334e+00 2.0560590347894174e+00 6.7271786596944461e+00 1 -1 -1
312 2 7.4661412171727575e+00 3.1339465111575322e+00 6.6179779904595666e+00 -3 1 2
310 1 8.1472856348780596e+00 3.8701876367395021e+00 6.5717142269878988e+00 -3 1 2
449 2 6.1318924051583332e+00 2.7464840851593717e+00 8.3307276348971335e+00 1 2 -4
345 2 1.1919643673315322e+01 2.9764569156039364e+00 4.8436301749554787e+00 1 1 0
311 2 8.9896873299962117e+00 3.4858299280777931e+00 6.8829504995363200e+00 -3 1 2
93 2 1.2651634477237771e+01 2.6987748906542053e-01 5.6748517441637594e+00 0 -3 -2
576 2 1.0291718047508139e+01 9.1922599692942875e-01 7.9389929134536228e+00 -3 4 -4
343 1 1.2787465577518066e+01 2.7377319483792428e+00 5.2195529065750064e+00 1 1 0
439 1 1.0020409364867708e+01 2.8798299666883662e+00 8.0799445872829629e+00 5 -1 2
140 2 1.2591575597748843e+01 2.1981062616322551e+00 7.5706453168271874e+00 -4 -2 -2
440 2 1.0561908124123294e+01 3.5531086983168922e+00 8.5671167159143558e+00 5 -1 2
495 2 1.2982811110550974e+01 4.3575535589019996e+00 5.9788894559374475e+00 2 -2 4
139 1 1.3227262123884982e+01 2.2140724933598217e+00 8.3274211731704639e+00 -4 -2 -2
441 2 9.4797594760360919e+00 2.4897895673259978e+00 8.8391042580403898e+00 5 -1 2
216 2 1.4232961274671457e+01 9.1429285083377232e-01 8.2294253440444862e+00 1 -8 3
348 2 1.7107322057784344e+01 3.9318915766214850e+00 6.4798651864798229e+00 -2 4 -2
318 2 1.6718321416844507e+01 9.4052709040328464e-01 6.4115673209265589e+00 2 4 7
132 2 1.5413070257435718e+01 2.6311411527549793e+00 5.7434068036414141e+00 2 4 -7
130 1 1.5891915154421568e+01 2.6325711118742405e+00 6.6178040932591200e+00 2 4 -7
131 2 1.5230164877620814e+01 2.9500307869848945e+00 7.2745848907994910e+00 2 4 -7
235 1 1.7308595426783558e+01 8.7525949533659375e-01 8.9851828520168926e+00 1 1 1
215 2 1.5666242012669381e+01 5.0365701576542521e-01 8.6507021104462591e+00 1 -8 3
346 1 7.7378060399534210e-01 4.4722002010735853e+00 6.5198894090772193e+00 -1 4 -2
572 2 3.1504472414545206e+00 4.5187230194636046e+00 8.7503749312945764e+00 0 0 -3
1 1 4.6715937492121204e+00 5.4880829931441566e+00 8.6467707121460027e+00 -1 1 -2
39 2 5.4088318165207105e-01 6.3031850272033836e+00 6.7563754664348536e+00 -5 -7 -2
484 1 2.7664062918171850e+00 8.1321379040455994e+00 5.9032486239073361e+00 -3 1 -2
486 2 2.5884197161208919e+00 8.2115575859094658e+00 4.9093860339148607e+00 -3 1 -2
37 1 4.8891846139649586e-01 7.3073056241324013e+00 6.7816978236737411e+00 -5 -7 -2
38 2 1.4184882168853963e+00 7.4792982833712678e+00 6.4201908186998073e+00 -5 -7 -2
485 2 3.5773199675972940e+00 7.6249547808574096e+00 6.1012996203621670e+00 -3 1 -2
95 2 1.1361428817101704e+00 7.4031961914012490e+00 8.4668972692578457e+00 -3 0 -6
2 2 5.4312205770561901e+00 4.9004976402861580e+00 8.6719724613449856e+00 -1 1 -2
3 2 4.6852447726923625e+00 5.9656112785067474e+00 7.8182354737130506e+00 -1 1 -2
320 2 4.8673741323420563e+00 5.9429784256267650e+00 5.5043515659007634e+00 -6 3 -2
321 2 6.0689155017731853e+00 6.4160402230805991e+00 6.4138651794827162e+00 -6 3 -2
319 1 5.0683869460115423e+00 6.5783388643403473e+00 6.2448261814100698e+00 -6 3 -2
425 2 8.1397191870292467e+00 5.8643183712634022e+00 6.6401780368420376e+00 2 -1 4
424 1 7.8226653185534207e+00 6.7615344534563704e+00 6.3914505681624378e+00 2 -1 4
426 2 8.2991062019780628e+00 7.4652745405353187e+00 6.9861226777052394e+00 2 -1 4
43 1 9.6968917372160792e+00 8.4594670588048206e+00 7.3047588426501049e+00 6 -3 2
537 2 1.1099698417193343e+01 7.6520024069213965e+00 7.4573861962841548e+00 0 0 -4
536 2 1.2271105873108841e+01 6.4826234063129826e+00 7.2182815316056663e+00 0 0 -4
535 1 1.1967848641078167e+01 7.2012797638284782e+00 7.7945742855753446e+00 0 0 -4
493 1 1.3294368107054437e+01 5.1582628603178620e+00 6.4406151903901536e+00 2 -2 4
164 2 1.4508694677276203e+01 6.3920826813495246e+00 5.8470535442970757e+00 5 -2 0
205 1 1.5073576133913162e+01 4.5768847213540056e+00 8.5451456270662494e+00 -6 4 -1
163 1 1.5248020490533243e+01 6.7493647513761665e+00 5.3774645312606140e+00 5 -2 0
494 2 1.3777111413422055e+01 4.8150983523022539e+00 7.1751017748529833e+00 2 -2 4
474 2 1.4690540858146488e+01 8.2786962936965924e+00 8.3873163529970505e+00 -3 -7 -1
473 2 1.3339619622775340e+01 8.4407800576414296e+00 7.6348510892127255e+00 -3 -7 -1
165 2 1.5837290577802943e+01 7.2542194289750590e+00 5.9651230727824789e+00 5 -2 0
206 2 1.5250008071047812e+01 5.5177130627432867e+00 8.7701341668687807e+00 -6 4 -1
411 2 1.6001517693954652e+00 2.2616388680139061e+00 1.2897025357399409e+01 2 0 -1
409 1 2.1644566165477488e+00 1.6090731705859067e+00 1.2441404510958114e+01 2 0 -1
279 2 3.8057006901174164e+00 2.3149460914209716e+00 1.1263994288116226e+01 -1 1 3
410 2 2.9061875920005309e+00 1.4562483368593815e+00 1.2976627769889046e+01 2 0 -1
133 1 5.9709088784394360e-01 3.8431876395769256e+00 1.2702895829463127e+01 5 -4 -4
278 2 4.1856323352581546e+00 3.6228216479300519e+00 1.1878748776723667e+01 -1 1 3
277 1 4.5346440119555425e+00 2.9571366725001629e+00 1.1267346776662345e+01 -1 1 3
237 2 5.9742378243641547e-01 3.0458502515312114e-01 9.6617301595337928e+00 2 1 1
378 2 8.5380507815219153e-01 3.8540849916612392e+00 9.5110885884669827e+00 -5 -4 -2
453 2 1.5274692750549672e+00 3.4466891191454635e-01 1.1599977757731075e+01 -4 12 -2
443 2 8.0579885528344981e+00 3.9614177327196058e+00 1.1656876866573819e+01 -6 -1 -3
442 1 8.2029988371430491e+00 3.7295377720130207e+00 1.2567834783331728e+01 -6 -1 -3
138 2 5.7832982035350469e+00 1.9003061690597973e+00 1.1882301161030307e+01 4 -5 -1
288 2 8.1701378324210907e+00 1.9035688195095333e+00 1.0653582749065203e+01 4 -2 0
450 2 5.5517038012247957e+00 3.2631300542739026e+00 9.6737318715733487e+00 1 2 -4
287 2 8.4025051448679378e+00 6.8566216827550752e-01 9.7104180386729002e+00 4 -2 0
136 1 6.3568952236359424e+00 1.1355805464609232e+00 1.1981759357187100e+01 4 -5 -1
286 1 8.8308358882432856e+00 1.5055672628117880e+00 1.0082776871691856e+01 4 -2 0
444 2 7.2558588384516440e+00 3.5212092358067903e+00 1.2857462936462243e+01 -6 -1 -3
273 2 5.0715876882291946e+00 3.4373232238633561e-01 1.0678273792452863e+01 5 0 2
560 2 7.6128947201166319e+00 4.4236963196909249e+00 9.7145040577736594e+00 0 -6 -2
137 2 6.1339763943969929e+00 7.2826543780427189e-01 1.2852486349483373e+01 4 -5 -1
383 2 1.0969458597595001e+01 1.7441703828964064e+00 1.1242105193748230e+01 1 -4 0
382 1 1.1738091224628841e+01 2.2447545344158524e+00 1.1009182948351269e+01 1 -4 0
384 2 1.1484088790872178e+01 3.1612415943580352e+00 1.0762606039390588e+01 1 -4 0
552 2 9.0668345288344607e+00 2.4080299542682817e+00 1.3139264269692198e+01 3 -2 8
551 2 9.2872987890969299e+00 8.8307457226015695e-01 1.2911420957500725e+01 3 -2 8
550 1 9.6064607233769514e+00 1.6644745203377389e+00 1.3368876283196276e+01 3 -2 8
141 2 1.2728844299234158e+01 2.0862545627649789e+00 9.1836531733445756e+00 -4 -2 -2
377 2 1.6460314076673622e+01 4.0018418061893239e+00 9.5365915068568707e+00 -6 -4 -2
7 1 1.4437602793856870e+01 4.2160880618212788e+00 1.1141508130731641e+01 4 0 5
100 1 1.4436417265619305e+01 1.6031691946202373e+00 1.2430745614010759e+01 -3 2 4
9 2 1.4187179816328161e+01 3.3162076088529617e+00 1.1402403631354455e+01 4 0 5
134 2 1.7224071569640866e+01 3.6896693484877425e+00 1.1885541661367428e+01 4 -4 -4
376 1 1.7222032532671033e+01 3.5900563345398262e+00 1.0039750331801969e+01 -6 -4 -2
101 2 1.3496589089346189e+01 1.4568007557210445e+00 1.2408622401355991e+01 -3 2 4
207 2 1.4656083954801034e+01 4.3259147017703574e+00 9.4200329585525306e+00 -6 4 -1
102 2 1.4651346817349712e+01 2.3515203909194828e+00 1.2998510716688431e+01 -3 2 4
236 2 1.7064875874053580e+01 1.7478154579746992e+00 9.4434329014274727e+00 1 1 1
240 2 1.2113458897378129e+00 5.4790084662244967e+00 1.2255443442681855e+01 0 -4 -6
112 1 4.2756108233648424e+00 5.4762851586441998e+00 1.2704391742738267e+01 0 0 -4
94 1 9.1082874673181935e-01 7.3940811360497465e+00 9.4323724816203480e+00 -3 0 -6
113 2 3.2842573941484767e+00 5.6827247746509588e+00 1.2525055376818061e+01 0 0 -4
238 1 1.8051504375524874e+00 6.2045370087182050e+00 1.2432734188920765e+01 0 -4 -6
239 2 1.4489871514165278e+00 7.0149058394551966e+00 1.2004747905161112e+01 0 -4 -6
96 2 1.3480055147582677e+00 8.1759474654964794e+00 9.8884867748119589e+00 -3 0 -6
158 2 4.8991314288933685e+00 6.6779156101131845e+00 1.0068173845203848e+01 -4 4 -10
159 2 4.7706106592571507e+00 6.5987605451903040e+00 1.1609193784191154e+01 -4 4 -10
78 2 5.3401127707522846e+00 8.5161113287786900e+00 1.2211642999548870e+01 -1 -4 -3
559 1 8.4317556852486906e+00 4.6661460501786092e+00 1.0189834270816039e+01 0 -6 -2
157 1 5.0805182048101036e+00 7.2116221462578629e+00 1.0881959514595168e+01 -4 4 -10
526 1 7.6884007491692197e+00 7.2207479015828406e+00 1.0667601779171147e+01 -4 -6 -1
527 2 6.7119897761178153e+00 7.1881695984771552e+00 1.0715255343043253e+01 -4 -6 -1
528 2 8.0042573834585156e+00 6.9764185158118286e+00 1.1560954479251039e+01 -4 -6 -1
561 2 8.3290668209637957e+00 5.6164184322054815e+00 1.0310231357833128e+01 0 -6 -2
497 2 8.8157798760043118e+00 5.3808544226580128e+00 1.2903044939076180e+01 -2 4 -2
459 2 8.2228831000762455e+00 8.5746472204977433e+00 9.9273904432253772e+00 6 1 -3
496 1 8.8408924924649632e+00 6.3444121782563032e+00 1.2969186401003789e+01 -2 4 -2
364 1 1.1041164473558144e+01 4.5262315356369509e+00 1.0052243718235143e+01 2 4 -3
366 2 1.0095189048987921e+01 4.7331026794858184e+00 9.9847186155725485e+00 2 4 -3
148 1 1.1520481560366647e+01 7.2341517161039866e+00 1.0435580534060616e+01 -2 -6 -4
150 2 1.0987157380028448e+01 7.9291867743739815e+00 1.0786981641491526e+01 -2 -6 -4
177 2 1.1720033092307506e+01 8.0350835205956166e+00 1.3375824906300496e+01 -3 -7 -2
365 2 1.1444216813578279e+01 5.4022965616369270e+00 1.0330608011779553e+01 2 4 -3
149 2 1.1447968330609744e+01 7.2583917899106085e+00 9.4887353534091421e+00 -2 -6 -4
267 2 1.3095727985754712e+01 6.9566398251412007e+00 1.1461953101758029e+01 -4 2 0
176 2 1.0560689212448377e+01 6.8619891585352990e+00 1.3279912401061251e+01 -3 -7 -2
8 2 1.4121244238323838e+01 4.9479931648141440e+00 1.1718119684331723e+01 4 0 5
523 1 1.7087221958640086e+01 8.5359961014452939e+00 1.2807204862719761e+01 1 3 -3
525 2 1.6290097630006944e+01 8.0794679078646610e+00 1.3146493530270700e+01 1 3 -3
60 2 1.5057173794142283e+01 7.1591140742700130e+00 1.0207461500559090e+01 -1 -4 2
266 2 1.4243978006152165e+01 7.2511638911528618e+00 1.2551900967042657e+01 -4 2 0
265 1 1.4040621276553457e+01 6.7878055375304633e+00 1.1751302522940367e+01 -4 2 0
59 2 1.6553700587255115e+01 7.2051446664334895e+00 9.4591597216400807e+00 -1 -4 2
58 1 1.5532724687082546e+01 7.1546951304801771e+00 9.3721808792058781e+00 -1 -4 2
282 2 4.2144395064001268e+00 4.4303495333492049e-01 1.4758845038712558e+01 0 1 -7
280 1 4.2572208257067921e+00 1.3691330401794357e+00 1.4454479410971706e+01 0 1 -7
227 2 2.4180418990592889e+00 2.9045040463961747e+00 1.6531111105617420e+01 1 3 5
226 1 3.1089859576731578e+00 2.2270213488958905e+00 1.6751830632115734e+01 1 3 5
228 2 2.6792907540803763e+00 1.3876302033728063e+00 1.6829258069175296e+01 1 3 5
281 2 3.8232863774518258e+00 1.8346910695349876e+00 1.5152971048961463e+01 0 1 -7
79 1 1.5032969355575716e+00 4.4239451068965892e+00 1.6415858315946473e+01 -3 3 3
210 2 7.2552580259669908e-01 9.2954982525543728e-01 1.4606309627115962e+01 -3 2 1
471 2 5.5913141242000801e+00 2.4311747456085517e+00 1.4311526228286633e+01 -6 -1 -3
470 2 7.0043590379976788e+00 2.5092337649768188e+00 1.5065786640879796e+01 -6 -1 -3
469 1 6.3574690715945943e+00 2.9986218150175734e+00 1.4529145265124097e+01 -6 -1 -3
547 1 8.2958644712591294e+00 1.2771208045939713e+00 1.5724363333500309e+01 0 4 -1
179 2 8.3004360978292802e+00 2.1532067582794117e+00 1.7318351389384162e+01 -2 7 -1
549 2 7.7100809091401850e+00 5.3279841076046530e-01 1.5730122204422408e+01 0 4 -1
548 2 8.7484068050167583e+00 1.4597684776407824e+00 1.4830638994517434e+01 0 4 -1
429 2 1.0967113668119611e+01 2.3688187528261602e+00 1.4249208079711575e+01 3 1 -11
428 2 1.2248697549289178e+01 2.1535456304364398e+00 1.5266919847794117e+01 3 1 -11
427 1 1.1596206338258330e+01 2.8002937861669928e+00 1.4864064809032715e+01 3 1 -11
513 2 1.0999482822763353e+01 3.9841268309749513e+00 1.6097823720542046e+01 0 0 -7
110 2 1.2439400851478464e+01 4.0047702628476376e+00 1.4049906036116173e+01 -2 -3 -3
169 1 1.3037731952330361e+01 6.2176116636485479e-01 1.6044323829634237e+01 1 3 -5
171 2 1.2733708452958963e+01 4.6285519187715385e-01 1.6897652849674067e+01 1 3 -5
511 1 1.1293214669171990e+01 4.4629795672237877e+00 1.6939398202808519e+01 0 0 -7
534 2 1.4732402407373582e+01 4.0528620947590843e+00 1.4227103209693071e+01 3 4 5
135 2 1.7159859436345879e+01 4.0410830649980864e+00 1.3446096993120953e+01 4 -4 -4
270 2 1.4463803185435413e+01 1.4260671573686334e+00 1.6674928874095094e+01 9 5 9
268 1 1.5359698939069933e+01 1.8140712604737015e+00 1.6788861627046487e+01 9 5 9
532 1 1.5486338706322924e+01 3.5766048599894757e+00 1.4591712845002249e+01 3 4 5
533 2 1.5107157737445261e+01 3.2009396213068877e+00 1.5390388940977958e+01 3 4 5
269 2 1.5873114731681641e+01 1.1960828472733100e+00 1.6307187540150046e+01 9 5 9
208 1 1.7166031492564759e+01 3.7629623037564142e-01 1.4841211938955221e+01 -4 2 1
118 1 4.1966542556399850e-01 6.2399390411964895e+00 1.4688660838931659e+01 4 -3 0
119 2 1.1071853627544901e+00 6.4730345667512390e+00 1.4009182842668263e+01 4 -3 0
81 2 2.2549588585429063e+00 5.0336807664369454e+00 1.6596274987158672e+01 -3 3 3
570 2 3.2608838455395883e+00 7.8085685498767754e+00 1.5380832549620465e+01 0 -4 -6
476 2 4.1503606721667001e+00 6.0955793383934083e+00 1.6240990751701645e+01 1 2 -6
475 1 3.3543621026602013e+00 6.4272646496606773e+00 1.6663608023906029e+01 1 2 -6
80 2 9.5812109591464889e-01 5.0353422455536103e+00 1.5746170343718697e+01 -3 3 3
568 1 3.2804186634785473e+00 8.6144506544923214e+00 1.4812947274829037e+01 0 -4 -6
477 2 3.5779694930778181e+00 6.5404897962012098e+00 1.7639562469870683e+01 1 2 -6
114 2 4.3679827589792266e+00 5.5008002681518438e+00 1.3642144325769449e+01 0 0 -4
520 1 7.7339843494339009e+00 8.5640170336710710e+00 1.6796536067485178e+01 3 2 1
521 2 8.6983414067497957e+00 8.6381788002115911e+00 1.6594066092005569e+01 3 2 1
564 2 5.7384548568795939e+00 4.4990553971082461e+00 1.5061578990935439e+01 -7 -3 0
198 2 5.8478309980160557e+00 4.5101502109567759e+00 1.7018700069401007e+01 -1 -8 -5
562 1 5.4422683461325647e+00 5.3462347457001647e+00 1.5422066141887296e+01 -7 -3 0
260 2 7.3343211240358235e+00 7.7026079398723644e+00 1.5326662687802042e+01 -1 -1 1
261 2 6.5916404063292786e+00 7.9395957073444317e+00 1.3945864659229711e+01 -1 -1 1
563 2 6.0797884851458477e+00 6.0358514735787496e+00 1.5199367767696856e+01 -7 -3 0
259 1 6.9910634849874445e+00 7.2071262614707567e+00 1.4540012659898109e+01 -1 -1 1
498 2 8.2650281417101894e+00 6.6083757484946011e+00 1.3679260954173666e+01 -2 4 -2
522 2 7.6227238003715589e+00 7.8221295870653353e+00 1.7507962191312352e+01 3 2 1
72 2 1.0866080522106984e+01 8.0742556449311884e+00 1.6349892680915200e+01 2 4 -5
111 2 1.2549023975348938e+01 5.5628512352050725e+00 1.3619448867735642e+01 -2 -3 -3
109 1 1.2997415167566517e+01 4.7415788732341300e+00 1.3741748788807135e+01 -2 -3 -3
512 2 1.0486426348422988e+01 4.7859861737966458e+00 1.7420554274241049e+01 0 0 -7
175 1 1.1492106944949256e+01 7.0967845364071138e+00 1.3562491534092654e+01 -3 -7 -2
541 1 1.2046090963348950e+01 6.9025250440851798e+00 1.6259342399246645e+01 2 3 6
542 2 1.1570682081393205e+01 6.0304657066383465e+00 1.6432368755014931e+01 2 3 6
543 2 1.1943745532425352e+01 7.0580796010658826e+00 1.5277369250740490e+01 2 3 6
120 2 1.7435825842457209e+01 7.0326027020265967e+00 1.5202862950019167e+01 3 -3 0
225 2 1.4943968335134624e+01 5.2484182155647634e+00 1.7163859536298048e+01 0 3 -3
544 1 1.4979566016571761e+01 7.5095564878142618e+00 1.4109189712405787e+01 -1 5 0
545 2 1.4964443392912610e+01 6.9367848840211366e+00 1.4906922805977429e+01 -1 5 0
504 2 1.6464250357044797e+01 6.5317272561055546e+00 1.7467564176032106e+01 -2 2 2
223 1 1.5465106689015100e+01 5.7099624974929863e+00 1.6521297214215863e+01 0 3 -3
224 2 1.5812664547073883e+01 5.0485403605808328e+00 1.5915575805847029e+01 0 3 -3
546 2 1.4616890651821651e+01 8.3460970642725041e+00 1.4444710486612296e+01 -1 5 0
284 2 2.1115992597930617e+00 1.2280349712456072e+01 2.2177539148485579e+00 3 -5 0
283 1 2.9210317184874754e+00 1.2628814270539625e+01 2.5589144084346671e+00 3 -5 0
203 2 4.2193400643102885e+00 9.7585615901880320e+00 1.1825016417585879e+00 -1 2 2
202 1 3.8743882247764181e+00 9.5085312416585115e+00 2.1260527837274639e+00 -1 2 2
204 2 4.4751422815450779e+00 9.9478621215641230e+00 2.7936178369000015e+00 -1 2 2
554 2 1.1008287662801053e+00 9.2138851631378653e+00 3.7108584925284340e+00 -1 6 9
285 2 2.6262872107973010e+00 1.2875489653730531e+01 3.4325549237589748e+00 3 -5 0
555 2 2.4369188647967257e+00 9.1199930361787214e+00 2.9176962627554457e+00 -1 6 9
445 1 7.7031986194371704e+00 1.0561133075326245e+01 2.7586463955100355e+00 1 3 8
446 2 6.9258775101274743e+00 1.0955862241035684e+01 2.3362781692876951e+00 1 3 8
447 2 7.2340241533181144e+00 9.8473944429576186e+00 3.3057933232055006e+00 1 3 8
219 2 8.3900873979799346e+00 1.1564935083693232e+01 4.3260276857190405e+00 0 0 -2
220 1 5.8414534584534259e+00 9.2367968276795285e+00 4.3380861436536939e+00 1 2 2
492 2 4.6842458176547774e+00 1.2297380788142071e+01 2.1776131947718467e+00 1 -1 -7
490 1 5.6073269569973405e+00 1.2382510525935297e+01 1.9403258425814525e+00 1 -1 -7
15 2 9.2250483465747184e+00 1.0193396107541069e+01 1.9865303409660513e+00 0 1 2
13 1 1.0236591376514363e+01 1.0180687805389551e+01 1.9584273690733791e+00 0 1 2
368 2 1.1546754186185446e+01 9.0748944799467708e+00 3.0564215819305689e+00 -5 -2 0
142 1 1.0741559630781854e+01 1.2616934786141597e+01 1.3407461069767874e+00 -2 -2 3
144 2 1.0455845526827609e+01 1.1653520248384000e+01 1.4848221509185200e+00 -2 -2 3
369 2 1.1710179709821169e+01 8.8964649354674172e+00 4.6222208251023371e+00 -5 -2 0
14 2 1.0428599580176247e+01 9.5853280629524331e+00 1.2042741869867073e+00 0 1 2
342 2 1.2128191835399310e+01 1.1919371326986543e+01 4.2039593137697180e+00 0 1 4
340 1 1.3068944832421359e+01 1.1964934816352384e+01 4.2990290559974405e+00 0 1 4
400 1 1.7485800926974353e+01 1.1502112969486737e+01 1.7861786088833704e+00 -4 4 -4
402 2 1.7141652171199336e+01 1.0967856409630535e+01 2.6093133691278432e+00 -4 4 -4
401 2 1.7365162180557018e+01 1.0858636439847002e+01 1.0691516920129918e+00 -4 4 -4
403 1 1.6567044325693413e+01 1.0167449147873386e+01 3.7887472680905367e+00 3 6 2
404 2 1.5966560988887343e+01 1.0586534183963757e+01 4.4173823231268257e+00 3 6 2
155 2 1.4235138704526230e+01 1.1477488660180867e+01 1.1978233428246319e+00 -6 -4 4
341 2 1.3348327793102463e+01 1.2324244522472757e+01 3.4515428465028504e+00 0 1 4
405 2 1.6030136563177624e+01 9.4552280531609867e+00 3.3364145682000177e+00 3 6 2
115 1 1.4411795496912848e+01 1.3038424820053219e+01 2.2000193212562111e+00 3 -5 2
156 2 1.3652652176598396e+01 9.9148573302114986e+00 8.1221451268800937e-01 -6 -4 4
154 1 1.4234045157839603e+01 1.0723936377597889e+01 5.6631695983939245e-01 -6 -4 4
505 1 8.9745025043771698e-01 1.6113084763464617e+01 3.5040164760486969e+00 0 -1 4
506 2 1.8562250617945870e+00 1.6147870690105520e+01 3.3497504385735604e+00 0 -1 4
233 2 3.2210486458750029e+00 1.4339453148964273e+01 1.7249153437005398e+00 2 3 1
124 1 3.6141395187355458e+00 1.6269315529286292e+01 3.5454086336177784e+00 3 -5 6
507 2 7.7308426456407642e-01 1.6205732033685184e+01 4.4961370681713584e+00 0 -1 4
125 2 4.4886085500909383e+00 1.5728923088180210e+01 3.5161185946954685e+00 3 -5 6
145 1 1.7880569568231135e+00 1.7020642431321633e+01 6.1231107102450455e-01 4 3 3
126 2 3.4930674737598326e+00 1.6539695271434599e+01 4.4541092886877571e+00 3 -5 6
232 1 3.1465455660149146e+00 1.4681241766816310e+01 8.7206976673416436e-01 2 3 1
146 2 2.3236375784468413e+00 1.6245100787367534e+01 6.8298179797287240e-01 4 3 3
333 2 5.4809858706517618e+00 1.7181433453531845e+01 1.3199581435913104e+00 1 0 -7
374 2 8.7931031805996938e+00 1.6542962212192087e+01 3.8111876706127372e+00 2 -3 5
491 2 5.9158698419536950e+00 1.3170347885059627e+01 2.4756103575008015e+00 1 -1 -7
291 2 6.5656360101095324e+00 1.5146752775556044e+01 3.5697279016740224e+00 2 -1 -4
289 1 5.6961128458428183e+00 1.4669332168086788e+01 3.4298602169429846e+00 2 -1 -4
290 2 5.6580366505377429e+00 1.3944264835972074e+01 4.0628785185140250e+00 2 -1 -4
373 1 7.8084973556382451e+00 1.6502985653320767e+01 4.1335722448495140e+00 2 -3 5
332 2 5.0651710195910322e+00 1.5923892151527458e+01 5.7126721140178871e-01 1 0 -7
339 2 7.6473484315502196e+00 1.6386907164365926e+01 5.7222771586387611e-01 1 0 7
331 1 5.8302657136728016e+00 1.6429696148671788e+01 8.2409564115671485e-01 1 0 -7
375 2 7.3770688321935713e+00 1.7242253731333044e+01 3.6255761931190720e+00 2 -3 5
143 2 1.0571302554183086e+01 1.3096419485167017e+01 2.1847135373629647e+00 -2 -2 3
515 2 9.9041958127564147e+00 1.3244424728010728e+01 4.3919968879802287e+00 5 4 -3
406 1 1.2581545377957637e+01 1.4348235280256793e+01 6.9461075977363684e-01 0 -3 -1
408 2 1.2213466181474141e+01 1.5152923274264136e+01 1.1098590910226100e+00 0 -3 -1
108 2 9.8013405795481834e+00 1.6279962256114697e+01 1.9620243334377239e+00 -3 -2 3
106 1 1.0246873544936356e+01 1.6445134575512274e+01 2.7771648335541199e+00 -3 -2 3
514 1 1.0628512285481543e+01 1.3681866705341067e+01 3.8331973243406390e+00 5 4 -3
516 2 1.0427470982703605e+01 1.4650006280698591e+01 3.8032777789516028e+00 5 4 -3
107 2 1.1130636497461817e+01 1.6692538794931554e+01 2.4728503916382891e+00 -3 -2 3
407 2 1.1877230500341707e+01 1.3629725768620350e+01 8.7154438656507738e-01 0 -3 -1
421 1 1.2482959464159835e+01 1.7288382211466757e+01 1.4775655670619559e+00 -2 4 3
35 2 1.7365664772102750e+01 1.4904459647121937e+01 2.3549090371935186e+00 -3 -4 -3
327 2 1.4509788919067660e+01 1.5157822412187187e+01 4.7555502106186216e+00 -2 -4 6
36 2 1.7208221696761704e+01 1.3430870393397123e+01 1.7311185922750807e+00 -3 -4 -3
480 2 1.5212149433308394e+01 1.6723963179150449e+01 2.7889566077497427e+00 -2 -3 -1
34 1 1.6789305049641289e+01 1.4294906645651984e+01 1.7931054437768332e+00 -3 -4 -3
117 2 1.3760464585605611e+01 1.3532259660098717e+01 1.6789470000752935e+00 3 -5 2
116 2 1.5243206770014249e+01 1.3556761589100377e+01 2.2547245612737301e+00 3 -5 2
479 2 1.5593612772738272e+01 1.7213753508818293e+01 1.3298702140564518e+00 -2 -3 -1
326 2 1.5925381896452157e+01 1.4959254574888504e+01 4.5464743191656440e+00 -2 -4 6