LAMMPS data file via write_data, version 15 Apr 2020, timestep = 200000

972 atoms
2 atom types

2.1263708630897504e-01 1.9778415913692768e+01 xlo xhi
8.0056072119365496e-03 1.9983047392789402e+01 ylo yhi
1.2069156704903605e-01 2.0680080432951094e+01 zlo zhi
-3.1984078633543783e-01 -2.0872321373776873e-01 5.8422412897280555e-02 xy xz yz

Masses

1 16
2 2

Atoms # atomic

4 1 4.2008166437163785e+00 1.4997639692431826e+00 3.6410878968381528e+00 0 0 0
5 2 4.2004829088028508e+00 2.4660788951756603e+00 3.4707861975641294e+00 0 0 0
6 2 3.3952165032010702e+00 1.3247312219518634e+00 4.2603706614488148e+00 0 0 0
7 1 5.8398056736124602e+00 4.8824773740729119e+00 5.5280541775985368e+00 0 0 0
8 2 6.4638041862209938e+00 4.7884081202149638e+00 4.7793581036881756e+00 0 0 0
9 2 5.0171804351913432e+00 4.6611959426904415e+00 5.0779351301659306e+00 0 0 0
10 1 1.2766951115186562e+00 4.1521899114031342e+00 3.6542140816423716e+00 0 0 0
142 1 5.0063854530064003e+00 9.3514258129665979e+00 6.6884715976477749e-01 0 0 0
12 2 9.9075983992050809e-01 4.7660137797302076e+00 2.9483993931067629e+00 0 0 0
13 1 4.5203768852622677e+00 6.0433741944078205e+00 1.7201016495166719e+00 0 0 0
14 2 4.5534177263487532e+00 6.9634476646988892e+00 2.1472775138512037e+00 0 0 0
15 2 3.9333708713514564e+00 6.0460807889972639e+00 9.4473582049713767e-01 0 0 0
16 1 3.9223992988697742e+00 4.3675122535178739e+00 3.8442043216936255e+00 0 0 0
17 2 4.0581009489859721e+00 4.8594997317757374e+00 2.9607401439532270e+00 0 0 0
18 2 2.9196506283019188e+00 4.2133544680945541e+00 3.9248822943766437e+00 0 0 0
19 1 5.8794564093712909e-01 5.9213145786816357e+00 1.7383134626039343e+00 0 0 0
20 2 7.5034631860819867e-01 6.8625419834504946e+00 2.0621237009834683e+00 0 0 0
22 1 2.2429976290328861e+00 8.6908270374450136e-01 5.3878685616235433e+00 0 0 0
23 2 1.2461617806133658e+00 9.7414248925291058e-01 5.2545692681366489e+00 0 0 0
24 2 2.4778280229069911e+00 1.5466116670250862e+00 6.0356935722597909e+00 0 0 0
25 1 2.8180199655499631e+00 5.5625787243985787e+00 6.8017876203297831e+00 0 0 0
26 2 2.6974212857597597e+00 6.2053762733399980e+00 6.0637044986254818e+00 0 0 0
27 2 3.6836016399371774e+00 5.6465070545894154e+00 7.2636092944146728e+00 0 0 0
28 1 6.0991090883205548e+00 9.0464560147877071e-01 5.2008175754859565e+00 0 0 0
29 2 5.3780845625648448e+00 9.2094363331661766e-01 4.5574834517112510e+00 0 0 0
30 2 5.8834699748612023e+00 1.9985237356756151e+01 5.5138759700680415e+00 0 0 0
31 1 1.1074087892666444e+00 1.8097852594835588e+00 2.2725139678362356e+00 0 0 0
328 1 4.4818879561568670e+00 1.3028019952427450e+00 1.0289109194114806e+01 0 0 0
33 2 1.2176978383243242e+00 2.5401712771489331e+00 2.9080851026451513e+00 0 0 0
258 2 9.4769147778772460e+00 1.4197924559878432e+01 3.7793044024457498e+00 0 0 0
35 2 6.2213460302678758e+00 2.5582988656632182e+00 1.1311021233033023e+00 0 0 0
46 1 7.6892592701502274e+00 4.6531321633230274e+00 3.7319928116864509e+00 0 0 0
47 2 8.6023464759797470e+00 4.4386202341287353e+00 3.9217759306549489e+00 0 0 0
48 2 7.7027941224832075e+00 5.3925432042994119e+00 3.0718284210863489e+00 0 0 0
55 1 7.4564175844269771e+00 6.2769645234910962e+00 1.6976632259145585e+00 0 0 0
56 2 7.4135356240693886e+00 7.2330902450639432e+00 1.8851893105050996e+00 0 0 0
57 2 6.5469718955710707e+00 6.0983373206237896e+00 1.4455149333706514e+00 0 0 0
58 1 8.6277575244446201e+00 1.2511554489864538e+00 5.0436147613631590e+00 0 0 0
463 1 6.1563853315621464e-01 8.8012776764158662e+00 8.6082648373941399e+00 0 0 0
60 2 7.6655048456798243e+00 1.1887130118263860e+00 4.8323097601279565e+00 0 0 0
210 2 2.7046939614267729e-01 7.2709863505922430e+00 4.7318470914436412e+00 0 0 0
62 2 9.0942238630200976e+00 4.3469097470201170e+00 6.7961091515538223e+00 0 0 0
63 2 8.3008783305558982e+00 5.4609628541663575e+00 7.5116564584214922e+00 0 0 0
67 1 7.6922911951679334e+00 2.5604703810659419e+00 2.1485261849831851e+00 0 0 0
68 2 7.6744193090500019e+00 3.3388350663833219e+00 2.7962405919721922e+00 0 0 0
69 2 8.4262191302704466e+00 2.7555197151449291e+00 1.4786172170366287e+00 0 0 0
59 2 9.1040857195293903e+00 1.5207775354181583e+00 4.2113177483378772e+00 0 0 0
609 2 7.2508760200624467e+00 1.5458412894839988e+01 9.6670028734561679e+00 0 0 0
129 2 7.6164787902186182e-01 1.2163318437872386e+01 2.4966962190644164e+00 0 0 0
112 1 4.1798199272108212e+00 8.1398872235502502e+00 3.3998224157286101e+00 0 0 0
113 2 4.9629191316589765e+00 7.9398334220347531e+00 3.9802780507204663e+00 0 0 0
114 2 4.0878880893284961e+00 9.1162247594984027e+00 3.4342985393335952e+00 0 0 0
115 1 5.8574017287289575e+00 1.1094714217079510e+01 5.7794513420333189e+00 0 0 0
116 2 5.8076179195614861e+00 1.2044914818473860e+01 5.8787812778973629e+00 0 0 0
117 2 5.5715988999357622e+00 1.0599674727767024e+01 6.5451726091670439e+00 0 0 0
118 1 1.2814084368677556e+00 1.0888514117026624e+01 3.8677207734013184e+00 0 0 0
218 2 3.3845748223987351e+00 1.5849565735356901e+01 4.8410234825193948e-01 0 0 0
120 2 2.2100103153559916e+00 1.0764767181130090e+01 4.0759040767631038e+00 0 0 0
121 1 4.0746576516946380e+00 1.2814736235847567e+01 1.6719447622973953e+00 0 0 0
122 2 5.0534760832168706e+00 1.2730530451929360e+01 1.5629086014427362e+00 0 0 0
123 2 3.6531825566184679e+00 1.2619813413111759e+01 8.4836461263037521e-01 0 0 0
124 1 4.0052522350288982e+00 1.0756877941228218e+01 3.7828083919658275e+00 0 0 0
125 2 3.9615844625124383e+00 1.1238348208873536e+01 2.9731231569340126e+00 0 0 0
126 2 4.5159757998228764e+00 1.1089138982269313e+01 4.5175529979038913e+00 0 0 0
2 2 3.9270259141396204e+00 2.9228251848326843e+00 4.7422618364306296e-01 0 0 0
128 2 1.1812456122305441e+00 1.2369954338101289e+01 9.9505014345209963e-01 0 0 0
32 2 3.4545002211342485e-01 2.1413298853256122e+00 1.7177400033058017e+00 0 0 0
130 1 2.1380763924175259e+00 7.5129239560324059e+00 5.0125940370439661e+00 0 0 0
131 2 2.9070643716860172e+00 7.8146345802347925e+00 4.3986977575613571e+00 0 0 0
132 2 1.8803164384787909e+00 8.2622629062568951e+00 5.5477525885468175e+00 0 0 0
133 1 2.4921547640271471e+00 1.2422705767793799e+01 6.9613107098475915e+00 0 0 0
134 2 1.6303296127514051e+00 1.2552766583048603e+01 7.4810272950500485e+00 0 0 0
135 2 2.3473000157031256e+00 1.2770980252526373e+01 6.0685142616015213e+00 0 0 0
136 1 6.2164096856724598e+00 7.4507266116125317e+00 5.0932826897974026e+00 0 0 0
137 2 5.9430936539582300e+00 6.5994449129158745e+00 5.4189183296779992e+00 0 0 0
138 2 7.1374050690088415e+00 7.3307409792075928e+00 4.7222891815436769e+00 0 0 0
139 1 6.2318038176089585e-01 8.8632505010451830e+00 2.1266212746981483e+00 0 0 0
140 2 8.2305596170390849e-01 9.5539212531014179e+00 2.8245460237856639e+00 0 0 0
608 2 7.2482788373562856e+00 1.3989790163240771e+01 8.9837666047505422e+00 0 0 0
147 2 8.3736887385618672e+00 9.1010309414272754e+00 8.4652065928406484e-01 0 0 0
372 2 7.7938775468440751e+00 4.9115735074227480e+00 1.0285887154362436e+01 0 0 0
154 1 8.0009793150243631e+00 1.0577218813276183e+01 3.8483738107421983e+00 0 0 0
155 2 7.4310955638383218e+00 1.0662783306963920e+01 4.5671713395869453e+00 0 0 0
156 2 8.9025606689110894e+00 1.0478113490767862e+01 4.1272300606179098e+00 0 0 0
163 1 6.9301367387666977e+00 1.2734737669568380e+01 2.0466055841844231e+00 0 0 0
164 2 7.3894525716208221e+00 1.2091845288173948e+01 2.6782350000412407e+00 0 0 0
165 2 7.4108973036000965e+00 1.2507459665418246e+01 1.2036051142936686e+00 0 0 0
166 1 9.0216890228646580e+00 7.2849632518826306e+00 5.1299048670608576e+00 0 0 0
167 2 8.8822293460079607e+00 8.0258752830210707e+00 5.7419467419626491e+00 0 0 0
168 2 9.1679089822887416e+00 6.5057459101686250e+00 5.7399988462644576e+00 0 0 0
335 2 1.0746263875568312e+00 3.0737828377246275e+00 9.9210765965906980e+00 0 0 0
171 2 8.7527552794513266e+00 1.2734504850170325e+01 6.1282204976618964e+00 0 0 0
175 1 7.1278755344238993e+00 8.7806686036004447e+00 2.2193351247496445e+00 0 0 0
176 2 7.3931048092340212e+00 9.3983731698931923e+00 2.9171964186792163e+00 0 0 0
177 2 6.3272237047159496e+00 9.1144487543102297e+00 1.8104162725687512e+00 0 0 0
711 2 8.4270452337597543e+00 5.6342882937448167e+00 4.4515744015684411e-01 0 0 0
3 2 2.5974207105659897e+00 2.4598115058565133e+00 1.1063577716591233e+00 0 0 0
361 1 9.5232027797430412e+00 2.6385707478676066e+00 6.8729049955064143e+00 0 0 0
127 1 4.6217996569867364e-01 1.2452724304768811e+01 1.6435651297654179e+00 0 0 0
558 2 3.9862064231815042e+00 1.7765084681200044e+01 9.8701061107761952e+00 0 0 0
220 1 3.7058494468337444e+00 1.4442285794900801e+01 3.4817673907622515e+00 0 0 0
221 2 3.8472771447743059e+00 1.5364778138576996e+01 3.2466177676783343e+00 0 0 0
222 2 3.7155787897333252e+00 1.3976462189714129e+01 2.6122793877980888e+00 0 0 0
223 1 5.8357374682554131e+00 1.7848035324287466e+01 5.8698287667488245e+00 0 0 0
224 2 6.5795706168713295e+00 1.7562478980235170e+01 5.2626596429517374e+00 0 0 0
225 2 5.7967003718832810e+00 1.7208983665865077e+01 6.6322311216440548e+00 0 0 0
226 1 1.3147944441310766e+00 1.7228491794812911e+01 3.9390187001755770e+00 0 0 0
227 2 1.2198919087897981e+00 1.7982292890258051e+01 3.3142074570259021e+00 0 0 0
228 2 1.1267127764837648e+00 1.6418678421817241e+01 3.4775852850531033e+00 0 0 0
229 1 4.2357461770790623e+00 1.9486042265344715e+01 1.8300152237597638e+00 0 0 0
230 2 4.1566271520693086e+00 1.8651788469444163e+01 2.3371675338448190e+00 0 0 0
231 2 4.3197891063736060e+00 1.6634850911217530e-01 2.5517447271681779e+00 0 0 0
232 1 4.0277860976760502e+00 1.7335896881007749e+01 3.7361881519416626e+00 0 0 0
233 2 3.1288921710925397e+00 1.7217873925252363e+01 4.1944217729101743e+00 0 0 0
234 2 4.6136585983550633e+00 1.7569678059706995e+01 4.4788161149495203e+00 0 0 0
235 1 5.6192267810482122e-01 1.9159844400848989e+01 1.8300446419610401e+00 0 0 0
236 2 9.6713191878516780e-01 1.1141199285300214e-01 1.9095501709439653e+00 0 0 0
237 2 1.0246531448356739e+00 1.8943106877466583e+01 1.0086156190848778e+00 0 0 0
238 1 1.7619212756897662e+00 1.4238901769736849e+01 5.2020039866671031e+00 0 0 0
239 2 2.4554954364057893e+00 1.4302387343640437e+01 4.4518143938479779e+00 0 0 0
240 2 8.1253021706054396e-01 1.4324817594557976e+01 4.9582053826676935e+00 0 0 0
241 1 2.4672802416055823e+00 1.8837176729338204e+01 7.0783118562368585e+00 0 0 0
242 2 2.4069770810289137e+00 1.9346998595806788e+01 6.2941458505581895e+00 0 0 0
243 2 2.6603678456650890e+00 1.7877538300716132e+01 6.7979360357505980e+00 0 0 0
244 1 5.6851731216180506e+00 1.3713293194453099e+01 5.6455895718466973e+00 0 0 0
245 2 5.4594216150772361e+00 1.4445651227102324e+01 6.2745015328664753e+00 0 0 0
246 2 5.1051419161866800e+00 1.3728099748999588e+01 4.8803830981976741e+00 0 0 0
247 1 6.4075838288971976e-01 1.5308968136437485e+01 1.9946839844049236e+00 0 0 0
248 2 7.9206893497981834e-01 1.4315442599821548e+01 1.9247704972956603e+00 0 0 0
249 2 1.3610763013739378e+00 1.5558627868317277e+01 1.3909059999172861e+00 0 0 0
251 2 5.7400052269224728e+00 1.5656580204702626e+01 9.1030843243229076e-01 0 0 0
607 1 7.1637483431506448e+00 1.4965898957276465e+01 8.8297708622134987e+00 0 0 0
262 1 7.6490116405181068e+00 1.7326933560747449e+01 3.7694440820688406e+00 0 0 0
263 2 8.6005452271151341e+00 1.7186880129091350e+01 4.0076296261294129e+00 0 0 0
264 2 7.4470773754553719e+00 1.8226596106732082e+01 3.3478747241309779e+00 0 0 0
271 1 6.9839698660638252e+00 1.9825613133501903e+01 2.2140888993719994e+00 0 0 0
272 2 7.4516100926836257e+00 7.8743110834219654e-01 2.2659222324757256e+00 0 0 0
273 2 6.0524528762446517e+00 1.9710088658610331e+01 1.8867060373897393e+00 0 0 0
274 1 8.4173595601813496e+00 1.4145017706062943e+01 5.2645124292018686e+00 0 0 0
275 2 8.5833570375622426e+00 1.4945536860970247e+01 5.7813790224345105e+00 0 0 0
276 2 7.4230176536498549e+00 1.3971317109849689e+01 5.2733882045393079e+00 0 0 0
170 2 9.6414909498452950e+00 1.1844042483475015e+01 7.0530077550403254e+00 0 0 0
11 2 5.4611047344815478e-01 4.1984197598029818e+00 4.2869338409897191e+00 0 0 0
279 2 8.2039611697184327e+00 1.8947671877061794e+01 7.1201241101618438e+00 0 0 0
283 1 6.9776514676481654e+00 1.5457791553833129e+01 1.8805883970758746e+00 0 0 0
284 2 7.2801445313590509e+00 1.6144186557819836e+01 2.5653380659998009e+00 0 0 0
285 2 7.1092541538611869e+00 1.4582877881808454e+01 2.2070199687672258e+00 0 0 0
61 1 9.0025038117966556e+00 5.3304794576500338e+00 6.8128073797921571e+00 0 0 0
325 1 3.1595048586929941e+00 2.6358508284395747e+00 7.2400928775946918e+00 0 0 0
326 2 2.8728138684818769e+00 3.5729360470800784e+00 6.9882100384561481e+00 0 0 0
327 2 4.1708808375260826e+00 2.6694273708186493e+00 7.3870058814654440e+00 0 0 0
329 2 4.6464983746089068e+00 6.8337642411325672e-01 9.5492558243780188e+00 0 0 0
337 1 4.6383535870453088e+00 5.8891287545604136e+00 8.7866784645850249e+00 0 0 0
338 2 4.4335886255594348e+00 5.1907308693585321e+00 9.4335766908313410e+00 0 0 0
339 2 4.5730919978632425e+00 6.6466734963505836e+00 9.3170423096039734e+00 0 0 0
343 1 9.4904626581572671e-01 6.0333927726064855e+00 8.7360337590273804e+00 0 0 0
278 2 8.6740484972059821e+00 1.9431660189598617e+01 5.7896680130425038e+00 0 0 0
345 2 1.5223228065377170e+00 5.7765481045741662e+00 7.9892686185160668e+00 0 0 0
355 1 1.1013190995595368e+00 1.9048303478144657e+00 8.7773242280259094e+00 0 0 0
356 2 9.8419743749739663e-01 9.2161038538648443e-01 8.7664104028370637e+00 0 0 0
357 2 1.9649064908370106e+00 2.0638826478243844e+00 8.3818152338967682e+00 0 0 0
358 1 5.7350184403702791e+00 2.7435675600219125e+00 7.2655280443394075e+00 0 0 0
359 2 5.9098566758525699e+00 3.5431198059790416e+00 6.7311170369516473e+00 0 0 0
360 2 6.0865358713854505e+00 2.0291808507131637e+00 6.6802603348889713e+00 0 0 0
927 2 8.2683890299353937e+00 1.9281065622043634e+01 1.0378837336829649e+00 0 0 0
362 2 9.0823196856843111e+00 2.2491396220929287e+00 6.1225354058466834e+00 0 0 0
363 2 9.1332953011446776e+00 2.2658456748104379e+00 7.6811302680663847e+00 0 0 0
34 1 5.6046212488860947e+00 2.5772305738956525e+00 3.8660262318595889e-01 0 0 0
379 1 7.3257827498788677e+00 5.9786121061576543e+00 8.8257006190623883e+00 0 0 0
380 2 7.4397305987110647e+00 6.9692402805266616e+00 9.0158511565130635e+00 0 0 0
381 2 6.3273719333866865e+00 5.8397826292877388e+00 8.7810065671544439e+00 0 0 0
391 1 7.8756452373061094e+00 2.1250444355897491e+00 8.9010404307534703e+00 0 0 0
392 2 8.0167006139596673e+00 2.6152200630468760e+00 9.7594461305708631e+00 0 0 0
393 2 7.0718872935428596e+00 2.4807115836964231e+00 8.5605630613467039e+00 0 0 0
469 1 8.7557480803816965e+00 9.2743158513203543e+00 6.9741705187327137e+00 0 0 0
433 1 2.3580930669298228e+00 9.7931950391709641e+00 6.5626432856947003e+00 0 0 0
434 2 2.3730243988937501e+00 1.0774013482583232e+01 6.6812662878625204e+00 0 0 0
435 2 1.8659471469642130e+00 9.4927522106905329e+00 7.3826371752378188e+00 0 0 0
450 2 3.8746337481531694e+00 1.1515038459430256e+01 9.8338268985735091e+00 0 0 0
445 1 4.5959591485142886e+00 1.2473331955361104e+01 8.5549733051135526e+00 0 0 0
446 2 4.4587733945763928e+00 1.3304901453263140e+01 9.1396710186256342e+00 0 0 0
447 2 3.9180394677348604e+00 1.2535334222203172e+01 7.8301679050468085e+00 0 0 0
119 2 7.5666767882235875e-01 1.0959032778004341e+01 4.7474891275314608e+00 0 0 0
451 1 5.5748383615718522e-01 1.2940555949706457e+01 8.7531555776111603e+00 0 0 0
254 2 8.3505300880085525e+00 1.6003898213598262e+01 7.6594466845468889e-01 0 0 0
277 1 8.8012698740371729e+00 1.8649142679014680e+01 6.3524868266895558e+00 0 0 0
465 2 7.0540879539466605e-01 7.9808030237604815e+00 9.0551352506594931e+00 0 0 0
466 1 5.1198077542371907e+00 9.1674462609824090e+00 7.2797285110800400e+00 0 0 0
467 2 5.5082782928567395e+00 8.5479323260979427e+00 6.6069742600695722e+00 0 0 0
468 2 4.1335595223544024e+00 9.3596168804457918e+00 7.2511689655631892e+00 0 0 0
344 2 9.4165191657941949e-01 5.2206967101581112e+00 9.3041537139775841e+00 0 0 0
470 2 8.4377679271857300e+00 1.0090043247645458e+01 6.5078416398754788e+00 0 0 0
471 2 8.2258435070760321e+00 9.0388738743453469e+00 7.7583209207177477e+00 0 0 0
573 2 3.9278266795459799e-01 1.6305817807641290e+01 9.8696343439433729e+00 0 0 0
487 1 7.0649965343587819e+00 1.2416546700471324e+01 8.7293412409055584e+00 0 0 0
488 2 7.5357391746167028e+00 1.2020189944093934e+01 7.9586679941159275e+00 0 0 0
489 2 6.0601602814702256e+00 1.2376641398760338e+01 8.5797602291459256e+00 0 0 0
499 1 7.2320322624225444e+00 8.5879348296012665e+00 9.1501732788570340e+00 0 0 0
443 2 6.9244114974112470e-01 1.0247598191665876e+01 9.7692661899179463e+00 0 0 0
501 2 6.3954195185421705e+00 8.6270639859692917e+00 8.6031209333854903e+00 0 0 0
111 2 1.7987465229252317e+00 9.2543950879138794e+00 8.5942950482829084e-01 0 0 0
500 2 7.2681241885375867e+00 9.0206924321314403e+00 9.9836373016686668e+00 0 0 0
541 1 2.4245926727140397e+00 1.6048195703432320e+01 7.0657354314017553e+00 0 0 0
542 2 1.8568835791373910e+00 1.5946703708946798e+01 7.8993168973767496e+00 0 0 0
543 2 2.1837641154639114e+00 1.5393670185378893e+01 6.3934384228122427e+00 0 0 0
553 1 4.6647704908717591e+00 1.9130487297154772e+01 8.6350711527783552e+00 0 0 0
554 2 5.5813117359377875e+00 1.8888990743176592e+01 8.5215483604630542e+00 0 0 0
555 2 4.1147819181490082e+00 1.8918276658229161e+01 7.8230378316578566e+00 0 0 0
452 2 4.9301004390713565e-01 1.3900393706585595e+01 8.8822459297654230e+00 0 0 0
559 1 4.8620228479089839e-01 1.9221279235185747e+01 8.8146174401910766e+00 0 0 0
560 2 1.2154879020499636e+00 1.9004484017198330e+01 8.2748846307017612e+00 0 0 0
561 2 6.5165728503419129e-01 1.8838832034856900e+01 9.6971098862901037e+00 0 0 0
571 1 1.6448658076689238e-01 1.5646834515760824e+01 9.1542921265236146e+00 0 0 0
574 1 5.2454475952320472e+00 1.5859763416876316e+01 7.3982896398578237e+00 0 0 0
575 2 5.8441646659441275e+00 1.5535471753463613e+01 8.1542796800876225e+00 0 0 0
576 2 4.3166190490143634e+00 1.5765519048031285e+01 7.7443716329330314e+00 0 0 0
577 1 9.0160970530053355e+00 1.6202881487060935e+01 7.0266678432821772e+00 0 0 0
578 2 8.8990236143940233e+00 1.7072505941250490e+01 6.6123249264491948e+00 0 0 0
579 2 8.4581833862669544e+00 1.6171276099540407e+01 7.7988890062012324e+00 0 0 0
169 1 8.8546913543285743e+00 1.1800830911240558e+01 6.3952875852390765e+00 0 0 0
595 1 7.3961153208537036e+00 1.9320244455549869e+01 8.7861047219341852e+00 0 0 0
596 2 7.6756867803413780e+00 2.2634034277656490e-01 9.2618687766150281e+00 0 0 0
597 2 7.6112960805577865e+00 1.8591198690036201e+01 9.4260303518922850e+00 0 0 0
297 2 2.4476013022723148e-02 1.7651514287608236e+01 5.2072014549107486e+00 1 0 0
444 2 7.9938948100382268e-01 1.1716856122669345e+01 9.8250740473597400e+00 0 0 0
675 2 1.6014886996335522e+00 5.6319612745592673e+00 4.6383570161461463e-01 0 0 0
109 1 2.3965375639079336e+00 9.5562384348290106e+00 1.5617201417972304e-01 0 0 0
37 1 9.3835312092257563e+00 2.7342870118785103e+00 1.4983533315894415e-01 0 0 0
217 1 2.4977328129203875e+00 1.6047915686880870e+01 1.2754942469229316e-01 0 0 0
479 2 7.2599511830355832e+00 1.1553647961671372e+01 1.0114793566513445e+01 0 0 0
544 1 4.1727348390263526e+00 1.4514078024091603e+01 1.0252665763422252e+01 0 0 0
1 1 2.9568191948116520e+00 2.9534906261106726e+00 3.6181344456868902e-01 0 0 0
250 1 5.0977745728545028e+00 1.5815414759314480e+01 1.5217185406523998e-01 0 0 0
925 1 9.0072860479283570e+00 1.9028445433185155e+01 3.5288131845032161e-01 0 0 1
891 2 3.4835824841119369e+00 1.9169649446805728e+01 1.8145531120561187e-01 0 0 0
143 2 4.0653962835740600e+00 9.5626390221021005e+00 4.3276733506626502e-01 0 0 0
437 2 3.6830154326003717e+00 9.1620428252250772e+00 1.0397348436999543e+01 0 0 0
436 1 3.7549236809481701e+00 8.1738008453012139e+00 1.0370839966428793e+01 0 0 0
818 2 9.4505058197365948e+00 1.2359000946277558e+01 3.0738558031123964e-01 0 0 0
442 1 1.0133844037770574e+00 1.0945764658204808e+01 1.0381738652976713e+01 0 0 0
586 1 7.7851373783712043e+00 1.7213260484875669e+01 1.0396080591196402e+01 0 0 0
144 2 5.4738947453955484e+00 1.0184821212800800e+01 3.1845044856283133e-01 0 0 1
545 2 3.5077794620707055e+00 1.4235606213264903e+01 1.0898700083854074e+01 0 0 0
836 2 -9.8954652750435079e-03 1.1169261541111005e+01 1.8680294265784887e+01 0 0 0
533 2 3.9916164983622715e-03 7.4820621973250638e+00 1.2052184023619709e+01 0 0 0
336 2 4.8027816246357385e-01 4.0328677675625704e+00 1.0992504514301435e+01 0 0 0
426 2 5.5746656382003179e-01 1.0068328540600737e+00 1.1442757108216234e+01 0 0 0
557 2 4.0468185630383067e+00 1.6275789118586154e+01 1.0461483314423752e+01 0 0 0
331 1 5.6247408269890524e+00 4.6265270044773850e+00 1.2557157986127716e+01 0 0 0
332 2 6.5019927272790028e+00 4.7269130840680456e+00 1.2153171232398302e+01 0 0 0
333 2 5.0590281219859508e+00 4.2242971337937103e+00 1.1876679497406196e+01 0 0 0
334 1 1.2744099331939835e+00 3.8542496922003733e+00 1.0467476732659499e+01 0 0 0
551 2 6.3273922548363237e-01 1.7474286168765097e+01 1.1652175327276890e+01 0 0 0
110 2 1.9913679897520411e+00 9.1099552636775289e+00 1.9922877590431838e+01 0 0 0
346 1 2.3025164309877595e+00 7.6596225572913701e-01 1.1628981963417097e+01 0 0 0
347 2 3.0591147626679862e+00 9.0927989427807276e-01 1.1063775338207957e+01 0 0 0
348 2 2.4114434548554038e+00 1.2323227926196094e+00 1.2519151217530105e+01 0 0 0
349 1 2.2747182771114884e+00 5.1152824347735475e+00 1.3811365249074166e+01 0 0 0
350 2 2.1270749700600859e+00 5.7933658509634620e+00 1.3076435779144322e+01 0 0 0
351 2 2.2411330564536072e+00 4.1614091586877677e+00 1.3543815888640671e+01 0 0 0
352 1 6.1913909933597626e+00 5.9922994927223705e-01 1.2270657450069448e+01 0 0 0
353 2 7.1834139804752501e+00 5.8998211525771871e-01 1.2180986270895326e+01 0 0 0
354 2 5.7286445347932222e+00 1.9642824597726886e+01 1.2418581902174179e+01 0 0 0
341 2 2.9822722142059210e+00 3.7630614112806309e+00 1.0552654310213773e+01 0 0 0
382 1 8.7960249837638624e+00 7.4458581331446105e-01 1.2062530408785467e+01 0 0 0
383 2 8.7610935332215565e+00 1.9917258983730235e+01 1.2641338650785405e+01 0 -1 0
667 1 7.1911470154932644e-01 6.0823463513037073e+00 1.5737499116734341e+01 0 0 0
385 1 8.8756719235931882e+00 5.6465363242774780e+00 1.3628718135053653e+01 0 0 0
386 2 9.1462228879520513e+00 4.6799598280748498e+00 1.3565654382688249e+01 0 0 0
387 2 8.1157166702604968e+00 5.7654452769153499e+00 1.4301438777351173e+01 0 0 0
587 2 8.6954540032379644e+00 1.7170323211526373e+01 1.0724372278444172e+01 0 0 0
546 2 4.9428715950646422e+00 1.4324213910282380e+01 1.0779992586643129e+01 0 0 0
439 1 5.4825264273232541e+00 1.1451158166020255e+01 1.2543502081192576e+01 0 0 0
440 2 5.5091423779213011e+00 1.2477968809429266e+01 1.2560705954986195e+01 0 0 0
441 2 4.8329655906377376e+00 1.1445289747795044e+01 1.1733068618240075e+01 0 0 0
749 2 5.8311309409230327e-01 9.7933337416199362e-01 1.8957253371750955e+01 0 0 0
454 1 1.7909531183570735e+00 7.1869533609363243e+00 1.2104075452934216e+01 0 0 0
455 2 2.4442906356781249e+00 7.2808681431397364e+00 1.1385342935383065e+01 0 0 0
456 2 1.9806655155928881e+00 8.0008832524058455e+00 1.2672144493884904e+01 0 0 0
457 1 2.1324406436269281e+00 1.2203658888007798e+01 1.3776941620253744e+01 0 0 0
458 2 2.9639973645474194e+00 1.2318292606256369e+01 1.4302792979566441e+01 0 0 0
459 2 1.4063816984334567e+00 1.2413278332349140e+01 1.4439988818311349e+01 0 0 0
460 1 5.6447709303637223e+00 7.4823638227779048e+00 1.2395318627144189e+01 0 0 0
461 2 5.5920928707665691e+00 6.5667127188348626e+00 1.2768001375928995e+01 0 0 0
462 2 6.5496730673850072e+00 7.4981097412085029e+00 1.2044937586489530e+01 0 0 0
340 1 3.9589945835163851e+00 3.9031596653184017e+00 1.0537522141509788e+01 0 0 0
480 2 6.9889322788625767e+00 1.1211500040503479e+01 1.1602606176241444e+01 0 0 0
685 1 9.4889869931949473e+00 2.8847042959688998e+00 1.3773218403383355e+01 0 0 0
490 1 8.3461850438857006e+00 7.5842950875539739e+00 1.1779229508679235e+01 0 0 0
491 2 8.6120926253897725e+00 6.8520844682023183e+00 1.2399800102887955e+01 0 0 0
492 2 8.4659980512929582e+00 8.3286476604959958e+00 1.2407243147687925e+01 0 0 0
493 1 8.8173561929092923e+00 1.1982668218305374e+01 1.3404077980581850e+01 0 0 0
494 2 8.1432614741134728e+00 1.2231275277925056e+01 1.4099743293960888e+01 0 0 0
495 2 8.8699289478387282e+00 1.2611500757568319e+01 1.2683825921876185e+01 0 0 0
679 1 7.1073769840972256e-01 2.2589842101325779e+00 1.5994499567612364e+01 0 0 0
219 2 2.2788948738217876e+00 1.7045791490942364e+01 2.0483089398002388e+01 0 0 -1
674 2 2.3563167262190476e+00 4.6096482682964952e+00 2.0619118284907302e+01 0 0 0
931 1 7.0663123152256979e+00 1.5358155959271720e+01 1.5248929124068708e+01 0 0 0
924 2 7.0900202327866362e+00 1.4320055674604221e+01 1.8888677856132645e+01 0 0 0
889 1 2.5880259458017147e+00 1.8996449162561419e+01 2.0113698741374762e+01 0 0 0
547 1 6.0142645782188309e+00 1.7867579029718819e+01 1.2101793623169630e+01 0 0 0
548 2 5.2508752340029030e+00 1.7836101149777178e+01 1.1505340421203835e+01 0 0 0
549 2 5.7608464249578395e+00 1.7283248563299225e+01 1.2846406093185612e+01 0 0 0
384 2 9.4791767558662219e+00 9.9431869406991369e-01 1.1405503928455074e+01 0 0 0
562 1 1.8781990223006082e+00 1.4208795377334623e+01 1.1903753210297607e+01 0 0 0
563 2 9.1986025380745773e-01 1.4135084910691868e+01 1.1796988272444667e+01 0 0 0
564 2 1.9819530129632938e+00 1.3626895049005984e+01 1.2707566134298892e+01 0 0 0
565 1 2.1803240659106562e+00 1.8576594056465929e+01 1.3581143908044977e+01 0 0 0
566 2 2.0963618089663836e+00 1.9326828705663601e+01 1.2921443630018539e+01 0 0 0
567 2 3.0997772444030449e+00 1.8620442731053579e+01 1.3991113323990980e+01 0 0 0
568 1 5.7754019755131329e+00 1.4042741095085141e+01 1.2057213319823722e+01 0 0 0
569 2 6.7072980762271968e+00 1.4215922617897002e+01 1.1835865208945284e+01 0 0 0
570 2 5.4296430919331167e+00 1.4698665249270565e+01 1.2676242824158171e+01 0 0 0
905 2 9.4514605599365993e+00 1.4639461452397200e+01 1.7366268688258089e+01 0 0 0
486 2 9.3574640841574652e+00 1.0800094510105740e+01 1.0666974735750181e+01 0 0 0
588 2 7.2539263724200769e+00 1.7477583862886917e+01 1.1206112105197363e+01 0 0 0
598 1 8.5919852025509407e+00 1.4161791447301573e+01 1.1575500090531992e+01 0 0 0
550 1 1.1002413921012910e+00 1.7453531444048430e+01 1.0784230488540549e+01 0 0 0
600 2 8.7847468539016695e+00 1.4860267810686597e+01 1.2259177348505963e+01 0 0 0
601 1 9.0963516886872942e+00 1.8458727190684954e+01 1.3365350705641575e+01 0 0 0
603 2 8.3342003997386591e+00 1.8596261219571161e+01 1.4007699889051436e+01 0 0 0
330 2 5.1210091124360559e+00 1.0535328718335935e+00 1.0997818596608852e+01 0 0 0
709 1 8.9593018022991373e+00 5.5061714119658038e+00 2.0312160265974420e+01 0 0 0
649 1 2.8166656193644872e+00 2.2635469403181379e+00 1.3784261654007480e+01 0 0 0
650 2 3.7475427666966126e+00 2.3131414583094845e+00 1.4142161662857760e+01 0 0 0
651 2 2.3822527912464322e+00 2.1769082181237742e+00 1.4639187157823956e+01 0 0 0
652 1 4.3759129896749736e+00 1.2912837999188358e+00 1.7028913444720171e+01 0 0 0
653 2 4.3028680883312891e+00 2.2321287845499551e+00 1.6914831680411559e+01 0 0 0
654 2 5.1104419629830895e+00 1.1853842886294417e+00 1.7693557309846938e+01 0 0 0
655 1 5.6172735941551775e+00 4.6879001300303331e+00 1.9269602957467971e+01 0 0 0
656 2 5.4149141664533369e+00 5.5832454298768814e+00 1.9577599539649892e+01 0 0 0
657 2 6.5056314516252103e+00 4.6807084007471289e+00 1.8850753597159521e+01 0 0 0
658 1 1.0091325702028990e+00 4.2216922441226741e+00 1.7622343569817421e+01 0 0 0
659 2 8.8607318506661636e-01 3.4333252690127218e+00 1.7000807466874164e+01 0 0 0
660 2 1.0565882908214428e+00 4.9604117874268745e+00 1.7041136466999109e+01 0 0 0
661 1 4.3649673874097692e+00 5.7146383357192514e+00 1.5810103639717262e+01 0 0 0
662 2 4.3018084495156677e+00 5.0124207585679006e+00 1.6443279599638917e+01 0 0 0
663 2 3.8156685762417859e+00 5.3373309283113572e+00 1.5071961150853809e+01 0 0 0
664 1 3.7037141380752008e+00 3.9606896706567243e+00 1.7624837376592101e+01 0 0 0
665 2 2.7286849444197849e+00 4.0668506338517867e+00 1.7767852231156478e+01 0 0 0
666 2 4.1055285617167208e+00 4.2023687539129790e+00 1.8447660860894810e+01 0 0 0
781 1 2.4325865589590010e+00 1.2162943242380697e+01 2.0144101039116151e+01 0 0 0
668 2 6.4294624666629729e-01 7.0570879351015856e+00 1.5748969162292324e+01 0 0 0
669 2 1.1905274401879353e+00 5.8390101083034445e+00 1.4822504835224175e+01 0 0 0
670 1 2.2511800080161617e+00 1.3516913139304694e+00 1.8903560917021768e+01 0 0 0
671 2 2.5270666317627355e+00 1.9671645080728684e+00 1.9644439604909120e+01 0 0 0
672 2 2.6472331153713733e+00 1.7021076175848679e+00 1.8120403509847048e+01 0 0 0
676 1 6.1016284421917124e+00 9.4791893929204596e-01 1.9022228396111853e+01 0 0 0
677 2 5.8482637989877517e+00 1.7278423281056257e+00 1.9703163299128761e+01 0 0 0
678 2 7.0456644628726925e+00 9.7712445571994477e-01 1.8887312388588946e+01 0 0 0
474 2 9.6657574910823119e+00 7.5872886908667603e+00 1.0910363945419206e+01 0 0 0
552 2 2.0634507525579249e+00 1.7422797249830452e+01 1.0898222837733700e+01 0 0 0
681 2 8.6368423475542544e-01 1.3245517311780761e+00 1.6144584237038174e+01 0 0 0
682 1 5.5008163115852398e+00 2.6098329467104238e+00 1.4336501238059970e+01 0 0 0
683 2 5.6669278637009430e+00 3.3396402559964753e+00 1.3684180049965290e+01 0 0 0
684 2 5.7481804904313050e+00 1.8624363965097062e+00 1.3782549722202479e+01 0 0 0
371 2 8.8205273325889824e+00 4.0047663707158225e+00 1.0901279246700696e+01 0 0 0
687 2 9.1218059918802634e+00 2.1214914174320558e+00 1.3233858953763709e+01 0 0 0
694 1 7.6756582843371257e+00 4.3872234231253522e+00 1.7816745313601405e+01 0 0 0
695 2 8.6511419485088137e+00 4.2298183239162643e+00 1.8074438679522036e+01 0 0 0
696 2 7.4355038396678657e+00 3.6033593760628850e+00 1.7222435075496563e+01 0 0 0
703 1 7.1928502928017082e+00 6.0525942668303987e+00 1.5732843841863808e+01 0 0 0
704 2 7.4374094204986143e+00 5.4414155416921330e+00 1.6514024821023618e+01 0 0 0
705 2 6.2486543136736614e+00 5.7700648851471783e+00 1.5595482548902638e+01 0 0 0
706 1 8.8741727558181633e+00 8.5940022335388078e-01 1.8773877136185707e+01 0 0 0
932 2 7.2854027007130711e+00 1.5859265565698268e+01 1.6016992962333454e+01 0 0 0