LAMMPS data file via write_data, version 15 Apr 2020, timestep = 0

1944 atoms
2 atom types

-7.6629642656335406e-01 4.0748401426565678e+01 xlo xhi
0.0000000000000000e+00 1.9790771630264405e+01 ylo yhi
0.0000000000000000e+00 2.0483831717011384e+01 zlo zhi
1.7249110690279679e-02 -1.9007925758522504e-02 1.9638681016694193e-02 xy xz yz

Masses

1 16
2 2

Atoms # atomic

678 2 -1.5256089872960454e-01 1.1864565788478739e+01 1.2921709764607170e+00 0 0 0
1538 2 -2.1657752792945284e-01 1.5248939149806475e+01 1.1664335926353731e+00 0 0 0
666 2 7.0192918015465677e+00 6.1220838109034101e+00 5.6657724240520739e+00 0 0 0
1356 2 -9.8574172183207520e-02 1.9668099115943278e+01 3.2708153856963476e+00 0 -1 2
693 2 1.6344016378310950e+01 3.8305788849001385e+00 1.0085658243843007e+01 0 1 0
71 2 2.8912386063482649e+00 1.9206500209013065e+01 7.3290555891551967e-01 0 -2 1
1741 1 1.0226884028471939e-02 3.6764559520368576e+00 9.2689172417081878e+00 0 1 0
1576 1 1.9347876329240588e+01 7.2346713747304712e+00 4.9035053242466020e+00 0 0 1
319 1 -6.7652987892477279e-01 1.5221138893759185e+00 5.1387527667952881e-01 0 0 1
1087 1 1.1448052499634631e-01 1.0631100666978867e+01 9.2014328121204034e+00 0 1 0
672 2 2.1827485415241963e+00 1.8477875849960842e+01 5.9064600919173307e+00 0 -1 0
535 1 1.7853994860137373e+01 1.8142712834337004e+01 6.3363953890056859e+00 0 0 0
1151 2 7.6325125535710541e+00 1.0960859267368946e+01 1.6556299179880909e+00 0 0 1
717 2 1.7405270667658634e+01 5.4911316667280339e+00 3.0156333820509893e+00 0 0 1
306 2 1.4941317723601523e+01 1.0845541565610299e+01 3.4946515907833655e+00 0 0 1
1788 2 3.3783912452745901e-01 1.5588215249936660e+01 3.3295696036117666e+00 0 0 1
1135 1 1.6680538824981590e+00 1.1391632949249075e+01 5.8824628249307516e+00 0 1 0
2 2 -6.5098294497566267e-01 1.6796105253004320e+01 9.9680406974972673e+00 0 -1 0
1085 2 2.6759072468753446e+00 5.5529663313338631e+00 9.6244264794981405e+00 0 0 0
1111 1 1.1890914693833723e+01 1.6792035385213463e+01 6.3917586633221850e+00 0 0 0
484 1 7.8492921235246929e+00 1.9041617875076291e+01 1.7871959077587263e-01 0 -1 0
463 1 8.7212263614109471e+00 7.7385986171560281e+00 2.8706955136767345e+00 0 -1 -1
1527 2 6.1653396884196709e+00 1.1742703024585799e+00 1.6900840580577043e+00 0 0 1
1774 1 2.8960333868241137e+00 1.4020920777436739e+01 1.9758933303587429e+00 0 0 1
482 2 1.5313629729205211e+01 1.4949154113417125e+01 3.7722699600098970e+00 0 0 0
966 2 1.6761929501806957e+01 1.0596041180871604e+01 9.1375505283796397e+00 0 1 0
1768 1 -4.1630708784663301e-01 1.8556783868258254e+01 7.9324359015561630e-01 0 0 1
263 2 9.0188266714392000e+00 5.2206546023811971e+00 4.3281043399740238e+00 0 1 0
1574 2 4.5109648946468317e+00 1.2566230777879300e+01 6.1015049938524069e+00 0 0 1
713 2 7.7177259651373937e+00 1.0290921871495893e+01 1.0123113156868436e+01 0 0 1
1109 2 8.2854493500745754e+00 1.3243970477889016e+01 2.8105139921377531e-01 0 1 1
531 2 1.5299264804074468e+01 1.1545107915421593e+01 7.7729226730730474e+00 0 1 -1
722 2 5.8822454722280453e+00 1.5894758232474095e+01 1.0957761625541942e+00 0 0 0
701 2 7.3275461970940814e+00 7.0643447316676609e+00 8.0112673586881318e+00 0 0 -1
738 2 1.3980495863621238e+01 2.3264258256194772e+00 1.1070237950480051e+00 0 1 0
62 2 9.3523692551245290e+00 1.9427439198365704e+01 1.3392655663612121e+00 0 -1 0
725 2 1.8712887225743017e+01 1.3267449675964673e+00 5.6142181177304415e+00 0 0 0
689 2 1.6922855524236994e+01 4.4605248105709991e+00 6.4554438661033897e+00 0 0 0
230 2 4.6644883433299000e-01 1.5001479475144272e+01 5.9025435478834982e+00 0 0 0
312 2 1.8950508083051112e+01 7.4087872714549805e+00 1.0216566077694628e+01 0 0 0
1520 2 1.4812209431257166e+01 1.8129915937504780e+01 6.3489212347869195e-01 0 -1 1
1551 2 1.1921050854540368e+01 3.4563467954676628e+00 1.3071522446845873e+00 0 1 1
1579 1 2.5300532689064035e+00 1.1189159341578150e+00 8.5568843398898284e+00 0 0 0
25 1 4.3205169836228192e+00 8.0740011337307731e+00 7.2415241969814268e+00 0 0 0
914 2 1.8845059751779583e+01 1.6769091622904991e+01 3.6335028812415988e+00 0 0 0
1306 1 1.3224912696047936e+01 1.9051456240137316e+01 5.1872527443535006e+00 0 -1 1
965 2 1.8104385567959547e+01 1.0669654553813354e+01 1.0014839681306251e+01 0 1 0
684 2 -5.5580621521041396e-01 1.4166931066876042e+01 7.4837994866124298e+00 0 -1 0
905 2 8.2855133946666282e+00 6.4853601381930748e-01 8.3526764935234610e+00 0 0 0
1100 2 1.1667456997378800e+01 9.6297100186600346e+00 4.0499482467323586e+00 0 0 0
704 2 1.6505626795245178e+01 1.7328236158990631e+01 9.0621342681480321e+00 0 0 -1
10 1 7.9640090051894958e+00 1.3887216574259483e+01 8.9533055870899894e+00 0 -1 0
538 1 1.4512344194807326e+01 9.9131116803012986e+00 1.2929592385598829e+00 0 1 1
1761 2 4.2128805199883610e+00 1.0590624259377668e+01 1.2895604499341837e+00 1 0 1
234 2 1.1505031956444407e+01 8.1119739218886409e+00 1.0054168958920504e+00 0 0 -1
705 2 1.7517960418471020e+01 1.7604236436532251e+01 7.9748614893468126e+00 0 0 -1
1558 1 1.0304628059743036e+01 4.1673922473292970e+00 4.0265250164934789e+00 0 1 1
270 2 1.7887666018385357e+01 1.4274138366754727e+01 6.2926937124601814e+00 0 0 0
1173 2 1.4853523797119875e+01 1.7024099839419421e+01 7.7738481840008813e+00 0 0 0
750 2 1.9531274756058743e+01 8.8624867751994962e+00 1.6941497181494896e+00 0 0 1
96 2 4.9806243710106815e+00 1.3791330741657090e+01 9.6301921705988409e+00 0 0 0
108 2 1.5981691728731523e+01 1.3105516046555163e+01 6.0826712931739220e+00 0 0 1
314 2 1.5069183727554996e+01 1.5939162472213683e+01 5.6741809450623579e+00 0 0 0
733 1 1.5910212121833890e+01 2.5018722489172815e+00 1.4914319267834097e+00 0 1 0
682 1 -5.1326813450707798e-01 1.5126992966815644e+01 7.2049402808125231e+00 0 -1 0
65 2 1.2489410597684138e+01 1.0030274103929051e+01 8.6628982634264613e+00 0 0 -1
752 2 5.8172500428179674e-03 6.6963866550028444e+00 3.6410317387867828e+00 0 0 0
1371 2 9.1679413040936577e+00 1.5539563757210850e+01 7.6066141302418921e-01 0 -1 1
1158 2 9.4851415768594549e+00 8.8007875580210317e+00 6.7739844008454027e+00 0 0 0
11 2 8.0917415620344837e+00 1.3808069112132841e+01 8.0023133962046806e+00 0 -1 0
1139 2 7.0494013997622877e+00 1.5398388809194432e+00 5.3283040423215500e+00 0 0 1
1309 1 1.7963344683773915e+01 1.8343831798783501e+01 5.7521811584080795e-01 0 0 0
734 2 1.5801868810318581e+01 3.1027961355941609e+00 2.3361010134640625e+00 0 1 0
1805 2 1.0857389606287294e+01 1.4711260145740185e+01 8.4061355459345357e+00 0 0 1
61 1 1.0154040824640244e+01 1.8914724887160418e+01 1.3619258330045416e+00 0 -1 0
679 1 -2.4049377979953090e-01 8.1031522968609533e+00 7.8842500595196512e+00 0 0 0
100 1 1.9235826745578084e+01 4.7118818253459699e-01 4.0006709251052435e+00 0 0 0
58 1 -4.3204775049780703e-01 5.3867618437169309e+00 7.3631544125529969e+00 0 0 -1
12 2 6.9684192593840200e+00 1.4053144819910008e+01 8.8555781044116948e+00 0 -1 0
1121 2 1.8159359113876373e+01 1.5542374260646177e+00 7.6350372053783113e+00 0 1 0
276 2 1.0195033978159312e+01 9.5408769340044941e+00 1.0029835859444143e+01 0 0 0
1137 2 9.1612990410794581e-01 1.1823084594785957e+01 6.4189624036451516e+00 0 1 0
88 1 5.1529487673785344e+00 9.7911099357356424e+00 4.2319453926157831e+00 0 0 0
293 2 1.9746262323405414e+01 9.7970230799171851e+00 3.8164332983040503e+00 0 -1 -1
1112 2 1.1594143865995113e+01 1.6873911351906337e+01 7.3047014362783989e+00 0 0 0
1562 2 -3.2850847419807622e-01 2.0045732593380454e+00 6.9871836920480597e+00 0 1 0
777 2 1.9658185609586894e+01 5.6633780347414566e+00 7.5318258008626060e+00 0 0 0
1324 1 8.8472210705132284e+00 1.7833669580755409e+01 7.8814721976486606e+00 0 -1 0
1383 2 1.2150729363926866e+01 6.5092562528960451e+00 9.4885014412803592e+00 0 0 0
1549 1 1.1486526186243491e+01 4.2764573727187178e+00 1.6534466592291936e+00 0 1 1
1578 2 1.8907455487718810e+01 6.8182116593397009e+00 4.1210435096666469e+00 0 0 1
241 1 2.0968321562108847e+00 1.4108029065705360e+01 8.0274881407688543e+00 0 0 0
921 2 3.7923141179574902e+00 1.8060587940340291e+01 3.0915113745526428e+00 0 0 0
1780 1 1.2964241120455871e+01 1.6457676544795628e+01 1.8100947702587060e+00 0 0 1
271 1 9.9054083779329680e+00 1.5987827534463348e+01 4.9836706133343132e+00 0 0 1
537 2 1.7018418602546284e+01 1.8364287804026819e+01 5.8941849674093749e+00 0 0 0
1314 2 1.7555289171767581e+00 5.3552151249437951e+00 4.4001620537528350e+00 0 0 1
47 2 9.7731067159820828e+00 1.1502174015308979e+01 9.5975098714573015e+00 0 -1 0
317 2 1.5139183180176707e+01 6.9807945931318667e+00 8.9230748314799744e+00 0 0 1
1310 2 1.8871000561130433e+01 1.8577716217638159e+01 6.8820837043472560e-01 0 0 0
464 2 8.6410380674541347e+00 7.6320788324758002e+00 1.8290470779321411e+00 0 -1 -1
228 2 1.4558826528785449e+00 7.9589113177839694e+00 2.2761561542776279e+00 0 0 0
1591 1 1.7696194175609840e+01 1.5765672939438041e+01 2.2385220381226225e+00 0 0 1
662 2 -1.3917320012443968e-01 4.0439639074018592e+00 2.1948916490092012e+00 0 0 1
940 1 1.2724342897301524e+01 1.3385581683635430e+00 7.0608355127064453e+00 0 1 1
525 2 1.2643250908968321e+01 1.8914498780948438e+01 3.4871329535439961e+00 0 0 1
37 1 2.8219652058282483e+00 1.1946880420686535e+01 9.4464040485783567e+00 0 -1 -1
1540 1 1.1240776844648719e+01 1.8692856487882178e+01 8.7569023011138292e+00 0 -1 1
1403 2 5.9844967989746252e+00 1.6881602312608599e+01 6.5717092263451180e+00 0 -1 0
1521 2 1.5374022815932616e+01 1.9499998944730741e+01 1.8616812967220914e-01 0 -1 1
1832 2 -2.7328909520283956e-01 1.8366418799809299e+01 7.9679835509339219e+00 0 -1 0
304 1 1.5657949333237823e+01 1.1314108211610403e+01 3.8659192245752036e+00 0 0 1
683 2 -1.2547254967443244e-03 1.5451756137707239e+01 7.9208880943742530e+00 0 -1 0
451 1 3.2803301751519687e+00 3.3688546667339101e+00 7.1967257306807193e+00 0 0 -1
875 2 9.3254313936082163e+00 2.4242732296553711e+00 4.2528010537580982e+00 0 0 0
1519 1 1.4578825479526962e+01 1.9047533942283309e+01 4.8297468804522231e-01 0 -1 1
26 2 5.2481841216308016e+00 7.7387340513468006e+00 6.9683337120311997e+00 0 0 0
1 1 5.5081402007704283e-02 1.6859342111327905e+01 9.2941978930616092e+00 0 -1 -1
64 1 1.3261251957984580e+01 9.4607395366424303e+00 8.4353620891888017e+00 0 0 -1
749 2 1.8129826047037646e+01 9.0015184731303908e+00 2.3709231450911687e+00 0 0 1
742 1 1.4536504952016438e+01 8.5197448477533513e+00 6.2250323604372690e+00 0 -1 0
1810 1 1.0249252757073311e+01 1.1713199577922675e+01 6.1004433515674830e+00 0 0 1
90 2 4.8023351881765182e+00 8.8428460913166891e+00 4.2731561156110702e+00 0 0 0
1091 2 2.5858008315021004e+00 5.8111377882799555e+00 1.4657541186264205e+00 0 0 1
681 2 -1.4420196131575558e-01 7.1463239523688653e+00 8.0270064595884758e+00 0 0 0
1525 1 5.3491495447257948e+00 7.1804742639249663e-01 1.3990686004284114e+00 0 0 1
1088 2 -9.2467874499213121e-02 9.7588141131741324e+00 8.8531300069764409e+00 0 1 0
1751 2 1.7910682847294698e+01 1.0230386581854061e+01 6.8514661985533609e-01 0 1 1
1580 2 2.7990280889340786e+00 1.8796949622868468e+00 7.9993512654826198e+00 0 0 0
1548 2 8.0201586080088596e+00 1.8411894886887936e+01 4.7578162313969852e+00 0 0 1
971 2 1.2115636885553100e+00 8.6122877872256041e+00 6.9125629446651482e+00 0 0 0
1618 1 1.5559965099172175e+01 1.8361508515171057e+01 4.2494610285097858e+00 0 -1 0
1606 1 8.4237673408685687e+00 7.3392861878084696e+00 2.8514557364336124e-01 0 -1 1
264 2 8.4781755606679319e+00 6.6323146789083856e+00 3.8439543126053137e+00 0 1 0
68 2 3.4054560857749783e+00 1.6654203130121569e+01 9.7287318427939127e+00 0 -1 0
59 2 3.3501062484794697e-01 5.1648262044268316e+00 6.7470504301602636e+00 0 0 -1
703 1 1.7424581097577732e+01 1.7075540722492761e+01 8.7785263130707882e+00 0 0 -1
702 2 6.8303765721946661e+00 6.5820443811143994e+00 9.4242608346756267e+00 0 0 -1
1312 1 2.1063041275291101e+00 4.5536480795199648e+00 4.8431198302478284e+00 0 0 1
1781 2 1.2282900016022239e+01 1.6295262318133329e+01 1.1397596471439297e+00 0 0 1
1360 1 5.8279648431328592e+00 3.8874007335857619e+00 7.3524050671483767e+00 0 0 0
39 2 3.4866075448747784e+00 1.1321344047702262e+01 9.1696265112873299e+00 0 -1 -1
534 2 1.9037292736457047e+01 1.3904763376873181e+01 9.3835783526443866e+00 0 1 -1
1798 1 2.5574132901834457e+00 2.7338331449240432e+00 2.3282367398986885e+00 0 1 1
700 1 7.4253507610693514e+00 7.2497475529916162e+00 8.9657344727024277e+00 0 0 -1
72 2 1.7131040764445289e+00 1.9757890950516430e+01 1.6933275989143683e+00 0 -2 0
743 2 1.4134201675116303e+01 9.1699530636048543e+00 6.7796329912673974e+00 0 -1 0
272 2 9.3634284712167162e+00 1.5240135477565392e+01 5.4351652387354203e+00 0 0 1
38 2 1.9600127564947747e+00 1.1497276611059437e+01 9.5924491749767746e+00 0 -1 -1
1120 1 1.7726114443060059e+01 1.5953679697651477e+00 8.5447912380649385e+00 0 1 0
255 2 3.6301428768564294e+00 7.0962994851000998e+00 3.5444685511440990e+00 0 0 1
1831 1 -3.3851939948672427e-01 1.8946176555117294e+01 7.1774006641968704e+00 0 -1 0
1208 2 1.9524970200602613e+01 1.8664771154111993e+01 7.2721686083781929e+00 0 0 0
1398 2 1.8268557255912629e+01 9.5739992879607563e+00 8.1258482550785764e+00 0 -1 1
1155 2 1.5279625998187125e+01 1.3645563567072735e+01 1.9161461233727817e+00 0 1 0
63 2 1.0805990892203569e+01 1.9340157939937225e+01 1.9336419905087938e+00 0 -1 0
1759 1 3.9877841176143827e+00 9.7575905879427989e+00 1.6992060446469339e+00 0 0 1
313 1 1.4484399755160343e+01 1.6026801645009041e+01 6.4634400401932020e+00 0 0 0
523 1 1.2536225861608431e+01 1.8915818659177297e+01 2.5151539762443407e+00 0 0 1
73 1 1.7831217232643134e+01 5.8249665387635314e+00 7.7042910364548893e+00 0 0 0
1747 1 -9.9985762477863060e-02 1.0561659500470840e+01 2.5322683659892928e+00 0 0 1
1772 2 1.1637071288124776e+01 1.2117004504189190e+01 9.4808573514803189e+00 0 0 0
74 2 1.7309504497668748e+01 6.5559224981688073e+00 8.1222968845924246e+00 0 0 0
269 2 1.8173655068467042e+01 1.3530540995031501e+01 5.0568845976716732e+00 0 0 0
1330 1 1.6502957529616740e+01 8.5153056380914354e+00 2.4779909364281330e+00 0 0 0
941 2 1.3542732384344879e+01 1.7458897059538019e+00 7.4917828254969878e+00 0 1 1
1355 2 7.7019409585692533e-01 8.8063082543823823e-01 4.1509249833354325e+00 0 0 2
530 2 1.4577435427481946e+01 1.0639512062561735e+01 8.7448651944927676e+00 0 1 -1
238 1 1.2049553839359778e+01 4.7725891707092991e+00 6.0367755552450930e+00 0 0 0
1526 2 5.0266500838709618e+00 1.5672465235858263e-01 2.1262041252898056e+00 0 0 1
1833 2 2.8432472453217739e-01 1.8599559005556777e+01 6.4823005804730549e+00 0 -1 0
1150 1 7.5283162246772672e+00 1.1270215406187097e+01 7.3195189691513252e-01 0 0 1
1316 2 5.1700448236386354e-01 1.3327760641552496e+01 9.4885339951407417e+00 0 -1 0
1602 2 6.9493581184535014e+00 1.3205310015826850e+01 4.0703731429302916e+00 0 1 1
945 2 7.4222979947723200e+00 1.4801710240191145e+01 6.0927252180423901e+00 0 0 1
670 1 1.4489346157608236e+00 1.8092994654966436e+01 5.4669815588703248e+00 0 -1 0
1620 2 1.6181241267433478e+01 1.8791657628690768e+01 3.6639639817766931e+00 0 -1 0
1819 1 5.2972975872894805e+00 1.3836852090512897e+01 3.5224004937230089e+00 0 0 1
661 1 -8.6229711483587268e-02 3.1171796727355754e+00 2.5623964735971412e+00 0 0 1
920 2 5.1388209208022930e+00 1.8550092871598942e+01 3.6514910484349627e+00 0 0 0
242 2 2.5121678498487272e+00 1.3387032667784908e+01 8.5289862255142896e+00 0 0 0
1811 2 1.0753644945653258e+01 1.1818626872316784e+01 5.2211294968047941e+00 0 0 1
1347 2 1.5064449163638288e+01 1.9774310319871518e+01 8.6163058592404891e+00 0 -1 0
919 1 4.2486960871542223e+00 1.8859178013686552e+01 3.3999030452532772e+00 0 0 0
709 1 1.6881186064857413e+01 9.3757191710866490e+00 5.0998638485838805e+00 0 0 0
933 2 1.1928987123157373e+01 1.1540753804919119e+01 2.9065808522765475e+00 0 0 0
1577 2 1.9207613565522955e+01 6.6707747665403883e+00 5.6315607346675058e+00 0 0 1
7 1 -5.5298618338889138e-01 1.2425931191100329e+01 7.3360746934015637e+00 0 -1 0
1786 1 -1.0685630695213455e-01 1.6054757652432684e+01 2.5888742201570509e+00 0 0 1
877 1 1.0967458466329523e+01 1.2086878110144330e+01 1.3404026283031321e+00 0 1 1
494 2 1.8233480942749654e+00 1.6855427138972068e+01 2.7350599833740845e+00 0 -1 -1
1734 2 1.2562449164429406e+01 1.2236674172394110e+01 1.7672077871007782e-01 0 1 1
1601 2 7.7243195271597624e+00 1.1840240616613443e+01 3.9825052782973196e+00 0 1 1
268 1 1.7425029018547725e+01 1.3847151343153621e+01 5.5728471704887337e+00 0 0 0
1319 2 8.5497213595511479e+00 1.9798195209584433e+00 1.6878002155819716e-01 0 1 1
900 2 7.2569269446978346e+00 5.2247986892228591e+00 3.3009285748005333e+00 0 0 0
536 2 1.8440125831942872e+01 1.7595807669028485e+01 5.8577730824970100e+00 0 0 0
511 1 1.6050239099116247e+01 4.4404105410022385e+00 3.3724057913096126e+00 0 0 0
893 2 1.7502362546794794e+00 1.7949373308550500e+00 5.9208387800366058e+00 0 0 0
736 1 1.3002102645849638e+01 2.1958739436048478e+00 9.5644660000574178e-01 0 1 0
748 1 1.8960189799213438e+01 9.4959170161997601e+00 2.1844813189318284e+00 0 0 1
229 1 1.0138280142726197e+00 1.5343386346995658e+01 5.1517033934360059e+00 0 0 0
24 2 4.8599194966586392e+00 1.1076832268750593e+01 7.6197756636260960e+00 0 -1 -1
1089 2 -5.1092235721102708e-01 1.0728633357520184e+01 1.0008628646134030e+01 0 1 0
674 2 4.3375917849662171e+00 1.6233225590575970e+00 5.0453683921068624e+00 0 -1 0
970 1 1.8150048635630665e+00 8.4973029305573871e+00 6.1587834445899432e+00 0 0 0
675 2 3.7464672351814610e+00 4.3495952845465197e-01 4.4531386241823823e+00 0 -1 0
262 1 8.2625825993940261e+00 5.8528830024231793e+00 4.4364494021751648e+00 0 1 0
1172 2 1.4147896859939555e+01 1.7529904267712130e+01 9.0518692495843176e+00 0 -1 0
913 1 1.9447050391744238e+01 1.7509141142373633e+01 3.8921707437303752e+00 0 0 0
1311 2 1.7980327011889379e+01 1.7449212741253092e+01 9.5756920619549812e-01 0 0 0
873 2 7.5631477064613550e-01 1.1877107585260013e+01 3.2566916606148362e+00 0 0 0
22 1 4.8836474384451130e+00 1.0529920605897891e+01 8.4815469305926872e+00 0 -1 -1
1754 2 8.1646581588916001e-01 9.0148261453453826e-01 9.5962198172996285e+00 0 1 0
751 1 9.2207779918520449e-01 7.0308532313424230e+00 3.8773274834769369e+00 0 0 0
67 1 2.7390125281825837e+00 1.6610201408151468e+01 9.0531443280410873e+00 0 -1 0
673 1 3.4159232607078573e+00 1.3200608055978773e+00 4.8317586556078824e+00 0 -1 0
1313 2 3.0434610278463525e+00 4.6094590853259687e+00 4.5515279127888117e+00 0 0 1
1573 1 4.2668357411206985e+00 1.1649772433815992e+01 6.2312754464270013e+00 0 0 2
1748 2 6.2579547744445962e-02 9.7278189668559616e+00 2.0416588739874291e+00 0 -1 1
936 2 1.9294811410013178e+01 1.2572731843682302e+01 3.2564952347706306e+00 0 1 1
273 2 1.0227349697690050e+01 1.5608752159183192e+01 4.1498007073445340e+00 0 0 1
687 2 7.8808793804615913e+00 1.8669466917922533e+00 2.7441596998581446e+00 0 1 0
1346 2 1.6154204748599259e+01 1.1171628467371535e+00 8.7080779915556921e+00 0 0 0
735 2 1.6484592554510883e+01 1.6999027374261595e+00 1.8053234669122842e+00 0 1 0
1730 2 1.3375211167995325e+01 1.4052369310725572e+01 4.0805688191260838e+00 0 0 0
219 2 1.8012489285304838e+01 1.2374562485314669e+01 1.0574155932019702e+00 0 0 0
13 1 3.4963940348942302e+00 1.8684599159058138e+01 7.4013587257475786e+00 0 -1 0
1808 2 1.7774974190010514e+01 3.0549404955990689e-01 3.0180593988078233e+00 0 1 1
468 2 1.3322859104947186e+01 3.6532237687061007e+00 9.0278727350653405e+00 0 1 1
1742 2 -2.7845624295726479e-01 2.8042968290000769e+00 8.8608556208800469e+00 0 0 0
14 2 4.3957777666258160e+00 1.8552266276353652e+01 7.1012363764729676e+00 0 -1 0
253 1 4.3468905832657851e+00 7.3665211917479176e+00 4.0966857207388356e+00 0 0 0
1140 2 6.1654273670681556e+00 2.0820260956546361e+00 6.5054277253813817e+00 0 0 1
714 2 7.1828662810447339e+00 8.8703053288011926e+00 9.5666349212395012e+00 0 1 1
233 2 1.1730492689502077e+01 8.7248572051141977e+00 2.4536617735825446e+00 0 0 -1
878 2 1.0578284051108248e+01 1.2597147944901801e+01 2.1119188660358019e+00 0 1 1
1792 1 6.9388758318473185e+00 1.7965199841321109e+01 1.0132010050290543e+01 0 -1 1
753 2 9.2079836127236869e-01 7.5936299133649694e+00 4.6808786581993598e+00 0 0 0
485 2 7.0285502111975964e+00 1.8799125368844471e+01 6.7569071399824121e-01 0 -1 0
1184 2 8.8261105949194718e+00 6.4463130506622575e+00 9.4521338918685842e+00 0 0 0
1550 2 1.1207922329546481e+01 4.6960444659716671e+00 8.2659693313414617e-01 0 1 1
671 2 1.4362468707352578e+00 1.8624879923055662e+01 4.6586693304920814e+00 0 -1 0
744 2 1.5449880647225456e+01 8.8326520783741902e+00 5.9806350488981002e+00 0 -1 0
1147 1 6.6622174824210854e+00 1.7625404330574369e+01 3.7924231306225513e+00 0 0 0
1122 2 1.8255878595649872e+01 1.1536595755761736e+00 9.2741506679339469e+00 0 1 0
872 2 1.4705669608467282e+00 1.2619486540488195e+01 4.3290833146392389e+00 0 0 0
943 1 8.2296326961291886e+00 1.4296477613357977e+01 6.2732392968901749e+00 0 0 1
101 2 1.9344378792001169e+01 1.9288528446450933e+01 3.8866122260661848e+00 0 -1 0
931 1 1.2154758004538463e+01 1.1278767477687277e+01 3.8266330276692369e+00 0 0 0
452 2 2.9625907781055227e+00 3.7112181619597706e+00 8.0926488210060832e+00 0 0 -1
944 2 8.2541856673047000e+00 1.3493190003342699e+01 5.6524241612526609e+00 0 0 1
1332 2 1.6651792903520573e+01 7.6227356068636469e+00 2.1985525135640649e+00 0 0 0
1397 2 1.9290074720254182e+01 8.8457399473537706e+00 7.1867130918843349e+00 0 0 1
465 2 9.6250229937224230e+00 7.9793237060273441e+00 3.0187203574438448e+00 0 -1 -1
456 2 3.6895368449971286e+00 7.3378932532741237e+00 8.6604081361772778e+00 0 0 0
1325 2 8.7817950893767041e+00 1.7814610232093454e+01 6.8981229454605266e+00 0 -1 0
1782 2 1.2776217991806920e+01 1.7336430643495319e+01 2.1138883004140281e+00 0 0 1
1760 2 4.3530688253098093e+00 9.8018479971351677e+00 2.6218034882663650e+00 0 0 1
690 2 1.5558723017965850e+01 3.7454275313608645e+00 6.3631125714777443e+00 0 0 0
1776 2 2.1195974662210211e+00 1.3559320394483255e+01 2.3670774921958788e+00 0 0 1
518 2 1.4458086670572174e+01 1.3606928750913385e+01 8.9833127492612608e+00 0 0 0
879 2 1.0209133308471928e+01 1.1574307950601193e+01 9.2494690690736892e-01 0 1 1
720 2 1.3284592699411293e+01 6.5640846321429427e+00 4.0153131549735308e+00 0 0 0
1149 2 6.6320616624100808e+00 1.6907799387390043e+01 3.0999680143706412e+00 0 0 0
231 2 1.2560722064619854e+00 1.6236350694289467e+01 5.4156022923398988e+00 0 0 0
517 1 1.4052094957423849e+01 1.4415249372078906e+01 8.6965227880977753e+00 0 0 0
1804 1 1.1477644302085643e+01 1.4300003111395661e+01 7.8565857918294366e+00 0 0 1
1595 2 9.0290420549457266e+00 1.5283739402825555e+01 9.4087769380401785e+00 0 0 0
688 1 1.6482630245103277e+01 3.6959724926384547e+00 6.0248573391685873e+00 0 0 0
539 2 1.4277754577144075e+01 1.0769029240370612e+01 8.8625785622831077e-01 0 1 2
1308 2 1.4037824337778384e+01 1.8706053689268167e+01 4.8056866891661461e+00 0 -1 1
1807 1 1.6858693448679169e+01 1.1574986479924657e-01 2.6747076804365189e+00 0 1 1
15 2 3.1474909005544238e+00 1.7924514116918090e+01 7.9059919076882039e+00 0 -1 0
932 2 1.2406312956170742e+01 1.1953521742083746e+01 4.4066154252178666e+00 0 0 0
95 2 5.2495101441510776e+00 1.5290524403360845e+01 9.8123856358057733e+00 0 0 0
315 2 1.3591795053240547e+01 1.6236025473840886e+01 6.1838503198654449e+00 0 0 0
963 2 1.6015192339112826e+01 1.5864291665031361e+01 1.2386399485023449e+00 0 0 1
1800 2 2.5289859771275975e+00 1.9414754107709669e+00 1.7443140957553445e+00 0 1 1
512 2 1.5185965383454718e+01 4.8893168529278803e+00 3.0621879146873074e+00 0 0 0
60 2 -1.8905908484160994e-01 4.7188805025869724e+00 8.0851472622317750e+00 0 0 -1
27 2 4.5369649456400349e+00 8.9386968302493433e+00 7.5421394110408251e+00 0 0 0
925 1 1.2755363667895525e+01 1.3296378909207615e+01 5.6040089764646241e+00 0 0 0
685 1 7.5623274117711361e+00 2.2045132485471441e+00 1.8916793095619389e+00 0 1 0
676 1 -4.1397429600978181e-01 1.2415623825551380e+01 5.3700230037573327e-01 0 0 0
480 2 1.3429254207155839e+01 4.1221090755070833e+00 7.0516167848005056e+00 0 1 -1
240 2 1.2325645245938365e+01 5.5866961286339558e+00 5.6783806027816093e+00 0 0 0
1536 2 1.0754564045167392e+01 8.0180271605650226e+00 8.7328053239709771e+00 0 -1 0
1370 2 9.5570289271221007e+00 1.6863919517832283e+01 1.5364795349209515e+00 0 -1 1
1171 1 1.4600748582366077e+01 1.7860093424881466e+01 8.2341004729635259e+00 0 0 0
876 2 9.0396254373763139e+00 8.7888748589089338e-01 4.5919005185782771e+00 0 0 0
299 2 1.3840369760605634e+01 6.3074663244953886e+00 1.5844161992746078e+00 0 0 1
1345 1 1.5248031559323643e+01 8.6091903564027639e-01 9.0441102774949140e+00 0 0 0
1125 2 9.6714879482105633e+00 1.4873843144544031e+01 2.5890894817786969e+00 0 0 0
692 2 1.7329239849701182e+01 3.1299409502845315e+00 9.1292673972335425e+00 0 1 0
1084 1 2.6618200975204149e+00 4.6120103069640681e+00 9.3832084759307541e+00 0 0 0
711 2 1.7227696426632370e+01 8.7774924450878089e+00 4.4465025134103113e+00 0 0 0
894 2 1.1793604988663746e+00 3.0911094901385687e+00 5.2513973746777740e+00 0 0 0
694 1 1.8565379688913573e+01 1.4669836492167354e+01 7.7785810270076805e+00 0 -1 0
686 2 7.4277403716093158e+00 3.1435359090267352e+00 2.0612063221665609e+00 0 1 0
1594 1 9.8135420841379908e+00 1.5867927570013208e+01 9.5250803162467097e+00 0 0 0
300 2 1.2958570670867267e+01 5.2448792286853561e+00 2.3038858213773969e+00 0 0 1
316 1 1.4449288847912809e+01 6.5749568664511884e+00 8.3215305782892308e+00 0 0 1
321 2 -5.1655101920666902e-01 2.1938667252601625e+00 1.1872556824832812e+00 0 0 1
1092 2 2.9151628218766779e+00 4.4562633836293335e+00 2.1267798999584508e+00 0 0 1
715 1 1.8045815080327362e+01 6.3075158831410834e+00 2.8842586510278259e+00 0 0 1
1101 2 1.1749669089911780e+01 8.0150472953223346e+00 4.4902266235925872e+00 0 1 0
1113 2 1.1107675268008833e+01 1.6383566027993329e+01 5.9712784979310447e+00 0 0 0
232 1 1.2245835752198532e+01 8.3896003447370795e+00 1.6620683666330269e+00 0 0 -1
926 2 1.3571075373418696e+01 1.3106784296971227e+01 6.1301208567922973e+00 0 0 0
9 2 -4.4344356607577234e-01 1.1721740505990242e+01 8.0248433756859932e+00 0 -1 0
1769 2 -5.4899065930008928e-02 1.7813240139917532e+01 1.2456962348747149e+00 0 0 1
495 2 2.8379783904116951e+00 1.5820287109386502e+01 2.7609914230783517e+00 0 -1 -1
1394 2 1.9476975876088677e+01 3.7201602584638298e+00 5.3149716355760876e+00 0 0 0
305 2 1.6327524065287676e+01 1.0680564709541851e+01 4.1689142662925853e+00 0 0 1
509 2 1.3476420641627337e+01 1.5629707928421514e+01 1.0092894029711797e+01 0 1 -1
1563 2 -4.2224655417972501e-01 6.5428702190412147e-01 7.4322343915140623e+00 0 1 0
1382 2 1.2120776108733780e+01 4.9935063849675352e+00 9.8703442970838378e+00 0 0 0
1086 2 1.7418827577448042e+00 4.2795384439710356e+00 9.4968570317358623e+00 0 0 0
107 2 1.5354126390400541e+01 1.1765966727343372e+01 5.6220864692407266e+00 0 0 1
1331 2 1.5797947976774307e+01 8.9677241972802317e+00 1.8928029195388711e+00 0 0 0
1156 1 8.7366606257953414e+00 9.1286589383964127e+00 6.2622007137674851e+00 0 0 0
227 2 2.3756086246300030e+00 8.9230924973821502e+00 1.5257566128535369e+00 0 0 0
1136 2 1.5795632238333335e+00 1.0421011353674263e+01 5.8796849111368346e+00 0 1 0
1372 1 6.1296446353411573e+00 1.8789263001189294e+01 6.5453577430463428e+00 0 -1 1
459 2 1.7024002244324084e+01 8.4990549984386980e+00 9.5088220815116635e+00 0 1 0
898 1 6.9136692691893717e+00 4.6575868711227661e+00 2.5761202670470884e+00 0 0 0
691 1 1.7207861348991852e+01 3.9943450842732906e+00 9.5779907931602057e+00 0 1 0
89 2 4.8416992471251401e+00 1.0246302632488996e+01 4.9749502437367363e+00 0 0 0
1123 1 9.9256534171498156e+00 1.4077681729680362e+01 3.0049533630331209e+00 0 0 0
1592 2 1.8208934578725103e+01 1.4974531486211898e+01 2.1552431207213991e+00 0 0 1
663 2 8.3799321524170489e-01 2.9378207572662438e+00 2.8028895072690059e+00 0 0 1
1354 1 8.2762935585452646e-01 9.2323131309176923e-02 3.5281036165755024e+00 0 0 2
1534 1 1.0847856511349507e+01 7.7041500997285208e+00 7.8282488817139972e+00 0 -1 0
66 2 1.3662334009136829e+01 9.1238305121300289e+00 9.3022978690393341e+00 0 0 -1
1541 2 1.1757339598498046e+01 1.9089195415121925e+01 8.0884708676488533e+00 0 -1 1
1821 2 5.6698303124595562e+00 1.4577690131546714e+01 2.9668207193575071e+00 0 0 1
454 1 3.3828817890285841e+00 7.1253718903804861e+00 9.5860746993697603e+00 0 0 0
1560 2 1.0666360524558536e+01 4.1765595084811897e+00 3.1571797564748927e+00 0 1 1
70 1 2.1241131121987284e+00 6.5972213299842833e-02 8.3233417059831738e-01 0 -1 0
942 2 1.3105332479718856e+01 7.8100003388447703e-01 6.3679906164875844e+00 0 1 1
972 2 2.6646972158240225e+00 8.1320781671357114e+00 6.4671851767924933e+00 0 0 0
927 2 1.2184995494374240e+01 1.3704485484523596e+01 6.2573328900717948e+00 0 0 0
938 2 5.4486080359473448e+00 4.2275536207801290e+00 5.2804557529201190e+00 0 0 0
279 2 3.6653022093328484e+00 1.6952558751235416e+00 9.8163742970295331e+00 0 1 0
1099 1 1.1199813309729494e+01 8.7485111740892254e+00 4.0774548923679932e+00 0 1 0
906 2 7.2320412754156580e+00 1.5739946514068883e+00 8.8533018692116183e+00 0 0 0
445 1 5.5061293476338502e+00 5.1856650866810581e+00 3.3178891761899681e-01 0 0 -1
254 2 4.7608819331730041e+00 6.5568043967605076e+00 4.3978535265965100e+00 0 0 1
239 2 1.1174105795676155e+01 4.8925786577657195e+00 6.6093816480820626e+00 0 0 0
217 1 1.8556641531555975e+01 1.3026566080553515e+01 1.4652977025685177e+00 0 0 -1
1402 1 6.0331122028753636e+00 1.6082305195068034e+01 5.9928062328905600e+00 0 -1 0
1593 2 1.7078113353555420e+01 1.5612692029353889e+01 3.0325913673833571e+00 0 0 1
939 2 5.2427351885815918e+00 4.2607631956506511e+00 3.7785527810987762e+00 0 0 0
453 2 2.8754038273999365e+00 3.8688419690551554e+00 6.5079874982340540e+00 0 -1 -1
871 1 9.7222967415450001e-01 1.2753759645342653e+01 3.5198139597550004e+00 0 0 0
1138 1 6.1411655348613312e+00 1.6381859756668584e+00 5.6636951338979982e+00 0 0 1
243 2 2.7017308794763664e+00 1.4150844332401716e+01 7.2639670126379459e+00 0 0 0
1350 2 2.9955543650253493e+00 1.4979025941738646e+01 5.2473430221575601e+00 0 -1 0
478 1 1.4181168490364202e+01 4.1019951023270789e+00 7.6331988740415078e+00 0 1 -1
3 2 9.1353618081980659e-01 1.6818729816863616e+01 9.7143487277060618e+00 0 -1 0
23 2 5.7854694794916082e+00 1.0227771048517781e+01 8.9219994845064310e+00 0 -1 -1