LAMMPS data file via write_data, version 8 Apr 2021, timestep = 4245000

1008 atoms
2 atom types

0.03807206385100715 18.445327936147805 xlo xhi
0.1489461295611774 22.268253870436208 ylo yhi
0.26514880033093 19.12503319965662 zlo zhi
-0.20610372278299596 -7.010455131432332 -0.291555922361494 xy xz yz

Masses

1 16
2 2

Atoms # atomic

1 1 1.3373886802034152 4.464579457785895 2.6990250877840514 0 0 0
2 2 2.063888580773639 4.972505543868005 3.159527963714117 0 0 0
3 2 0.990746525749965 3.7960849566711548 3.3061493490937384 0 0 0
4 1 2.935541201202569 5.965162449895137 3.8673795150926082 0 0 0
5 2 3.6488278653964414 5.6464913516204405 4.444302951440524 0 0 0
6 2 3.1175553611578146 6.810337865432487 3.303419910671534 0 0 0
10 1 0.4586358081288385 2.912432514534246 5.115453675700362 0 0 0
11 2 0.4662573202737832 3.5796106978666753 5.799176505624063 0 0 0
12 2 -0.45540328346487957 2.6265382801300343 5.049105281183439 0 0 0
14 2 1.8258682462689688 3.7167607369493547 1.018459750349887 0 0 0
16 1 3.207737692042682 0.7308837814800189 2.498823117313248 0 0 0
19 1 0.4231304697503882 0.7158361891660536 2.653783046518824 0 0 0
24 2 -1.3257723769891374 0.9754482589596145 7.031993624990739 0 0 0
28 1 0.7734405574484835 2.3183744821500345 8.878916982810054 0 0 0
30 2 0.43190063855054833 1.6751447743157952 8.243395848185951 0 0 0
31 1 0.41962708230690166 6.941386778948808 4.82558475721492 0 0 0
32 2 1.2548279665874744 6.439598865451743 4.653105043379563 0 0 0
33 2 0.26487489267984565 7.5172957270187455 4.017031355684852 0 0 0
36 2 -0.547008889701812 6.981967497728391 8.743682244035417 0 0 0
37 1 -2.151883211009895 4.448627846151479 7.487742015604548 0 0 0
38 2 -1.2918164655688573 4.713316636309091 7.108203369152076 0 0 0
39 2 -1.9660491677248144 3.9835615410665723 8.280666351954588 0 0 0
40 1 0.6670226217877243 4.582104329045701 7.23153775778706 0 0 0
41 2 1.4401495084078744 5.1564025262320685 7.1802078934676 0 0 0
42 2 0.8870550492279995 3.8876504626491104 7.8929846213160815 0 0 0
43 1 4.271791563725372 3.6884172029618245 7.051794270753792 0 0 0
44 2 4.829399691641692 3.9803281748297428 6.3418621968487905 0 0 0
45 2 3.648405170259865 2.9965204162991497 6.726896542855436 0 0 0
46 1 2.794432411517993 1.7072271252082607 6.280288187435719 0 0 0
48 2 2.0274779488088974 2.124184610001881 5.888976499656754 0 0 0
49 1 5.33686752294219 1.781004468043253 8.587168849045097 0 0 0
50 2 5.019958667983264 2.547634381524279 7.987295703428894 0 0 0
52 1 5.097359511491736 4.467574262560924 4.623173484097575 0 0 0
53 2 5.994713874772059 4.892064936108927 4.433009255779276 0 0 0
54 2 4.9455622627976865 3.902812126210339 3.813791114898152 0 0 0
57 2 4.148466477908941 4.373546129467019 8.768985402342818 0 0 0
58 1 2.670176033174002 6.722943792975789 7.023033100616639 0 0 0
59 2 3.465652366182709 6.11037991115134 6.8377417463993595 0 0 0
60 2 2.9695509316515842 7.058894169635357 7.888225364800134 0 0 0
61 1 5.357665223076735 6.509072222735584 6.9959125505733875 0 0 0
62 2 5.622160740139007 7.171656097492149 7.633492773325875 0 0 0
63 2 6.053065326879315 5.8664276113087235 7.0727584254935385 0 0 0
64 1 6.235181905222621 7.054640118816155 2.8401263408122768 0 0 0
65 2 6.860495723163911 6.4850769864561 3.3524732612585333 0 0 0
66 2 5.859850017770864 7.778084992153771 3.3881733798186073 0 0 0
67 1 7.734108244685712 5.122230928224126 4.14133232340268 0 0 0
68 2 8.059170117544348 4.287178176102918 3.871408213705226 0 0 0
69 2 8.451732041972353 5.630449928690392 4.651163312126636 0 0 0
70 1 4.915716784920915 5.387373870744344 1.0282423159422964 0 0 0
71 2 5.20184984121334 6.1307929512842945 1.624272776907782 0 0 0
75 2 4.293229607508046 0.9641413661230752 5.167800869961356 0 0 0
79 1 7.7239550548761065 2.8148436855255 2.4970622311746467 0 0 0
80 2 7.755789277503062 3.2821073599161554 1.614069133793715 0 0 0
81 2 6.770841349390062 2.5995696736085505 2.578247286616896 0 0 0
82 1 5.044790427649358 2.938604170007499 2.3950791071657838 0 0 0
83 2 4.869812221343944 3.635893872025894 1.7321052838779742 0 0 0
84 2 4.396613431492404 2.2409501947406394 2.2652835240321596 0 0 0
91 1 9.350654914462723 6.0784582310891775 0.8914317715634366 0 0 0
104 2 8.94930122761973 1.4013288327988045 2.3092487245837545 0 0 0
109 1 7.37522479462124 2.2439732964491057 5.6913836673419445 0 0 0
110 2 6.443216546264228 2.117135557167024 5.377164174187701 0 0 0
111 2 7.450387733429073 3.1444340606204855 6.066556249742838 0 0 0
121 1 7.484052182037441 4.530093884178529 7.091795755879267 0 0 0
123 2 7.582207234897428 4.046372970606291 7.941066613463013 0 0 0
153 2 -1.0091050154459182 5.686997881049921 4.467016668173222 0 0 0
180 2 -0.40112324087776874 9.924874145293243 5.3304464280340005 0 0 0
184 1 3.176195581437663 8.325219093580612 2.3528045005017044 0 0 0
185 2 2.876111802852565 7.818306221033715 1.5047825462965716 0 0 0
186 2 2.3595599560642904 8.773113083008406 2.527248213826165 0 0 0
187 1 0.1435283461448702 8.334048284412747 2.6633887923656165 0 0 0
189 2 0.07753113745167936 7.746499729013831 1.9194603185199268 0 0 0
190 1 -0.4940915427751956 7.7879562557965984 7.254312128035153 0 0 0
191 2 -0.23128459041316068 7.31159550159 6.418301910552811 0 0 0
192 2 -1.316434402734557 8.207864171405063 6.962055240758082 0 0 0
198 2 0.8083572141258916 8.923485944844382 8.087315776429799 0 0 0
214 1 2.6625212845980286 8.964239141963422 5.82001397214908 0 0 0
215 2 2.577055805901909 8.079010703077106 6.174834456551751 0 0 0
216 2 1.727600648353515 9.206409005580287 5.488594462377362 0 0 0
217 1 5.742383989339887 8.66438450211385 8.692463174387006 0 0 0
218 2 5.439195839505878 9.453935595350492 8.152928048772885 0 0 0
241 1 5.092903911215445 8.381937260983703 4.930994948817308 0 0 0
242 2 5.126683300105335 7.681288058767376 5.6368718106907965 0 0 0
243 2 4.137367409636831 8.588098102633827 4.9405130579127015 0 0 0
245 2 6.526870047048401 7.825611117090733 1.2302631941992148 0 0 0
247 1 7.627899025727355 10.293611241922926 2.8159450123303778 0 0 0
249 2 6.620348099640885 10.216936003363008 2.746453144201866 0 0 0
250 1 4.825224294971848 10.430463095966497 2.7066910050446 0 0 0
252 2 4.232116806102963 9.634784909319613 2.5769568144294346 0 0 0
272 2 8.638054812582482 8.92816753349092 2.9958080022137734 0 0 0
273 2 9.27762537547157 7.607296274475318 2.2616332528640006 0 0 0
277 1 7.329136119755653 9.406797455539515 6.095230776345342 0 0 0
278 2 6.426203012498394 9.180896967449886 5.824087493047062 0 0 0
271 1 9.360617634941503 8.211828557017315 3.0058933136702968 0 0 0
108 2 8.184245270480764 1.054646824007898 6.5761805846063615 0 0 0
276 2 8.248498273546263 8.249678220274527 7.1163644242169 0 0 0
213 2 3.5456209751775183 9.830530045116253 6.989491487821307 0 0 0
103 1 9.50092037915219 0.6574975630871706 2.5114178462720607 0 0 0
96 2 8.912399702655515 2.641242375221758 4.814053208878466 0 0 0
264 2 9.057443719155831 9.85763993698963 4.785041280976578 0 0 0
93 2 9.660694609405972 5.4102657411367465 1.5580717414325473 0 0 0
196 1 1.0198647157601852 9.588880106481957 8.841368820732585 0 0 0
9 2 0.3105200516195262 5.563831388728073 1.358857302076586 0 0 0
18 2 2.238391297284313 0.9180275821083419 2.7093310620091686 0 0 0
188 2 -0.4725073764101071 9.097441597203446 2.564955409402845 0 0 0
279 2 7.220639610823575 10.235431767189139 6.632755164493937 0 0 0
122 2 8.307723300870368 4.980521235614458 6.888512406234974 0 0 0
274 1 8.990364815358141 7.747251191872575 7.581696942330344 0 0 0
117 2 9.398323908410738 7.298573305847264 4.499299742825308 0 0 0
115 1 9.634405497814504 6.593428374648966 5.19326378934012 0 0 0
94 1 9.879430312024688 2.846842754531626 4.8055074795728165 0 0 0
98 2 11.248639831544951 3.799768918593306 1.1683148519886264 0 0 0
275 2 9.373791320452089 7.209430788967349 6.852544742936266 0 0 0
87 2 10.308166723218164 3.7154269763031924 3.270671262190023 0 0 0
85 1 10.58931769605867 4.520065548933148 2.7131599794660786 0 0 0
120 2 8.37299856814722 6.983861975259147 8.992788560792661 0 0 0
95 2 10.07398701749145 3.6397569187393914 5.3804827528599555 0 0 0
262 1 9.964080412630391 10.153548984910428 4.88108091424045 0 0 0
7 1 0.10180845924630266 6.274030713029963 0.7133888756014652 0 0 0
47 2 2.468299423987298 0.9061951894156118 6.730579403755436 0 0 0
178 1 0.4246062498365654 10.409748756566255 5.184767344126353 0 0 0
20 2 -0.3925037575281795 1.2417034177217015 2.485409343599387 0 0 0
116 2 10.597750487508577 6.474219257196188 5.114059139574816 0 0 0
270 2 11.251678284291234 8.375066665071225 2.9533625947239095 0 0 0
102 2 11.151956190071001 0.9432366327673826 2.6748539233900686 0 0 0
86 2 11.236578294402975 5.004356780425345 3.263310964888203 0 0 0
124 1 10.46278454147444 4.555947754783664 7.041772762269182 0 0 0
114 2 9.891757719894677 1.6250437954331465 8.019571797597333 0 0 0
269 2 12.00477856392309 7.87984914616266 1.6903753080315274 0 0 0
268 1 12.136176494906817 8.320266775447584 2.596051936815461 0 0 0
282 2 9.874949096148548 8.995375820449539 8.485457269555468 0 0 0
126 2 10.603115433956782 3.8137113413465227 7.705093960918746 0 0 0
280 1 10.171500626290342 9.774425315083459 8.978923641417534 0 0 0
300 2 11.055718458395754 9.000594839592894 5.611212989209925 0 0 0
100 1 12.146829550698184 0.9231446505166805 2.5247371580129374 0 0 0
132 2 11.05104186452208 1.8724348134835915 5.545883214110911 0 0 0
125 2 11.000580088714642 5.296126221360941 7.361081011697908 0 0 0
112 1 10.196859885977174 2.2844664910346637 8.700639370515564 0 0 0
334 1 14.1253952475135 10.081350325648991 2.6558688123149308 0 0 0
159 2 13.36866647107458 1.1808214357687916 5.027463796713563 0 0 0
88 1 12.164432536915788 5.937658861218217 4.098191795545894 0 0 0
90 2 12.484005147292699 6.739587550627347 3.6625471317084055 0 0 0
299 2 11.70272630945865 8.091183144957698 6.752960081437702 0 0 0
131 2 11.606136983245671 0.6599428046426676 6.504704923339868 0 0 0
298 1 11.816973002330036 8.887033336398956 6.225121707144318 0 0 0
130 1 11.834120400695564 1.5061736071232854 6.00779085687849 0 0 0
168 2 13.22693510615099 2.251422913077548 2.6149899141757196 0 0 0
154 1 13.699938806408806 5.113162849167575 0.9754883308050428 0 0 0
142 1 11.943948160867963 6.639703023354275 7.8213910604679775 0 0 0
336 2 13.395676194818492 9.417157115059164 2.7867981493000915 0 0 0
89 2 12.855417448807357 5.413283947235768 4.442583389900879 0 0 0
167 2 13.913412401469957 3.578196649731281 2.05121266001032 0 0 0
155 2 13.909076724943127 5.913195755489244 1.5599337871145469 0 0 0
144 2 11.980234163242764 7.090606161048543 8.713491589069562 0 0 0
129 2 12.691185816812359 2.7081924500346015 7.001242245023128 0 0 0
166 1 14.040993460424705 2.830379407068485 2.7112165008663545 0 0 0
29 2 1.645413547356236 1.9130573905489643 9.270705287838153 0 0 0
517 1 -1.7183998800865232 2.899894836049268 9.519075043429229 0 0 0
171 2 0.9925826314810936 11.097755458152452 3.6826020771822923 0 0 0
281 2 10.93658637305046 9.43411423598499 9.54651935072345 0 0 0
748 1 3.2118297013299935 8.111328653086158 9.56636702197626 0 0 0
582 2 3.8126486614522577 1.2798660709126766 9.456568381828474 0 0 0
34 1 -0.6308951073850033 6.523470564780242 9.602983558013241 0 0 0
156 2 12.945854088287842 5.448058499980338 0.4679023109866917 0 0 0
77 2 6.369435474933617 0.35821916060850206 1.1900747769937496 0 0 0
255 2 10.383876306645016 10.754902102025467 3.1856603690904794 0 0 0
92 2 8.738777064376665 5.469071633126282 0.4355017371760652 0 0 0
72 2 4.023325854115064 5.739158499662637 0.7095852815290059 0 0 0
197 2 1.8101350638705302 9.10394586428546 9.157472478986698 0 0 0
22 1 -0.5787491045638281 0.5193507607887892 7.513661666205667 0 0 0
266 2 11.272577696580118 10.877010329746868 0.9695870975703398 0 0 0
182 2 1.9259658926489678 11.050638671802954 1.2404970055262379 0 0 0
135 2 -2.9097667862609806 1.6906366654532157 9.30042294617072 0 0 0
73 1 5.236454766920137 0.7027047811364368 4.9785391339520375 0 0 0
248 2 7.876054684209776 10.64430240419332 1.9597089940820718 0 0 0
193 1 -1.984415361486907 9.534007516942644 6.0888248945572165 0 0 0
559 1 7.471298104081819 4.266884850748134 0.29309452202101666 0 0 1
369 2 0.3192734711442149 0.24523850967468613 4.5354960274040845 0 1 0
17 2 3.1131747011215047 0.36365963253346384 1.5631745791929936 0 0 0
106 1 8.812407925560827 0.49526992456371266 7.087157966256133 0 0 0
303 2 -2.6440283330375776 9.210061519487875 9.300217672306417 0 0 0
113 2 10.69630885269274 1.749994258834811 9.342940652806291 0 0 0
211 1 4.29150222930199 10.421790109795745 7.35027153052171 0 0 0
402 2 5.637679968902275 0.2286049713706224 3.3064431861611494 0 0 0
539 2 1.8247691194371323 6.519315623388392 0.3091159473630895 0 0 0
195 2 -1.9904033573705218 10.336679191765866 6.663462338594502 0 0 0
212 2 4.419046324248451 10.988429126155145 6.541463786819386 0 0 0
603 2 8.617337344029318 2.7911782746064473 9.289811262131755 0 0 0
101 2 12.18842147207942 0.38824031932130365 1.6723299032182832 0 0 0
56 2 2.8820799703082467 4.586584713973622 9.635747603088543 0 0 0
219 2 6.453171557834963 9.082906684293736 9.233037097822058 0 0 0
398 2 5.399808313797918 0.11607092993364101 7.834309795259003 0 1 0
51 2 6.170924330242707 2.0434929717404677 9.004652614863517 0 0 0
623 2 10.908085983496653 6.661690880124542 0.3753257528448253 0 0 0
750 2 4.013881590886706 8.665696247766778 9.672935728985372 0 0 0
601 1 7.618547875955227 3.079845344608932 9.347839763031013 0 0 0
335 2 13.75892240998028 10.729028870077872 2.092235513707515 0 0 0
519 2 -0.8042984511681495 2.6896060586968256 9.392266874330891 0 0 0
244 1 6.512455152924703 8.2589176482093 0.350416453457372 0 0 0
263 2 9.87658907080323 10.853791772977887 5.609794722422831 0 0 0
181 1 2.0861564100931362 10.707310808080441 0.32485658386506405 0 0 0
538 1 2.737481155499497 6.842041087013769 0.3240961985424756 0 0 1
97 1 11.299171922002675 3.2883606810464263 0.3643492007515218 0 0 0
251 2 4.540009621861811 11.086176640212173 2.0371924988218546 0 0 0
23 2 -0.1043545634168723 0.06454475394300742 6.7960654149035475 0 1 0
74 2 5.630284157982139 0.12860757677122442 5.675390160639513 0 0 0
107 2 9.283139062463503 0.10532337868533359 6.34727519181894 0 1 0
453 2 9.585774544610647 0.1439325798306994 4.234202208333971 0 1 0
246 2 7.484910122808296 8.571911597314376 0.2678772652352712 0 0 1
143 2 12.94653868706024 6.455280322865767 7.720799517953273 0 0 0
297 2 12.82013895484856 10.117017939183475 6.979700780315012 0 0 0
327 2 13.502543903001577 8.397479382443871 5.156855500035102 0 0 0
133 1 14.677342322770402 1.2879347033446842 8.825910757469591 0 0 0
482 2 14.799566027152068 0.07089174107754871 7.78852122984051 0 1 0
295 1 13.450081399454884 10.741965342856906 7.4870420142687 0 0 0
666 2 13.054353258702323 1.2029956135146112 9.499672761900584 0 0 0
138 2 14.15876773384794 3.6577914821258246 4.212543377939236 0 0 0
136 1 14.03198894575902 4.234579634776089 5.03072285988157 0 0 0
150 2 14.762041095207323 7.390161516867544 3.4036854671697423 0 0 0
301 1 14.920522807647503 8.901951525074004 8.938374446760376 0 0 0
161 2 15.673952239775593 0.4210143964357943 0.8506694726132517 0 0 0
25 1 16.21242859233214 1.8624870804394922 6.025126538605945 -1 0 0
306 2 14.34439578344208 11.006266838571715 4.2824917001162754 0 0 0
147 2 15.295665614810618 6.16615188787293 7.610518347675163 0 0 0
148 1 14.99842002937782 6.789835309341709 2.6539323200594342 0 0 0
141 2 13.070693790581087 4.01103345246903 9.168570550738291 0 0 0
165 2 15.810254237513533 2.800489593200185 2.547646743347533 0 0 0
157 1 14.214212395994087 0.6729645738727247 4.76147209122173 0 0 0
330 2 16.61731453927047 8.328404544879788 0.27042357661777366 0 0 1
329 2 15.438680956070495 7.891120000327402 1.3214655082301783 0 0 0
326 2 14.528458096766407 7.50543464842108 5.7221559314502 0 0 0
325 1 14.39234675401599 8.123226217300836 5.0454694159603255 0 0 0
128 2 13.850260987542633 3.6963693887535998 6.881060435526489 0 0 0
127 1 13.335420814853519 3.222005985175185 7.5726049754626334 0 0 0
137 2 14.889940397392635 4.676475639825283 5.120832535964772 0 0 0
149 2 15.749982156414847 6.259006106006477 2.946561331971941 0 0 0
333 2 15.97793924966259 9.945209061920082 2.349383568813851 0 0 0
302 2 14.512580934049426 9.62211119787221 8.408191220754205 0 0 0
145 1 14.607091110172245 6.77114528181892 7.378814887132713 0 0 0
27 2 15.797264191499366 2.502240537375594 6.649048185422057 -1 0 0
158 2 14.319395052887383 0.13130558779988435 5.523500300796626 0 0 0
164 2 16.901810215139506 3.388738725501881 1.7037048898184821 0 0 0
134 2 14.235926091381556 2.0576678226240994 8.367813836682856 0 0 0
163 1 16.74701935448422 2.904508369458744 2.5152534627690053 0 0 0
26 2 15.542723496985802 1.3910007961341202 5.42215654865924 0 0 0
194 2 15.511504242645696 9.500331710382042 5.812091541340903 0 0 0
332 2 16.990415760200523 10.664454719025246 1.3208262045390642 0 0 0
328 1 15.677752173768681 8.173046535798862 0.44599049939702873 0 0 0
151 1 16.57960509354726 5.1507943677544725 4.218216332079616 0 0 0
152 2 16.960328928317242 4.331465408173108 3.882626982408622 0 0 0
331 1 16.91518266386576 10.300466660245894 2.2308252315558117 0 0 0
146 2 14.684433287821692 7.515064644907834 8.068295821011954 0 0 0
486 2 14.95616409529432 0.31651342917796244 2.9738801761902143 0 0 0
8 2 17.595097924768677 5.918497984353982 0.39778824763505316 0 0 0
160 1 8.867522616191325 0.5613525042923257 18.84615980948549 0 0 -1
805 1 11.268368759651974 8.753275364260132 18.242086663716545 0 0 0
607 1 6.06200825237486 0.6343656347573094 12.48426526292066 0 0 0
520 1 -0.44952876848894024 0.8302002912484776 12.0631419534093 0 0 0
682 1 -2.6922353501902645 10.313619750072556 14.316296255200598 0 0 0
832 1 12.13518001702163 8.197322527504769 10.121016577052336 0 0 0
831 2 10.070036858594168 8.622308808928322 14.345566129401254 0 0 0
715 1 0.6384649539920406 10.69634230742175 16.576034960081518 0 0 0
560 2 -0.35652701450468766 4.524049101774547 19.12369392798102 0 0 -1
555 2 3.0579117025405207 1.643424431058067 18.755741032734434 0 0 0
162 2 9.703319525851173 1.142809080985028 19.007995865803668 0 0 0
783 2 3.554159460804645 10.28142656821415 15.805015701046727 0 0 0
785 2 7.550631227806964 9.02850374755693 18.566048057872813 0 0 0
780 2 4.71660723170788 8.260358014518628 16.168680377761927 0 0 0
597 2 6.114938665352208 5.19498241661452 11.41949577384288 0 0 0
581 2 3.1276224722888837 0.4419849713317624 10.604765044202868 0 0 0
665 2 12.154498067744944 0.6938290604632634 10.748508120049287 0 0 0
717 2 0.09277159363372808 9.954521463588225 16.277658377907642 0 0 0
661 1 11.11542251866177 0.8343971534259149 14.468523780984343 0 0 0
802 1 8.277728381988846 8.734904371371785 14.912341470117017 0 0 0
702 2 -2.896209918349384 9.0001272803396 17.7534069118164 0 0 0
701 2 -1.8307717639416454 9.361002595484223 18.81246130912002 0 0 0
766 1 6.241283926114333 10.442179077399615 14.563867336044186 0 0 0
806 2 11.017392598435082 9.429839550906102 17.59958968244977 0 0 0
533 2 -1.6967169449186512 2.0816926702943506 18.77963122615999 0 0 0
512 2 14.64453250739763 5.236237534932204 10.10427446202391 0 0 0
596 2 5.101022627781006 5.546936060398424 10.374801547280919 0 0 0
699 2 -5.611023433495328 10.443460603575108 16.06148675147532 0 0 0
804 2 7.514318284671241 9.301487570921964 14.685772863085473 0 0 0
505 1 -1.898323333497836 3.991112863972525 12.04390012558744 0 0 0
506 2 -1.2517326456822997 4.612404993225228 12.435265059155665 0 0 0
507 2 -2.4897416097715586 3.6153199717985642 12.787125967827905 0 0 0
508 1 -0.4687545743147976 5.747463195501522 13.435420470459377 0 0 0
509 2 0.4206386114400958 5.348036499465896 13.842556675072274 0 0 0
510 2 -0.16703308367557662 6.414946929983719 12.772875715973369 0 0 0
511 1 -3.0278404588165007 5.761475725197304 10.4999822554283 0 0 0
686 2 -1.5888641420207095 11.027205522128693 10.687646816880113 0 0 0
513 2 -2.69592169738748 5.0957888024534785 11.158418827378824 0 0 0
514 1 -2.6365275876661465 3.02810493866671 14.310906698192834 0 0 0
515 2 -2.2462492881976135 3.452330722984776 15.120901858153287 0 0 0
516 2 -3.477615708142751 2.666539663844772 14.5745429194078 0 0 0
779 2 5.7675535135743035 7.169644053173206 15.808992832430427 0 0 0
518 2 -1.790461318895527 3.288334043993026 10.45324882074075 0 0 0
576 2 0.3980099661040448 5.090011667158461 9.817728783168503 0 0 0
99 2 5.249607504499841 2.856753723066711 19.065566766807223 0 0 0
522 2 -1.3468758068682687 1.1133665834695343 12.258128523031964 0 0 0
15 2 -4.107949026332498 2.5120306635495906 19.057614953330834 0 0 0
524 2 -3.8244113331944862 1.6147121355657554 12.191099841341167 0 0 0
829 1 10.983565669552513 8.320556030794663 14.43894089057224 0 0 0
639 2 -6.340933537435428 1.9116011150785432 18.880926192726008 0 0 0
529 1 -5.286226026688848 2.156890465146741 15.313248116828285 0 0 0
530 2 12.24489747632683 1.8459881902504098 15.036611633836618 0 0 0
531 2 -5.45720266444785 2.9900131455579926 15.799671737988566 0 0 0
532 1 -2.5481982466035515 2.317486496541496 18.301375043523343 0 0 0
685 1 -1.3969903130627994 10.646433864445914 9.795821225279854 0 0 0
534 2 -2.710756434278201 1.6908658065475415 17.589092625206987 0 0 0
535 1 -3.0099654877435174 6.5526645499149145 14.523000645759952 0 0 0
536 2 -2.1987224650398582 6.094118409854111 14.29292571643305 0 0 0
537 2 -3.1221034670808896 7.116700908904385 13.777121447076055 0 0 0
551 2 -1.1048649983201662 0.3711238736821326 15.706085580177211 0 0 0
637 1 11.309619973216297 1.425405351526628 18.454628493020074 0 0 0
540 2 -4.060454238187774 6.98637241260388 18.318368168976754 0 0 0
541 1 -5.244927708992553 4.593494612050133 16.641481840462255 0 0 0
542 2 -4.286199577563691 4.718419605772211 16.431398306633017 0 0 0
543 2 -5.271124725862582 4.1684954086426345 17.504324982107242 0 0 0
544 1 -2.4605262854657544 4.469825845277245 16.45828625709092 0 0 0
545 2 -1.8234453302535716 5.206385915177221 16.811358614023966 0 0 0
546 2 -2.379519265626774 3.783124287867193 17.143645200826498 0 0 0
547 1 0.6479747709821685 2.7642156560159195 16.824109546443893 0 0 0
548 2 0.9093127234808829 3.340755319741817 16.105658384989557 0 0 0
549 2 0.027931058742645225 2.137745253564744 16.386611500319923 0 0 0
550 1 -0.7630638899304711 1.167362176868135 15.317799201251267 0 0 0
782 2 2.930509302718618 9.092287002285676 14.979292169289923 0 0 0
552 2 -1.6019071976476056 1.5486170956078753 14.968588846236912 0 0 0
553 1 2.341849665522709 1.1678274534660391 18.266812036957642 0 0 0
554 2 1.990885154015309 1.8846289904020028 17.65600554702139 0 0 0
801 2 9.327461525562326 9.876753374585611 16.28186732400363 0 0 0
556 1 1.5249050776339244 4.244303852838687 14.512499660532034 0 0 0
557 2 2.4733218733614537 4.49671958014967 14.418956454466306 0 0 0
558 2 1.4122527449669378 3.6077290241308697 13.762182880630965 0 0 0
561 2 0.44497150290771914 3.4687833468128746 18.26093941410548 0 0 0
562 1 -0.7946587235799027 6.3039564091083555 16.923558084724476 0 0 0
563 2 0.12023084563636449 6.040161726003235 16.78161540936356 0 0 0
564 2 -0.9039595550055725 6.761019790027233 17.771839366121227 0 0 0
565 1 1.7507144580280338 6.540929753486858 16.626600287185482 0 0 0
566 2 2.059540942759352 7.339498009194637 17.125543430723155 0 0 0
567 2 2.415967168800039 5.836682683815009 16.816297834365237 0 0 0
568 1 2.607567828343639 6.678785777788543 11.730296712144163 0 0 0
569 2 3.210961161338901 6.022492555954342 12.11678726373609 0 0 0
570 2 2.320195407761305 7.121071392477343 12.558148757823187 0 0 0
571 1 3.9626815432346243 4.954073964334375 13.404401037192056 0 0 0
572 2 4.279619512800821 4.08972339396052 13.002135461583833 0 0 0
573 2 4.741463546496827 5.50964445095866 13.761122230305796 0 0 0
574 1 1.109983654624728 4.739536053017931 10.400556617230427 0 0 0
575 2 1.2198385798280036 5.561025518288605 10.865408169954287 0 0 0
839 2 10.319679273426758 10.767987492913104 11.888607153887836 0 0 0
770 2 7.34729495358153 10.676881077391911 10.745928813027987 0 0 0
752 2 4.07058858033874 10.705093967985476 11.210463031013425 0 0 0
579 2 1.1970584136377627 1.1262285138906567 14.457199702489394 0 0 0
577 1 2.072515426237525 0.7177148037693495 14.447080298939488 0 0 0
583 1 4.21283586968322 2.5653115184979 11.969306412451902 0 0 0
584 2 4.287686495460298 2.9075069012420225 11.102067382199694 0 0 0
585 2 3.307850404110106 2.292955743479288 12.122050303600911 0 0 0
586 1 1.3440114105244922 2.7980115828177103 12.306640521435455 0 0 0
587 2 1.294508715008282 3.388143498020605 11.523311210343037 0 0 0
588 2 0.6483773629237105 2.136659453877927 12.15162506769649 0 0 0
589 1 7.139058692620608 4.120362280600317 11.948233060108477 0 0 0
590 2 7.925997927424694 4.5929881680209235 12.240474262875258 0 0 0
591 2 6.887789577068497 3.5927026300071105 12.70407509257029 0 0 0
592 1 8.63779294457442 5.830977786548938 13.850841841375098 0 0 0
593 2 9.449368876341433 5.349089596393284 13.939311656647352 0 0 0
594 2 8.851791617962903 6.719955299374264 13.470569812817711 0 0 0
595 1 5.702864399772366 5.971032403582758 11.008939450989208 0 0 0
76 1 -0.46577681170100227 0.40360963198600874 19.121833501640005 0 0 -1
605 2 8.561882728911783 0.27393329591101423 11.221200881350702 0 0 0
598 1 6.57624809437687 3.137835787200259 14.357332629637405 0 0 0
599 2 6.857589033114053 3.766828708529706 15.05369961238881 0 0 0
600 2 5.664571828381631 2.9694022577792327 14.52961045649063 0 0 0
660 2 9.72752450150628 5.493533264490976 10.188724231982105 0 0 0
602 2 7.477289319353282 3.5117304123397304 10.211342346954234 0 0 0
604 1 8.632913501475496 0.74687694138329 12.059881365228492 0 0 0
643 1 9.28308660335613 4.6151134287533955 18.904262368293967 0 0 0
606 2 7.696207645597962 1.0707292957921952 12.176510595544162 0 0 0
664 1 12.117270483706442 1.0579801850031605 9.814720449523618 0 0 0
608 2 5.378930582778229 1.3114976365111466 12.325292573100018 0 0 0
624 2 4.872982254329869 7.075102476487109 18.200105968515235 0 0 0
830 2 10.959973435904814 7.665390580875232 15.18983166692723 0 0 0
612 2 4.8424705377277535 1.3390177068424425 16.25910473861746 0 0 0
613 1 4.0180343272594055 2.362723827630986 15.231292178813908 0 0 0
614 2 3.2917011738163646 1.717439293937153 14.953343531758811 0 0 0
615 2 3.7110211380644613 3.1960436878719993 15.707267505494984 0 0 0
616 1 6.932526972976776 2.4290053203296513 18.164179883285005 0 0 0
803 2 7.945616531166023 8.023247241645038 15.489267184516084 0 0 0
618 2 6.466712636537176 1.778298210589837 17.57355042137943 0 0 0
619 1 5.962567314964169 6.405449350517101 14.231479201399644 0 0 0
620 2 6.862959735024097 6.01483805144137 14.107751483998562 0 0 0
621 2 5.920035452026084 7.19514721055794 13.645816768592523 0 0 0
610 1 5.370498749558135 0.7136098345129932 16.835246337592608 0 0 0
625 1 3.690545874054289 4.595873862129924 16.7766499217917 0 0 0
626 2 4.565464109914555 5.044282375653239 16.599107977448618 0 0 0
627 2 3.788349175513513 4.212888496074604 17.697289741814473 0 0 0
628 1 6.691474378210201 4.601171865514521 16.54637744715955 0 0 0
629 2 7.3293841357628375 5.363109646818788 16.800567255992593 0 0 0
630 2 6.763094979629841 3.857573119807401 17.139622437219746 0 0 0
631 1 9.698069272218644 3.0982952780690294 16.81582080546988 0 0 0
632 2 10.174381548747236 3.630856607972079 16.184900424823866 0 0 0
633 2 9.144364211447881 2.386652243381842 16.322215580214788 0 0 0
634 1 8.477400460432126 1.4483316003823787 15.216075047744251 0 0 0
523 1 -3.2489917747060146 0.7447468096457608 12.185046218162308 0 0 0
636 2 7.623585352783208 1.844504880955956 14.868334784591072 0 0 0
35 2 -1.54786222903437 6.341523102064081 9.842095594355634 0 0 0
638 2 10.982033685110185 2.094727773501934 17.825410184600432 0 0 0
526 1 -3.7284472197381446 0.5165529752884604 16.61548102070046 0 0 0
640 1 10.807323743310507 4.229112685875592 14.406340186283712 0 0 0
641 2 11.79737267823205 4.498445880704144 14.345803899982766 0 0 0
642 2 10.699444691356526 3.5450905272863906 13.676824431259606 0 0 0
645 2 9.45049619013611 4.080262850455381 18.072178971147448 0 0 0
646 1 8.25673609878579 6.662598975033575 16.756344298803977 0 0 0
647 2 9.207440011772348 6.52713241843763 16.570668344052923 0 0 0
648 2 8.242946131713358 7.053340348640608 17.657098592994224 0 0 0
649 1 11.012740653026682 6.57419401220703 16.449902396079423 0 0 0
650 2 11.389486483559622 7.2115885283497585 17.14842980758883 0 0 0
651 2 11.660955191087572 5.85696924429292 16.491691133445674 0 0 0
652 1 11.743209780497708 7.0265762472555835 12.294512953314799 0 0 0
653 2 12.3893837449914 6.432832877347584 12.722218098019582 0 0 0
654 2 11.40443620495543 7.606675103656874 12.99503204558491 0 0 0
655 1 13.217965703725767 5.151292571532766 13.578430092864748 0 0 0
656 2 13.410550330533315 4.252771717904428 13.151824823363578 0 0 0
657 2 -4.407075183210557 5.471869185194257 14.04152591816914 0 0 0
658 1 10.288903571414782 5.19871382354472 10.936447582778035 0 0 0
659 2 10.38687237134127 6.062140578586503 11.43184995726502 0 0 0
528 2 -4.379992692206838 0.9926973484954105 16.110819584382487 0 0 0
525 2 -3.4843468174835266 0.19280765338960631 11.40750854864784 0 0 0
838 1 10.505523710251941 10.058051566541527 12.556617451684433 0 0 0
663 2 10.139039380064023 1.0644159470228651 14.486580938865012 0 0 0
835 1 13.224490006110114 10.456267683927834 11.896054833620346 0 0 0
667 1 13.530043415606185 2.889460353472323 12.135948555802495 0 0 0
668 2 13.381274969745405 3.41776843513095 11.323943479084576 0 0 0
669 2 12.71459913539036 2.4315943930440853 12.342683197109684 0 0 0
670 1 10.617792138976393 2.655739806002248 12.074107817311791 0 0 0
671 2 10.40521779549055 3.362075830006686 11.447902037092543 0 0 0
672 2 9.83893719665601 2.05210032082795 12.040994655839315 0 0 0
78 2 0.43624834186826833 0.678310236457483 19.058121255663632 0 0 0
837 2 12.29324603303855 10.221955358524772 12.177053899491533 0 0 0
684 2 -3.6835311873715297 10.122394251022246 14.225563167242825 0 0 0
688 1 -0.5406143062226968 8.1645131369905 11.963438588066001 0 0 0
689 2 -0.49396793044065446 7.884365906365615 11.062033304188502 0 0 0
690 2 -1.4789834337971335 8.3286940407239 12.12715271594689 0 0 0