LAMMPS data file via write_data, version 8 Apr 2021, timestep = 777000

1008 atoms
2 atom types

0.09488525119298138 18.388514748808877 xlo xhi
0.16119409834512433 22.25600590163727 ylo yhi
0.22411975038578175 19.16606224961194 zlo zhi
-0.2812529148956194 -7.1890393280547515 0.23830283874614316 xy xz yz

Masses

1 16
2 2

Atoms # atomic

1 1 1.6861837300898237 4.292396358841647 2.5223934620135458 0 0 0
2 2 2.208918817321113 5.051831606038128 2.995315877510983 0 0 0
3 2 1.2411016289304404 3.8889005312116636 3.308297204863591 0 0 0
4 1 2.941389860731434 6.0417229698787835 3.974025913273759 0 0 0
5 2 3.680016774571937 5.535792302117062 4.4017880310103905 0 0 0
6 2 3.249057634017472 6.945682602312104 3.6974957228923486 0 0 0
9 2 0.6445969680959862 5.472055720861247 1.3432709277070074 0 0 0
10 1 0.5286118029518525 3.4546386539472715 4.8098655167168864 0 0 0
11 2 0.6079419056774649 4.060809965120439 5.575829854444062 0 0 0
12 2 -0.4043840610928575 3.0649943440785883 4.743024494686065 0 0 0
14 2 1.7851131629402708 3.398138266400637 1.1232851752976232 0 0 0
16 1 3.0496395100665663 0.8866645994866269 2.555732775073839 0 0 0
18 2 2.235928286801868 1.2955816938764009 2.9387410687313174 0 0 0
19 1 0.10735912858421623 0.9953120425291665 2.8162164875930955 0 0 0
28 1 0.8093240496593731 2.529101765968294 8.476181402963947 0 0 0
30 2 0.5016663847515098 1.8510524685273333 7.791120116122066 0 0 0
31 1 0.4670270837866223 7.063932572449265 4.725155946258339 0 0 0
32 2 1.3553116725834318 6.671434327042777 4.602399460049588 0 0 0
33 2 0.4204593587013249 7.70047087513187 4.014791921486778 0 0 0
36 2 -0.6580879897813314 7.208811576750831 8.620945054417367 0 0 0
38 2 -1.5539792836355155 5.55900184793723 7.706201200774622 0 0 0
39 2 -2.2157693266071816 4.635169569500224 8.662117522396208 0 0 0
40 1 0.7780635580435397 4.714839046181 7.163046336549093 0 0 0
41 2 1.589976095013177 5.2654066826443815 7.409902660421035 0 0 0
42 2 0.9086523490007399 3.8717087484374826 7.644821524224369 0 0 0
43 1 4.040375070453041 3.6344609812978748 7.171243652216787 0 0 0
44 2 4.44263187660578 4.0460708462446675 6.349202693791031 0 0 0
45 2 3.4905780282476546 2.904785698948979 6.857918353144899 0 0 0
46 1 2.7876175940079806 1.8270004199994543 5.643164770539382 0 0 0
48 2 1.998953446818086 2.2220487826825126 5.236175289661977 0 0 0
49 1 5.253846226928609 1.8652964961014804 8.840990875318656 0 0 0
50 2 4.979193790214339 2.4596571020772204 8.144029547930481 0 0 0
52 1 4.924635237840087 4.46353017096964 4.7682096909506635 0 0 0
53 2 5.79846799168157 4.758399038082697 4.438075645858757 0 0 0
54 2 4.616497108563038 3.7629953274957852 4.03775256399294 0 0 0
57 2 3.8879511911831774 4.645957906235893 8.524791026397528 0 0 0
58 1 2.8053510652396065 6.711468819478476 7.378335705218346 0 0 0
59 2 3.7142857524111537 6.6019785549642 7.05446650283871 0 0 0
60 2 3.005763507867683 7.164641435095256 8.230975768170214 0 0 0
61 1 5.533997998216957 6.966187667497208 6.9750725504390845 0 0 0
62 2 5.523143354602641 7.624487970083073 7.739117395072658 0 0 0
63 2 6.173996198906246 6.272232190640789 7.16627285457783 0 0 0
64 1 5.923126216065394 7.03755470343624 2.3722696907688063 0 0 0
65 2 6.665493448862351 6.598418516010677 2.8995820094022644 0 0 0
66 2 5.471194854225168 7.365323707565563 3.128528278535004 0 0 0
67 1 7.381780451574858 5.6362331123459946 4.059384165638776 0 0 0
68 2 7.604900934359176 4.814397218980225 3.6563892054820575 0 0 0
69 2 8.254763104329767 5.970818420055985 4.408681169966228 0 0 0
70 1 4.939938586516812 4.872148282475753 1.0416040804340299 0 0 0
71 2 5.214090007970928 5.707601493328801 1.5221083536812983 0 0 0
75 2 4.552217235129613 1.3180925738198104 5.004778390698952 0 0 0
79 1 7.6927658137531845 3.057263261102764 2.6116171513031388 0 0 0
80 2 7.681434583850617 3.377602573502725 1.6979218972674128 0 0 0
81 2 6.7586010769868805 2.760652791929112 2.7930542997333663 0 0 0
82 1 4.877214461661709 2.948269581970181 2.6385026919070795 0 0 0
83 2 4.638034924865598 3.6181496082816755 1.9571458046177599 0 0 0
84 2 4.385584684726617 2.1364863835990304 2.384281379719079 0 0 0
91 1 9.402786346946508 6.22557300962 1.3735320081939102 0 0 0
93 2 9.8212712836568 5.458528234800825 1.8409285341510269 0 0 0
96 2 8.757808392165241 3.009550240806843 4.928007913840451 0 0 0
98 2 11.01542882052775 3.191282184822205 1.209037497332833 0 0 0
103 1 9.4274035942458 0.9141882740899152 2.573284264843389 0 0 0
104 2 8.709866319663426 1.5413589671456607 2.415583095687107 0 0 0
109 1 7.074486695036146 2.6722222801743323 5.813875084597056 0 0 0
110 2 6.369540432260962 2.052029612759433 5.540281699970628 0 0 0
111 2 6.759142054249753 3.412824193619727 6.345193070250531 0 0 0
115 1 9.555419749378423 6.792056754656737 4.9580422451120745 0 0 0
117 2 9.419223751052185 7.5545669304181535 4.336397984171624 0 0 0
121 1 7.1191046154712545 4.829759718310101 7.451470334469305 0 0 0
122 2 8.103679783305905 5.182397406893619 7.3081319817729815 0 0 0
123 2 7.2306447781438585 4.55264179698882 8.404046400530762 0 0 0
153 2 -0.769271759878912 5.977639940475648 4.277396824156179 0 0 0
180 2 -0.39898376061467944 10.220576512234052 4.896715453800998 0 0 0
184 1 2.9487243842983646 8.291449671337466 2.6358550633790823 0 0 0
185 2 3.148525208905582 7.846938295436657 1.7487319390645288 0 0 0
186 2 2.074427353134783 8.600836108049856 2.390646692221121 0 0 0
187 1 0.16867815157241994 8.54594894767251 2.5503006877705108 0 0 0
189 2 -0.24002900672090324 7.949271323462036 1.9121891019100803 0 0 0
190 1 -0.5773437523624373 7.961322139090188 7.034490479061377 0 0 0
191 2 -0.18476712096470424 7.59967781974244 6.209189073547035 0 0 0
192 2 -1.1471991795236607 8.622519119015006 6.713895060203303 0 0 0
196 1 1.0910450808080878 9.639455509134798 8.43036590359132 0 0 0
198 2 0.5903659208911984 8.978526318309443 7.847230624880085 0 0 0
213 2 3.2541808559344108 10.415842023274699 7.03204522559224 0 0 0
214 1 2.641640688758485 9.121966286522893 5.710352298431651 0 0 0
215 2 2.324061757592668 8.333628849809754 6.206234290507312 0 0 0
216 2 1.937761448806624 9.484260303796445 5.174747247698417 0 0 0
218 2 5.204689268242898 9.844316679806916 7.888610971113315 0 0 0
241 1 5.294706334927187 8.24537704082923 4.62806084710006 0 0 0
242 2 5.45439963320331 7.55543579893067 5.367824862860696 0 0 0
243 2 4.457332545680003 8.630808240222592 4.831310855531203 0 0 0
245 2 6.4027164514523 7.8117258198836055 0.9627676581945324 0 0 0
247 1 7.478165114889977 10.3225215492204 2.232783373678452 0 0 0
249 2 6.538676024458056 10.207018414892785 2.4934080867304957 0 0 0
250 1 4.672788329849933 10.76349578197963 2.611738784473859 0 0 0
252 2 4.194577580215022 9.938584021920049 2.396742943619557 0 0 0
264 2 8.83343087519282 10.387166761614512 5.069349675246916 0 0 0
271 1 9.255670241950206 8.494470300291223 2.962704541860869 0 0 0
272 2 8.622081070173879 9.28002714265904 2.859898857973372 0 0 0
273 2 9.101305074857304 7.891075266423225 2.21515620422832 0 0 0
275 2 9.194918569870904 7.553575639629363 6.719207622346979 0 0 0
276 2 8.160880139414688 8.678306390618971 6.680272510075644 0 0 0
277 1 7.354803613733045 9.785909858623057 5.57795782939829 0 0 0
278 2 6.5077438052750125 9.275454333945106 5.371569078952361 0 0 0
37 1 -2.3811271133972864 5.094657864980762 7.7865386134793555 0 0 0
87 2 10.427433083836258 3.825770570687272 3.431913812867311 0 0 0
217 1 5.297484439447944 9.185825623339781 8.604518100810738 0 0 0
108 2 8.19005227561895 1.5061730373464264 6.707098775128206 0 0 0
24 2 -1.0806137997723284 1.329868230561531 6.50407934396077 0 0 0
274 1 8.676140941843611 8.127696754023482 7.347329112039555 0 0 0
85 1 10.777094415705065 4.23193579687715 2.613869327617088 0 0 0
94 1 9.72807810306443 3.1010201262720978 5.045020266063721 0 0 0
120 2 8.383532807737431 7.245845263465254 8.915803489726306 0 0 0
95 2 9.76955117319821 3.813051826389298 5.6561883132535735 0 0 0
270 2 11.174203423017763 8.69861026602859 2.6018678716301302 0 0 0
116 2 10.395044317837726 6.37853670785783 4.5303574144200525 0 0 0
86 2 11.449751773474171 4.917854215326841 2.954300433830306 0 0 0
102 2 11.271271308586206 1.0684152231578905 2.676006416123501 0 0 0
20 2 -0.4477552721265271 1.763251645027792 2.597211976961553 0 0 0
73 1 5.3843554570325205 0.8474351181406936 4.874173646348416 0 0 0
262 1 9.77269625853685 10.769092955102348 4.901758123355475 0 0 0
178 1 0.5564710493110433 10.448196942369357 4.855093159742945 0 0 0
7 1 0.19489063522527628 6.155532407918989 0.8923364136273243 0 0 0
282 2 9.594171242456754 9.400985496483809 8.198177936078881 0 0 0
124 1 9.877226681099218 4.814947193013792 7.278160384663873 0 0 0
269 2 12.051552086257221 7.922873900811904 1.5208809241603527 0 0 0
114 2 9.620035024883833 1.7371730796520897 8.199941470745802 0 0 0
126 2 10.170233950025658 4.072484133432019 7.797246430394319 0 0 0
188 2 -0.5157655874820856 9.232003837561386 2.6158980223888215 0 0 0
268 1 12.108770147652814 8.473383953089101 2.3145270840063117 0 0 0
132 2 11.04020581632102 2.2188435983583066 5.696015122650792 0 0 0
100 1 12.218150054610163 0.8822428761754304 2.543416999008706 0 0 0
125 2 10.466448844256515 5.585334205078958 7.457251128514772 0 0 0
280 1 9.941905286896409 10.15949640568056 8.671549119980044 0 0 0
300 2 10.988341674225008 9.646655552897696 5.42029190850553 0 0 0
112 1 10.00437791932174 2.311291774820587 8.924750852860058 0 0 0
88 1 12.169643517191346 5.987805905371303 3.942595299640804 0 0 0
90 2 12.497195326389303 6.805175573691278 3.5018119830744956 0 0 0
47 2 2.471224527341457 1.1045135502856875 6.19441030712441 0 0 0
156 2 12.974113483003459 5.532238951623128 0.8789625013388125 0 0 0
687 2 -0.47551017764299375 10.522522299038396 9.58619350013393 0 0 0
279 2 7.08484736902318 10.481667145158516 6.218180363322624 0 0 0
77 2 6.552360652075597 0.5555737972066952 1.1079573319376803 0 0 0
97 1 11.087200933045368 2.9700479985014967 0.28124490533423974 0 0 0
101 2 12.308730367937219 0.4737170552317626 1.6369957015660546 0 0 0
25 1 -1.8989301220390307 2.7487934039537603 5.839592957978254 0 0 0
197 2 1.7622942276989508 9.12221561532227 8.974450149296086 0 0 0
55 1 3.8965330876939777 4.999194378118496 9.451048393218375 0 0 0
211 1 3.8481172862179815 11.177956607770783 7.257036154306816 0 0 0
219 2 6.028264856883532 9.526943749847575 9.171683663630732 0 0 0
135 2 -3.013180088283093 2.2901912397167505 9.190966824474346 0 0 0
72 2 4.221957131974281 5.286822867855001 0.5172330263894798 0 0 0
210 2 0.8328019963849359 11.10327878024443 7.555953234105353 0 0 0
22 1 -0.6027836875312298 0.5619431583380357 6.941584291322135 0 0 0
106 1 8.783206989340737 0.877850030582089 7.1642060658733735 0 0 0
248 2 7.417128851902929 10.912867335072137 1.4713923633184145 0 0 0
17 2 2.769140660331046 0.5881774491702318 1.6346678040807894 0 0 0
107 2 9.127407730257639 0.3253691468084764 6.387216290308908 0 1 0
27 2 -1.9853584296754485 3.5439459449535757 6.3348048488576225 0 0 0
29 2 1.5201309794254898 2.0532531308324806 8.967112406293392 0 0 0
402 2 5.779290916970296 0.29517747387232407 3.3587632547542583 0 0 0
105 2 9.311409893831353 0.20710476924088675 1.8898762800055335 0 0 0
182 2 1.8100233826171828 11.170217788447237 0.935786593949125 0 0 0
539 2 2.0755783716529193 6.648596442299714 0.32133956396609975 0 0 0
51 2 6.077529518558816 2.3065564479794256 9.33693897102198 0 0 0
582 2 3.486808950916706 1.308281616842515 9.453186327718225 0 0 0
603 2 8.388898806187159 2.8931243682851067 9.545755882484926 0 0 0
299 2 11.418731434777325 8.545556246745235 6.423529872066384 0 0 0
298 1 11.769640510104594 9.306784474053446 5.941656981109937 0 0 0
538 1 2.9799204623280886 6.918537582468216 0.32567796601329263 0 0 1
750 2 3.8262683122092835 8.887618379596178 9.608118067943076 0 0 0
179 2 0.5215092275009418 11.16381937425754 5.59441306548327 0 0 0
92 2 8.64658253415611 5.730203885701214 0.8747162131581282 0 0 0
303 2 -2.9272169819741767 9.61194280906047 9.241805107679925 0 0 0
76 1 6.5632384095440095 0.9611575266464296 0.2476157384504371 0 0 0
265 1 11.12399613290311 10.328425740820535 0.43172612189471 0 0 0
267 2 12.012985989986625 10.02350604448814 0.27462377275752264 0 0 1
34 1 -0.6712509041812331 6.900587758579654 9.507927547161362 0 0 0
560 2 6.623131893745173 4.5884071197939535 0.46403993943578264 0 0 0
519 2 -0.667318548418256 3.2546122988806427 9.36948983132182 0 0 0
21 2 0.0168565054484143 0.3428007781158552 2.0956868518657257 0 0 0
580 1 2.5617653047535116 0.907345833730975 9.542546656989286 0 0 0
266 2 11.0658471395437 10.639481534071663 1.3244369805474188 0 0 0
35 2 -1.5599166762787582 6.555896462581629 9.652943044884271 0 0 0
453 2 9.491728953979539 0.27153960290341717 4.267305541430507 0 1 0
486 2 15.050400461818043 0.2871280089528363 3.263118619410595 0 0 0
164 2 16.418139763611002 3.3311185758263075 1.615085784029375 0 0 0
147 2 14.708596001132522 6.203599805579982 7.704104861276068 0 0 0
306 2 14.119892541701367 11.104742322145398 4.162265773314039 0 0 0
281 2 10.760521087343998 9.820247479918743 9.091742233750887 0 0 0
146 2 14.156813993796332 7.7110616273494665 7.82816120246766 0 0 0
131 2 11.721268569013537 1.027652935218999 6.489689982959402 0 0 0
130 1 11.895623458715555 1.8494307650881876 5.9880657098359995 0 0 0
336 2 13.455198099909792 9.708931715331193 2.421591013231827 0 0 0
142 1 11.519659613293777 6.995202328899755 7.490898732075163 0 0 0
154 1 13.766638104390426 5.130257236876065 1.25465989998861 0 0 0
168 2 13.166645561402687 2.4374090046228343 2.8126079707937945 0 0 0
167 2 13.743517094484181 3.789721571270766 2.380371532767099 0 0 0
89 2 12.8803028345912 5.543536447938442 4.4563207627106305 0 0 0
144 2 11.54044821840932 7.577855496961045 8.261622436927635 0 0 0
155 2 14.201401696677994 5.804095160362493 1.8424362116983597 0 0 0
166 1 13.919954247512639 3.0433502106941246 2.962129619039953 0 0 0
334 1 13.939576940509674 10.426740328286119 2.6612972134649953 0 0 0
159 2 13.604790935212838 1.4775205726174017 4.623850160838883 0 0 0
129 2 12.348452228423486 2.87791973423956 7.259665612315316 0 0 0
113 2 10.841069421711675 1.8450212462417102 9.26639233364652 0 0 0
327 2 13.335173104624682 8.51516769072075 5.126958299111205 0 0 0
297 2 12.60449249717004 10.336961529325519 7.075243682560543 0 0 0
194 2 15.535030763198357 10.449093168518685 6.148256780090118 0 0 0
158 2 14.246447992835522 0.3654628217714999 5.429418837222039 0 0 0
644 2 15.401828137188105 4.700902272530201 0.28791750907153674 0 0 0
134 2 13.890295917051677 2.5151005514687155 8.423779225306411 0 0 0
193 1 16.106329419532308 9.769709098559048 5.786801608831098 -1 0 0
332 2 16.97679548555627 10.890090750183514 1.779985412506151 0 0 0
161 2 15.67429100309562 0.44248719892028393 0.9677070513879507 0 0 0
145 1 14.098493766677096 6.865095412312424 7.34871640235834 0 0 0
335 2 13.695848642955596 11.169408670821186 2.0256473435544833 0 0 0
26 2 15.53790489625526 2.300528888112268 5.699315874981126 0 0 0
152 2 16.985204035482926 4.737520125255779 3.508330547307377 0 0 0
163 1 16.798391473442763 3.0903241995280784 2.484236073874866 0 0 0
8 2 17.668767214480194 5.7986523187003876 0.5744549477404894 0 0 0
302 2 14.163063513686662 9.893491952234747 8.24185102926262 0 0 0
137 2 14.961047774951961 5.115228658101735 4.96186008977332 0 0 0
133 1 14.489415650831127 1.820079649390711 8.882731567782564 0 0 0
301 1 14.532464495731432 9.285955744101468 8.938594320099192 0 0 0
195 2 15.4843662101331 9.069930169257393 5.523075282965578 -1 0 0
151 1 16.7174926139464 5.5411471171291025 4.0097926384162195 0 0 0
143 2 12.451368655774077 6.769566185502099 7.325399318699033 0 0 0
331 1 16.746455270245146 10.484166642665686 2.618905783592371 0 0 0
333 2 15.831741476607599 10.282059600435119 2.5209495870264544 0 0 0
149 2 15.870319550094683 6.446884606381583 2.962878429991979 0 0 0
329 2 15.30163141596288 7.8700741502894935 1.0752745614625845 0 0 0
157 1 14.459412782491876 1.1139089817113814 4.803326684906729 0 0 0
148 1 15.109088061300215 7.01016954420844 2.631119087363769 0 0 0
326 2 14.100350812534899 7.295782415710386 5.818136448894511 0 0 0
141 2 13.008717826456083 4.428659392727484 8.840409476286405 0 0 0
150 2 14.690990271565882 7.34137546887079 3.4530638605349857 0 0 0
138 2 13.92797618159191 3.9713765655702113 4.49317432056595 0 0 0
136 1 14.076948146239067 4.710225830186173 5.163390519149448 0 0 0
128 2 13.316007150652558 3.9687937948017495 6.650219829116681 0 0 0
325 1 14.161005098901192 7.9905667727599665 5.0428135917661425 0 0 0
295 1 13.290929324469886 10.953362691503164 7.408306746302188 0 0 0
127 1 12.907567700161158 3.658111133110488 7.455205435066987 0 0 0
165 2 15.954532162913454 2.8271081771392588 2.864619211587676 0 0 0
482 2 14.638029962089385 0.30303982665675 7.822201267058234 0 1 0
160 1 15.802820008530466 1.0452743460177882 0.254424632766434 0 0 0
612 2 4.546454400216116 1.2170280500739317 16.155017972067295 0 0 0
805 1 10.59541943836977 9.363559519213142 18.308860083061898 0 0 0
836 2 13.143741563531048 10.960640281956353 11.27100886652928 0 0 0
660 2 9.65136304157805 5.601891561175064 10.3298276752814 0 0 0
748 1 3.034310538647906 8.34838243294229 9.83162808777568 0 0 0
716 2 1.0225173398969227 11.33801454666589 16.192227017262802 0 0 0
831 2 9.938332850230033 8.80997429076239 14.518380088975814 0 0 0
838 1 10.259327400501476 10.673265372728615 12.29570618100262 0 0 0
717 2 0.039451504886128946 10.238443368296258 16.331423818827645 0 0 0
525 2 -3.5572186612575956 0.4382460009834616 11.384425799004244 0 0 0
804 2 7.521690720861454 9.413650633569086 15.219729999140569 0 0 0
701 2 -1.8463995830458573 9.965581572050517 18.340914584100723 0 0 0
661 1 10.906554893848217 0.8777450290839595 14.617994296855686 0 0 0
119 2 7.4886816401763125 6.577726984458567 10.004371522437491 0 0 0
581 2 2.547905375048102 0.6793635088689044 10.514263471177244 0 0 0
803 2 8.043501981676528 8.102772530813306 15.860104416429873 0 0 0
555 2 2.5859116707363414 2.1421080568744717 18.579029979682165 0 0 0
785 2 7.118493493875565 9.44574894661065 18.730913865608205 0 0 0
78 2 0.2767439511261043 1.5130578729453492 18.942021804816985 0 0 0
781 1 3.6795330481364705 9.785452902788489 15.335478793233849 0 0 0
512 2 14.074779199515502 6.158496780269639 10.329535226979214 0 0 0
605 2 8.985402336774703 0.9311360419470412 11.230282877179539 0 0 0
13 1 -5.4187042169413635 3.294746868344502 19.152609497723997 0 0 -1
806 2 10.270860075480625 10.128523962674276 17.69716846305767 0 0 0
635 2 7.8529178463719305 1.0013571316263592 15.39408083170841 0 0 0
686 2 -1.4422933104599822 11.000331273976444 10.632141833742262 0 0 0
517 1 -1.528508263685821 3.5045411620839495 9.775628037770959 0 0 0
526 1 -3.9869632850243923 0.8893877632307454 16.768628896143383 0 0 0
246 2 0.2659253275634227 8.624076019317842 18.873707070146796 0 0 0
505 1 -1.7155232251586168 4.470681502678023 12.27129117352473 0 0 0
506 2 -1.171983587383751 5.191401865615578 12.692940977033103 0 0 0
507 2 -2.1128957483113093 4.0586971522239255 13.067571630325672 0 0 0
508 1 -0.5071470817038971 6.310157528700618 13.542605195658759 0 0 0
509 2 0.3518965477191305 5.873206107902992 13.892681724962854 0 0 0
510 2 -0.28941784485210154 6.859205108012921 12.746260841574294 0 0 0
511 1 -3.3025436026616597 6.368993154377481 10.657289613206496 0 0 0
528 2 -4.586737083273295 1.4966410091985678 16.251292103948977 0 0 0
513 2 -3.162620617604609 5.649454853129266 11.297786141996715 0 0 0
514 1 -3.077787091748474 3.4441514524997254 14.707130531858597 0 0 0
515 2 -3.040665235453031 4.067071304253919 15.48028433668338 0 0 0
516 2 -4.010421474944109 3.2362160964454834 14.586207325121059 0 0 0
755 2 1.3015199197254843 11.339741018945887 11.808440968685167 0 0 0
518 2 -1.3982368274525523 3.7755953563206583 10.697583001236314 0 0 0
759 2 6.213606293885271 11.257096529289164 13.00260792402846 0 0 0
520 1 -0.4978396327551272 1.1872768968490324 11.618739277874162 0 0 0
522 2 -1.3406779994396216 1.560512896523471 11.983726726608745 0 0 0
523 1 -3.3211213262251804 1.1876595846160745 12.073041291964572 0 0 0
524 2 -3.745693282329202 2.0366357590023805 11.869897775061892 0 0 0
829 1 10.799892227040699 8.3839438253336 14.482453171297191 0 0 0
783 2 3.3533883953052084 10.609187840422548 15.80437183909932 0 0 0
529 1 -5.585830534969701 2.6197166960906824 15.363176518946508 0 0 0
530 2 11.917364541716804 2.1142295674104643 15.000913919066052 0 0 0
531 2 12.40293303192097 3.5051088455195565 15.573669065077866 -1 0 0
532 1 -2.77379565822339 2.5903358390716296 18.387253995636858 0 0 0
752 2 4.207415393496313 10.796666135487927 10.944375963953714 0 0 0
534 2 -3.258372253874678 2.084084947706593 17.65172808602045 0 0 0
535 1 -2.8581591852431494 7.245447563585644 14.565229930824806 0 0 0
536 2 -2.0188444909042444 6.762878402882473 14.393256583524929 0 0 0
537 2 -2.983906539075241 7.729870561782607 13.7691056036216 0 0 0
801 2 9.019077009583137 10.35868504909173 16.22852382499922 0 0 0
610 1 5.261028443316901 0.7474486887724955 16.636767971800893 0 0 0
540 2 -3.9503842326982936 7.507933230055715 18.386429734699522 0 0 0
541 1 -5.720764014404875 5.013979974189209 17.07343701409115 0 0 0
542 2 -4.858741757140508 5.406643706457902 17.268831594324222 0 0 0
543 2 -5.942293136638563 4.559943789693998 17.932455299562854 0 0 0
544 1 -2.9514358692056413 4.917587970827612 16.949456268755412 0 0 0
545 2 -2.051956756833689 5.360170941945196 16.78141856390188 0 0 0
546 2 -2.744477757570497 4.213692582348486 17.56671699694774 0 0 0
547 1 0.4928289011966387 3.5581507471017373 16.82258391042174 0 0 0
548 2 0.9648541739931413 3.9907122701101834 16.10067899096542 0 0 0
549 2 -0.10463976656537269 2.914245697378215 16.355609651408848 0 0 0
550 1 -0.8324594205057508 1.8731378860640346 15.498765568193722 0 0 0
521 2 -0.7897645013089575 0.6621320866646457 10.790946588796759 0 0 0
552 2 -1.7463831398157266 2.2980309318282233 15.312976863325177 0 0 0
553 1 1.8857171798199992 1.706371700960614 18.068474078730045 0 0 0
554 2 1.6110021064767919 2.4052349226037935 17.41946246188357 0 0 0
906 2 2.03350700607156 0.5362502652507033 12.949075241090677 0 0 0
556 1 1.4318232750513389 4.5373747114059935 14.532268245842124 0 0 0
557 2 2.256323568043363 5.003693211671165 14.510458953600908 0 0 0
558 2 1.436792704336985 3.9792855276061765 13.711240830053812 0 0 0
561 2 0.4746833672674978 4.358240063742722 18.173009779649394 0 0 0
562 1 -1.0580757188745304 6.825375809992446 16.759629043380784 0 0 0
563 2 -0.12340053188528627 6.652470176748157 16.53369836124098 0 0 0
564 2 -1.0819297105653702 7.169052935154353 17.6670314447026 0 0 0
565 1 1.6666299564281193 7.040700819207072 16.70143899106868 0 0 0
566 2 1.817350333429027 7.680387009178471 17.496164860140883 0 0 0
567 2 2.1322653171445047 6.178770631077991 16.810081184789148 0 0 0
568 1 2.5573135418911845 7.153177313998144 12.230885982249394 0 0 0
569 2 3.1372584819260942 6.486890202141146 12.685985537490335 0 0 0
570 2 2.244501324882558 7.864176149041834 12.879139539459395 0 0 0
571 1 3.881200701869794 5.325881148949094 13.570210792670059 0 0 0
572 2 3.9707515649905023 4.5120450344762535 12.992124707228793 0 0 0
573 2 4.7377319517303125 5.395031528687585 13.960448667474688 0 0 0
574 1 1.4479103889295144 5.26853590969028 10.767395346605591 0 0 0
575 2 1.6466442866760636 6.02940751106134 11.340489391647063 0 0 0
786 2 6.1237551560077605 9.476996786334974 17.524409561476183 0 0 0
596 2 5.245050860188362 5.891606676705652 10.224658264742294 0 0 0
802 1 8.35498416530504 8.939897915735502 15.517207965621322 0 0 0
579 2 0.6609614188296129 1.5781376973092407 14.435433543319107 0 0 0
771 2 8.140624241996168 10.34652714031868 9.749669925806383 0 0 0
583 1 4.169015167146467 3.216092295820732 11.69387834847675 0 0 0
584 2 4.3138295403365845 3.4871168166652637 10.753166069787689 0 0 0
585 2 3.2637535760908523 2.894271830510328 11.799838741460688 0 0 0
586 1 1.5530250276857958 3.1292265252664597 12.20113135204417 0 0 0
587 2 1.4846735260338022 3.840722074277558 11.536278854010444 0 0 0
588 2 0.8879587997710895 2.459980471816138 11.982016651615393 0 0 0
589 1 7.404451123446766 4.5116364421172035 12.124924888277588 0 0 0
590 2 7.945901486707743 5.036667996508277 12.757053792743042 0 0 0
591 2 6.8263445133740035 4.042054653117463 12.739888441002984 0 0 0
592 1 8.481089512148197 6.182149504775468 13.747091401287182 0 0 0
593 2 9.282503874215626 5.845843248157088 14.276386280650879 0 0 0
594 2 8.741919809374386 6.98657660205715 13.270872292933053 0 0 0
595 1 6.020163326217179 6.220232647463845 10.727167523767555 0 0 0
766 1 6.225014411926288 10.587264631211108 14.79189954579619 0 0 0
597 2 6.473536723932652 5.462164693881359 11.124953701195283 0 0 0
598 1 6.07225798467142 3.6444968269629507 14.556311766576467 0 0 0
599 2 6.088071914821815 4.07062685804705 15.431458925821513 0 0 0
600 2 5.226705648220606 3.1445258052875333 14.577861049517125 0 0 0
832 1 12.047571618529789 8.558496521476885 9.697797456923174 0 0 0
602 2 7.6022688637854845 3.530272493078013 10.707351369601827 0 0 0
604 1 9.014036125571879 1.2554430530764762 12.187439920020132 0 0 0
675 2 -2.675838908900073 11.165710177092357 12.656190829806816 0 0 0
606 2 8.086599310423363 1.540770288503025 12.40608527655268 0 0 0
807 2 -6.863890182672334 9.674862678535154 18.77065270654973 0 0 0
608 2 5.334251637494448 1.872044018410119 11.796244608572144 0 0 0
139 1 12.940055425933881 4.780977986584135 9.773225092977508 0 0 0
830 2 10.792414072152154 7.844596031407324 15.307728246869164 0 0 0
577 1 1.5574019119209521 1.1231660680163693 14.38158226489093 0 0 0
613 1 3.729997768665456 2.4655940772277427 15.059915467859392 0 0 0
614 2 2.9517200810010684 2.0339809839563165 14.646730270733133 0 0 0
615 2 3.4387372496493818 3.210742466875849 15.562006048209597 0 0 0
616 1 6.341784935976458 2.506092745862105 18.41547330957131 0 0 0
607 1 6.041575984921326 1.2581514089937527 11.971234048406691 0 0 0
618 2 6.061734265179809 1.9028456335426387 17.685458513876828 0 0 0
619 1 6.024485716810337 6.796612899133761 14.826332410374231 0 0 0
620 2 6.941797356585731 6.5051856538553325 14.58535567113331 0 0 0
621 2 5.835092864180151 7.503276401756749 14.071378978710204 0 0 0
624 2 4.607803835999662 7.332053852971787 18.17192992994427 0 0 0
625 1 3.4176833958625963 4.7261970967291616 17.020251360640547 0 0 0
626 2 4.337587805065333 5.080490384077526 17.080878108589335 0 0 0
627 2 3.4417427994258953 4.112682777074098 17.823661231226172 0 0 0
628 1 6.17944167851555 4.651133263315504 16.94615654034483 0 0 0
629 2 6.621619783250136 5.44198546607563 17.08736268868077 0 0 0
630 2 6.447683318485874 3.9213022807448707 17.562474742668805 0 0 0
631 1 9.750967761769102 3.4291638762000876 16.892055896220906 0 0 0
632 2 10.00237435151542 4.185138467784287 16.25767868149873 0 0 0
633 2 9.096945431098217 2.853230171269587 16.42408641028559 0 0 0
634 1 8.249336674379641 1.8154278999112181 15.063843623900205 0 0 0
162 2 9.486694453598496 1.2934151071561233 18.820232028139763 0 0 0
636 2 7.4501916684219935 2.3694807253998063 14.967332928066265 0 0 0
637 1 11.052960208089456 1.563655207445471 18.208995291565905 0 0 0
638 2 10.751955208601316 2.2794198865477346 17.59282960857767 0 0 0
784 1 6.455239910767018 10.0472776575277 18.23675419111377 0 0 0
640 1 10.588855255208841 4.883802453877626 14.831567591984388 0 0 0
641 2 11.437122813209253 5.428135951895749 14.691353280514265 0 0 0
642 2 10.42054890739074 4.304490074966865 13.998204947721538 0 0 0
645 2 9.33880892851942 4.22623279084551 18.343002088379407 0 0 0
646 1 7.966187617992614 6.724259360499898 17.039012087921364 0 0 0
647 2 8.846853260477381 6.345922136199983 17.062668120948413 0 0 0
648 2 7.968873074359051 7.309944647124481 17.780520641624012 0 0 0
649 1 10.676526133554683 6.886228900262798 16.84075117637575 0 0 0
650 2 10.863926521563593 7.68201594396221 17.442284283334985 0 0 0
651 2 11.490257053110085 6.317605956652284 16.91266669099256 0 0 0
652 1 11.681210513022185 7.33792816408288 12.1616868051082 0 0 0
653 2 12.329271357666544 6.907232657495468 12.754978647483318 0 0 0
654 2 11.061616644659509 7.974076576407938 12.680060122381724 0 0 0
655 1 13.17751786533638 5.820908081851841 13.545989105987353 0 0 0
656 2 13.313587525589767 5.058193145559654 12.952725030147686 0 0 0
657 2 -4.328705737039547 5.904405243336828 14.181751929309845 0 0 0
658 1 10.473146711984493 5.334846534885165 10.708903968283561 0 0 0
659 2 10.769258000731146 6.147884523076676 11.226265147338585 0 0 0
699 2 -5.729097936120869 10.7117678503827 15.595195605806339 0 0 0
244 1 -0.6282922356606945 8.246581777359774 18.98640533658121 0 0 -1
576 2 0.7804218939688513 5.591221566462928 10.158927204075304 0 0 0
663 2 9.979730902537344 1.1885043615759419 14.632022905523858 0 0 0
835 1 13.091534957789511 10.459218028546344 12.087463863527642 0 0 0
667 1 13.153851772563682 3.527872966726669 12.047689814611848 0 0 0
668 2 12.943669668372197 3.9121753742167176 11.111483544438315 0 0 0
669 2 12.28610288403696 3.252480032059762 12.418683850162815 0 0 0
670 1 10.602638283980768 3.3793698502088168 12.611241311050767 0 0 0
671 2 10.338260583329438 3.8752410406509883 11.770191369897796 0 0 0
672 2 10.010924643032128 2.5952944682944983 12.42750957279691 0 0 0
622 1 4.506856740989188 7.011162031434892 19.066469927122053 0 0 0
837 2 12.127699517028775 10.35255234795889 12.285208506029754 0 0 0
15 2 -4.504177040431667 3.0284317440570163 18.962158836690044 0 0 0
688 1 -0.5140554683720723 8.74529284321591 11.822179503553013 0 0 0
689 2 -0.48686181756781244 8.440652528729178 10.913280983534525 0 0 0
690 2 -1.4193010161479933 9.034913989335594 12.004289852832205 0 0 0
691 1 -3.1102097409170546 8.593921631298027 12.28054455746591 0 0 0
692 2 -3.923400448130131 9.136443785819303 12.206184631447801 0 0 0
693 2 -3.2950438298374727 7.820747671266198 11.679688420431567 0 0 0
694 1 -3.809608327784196 8.32453115560749 16.859614572374355 0 0 0
695 2 -3.329271744731145 7.735663859145818 16.241230941107585 0 0 0
696 2 -4.7344757190488505 8.576309168253665 16.53768954259531 0 0 0
697 1 -5.46561742687562 9.797142805520531 15.360474070585601 0 0 0