LAMMPS data file via write_data, version 15 Apr 2020, timestep = 0

1944 atoms
2 atom types

-6.9498451480336598e-01 4.0677089514802503e+01 xlo xhi
0.0000000000000000e+00 1.9739893058912422e+01 ylo yhi
0.0000000000000000e+00 2.0438986984939937e+01 zlo zhi
1.6941667919212477e-04 -1.4293074654176507e-02 1.8128757048806676e-02 xy xz yz

Masses

1 16
2 2

Atoms # atomic

81 2 9.0412691777672141e+00 5.1030075083715749e+00 1.2492432977377761e+00 0 1 0
1160 2 1.2521567033198686e+01 2.0463750973803899e-01 3.8622415810198851e+00 0 1 0
519 2 1.7298953158980247e+01 1.3823874107983984e+01 1.0077338041675342e+01 0 0 0
905 2 1.7810061928015905e+01 4.7805137060346130e+00 8.8888615122196697e+00 0 0 0
268 1 1.8081826925994864e+01 1.0738919936790200e+01 2.5889618162989927e+00 0 0 0
1331 2 1.9348901205520800e+01 1.1830212178163576e+01 7.3846883263562608e+00 0 0 0
449 2 1.5925013936354869e+01 1.7815741066567906e+01 3.0884358854489431e+00 0 0 0
1372 1 9.6891623319401194e+00 4.5565280855942039e+00 2.9607377023313002e+00 0 0 1
725 2 1.7997251160354274e+01 4.2615636294879762e+00 2.4261592048667127e+00 0 0 0
1373 2 8.8844140013728499e+00 4.0258009019171865e+00 2.9153310625885216e+00 0 0 1
717 2 1.9404993589427946e+01 5.5924007881726103e+00 1.0999415811655879e+00 0 0 1
1784 2 3.8816594924012815e+00 5.6874685227842461e+00 5.3105405313688152e+00 0 1 0
1113 2 6.3154994952764039e+00 1.4534135543346942e+01 9.8737685092598770e+00 0 0 0
1121 2 1.8881156981754067e+01 1.3663304564228055e+01 4.6890944186547792e+00 0 0 0
1546 1 9.4130586509320455e+00 1.6046091761603588e+01 1.2783612668159114e+00 0 0 1
674 2 8.8044926423591185e+00 7.3144485895701843e+00 6.7442500753400836e+00 0 -1 0
903 2 1.5767557250505433e+01 2.1382315958150095e+00 4.7576748935635580e+00 0 1 0
713 2 7.2879077720692909e+00 2.7377539765972179e+00 2.3919415829798631e+00 0 0 1
31 1 1.9859380868620868e+00 1.4938353508287362e+01 7.7675120122333374e-01 0 -1 0
1557 2 9.1866827855361048e+00 7.2725539599904359e+00 6.0201884613064560e-01 0 0 1
1559 2 1.6168490566469785e+01 1.9644680367650530e+01 6.1130474304338591e+00 0 0 1
1586 2 1.9381646575872892e+01 1.2702645323400484e+01 6.2982019617572638e-01 0 0 1
1527 2 7.2535351082535193e+00 1.1692872616510281e+01 2.8692401039052986e+00 0 0 1
673 1 8.5240217669690015e+00 7.5562398375478326e+00 7.6400455851885489e+00 0 -1 0
1818 2 1.5383771492076125e+01 1.0249831556738991e+00 2.3688922437922479e+00 0 2 1
1570 1 1.0964794900042074e+01 2.9976276081451125e+00 5.0946239820978407e+00 0 0 1
1323 2 3.4568018949385015e-01 1.4242216591005320e+01 5.7204053130467196e+00 0 0 0
1158 2 1.2115193089540112e+01 9.0506546016260181e+00 6.4289293541846400e+00 0 0 0
58 1 -3.9794447095210750e-01 5.3714736657528848e+00 8.2896630765025350e+00 0 0 -1
749 2 1.7321670771329629e+01 6.7561505962875623e+00 3.7743937642552075e+00 0 0 1
236 2 1.0612711592315890e+01 1.5990942341543708e+01 5.2358147128556212e+00 0 0 0
671 2 3.0065287294629535e+00 1.8245133770272496e+01 6.7186997178053265e-01 0 -1 0
1786 1 1.1959969720478776e+00 1.7451371832650388e+01 6.5565958665469433e+00 0 0 1
459 2 1.9002858493277966e+01 2.7419646414720078e+00 6.0488965494000846e+00 0 1 0
1606 1 6.8262025213234052e+00 7.8993495968233836e+00 4.5114861474342822e+00 0 -1 0
709 1 1.9551322729691218e+01 4.1302864404484572e+00 4.9605358697774289e+00 0 0 0
1550 2 1.4914013299920143e+01 1.4956324101463261e+01 5.1476130227928723e+00 0 0 1
689 2 1.7225493637965723e+01 1.5193599399419629e+01 7.5469565092900988e+00 0 -1 0
1542 2 5.0832177125656051e+00 4.1788880241218584e-01 2.0534514965142636e-01 0 0 1
1576 1 1.8909434522463030e+01 6.9564577771174472e+00 5.2479002893237796e+00 0 0 1
1098 2 7.0469373896578755e+00 6.0509708213450724e+00 4.4498880984647098e+00 0 1 0
966 2 1.3488277127968457e+01 1.9478284120575360e+01 5.8409599474586118e+00 0 0 0
906 2 1.7481812824512506e+01 5.1501264069503208e+00 7.3774847828559738e+00 0 0 0
73 1 1.8214720748192764e+01 7.8479438441521969e+00 7.6476613955917774e+00 0 0 0
1584 2 1.0838965113702253e+01 1.3221449109460073e+01 8.8118341874489303e+00 0 0 0
1306 1 8.4388401666633719e+00 2.5612419790795631e+00 9.0477653413637977e+00 0 0 1
486 2 1.1155454682047989e+01 7.3969367839741063e+00 3.5109371200701824e+00 0 0 0
1747 1 2.3345927846388459e-01 9.7772364732091201e+00 3.4080060235416281e+00 0 0 1
281 2 2.9879547828911548e+00 3.6459294666434899e-01 3.0420147008186107e+00 0 0 0
1618 1 1.9161014248079894e+01 1.5659362480215819e+01 6.9363956074510380e+00 0 -1 0
941 2 1.3609067806049154e+01 2.9389982474657774e+00 8.3027387832205886e+00 0 1 1
1755 2 -6.2599472971777981e-01 1.7482120949069933e+00 9.2608383717143425e+00 0 1 -1
898 1 1.9906103383173224e+00 6.5913799734924741e+00 2.4614385852358862e+00 0 0 0
1314 2 -1.3806960554609515e-01 3.1579663029438549e+00 2.5209290788523138e+00 0 0 1
217 1 9.1185857167105979e+00 1.3693265369359734e+01 7.8477905569560962e+00 0 0 -1
705 2 3.0064780008514949e+00 1.9065523877159130e+01 9.6300927708505917e+00 0 0 -1
241 1 9.6467444862862664e+00 3.7742510447705746e-01 2.5588052396486161e+00 0 1 0
1561 1 1.5246640184178459e+00 1.9137244048051008e+00 6.6266512903362882e+00 0 1 0
292 1 1.7814092723287931e+01 1.7932788587480179e+01 2.8607561778916746e+00 0 -1 -1
1560 2 1.6972840803323120e+01 1.8464227088726155e+01 6.5986386724055643e+00 0 0 1
443 2 2.9789444393203990e+00 1.8567353402525721e+00 7.3844877133170277e+00 0 1 0
1620 2 1.9492607057843905e+01 1.5053909159108862e+01 6.2009887739546867e+00 0 -1 0
1128 2 1.3505782770475141e+01 4.3224175900054540e+00 6.4954745068266719e+00 0 1 1
1136 2 3.7786001308449881e+00 8.7783762231177995e+00 2.0109293980487133e-01 0 1 0
675 2 8.2828430044055317e+00 8.5023390831416510e+00 7.5309787396895542e+00 0 -1 0
1341 2 1.1297665011864845e+01 1.6227638201650553e+01 7.1649511963521295e+00 0 0 1
1543 1 3.5640725536396518e+00 1.2248575920408573e+01 7.0288100208187076e+00 0 0 0
668 2 -5.1163889425291598e-01 1.5329990272721963e+01 3.1238422506463790e+00 0 0 0
269 2 1.8534081555166946e+01 1.0700333085736007e+01 1.7276576194338531e+00 0 0 0
1619 2 1.9826298076830081e+01 1.5576202941468132e+01 7.6621028994794518e+00 0 -1 0
12 2 -4.8580585297172008e-01 1.7529481871054706e+01 2.3448510119922550e+00 0 -1 0
1553 2 1.5377277920404111e+01 5.5984860076419958e+00 1.0428094392093521e+00 0 0 1
235 1 9.7559635514570022e+00 1.6143893465353575e+01 4.8492683028026642e+00 0 0 0
1359 2 1.3541285517146473e+01 1.2960626298072325e+01 8.2351392029626709e+00 0 0 0
246 2 9.0250061214422654e+00 1.8750597824416907e+01 9.4151910958203757e+00 0 0 0
1084 1 3.0070175618088042e+00 9.0266621399805693e+00 3.7261447905266745e+00 0 0 0
1350 2 3.0173125268948398e+00 3.8774364776420720e+00 3.5006780807382261e+00 0 0 0
49 1 8.7997324880248744e+00 1.1674706731146680e+01 3.7631492358326817e+00 0 -1 0
716 2 1.8239424496077831e+01 6.2779070234386722e+00 1.7765376679491729e+00 0 0 1
100 1 1.9892867291987837e+01 5.7262284321924695e-01 4.6031698944059114e+00 0 0 0
750 2 1.6445726817771437e+01 6.7861529780700875e+00 2.5930856425167765e+00 0 0 1
517 1 1.8263451563745488e+01 1.3971147949661447e+01 9.9214496895973596e+00 0 0 0
1332 2 1.7925921818631277e+01 1.1435621044330496e+01 6.9066934614193327e+00 0 0 0
1824 2 1.8085565745315996e+01 1.5069454379722581e+01 2.2467727505280681e+00 0 0 1
10 1 -5.7429241479751647e-01 1.8299819472977212e+01 1.7471135686604655e+00 0 -1 0
1120 1 1.9711114103948535e+01 1.3729396389964146e+01 5.2168531785710410e+00 0 0 0
218 2 8.8724849018195737e+00 1.3839046166597482e+01 6.9290460075465292e+00 0 0 0
270 2 1.7314256548925815e+01 1.0179370652187101e+01 2.4661782958007712e+00 0 0 0
1305 2 4.7975479216213532e+00 5.8901565670193368e-01 3.9182921859403268e+00 0 0 1
1538 2 3.8133561251100989e-01 1.4638165797832508e+01 1.1147299549884415e+00 0 0 0
1312 1 -5.5927291534776047e-02 3.9894603739782655e+00 3.0088296193068995e+00 0 0 1
1101 2 6.5332850386652002e+00 6.0483851589390660e+00 9.9175905914797813e+00 0 1 0
1322 2 1.7177625822638998e-01 1.5646888034325363e+01 6.1288256576597302e+00 0 0 1
1750 1 5.6067931868932295e+00 1.7943823335435660e+01 2.7064255032964679e+00 0 1 1
75 2 1.9052783392488628e+01 8.0971426743327672e+00 8.1417890452096522e+00 0 0 0
737 2 1.8926010949692131e+01 9.9670943404796937e+00 3.8192911678789927e+00 0 0 0
704 2 3.8861852518262658e+00 3.9891263599946131e-01 8.8582482209922766e+00 0 1 -1
1583 2 1.1626648141954350e+01 1.1918171486877082e+01 8.9595797585917705e+00 0 0 0
495 2 2.3786052201472105e+00 6.8738386423395488e+00 7.9898015120612094e+00 0 0 -1
1086 2 3.4476009283485212e+00 9.8794456137719262e+00 3.5825200995186086e+00 0 0 0
536 2 1.8815015025464941e+01 1.7597633560258199e+01 4.1035212071773728e+00 0 0 0
665 2 4.2253209315645246e-01 8.1976512584205938e+00 7.3379384058350423e+00 0 0 0
1117 1 1.3182076188415475e+00 1.8895618410007486e+01 7.4797908087810464e-02 0 0 0
95 2 4.4421475984220704e+00 1.2260978231378100e+01 1.0169428264525449e+01 0 0 0
1093 1 1.5157417045083079e+01 9.2071630971980625e+00 3.3566217122211217e+00 0 2 0
1593 2 1.1501355707313452e+01 1.1751483425383315e+01 7.6719022403826564e-01 0 0 1
683 2 2.6758967434401399e+00 1.4237309519394016e+01 2.3139960082965922e+00 0 -1 0
738 2 1.9145454693660650e+01 1.0273843602227785e+01 5.3578422200613121e+00 0 0 0
251 2 4.6413838988486882e+00 1.1683950046305446e+01 4.2747088270130318e+00 0 -1 0
1792 1 8.9146204161611760e+00 4.6568408892111597e+00 6.9362806234854268e+00 0 0 1
24 2 3.3550591301972843e-01 1.2765194938409326e+01 9.8408497288474734e+00 0 -1 -1
1810 1 1.6065755153395411e+01 1.3154671947138912e+01 1.4520049307560379e+00 0 0 1
964 1 1.3476016953774897e+01 1.8701879550030370e+01 6.4409788970090984e+00 0 0 0
1537 1 -5.1784021223820775e-01 1.4506746811388112e+01 1.5171717560435776e+00 0 0 1
1581 2 8.0673322335168773e-02 1.7984742514369945e+01 7.8774789688054021e+00 0 -1 0
1771 1 9.3861123695701405e+00 9.0819743316512227e+00 4.9082841097383243e+00 0 0 0
473 2 1.1127643631860204e+01 3.9265899062049243e+00 1.8889761726446586e+00 0 1 0
1591 1 1.2189599564776762e+01 1.1192027024235911e+01 3.7241124675405496e-01 0 0 1
1358 2 1.4770863253681492e+01 1.3924677150791750e+01 7.8754157991237506e+00 0 0 -1
1376 2 1.2738331693469998e+01 1.8071232386660334e+01 5.4141608697737886e-01 0 0 1
742 1 1.0146383920753712e+01 1.6069947820745980e+01 8.3739962947933133e+00 0 -1 0
726 2 1.7584208202828158e+01 2.8252750111983831e+00 2.6866356512860015e+00 0 0 0
1764 2 -1.1503925326551068e-01 5.8232362727984039e+00 3.2046486049287937e-01 0 1 0
1562 2 8.0622200842741609e-01 1.7363202228792138e+00 7.2873669988560090e+00 0 1 0
1519 1 1.5114880672809599e+01 5.9173917010694863e+00 8.8863465958067849e+00 0 0 1
1525 1 6.5795442923235825e+00 1.1684939196735257e+01 2.1283500765157135e+00 0 0 1
64 1 1.6336135453434473e+01 9.1043967803235404e+00 6.0500766988384687e+00 0 0 -1
900 2 2.3739258948940929e+00 7.3610621369930538e+00 2.8799639388555276e+00 0 0 0
485 2 9.9056834445308137e+00 7.7101644504800673e+00 2.4524199492737115e+00 0 0 0
735 2 1.2318754115709975e+01 1.8618239918210655e+01 9.3704937015564713e+00 0 0 0
971 2 1.6642943777676582e+01 1.1088067475296587e+01 8.5872034875873293e+00 0 0 0
1521 2 1.5368646661967805e+01 6.6426975318237895e+00 9.4940139072468348e+00 0 0 1
701 2 4.9370960464198550e+00 1.0545205577970119e+01 8.8668560429644572e+00 0 0 -1
1339 1 1.1989138960147574e+01 1.6166672027561937e+01 6.4740300035980800e+00 0 0 1
920 2 9.1425611361350834e-01 7.6686470751233271e-01 3.8071817982836378e+00 0 1 0
229 1 5.7595045401917688e-01 1.2733784238117074e+01 4.5375767600324481e+00 0 0 0
242 2 1.0036855778668034e+01 1.0188915224814148e-01 3.4578152928157926e+00 0 1 0
883 1 7.2138625684037647e+00 9.8788119243491792e+00 7.3071558994178183e+00 0 0 0
1328 2 1.0923153034257458e+00 6.7915018482628851e+00 9.9474718738264905e+00 0 0 0
685 1 3.8915924215711621e+00 1.8276340251975096e+01 6.3643574000078358e+00 0 0 0
282 2 2.7079524969243534e+00 1.8182659104079828e+00 2.7170359301174463e+00 0 0 0
1578 2 1.9125154842001152e+01 7.8819813850713416e+00 4.9323869334606307e+00 0 0 1
1828 1 1.7575427073195439e+01 3.6004631356619567e+00 1.0139553014907793e+01 0 0 0
1096 1 7.1141416030897622e+00 5.0869698144394793e+00 4.5081202916913963e+00 0 1 0
1594 1 1.1479123667084473e+01 1.0105154339590335e+01 9.1689335277522410e+00 0 1 0
1303 1 4.2481759829604826e+00 1.9556763497957988e+01 4.1673966942311731e+00 0 -1 1
743 2 9.8241702121902694e+00 1.5136440720157207e+01 8.1151072242052660e+00 0 -1 0
684 2 3.3194375127965268e+00 1.4514045612100730e+01 3.7402904697378694e+00 0 -1 0
1541 2 3.6451310577111578e+00 4.0609155833674898e-01 9.5879272593470755e-01 0 0 1
1330 1 1.8834678095625211e+01 1.1523628769991866e+01 6.6007688494107315e+00 0 0 0
748 1 1.7100408408550557e+01 7.3309783264533337e+00 3.0377441905079658e+00 0 0 1
262 1 6.7017581418351702e+00 1.8191754307865587e+01 5.7253704578314322e+00 0 0 0
308 2 1.1232596936778686e+01 1.3305715743563464e+01 2.4954053534695042e+00 0 0 0
225 2 1.7994589791199282e+00 1.8382883654427047e+01 3.5417398247185266e+00 0 0 0
1794 2 9.6848133095817737e+00 5.2146309519154883e+00 7.1673763230214869e+00 0 0 1
484 1 1.0263431870993834e+01 7.2614580494946122e+00 3.2008146998205866e+00 0 0 0
1595 2 1.2149812782671106e+01 9.8420147357080801e+00 9.8353319751122719e+00 0 1 0
258 2 6.9418299071605158e+00 8.5265807471810167e+00 2.8969526794467613e+00 0 0 1
442 1 3.7029012923856621e+00 1.8619162268025093e+00 8.0638056421598154e+00 0 1 0
662 2 -5.9595386695727592e-01 6.1278382036531287e-01 1.8837174252005713e+00 0 0 1
1757 2 9.5408492213265461e+00 1.8115784391592076e+01 5.0009525303620856e+00 0 0 1
250 1 4.0603623541751803e+00 1.1515359162563001e+01 3.5277209156202862e+00 0 -1 0
479 2 1.7214250601384173e+01 1.8680535428311995e+00 6.3836781031297116e+00 0 1 -1
59 2 4.4562305167583371e-01 5.0770232044785129e+00 7.9478511576766779e+00 0 0 -1
1832 2 7.2454099589121483e+00 1.8032397654196679e+01 8.9078978862679836e+00 0 -1 0
1800 2 1.3680401912059324e+01 1.4669912198998819e+01 4.1504979957826349e-01 0 0 1
273 2 1.4182572991712732e+01 7.5469575063188410e+00 8.6898790242617630e-01 0 0 1
244 1 9.6455467213046315e+00 1.9228698101069952e+01 9.9587943447471865e+00 0 0 0
1159 1 1.2783823791693317e+01 9.6975158385759885e-01 4.3821616312082030e+00 0 1 0
1526 2 5.6552267541165921e+00 1.1559415206339501e+01 2.5217955086980965e+00 0 0 1
686 2 3.8634046390334023e+00 1.8588659243965331e+01 7.3059193699070111e+00 0 0 0
940 1 1.4276963994012469e+01 3.3923906045526859e+00 7.7451854038872323e+00 0 1 1
912 2 4.9820333910916705e+00 1.1856917298829476e+01 6.0790994382438956e+00 0 0 0
744 2 9.3298491822425440e+00 1.6706557820515865e+01 8.2080053598145870e+00 0 -1 0
227 2 -3.3413131214273506e-01 1.1646799364404613e+01 2.6650892459063940e+00 0 0 0
526 1 1.5743401773626122e+01 1.6858956365300166e+01 9.5946050418494586e+00 0 0 0
11 2 1.8041845484671903e-01 1.8318172895068781e+01 1.1437373908930246e+00 0 -1 0
1138 1 9.7154089701602206e+00 1.0717187115383180e+00 6.9236562139361570e+00 0 0 1
1753 1 -6.0920497195314738e-01 1.2993389361045526e+00 8.3973249493193478e+00 0 1 0
1803 2 5.2840260775641008e+00 6.6196610863963770e+00 7.6359456483796393e+00 0 1 1
1103 2 7.4791573272040992e+00 1.0699897157118319e+00 7.3468656495112139e-01 0 1 1
219 2 8.3178557334957173e+00 1.3742225359769046e+01 8.3820203434236671e+00 0 0 0
649 1 3.5046425411036033e+00 1.6015985974389331e+01 9.4553067553068715e+00 0 -1 0
919 1 7.0764594345159426e-01 1.9718869008858558e+01 4.3879868780452416e+00 0 0 0
1823 2 1.7856430051601048e+01 1.5247421792544040e+01 7.2374356317288724e-01 0 0 1
507 2 2.5613603008714030e+00 4.5410133932500347e+00 9.7632972370826003e+00 0 0 1
1309 1 1.2449787251837979e+01 1.8006955624259191e+01 3.7805341419031890e+00 0 0 0
320 2 7.5383348822982921e+00 1.4380009624457630e+01 5.0052758596744988e+00 0 -1 1
230 2 7.8537872207351489e-01 1.1990422834953142e+01 5.1337766738168611e+00 0 0 0
777 2 1.9817303659329589e+01 5.5496530208086998e+00 8.2379819042027069e+00 0 0 0
1776 2 3.3683412793825456e+00 1.6439659164230800e+01 4.3069982028213856e+00 0 0 1
1139 2 1.0134762705781283e+01 1.7507688046545455e+00 6.4120296539557691e+00 0 0 1
1085 2 3.3735124789047655e+00 8.6627418796201017e+00 4.6131075485699444e+00 0 0 0
1816 1 1.4948939109049848e+01 5.0404817766587129e-01 1.6160008777031754e+00 0 2 1
478 1 1.6228208151202001e+01 1.8269040203584084e+00 6.2573332657856700e+00 0 1 -1
666 2 1.1070890995468354e+00 7.7157992655720147e+00 5.8694692993866155e+00 0 0 0
1137 2 5.1734243461073062e+00 8.5429821928557441e+00 9.5894697033066467e-01 0 1 0
1756 1 1.0243471276261785e+01 1.8786587921288081e+01 5.0332638827494831e+00 0 0 1
893 2 8.4375039266688767e-01 5.1632212506908877e+00 5.7555441419879259e+00 0 0 0
910 1 5.8254598275886327e+00 1.1662469475974770e+01 5.5808762669257170e+00 0 0 0
19 1 4.4986867220346682e-01 6.7289980657079456e+00 4.6818034075096522e+00 0 0 0
506 2 2.5466484671718868e+00 3.1523343029918212e+00 9.0338576563169539e+00 0 0 0
1812 2 1.5365587556074235e+01 1.2502386881456642e+01 1.5868642544232794e+00 0 0 1
301 1 1.7302246174276121e+01 1.0547242137812189e+00 9.7054091301952248e+00 0 0 -1
1608 2 7.5010751705444711e+00 8.3380364544765637e+00 5.0348622558798990e+00 0 -1 0
970 1 1.6346827131298216e+01 1.1292381781434409e+01 7.6722153220582676e+00 0 0 0
94 1 4.8657835185137053e+00 1.2092502884270317e+01 9.3052797424954203e+00 0 0 0
489 2 1.5111382245320881e+01 8.0046524147192120e+00 6.2400165178925251e+00 0 1 -1
1799 2 1.3343804411950035e+01 1.4646565436950908e+01 1.8701717182764117e+00 0 0 1
1569 2 5.6647895212843054e+00 1.5656001480639429e+01 4.4326800745124180e+00 0 -1 1
710 2 1.9202776967539720e+01 5.0411678391606030e+00 5.2215000507144209e+00 0 0 0
1580 2 -3.2161158949458990e-01 1.7730432582985809e+01 9.4011072722646727e+00 0 -1 0
876 2 5.4815659858039476e+00 4.9078037342171807e+00 4.0541347974407440e+00 0 0 0
1749 2 -2.9765523109499498e-01 9.8607533676758958e+00 4.1801331245042190e+00 0 0 1
76 1 1.8111816489270289e+01 1.0255835637960740e+00 2.3650328421830444e+00 0 0 0
1126 1 1.2728861777996610e+01 4.7115772539587066e+00 6.0074772178856426e+00 0 1 1
105 2 1.7323359290458882e+01 4.9641089742062503e+00 9.7105780626047702e-02 0 0 0
885 2 6.9929285037488933e+00 1.0504175746014967e+01 6.5878490180246665e+00 1 0 0
1307 2 9.0922416249910931e+00 2.7801436974822447e+00 9.7299863012146375e+00 0 0 1
79 1 8.5278522737298950e+00 5.6388427708106432e+00 6.6666866682241621e-01 0 1 0
535 1 1.9503091912717576e+01 1.7638232624076757e+01 4.7962435571962532e+00 0 0 0
223 1 1.9666093066836354e+00 1.7437851175685459e+01 3.4179724986884299e+00 0 0 0
502 1 1.6230116937200904e+01 9.6825697699619386e+00 2.1239621035007381e-01 0 1 0
715 1 1.8434085859147057e+01 5.4618080151936601e+00 1.3447979155746093e+00 0 0 1
257 2 6.8933793737501690e+00 9.8803449852524050e+00 2.0344372411113714e+00 0 0 1
472 1 1.2070102078879719e+01 3.9197757395470747e+00 1.5712659582773871e+00 0 1 0
682 1 2.7116524500184522e+00 1.3871690220077522e+01 3.2590077575909695e+00 0 -1 0
1370 2 1.3533981760016504e+01 4.7933871994631208e+00 4.4979405457333410e+00 0 0 1
711 2 1.8812498416555730e+01 3.9709961919883185e+00 4.3712281702471731e+00 0 0 0
51 2 9.0262077777531911e+00 1.0796144382073567e+01 4.2412881422989788e+00 0 -1 0
1316 2 -5.5014632120565155e-01 1.4688167398753219e+01 8.0365241068395008e+00 0 -1 0
687 2 3.9649336166968157e+00 1.9022671347136992e+01 5.7387221943167459e+00 0 0 0
74 2 1.7862805288135224e+01 7.2458902339813482e+00 8.3232325561749967e+00 0 0 0
307 1 1.0341365251556677e+01 1.3072616989000432e+01 2.1109761796170559e+00 0 0 0
901 1 1.5226307492307949e+01 2.1361129147334359e+00 3.9203755443304864e+00 0 1 0
1811 2 1.5691225732180438e+01 1.3938067999956496e+01 1.0422510958717530e+00 0 0 1
1127 2 1.2003049368076459e+01 4.0465698317002570e+00 5.8515864937318236e+00 0 1 1
1369 1 1.3701725056633610e+01 4.9034527823108629e+00 3.5326345199102613e+00 0 0 1
458 2 1.9358129084947105e+01 1.3566189769968804e+00 5.8802460747661431e+00 0 1 0
1793 2 8.8044659935477743e+00 4.0652348640594447e+00 7.7080817425042429e+00 0 0 1
703 1 3.7754384558749647e+00 1.9158618386046165e+01 9.0484028743851113e+00 0 0 -1
465 2 1.3276500353557083e+01 9.9276346457604647e-01 1.3348141680253269e+00 0 0 -1
1122 2 1.9625238516008444e+01 1.2923724499631231e+01 5.7170982106056840e+00 0 0 0
1313 2 -1.1482224992307333e-01 4.7558555260189843e+00 2.4297478156904324e+00 0 0 1
1520 2 1.4848951239895241e+01 6.3944479812397068e+00 8.1358024510859615e+00 0 0 1
651 2 3.0398311131082747e+00 1.6880913356193279e+01 9.6347110133841571e+00 0 -1 0
921 2 -2.4937921906582367e-01 2.2159122047930746e-02 4.6596765482378926e+00 0 1 0
237 2 9.3732305320019051e+00 1.5245573917837143e+01 4.9066470984694739e+00 0 0 0
1544 2 3.3953648704473096e+00 1.3212517612805527e+01 7.1410744428868727e+00 0 0 0
931 1 1.3054938830375905e+01 1.3372645330083705e+01 2.8377047652751037e+00 0 0 0
293 2 1.7955255539264428e+01 1.7327257402152288e+01 2.1182917449773786e+00 0 -1 -1
1083 2 5.4955351985418357e+00 1.8716709225271781e+01 9.9057058362658896e+00 0 0 0
712 1 8.2085035076595929e+00 2.6602610147000094e+00 1.9762203060647980e+00 0 0 1
7 1 -2.9865668733257922e-01 1.1700656654701515e+01 8.3676213179177026e+00 0 -1 0
1125 2 1.8250773913386610e+01 1.9359090054062023e+01 8.3087059422245133e+00 0 0 0
488 2 1.3663137946563895e+01 7.4520783196553495e+00 5.7552869901307870e+00 0 1 -1
1817 2 1.4950136045469508e+01 1.9292864048176487e+01 1.9627634933764311e+00 0 1 1
1161 2 1.3571158200199372e+01 1.4355876424554228e+00 4.1339603034551748e+00 0 1 0
77 2 1.8764419575269194e+01 9.1535677647650671e-01 1.6455755773771541e+00 0 0 0
690 2 1.5876396415322869e+01 1.5576447318051418e+01 6.6768799595071551e+00 0 -1 0
959 2 1.1997466309102920e+01 6.0878458828438662e+00 6.9587169717752646e+00 0 1 0
286 1 1.4117223968763335e+01 1.1174153184746567e+01 2.0374402324501220e+00 0 0 0
700 1 4.8941105988332207e+00 9.6437982686065187e+00 8.3494858554858791e+00 0 0 -1
1783 1 3.6812227051716997e+00 5.8291891158405376e+00 6.2598411708008745e+00 0 1 0
1554 2 1.4626194179904330e+01 5.6162853896307929e+00 2.3995971148967348e+00 0 0 1
231 2 1.3903019812011497e+00 1.3142369501581321e+01 4.2193088279542801e+00 0 0 0
8 2 -3.2625195678451663e-01 1.1005992031511479e+01 9.0759875625033928e+00 0 -1 0
1802 2 6.8252179350498139e+00 6.7232458173888716e+00 7.8241536071320246e+00 0 1 1
1088 2 6.8452179468689445e-01 1.1045006511561995e+01 7.1931520597346124e+00 0 1 0
688 1 1.6252484614314781e+01 1.5224357057194787e+01 7.5340964061926581e+00 0 -1 0
1112 2 6.1425299372622106e+00 1.3025848282679148e+01 9.4324200645703211e+00 0 0 0
1785 2 2.7568176791008359e+00 5.4902435428655467e+00 6.3826014343513151e+00 0 0 0
1558 1 1.6202308310343643e+01 1.8699416044847364e+01 6.0245004412580085e+00 0 0 1
1163 2 1.4483654121725440e+01 1.6627524318929058e+01 1.1854673667466666e+00 0 0 1
932 2 1.3385209759100398e+01 1.3461896561679360e+01 3.7818654540294796e+00 0 0 0
1535 2 1.3732167051910160e+01 8.0967799458906669e+00 3.7546688842035940e+00 0 -1 0
1798 1 1.3595443544684745e+01 1.5265704612868136e+01 1.1960418236325188e+00 0 0 1
1579 1 -4.4117480862014347e-01 1.8331936167152524e+01 8.6283824935558275e+00 0 -1 0
667 1 -3.3011431962401350e-01 1.5890163237213647e+01 3.8788628699748395e+00 0 0 0
452 2 3.3255446618130042e+00 1.5226842391953324e+01 8.0333067822647219e+00 0 0 -1
1321 1 3.6611823956457856e-01 1.4775386354489392e+01 6.5384090942137449e+00 0 0 1
1111 1 6.8457919186484180e+00 1.3756245634390211e+01 9.5443976158400687e+00 0 0 0
264 2 5.7179034092774836e+00 1.8073481125368382e+01 6.0705372863258349e+00 0 0 0
1577 2 1.8833195284938807e+01 7.0718474350166938e+00 6.2364221111426517e+00 0 0 1
741 2 6.2991152707898799e+00 1.1436402820218582e+01 2.7931897537507705e-01 0 0 1
1340 2 1.2233279114563159e+01 1.7080691372088324e+01 6.3651900636619114e+00 0 0 1
96 2 4.2834222563485067e+00 1.2232716879300126e+01 8.5350607443384199e+00 0 0 0
1536 2 1.3119087225356575e+01 6.6704422174891205e+00 3.6979138159726133e+00 0 -1 0
914 2 1.6041584646649806e+01 5.1372634244032789e-01 1.0452981411495696e-01 0 1 0
958 1 1.1200934551689013e+01 6.2606827009053552e+00 7.5313110542728117e+00 0 1 0
1751 2 5.0629559146934788e+00 1.7797129231876436e+01 1.8816749416260885e+00 0 1 1
1748 2 1.0805202593746899e+00 9.3839910968221947e+00 3.6623655036601375e+00 0 -1 1
503 2 1.5327352066756532e+01 9.2755640453504995e+00 3.0749631363692409e-01 0 1 1
875 2 4.7876355749438737e+00 5.2972282478240693e+00 2.6895164359516159e+00 0 0 0
654 2 4.0530292112991626e+00 7.3441117758483063e+00 6.2271824461305956e+00 0 0 0
1162 1 1.4948140959173328e+01 1.7450571873639795e+01 8.9136234253055002e-01 0 0 1
21 2 -4.9765544002856277e-01 6.6910053470717576e+00 4.5603334913652152e+00 0 0 0
894 2 1.5602388321471219e+00 3.7958353061697276e+00 6.2136156794622401e+00 0 0 0
480 2 1.5729574275226991e+01 2.2523019750186806e+00 6.9468748737634449e+00 0 1 -1
1758 2 1.1061483093978715e+01 1.8234670594485351e+01 4.7579730252038352e+00 0 0 1
255 2 5.3101716763195617e-01 1.1246166494883074e+01 7.0203726041043901e-01 0 0 1
1831 1 7.9986220238592960e+00 1.7819788838756505e+01 8.2703889711021237e+00 0 -1 0
695 2 1.7038747478478339e+01 1.3469776993623515e+01 2.9937496220773077e+00 0 -1 0
1801 1 6.0304117960603270e+00 6.2327991918538368e+00 8.0885567458298198e+00 0 1 1
680 2 -6.2192567557298950e-01 6.9749830028976660e+00 8.5703342405539740e+00 0 0 0
252 2 3.4513386634943632e+00 1.2327755560913285e+01 3.3185801538186124e+00 0 -1 0
965 2 1.4402095711148815e+01 1.8661557640104920e+01 6.8071413242441841e+00 0 0 0
284 2 1.2545542294013284e+01 1.0014269260395448e+00 9.2091441323129377e+00 0 0 0
78 2 1.8757189411260921e+01 1.1236691089683035e+00 3.1081860048273926e+00 0 0 0
1777 1 5.9630802468157338e+00 3.3315859350530959e+00 7.6842477396993152e+00 0 1 0
66 2 1.6322849299053807e+01 9.7108931426400531e+00 6.7563763308752103e+00 0 0 -1
933 2 1.3388606521279819e+01 1.2438913308369825e+01 2.5892839471490974e+00 0 0 0
1567 1 6.6284378163825153e+00 1.5809105193105832e+01 4.2433459938436382e+00 0 -1 1
314 2 1.2984757067424150e+01 1.4716613946349110e+01 5.9182114086521596e+00 0 0 0
287 2 1.3644930633402037e+01 1.0757688949181343e+01 1.3229629397828651e+00 0 0 1
904 1 1.8117287821925672e+01 5.2555520397900812e+00 8.0924459290566748e+00 0 0 0
1607 2 5.9485218792434287e+00 8.1082585911616611e+00 5.0123301441274517e+00 0 -1 0
702 2 4.6577044923286550e+00 9.0941644355023978e+00 9.1155925283293655e+00 0 0 -1
1545 2 2.7691963728217459e+00 1.1836699565344251e+01 6.6368914199270055e+00 1 0 0
88 1 8.9591954633265125e+00 1.0006781769256229e+01 9.6784863153337408e+00 0 0 0
33 2 2.4416098145939840e+00 1.5756515292101755e+01 7.9732617070667977e-01 0 -1 0
245 2 1.0449399976800457e+01 1.9269656533805499e+01 9.3501753323132153e+00 0 0 0
537 2 1.9055968559557225e+01 1.7148140306974330e+01 5.5459226341833645e+00 0 0 0
672 2 2.7505969110443442e+00 1.7327271832290148e+01 1.8870185807949480e+00 0 -1 0
1775 2 3.6709476038694335e+00 1.5558827215710178e+01 5.6466384060134516e+00 0 0 1
942 2 1.4834147787261095e+01 3.9257530259147133e+00 8.3253037269287073e+00 0 1 1
5 2 4.8639337305281032e+00 2.8276983829939564e+00 3.6975089958684988e+00 0 1 0
438 2 4.0316539674281451e+00 6.2326713008680583e+00 4.2053495127745411e-01 0 0 0
276 2 1.6273665506255846e+01 4.4519545532477816e+00 5.7451144560677143e+00 0 0 0
1123 1 1.8338004123945307e+01 1.8517576615050555e+01 7.7268881529935021e+00 0 0 0
450 2 1.5608562503808333e+01 1.8323508373220477e+01 4.4166260102340615e+00 0 0 0
1572 2 1.0463297464379199e+01 3.2294835239579287e+00 4.2916050592026354e+00 0 0 1
1774 1 3.9389850471180496e+00 1.5780619382133985e+01 4.7122635481265647e+00 0 0 1
1534 1 1.2963345993271055e+01 7.5683907293344381e+00 3.9788615716955498e+00 0 -1 0
736 1 1.9453323067109938e+01 9.7267097695085667e+00 4.6123530379369200e+00 0 0 0
444 2 4.4194508726116624e+00 2.4197270809818714e+00 7.7382503488019738e+00 0 1 0
1087 1 1.2642194635888673e+00 1.0912830639756615e+01 6.4190300777145728e+00 0 1 0
1555 1 9.2268074830863878e+00 8.2392848234797249e+00 7.6597491828082021e-01 0 0 1
226 1 -6.8171631350720352e-01 1.1958852797885230e+01 1.8300451798803323e+00 0 0 0
696 2 1.7031700331901050e+01 1.4549818415902513e+01 4.1464819561416792e+00 0 -1 0
1374 2 9.4219077809912815e+00 5.3221866455574203e+00 3.4942552883247071e+00 0 0 1
972 2 1.5616780431943162e+01 1.1947717712336580e+01 7.7637010496955670e+00 0 0 0
1731 2 8.0640729239378572e+00 1.5986120382076481e+00 5.8744159573693180e+00 0 1 0
302 2 1.7387883777132384e+01 2.0323645898207503e+00 9.7678962407807113e+00 0 0 -1
50 2 9.4846812921236410e+00 1.1955912757123848e+01 3.1394492293546459e+00 0 -1 0
6 2 6.0798209305505422e+00 2.1561943475013847e+00 4.3950008452472682e+00 0 1 0
1548 2 8.4818054842263653e+00 1.5634803009032089e+01 1.1990636369241383e+00 0 0 1
453 2 2.1639900397779246e+00 1.4914828741396422e+01 7.0764550242535407e+00 0 -1 -1
1157 2 1.1394621004703668e+01 9.4705685661787253e+00 7.7658619455846756e+00 0 0 0
294 2 1.7828386279412456e+01 1.8839849146023077e+01 2.4542109298724637e+00 0 -1 -1
65 2 1.7022686010584721e+01 8.4904887007472816e+00 6.3413346423710735e+00 0 0 -1
714 2 8.6505123862666942e+00 1.8481055700571432e+00 2.3902017244048039e+00 0 1 1
527 2 1.5875099879566577e+01 1.6307328686440737e+01 8.7981475445495363e+00 0 0 0
1822 1 1.8448247072452173e+01 1.5552058154621065e+01 1.4607638201075215e+00 0 0 1
46 1 7.2882825210518369e+00 1.4541449173130722e+01 8.3231294005345702e-01 0 -1 0
1773 2 1.0137620528650654e+01 9.1503450435432647e+00 5.4983493907871583e+00 0 0 0
275 2 1.5936932793267822e+01 5.9376483833171845e+00 6.0978968116595089e+00 0 0 0
1563 2 1.3397921890573903e+00 1.3988384993236891e+00 5.8458100652661997e+00 0 1 0
315 2 1.3841733241528866e+01 1.3392643398261226e+01 6.0599417128623019e+00 0 0 0
1568 2 6.8429293552837569e+00 1.6578378913072175e+01 4.8178818613306698e+00 0 -1 1
319 1 8.1018239239754912e+00 1.3729777842858148e+01 5.4261771872137929e+00 0 -1 1
1310 2 1.3390834456030261e+01 1.8011791718649636e+01 3.6719082355050716e+00 0 0 0