LAMMPS data file via write_data, version 15 Apr 2020, timestep = 200000

972 atoms
2 atom types

1.5847999557908743e-01 1.9832573004422461e+01 xlo xhi
1.4735857085292992e-01 1.9843694429149057e+01 ylo yhi
1.6600470891152774e-01 2.0634767291087851e+01 zlo zhi
-2.3407657828175379e-01 2.8298143284547123e-01 -1.7551883693828069e-01 xy xz yz

Masses

1 16
2 2

Atoms # atomic

4 1 4.0918192761953485e+00 1.2293736298068614e+00 3.6571528463803671e+00 0 0 0
5 2 3.9905662714431771e+00 2.1595682599489887e+00 3.4780306950917992e+00 0 0 0
6 2 3.2191376344523359e+00 9.3166057933938939e-01 3.9478619910074713e+00 0 0 0
7 1 5.9439096477835669e+00 4.5565418578832428e+00 5.3615370423220208e+00 0 0 0
8 2 6.8823506126824938e+00 4.6456421352605153e+00 5.0711257994633199e+00 0 0 0
9 2 5.4953372388694870e+00 4.2495533870860118e+00 4.5301587773054770e+00 0 0 0
10 1 1.4447148623476809e+00 4.2540941014055083e+00 4.0882778644856144e+00 0 0 0
544 1 4.1391866335882543e+00 1.4461770133024380e+01 1.0201955925479609e+01 0 0 0
12 2 1.2554002688363617e+00 4.9627985854891614e+00 3.4255480429076366e+00 0 0 0
13 1 4.4685318292835854e+00 6.1855788651928272e+00 1.4333545378804522e+00 0 0 0
14 2 4.2696538363548493e+00 6.8697795387843694e+00 2.1320320945034572e+00 0 0 0
15 2 3.6747548222780386e+00 6.1082283785562117e+00 8.5489887419394484e-01 0 0 0
16 1 4.0130165432417861e+00 4.0035501407505141e+00 3.1326691559540336e+00 0 0 0
17 2 4.1783250445582540e+00 4.6703639629592084e+00 2.4450406068658408e+00 0 0 0
18 2 3.1417859181497909e+00 4.1015863972924009e+00 3.5566662125736306e+00 0 0 0
19 1 5.9047907364645602e-01 6.1294055583826035e+00 2.2429965238854233e+00 0 0 0
20 2 7.9698125086155847e-01 7.0461090066909344e+00 2.4597744846540697e+00 0 0 0
22 1 1.7655825257221265e+00 6.1829909137911310e-01 5.2012006167490208e+00 0 0 0
23 2 7.9740078066594133e-01 5.7402163254960503e-01 4.9949945810081768e+00 0 0 0
24 2 1.8505683084705411e+00 1.4805257402923426e+00 5.6551459363276217e+00 0 0 0
25 1 2.5198043716402831e+00 5.1528749653201551e+00 6.6293387199817744e+00 0 0 0
26 2 2.3492861687351327e+00 5.9657322485888606e+00 6.1840158144132911e+00 0 0 0
27 2 3.4171110507658846e+00 5.1960816460939991e+00 7.0550145820760468e+00 0 0 0
28 1 5.9392050042772002e+00 7.4837032423865180e-01 5.6339302123336754e+00 0 0 0
29 2 5.3260844925458439e+00 7.0924652508824848e-01 4.8480354058620811e+00 0 0 0
30 2 5.8213958661069984e+00 1.9473283374445121e+01 5.8590563252713252e+00 0 0 0
31 1 9.8263553598749798e-01 2.4581723785649343e+00 2.0434170237959344e+00 0 0 0
436 1 4.4200776599612608e+00 7.5742392061473751e+00 1.0030945251628030e+01 0 0 0
33 2 1.1250617811444732e+00 3.0621226507992048e+00 2.7596234809605140e+00 0 0 0
437 2 4.4296592866860873e+00 8.5325914486492156e+00 9.8310907924251936e+00 0 0 0
35 2 6.0711715831301500e+00 2.6680510445821053e+00 1.0309663002664289e+00 0 0 0
46 1 8.1718000314949037e+00 4.3992958066230887e+00 3.7003729512362864e+00 0 0 0
47 2 9.1073254205370588e+00 4.4986653788090942e+00 3.8722021024432030e+00 0 0 0
48 2 7.8875614985290250e+00 5.1305666866650288e+00 3.0308631172113203e+00 0 0 0
55 1 7.1496275981537059e+00 6.2080966674799729e+00 1.9007932661541951e+00 0 0 0
56 2 7.4043021132045999e+00 7.1077124057473497e+00 2.1521673518132527e+00 0 0 0
57 2 6.2606045355572899e+00 6.2492835350933964e+00 1.4535368755906628e+00 0 0 0
58 1 8.6217630052230412e+00 5.8861885868629971e-01 5.2570059651228229e+00 0 0 0
372 2 7.7924046419523183e+00 4.8122015933795694e+00 1.0086963522571338e+01 0 0 0
60 2 7.6409980721474238e+00 4.8720469444032288e-01 5.1174326822740515e+00 0 0 0
61 1 8.7858790037584527e+00 5.2024103540315956e+00 6.8242251285488296e+00 0 0 0
444 2 1.3754759581373044e+00 1.1199933222291294e+01 1.0136414841364212e+01 0 0 0
63 2 8.1224494458414451e+00 5.4464640030249774e+00 7.5522503209412442e+00 0 0 0
67 1 7.3338708964870367e+00 2.2823281380414175e+00 1.9902770022732355e+00 0 0 0
68 2 7.6639431097305568e+00 2.8598645706347177e+00 2.7290185928711539e+00 0 0 0
69 2 8.1168858401473827e+00 2.2534278792591174e+00 1.4019369155171548e+00 0 0 0
111 2 2.2983468854379847e+00 9.6048336979405029e+00 1.1555939669305304e+00 0 0 0
609 2 7.6817142953239319e+00 1.5805805912083549e+01 9.8651384368050916e+00 0 0 0
558 2 4.5525672297322348e+00 1.7707763434478814e+01 9.9124477173586030e+00 0 0 0
112 1 4.1830467934299129e+00 8.0511383509652639e+00 3.3909595879961110e+00 0 0 0
113 2 4.8398115153979084e+00 7.8020932215249275e+00 4.0255211881349524e+00 0 0 0
114 2 4.0041545952163364e+00 8.9878204531012962e+00 3.3998036144396875e+00 0 0 0
115 1 5.9574354715433993e+00 1.1060790580648346e+01 5.5511249082785188e+00 0 0 0
116 2 5.7285258730410265e+00 1.1929154345784461e+01 5.9155724614905045e+00 0 0 0
117 2 5.7168881048881843e+00 1.0362461975827312e+01 6.2007930193199154e+00 0 0 0
118 1 1.3988510142685615e+00 1.1023117624617525e+01 3.9525766282291452e+00 0 0 0
119 2 7.8255716254174434e-01 1.1310213614149662e+01 4.6786897854902030e+00 0 0 0
120 2 2.3047755636010714e+00 1.0864814578710623e+01 4.2261189680625257e+00 0 0 0
121 1 4.8132990826133897e+00 1.2872665431815406e+01 1.9197114933761910e+00 0 0 0
122 2 5.7507967846426462e+00 1.2838307940140252e+01 1.7123472456615674e+00 0 0 0
123 2 4.3470701219763530e+00 1.2702605639496653e+01 1.1454216651929388e+00 0 0 0
124 1 4.2189827389779699e+00 1.0694394784534653e+01 3.7248294190301241e+00 0 0 0
125 2 4.5307921992270357e+00 1.1430390463573811e+01 3.1650397398174683e+00 0 0 0
126 2 4.9828444205070799e+00 1.0731845634378672e+01 4.3435089330966887e+00 0 0 0
127 1 8.4531140834888885e-01 1.2622407694975422e+01 1.9444680905364360e+00 0 0 0
128 2 1.4774782477943114e+00 1.2478481288778283e+01 1.2597567173899702e+00 0 0 0
129 2 1.0674261766378770e+00 1.2129982364128301e+01 2.7763256576922823e+00 0 0 0
130 1 2.2106479917275164e+00 7.3245645963992292e+00 5.1431810868842334e+00 0 0 0
131 2 2.8299048506221780e+00 7.5190770651149554e+00 4.3772305081388083e+00 0 0 0
132 2 2.4017964951455997e+00 8.0673580386256276e+00 5.7260222100014744e+00 0 0 0
133 1 2.6816825642496074e+00 1.1973711385330134e+01 6.8982833585585741e+00 0 0 0
134 2 2.0599003905013316e+00 1.2167275877736358e+01 7.6117232677271209e+00 0 0 0
135 2 2.4027181064820256e+00 1.2441324148681991e+01 6.0962749711921811e+00 0 0 0
136 1 5.9033316825433335e+00 7.2448363593686711e+00 5.1594122232577488e+00 0 0 0
137 2 5.8729283948590574e+00 6.2795695789348489e+00 5.4375321132417609e+00 0 0 0
138 2 6.8590561465021880e+00 7.5138505117575507e+00 5.0193024816514997e+00 0 0 0
139 1 1.0438027059761015e+00 9.0364229500738062e+00 2.2486777504055819e+00 0 0 0
140 2 1.1959566185895716e+00 9.6555948757191725e+00 2.9712386036496348e+00 0 0 0
572 2 3.0650639293279114e-01 1.5308465877394623e+01 8.5340568077286605e+00 0 0 0
147 2 8.4664734579486218e+00 9.1315237059749084e+00 7.7323902568243907e-01 0 0 0
258 2 9.8114124108046123e+00 1.4328406859250348e+01 3.9107235890744612e+00 0 0 0
154 1 8.2170099270387507e+00 1.0843146674409631e+01 3.9246017152215922e+00 0 0 0
155 2 7.6315211727943550e+00 1.0991414747171685e+01 4.7111479790062205e+00 0 0 0
156 2 9.1456479315506876e+00 1.0962248581592094e+01 4.0886582081329763e+00 0 0 0
163 1 7.4797549713443443e+00 1.2711396446800919e+01 1.8917292189354937e+00 0 0 0
164 2 7.9985643364145611e+00 1.2279642262325666e+01 2.5727863558072976e+00 0 0 0
165 2 7.9991007007244574e+00 1.2446523039882987e+01 1.0857154045105180e+00 0 0 0
166 1 8.7551716386301734e+00 7.3443582482143759e+00 5.3309349202918987e+00 0 0 0
167 2 8.9749910947141789e+00 8.1071575767175190e+00 5.9396347911821623e+00 0 0 0
168 2 8.8961253255601100e+00 6.5314647231007621e+00 5.8563137518155690e+00 0 0 0
11 2 6.7464333028780166e-01 4.2193974424170415e+00 4.6574210400502301e+00 0 0 0
171 2 8.7939413968697089e+00 1.2695709641647451e+01 6.2191007539182914e+00 0 0 0
175 1 7.4970655913752555e+00 8.8990294585563063e+00 2.0885737761472649e+00 0 0 0
176 2 7.8204819025296040e+00 9.5498558185834224e+00 2.7586696741120602e+00 0 0 0
177 2 6.6199231906726892e+00 9.2321697025114116e+00 1.8021905568126106e+00 0 0 0
450 2 4.4882756732414917e+00 1.1052371790667491e+01 9.4139197122211300e+00 0 0 0
3 2 2.0877596375135221e+00 2.8627321963689298e+00 7.7768547157072820e-01 0 0 0
142 1 5.2796138726999429e+00 9.5558253735683181e+00 4.0035958702649466e-01 0 0 0
59 2 9.0942523191802618e+00 7.7739862140030480e-01 4.4375986394495257e+00 0 0 0
150 2 9.8896649174149402e+00 7.5362655305382740e+00 4.0618245088209388e+00 0 0 0
220 1 3.7094755481794417e+00 1.4680476142872408e+01 3.4266245626661629e+00 0 0 0
221 2 4.0890011214466728e+00 1.5610792128699670e+01 3.2597643556960985e+00 0 0 0
222 2 4.0291135554590358e+00 1.4014661443706656e+01 2.7581706667950012e+00 0 0 0
223 1 6.1432922386501483e+00 1.7808039310689740e+01 5.4496101759095756e+00 0 0 0
224 2 6.9355034204973673e+00 1.7531463054931653e+01 5.0139291989036519e+00 0 0 0
225 2 6.0402391196516545e+00 1.7133264178973374e+01 6.1267588296679074e+00 0 0 0
226 1 1.5568537942549023e+00 1.7391770532914634e+01 3.6684375138331782e+00 0 0 0
227 2 1.4175670190641279e+00 1.8247033727123707e+01 3.2259899893770170e+00 0 0 0
228 2 1.1612487036752996e+00 1.6790162231695138e+01 3.0226578916069502e+00 0 0 0
229 1 4.7939763713859289e+00 1.8908213614485664e+01 1.8402475483358833e+00 0 0 0
230 2 4.4765348610903581e+00 1.8231331702046234e+01 2.5034412858621153e+00 0 0 0
231 2 4.4958785788810518e+00 1.9716249854337764e+01 2.2808216460225310e+00 0 -1 0
232 1 4.1244812033371172e+00 1.7169846438988390e+01 3.5528064567204276e+00 0 0 0
233 2 3.1466963027156982e+00 1.7159551023056654e+01 3.6872164074799638e+00 0 0 0
234 2 4.6346847862936151e+00 1.7370662763169371e+01 4.3614898497203400e+00 0 0 0
235 1 8.3262274636495670e-01 1.9604244732185169e+01 2.0590724731739325e+00 0 0 0
236 2 1.3242817279104513e+00 8.5919449014543336e-01 2.0772656779959551e+00 0 0 0
237 2 1.4572850509661532e+00 1.9194994012410728e+01 1.3549443877138929e+00 0 0 0
238 1 1.9876361182867648e+00 1.4145892358578269e+01 5.3646994378344734e+00 0 0 0
239 2 2.3280812128838262e+00 1.4440612618000424e+01 4.5224042540456866e+00 0 0 0
240 2 9.9989163027664907e-01 1.4130386658763758e+01 5.2920466014312897e+00 0 0 0
241 1 2.7357821224324579e+00 1.8358739480213437e+01 6.7858466665475001e+00 0 0 0
242 2 2.1657145458517979e+00 1.8924424742025320e+01 6.1856655285409214e+00 0 0 0
243 2 2.3790657567439917e+00 1.7453906287495670e+01 6.7125644578622952e+00 0 0 0
244 1 5.5969501080437105e+00 1.3792423626328926e+01 5.4963237064611148e+00 0 0 0
245 2 5.6900810855706601e+00 1.4506094688953230e+01 6.1715278590529765e+00 0 0 0
246 2 4.8322630392997770e+00 1.4002435847358106e+01 4.9470560483026116e+00 0 0 0
247 1 5.5707953727291981e-01 1.5270363097827081e+01 1.8266500050349270e+00 0 0 0
248 2 6.4781748931508942e-01 1.4320111917140455e+01 2.0377094971165319e+00 0 0 0
249 2 1.2840894040782684e+00 1.5487090506305087e+01 1.2048931038255384e+00 0 0 0
251 2 6.1852914075851153e+00 1.5853816286844145e+01 1.0076205967106933e+00 0 0 0
297 2 1.1390263037999568e-01 1.7564644859500575e+01 4.9460214080259259e+00 1 0 0
262 1 8.3194692682790219e+00 1.7327989443831420e+01 4.0122599812568920e+00 0 0 0
263 2 9.2908054160100431e+00 1.7392140953356851e+01 4.0474735768302672e+00 0 0 0
264 2 7.9686409337572108e+00 1.8161576109217510e+01 3.6029291020072307e+00 0 0 0
271 1 7.3326869899510161e+00 1.9325191782160832e+01 2.4150638341832220e+00 0 0 0
272 2 7.5343306609686760e+00 6.1557292466044944e-01 2.2556597615772596e+00 0 0 0
273 2 6.4600916798702261e+00 1.9085297894058087e+01 2.0425941331390787e+00 0 0 0
274 1 8.5302570119214973e+00 1.4071687695631566e+01 5.0704550507789161e+00 0 0 0
275 2 8.6931659502937233e+00 1.4779597923111881e+01 5.7222736410828272e+00 0 0 0
276 2 7.5482446539838524e+00 1.4106961883348923e+01 4.9062226297557601e+00 0 0 0
277 1 9.4184860995603259e+00 1.8183672055250323e+01 6.9446230702116649e+00 0 0 0
278 2 9.1000682487643871e+00 1.8627594343752524e+01 6.1701447752343155e+00 0 0 0
279 2 8.6080903308677108e+00 1.8253674134568854e+01 7.5571713655195287e+00 0 0 0
283 1 7.2965177390601221e+00 1.5638488619678020e+01 2.2793918388745662e+00 0 0 0
284 2 7.7672520610677127e+00 1.6144365885409513e+01 3.0030775282634190e+00 0 0 0
285 2 7.4395942504631867e+00 1.4688338019190013e+01 2.4207979489164417e+00 0 0 0
141 2 2.2711425539950209e-01 9.2081867099491603e+00 1.7692410131337026e+00 0 0 0
325 1 2.4863430745747710e+00 2.6665754846858252e+00 6.7356395295905100e+00 0 0 0
326 2 2.3887088070130829e+00 3.6513490716505204e+00 6.6228228990105436e+00 0 0 0
327 2 3.3174038037782387e+00 2.5825222968791928e+00 7.1490920752237672e+00 0 0 0
329 2 4.5216338963284652e+00 5.0016080304299848e-01 9.6499747781076799e+00 0 0 0
337 1 4.4866433489764779e+00 5.3094378145902068e+00 8.6802054893809597e+00 0 0 0
338 2 4.2669819201917569e+00 4.7124443798990248e+00 9.4503499882654491e+00 0 0 0
339 2 4.3153535124211269e+00 6.2037585908540409e+00 9.0659468011894084e+00 0 0 0
343 1 7.9766761038540723e-01 5.8622767758109742e+00 8.6731632481300824e+00 0 0 0
344 2 9.9014974166662972e-01 5.3665528540428049e+00 9.5027654438803140e+00 0 0 0
345 2 1.4054484413635175e+00 5.5918963965984680e+00 7.9634833307781507e+00 0 0 0
355 1 8.1304623924422748e-01 2.2101678578932478e+00 8.5878059383133358e+00 0 0 0
356 2 8.8587090462208939e-01 1.2680624026475205e+00 8.8250626180258429e+00 0 0 0
357 2 1.4409913888947612e+00 2.3810683013798659e+00 7.8298136621217216e+00 0 0 0
358 1 5.2488593766380340e+00 2.5367682616078486e+00 7.7117957705098972e+00 0 0 0
359 2 5.5507554098160679e+00 3.3400324245457558e+00 7.2312261307950276e+00 0 0 0
360 2 5.4173531478922037e+00 1.8845248955436309e+00 6.9765240883978876e+00 0 0 0
361 1 8.9802196128117977e+00 2.5635863580973499e+00 7.1429316322632346e+00 0 0 0
362 2 8.8423285530818898e+00 1.9167169110124092e+00 6.3795559808498536e+00 0 0 0
363 2 8.3435788764171566e+00 2.2365432399860734e+00 7.8308304354934535e+00 0 0 0
254 2 8.6332408252259771e+00 1.5835055581429250e+01 1.0533269019684792e+00 0 0 0
379 1 7.2687774097731666e+00 5.6575258782920450e+00 8.8671511872313857e+00 0 0 0
380 2 7.3449515365543014e+00 6.5778379192550469e+00 9.0384501956635503e+00 0 0 0
381 2 6.2954459165495784e+00 5.5230568645137854e+00 8.8371551409292479e+00 0 0 0
391 1 7.5340181780591911e+00 1.8260449420279621e+00 9.4181304238110020e+00 0 0 0
392 2 7.8026241982682913e+00 2.6894410382342162e+00 1.0008341674995181e+01 0 0 0
393 2 6.6625115760741211e+00 2.0473542555374387e+00 9.0728143750538841e+00 0 0 0
62 2 8.8762540660353384e+00 4.2329629406302978e+00 6.7506757667109216e+00 0 0 0
433 1 2.4929019039906017e+00 9.2169756840012251e+00 7.0037789927685781e+00 0 0 0
434 2 2.3905591299333975e+00 1.0270806711859871e+01 6.9651474066511581e+00 0 0 0
435 2 1.9499191317117321e+00 8.9769023071344201e+00 7.8114261034269816e+00 0 0 0
109 1 2.7215295578165692e+00 9.7636832979991368e+00 2.7936263322246235e-01 0 0 0
445 1 4.8670143420747438e+00 1.2635949528086723e+01 8.5236686889908473e+00 0 0 0
446 2 4.3412630469001225e+00 1.3376201434786651e+01 8.9497188271802894e+00 0 0 0
447 2 4.3575318525740432e+00 1.2381041150052031e+01 7.7045203851411337e+00 0 0 0
169 1 9.0078635674542209e+00 1.2024458098614131e+01 6.8577423197870466e+00 0 0 0
451 1 9.0900931840022614e-01 1.2302887063967477e+01 8.9377273341580956e+00 0 0 0
452 2 9.9631222528947416e-01 1.3235628135773450e+01 9.1514686571946786e+00 0 0 0
463 1 7.9464476542183571e-01 8.6049544269407949e+00 8.8654738454787605e+00 0 0 0
465 2 8.4103152564084616e-01 7.6432690069417610e+00 9.0155590061268107e+00 0 0 0
466 1 5.1812972971901878e+00 8.9534805497481731e+00 7.1568581738152082e+00 0 0 0
467 2 5.4352197053517637e+00 8.3243500057164237e+00 6.4918912590556603e+00 0 0 0
468 2 4.2510691849646465e+00 9.1660408357100831e+00 7.1504159583210365e+00 0 0 0
448 1 4.4134717583873160e+00 1.0382016893367622e+01 1.0135288177654312e+01 0 0 0
470 2 9.2534675853476553e+00 1.0214775642508176e+01 6.9271324486914168e+00 0 0 0
471 2 8.4785711259555381e+00 9.2387315538442110e+00 7.7927562342456831e+00 0 0 0
573 2 1.1118660015938366e+00 1.5908621222949973e+01 9.6850665486706884e+00 0 0 0
487 1 7.6282716519863900e+00 1.2737274594197167e+01 9.0195173321736828e+00 0 0 0
488 2 8.0816805485006142e+00 1.2333517759692981e+01 8.2819641565164890e+00 0 0 0
489 2 6.6673440565186910e+00 1.2618229931061331e+01 8.8393366406031380e+00 0 0 0
499 1 7.2796230475175348e+00 8.4304659348609210e+00 8.7588021005790484e+00 0 0 0
500 2 7.3485380504191804e+00 9.0904686099990410e+00 9.5280260130507699e+00 0 0 0
501 2 6.3674561691088298e+00 8.4953336808734257e+00 8.3925543666841751e+00 0 0 0
210 2 1.9294457202758708e-01 7.1235122584382928e+00 5.0973766651485688e+00 0 0 0
335 2 1.0274805793590509e+00 3.4542175494514438e+00 1.0012426221848806e+01 0 0 0
541 1 2.9645854659906514e+00 1.5531396491933743e+01 7.1983012902577981e+00 0 0 0
542 2 2.4583289010966238e+00 1.5270647961519224e+01 8.0051648421972423e+00 0 0 0
543 2 2.5618286297485726e+00 1.5001477217716690e+01 6.4304884849968227e+00 0 0 0
553 1 4.6525798616491407e+00 1.8903098498684816e+01 8.5360563015281876e+00 0 0 0
554 2 5.5701259638948830e+00 1.8897623193032079e+01 8.3257943531064775e+00 0 0 0
555 2 4.1026053442230461e+00 1.8744349426830375e+01 7.7622239137324076e+00 0 0 0
469 1 9.2771589582954821e+00 9.2798568237307908e+00 7.1615387949188456e+00 0 0 0
559 1 8.6963249623373684e-01 1.9319748663096536e+01 8.6894989645932732e+00 0 0 0
560 2 1.6287847207150239e+00 1.9144661164499077e+01 8.0685348198132338e+00 0 0 0
561 2 1.1050358367865096e+00 1.8821487376421995e+01 9.4820527574498499e+00 0 0 0
571 1 9.3771086926786462e-01 1.5075167314872330e+01 9.2161456308428438e+00 0 0 0
574 1 5.6056836947964204e+00 1.5915550936057800e+01 7.1270237522594391e+00 0 0 0
575 2 6.2717366563362660e+00 1.5702565822115895e+01 7.8288454331377562e+00 0 0 0
576 2 4.7257749163290521e+00 1.5920827309495056e+01 7.4293555876198338e+00 0 0 0
577 1 9.5723421615770015e+00 1.5620281052259459e+01 7.0785775396308930e+00 0 0 0
578 2 9.4940167817027596e+00 1.6521094064593694e+01 6.7671628490014841e+00 0 0 0
579 2 9.1527271864312336e+00 1.5574167550821768e+01 7.9874583380499855e+00 0 0 0
927 2 8.2650200217846344e+00 1.8892467209557335e+01 1.1006274415385735e+00 0 0 0
595 1 7.4479963187656590e+00 1.8820692528855730e+01 8.6030937097531623e+00 0 0 0
596 2 7.4931180682553409e+00 1.9740112850612590e+01 8.9281379112065835e+00 0 -1 0
597 2 7.3622548468392957e+00 1.8288745264807183e+01 9.4788370442469816e+00 0 0 0
607 1 7.7774744145110697e+00 1.5331791013875995e+01 9.0172208663458573e+00 0 0 0
608 2 7.8319753548666204e+00 1.4379243231372232e+01 9.1218021652942731e+00 0 0 0
711 2 8.5247901393233931e+00 5.6762927723326086e+00 7.2051858953406578e-01 0 0 0
479 2 7.6393052855675370e+00 1.1351530311591864e+01 1.0025728024567915e+01 0 0 0
34 1 5.3832722534844288e+00 2.7525722003338844e+00 2.4905284805144173e-01 0 0 0
2 2 3.5878743293367799e+00 2.8704697623705409e+00 4.2503450139215093e-01 0 0 0
891 2 3.5124435417697888e+00 1.8722235753707519e+01 4.4963396679884282e-01 0 0 0
143 2 4.3246132538330784e+00 9.4883680429248702e+00 5.3251908958327687e-01 0 0 0
170 2 9.8449263225118813e+00 1.2275905194380965e+01 7.2924592946517901e+00 0 0 0
557 2 4.3973397485788279e+00 1.6205940619645720e+01 1.0378774674117636e+01 0 0 0
443 2 1.4424771716758122e+00 9.6971509464929699e+00 1.0362081472083879e+01 0 0 0
675 2 1.4901878739845227e+00 5.8186481591857691e+00 7.6206842353802873e-01 0 0 0
253 1 9.1594883700784351e+00 1.6047876932460710e+01 2.3807930771970059e-01 0 0 0
925 1 8.8181141443713393e+00 1.8748762936552541e+01 2.7485821420798784e-01 0 0 1
217 1 2.7972124037427974e+00 1.5994884424869582e+01 3.2607355708961933e-01 0 0 0
218 2 3.7164855306409583e+00 1.5849553628980519e+01 5.7666439024138949e-01 0 0 0
146 2 9.2751431918722016e+00 1.0232138082705825e+01 1.8070122897014229e-01 0 0 1
250 1 5.6459431082526441e+00 1.5928908804858821e+01 1.9282143809391289e-01 0 0 0
550 1 1.5045049180047152e+00 1.7498288840152899e+01 1.0606763959209500e+01 0 0 0
449 2 3.5026365954557268e+00 1.0434846505136896e+01 1.0462003405381648e+01 0 0 0
37 1 9.6829188853888581e+00 2.4874483487511481e+00 2.0402135869674616e+01 0 0 -1
545 2 3.2906577238101282e+00 1.4371334960949245e+01 1.0735062460594197e+01 0 0 0
39 2 9.5752300271184350e+00 1.8250491422114314e+00 1.9689835211219865e+01 0 0 0
858 2 5.6068724279959348e-01 7.6067174804071023e+00 1.8866029213841848e+01 0 0 0
331 1 6.1069719194722598e+00 4.4908096539448987e+00 1.2773702868226502e+01 0 0 0
332 2 6.8116562189189471e+00 4.3268242013571365e+00 1.2130603187475513e+01 0 0 0
333 2 5.4136908672947222e+00 4.2862155933569834e+00 1.2076309638264247e+01 0 0 0
781 1 3.0767208374881707e+00 1.2365590430915161e+01 2.0496465018594094e+01 0 0 0
546 2 4.7842477353595445e+00 1.4064280326699615e+01 1.0825320198976247e+01 0 0 0
474 2 9.8165775789163217e+00 7.6331517133485312e+00 1.0883264672008020e+01 0 0 0
346 1 2.2882307864113005e+00 9.1813966833404326e-01 1.2193601496584984e+01 0 0 0
347 2 2.9377389290336975e+00 8.6989074030968250e-01 1.1422061307463764e+01 0 0 0
348 2 2.4892736182335331e+00 1.6916584196603301e+00 1.2753863219654038e+01 0 0 0
349 1 2.6332079762540141e+00 5.5732014716507381e+00 1.3688481760723610e+01 0 0 0
350 2 2.5907685345148552e+00 6.1073981150334564e+00 1.2848977518571697e+01 0 0 0
351 2 2.5802417802793167e+00 4.5764285128724236e+00 1.3542423540696495e+01 0 0 0
352 1 6.0041365551161334e+00 5.9292270263874824e-01 1.2417666138462366e+01 0 0 0
353 2 6.9327753235533880e+00 8.9245300966842589e-01 1.2135110555449931e+01 0 0 0
354 2 5.8430656736902034e+00 1.9378119950037682e+01 1.2717582676569972e+01 0 0 0
334 1 1.2133461351305472e+00 4.1591893584505284e+00 1.0690068731391891e+01 0 0 0
382 1 8.8867452726626883e+00 9.0749219346325471e-01 1.1893821916382262e+01 0 0 0
383 2 9.3643304175178628e+00 1.8000997545989761e-01 1.2318555381239264e+01 0 0 0
371 2 8.8600916320339138e+00 4.0631255737118650e+00 1.0980843804108638e+01 0 0 0
385 1 8.9212371810532041e+00 5.3548220692367323e+00 1.3583308045832824e+01 0 0 0
386 2 9.0112098388348087e+00 4.3822934173136447e+00 1.3573490398333659e+01 0 0 0
387 2 8.3547158783459210e+00 5.5211197058659627e+00 1.4377491248354833e+01 0 0 0
876 2 1.1349188917804580e+00 1.7608939823114845e+01 1.8138416945371858e+01 0 0 0
901 1 9.7188789422245154e+00 1.5962019611437766e+01 1.3558116545405060e+01 0 0 0
439 1 5.5947676440460548e+00 1.0684381725470747e+01 1.2543916952576524e+01 0 0 0
440 2 5.5120805837919624e+00 1.1573426989547233e+01 1.2952621543853702e+01 0 0 0
441 2 5.1036767731107009e+00 1.0614603533743930e+01 1.1708934596235771e+01 0 0 0
552 2 2.4745456986562222e+00 1.7392437557122275e+01 1.0762514469845074e+01 0 0 0
454 1 2.1820119925508159e+00 7.3957387467543150e+00 1.1560054918931648e+01 0 0 0
455 2 3.0101833700785607e+00 7.3071620797971155e+00 1.1011771134356183e+01 0 0 0
456 2 2.3270591706146302e+00 8.2180314456525956e+00 1.2128526698583402e+01 0 0 0
457 1 2.5750449302579028e+00 1.2108120906833870e+01 1.3403087630024515e+01 0 0 0
458 2 3.4568934508714446e+00 1.2270607927805610e+01 1.3831075767241495e+01 0 0 0
459 2 1.9907484416521946e+00 1.2272159037655262e+01 1.4161089889256537e+01 0 0 0
460 1 5.7898112888977069e+00 7.1351219745639201e+00 1.2336345077181454e+01 0 0 0
461 2 5.9288037556033588e+00 6.1913765194537707e+00 1.2670553809170388e+01 0 0 0
462 2 6.7832343911608062e+00 7.3051507414096619e+00 1.2172885416473266e+01 0 0 0
340 1 3.9990264923683663e+00 3.8782626046876967e+00 1.0955610574806819e+01 0 0 0
480 2 7.0649269842793565e+00 1.0824973007182791e+01 1.1346503714508419e+01 0 0 0
707 2 9.3825602344915282e+00 5.4879055964683376e-01 1.8124334734715333e+01 0 0 0
490 1 8.4283537926159831e+00 7.5448402562523196e+00 1.2068612531172231e+01 0 0 0
491 2 8.6623362245304136e+00 6.7439437642975966e+00 1.2576935643946859e+01 0 0 0
492 2 8.6883940365494876e+00 8.2896559067004425e+00 1.2718087522442440e+01 0 0 0
493 1 9.2439476786037389e+00 1.2312531416927932e+01 1.3557159929077955e+01 0 0 0
494 2 8.7457665245278271e+00 1.2514111722307433e+01 1.4364411165228004e+01 0 0 0
495 2 8.8919327653089901e+00 1.3003644982991601e+01 1.2931652153744166e+01 0 0 0
426 2 5.3636977570808497e-01 9.4549558405519185e-01 1.1747843700308632e+01 0 0 0
144 2 5.7897590029219357e+00 1.0117398121616235e+01 2.0218720310832651e+01 0 0 0
533 2 4.4123155300228689e-01 7.6366901423062519e+00 1.1789431726744205e+01 0 0 0
599 2 9.1930087914387570e+00 1.4287505586438543e+01 1.1073908452287615e+01 0 0 0
749 2 6.1679039018848880e-01 9.6966123228731971e-01 1.8925902318381127e+01 0 0 0
370 1 7.8836810852295027e+00 4.0551728992233009e+00 1.0775754413462558e+01 0 0 0
547 1 6.0400986042107867e+00 1.7431371658649045e+01 1.2707970731426199e+01 0 0 0
548 2 5.2890059543141437e+00 1.7318197544431996e+01 1.2035876011010336e+01 0 0 0
549 2 6.0241689953265025e+00 1.6662577509832193e+01 1.3316903569403014e+01 0 0 0
556 1 4.3581048171238246e+00 1.7152604726850303e+01 1.0723879570742834e+01 0 0 0
562 1 2.2933814686274152e+00 1.4409657874317055e+01 1.2052461165812661e+01 0 0 0
563 2 1.3534477208212723e+00 1.4501229323265477e+01 1.1856874761798508e+01 0 0 0
564 2 2.2746503176258468e+00 1.3500296047276603e+01 1.2444033985301761e+01 0 0 0
565 1 3.0105212411483899e+00 1.8681700300211308e+01 1.3714057189730472e+01 0 0 0
566 2 2.7336419673084902e+00 1.9297127736508838e+01 1.2999981051494110e+01 0 0 0
567 2 3.8732240520764782e+00 1.8913020254401903e+01 1.4094361929299822e+01 0 0 0
568 1 5.7080909023807136e+00 1.3509761747720738e+01 1.1981718036700567e+01 0 0 0
569 2 6.6153013738746962e+00 1.3710472286623355e+01 1.1738795364174008e+01 0 0 0
570 2 5.6070836295059188e+00 1.4049385122241883e+01 1.2778457964511373e+01 0 0 0
782 2 3.0375939293739123e+00 1.1365984081228731e+01 2.0244691956840612e+01 0 0 0
330 2 5.0875080335102592e+00 8.3212699567163606e-01 1.1201219839855218e+01 0 0 0
588 2 7.2332051341392294e+00 1.7113397645994613e+01 1.1512395065185697e+01 0 0 0
598 1 8.5641122351129280e+00 1.4225985033744116e+01 1.1817464914686925e+01 0 0 0
438 2 4.9737614945044539e+00 7.4066877455245601e+00 1.0788767029810055e+01 0 0 0
600 2 8.7949940576022705e+00 1.5021400756990499e+01 1.2365000522917754e+01 0 0 0
601 1 9.7532878659923679e+00 1.8511546858644611e+01 1.3539015084497114e+01 0 0 0
603 2 9.0278528949293708e+00 1.8717941676740388e+01 1.4217627439383248e+01 0 0 0
889 1 2.8806351903527236e+00 1.8456328925364804e+01 2.0535791497770425e+01 0 0 0
110 2 2.5948678746868610e+00 9.0300531032015776e+00 2.0097981040351819e+01 0 0 0
649 1 2.7943388855892195e+00 3.0466756431894240e+00 1.3892743606532278e+01 0 0 0
650 2 3.7026472111435340e+00 3.2090918164429896e+00 1.4235054666054218e+01 0 0 0
651 2 2.3009768253582150e+00 2.8527934774107369e+00 1.4759377932641884e+01 0 0 0
652 1 4.0039955852233184e+00 1.3475090424874734e+00 1.6823703457519095e+01 0 0 0
653 2 4.1701751757300709e+00 2.2557478387955152e+00 1.6508064136410518e+01 0 0 0
654 2 4.7703373986234547e+00 1.2202293132996469e+00 1.7529156443235294e+01 0 0 0
655 1 6.0747112135144805e+00 4.4969691903528153e+00 1.8823017088450371e+01 0 0 0
656 2 6.1022285339099174e+00 5.4739255897794994e+00 1.8995341868071712e+01 0 0 0
657 2 6.9587616026486039e+00 4.2342159613709613e+00 1.8510763831207328e+01 0 0 0
658 1 1.0999877929203687e+00 4.5467192798757754e+00 1.7418096274941945e+01 0 0 0
659 2 9.4722309810940741e-01 3.7648530248836796e+00 1.6851642262310364e+01 0 0 0
660 2 1.1093919453751675e+00 5.4016139477969434e+00 1.6874561756236083e+01 0 0 0
661 1 4.8349290334813997e+00 5.9373400900838194e+00 1.4992859412971322e+01 0 0 0
662 2 4.4593772368444986e+00 5.2822714539524442e+00 1.5630209063765975e+01 0 0 0
663 2 4.2070877358973995e+00 5.7558559570244254e+00 1.4229560077090504e+01 0 0 0
664 1 4.0186815603208492e+00 4.1750559343526010e+00 1.6939114663039291e+01 0 0 0
665 2 3.1447699876190622e+00 4.4744181613627578e+00 1.7303712273422249e+01 0 0 0
666 2 4.5827115989375793e+00 4.3524355932630128e+00 1.7769685414524147e+01 0 0 0
667 1 8.6493844018302357e-01 6.3848390395511707e+00 1.5745258017197704e+01 0 0 0
668 2 8.2830475722407426e-01 7.3874029781665120e+00 1.5901313284408001e+01 0 0 0
669 2 1.5739993721824765e+00 6.2870585158688179e+00 1.5155824511876283e+01 0 0 0
670 1 2.1578547676038480e+00 8.7995130443491565e-01 1.8730251961496073e+01 0 0 0
671 2 2.5914296491318614e+00 1.5145702726058992e+00 1.9375964887401679e+01 0 0 0
672 2 2.5869927872219449e+00 1.0914641292692777e+00 1.7847184094312126e+01 0 0 0
676 1 5.9651902541439039e+00 1.0714484441720149e+00 1.8533488195644097e+01 0 0 0
677 2 5.9225414207453388e+00 1.5170819274427927e+00 1.9430822857405310e+01 0 0 0
678 2 6.9291882913888436e+00 9.8294272485851997e-01 1.8211881200701924e+01 0 0 0
679 1 9.1596338489162688e-01 2.3535046271228071e+00 1.5777437118675760e+01 0 0 0
587 2 8.6686189390857820e+00 1.7393095665043106e+01 1.0957387875493742e+01 0 0 0
681 2 1.1835812316017755e+00 1.4279354226635075e+00 1.5943251375239146e+01 0 0 0
682 1 5.4825036786777073e+00 2.5892903039722248e+00 1.4561375843634941e+01 0 0 0
683 2 5.9232355404102126e+00 3.2596218796512364e+00 1.3982385606129116e+01 0 0 0
684 2 5.4496450602141726e+00 1.6981394886126400e+00 1.4107231042003205e+01 0 0 0
685 1 9.3374948246379823e+00 2.7615693800009731e+00 1.3858539389947929e+01 0 0 0
687 2 9.1710548228618034e+00 2.2262352449557139e+00 1.3069092038143252e+01 0 0 0
694 1 8.7142444789314180e+00 3.9676610763220550e+00 1.7391438478745336e+01 0 0 0
695 2 9.6533264222302506e+00 3.9463342426349599e+00 1.7516303164913360e+01 0 0 0
696 2 8.5428926411885424e+00 3.0770152079266180e+00 1.7015324962019307e+01 0 0 0
703 1 7.5957065097377505e+00 5.9059404836894673e+00 1.5590800814516266e+01 0 0 0
704 2 7.9218093366879128e+00 5.2863084434875676e+00 1.6338065003168154e+01 0 0 0
705 2 6.7112288699803004e+00 5.5626415778763638e+00 1.5438871080407516e+01 0 0 0
706 1 8.7009032093399572e+00 5.8055728311050114e-01 1.8819427284085720e+01 0 0 0
817 1 9.6911294925170512e+00 1.1712032938544640e+01 2.0573964902008932e+01 0 0 0
708 2 8.7444874848291612e+00 1.9648279888969022e+01 1.9476376824727836e+01 0 -1 0