LAMMPS data file via write_data, version 3 Mar 2020, timestep = 37500000

2016 atoms
2 atom types

0.0000000000000000e+00 1.7945273711894444e+01 xlo xhi
-4.1670809964195143e+00 4.9163240973353517e+01 ylo yhi
0.0000000000000000e+00 1.9087181435493097e+01 zlo zhi
4.9094964193065027e-02 -6.6721434729963356e+00 -2.2881611431714077e-02 xy xz yz

Masses

1 16
2 2

Atoms # atomic

42 2 1.3166522311976685e+01 -3.1045874395990793e+00 1.2567873591415893e+01 -1 0 2
1470 2 -1.3724498954792370e+00 -2.9671340075966794e+00 1.8421253143142792e+01 0 1 1
730 1 1.1793684483090514e+00 -2.1618556659560397e+00 9.5261729502968393e+00 2 0 0
1882 1 -2.7805156634838206e+00 -3.0059528875054591e+00 8.5542050419131606e+00 0 1 3
732 2 2.0251881632800743e+00 -2.5691435886411345e+00 9.3805789932653152e+00 2 0 0
538 1 6.7605538233040718e-02 -3.0190139338281714e+00 1.1773637242067450e+01 -2 0 -5
211 1 5.8964491111666968e+00 -3.5922454062020366e+00 1.8613489494080149e+01 -6 0 -3
250 1 2.1904502364743363e+00 9.1176234069545092e+00 1.5082785617914304e+01 -2 0 2
1565 2 9.5032829346291390e+00 -2.7997875757656914e+00 1.5295617769602392e+01 -1 0 0
1591 1 -5.8852072911339643e+00 -2.7835320973295645e+00 1.9051281979136412e+01 -1 0 -2
899 2 5.4555898265225009e+00 -2.9275938552918639e+00 1.2012652702544163e+01 -2 0 3
705 2 4.2439725419129637e+00 -2.6818505488718465e+00 8.9743588145697846e+00 -2 0 1
1584 2 1.3956359163508068e+01 -1.7344115568661862e+00 1.1395783337545277e+01 0 0 0
1884 2 -2.9440410675611708e+00 -2.6123282049801109e+00 9.4467790564456529e+00 0 1 3
855 2 1.1157138900359753e+00 -3.0693223230097084e+00 4.6888367872334760e+00 -1 0 -1
1323 2 1.2122574385389893e+01 -2.8202835828307267e+00 1.5177628675130572e+01 -1 1 -1
40 1 1.2711422814994135e+01 -2.2953438740768544e+00 1.2219038985320564e+01 -1 0 2
1930 1 8.7958462770959311e+00 -3.3031850182657529e+00 9.1159606877563686e+00 -2 1 1
1691 2 4.1637735101089088e+00 -3.3076202005031607e+00 5.5252817056924126e+00 0 1 0
1363 1 -8.8114464586215857e-01 -2.3222676025971509e+00 2.9267179129910255e+00 1 1 2
1564 1 8.6289483137982295e+00 -2.4293817735359649e+00 1.5567412564911134e+01 -1 0 0
1847 2 8.2209037904505333e+00 -2.3198944263005203e+00 1.5779654386393802e+00 0 1 0
1476 2 1.4207419150260446e+01 -3.4047674255793474e+00 4.5112363281226493e+00 0 1 0
1023 2 4.3823176198641987e+00 -3.2954939385356452e+00 1.5390283017128802e+01 2 0 1
1021 1 3.9465772299545998e+00 -2.4532474883683033e+00 1.5587082994409236e+01 2 0 1
1560 2 1.1687271351828258e+01 -3.0074305270933435e+00 3.0606725636717509e+00 -1 0 -1
854 2 1.5110871458835298e+00 -4.0341967716329341e+00 3.6064104543734570e+00 -1 0 -1
539 2 4.4861299277219935e-01 -2.7283437066306098e+00 1.0932046304131786e+01 -2 0 -5
817 1 1.6071804438739640e+01 -2.8208568484913479e+00 2.4010410307304034e-01 -2 0 4
41 2 1.1829947652837010e+01 -2.5265478017738312e+00 1.1838031895788898e+01 -1 0 2
1135 1 8.7371422894144164e+00 8.5754063241813174e+00 5.0100029593446544e+00 -1 0 0
1566 2 8.1664642276606507e+00 -3.1908747439794523e+00 1.5930698957920679e+01 -1 0 0
1322 2 1.1381766569938987e+01 -3.7752863114024522e+00 1.4178308674409243e+01 0 1 -1
270 2 8.4711282210152969e+00 7.8380681133809968e+00 1.2403314846272044e+01 5 0 0
704 2 3.4895247154711382e+00 -3.5197858794291763e+00 7.5994728727877252e+00 -2 0 1
703 1 3.5273847154886289e+00 -3.2886691295604149e+00 8.5745455656078562e+00 -2 0 1
1883 2 -2.3664334684270711e+00 -2.4186967250256068e+00 7.8525024253604654e+00 0 1 3
120 2 -4.6882542447321294e+00 -1.3441142293248207e+00 1.6871880505223693e+01 0 0 1
1499 2 1.1953063545193835e+01 -2.6993768777449541e+00 6.6466685769021607e+00 0 1 -1
474 2 9.8289300047663009e+00 -2.5951352489373658e+00 1.0307142714410626e+01 -1 0 0
1611 2 -7.7270588994648115e-01 -1.4718946870065723e+00 1.2391262307527866e+01 0 0 0
1364 2 1.6917741141652687e+01 -2.6358039134596947e+00 2.0253773811230276e+00 0 1 3
1582 1 -3.2172191435919726e+00 -1.4300280972083250e+00 1.0827654499718705e+01 1 0 0
731 2 1.1967636790045693e+00 -1.3250946780769373e+00 9.0033741099217295e+00 2 0 0
575 2 -2.5338854019653718e+00 -1.1312303948587896e+00 1.1462368103462378e+01 1 0 0
1412 2 2.3909735590605052e-01 -2.6996505380197018e+00 1.7090994142503867e+01 -2 1 -1
212 2 5.8987199514263713e+00 -2.6686799482176040e+00 1.8777401210325070e+01 -6 0 -3
764 2 1.0274530650259566e+00 -2.2184428357936570e+00 1.4695095041166899e+01 -5 0 -2
1593 2 -5.4156179658288295e+00 -1.9588446030135778e+00 1.8928818462204003e+01 -1 0 -2
472 1 1.0191188681037687e+01 -1.9962148134326183e+00 1.1063558917561966e+01 -1 0 0
1529 2 8.5202302554423586e+00 -2.2428917455019324e+00 1.3678988014531512e+01 0 0 0
566 2 7.2390803563270110e+00 -8.1145612046992710e-01 1.7608405867320883e+01 -2 0 0
819 2 8.9596748789168998e+00 -2.1357554041692075e+00 1.8927430042356949e+01 -2 0 3
119 2 -3.7580437923875154e+00 -1.7764579879630258e+00 1.5734352508475398e+01 0 0 1
1498 1 1.2398140422509023e+01 -1.8062253334487934e+00 6.5476672663654734e+00 0 1 -1
945 2 4.4375600032924387e+00 -1.8840374194337048e+00 1.5565928660988397e+00 3 0 5
944 2 3.0534879782668041e+00 -1.1671470467006171e+00 2.0815074020239908e+00 3 0 5
793 1 6.9202750679730567e+00 -1.8171877012022377e+00 4.1760561780693415e+00 0 0 0
118 1 -4.6956587162242460e+00 -1.7776699984563855e+00 1.6015725545331421e+01 0 0 1
1396 1 1.9581092363975143e+00 -2.5496246017219422e+00 1.7614507891504896e+01 -1 1 -2
795 2 7.3159316241911174e+00 -1.1445148228521620e+00 4.8241178725424207e+00 0 0 0
1892 2 1.5695442988310207e+01 -1.9838885755687476e+00 5.9150233554929219e+00 -2 1 -1
310 1 9.4226753499671934e-01 -1.3785858440704803e+00 5.5728958019027619e+00 2 0 -4
1848 2 7.8089671565458687e+00 -1.3296597150475273e+00 2.7206764402134924e+00 0 1 0
312 2 -2.4543426441824501e-02 -1.2884945183807113e+00 5.6859019959979866e+00 2 0 -4
943 1 4.0359934416019083e+00 -1.1684854348722085e+00 2.1695342456380771e+00 3 0 5
1590 2 8.0881905353975299e+00 -1.6999934547368301e+00 8.6159495442725920e+00 -3 0 2
1474 1 1.4285277515541907e+01 -2.4913485817218808e+00 4.8953007504080199e+00 0 1 0
1475 2 1.3590952363299211e+01 -2.3707503279392208e+00 5.5619866123372148e+00 0 1 0
1530 2 8.8325308037609691e+00 -1.8434013148584181e+00 1.2345038757995519e+01 0 0 0
1528 1 8.2426809569339365e+00 -1.5223071593065161e+00 1.3015804732403689e+01 0 0 0
794 2 5.9639341906809120e+00 -1.7617649179057482e+00 4.3393874045486696e+00 0 0 0
1398 2 2.3000891469883173e+00 -3.2916524794487492e+00 1.8099110957030774e+01 -1 1 -2
1846 1 8.2069621494152383e+00 -1.3444781698483239e+00 1.8342656961414883e+00 0 1 0
400 1 5.8381825593671843e+00 -1.2496518004485306e+00 1.1688132727835130e+01 -1 0 0
1409 2 6.7564080160716005e+00 -1.3196011446253899e+00 1.2084424791982613e+01 -1 0 0
567 2 8.5723217230724948e+00 -1.0572264907696995e+00 1.6953677777189533e+01 -2 0 0
1609 1 -1.3783987902127119e+00 -7.3166848397129414e-01 1.2713868401894493e+01 0 0 0
1866 2 5.0718319574046848e+00 -1.0325658116226348e+00 1.6224275924519770e+01 0 1 0
1500 2 1.1729956594748765e+01 -1.1980708332981780e+00 6.1145787063549975e+00 0 1 -1
1435 1 5.1065354900484081e+00 -1.1279864500495136e+00 9.2717794886663931e+00 0 1 1
1436 2 5.2576431495643288e+00 -1.1198152473928378e+00 1.0305065197912967e+01 0 1 1
1437 2 6.0153714886723915e+00 -1.1550853245609418e+00 8.8874847666700241e+00 0 1 1
1588 1 7.6236697429565154e+00 -8.8350788608227671e-01 8.3656858566742596e+00 -3 0 2
1397 2 2.6452239917330935e+00 -2.4450378183928470e+00 1.6935164798594769e+01 -1 1 -2
1559 2 1.2777744210527079e+01 -2.2154617038856559e+00 3.8618160937340633e+00 -1 0 -1
570 2 6.8180444288527708e-01 -1.4800036462951804e+00 2.4845664283985811e+00 -1 0 1
331 1 4.4351656785893905e+00 -1.5237501653863617e+00 4.8965350700847683e+00 -1 0 0
332 2 4.0688004280112890e+00 -1.3267154417391032e+00 3.9838375361289007e+00 -1 0 1
1022 2 3.2766811117169166e+00 -2.3220852446157236e+00 1.4908531259597591e+01 2 0 1
585 2 1.5822641870024388e+01 -6.8075456423274527e-01 2.6170298206087756e+00 -6 0 -1
1970 2 1.2194132179738608e+01 -1.3028222871723636e+00 1.6112718875944823e+00 1 1 1
1558 1 1.2018512950419135e+01 -2.1197129735179678e+00 3.2267863218529391e+00 -1 0 -1
179 2 -1.6587719423239244e+00 -1.6319537179370553e+00 1.5912001898236589e+01 -2 0 1
818 2 1.0399813410183413e+01 -2.7366023662099903e+00 1.8999932299112082e+01 -2 0 3
333 2 4.4542060201774261e+00 -6.4839039236366025e-01 5.3848409776919031e+00 -1 0 1
765 2 1.4800306441180657e+00 -1.7656261776026589e+00 1.3237290691828031e+01 -5 0 -2
763 1 1.4540242893047415e+00 -1.4812839339862802e+00 1.4212144370428678e+01 -5 0 -2
1891 1 -1.6732965851323325e+00 -1.4791694980882912e+00 6.4763178414185294e+00 -1 1 -1
1610 2 -1.6512170962657167e+00 -1.1365913772593448e+00 1.3584559153363980e+01 0 0 -1
1929 2 1.4013188865874389e+01 -8.5274085533030730e-01 9.3684850405652398e+00 0 1 1
565 1 8.1732796061750470e+00 -7.7008276321079983e-01 1.7800721129542104e+01 -2 0 0
881 2 1.4271529797703368e+00 -2.9766412269126885e-01 7.1590523903235068e+00 -2 0 3
1928 2 1.3284930421750840e+01 -9.1687351111629356e-01 7.9276293337555854e+00 0 1 1
473 2 1.0135547987457974e+01 -1.0771177046000382e+00 1.0643688413646739e+01 -1 0 0
1893 2 -2.0853917069578398e+00 -6.1239807699792514e-01 6.5386142503955433e+00 -1 1 -1
975 2 7.9117019415745435e+00 -2.1138352246675085e-01 6.8539959131624553e+00 -4 0 -3
23 2 1.6776757297325595e+01 2.9339038737404888e-01 7.6538924046419077e-01 -4 0 -1
1347 2 1.1404503253690654e+01 -3.4200682279578487e-01 1.6029545209827305e+01 -1 1 -1
568 1 1.3236235227780628e+00 -8.1753195927004940e-01 2.2914013061568479e+00 -1 0 1
880 1 1.3570486020817953e+00 1.8050471535128843e-02 8.0901481784691196e+00 -2 0 3
311 2 1.1298765426066775e+00 -7.2503250145402909e-01 4.8334890307505818e+00 2 0 -4
1007 2 1.2448593472025234e+01 -8.2785904071084548e-01 1.3438543070940831e+01 -3 0 -2
72 2 -3.4829416401893889e+00 -2.5335334316924918e-01 1.8397123710281399e+01 -2 0 -1
1864 1 5.5431481455619469e+00 -3.7547540964327109e-01 1.6685853521584530e+01 0 1 0
583 1 1.5474652762979261e+01 6.9650545658451968e-02 2.0728460975375471e+00 -6 0 -1
584 2 1.4685159967725484e+01 -3.2337377553127133e-01 1.6850706403483460e+00 -6 0 -1
309 2 8.8027770985913669e+00 -9.3000699520850105e-02 1.3842040486664780e+01 -1 0 -2
569 2 1.0711500672195340e+00 -5.9428874138061349e-01 1.4011150374167873e+00 -1 0 1
404 2 9.5504640952530462e+00 -1.8096820265896296e-01 5.4676789434309496e+00 5 0 3
882 2 2.2469060304945621e+00 4.7266529286418990e-01 8.2418248011531325e+00 -2 0 3
1969 1 1.2686532452556246e+01 -1.0645004331330350e+00 7.6875691747557529e-01 1 1 1
1971 2 1.2279310868060474e+01 -2.0632351529112380e-01 4.4281455637516609e-01 1 1 1
227 2 1.3987321314434382e+00 -9.3574144906888712e-01 1.8078851799525950e+01 0 0 -2
405 2 1.0326498038804207e+01 -4.5705883384172941e-01 4.1244460810452255e+00 5 0 3
403 1 1.0467028331837723e+01 -3.0454731391692524e-01 5.0872673794493704e+00 5 0 3
221 2 9.7615690958302608e+00 -3.3160587848819079e-01 2.0286938746216245e+00 -3 0 -2
1345 1 1.0698809474407671e+01 1.4526386839686367e-01 1.6419851155869292e+01 -1 1 -1
1927 1 1.3719168585715177e+01 -2.8280844274242245e-01 8.5922263596421704e+00 0 1 1
1589 2 7.8229605075200563e+00 -1.7226531859264371e-01 9.0764602645097359e+00 -3 0 2
70 1 -4.4225591771933637e+00 -5.3370761247981724e-01 1.8391283268386736e+01 -2 0 -1
1008 2 1.1973986545211048e+01 5.6573153180726798e-01 1.2994607159400635e+01 -3 0 -2
1006 1 1.2446099645611980e+01 1.1619946786456037e-01 1.3756324962039374e+01 -3 0 -2
337 1 -1.7034548367257418e+00 8.4454237098137597e-01 1.8210692541230650e+01 0 0 0
178 1 -2.1097117113776620e+00 -1.0896046395386536e+00 1.5274952059795462e+01 -2 0 1
180 2 -2.5579210585760745e+00 -3.3022321905230667e-01 1.5610110125870863e+01 -2 0 1
973 1 7.9866803534268822e+00 3.8477474803127798e-02 5.8871551498305079e+00 -3 0 -3
1917 2 4.4464840269274308e+00 2.4926268547651631e-01 8.8524828565986162e+00 0 1 0
339 2 4.8008113922189706e+00 1.2396213341375875e+00 4.2130270138217789e-02 0 0 1
1865 2 5.8697513903249030e+00 2.4929501353577344e-01 1.5993929208586614e+01 0 1 0
402 2 5.3950094283309058e+00 -4.8773120650263513e-01 1.2143529915704574e+01 -1 0 0
307 1 8.8169202553616373e+00 7.4568878845916942e-01 1.4415372453396278e+01 -1 0 -2
226 1 8.7159821194520859e-01 -3.1905384823264571e-01 1.8636570577183079e+01 0 0 -2
1346 2 1.0314920310408503e+01 6.3280718844956052e-01 1.5591242047515699e+01 -1 1 -1
822 2 1.1933692991473579e+01 -2.7796382661716024e-02 9.1181689681744125e+00 -2 0 1
1079 2 -4.9091958804844857e+00 2.9176227995984938e-01 1.8066270644358877e+01 -2 1 -1
820 1 1.0969677902110156e+01 -1.2208983615173530e-02 9.3507874761529983e+00 -2 0 1
974 2 7.6241983724107838e+00 9.6953570185786386e-01 5.7154120789358691e+00 -3 0 -3
308 2 9.3388877043355230e+00 1.4046905052570944e+00 1.3881686811100202e+01 -1 0 -2
228 2 7.7119153191097434e+00 -6.1102526179120931e-01 4.5632193546740296e-01 0 0 -1
185 2 4.5559939029601688e+00 4.9956114912657323e-01 2.0647633804411529e+00 -5 0 -7
1932 2 8.3100089821832945e+00 -3.7844413773131822e+00 9.8209665210967731e+00 -2 1 1
1468 1 5.0329115385034369e+00 -3.0631516054199484e+00 2.6903803667001880e-01 0 1 2
898 1 5.4189426422329010e+00 -3.9024000228764018e+00 1.2259320317819581e+01 -2 0 3
1239 2 7.5701875112724037e+00 -3.2676955736733877e+00 4.3241888246806068e+00 0 1 0
1411 1 -6.3189148971872111e-01 -2.8452685791837338e+00 1.6710772339290752e+01 -2 1 -1
1365 2 -8.5727428729248056e-01 -3.0947286614808753e+00 3.4892380498804334e+00 1 1 2
540 2 -7.4048679671009676e-01 -3.5876201673376262e+00 1.1580600850369542e+01 -2 0 -5
213 2 4.9921472035589849e+00 -3.9544782398085587e+00 1.8477463855066944e+01 -6 0 -3
1321 1 1.1311569732752044e+01 -3.3983578136071788e+00 1.5043496809797398e+01 0 1 -1
1592 2 1.3734846262788580e+00 -3.2943311741996575e+00 5.9018542932137064e-01 -1 0 -1
22 1 1.7436156133311027e+01 7.7316031793849582e-01 1.9986099862362150e-01 -4 0 -1
47 2 4.6062658771785818e+00 4.4833509110760428e-01 1.7728646107150698e+01 -3 0 1
338 2 -8.3985322443075905e-01 3.5724917203933426e-01 1.8304033048350114e+01 0 0 0
46 1 4.2972494081421395e+00 9.1720819494570183e-01 1.8538496281545800e+01 -3 0 1
24 2 1.0621953974908612e+01 5.9881632140253682e-01 1.8331665333602807e+01 -4 0 -2
1915 1 3.8671695688306427e+00 9.5595554839690156e-01 8.4537942423179224e+00 0 1 0
236 2 4.3506510461363161e+00 1.1384469759931815e+00 6.7738706062959739e+00 -1 0 2
1587 2 -6.9714312857225336e-01 7.3843263464206288e-01 1.2522613599423874e+01 1 0 3
1899 2 1.4639454753788815e+01 6.0555086551623827e-01 7.7482767909090153e+00 -1 1 1
1028 2 3.0359772689791553e-01 1.3189187942806404e+00 7.8516299639867926e+00 0 0 0
821 2 1.0648262063197990e+01 3.7552500969487657e-01 8.5012744076041855e+00 -2 0 1
235 1 4.3469019822223176e+00 9.8361273348755329e-01 5.8112965431500037e+00 -1 0 2
452 2 7.1964969975910780e+00 1.2486717826034504e+00 1.4690988242256418e+01 -1 0 -3
875 2 1.4166413663562638e+01 9.0627215002209418e+00 4.6531429228092627e+00 -3 0 3
1413 2 -7.9687070742854971e-01 -3.7069902574157130e+00 1.6261510654180249e+01 -2 1 -1
1692 2 2.9474720583401410e+00 -4.1007059322711941e+00 5.5263434525877271e+00 0 1 0
1136 2 7.8452365587402682e+00 8.9201784542363018e+00 4.7359421154147965e+00 -1 0 0
15 2 -4.2480697913684100e+00 -3.8470522572047336e+00 1.6714173937268630e+01 0 0 0
83 2 5.1455116391115743e+00 8.1025304852308846e+00 1.8778736059166278e+01 3 0 -1
220 1 1.0076752087954883e+01 4.5266127133562861e-01 2.5500793752342581e+00 -3 0 -2
1511 2 2.4121117299445025e+00 9.3177097598112546e-02 1.4008552615186534e+01 0 1 1
184 1 4.8558649501934195e+00 1.4353273387373049e+00 1.9265085291184423e+00 -5 0 -7
853 1 1.4916348769394638e+00 -3.9455339698697109e+00 4.5556714297665239e+00 -1 0 0
48 2 3.5283481925343390e+00 1.4261898904879073e+00 1.8166472344628893e+01 -3 0 1
1896 2 1.8056933628647720e+00 5.7742380861025389e-01 3.2251520012271180e+00 -1 1 1
1897 1 1.5276039331722274e+01 9.6529465415978422e-01 7.0625194391327053e+00 -1 1 1
825 2 8.2929996560357964e+00 1.2300683433229702e+00 1.8217495793539332e+01 1 0 1
715 1 1.0369862712775774e+01 1.4499242169865241e+00 1.2137587325190880e+01 1 0 3
716 2 1.0258291527205165e+01 2.4149060954061108e+00 1.2332866048766240e+01 1 0 3
1894 1 2.0092980100363276e+00 7.9113951459921772e-01 4.1215576648684893e+00 -1 1 1
383 2 -4.1950848694680101e+00 8.3853335573293819e-01 1.4901683895347551e+01 -1 0 2
717 2 9.7177123785926049e+00 1.2654135626211751e+00 1.1392482861190832e+01 1 0 3
1027 1 -1.2140435294722041e-01 2.1739270242936133e+00 7.5763846023435155e+00 0 0 0
1029 2 -1.0798510526231986e+00 2.0267867425440684e+00 7.4200949186917198e+00 0 0 0
222 2 1.0517690542275810e+01 9.7376321374000607e-01 1.8354899811414156e+00 -3 0 -2
384 2 -4.0067057705624558e+00 1.6085815959986549e+00 1.6301604761423423e+01 -1 0 2
1457 2 1.5213539126380150e+01 1.4561555536377764e+00 3.1138498129201508e+00 0 1 -1
1585 1 -1.7966806083456532e-01 1.5554798066809488e+00 1.2682474259010197e+01 1 0 3
1586 2 -5.0306249467650410e-01 2.1959842210693008e+00 1.1981825016156407e+01 1 0 3
521 2 -5.5951472615670657e+00 2.2987315430207431e+00 1.7800419340153173e+01 -6 0 -4
18 2 3.5612323706005018e+00 2.6022152675930625e+00 1.4367466252230701e+00 2 0 2
1898 2 1.4687424275574797e+01 1.4670327606132796e+00 6.4775769830139529e+00 -1 1 1
382 1 -3.5757146796520827e+00 1.3643572195355791e+00 1.5390667714854686e+01 -1 0 2
1916 2 4.2223144137415041e+00 1.8393465988031190e+00 8.7860834086752835e+00 1 1 0
1895 2 1.5337073856916605e+00 1.6574313811773251e+00 4.4095615538990591e+00 -1 1 1
1371 2 1.0833752827831660e+01 1.2300020156451206e+00 5.0338398069038002e+00 1 1 -2
486 2 1.4186466667985620e+00 1.1379749751514066e+00 1.8435476449823899e+01 2 0 -1
288 2 1.1703720130106937e+01 2.3129599617744869e+00 2.8737953842595015e-01 2 0 -2
1456 1 1.5153679264542076e+01 2.3704402077813223e+00 3.4793389801304171e+00 0 1 -1
1510 1 2.3332930857560514e+00 9.8495632069237882e-01 1.3601649645663221e+01 0 1 0
186 2 5.8121411837813408e+00 1.3379154610808239e+00 2.0699355416072613e+00 -5 0 -6
1512 2 1.3896068869910874e+00 1.0728377665793989e+00 1.3387997927759580e+01 0 1 0
823 1 8.0953419695187350e+00 2.1970125452004101e+00 1.8259358978139090e+01 1 0 1
1123 1 8.3893621767010096e+00 8.9505036283851247e-01 1.0319246935747374e+01 -2 0 0
520 1 -4.6714245071431941e+00 2.0826535464075508e+00 1.7650796454087423e+01 -6 0 -4
770 2 5.6864949770176434e+00 2.3425082063901437e+00 5.4360855183708958e+00 -1 0 -3
1458 2 1.4504525900426712e+01 2.5300173660131300e+00 4.1682625009193126e+00 0 1 -1
644 2 1.2589204606506602e+01 2.4712476514010646e+00 5.5259537408814046e+00 -3 0 -3
870 2 -8.2080496510940026e-01 2.3153649550184436e+00 1.4112565135006880e+01 1 0 1
99 2 4.9407225623413904e+00 4.1630776350116001e+00 8.7772746796935603e+00 2 0 0
101 2 5.3593849932227817e+00 1.1855733153450672e+00 1.3436110661272512e+01 0 0 0
100 1 4.7842834994333083e+00 1.0932687814443263e+00 1.2643743667250424e+01 0 0 0
102 2 3.8952885857898316e+00 1.3728517383791941e+00 1.2879904269112576e+01 0 0 0
558 2 5.9593474889827931e+00 2.9845259870303886e+00 1.0380345135259512e+01 -2 0 1
869 2 -2.3054473141472185e+00 2.4000902518285310e+00 1.4696517802030380e+01 1 0 1
824 2 7.4258404947040466e+00 2.3504461126290588e+00 1.7555391476074803e+01 1 0 1
1369 1 1.0882007698147614e+01 2.1925343624351710e+00 5.3467160875669721e+00 1 1 -2
171 2 1.4522487261959089e+01 3.0443612389831447e+00 6.4732689395299614e-01 -3 0 1
170 2 1.4662176893030571e+01 3.2056557962242245e+00 2.1769316066664106e+00 -3 0 1
1492 1 1.8306366142654289e+00 2.0141729779032920e+00 1.8122535895165562e+01 2 1 -1
522 2 -4.1657944747368418e+00 2.3969534532255459e+00 1.8508366699309388e+01 -6 0 -4
97 1 4.5995926007273003e+00 3.4290384996038563e+00 9.3178406637876989e+00 2 0 0
1124 2 8.9275496982256684e+00 1.2288284162068077e+00 9.5824611189475881e+00 -2 0 0
1125 2 7.7102102271903830e+00 1.6363280045599833e+00 1.0542729316296805e+01 -2 0 0
1349 2 9.9375036616556276e+00 2.8186824310002461e+00 1.7339149796251725e+01 -3 1 0
643 1 1.3497542100631403e+01 2.7830019153467624e+00 5.5353516828809672e+00 -3 0 -3
508 1 7.4674144176371442e+00 1.5856230056268377e+00 2.5991121601097302e+00 0 0 -2
237 2 3.4890644544679175e+00 1.0209874647331878e+00 5.3863645508022033e+00 0 0 2
769 1 6.6230957197857059e+00 2.3657350136111814e+00 5.2019042222028133e+00 -1 0 -3
868 1 -1.4454523535766719e+00 2.8422384242284773e+00 1.4730908150291738e+01 1 0 1
453 2 6.1761330095314824e+00 2.2946807441872403e+00 1.5267726045253042e+01 -1 0 -3
451 1 6.2218800448717353e+00 1.4583608935865229e+00 1.4813360182094785e+01 -1 0 -3
510 2 7.1066263826370744e+00 1.7312575199511926e+00 3.5159029585998036e+00 0 0 -2
509 2 8.3950151024661910e+00 1.3452559569882299e+00 2.7696511634488288e+00 0 0 -2
597 2 -9.3325351778880850e-02 2.4174922030663177e+00 1.0050861132828124e+00 4 0 -3
595 1 3.5112342093649163e-01 3.2175773606386215e+00 1.3925875924756159e+00 4 0 -3
17 2 2.1819951238983357e+00 3.2756308703934893e+00 1.0848001783377137e+00 2 0 2
771 2 6.9122034564639456e+00 3.3003051962826468e+00 5.2436685595330559e+00 -1 0 -3
556 1 6.6397822145932981e+00 2.6836162917833990e+00 1.1056679967642873e+01 -2 0 1
89 2 1.1262980813348433e+01 2.2294776618879002e+00 1.0426281653087081e+01 -1 0 -2
980 2 1.0030748359721285e+01 2.2782787892049541e+00 6.9107632081320327e+00 -2 0 1
557 2 6.0807028138046535e+00 2.4455058484825898e+00 1.1819153103985908e+01 -2 0 1
275 2 6.7880148671333140e-01 2.8700525588454804e+00 6.1471680614972781e+00 4 0 -1
979 1 9.5754684283317211e+00 2.3424565915133204e+00 7.8101101568736002e+00 -2 0 1
16 1 3.0442511532366159e+00 3.0493368571961188e+00 7.4301451197164892e-01 2 0 2
680 2 2.7194354820312334e+00 2.7036063270211734e+00 1.4160400035369404e+01 -5 0 -2
287 2 1.2435153131669274e+01 3.2820101162622990e+00 1.2821724156089684e+00 2 0 -2
169 1 1.4282790086183615e+01 3.6596104594607137e+00 1.3745296813619061e+00 -3 0 1
485 2 1.1172729380680115e+00 2.5154084416051905e+00 1.7594531812799847e+01 2 0 -1
1995 2 5.5170401918876344e-01 3.4375327860928584e+00 8.5496129623162673e+00 -1 1 -1
286 1 1.1586091329346644e+01 3.1518029979424727e+00 8.3741782932173636e-01 2 0 -2
69 2 -5.1125182271210576e+00 2.9710243979383835e+00 1.5196405017743603e+01 -3 0 -4
1370 2 1.0653025917529703e+01 2.7856448169414962e+00 4.6167091200190589e+00 1 1 -2
843 2 1.6469478625254901e+01 3.5406066636931266e+00 3.9886793938325558e+00 -7 0 -4
131 2 -4.2537772408393248e-01 3.1739311734527060e+00 1.6207988708196236e+01 -1 0 0
596 2 -7.9555429619371676e-02 3.4234651301981440e+00 2.2559397056147352e+00 4 0 -3
67 1 1.1997585673472184e+01 3.4950927019117195e+00 1.5050574632543940e+01 -5 0 -4
926 2 7.5890542688902904e+00 3.5960053883214336e+00 1.5087779708600753e+00 1 0 2
68 2 1.1465958885875736e+01 3.2870268688093960e+00 1.5837565059407371e+01 -5 0 -4
525 2 1.1031694787563296e+01 3.7984871814177685e+00 1.3755311967414912e+01 -1 0 -3
1348 1 1.0801234512133554e+01 3.2513496755961491e+00 1.7428047817191899e+01 -3 1 0
1546 1 6.5468451753526749e+00 3.3473055904981655e+00 1.6478870752400763e+01 1 0 2
1548 2 5.9895800757329907e+00 4.1027205659175223e+00 1.6799876069306748e+01 1 0 2
1045 1 -1.0841944504167227e+00 3.5414107538787771e+00 1.1022781240613819e+01 1 0 1
98 2 4.0038644802066479e+00 3.9161946107880770e+00 9.9894357712792434e+00 2 0 0
506 2 -2.3312943367592283e+00 4.0600386292242785e+00 1.9000972118632777e+01 -4 0 -3
686 2 9.8104602281607924e+00 3.6848448078405331e+00 2.5110826047834078e+00 -3 0 2
132 2 -4.3052090235152551e-01 3.9452318284208587e+00 1.7655847126517209e+01 -1 0 0
130 1 1.0212900738887409e-01 3.6639655978010461e+00 1.6871972430705263e+01 -1 0 0
274 1 1.2267035928975782e+00 3.1375755404524250e+00 5.3696489689212283e+00 4 0 -1
645 2 1.3500396306681536e+01 3.6420842573066965e+00 5.9505029417398472e+00 -3 0 -3
687 2 9.1755525632469972e+00 4.2877432911488835e+00 3.8055197414242485e+00 -3 0 2
925 1 8.1953789589581643e+00 3.9829033487226688e+00 8.9900890148864399e-01 1 0 2
377 2 3.2741512486178350e+00 4.6168708586010556e+00 7.0632963534331337e+00 -2 0 -1
276 2 6.8574842231204935e-01 3.7551161705594822e+00 4.8008205761065241e+00 4 0 -1
20 2 4.4912507669800421e+00 4.2533481451662123e+00 1.8713703981050550e+01 -4 0 -3
376 1 2.8869874579889037e+00 4.9438905314838522e+00 6.2681852350653173e+00 -2 0 -1
685 1 1.0050392057151953e+01 3.9248280375090090e+00 3.4644753066750056e+00 -3 0 3
1993 1 7.2205507226164745e-01 4.2128749803973271e+00 9.1189707806858884e+00 -1 1 -1
1517 2 -1.5145829947069762e+00 4.1517164859999589e+00 1.3768223488427829e+01 0 0 -4
378 2 2.3751062710649360e+00 4.1763603823600608e+00 5.8912987861627633e+00 -2 0 -1
981 2 1.0352088009961378e+01 2.6485961929861510e+00 8.3700685253813880e+00 -2 0 1
523 1 1.0291219093888790e+01 3.8572511105872334e+00 1.3086836762320749e+01 -1 0 -3
927 2 8.3216797403115912e+00 3.2590949314429745e+00 2.8984866233215717e-01 1 0 2
536 2 7.8885680769191122e+00 5.0411258473967884e+00 9.7461046921345496e+00 -2 0 2
90 2 1.1147875357463461e+01 3.8391954238143455e+00 1.0294215143028948e+01 -1 0 -2
1547 2 7.2080042320080535e+00 3.7310229541110527e+00 1.5848452564772987e+01 1 0 2
841 1 -8.2528357249124984e-01 4.2190603358375114e+00 4.0474422512418080e+00 -6 0 -4
1350 2 1.0706791813309570e+01 4.0648528351347046e+00 1.7915279969458492e+01 -3 1 0
88 1 1.1230890160218109e+01 2.9595524252003074e+00 9.8311668070323908e+00 -1 0 -2
1094 2 1.3567162697381370e+01 3.1617590369515352e+00 1.0180305722889395e+01 1 0 3
1164 2 2.5745723492746402e+00 5.5522597405168685e+00 2.6040103410731930e+00 1 0 1
21 2 3.8204921950042010e+00 5.1042462483450493e+00 1.7528937721636773e+01 -4 0 -3
19 1 4.6804683322731160e+00 4.9241256108779616e+00 1.8011317728229482e+01 -4 0 -3
679 1 3.1392826964512111e+00 3.5787585672755622e+00 1.4202903525111333e+01 -5 0 -2
681 2 3.0036770889168452e+00 3.9381529623584424e+00 1.5118670389499874e+01 -5 0 -2
427 1 2.4475092995186136e+00 5.0450102817927096e+00 1.6474343089284599e+01 0 0 1
429 2 1.4943337195038122e+00 4.6760555287743220e+00 1.6509333282890076e+01 0 0 1
505 1 -1.7093634847825312e+00 4.7577899028240189e+00 1.8858712989093121e+01 -4 0 -3
986 2 1.2465889514209483e-01 4.0199492905837673e+00 9.8593334959343721e+00 -1 0 -1
842 2 -1.4352150054489878e+00 4.9133843544818756e+00 4.3624795143934127e+00 -6 0 -4
1424 2 1.4887150161751094e+01 5.2083647277536329e+00 1.2294420648315219e+00 -1 1 0
571 1 5.7039344391983775e+00 5.4275365393962591e+00 7.8253266139905682e+00 2 0 5
524 2 1.0544526675617890e+01 4.5757218122538177e+00 1.2438497371590223e+01 -1 0 -3
446 2 8.8244954640828830e+00 4.2041761598622980e+00 1.3883099345017543e+01 1 0 0
1958 2 4.8706751247890843e+00 4.3303957429133444e+00 1.3428147962365097e+01 0 1 0
572 2 6.6426179910491969e+00 5.2453274819076636e+00 7.8362897685613557e+00 2 0 5
806 2 8.9842321204056628e+00 3.9953564843898590e+00 8.1284825035694954e+00 -3 0 1
622 1 7.7515368923791499e+00 4.8441105865484744e+00 4.9589213165559904e+00 -3 0 -1
445 1 8.1136446328652205e+00 4.4918361353351663e+00 1.4521326381821774e+01 1 0 0
1162 1 1.7156370802380991e+00 5.3332210132308155e+00 2.9947480862723683e+00 1 0 1
443 2 1.9817522064222528e+00 4.7489803833814186e+00 1.3297570222163248e+01 4 0 2
1047 2 -1.3702022764170936e+00 4.1491600490886746e+00 1.1765008496248301e+01 1 0 1
1959 2 6.4135853098730893e+00 4.6684559368747767e+00 1.3458484399733154e+01 0 1 0
1957 1 5.5265666356219167e+00 4.8990749056436194e+00 1.3070575280222567e+01 0 1 0
1046 2 -1.8858258436373883e+00 3.3295973476025971e+00 1.0536735906170401e+01 1 0 1
1093 1 1.4308857861360451e+01 3.6520891873349024e+00 9.8728997611792444e+00 1 0 3
1042 1 1.0291426485493821e+01 5.6913918352689468e+00 1.8298174831044484e+01 -1 0 -1
1163 2 1.2779729384873368e+00 4.8923867265179997e+00 2.2264076280955463e+00 1 0 1
1367 2 1.0917849268416058e-01 -3.7046807481095252e+00 8.9679942471383320e+00 0 1 0
655 1 9.1681449172642733e+00 8.6347189681759691e+00 9.1255805828696257e+00 -2 0 -2
76 1 1.4054459107425624e+01 6.0290479490135844e+00 1.0928914851622960e+01 -5 0 -4
302 2 1.2812897186702621e+01 7.2310774899183237e+00 4.1357119608301023e+00 -1 0 1
77 2 -3.4575599210026291e+00 6.2614267756907349e+00 1.1755804949325954e+01 -4 0 -4
1516 1 -1.4063993149007716e+00 4.8886596241786826e+00 1.3084785067491454e+01 0 0 -4
175 1 5.1248645519243698e+00 5.8565339189459547e+00 4.9526566196921573e+00 -5 0 2
177 2 4.3676493550137536e+00 5.4475477622102186e+00 5.4644127017784498e+00 -5 0 2
176 2 4.9872358068386724e+00 5.5837516806119822e+00 4.0435268238181434e+00 -5 0 2
63 2 2.2247336875364776e+00 4.7675472440698883e+00 9.8191459975676434e+00 -1 0 -3
573 2 5.5526328292192630e+00 5.9139411279734500e+00 8.6587475560984100e+00 3 0 5
624 2 6.8876586833638438e+00 5.2521658977986423e+00 5.0640687961467785e+00 -3 0 -1
623 2 8.3041292620774012e+00 5.3766426604859756e+00 5.5325278829038398e+00 -3 0 -1
507 2 -2.1463216738662121e+00 5.3654730588957626e+00 1.8216655418559306e+01 -4 0 -3
34 1 4.4732678641741508e+00 5.7489405289857256e+00 2.2263957559700889e+00 -2 0 0
36 2 4.5935365118201448e+00 5.4716335797979259e+00 1.2643381301800156e+00 -2 0 0
61 1 2.9039201478282073e+00 5.0932626147740443e+00 1.0457353852040297e+01 -1 0 -3
62 2 2.3453821832286454e+00 5.1637716549286914e+00 1.1285487138533870e+01 -1 0 -3
262 1 1.3921556958613973e+01 4.8351272564692636e+00 7.1206246599170395e+00 -3 0 1
1403 2 1.2270533104247875e+01 5.3670241168897874e+00 1.5240343608813752e+01 0 1 -1
1043 2 9.6717654806172071e+00 5.8752822601539663e+00 1.9052798856604873e+01 -1 0 -1
444 2 5.6268892630043865e-01 5.2520455799892094e+00 1.3020339129978700e+01 4 0 2
537 2 7.3876299027210912e+00 4.4980354554129729e+00 1.1182563370131481e+01 -2 0 2
263 2 1.3775715617760529e+01 4.4018288348767758e+00 7.9781758433258014e+00 -3 0 1
805 1 8.4076448305950695e+00 4.7868484556797988e+00 8.2196449056564322e+00 -3 0 1
535 1 7.6695454028644265e+00 5.2566786014754108e+00 1.0680182353477345e+01 -2 0 2
335 2 1.2767629503721777e+01 6.1541342187093235e+00 1.2244177004520816e-01 -2 0 1