LAMMPS data file via write_data, version 3 Mar 2020, timestep = 0

2016 atoms
2 atom types

0.0000000000000000e+00 1.7945273711894444e+01 xlo xhi
-1.4904791301721581e+00 4.6486639107090184e+01 ylo yhi
0.0000000000000000e+00 1.9087181435493097e+01 zlo zhi
4.4166898209984873e-02 -6.6721434729963356e+00 -2.2881611431714077e-02 xy xz yz

Masses

1 16
2 2

Atoms # atomic

579 2 2.5642219522968981e+00 5.2374416324880997e+00 1.5901695734584830e+01 0 0 0
223 1 -2.4236548843549373e+00 6.2652679377675140e+00 1.8363085234489450e+01 -2 0 -2
995 2 9.6427896360489953e+00 6.4502956645647176e+00 6.4081614436033592e+00 3 0 1
654 2 4.7478174505012960e-01 7.7808170445937073e+00 2.3142389219375139e+00 -1 0 0
394 1 1.0860303099024943e+01 4.6759964445020072e+00 4.4925318026609515e+00 -3 0 -3
578 2 3.0878246083508225e+00 6.6685393587271946e+00 1.5588359773745642e+01 0 0 0
929 2 -8.7274618930538406e-01 3.3704442711969733e+00 6.8424605599478303e+00 1 0 0
513 2 8.0022062289354370e+00 -3.5874458280983212e-01 1.6229265282739487e+01 1 0 0
705 2 -3.2919953380270299e+00 5.3657040931754203e+00 1.0191526479109342e+01 -2 0 -1
302 2 6.9048659538333679e+00 6.2993967382216018e+00 2.8628625011062607e+00 0 0 0
299 2 -5.0158408792621278e+00 1.9391551976187356e+00 1.7276486810468587e+01 -2 0 -2
896 2 1.5914036190753338e+01 6.5597738773341714e+00 2.1112277553897019e-01 -1 0 0
150 2 -5.5243840158241939e+00 5.0707310851889487e+00 1.6053169898150699e+01 -3 0 -1
406 1 2.6782822476073678e+00 1.4934562350151142e+00 1.0958304087718934e+01 -2 0 -2
978 2 5.8454800494431662e+00 -5.7227948457906697e-01 1.7085974336784105e+01 -3 0 -1
596 2 2.3896207167769403e+00 6.9320506114984806e+00 2.9454257457133446e+00 3 0 -2
775 1 1.0753189203183762e+01 6.1533324129578437e-01 3.8370645355145250e-01 -2 0 2
338 2 3.6615593153794306e+00 9.5963734141080543e+00 5.1297503667788265e+00 -1 0 -1
881 2 1.1052062654263501e+01 2.5649559236230370e+00 8.6436469621310437e+00 -3 0 2
319 1 1.0599826662699446e+01 -5.0436309561320214e-01 1.4253493336214333e+01 -4 0 -3
53 2 1.1307154182593621e+01 4.0320127178231795e+00 3.3313134799674166e-01 2 0 0
435 2 1.0528463212534533e+01 9.1006700238005322e+00 1.4754570765212220e+01 -2 0 0
609 2 5.8495214856382844e+00 1.8047652318788265e-01 3.5525771981286742e+00 -3 0 0
1583 2 -4.6832179994140519e+00 1.4054953786627338e+00 1.5044197342681656e+01 0 1 1
122 2 1.1371181311822724e+01 6.3797561726771166e+00 1.3331092704909029e+01 -2 0 -1
295 1 -6.4326178229962672e+00 8.6543040857293683e+00 1.8566939910648589e+01 2 0 2
407 2 2.0446568609463727e+00 1.3051069703326923e+00 1.1730655540886543e+01 -2 0 -2
707 2 2.8361059992661000e+00 9.1331034486462901e+00 1.6474358710213338e+01 -1 0 -1
972 2 1.6558100543637504e+00 9.4791608419962010e+00 2.0088211874499819e+00 0 0 1
448 1 4.2200169609653928e+00 8.1838655932702054e+00 9.9823298604330404e+00 -1 0 1
244 1 1.2572446213960752e+01 9.0060485924984199e+00 1.3726183464995055e+01 -4 0 -4
922 1 5.2831579717704225e+00 7.9367318142224423e+00 1.7065709295577332e+01 -3 0 -3
687 2 2.6544227767290884e+00 -9.6539823791454538e-02 1.0334428025237930e+01 -3 0 0
749 2 1.4753685180561433e+00 7.7499019557303797e+00 1.3085005220814004e+01 -3 0 1
296 2 -6.0863805925337049e+00 8.5836747346309306e+00 1.7651026771885725e+01 2 0 2
301 1 7.7566437797267724e+00 5.9161670165411602e+00 2.9556132099973147e+00 0 0 0
149 2 1.0875735671746654e+01 4.6741054544102729e+00 1.6258206586872831e+01 -4 0 -1
841 1 -2.0297244368959992e+00 -1.3320286762044924e+00 1.6021198913375560e+01 -5 0 -5
463 1 5.0324974952168553e+00 9.5959363406344718e+00 7.7147434108392865e+00 2 0 0
449 2 3.5301391694592898e+00 8.5926905601303645e+00 1.0560809150582172e+01 -1 0 1
524 2 1.2526381608464945e+00 3.4758948329511696e+00 1.3936814822304955e+01 -2 0 -4
585 2 -6.9089669033191914e-01 7.7313421977475585e+00 1.6319026342433460e+01 -4 0 -4
523 1 8.1560883937007489e-01 4.3320125160780627e+00 1.3721086551951917e+01 -2 0 -4
658 1 5.6169915032814703e+00 2.7944029398486876e+00 1.3997913883004568e+01 -1 0 -2
206 2 4.0241807747257070e+00 2.5379255549258311e+00 1.1241003003062618e+01 3 0 0
96 2 -3.8638062104887805e-01 4.5214108433337286e+00 4.8919787424900347e+00 -1 0 -1
441 2 -2.3652706268042314e+00 7.8565728149040623e+00 1.2107854303031623e+01 -2 0 -1
151 1 8.3125100775040988e+00 3.3564873710261125e+00 1.7622360076299872e+00 3 0 0
781 1 1.2802056311607297e+00 4.3379311136064231e+00 4.2511645198404624e+00 -2 0 -2
880 1 1.0353411458421405e+01 1.8735595459776309e+00 8.8430206090264605e+00 -3 0 2
626 2 2.1841870548249371e+00 5.1889211732468334e+00 1.8018813351111806e+01 0 0 -1
131 2 8.4966348570723405e+00 8.3369319906980248e+00 1.2714548790398553e+01 -1 0 0
703 1 1.4003880284108119e+01 6.0846301734570769e+00 1.0312184392522488e+01 -3 0 -1
382 1 1.5977588635668187e+01 5.6165093830958916e+00 1.6105705695902677e+00 -2 0 1
21 2 9.5123376388172503e+00 8.6593584589475725e+00 2.3676576790160437e+00 -3 0 -3
368 2 1.4528066372118200e+01 9.5783010350646887e+00 1.4341496139937675e+00 -2 0 0
54 2 1.1004667839925665e+01 2.5441412012992961e+00 4.3352470885345817e-01 2 0 0
762 2 1.3876692741606664e+00 -2.7604959587958322e-01 1.8459643813805101e+01 -3 0 1
689 2 3.4117581429344521e+00 2.8580602199749832e+00 5.9748622456060385e+00 -2 0 0
161 2 -3.2545061926723902e+00 8.0213407112117814e+00 1.0240257411192726e+01 1 0 -5
392 2 3.0234501087469479e-01 7.7842695220622584e+00 1.1283337728296454e+01 -1 0 -1
652 1 5.6502402370649729e-01 6.8499448568497368e+00 1.9536400334054709e+00 -1 0 0
52 1 1.0597461642359749e+01 3.4229866339914183e+00 5.1779930828880871e-01 2 0 0
356 2 1.3214009345685302e+01 5.2387605653208791e+00 1.3312305995126072e+01 -5 0 -3
477 2 7.8607944396751614e+00 5.1621914783257017e+00 1.3091240540841902e+01 -1 0 2
500 2 -1.0164464304061021e+00 1.7415222013708540e+00 1.2332846353802601e+01 1 0 0
367 1 1.4166459446026112e+01 8.7343255791449383e+00 1.5302514374913312e+00 -2 0 0
806 2 1.0613390883807496e+01 6.4634726968394070e+00 8.8016670824448671e+00 -4 0 1
950 2 -4.0599450976490559e+00 -3.4669590067715683e-01 1.8495825223048104e+01 -1 0 1
810 2 7.7483202305272112e+00 4.6678146565561480e+00 5.9173999082843167e+00 -4 0 -1
930 2 -1.1034559959476762e+00 3.6235278940092339e+00 8.3071954765443330e+00 1 0 0
702 2 4.2303330480085881e+00 1.2452022358943498e+00 1.6737521907871585e+01 -3 0 -3
501 2 -7.3762233657951670e-01 3.5512032812391725e-01 1.2135656577338597e+01 1 0 0
625 1 2.2018560324734286e+00 4.4360299132955232e+00 1.7400496241699951e+01 0 0 -1
619 1 4.6967792281933054e+00 8.7875206809842403e+00 3.9787584811227900e-01 -3 0 0
101 2 5.2749872484649343e+00 7.4247703754619412e+00 1.1307959893463611e+01 -1 0 -1
384 2 1.6482981970545030e+01 4.7895785662419206e+00 1.6372656545355500e+00 -2 0 1
710 2 4.9293955280291168e-01 1.0209755746059715e+01 1.4822370604398325e+01 -3 0 -2
622 1 -2.3533481066589159e+00 3.1906955717785275e+00 1.6216140636948001e+01 -2 0 -2
624 2 -2.9040478837817441e+00 3.2149116805689184e+00 1.6999968140025640e+01 -2 0 -2
179 2 1.3146650661106415e+01 4.2583120358262709e+00 1.3766149108901038e+00 -3 0 0
919 1 1.0515671749960175e+01 -7.5260617917050998e-01 9.9727438740996934e+00 0 0 -2
843 2 -1.5173002677010152e+00 -5.9534725700485358e-01 1.5583791638156121e+01 -5 0 -5
336 2 7.5082542696926415e+00 8.2877587412270675e+00 8.8106295432680337e+00 -2 0 -2
540 2 2.9338792942612870e+00 -8.8169529607839381e-01 1.7252437059104431e+00 -4 0 -3
600 2 -1.5009002967860279e+00 -8.7327384256939533e-02 8.1531867310012078e+00 -3 0 1
49 1 9.5636989339743117e+00 2.7279577400480859e+00 1.1564775273884990e+01 -1 0 0
183 2 1.2748322467194487e+01 4.1450985502022286e+00 7.1706001433699793e+00 -1 0 0
464 2 4.9335825399969391e+00 8.8639910350877393e+00 7.0648971345010398e+00 2 0 0
949 1 -4.2202170925408762e+00 -7.9501709312809932e-01 1.7629494830500089e+01 -1 0 1
369 2 1.4450708080414898e+01 8.1963042900443188e+00 7.7309908420366202e-01 -2 0 0
1582 1 7.0966779549552257e+00 8.2952524186922449e+00 1.3993059657328020e+01 0 0 0
135 2 8.0086953170802611e-01 2.5346559586373596e+00 8.4082292889492418e+00 1 0 -1
778 1 5.7201934690058556e+00 7.3065450996836461e+00 6.3554230229796964e+00 1 0 0
335 2 7.5461508152964978e+00 6.7338261188273592e+00 8.8848025887403761e+00 -2 0 -2
598 1 -1.1119160289633452e+00 -8.5261480543744028e-01 7.6411504833532806e+00 -3 0 1
120 2 5.0486259890696932e+00 4.6965124390927109e+00 2.3714786866888011e+00 -2 0 -2
858 2 -1.0886328582109417e+00 7.0394278401408634e+00 7.3438935267360277e+00 -1 0 -3
640 1 1.7010522930175047e+00 5.2301193435354811e+00 1.0277741886235294e+01 4 0 -1
753 2 -3.3280220471653057e+00 4.3901936055280029e+00 1.4941350436255691e+01 0 0 2
527 2 2.4875121156456803e+00 1.9051929508435617e-01 4.6593177427952472e+00 -2 0 0
119 2 3.9508268258974137e+00 5.0985172059574007e+00 3.2995163472725628e+00 -2 0 -2
525 2 3.0184969600951828e-01 4.5373043214436271e+00 1.4519918210828518e+01 -2 0 -4
495 2 1.1868956849310082e+00 7.0365716801583122e+00 7.1282903162497009e+00 -3 0 -2
573 2 1.1523005800271473e+01 -8.5890815077652050e-01 3.4721417351853257e+00 2 0 4
502 1 5.0105772349770969e+00 -1.1277833162657425e+00 8.2674923219860172e+00 0 0 -1
212 2 8.0708560803945613e+00 2.5365452270458357e+00 6.7027630535035003e+00 -5 0 -2
701 2 4.6171627768335703e+00 2.6332254006109093e+00 1.7043890157438259e+01 -3 0 -3
184 1 5.8101498868302333e+00 2.0841885194370113e-01 1.6377490487387047e+00 -4 0 -6
470 2 -4.7264967400261888e+00 4.0537477024481499e+00 1.8595649803725070e+01 -6 0 -3
471 2 2.6066295263636672e+00 2.9181629711503589e+00 2.1926890693674886e-01 -5 0 -2
708 2 2.5968961654811400e+00 8.8820920260983360e+00 1.4931711682751354e+01 -1 0 -1
634 1 1.7830863050757051e+00 9.6250416046672012e+00 8.9060649755925336e+00 1 0 -2
46 1 1.0425220883583885e+01 9.2048867068715694e+00 5.4208381838725037e+00 -3 0 0
538 1 3.1439664270492012e+00 -1.2003667231992110e-01 1.2230619217249230e+00 -4 0 -3
856 1 -3.2458341553448511e-01 6.4025943171682762e+00 7.4388747745269557e+00 -1 0 -3
627 2 2.6333335680996059e+00 3.7079477638706893e+00 1.7811295549343804e+01 0 0 -1
111 2 2.9647760158334169e-01 7.4866671599037060e-01 1.6325984460091099e+01 1 0 -4
869 2 1.1712888280283480e+01 4.5067868261743547e+00 9.0587668049407810e+00 1 0 0
16 1 -1.7896757874915004e-01 4.7143881332328936e+00 1.6229435846252191e+01 0 0 1
178 1 1.3402749914819177e+01 5.2120672920220095e+00 1.4583273808823616e+00 -3 0 0
974 2 9.6244504258855184e+00 5.7030661135571492e-01 1.5201032158551611e+01 -4 0 -2
118 1 4.4126627352936234e+00 4.2922303269654618e+00 3.0393502717686376e+00 -2 0 -2
672 2 1.7584894165323548e+00 -3.8912896358804083e-01 8.2310662483960666e+00 -3 0 -1
623 2 -1.4663286256126575e+00 3.5571423856756184e+00 1.6354537448710097e+01 -2 0 -2
1668 2 5.5461481276895830e+00 3.7486974044143242e+00 1.4306319874782492e+01 -1 1 -2
644 2 1.2514169542113857e+01 -5.4895704629551956e-02 1.1926092821635450e+01 -4 0 -3
698 2 1.2469388881464319e+01 9.2425892862912651e+00 1.3435508410265378e+00 2 0 4
83 2 1.3495508522955546e+01 6.4891002617702922e+00 8.6297797153928908e+00 -1 0 -3
239 2 4.5883709553090650e+00 5.3031080894637928e+00 1.5081437385960919e+01 0 0 0
716 2 9.3953338306146517e-01 6.9107348376294091e+00 1.8211678467114936e+01 1 0 1
717 2 7.6863991147037218e+00 6.1006275787001334e+00 5.7798746668407186e-01 1 0 2
240 2 6.0139443768792828e+00 5.5868987464759581e+00 1.5570891639897294e+01 0 0 0
904 1 8.8859330014514164e+00 8.8918583130617854e+00 5.8329897863861824e-01 -3 0 2
17 2 5.8149856883702178e-01 4.4401890619898543e+00 1.6751234479206978e+01 0 0 1
779 2 5.0385027200099950e+00 6.7510988608448894e+00 6.7072801790631749e+00 1 0 0
776 2 9.7873262278155941e+00 4.4812104906294548e-01 4.0031695552506824e-01 -2 0 2
645 2 1.1247237042971195e+01 2.6307623665513380e-01 1.1119869529054368e+01 -4 0 -3
613 1 6.4146107082304535e+00 2.2761641371240038e+00 2.1541370809891014e-01 -2 0 0
246 2 1.2089912449679144e+01 8.6653482233276513e+00 1.2935499962384180e+01 -4 0 -4
238 1 5.5712015825638632e+00 5.2530406603943858e+00 1.4773867223045823e+01 0 0 0
522 2 7.2335399743131852e+00 -2.0735024749346431e-01 1.0241472990913266e+01 -5 0 -2
715 1 1.5215827157371251e+00 6.5191273526176357e+00 1.8915919517271760e+01 1 0 1
115 1 -2.5213796514797333e+00 2.6033023566973315e+00 1.2318279147139375e+01 -4 0 -5
426 2 1.3428779398823901e+01 1.7685198177329768e+00 7.5387950876518972e-01 -2 0 1
274 1 1.3838989009590319e+01 -5.7505482576377898e-01 1.3879983307235615e+00 2 0 0
494 2 1.8678328808388143e+00 8.1489056089597103e+00 7.8648593126425146e+00 -3 0 -2
276 2 1.4791391231517485e+01 -7.4471385779037236e-01 1.3744169463773457e+00 2 0 0
933 2 -1.6818102880722154e+00 1.5180699980998078e+00 1.5452625668715303e+01 -2 0 -1
857 2 -4.7880681139089809e-01 5.7150568756130138e+00 6.7969516317327194e+00 -1 0 -3
868 1 1.2303066969266656e+01 3.8398398570882977e+00 8.6820668994677916e+00 1 0 0
671 2 1.8132086019427138e+00 -2.4149325317357451e-01 6.6921046716899388e+00 -3 0 -1
18 2 -2.0400874461573792e-01 5.6866233047346908e+00 1.6494116093463543e+01 0 0 1
344 2 1.1620212877566566e+01 -1.4461645207321725e+00 1.5267558314065511e+01 -2 0 1
504 2 5.7149400379654196e+00 -5.0905093339258511e-01 8.6053013708633799e+00 0 0 -1
785 2 3.4525279193965979e+00 2.9895890845910911e+00 2.3200408357993130e+00 -3 0 -2
870 2 1.2746323277284418e+01 3.3965011615496259e+00 9.3787694255185308e+00 1 0 0
211 1 8.7724050002774412e+00 1.8397363650364067e+00 6.5824760014066790e+00 -5 0 -2
387 2 3.1713948083206192e+00 4.5104518768998512e+00 6.8227602164969747e+00 0 0 -2
339 2 2.7527341421667968e+00 8.6474637127532716e+00 5.9798025452334329e+00 -1 0 -1
643 1 1.1833204535936254e+01 6.5183191908846938e-01 1.1826271858572337e+01 -4 0 -3
268 1 3.3548391023662472e+00 1.0277840241177344e+01 1.7349614859484820e+01 2 0 -2
162 2 -1.6282603269037117e+00 8.2587632458705151e+00 1.0315227281032568e+01 1 0 -5
760 1 8.4283576542245378e+00 -5.3450104751593452e-01 2.3042311893454229e-01 -3 0 2
116 2 -2.3425839164856868e+00 3.5566738414282364e+00 1.2447567401033798e+01 -4 0 -5
224 2 -2.3260327225887698e+00 6.5403426958702262e+00 1.7441372694904839e+01 -2 0 -2
845 2 7.2324849507811413e+00 2.7008713027750808e-01 1.2540412680473493e+01 1 0 1
48 2 9.8561525372746548e+00 8.8184964162153285e+00 4.7522886647655289e+00 -3 0 0
117 2 -3.0857746724640460e+00 2.2556748560317472e+00 1.3087253245309080e+01 -4 0 -5
931 1 -9.5032655141386080e-01 9.6568164942471624e-01 1.5158946437562937e+01 -2 0 -1
429 2 -4.9957821366026964e+00 8.6419118465757254e+00 1.5374502072186637e+01 0 0 -1
385 1 3.6783738521617702e+00 5.2442274553728447e+00 7.2613702620853076e+00 0 0 -2
846 2 6.0135716605558391e+00 -7.1248876736205724e-01 1.2055814436792550e+01 1 0 1
961 1 2.1057720330677787e+00 -2.9732044098054078e-01 1.4220868205607625e+01 -3 0 -1
42 2 5.4674768177834157e+00 5.0848766669220735e+00 1.0001249097198125e+01 -2 0 3
726 2 1.4782512392709897e+01 1.8106567307101651e+00 8.9391627001050118e+00 1 0 1
876 2 -3.1077848040557323e+00 7.9213784950814787e+00 1.5816074637641218e+01 -2 0 1
769 1 -1.5187673800393084e+00 4.6797261040098626e+00 9.5418630619681331e+00 1 0 -3
1002 2 1.1861708969803173e+01 2.2299397915114167e+00 2.6698261653780175e+00 -1 0 1
130 1 8.8962455305952730e+00 8.4940898100775950e+00 1.1826868402224839e+01 -1 0 0
560 2 8.1871810441252748e+00 -1.1458978887970652e+00 6.5184198177935677e+00 -2 0 1
41 2 4.3032616058077373e+00 5.1627272882164030e+00 9.0463599283799709e+00 -2 0 3
636 2 2.2005308873492244e+00 1.0174929713383468e+01 9.5473106489055208e+00 1 0 -2
812 2 1.1094125333251039e+01 2.5014831802808746e+00 1.2825244130691383e+01 -2 0 -1
932 2 -5.8306454018222720e-01 1.0464083439035572e+00 1.4255248508012992e+01 -2 0 -1
575 2 6.4291727599711797e+00 7.8160983465118239e+00 1.3455307169283641e+01 0 0 0
213 2 8.8810865352355410e+00 1.8941656539799756e+00 5.6456286247234484e+00 -5 0 -2
388 1 1.4104692355394567e+01 2.2410298121223460e-01 4.0082124536228401e+00 -1 0 0
458 2 -6.0229749565381829e-01 -7.7853649423531690e-01 2.8461164967354433e+00 -2 0 -2
699 2 1.1423794229629237e+01 9.0819983657949930e+00 2.4121924276193996e-01 2 0 4
938 2 1.4386353739381674e+01 8.0055809910350870e+00 4.2033105235722061e+00 1 0 1
969 2 2.9622680395381327e+00 5.0569712368079500e+00 1.3057883448936701e+01 -1 0 1
545 2 2.4267948812300109e+00 1.4073002111793653e+00 1.4004346142073974e+01 2 0 1
386 2 3.0629431112356635e+00 5.9758372345950361e+00 7.2102734561796025e+00 0 0 -2
937 1 1.4507854663318097e+01 7.1573717132211172e+00 3.7475946798594277e+00 1 0 2
40 1 4.6165109887039293e+00 5.5316640725231787e+00 9.8788685031043180e+00 -2 0 3
786 2 3.0448127783967500e+00 1.6294408923278589e+00 1.5968308382494465e+00 -3 0 -2
984 2 9.6456530931816857e+00 1.0095585954674922e+01 1.2349317001068391e+01 0 0 0
724 1 1.4843546057861198e+01 1.4506343374093040e+00 8.0029938005610077e+00 1 0 1
784 1 2.7548613886694691e+00 2.4269797091559226e+00 2.1453562012920395e+00 -3 0 -2
967 1 3.5002388779041471e+00 5.2841029526973511e+00 1.2322963384365577e+01 -1 0 1
553 1 1.0380910320318467e+01 1.5576176222259566e+00 1.8823712081970200e+01 -5 0 -2
681 2 6.9342270508919457e+00 2.2240344821419455e+00 1.7284837627561863e+01 -3 0 -3
649 1 8.7451841829538353e+00 1.4351265830735653e+00 3.8258530005686677e+00 -4 0 0
650 2 8.2640593704384013e+00 1.9525525997168565e+00 3.2039941554380449e+00 -4 0 0
51 2 9.7025386283510233e+00 2.6780607385706521e+00 1.0593391476918463e+01 -1 0 0
36 2 1.5281488431190466e+01 3.2176709436429078e+00 3.5753519194469678e+00 -2 0 0
945 2 5.3063647557203666e+00 1.9608570326708432e+00 4.7926436418133012e+00 0 0 3
673 1 -4.9608540423170986e+00 5.9571516602047003e+00 1.8848119706655982e+01 0 0 -4
939 2 1.5103527372268399e+01 7.4001714534815921e+00 2.9987288420970706e+00 1 0 1
397 1 1.4519492384735406e+01 4.4253860459707965e+00 4.5258390679580573e+00 2 0 0
127 1 1.1838856985796184e+01 6.7610010800852276e+00 3.1061734695072816e+00 -2 0 -1
128 2 1.1458777938549682e+01 6.0198685020152283e+00 3.6729193551944350e+00 -2 0 -1
1407 2 1.4455503185558568e+01 5.3757499086880012e+00 4.2468953536673881e+00 2 0 0
34 1 1.5633405834907547e+01 2.3926797975639564e+00 3.1232810458640627e+00 -2 0 0
928 1 -7.7354892126856822e-01 2.8984857136946838e+00 7.7128299208733653e+00 1 0 0
926 2 -3.2976214654239473e+00 -9.3810914233081977e-01 1.2201957482700831e+01 2 0 2
152 2 9.0911655839409811e+00 3.6017607959720088e+00 1.2013181510169411e+00 3 0 0
439 1 -1.9636134403026957e+00 7.5058334942646034e+00 1.2979304790020535e+01 -2 0 -2
350 2 7.5450961758782986e+00 3.2473495102433092e-01 1.8446361256252974e+01 2 0 3
738 2 1.4925034556632614e+01 7.7927184501391658e+00 7.6809687711938279e+00 -1 0 1
176 2 3.6657256793700697e+00 -9.1661959116577818e-01 1.3201049057140118e+01 -5 0 1
783 2 1.7200583603230737e+00 5.2597087504165767e+00 4.2166899139091996e+00 -2 0 -2
148 1 1.1549562174420316e+01 5.4225547080974978e+00 1.6253625531203227e+01 -4 0 -1
994 1 1.0002857685034325e+01 7.0648464377617248e+00 7.1494681231161756e+00 3 0 1
725 2 -2.3088791275620038e+00 1.8733325550640263e+00 7.5824682291703995e+00 2 0 1
669 2 7.2924259112983005e+00 1.0212178964471187e+01 9.9885078670743077e+00 -3 0 -3
129 2 1.2757355771385713e+01 7.0032613988665418e+00 3.4260261307777804e+00 -2 0 -1
951 2 -3.3041512208178498e+00 -9.3765518804599823e-01 1.7290244547810197e+01 -1 0 1
173 2 9.3147510007258525e+00 2.8369016924070758e+00 1.5822613029924664e+01 -1 0 -2
1664 2 6.1470194473337116e+00 5.5659986450184373e+00 1.8871699515388279e+01 -3 1 -1
250 1 2.8399563250255939e+00 8.7787435729387351e+00 1.2575301167389277e+01 -3 0 2
175 1 4.4134079914909066e+00 -1.3980340124798938e+00 1.2826508006827535e+01 -5 0 1
462 2 7.8698340744668105e+00 5.5472264476473807e+00 1.0802801827974941e+01 -4 0 -2
651 2 9.6618845793360837e+00 1.7696269261470388e+00 3.6257366962578876e+00 -5 0 0
996 2 9.1479615683693751e+00 7.4068577568543592e+00 7.4823704118424645e+00 3 0 1
611 2 -3.5550435167676904e+00 2.3086775693651229e+00 1.1102953669371729e+01 0 0 2
635 2 9.3450956127150686e-01 1.0053368448204949e+01 8.6619171717628856e+00 1 0 -2
750 2 9.8186789494554727e-01 6.2436052149270980e+00 1.3371595430644025e+01 -3 0 1
132 2 9.8020361110466041e+00 8.1430247409031313e+00 1.1797260920086620e+01 -1 0 0
102 2 4.8364738773329705e+00 6.4380115363281085e+00 1.2289284749643310e+01 -1 0 -1
497 2 6.6099578022736782e+00 3.5308261206180518e+00 7.9257462479896139e+00 0 0 1
498 2 6.1025594036039159e+00 3.4674042511407821e+00 6.4278239498873493e+00 0 0 1
395 2 1.1001688067170289e+01 3.7398026001890434e+00 4.0329397285367374e+00 -3 0 -3
963 2 2.4489979051191950e+00 -8.9027825158679030e-01 1.4924589752267694e+01 -3 0 -1
349 1 7.8145886505483286e+00 1.2217143732297067e+00 1.8206735881695174e+01 2 0 3
679 1 6.4961403148282493e+00 3.0094550309897619e+00 1.6888310887726036e+01 -3 0 -3
398 2 1.3840419934510372e+01 4.3579707221918191e+00 5.2195891382000745e+00 2 0 0
428 2 -4.4387675116228111e+00 9.3362859036230219e+00 1.6655751136264772e+01 0 0 -1
999 2 9.3466957589166455e+00 1.0277656499720974e+01 1.6030622366837747e+01 -3 0 2
321 2 1.0853379928562365e+01 6.6747157314006600e-02 1.3504417926834714e+01 -4 0 -3
943 1 4.9959019370658231e+00 2.7831988393735045e+00 5.1200128049345563e+00 0 0 3
764 2 -2.2933250786296115e+00 1.0393392263997280e+01 1.1352392629946172e+01 -3 0 -3
993 2 1.2369001923068961e+01 -9.1712169389988307e-01 9.5053881005100802e+00 1 0 1
393 2 6.4107520866461698e-01 8.1831851381599456e+00 9.8521768892465413e+00 -1 0 -1
172 1 9.5500535733641776e+00 3.7255366756427986e+00 1.5462704325919439e+01 -1 0 -2
298 1 -5.5932646568712130e+00 1.4229812381425395e+00 1.6742497940549331e+01 -2 0 -2
680 2 6.6629143011567615e+00 3.0970604609071772e+00 1.5965315977778269e+01 -3 0 -3
748 1 7.1542158586937710e-01 7.1207935895048635e+00 1.3037335423771312e+01 -3 0 1
337 1 2.7675056535378211e+00 9.2422709572515149e+00 5.1973403766548323e+00 -1 0 -1
944 2 4.8303915241465374e+00 3.3850984465939584e+00 4.3009614731676864e+00 0 0 3
100 1 5.2888731729922895e+00 7.2717989608886668e+00 1.2275793305104584e+01 -1 0 -1
1667 2 4.7820516691416266e+00 2.4824683677136203e+00 1.4349261848998214e+01 -1 1 -2
352 1 1.2056031762001059e+01 8.9650145291558783e+00 9.1617259427153481e+00 -1 0 0
174 2 1.0233733051248455e+01 3.4516628625427943e+00 1.4795452910426160e+01 -1 0 -2
511 1 7.4358019957108388e+00 -1.0812791802942030e+00 1.6538613999330607e+01 1 0 0
434 2 9.7850253441051933e+00 8.0303136534929003e+00 1.5496143425908025e+01 -2 0 0
84 2 1.2948596707897648e+01 6.1633071620097217e+00 7.1313961844615621e+00 -1 0 -3
460 1 7.9051063801018620e+00 5.2919526630244658e+00 9.8488540385468024e+00 -4 0 -2
607 1 5.5481074943053805e+00 2.1920435660805082e-01 4.5058746818699555e+00 -3 0 0
952 1 1.4570664845943142e+01 9.6182274372517504e+00 4.9323355658311874e+00 -1 0 1
231 2 1.8039050964268735e+00 1.7981735676700641e+00 3.4275226248963500e+00 0 0 -2
621 2 4.6406856837118999e+00 7.8862253988815709e+00 1.4086311874596183e-01 -3 0 0
595 1 2.8634822534355995e+00 6.5776538449111381e+00 3.7018427168649088e+00 3 0 -2
528 2 3.9410035525696792e+00 -3.0426003953476721e-01 4.7147349391920130e+00 -2 0 -1
109 1 8.3153168640120079e-01 1.0537713238431388e+00 1.7077206772692552e+01 1 0 -4
615 2 1.1413321383268471e-01 1.9124679266004492e+00 1.8430953893903968e+01 -2 0 -1
971 2 1.5251750187085684e+00 8.9936857049560288e+00 4.3220709535456936e-01 0 0 1
461 2 7.6205215530463315e+00 4.3300682142869791e+00 9.8114752603177209e+00 -4 0 -2
599 2 -1.4658314485329482e-01 -5.3570879712348329e-01 7.5307352206492588e+00 -3 0 1
408 2 2.1479131694673810e+00 1.8842798965692515e+00 1.0171761907652836e+01 -2 0 -2
20 2 1.0511934381040373e+01 7.6318322446016822e+00 2.9079185483399370e+00 -3 0 -3
182 2 1.1845346848159878e+01 4.7697991228019596e+00 5.8892857624298056e+00 -1 0 0
35 2 1.5271864293649481e+01 1.6197143177490774e+00 3.5963367286508814e+00 -2 0 0
216 2 1.2478177279817015e-01 9.8923515009769378e+00 3.5920459854392588e+00 0 0 -2
160 1 -2.5495275717049068e+00 8.5818407182295040e+00 1.0550121210403006e+01 1 0 -5
475 1 8.6924413802712195e+00 5.1484205616875416e+00 1.2610225874029549e+01 -1 0 2
68 2 8.5756323400944616e+00 6.5204370471190032e+00 1.7050166640044278e+01 -4 0 -3
427 1 -4.7004893282667464e+00 8.4902991697536851e+00 1.6299225074715583e+01 0 0 -1
133 1 1.6449582982960393e+00 2.7027212417112176e+00 8.9053240106982940e+00 1 0 -1
610 1 1.3710619483230346e+01 2.3956565552735425e+00 1.0383259155651592e+01 -1 0 2
675 2 -5.4686917384452194e+00 6.2930291722833003e+00 1.8109125307951732e+01 0 0 -4
82 1 1.3263993468222372e+01 6.9010117229632844e+00 7.7757349069373563e+00 -1 0 -2
300 2 -5.2807473028954357e+00 5.5524300163087847e-01 1.6948256987972222e+01 -2 0 -2
214 1 8.3588856966253089e-01 9.2340850336199782e+00 3.3907651249724573e+00 0 0 -2
782 2 1.5776790150063278e+00 3.9404824453471532e+00 5.0736410358247159e+00 -2 0 -2
690 2 2.3107067586326298e+00 2.6231524683174019e+00 7.1134819056844325e+00 -2 0 0
561 2 8.8997882627992553e+00 1.6882767495656648e-01 6.7394242044254780e+00 -2 0 1
728 2 1.1884011724890094e+01 8.2629196086861523e+00 1.0587644767496450e+01 0 0 1
113 2 8.3163671541498765e+00 1.9436867918160101e+00 1.2417108198746641e+01 -2 0 -1
185 2 6.0683893332735011e+00 1.0484842165621031e+00 1.1556042215235836e+00 -4 0 -6
670 1 1.3156644850584032e+00 5.4267029135155687e-02 7.4679795938543831e+00 -3 0 -1
889 1 1.1616493249256067e+01 -1.0975282645689697e+00 6.0173162642264666e+00 -1 0 0
465 2 4.8738081690400978e+00 9.1996004113965046e+00 8.5946400822307378e+00 2 0 0
67 1 8.2629361043581646e+00 6.2048422385438657e+00 1.6115643648869248e+01 -4 0 -3
727 1 1.1481067777771509e+01 7.9701690056001375e+00 1.1513318521414817e+01 0 0 1
114 2 7.0878609046714995e+00 2.1550823594344370e+00 1.3286083363710581e+01 -2 0 -1
425 2 1.3946482163284614e+01 2.4714321469125680e+00 1.9885806888138522e+00 -2 0 1
544 1 2.7841676366235832e+00 2.2844225198447168e+00 1.4107994434910824e+01 2 0 1
875 2 -2.1135525452341133e+00 7.6499685991214275e+00 1.4664760760027590e+01 -2 0 1
1001 2 1.1839506443104460e+01 2.0298435540702870e+00 4.1700450449881030e+00 -1 0 1
496 1 6.8686070290193335e+00 3.6623303923697463e+00 6.9809803028733048e+00 0 0 1
655 1 5.5979480398695109e+00 5.3647098155133346e+00 1.8066009240521304e+01 -3 0 -1
709 1 -3.4028658295068670e-01 9.8103667996917778e+00 1.5116336214234854e+01 -3 0 -2
924 2 5.4211997807261589e+00 6.9648263568904945e+00 1.7310614236901873e+01 -3 0 -3
685 1 2.7155520520653087e+00 -8.3674175011073659e-01 9.6367951198697597e+00 -3 0 1
844 1 6.9615242989758430e+00 -5.3575848434414730e-01 1.1977180065694428e+01 1 0 1
583 1 1.5638835377185778e-01 7.4025418414440765e+00 1.6723272570218533e+01 -4 0 -4
584 2 9.8794568889401280e-01 7.8617894618702593e+00 1.6349279024782781e+01 -4 0 -4
641 2 2.3279848842676540e+00 5.2249508047631661e+00 1.1024043690716169e+01 4 0 -1
110 2 1.7073968204482277e+00 1.2539377442077315e+00 1.6668328420188502e+01 1 0 -4
215 2 1.4623300910666142e+00 9.2727338219150770e+00 4.1459007911833918e+00 0 0 -2
47 2 1.0721060979969986e+01 8.4725269115935031e+00 6.0048323149224858e+00 -3 0 0
207 2 5.1264425895616261e+00 2.6101794346123528e+00 1.2326352323034204e+01 3 0 0
808 1 8.3415186357638458e+00 4.8489380848902721e+00 5.2050678726284980e+00 -4 0 -1
905 2 2.7180344802674163e+00 9.3645070012181524e+00 1.8963082331447207e+01 -3 0 1
577 1 3.1169544120100108e+00 5.7707320503360586e+00 1.5294566670286974e+01 0 0 0
19 1 9.5511091874707503e+00 7.8790142411193305e+00 2.9829682974627429e+00 -3 0 -3
1000 1 1.1230291921970270e+01 2.2388930274683374e+00 3.4382643908227979e+00 -1 0 1
294 2 -5.1889673503946732e-01 4.4765020177726287e+00 1.2642311597777322e+01 1 0 -3
953 2 1.3834546064149169e+01 1.0107268108366938e+01 4.6035737399131182e+00 -1 0 1
457 1 -1.9060819203353652e-01 -7.6588967908878214e-01 3.7590749411001299e+00 -2 0 -2
521 2 7.8548033321612376e+00 -4.8567620535501521e-01 8.8596561227717938e+00 -5 0 -2
813 2 1.2352867950849099e+01 2.4736069364502962e+00 1.3700900370111013e+01 -2 0 -1
912 2 1.2109844739787988e+01 5.9265144383795976e-01 6.0593237554663411e+00 -2 0 1
273 2 -2.0024342849368888e+00 -1.2693101069184778e+00 6.3383260950880524e+00 0 0 -1
85 1 1.6623058792083359e+01 -9.0745190472642800e-01 1.0469812505357206e+00 1 0 -2
771 2 -1.0363107959670721e+00 5.4340010498492282e+00 9.1680571157665387e+00 1 0 -3
788 2 7.4911185367276616e+00 9.2945280541801445e+00 1.6442303460477536e+00 -2 0 0
809 2 7.9067276803002100e+00 5.3603335457512902e+00 4.5304786320423576e+00 -4 0 -1
866 2 5.5039542262884238e+00 5.4542765898940448e+00 1.3305354470408931e-01 -3 0 0
94 1 -1.0949569886445372e+00 4.5424856481980971e+00 5.5784132073019297e+00 -1 0 -1
225 2 -3.4206669670927115e+00 6.2145435903398374e+00 1.8526381868685139e+01 -2 0 -2
770 2 -1.2421829972683391e+00 4.7422525846177495e+00 1.0516410632392502e+01 1 0 -3
123 2 1.1019790961191651e+01 6.1260982048547508e+00 1.4755929444333951e+01 -2 0 -1
440 2 -1.0088162181254301e+00 7.6123719389316680e+00 1.2973089293500868e+01 -2 0 -2
383 2 1.5009428512876209e+01 5.4733806575096224e+00 1.8100979154443848e+00 -2 0 1
980 2 1.1599945016093010e+01 1.0231874499434305e+01 4.7516902252282698e+00 -2 0 0
499 1 -2.8497428450657747e-01 1.1337452420576679e+00 1.2547773579528762e+01 1 0 1
910 1 1.2516697538694071e+01 1.5036576592535189e+00 5.8731059005989383e+00 -2 0 1
546 2 3.0049941588470421e+00 2.5004728666470499e+00 1.5003724606520676e+01 2 0 1
548 2 6.0701027490708448e+00 9.7039057868841976e+00 1.6898080048865125e+01 -3 0 -4
729 2 1.1460521815797183e+01 7.0238984236593200e+00 1.1455266047217856e+01 0 0 1
612 2 1.2986485055686328e+01 1.8872953616356751e+00 1.0771533640671473e+01 -1 0 1
674 2 1.3299084344156673e+00 6.3283171898824957e+00 6.3398933555281611e-01 0 0 -3
121 1 1.0691053613668290e+01 6.6009633661281431e+00 1.3998654146084684e+01 -2 0 -1
911 2 1.3078583895403455e+01 1.7067199199686329e+00 6.6526780013585691e+00 -2 0 1
424 1 1.3185313306386357e+01 2.4435037414106136e+00 1.3871156025696068e+00 -2 0 1
811 1 1.1480804921434085e+01 2.8931523332383398e+00 1.3625185516786528e+01 -2 0 -1