LAMMPS data file via write_data, version 3 Mar 2020, timestep = 1000000

1008 atoms
2 atom types

2.4111061564330960e-01 1.8158444384352318e+01 xlo xhi
3.8612530159294778e-02 2.2531776469833670e+01 ylo yhi
1.9902885853776198e-01 1.9306687141456020e+01 zlo zhi
2.3262770257506334e-02 -6.6426075690191899e+00 2.4998564111086332e-02 xy xz yz

Masses

1 16
2 2

Atoms # atomic

1 1 6.9690135547655050e+00 1.1824473186599618e+00 4.8527742338563735e+00 0 0 0
220 1 3.6952281647250711e+00 1.0918191077405016e+01 3.5359203497095306e+00 0 0 0
3 2 6.7868446259359416e+00 1.5893725641715553e+00 3.9937031719942140e+00 0 0 0
4 1 4.0066961672503645e+00 1.1507930175692722e+00 5.1299286859430504e+00 0 0 0
5 2 4.9033212218985618e+00 8.1002744276039562e-01 5.3449803027222540e+00 0 0 0
6 2 3.8519125188438332e+00 1.6331889457408166e+00 5.9527480587101760e+00 0 0 0
7 1 -4.3940670467498466e-01 6.5911896173961209e+00 5.0191757303832878e+00 0 0 0
8 2 -3.8677886963706865e-01 6.3981111247304661e+00 6.0029374269241931e+00 0 0 0
9 2 -7.5521916332984995e-01 7.5087697259197022e+00 5.0554343742558334e+00 0 0 0
10 1 2.3487058039650774e+00 6.4380988523438818e+00 4.3861217074778729e+00 0 0 0
11 2 1.3978897163551007e+00 6.5517988258354967e+00 4.4758827522774238e+00 0 0 0
12 2 2.7315611316965391e+00 7.2598538233457539e+00 4.8510252478868319e+00 0 0 0
22 1 8.4454332328546755e-01 2.6159048560514675e+00 9.3985324677090762e+00 0 0 0
14 2 4.9927433495280837e+00 5.3995618907984246e+00 8.4757849133134666e+00 0 0 0
583 1 3.5461665879171003e+00 1.5084338854135926e+00 9.6676905073518764e+00 0 0 0
16 1 5.6418083269257666e+00 5.0408369064046132e+00 5.6871054741847726e-01 0 0 0
18 2 5.6217109873920297e+00 5.6394528421568140e+00 1.3727151928381160e+00 0 0 0
80 2 6.6295417746462135e+00 1.7437028507241676e+00 8.0687407193062610e-01 0 0 0
70 1 3.9611354573599185e+00 6.1152830353579923e-01 1.6557365931856778e+00 0 0 0
21 2 9.3862180992105815e-01 2.3182340354589921e+00 1.3984433005954109e+00 0 0 0
146 2 1.7722272348614318e+01 6.2488173995161400e+00 8.6066110498666115e-01 0 0 0
254 2 1.5958987127015895e+01 9.7038507170679082e+00 5.7528137778701849e+00 0 0 0
82 1 2.5349517605924752e+00 6.2880064279984991e+00 2.9862741007907456e-01 0 0 1
25 1 4.8323177677234206e+00 6.4992692546538064e+00 6.9121873759534385e+00 0 0 0
26 2 5.4208333992866189e+00 7.2162498625962250e+00 7.2517864918205621e+00 0 0 0
27 2 3.8974932223455347e+00 6.7907595933762934e+00 7.0885083145144137e+00 0 0 0
28 1 5.8276256580580306e+00 6.8925516762627961e+00 2.5157957652563008e+00 0 0 0
29 2 5.8734762739354993e+00 6.4429458297360318e+00 3.3459271405425279e+00 0 0 0
30 2 5.1453791527318522e+00 7.6116839783667274e+00 2.5263300238472026e+00 0 0 0
31 1 1.2735360219942078e+00 1.1663734051630872e+00 2.7287835118813812e+00 0 0 0
32 2 2.1810409832567199e+00 9.6953090424656485e-01 2.4751535111317118e+00 0 0 0
33 2 1.2819285767532145e+00 1.5175754465652456e+00 3.6340325417067723e+00 0 0 0
34 1 4.1853814244815801e-01 9.9972458409357468e-01 7.2580328305569655e+00 0 0 0
692 2 -2.2382755825191296e+00 1.1082246362188773e+01 9.6480725356034025e+00 0 0 0
36 2 5.6696485651611939e-01 1.5783628646061805e+00 8.0257567935180969e+00 0 0 0
37 1 6.3840515359045469e+00 2.5635690082887779e+00 2.5317329246165281e+00 0 0 0
38 2 5.4956901043128763e+00 2.9762604627932761e+00 2.5396541530810235e+00 0 0 0
39 2 7.0775653315744238e+00 3.2842185450314640e+00 2.5663834273081103e+00 0 0 0
40 1 4.0970958097441610e+00 2.9844738891173210e+00 7.4240149461088167e+00 0 0 0
41 2 4.9895458692599295e+00 3.3892566567541147e+00 7.2032842614909676e+00 0 0 0
42 2 3.4462890294697699e+00 3.7158336780850543e+00 7.2267642015140874e+00 0 0 0
43 1 -1.9543560259680426e-01 5.1872331806034016e+00 7.4451728855223775e+00 0 0 0
44 2 -9.3944777995566420e-01 4.7110258934262887e+00 7.0224559099469603e+00 0 0 0
45 2 -4.5659008347511421e-01 5.2129415583235872e+00 8.3516099425154380e+00 0 0 0
46 1 1.6215843236765806e+00 4.9703864726408495e+00 2.4312256044092146e+00 0 0 0
47 2 7.2015532646728575e-01 4.7503436163449155e+00 2.7148569357035237e+00 0 0 0
48 2 2.0023048006365909e+00 5.5117052146127259e+00 3.1372765654030119e+00 0 0 0
49 1 6.7554610131578485e+00 3.5426201867277589e+00 6.3435725865846928e+00 0 0 0
50 2 6.3913908081169399e+00 4.1359929626038170e+00 5.6292776021598234e+00 0 0 0
51 2 6.8622173364596080e+00 2.6101040704904026e+00 5.9982471025586426e+00 0 0 0
52 1 4.0005502245232742e+00 3.6129263105411384e+00 3.3244792307801081e+00 0 0 0
53 2 3.2395056312711246e+00 3.8064236997934757e+00 2.7055762814227244e+00 0 0 0
54 2 3.8070870805494756e+00 2.7943656470505100e+00 3.8257061781523292e+00 0 0 0
55 1 -7.6501423483042563e-01 4.2301273452129164e+00 3.5555248290738533e+00 0 0 0
56 2 1.6779508825535537e+01 5.0632324567599820e+00 3.8908037497971635e+00 -1 0 0
57 2 -2.4925894656749781e-01 3.7758091184909088e+00 4.3100639767862905e+00 0 0 0
58 1 2.1050554554438232e+00 4.2783879961112286e+00 6.3090987823755311e+00 0 0 0
59 2 2.3859689979072853e+00 5.1629359953179845e+00 5.9166958651972470e+00 0 0 0
60 2 1.3066158748549741e+00 4.6524324815521743e+00 6.8627903324701318e+00 0 0 0
61 1 8.2587952847320611e+00 7.3255176666243855e+00 1.5091736653992323e+00 0 0 0
62 2 7.5579321782778646e+00 6.9872456795520650e+00 2.1071355046983236e+00 0 0 0
63 2 8.3954067246902415e+00 6.5257538712289112e+00 9.1677368640028434e-01 0 0 0
64 1 2.5921470075639879e+00 7.2448089911378490e+00 8.1956765502263558e+00 0 0 0
65 2 1.7580240657336854e+00 7.6635544931495323e+00 7.8342983714156729e+00 0 0 0
66 2 3.0176628936610927e+00 7.9822734636088013e+00 8.7180308977021959e+00 0 0 0
486 2 1.1474633757291114e+01 7.7887323091855545e-02 8.9545504249079979e+00 0 0 0
68 2 -2.1792680293984650e+00 1.2540026397103128e+00 8.8258402902029651e+00 0 0 0
13 1 5.0295026361164101e+00 5.0848788222810608e+00 9.3952834887041785e+00 0 0 0
72 2 4.0075091569861581e+00 1.3830188087567579e+00 1.0911595391047508e+00 0 0 0
73 1 5.6504619533763742e+00 5.2904494107383639e+00 4.6697755494145836e+00 0 0 0
74 2 5.3409221661662958e+00 5.8260850934605628e+00 5.4624270420267438e+00 0 0 0
75 2 4.8989040279682055e+00 4.8272670339213262e+00 4.3506087523243160e+00 0 0 0
76 1 7.7859712135365156e-01 2.3969278277612700e+00 5.0798194355130812e+00 0 0 0
77 2 7.0995627817696261e-01 1.8854696082985258e+00 5.8979509855072614e+00 0 0 0
78 2 1.4536163435039759e+00 3.0776609567333653e+00 5.3114879313379291e+00 0 0 0
2 2 7.3943985615867058e+00 3.7566849549171571e-01 4.6606685247051152e+00 0 0 0
15 2 4.0661191305801747e+00 4.8849659078141654e+00 9.5908448367494561e+00 0 0 0
306 2 1.3803726084847950e+01 1.0573219632643463e+01 2.6143371711064542e+00 0 0 0
85 1 1.5479517242698668e+01 1.0389664746022476e+00 4.7703023616643518e+00 0 0 0
87 2 1.5347973386408732e+01 1.5530914069766173e+00 3.9302626138411791e+00 0 0 0
88 1 1.2763151495686895e+01 1.0605656113746242e+00 5.2787211578633135e+00 0 0 0
89 2 1.2697826734675795e+01 1.9150033059462426e+00 4.7593936343832102e+00 0 0 0
90 2 1.3697341338430522e+01 7.4112553981564411e-01 5.1802220834000892e+00 0 0 0
91 1 8.4000034536038033e+00 6.4946587171412169e+00 5.5000013408684403e+00 0 0 0
92 2 8.4206934179824664e+00 6.0114972041512544e+00 4.6869275240806871e+00 0 0 0
93 2 9.2550636948716534e+00 6.9169956644261896e+00 5.5497201906984461e+00 0 0 0
94 1 1.1197001045238785e+01 6.8126327579624055e+00 4.6890172629856330e+00 0 0 0
95 2 1.1836367038383459e+01 7.5389521850536010e+00 4.9438227996971875e+00 0 0 0
96 2 1.1314488356773591e+01 6.1688303305731411e+00 5.3866290614430223e+00 0 0 0
584 2 3.1077183535097901e+00 7.4880121527604204e-01 9.3691846989970653e+00 0 0 0
606 2 1.0965707941552751e+01 3.9287453346368384e+00 9.3277255993181356e+00 0 0 0
221 2 4.0042817746435606e+00 1.0345300894277264e+01 2.8446966130739013e+00 0 0 0
101 2 1.4214696421626874e+01 5.3601739267460990e+00 1.1549300004260368e+00 0 0 0
67 1 -2.1115080857850330e+00 5.5959386966605351e-01 8.1373821099992245e+00 0 0 0
69 2 1.4951001404779005e+01 2.7183594144413215e-01 7.8467352091994718e+00 0 0 0
274 1 9.7649132490141994e+00 1.0057226490019152e+01 9.6455369619900662e+00 0 0 0
109 1 1.4070353475389565e+01 6.4131966322163514e+00 7.1793570678101570e+00 0 0 0
110 2 1.4138136972260684e+01 5.7731789282233485e+00 7.8958049214431885e+00 0 0 0
111 2 1.3179366047726665e+01 6.8696223173427500e+00 7.2215093455881192e+00 0 0 0
112 1 1.5089334649880554e+01 6.4285057318412768e+00 2.7939919594757701e+00 0 0 0
113 2 1.4505477592260194e+01 7.1525639707557227e+00 2.4135834861348786e+00 0 0 0
114 2 1.5979372256617134e+01 6.6041782196065322e+00 2.4136140540280260e+00 0 0 0
115 1 1.0485936198908959e+01 1.3819304970067396e+00 2.5435078066575993e+00 0 0 0
116 2 1.0288876081298232e+01 2.0125471073735417e+00 1.8142524037119880e+00 0 0 0
290 2 1.6408740016839928e+01 1.0621500656715869e+01 2.6989044602520909e+00 0 0 0
118 1 9.0283831429162280e+00 1.1317133661428926e+00 7.3019342216239291e+00 0 0 0
119 2 9.2542090753007855e+00 1.7185257319766312e+00 8.0288960365514619e+00 0 0 0
120 2 9.2458311976729135e+00 1.5571117495567832e+00 6.4548507720467585e+00 0 0 0
121 1 1.5117407769437889e+01 2.7240297720072735e+00 2.2005352132247591e+00 0 0 0
122 2 1.5825190428391055e+01 3.3505697829215273e+00 2.4119251453302866e+00 0 0 0
123 2 1.5377360559356172e+01 2.1931733175803418e+00 1.3901321410110832e+00 0 0 0
124 1 1.3185325235864253e+01 2.7140666568202421e+00 7.4091934626777141e+00 0 0 0
125 2 1.4067402819666459e+01 2.9315744274123174e+00 7.0613775397536944e+00 0 0 0
126 2 1.2926896909527079e+01 1.9724253622301877e+00 6.8210374981987423e+00 0 0 0
127 1 8.6439571876175272e+00 4.8436806603497677e+00 7.6758988150303686e+00 0 0 0
128 2 7.9613011554992772e+00 4.1843850312681754e+00 7.3803118867462585e+00 0 0 0
129 2 8.5044722100817811e+00 5.4574677418149200e+00 6.9330395065573605e+00 0 0 0
130 1 1.1218794100599689e+01 4.9519827013847921e+00 2.3601722385940831e+00 0 0 0
131 2 1.1367871484448424e+01 3.9882747483526373e+00 2.5589173574285482e+00 0 0 0
132 2 1.1293981173599882e+01 5.4958053745607396e+00 3.1286447734110245e+00 0 0 0
134 2 1.5298559798620913e+01 3.9611258498832518e+00 5.6073661225103075e+00 0 0 0
136 1 1.2789236038534616e+01 3.0749632184634272e+00 3.6153334365451473e+00 0 0 0
137 2 1.3163232054438961e+01 3.8821699858446466e+00 4.0638297652216675e+00 0 0 0
138 2 1.3484083138587300e+01 2.7835232071663372e+00 3.0502132674673574e+00 0 0 0
139 1 8.5048128936083014e+00 4.4096897941893927e+00 3.2565568367517170e+00 0 0 0
140 2 9.2741609286703088e+00 4.7642729456871846e+00 2.7955036656853842e+00 0 0 0
141 2 8.8877119183102646e+00 3.6936350441106298e+00 3.7517670404820653e+00 0 0 0
142 1 1.1250122389434052e+01 4.4253503629666922e+00 6.4392266684233688e+00 0 0 0
143 2 1.1978152265465305e+01 3.8347990114885411e+00 6.8353438015916517e+00 0 0 0
144 2 1.0423374533720009e+01 4.3517238315189966e+00 6.9736325042855434e+00 0 0 0
147 2 1.7188646962708262e+01 7.6629735985055918e+00 6.9564269852480920e-01 0 0 0
148 1 1.1170950848261898e+01 6.9208691318599476e+00 7.7826271271432859e+00 0 0 0
149 2 1.1296302786732433e+01 6.1314571723646711e+00 8.3269595534117471e+00 0 0 0
150 2 1.1404550108907983e+01 7.5435166631635644e+00 8.4612685357265107e+00 0 0 0
209 2 3.9188450695883388e+00 1.0822302066149456e+01 7.3057971003361999e+00 0 0 0
84 2 3.2056039886742611e+00 6.8993799348032718e+00 6.1088262709701480e-01 0 0 0
153 2 6.3590630182526571e+00 1.4473870676786649e+00 8.7846043009810515e+00 0 0 0
217 1 6.7783202560203852e+00 1.0875593808226085e+01 6.3883570615206358e+00 0 0 0
155 2 1.2889561692099349e+01 8.6499797716907179e-01 1.0564534901907043e+00 0 0 0
835 1 1.2318077539549369e+01 8.7655430784830468e+00 9.7146462405434963e+00 0 0 0
157 1 1.4155565593562274e+01 5.1684434760549332e+00 4.7491992347678105e+00 0 0 0
158 2 1.4465903082271387e+01 5.7710475926484612e+00 4.0648577295929051e+00 0 0 0
159 2 1.4036933198903720e+01 5.7092617429561114e+00 5.5643974980857172e+00 0 0 0
160 1 9.8204428178239560e+00 2.4154987561800261e+00 4.8210914306477459e+00 0 0 0
161 2 1.0431139066659073e+01 3.0332536048135674e+00 5.2104735511068565e+00 0 0 0
162 2 1.0315929344273322e+01 2.0848045325379565e+00 4.0320423402574121e+00 0 0 0
156 2 1.1799602719060792e+01 6.2111955832997157e-01 2.0766982541788197e+00 0 0 0
99 2 1.3391906602106930e+01 4.5411555712355716e+00 9.3809501100556076e+00 0 0 0
187 1 8.8797389217406753e-01 1.0342232875937427e+01 4.5515249057958507e-01 0 0 0
169 1 6.6350074965730963e+00 8.6051165340885181e+00 4.8836296169189026e+00 0 0 0
170 2 7.3097351238271706e+00 7.9927628502526886e+00 5.2650572302847367e+00 0 0 0
171 2 6.7962798894672964e+00 9.4846986538642604e+00 5.3148806157828759e+00 0 0 0
172 1 3.8425923693809603e+00 8.4667184984031305e+00 5.2775119602494494e+00 0 0 0
173 2 3.5651223864992700e+00 9.1634929442047177e+00 4.6697229477182258e+00 0 0 0
174 2 4.7589385335462140e+00 8.3696505262726131e+00 5.0199369939425473e+00 0 0 0
248 2 7.0147903896236006e+00 8.5625809472408267e+00 6.3428919341640777e-01 0 0 0
521 2 2.2099175884712294e+00 5.7255350680322303e+00 9.0617973282311333e+00 0 0 0
668 2 1.2688928358499771e+01 2.0259754070336262e+00 9.1495091817482734e+00 0 0 0
192 2 7.8003089505578860e-01 9.5598157645995787e+00 8.5327838285175144e+00 0 0 0
199 1 9.7255771279070535e-01 8.9584964008101426e+00 2.7675362475516674e+00 0 0 0
200 2 7.3597354521495029e-01 9.5538351314837584e+00 2.0677907477039725e+00 0 0 0
201 2 4.9837689747852931e-01 8.1749517891282899e+00 2.3841586395013539e+00 0 0 0
202 1 5.1486125736010901e-01 8.6610813545765524e+00 7.2596899915822135e+00 0 0 0
203 2 -4.5323042460749874e-01 8.5466584503197254e+00 7.5315520523611585e+00 0 0 0
204 2 6.3480145383371855e-01 9.1048598034543371e+00 6.3972355574701103e+00 0 0 0
205 1 7.1226903622522517e+00 1.0130869643945278e+01 2.6587670587463745e+00 0 0 0
206 2 7.0039772557941262e+00 9.4467235497424795e+00 3.3320537937212422e+00 0 0 0
207 2 6.5781919503713890e+00 9.9033305975454926e+00 1.8740629948559351e+00 0 0 0
208 1 4.5012186454276844e+00 1.0077974057807459e+01 7.3745457002897759e+00 0 0 0
311 2 1.0751459420598140e+01 1.1253376886043057e+01 5.6280890730829878e+00 0 0 0
210 2 4.0529021057358978e+00 9.3640562198422757e+00 6.8895461601617303e+00 0 0 0
304 1 1.3124969094429742e+01 1.0877566948028838e+01 3.2447319862798851e+00 0 0 0
151 1 6.6242004306241640e+00 5.6736909634753152e-01 8.5619355781388222e+00 0 0 0
608 2 6.4077127576060651e+00 3.8495025180594364e+00 9.4662540934161736e+00 0 0 0
753 2 4.3314498840055533e+00 9.4740177808091559e+00 9.1578643876648709e+00 0 0 0
83 2 2.1894666936925229e+00 5.7393709403954922e+00 1.0659492250615210e+00 0 0 0
235 1 -2.0452773278164829e+00 8.0883048077773090e+00 8.3237458825591037e+00 0 0 0
236 2 -2.3702843437059951e+00 8.9120607490529498e+00 8.7031043852818168e+00 0 0 0
238 1 3.5148842068653110e+00 8.4677078078923955e+00 1.9367324128689556e+00 0 0 0
239 2 2.6445952759193587e+00 8.5981163401344194e+00 2.3124692253565753e+00 0 0 0
240 2 3.5552970755224269e+00 9.1771381637879141e+00 1.3178475893162946e+00 0 0 0
244 1 1.0382772003814242e+00 1.0079844524508461e+01 5.2539660184443093e+00 0 0 0
245 2 1.2548978026106079e+00 9.6850502965374332e+00 4.3539577879252729e+00 0 0 0
246 2 1.7179801099033065e+00 1.0754381782369780e+01 5.4060132591681489e+00 0 0 0
20 2 3.6746715562254811e-01 3.2260413717296279e+00 3.1674375904394536e-01 0 0 0
671 2 8.2552151106234621e+00 5.4996453787712865e+00 9.1949554309309391e+00 0 0 0
253 1 1.5872994363153380e+01 8.8780852109856117e+00 5.2020301240156801e+00 0 0 0
255 2 1.5612048522161290e+01 9.1188633097452136e+00 4.2947363618345307e+00 0 0 0
256 1 1.3101241523921027e+01 8.9144162621044973e+00 5.1436105936194538e+00 0 0 0
257 2 1.4058031116178437e+01 8.7524202278687362e+00 5.2073854016644043e+00 0 0 0
258 2 1.2995083470903621e+01 9.7168952752921207e+00 4.6329330398801156e+00 0 0 0
165 2 1.6451293574975011e+01 5.6570389313754676e-01 6.1232528532252983e-01 0 0 0
272 2 1.0245727211509530e+01 1.0055631580282196e+01 9.9450018012279384e-01 0 0 0
237 2 1.5198839784809879e+01 7.7168731129043948e+00 7.7032943993666620e+00 0 0 0
276 2 9.4629865776506321e+00 9.8247216851555663e+00 8.7769708886474707e+00 0 0 0
283 1 1.0595251257554974e+01 8.8362623435542389e+00 2.1256668690659932e+00 0 0 0
284 2 1.0554609899052803e+01 9.1887733550699142e+00 3.0418295026828077e+00 0 0 0
285 2 9.8112869820562114e+00 8.3083814323615215e+00 2.1225019378441186e+00 0 0 0
286 1 9.0709662201521262e+00 8.6348781275731721e+00 7.1199555011153093e+00 0 0 0
287 2 9.6650082069183139e+00 7.9064382760821541e+00 7.3481454345970212e+00 0 0 0
288 2 8.2282488263808826e+00 8.2869130615993889e+00 7.4906621781832330e+00 0 0 0
289 1 1.5619753882530912e+01 1.0066762768945480e+01 2.4790810621868373e+00 0 0 0
167 2 1.1358081173670787e+01 5.4560786446944238e+00 7.7179564156811753e-01 0 0 0
291 2 1.5785591240331215e+01 9.6940753254605205e+00 1.5432798857783783e+00 0 0 0
292 1 1.3403959015243222e+01 1.0457265353077027e+01 7.2857270240677696e+00 0 0 0
86 2 1.6167106216705747e+01 3.6584914947961988e-01 4.6800048886232366e+00 0 0 0
294 2 1.3181491244708415e+01 9.6719378778902332e+00 6.7364727975702143e+00 0 0 0
189 2 1.8606436822935579e+00 1.0656602362220148e+01 4.6802762144979321e-01 0 0 0
219 2 6.0984110107891443e+00 1.0455221400819571e+01 6.9455342316678754e+00 0 0 0
224 2 1.5893597571079443e-03 1.1205060218288077e+01 4.2049285909145526e+00 0 0 0
117 2 9.8209140581240746e+00 6.3685571385540141e-01 2.3514932361066276e+00 0 0 0
319 1 6.6964013179062523e+00 8.1338239358934068e+00 8.4135986503508846e+00 0 0 0
320 2 6.7864192228387870e+00 9.0476151958490689e+00 8.7859697210814502e+00 0 0 0
321 2 7.0317308182551841e+00 7.5350333490279757e+00 9.0633066456011502e+00 0 0 0
322 1 1.3132755221502793e+01 7.9669760552122515e+00 1.7715885447123834e+00 0 0 0
323 2 1.2355772900610004e+01 8.1577426136878586e+00 2.2816309866770568e+00 0 0 0
324 2 1.2798432882282007e+01 7.2573076888657893e+00 1.1692166957196335e+00 0 0 0
328 1 9.8308012902675994e+00 9.9533508406543145e+00 4.9522264411223356e+00 0 0 0
329 2 9.3201342935233171e+00 9.5743123135798900e+00 5.6638214375943408e+00 0 0 0
330 2 9.2810097364846609e+00 1.0406808674883615e+01 4.2922644076947130e+00 0 0 0
154 1 1.2528421488765611e+01 1.4174701733900177e-01 1.5804311842640555e+00 0 0 0
135 2 1.5958170868843188e+01 2.6159457641670705e+00 5.8823789652284928e+00 0 0 0
103 1 1.0124460469347333e+01 2.8731163347075062e+00 3.9238571440286518e-01 0 0 0
145 1 1.7568668919964324e+01 7.0762011748631055e+00 1.3724646943730647e+00 0 0 0
133 1 1.5639479608246049e+01 3.4096273933225580e+00 6.2876611607478550e+00 0 0 0
836 2 1.2699353424771756e+01 9.4634819808630262e+00 9.1553959772892473e+00 0 0 0
399 2 8.1266617866749336e+00 3.1846132989981679e-01 8.5248493668262326e-01 0 0 0
35 2 -4.9118166603955360e-01 7.3065957435420670e-01 7.3906744377786877e+00 0 0 0
305 2 1.2336697981108628e+01 1.1222850785785733e+01 2.8075636331612359e+00 0 0 0
585 2 3.8339147565555054e+00 2.0375735827114068e+00 8.8893316418095178e+00 0 0 0
19 1 9.9440056929595855e-01 2.5014149649045074e+00 4.5485734987243748e-01 0 0 0
302 2 1.5038991583111102e+01 1.1084379109307953e+01 7.0998657105356484e+00 0 0 0
301 1 1.5808610798361494e+01 1.1248045328357081e+01 6.4722813302457176e+00 0 0 0
24 2 -2.6816476266382949e-02 3.0031389090822680e+00 9.5648187640803908e+00 0 0 0
780 2 1.3146066387669229e+01 9.2695526121676473e+00 7.8733457313723920e-01 0 0 0
152 2 7.4977675625413944e+00 6.5590912750215136e-01 8.0255816083243090e+00 0 0 0
587 2 -1.2208738240144925e+00 6.6689814392066644e+00 9.5222934278228557e+00 0 0 0
102 2 1.4058674315124644e+01 3.9088460657135200e+00 5.1165518690169609e-01 0 0 0
97 1 1.4338425020107920e+01 4.8413422426550090e+00 9.3522836386494941e+00 0 0 0
106 1 9.6093766107092282e+00 2.7656239171530648e+00 9.3910062852110467e+00 0 0 0
528 2 2.7493192096766452e+00 2.7131129203962332e+00 5.2786025507552581e-01 0 0 0
23 2 1.4784010766677378e+00 3.3385849682069737e+00 9.6058124710517951e+00 0 0 0
218 2 7.4654044481227739e+00 1.1288726958392399e+01 6.9202077013895940e+00 0 0 0
190 1 8.3353367994973571e-01 1.0056148097447611e+01 9.4375139632610718e+00 0 0 0
604 1 1.1589732599068885e+01 4.6920336076133120e+00 9.3968186857418736e+00 0 0 0
607 1 6.9828218482640132e+00 3.0814382631717270e+00 9.4452338712104620e+00 0 0 0
108 2 8.7612227438219143e+00 3.2643165540017458e+00 9.3887787099182525e+00 0 0 0
100 1 1.4509955534533097e+01 4.7532888891323140e+00 3.8874476306480377e-01 0 0 0
293 2 1.2825508491367970e+01 1.1221940508153345e+01 7.0369740474726568e+00 0 0 0
693 2 -9.5962314011997796e-01 1.0111600055069717e+01 9.7302600694347703e+00 0 0 0
17 2 4.8507463363822048e+00 4.5089316792481027e+00 5.4139539341846799e-01 0 0 0
520 1 2.2361894429918032e+00 4.9282578780623600e+00 9.6543086378599376e+00 0 0 0
507 2 3.3896148899276639e+00 1.7800295071237537e-01 1.3976862702874959e+01 0 0 0
751 1 4.0590444434624988e+00 8.9206490093639044e+00 9.8844049710920654e+00 0 0 0
828 2 9.1926568490083529e+00 7.6873100447799949e+00 1.1794119653021278e+01 0 0 0
833 2 6.7994837763929956e+00 9.0914496466547909e+00 1.3690136235055329e+01 0 0 0
805 1 1.2349245738534320e+01 1.0968883356493825e+01 1.6233823556095189e+01 0 0 0
724 1 5.7587111164433047e-01 1.0761111934640580e+01 1.2938643872303615e+01 0 0 0
593 2 9.0933867343070851e+00 4.2057842757299113e-01 1.4376074918289735e+01 0 0 0
776 2 7.7647770486852075e+00 1.0617424009298590e+01 1.0071942597885711e+01 0 0 0
672 2 8.6647427388235538e+00 6.4738124741565866e+00 1.0411781426748140e+01 0 0 0
509 2 -2.1242210735309719e-01 2.2336910922265157e-01 1.4348395386555959e+01 0 0 0
723 2 4.0343013755310251e+00 1.1136290099460842e+01 1.6566078481177506e+01 0 0 0
188 2 -5.7253106172347961e+00 9.6514369968054670e+00 1.8864405258716250e+01 0 0 0
658 1 9.5609232918333529e+00 6.7015523784512132e-01 1.1124364374854862e+01 0 0 0
247 1 -2.0231194997425295e-01 9.1046506086810393e+00 1.9199525601839206e+01 0 0 -1
163 1 9.2502113619788293e+00 1.2253812026011888e+00 1.9169154438074791e+01 0 0 -1
749 2 -1.7106215177076685e+00 1.0708703336030903e+01 1.4712324912008752e+01 0 0 0
778 1 6.5677919256197415e+00 1.0029792490357499e+01 1.9174073006503622e+01 0 0 0
249 2 4.5215227018180659e-01 9.3920162523696291e+00 1.8486002767855439e+01 0 0 0
505 1 2.7815477529141281e+00 9.1555106568765199e-01 1.4009084576882406e+01 0 0 0
506 2 3.0454026553719959e+00 1.5096352484347186e+00 1.4674069067627169e+01 0 0 0
659 2 1.0323358192853835e+01 2.9525483279205156e-01 1.1618228221240802e+01 0 1 0
508 1 2.0843690538958981e-01 1.1431762015016105e+00 1.4542527000357452e+01 0 0 0
775 1 6.8918439948815653e+00 1.0291740760480764e+01 1.0187260848795143e+01 0 0 0
510 2 1.2099591808242627e+00 1.0727638941576600e+00 1.4312870132296879e+01 0 0 0
511 1 -4.0626334354568989e+00 6.5392807975027232e+00 1.4512418276207907e+01 0 0 0
512 2 -4.0808967738463870e+00 5.7777365181820315e+00 1.3853369525142956e+01 0 0 0
513 2 -4.1698211638693836e+00 5.9922089133315364e+00 1.5245318222386045e+01 0 0 0
514 1 -1.2140219700053305e+00 6.8483171031912065e+00 1.4229168575397336e+01 0 0 0
515 2 -1.2300987331499362e+00 6.0123418889883258e+00 1.4664075787469644e+01 0 0 0
516 2 -2.1238696033786066e+00 7.1810839279425753e+00 1.4412075918416777e+01 0 0 0
98 2 1.4215846539616088e+01 5.6137100348109037e+00 9.9506193209485296e+00 0 0 0
519 2 1.6461175609858385e+00 5.5708915939608135e+00 1.8215825827951456e+01 0 0 0
827 2 1.0670883063264140e+01 7.1940659631316741e+00 1.1502672542270902e+01 0 0 0
522 2 1.9347198314639904e+00 5.1825613312929733e+00 1.0507788384183135e+01 0 0 0
826 1 9.8471284630159950e+00 7.4976125834042389e+00 1.1103403735148524e+01 0 0 0
743 2 4.7315092358274091e-01 7.1867350916064812e+00 1.0787055663707802e+01 0 0 0
525 2 -1.8704014431243770e+00 2.1811254909432587e+00 1.0809052612664335e+01 0 0 0
903 2 4.7521168869322929e+00 4.7593828114136794e-01 1.0378880020226260e+01 0 0 0
527 2 -2.9030003287479897e+00 2.4394175301544934e+00 1.8372835121374465e+01 0 0 0
529 1 1.2798316648032273e+00 6.7124906125068380e+00 1.6797048036555132e+01 0 0 0
530 2 1.2782194926888515e+00 6.1032893873081377e+00 1.6013722048268875e+01 0 0 0
531 2 3.5978291482564728e-01 6.9973819235958317e+00 1.6926129260535646e+01 0 0 0
532 1 2.5561810160039675e+00 5.9801356555847542e+00 1.2324284928474668e+01 0 0 0
533 2 3.5084645550599038e+00 6.0204355041990079e+00 1.2278886844585196e+01 0 0 0
534 2 2.3327355590464531e+00 5.8328049962275648e+00 1.3256245762069335e+01 0 0 0
535 1 -1.6803660630713986e+00 1.1843340942607150e+00 1.1981242904389223e+01 0 0 0
601 1 1.0549576216824741e+01 4.6947257542565497e+00 1.9208834011388955e+01 0 0 0
732 2 -2.5597321207186763e-01 1.1155272668025821e+01 1.6511607490244895e+01 0 0 0
538 1 -3.2257227626032865e+00 1.3813100230134414e+00 1.7029559288998254e+01 0 0 0
539 2 -4.1886872611951125e+00 1.0900399040605384e+00 1.7129481439119093e+01 0 0 0
540 2 -3.1315188252735275e+00 1.6268594110600438e+00 1.6098737127986549e+01 0 0 0
541 1 2.9497418361156447e+00 2.8229731240640676e+00 1.1935299001932520e+01 0 0 0
542 2 2.8878510576557668e+00 2.1240866671581986e+00 1.2616539624306203e+01 0 0 0
543 2 3.2514446523165250e+00 2.3799483245532347e+00 1.1052908996137830e+01 0 0 0
544 1 4.9166830828060260e-01 2.6625895519977365e+00 1.6659350040223863e+01 0 0 0
545 2 3.6335453142478524e-01 2.1737576030629495e+00 1.7465142006681557e+01 0 0 0
546 2 2.6313886766763162e-01 2.0279814909587435e+00 1.6000062503291858e+01 0 0 0
547 1 -3.4882940629817480e+00 5.0815372201848668e+00 1.6902575134674148e+01 0 0 0
548 2 -4.1409755001293442e+00 4.3378707137619319e+00 1.6750649052376492e+01 0 0 0
549 2 -3.5793908848887472e+00 5.3946385258031464e+00 1.7834240991414166e+01 0 0 0
550 1 -1.6911623666501643e+00 4.8098219601545820e+00 1.2142561528697506e+01 0 0 0
551 2 -1.0210033153052946e+00 4.0909545087569441e+00 1.2228589844364368e+01 0 0 0
552 2 -1.5888836077703723e+00 5.4271241336703895e+00 1.2866012910007214e+01 0 0 0
553 1 3.1569455391544849e+00 2.8299672428149512e+00 1.5816290356288237e+01 0 0 0
554 2 2.3200322190180360e+00 2.8170480344907118e+00 1.6396421082995360e+01 0 0 0
555 2 3.8183703858548048e+00 3.3159350653487794e+00 1.6332222367986262e+01 0 0 0
556 1 4.3620114553900979e-01 3.3807613334618987e+00 1.3024845087050064e+01 0 0 0
557 2 1.1837230089116124e+00 3.2492728936824142e+00 1.2347814417283287e+01 0 0 0
558 2 3.2293690297173949e-01 2.5348030163646373e+00 1.3517459336697643e+01 0 0 0
559 1 -4.0476500276448721e+00 4.2684699417759182e+00 1.3055251397747131e+01 0 0 0
560 2 -3.3771083903333499e+00 4.4831675876498371e+00 1.2355152951675866e+01 0 0 0
561 2 -3.5952684818531564e+00 3.7125537820772494e+00 1.3754958968123555e+01 0 0 0
562 1 -1.2483865529620166e+00 4.6020060655111683e+00 1.5731755543782148e+01 0 0 0
563 2 -6.4143026321505925e-01 3.9526903955709427e+00 1.6136386935046112e+01 0 0 0
564 2 -2.0201135058422572e+00 4.8677363408315406e+00 1.6304410514031972e+01 0 0 0
565 1 5.4109549445097542e+00 7.1213458818678523e+00 1.1647360647590416e+01 0 0 0
566 2 4.9321320014714445e+00 7.8336664314966393e+00 1.1166516696645974e+01 0 0 0
567 2 5.3731310625396880e+00 6.5236583443238008e+00 1.0926409980814462e+01 0 0 0
568 1 -1.3787018235300232e+00 7.2499781620689925e+00 1.7703840781238210e+01 0 0 0
569 2 -1.3797348546077393e+00 6.3676757128794650e+00 1.8208543946962337e+01 0 0 0
570 2 -1.0579691026070144e+00 7.8397050453241839e+00 1.8424161989374959e+01 0 0 0
812 2 4.2123110840854530e+00 1.1053190090213423e+01 1.2724143625214557e+01 0 0 0
572 2 -6.0313499991259754e+00 1.1371643522401500e+00 1.8392057170281845e+01 0 0 0
105 2 3.2136587639732896e+00 2.0998508757182832e+00 1.8928443527763399e+01 0 0 0
537 2 -1.0004426980506103e+00 5.0950292217196158e-01 1.1928022323585445e+01 0 0 0
576 2 6.6561710633405857e-01 1.4510570633944857e+00 1.0669841754184189e+01 0 0 0
577 1 1.7979921904626215e+00 5.1048029041023169e+00 1.4767257844871780e+01 0 0 0
578 2 1.2103509842711597e+00 4.5472506274081628e+00 1.4298410682800263e+01 0 0 0
579 2 2.4758322595995192e+00 4.3934202750154014e+00 1.5092551905010870e+01 0 0 0
580 1 -2.6016461659348455e+00 2.6738050456195390e+00 1.4610597789410136e+01 0 0 0
581 2 -2.3041531668603921e+00 2.1728680573434493e+00 1.3852080997198474e+01 0 0 0
582 2 -1.8524439319592889e+00 3.2394019081292154e+00 1.4842808028685246e+01 0 0 0
656 2 2.3835303964289123e+00 2.2649031454494478e-01 1.7371435198222610e+01 0 1 0
610 1 6.2159995690994005e+00 2.3706135063183047e+00 1.9045987893157541e+01 0 0 0
589 1 1.2322462577074701e+01 1.1423112648230194e+00 1.4385312474513196e+01 0 0 0
590 2 1.1414172367449449e+01 1.0020598397200042e+00 1.4739514571961497e+01 0 0 0
591 2 1.2589699642378491e+01 1.9998215020061965e+00 1.4816650372854475e+01 0 0 0
592 1 9.6956446852974931e+00 1.1481209233348413e+00 1.4519262080950400e+01 0 0 0
816 2 7.2012086027430682e+00 1.0906316526029087e+01 1.5371433671394096e+01 0 0 0
594 2 9.4272369118645223e+00 1.9585717003985681e+00 1.4031595744842820e+01 0 0 0
595 1 5.0049649647749188e+00 6.3860254802650678e+00 1.4921177449865899e+01 0 0 0
596 2 4.9914935470319302e+00 6.1042307314360471e+00 1.5831080179180878e+01 0 0 0
597 2 4.8351864378197416e+00 5.5979972891580170e+00 1.4373561873384558e+01 0 0 0
598 1 7.8365372759012430e+00 6.1534205930338617e+00 1.4605509632150111e+01 0 0 0
599 2 6.9602954237554506e+00 6.2986730322223563e+00 1.4931271677743899e+01 0 0 0
600 2 7.7291548601144378e+00 5.7456762262610015e+00 1.3736379811161878e+01 0 0 0
740 2 -5.0800311571028898e+00 7.2786128045128624e+00 1.8533082554217778e+01 0 0 0
603 2 1.0669174318410017e+01 4.9988062162364653e+00 1.8180828120151606e+01 0 0 0
752 2 3.4821665213787174e+00 9.3988250187519480e+00 1.0524362959147478e+01 0 0 0
605 2 1.1481778623504427e+01 4.9729574251270421e+00 1.0315870311219809e+01 0 0 0
825 2 3.6553378786767130e+00 9.0291445932824779e+00 1.8459239980014271e+01 0 0 0
809 2 1.0288678561314656e+01 1.0669308783481817e+01 1.2722663935260657e+01 0 0 0
620 2 6.4420709088051265e+00 6.5901276005298870e-01 1.1636893861454286e+01 0 0 0
609 2 6.9929120945819063e+00 2.6210300185574589e+00 1.0324205154418921e+01 0 0 0