LAMMPS data file via write_data, version 15 Apr 2020, timestep = 1150000

1920 atoms
2 atom types

-3.0486615698599451e-02 2.4754891615699805e+01 xlo xhi
4.8346361884320288e-02 2.4676058638106522e+01 ylo yhi
-2.8985749438557917e-02 2.2821357749445355e+01 zlo zhi
1.0996739299320099e-01 -6.7425345253984248e-02 -3.1509608528889489e-02 xy xz yz

Masses

1 16
2 2

Atoms # atomic

1 1 4.4521722722135522e+00 1.7140789930744096e+00 4.0854350348695565e+00 0 0 0
2 2 5.0553415501330150e+00 1.4519581847979677e+00 3.3063446880345078e+00 0 0 0
3 2 4.5464278538831078e+00 9.4510735213033981e-01 4.7002001708887500e+00 0 0 0
4 1 2.8249132675230593e+00 1.5930383791793767e+00 1.8898916080321466e+00 0 0 0
654 2 7.7757312551813289e+00 1.1659484499839587e+01 6.4064424232603017e+00 0 0 0
6 2 3.1495140765381353e+00 1.6941285632614695e+00 2.7772079057250516e+00 0 0 0
7 1 6.0613464950733080e+00 4.6177694754188616e+00 3.5370729316320890e+00 0 0 0
8 2 5.0537519879774173e+00 4.6875437381946430e+00 3.5449428883517800e+00 0 0 0
9 2 6.4802947783347129e+00 3.8009798534834798e+00 3.8759261939627625e+00 0 0 0
10 1 3.3524261255284702e+00 4.5289197675681407e+00 3.5133623001002379e+00 0 0 0
11 2 2.8675897571746982e+00 3.7805423678900594e+00 3.9027102572556207e+00 0 0 0
12 2 3.0449955296720348e+00 5.2802888043184044e+00 4.0478359013364082e+00 0 0 0
13 1 1.1239221329990050e+00 3.1114018116197455e+00 4.8046047163685079e+00 0 0 0
14 2 1.2713163759682495e+00 2.1250886914491276e+00 4.8309508498544966e+00 0 0 0
15 2 1.0642834896530975e+00 3.4827735126886177e+00 5.7896777580349950e+00 0 0 0
1658 2 4.5722967631267103e-01 1.0543575119909182e+01 2.0089751093860919e+01 0 0 0
17 2 1.1083563323316175e+00 1.9754297660155928e+00 1.8257882704764161e+00 0 0 0
19 1 4.7212412332290521e+00 3.0294193592799750e+00 6.1479329983430087e-01 0 0 0
20 2 3.8526570863388159e+00 2.6185446119356168e+00 8.5013646901454476e-01 0 0 0
21 2 4.6718922624916113e+00 3.9941832370270207e+00 7.9855966003949064e-01 0 0 0
22 1 1.6078340420951118e+00 4.7233710267982776e+00 1.2071394471414945e+00 0 0 0
23 2 2.4926581707278768e+00 4.5847648030179124e+00 1.6816220341253034e+00 0 0 0
24 2 1.5717913555563154e+00 3.9198220064753628e+00 6.3123053384280814e-01 0 0 0
25 1 4.7660313491741100e+00 5.8185302562676258e+00 7.3223373464512276e-01 0 0 0
26 2 3.9528184563298665e+00 6.1716964861862049e+00 1.1872042630013007e+00 0 0 0
27 2 4.6119290993939970e+00 6.3350166641491725e+00 2.2714782181485418e+01 0 0 0
1827 2 3.8411619947843390e+00 2.7648575752566895e-01 1.8076077881877126e+01 0 0 0
31 1 1.0540038361425239e+01 1.5750579092495292e+00 4.2424129622789923e+00 0 0 0
32 2 1.0516408338211928e+01 2.4083644672876163e+00 4.6822253274591441e+00 0 0 0
1018 1 7.5863059757827767e+00 2.1368513749110668e-01 1.6521231688868149e+01 0 0 0
34 1 8.9440680358205249e+00 1.5503659927554407e+00 1.9751820178866835e+00 0 0 0
1518 2 1.2008288111480011e+01 2.3515535392489113e+00 1.9004429988694859e+01 0 0 0
36 2 9.5217513294385032e+00 2.2626292230337399e+00 1.5671354287279118e+00 0 0 0
218 2 1.1448972908891630e-01 1.0846487990132729e+01 2.6795384672167812e+00 0 0 0
39 2 1.1220752071450484e+01 4.7951772540444946e+00 3.7030516179862478e+00 0 0 0
40 1 9.4375194171357535e+00 4.9621820510949641e+00 3.5984927537039790e+00 0 0 0
41 2 9.2108892198839367e+00 4.9518621531468225e+00 2.6636602547693387e+00 0 0 0
42 2 9.1659768063160652e+00 4.0136332502121252e+00 3.7476128796233366e+00 0 0 0
43 1 7.7874366427261368e+00 3.0234368522718902e+00 4.8391666349136475e+00 0 0 0
44 2 7.7138960827146059e+00 3.3638283247609571e+00 5.7226040155681970e+00 0 0 0
45 2 7.8044239126662251e+00 2.0345939178449886e+00 4.9024225757967965e+00 0 0 0
46 1 6.2491969520311788e+00 1.4341786544967097e+00 2.1448895283788780e+00 0 0 0
47 2 7.2046263281555492e+00 1.5137791559690648e+00 2.0493425518989881e+00 0 0 0
48 2 5.8344332272490176e+00 2.0334160547311249e+00 1.5279864623282930e+00 0 0 0
49 1 1.0749120458503542e+01 3.2449554371344846e+00 8.4498383134323229e-01 0 0 0
50 2 1.1592066576030826e+01 2.9025936142649114e+00 1.2297061512522434e+00 0 0 0
51 2 1.0719088350631326e+01 2.8635553310638659e+00 2.2816438671469790e+01 0 0 0
52 1 8.1116700996873217e+00 4.6555496127013631e+00 1.2421790364611891e+00 0 0 0
53 2 8.0308850195078350e+00 3.8561437748557874e+00 6.6455221016453891e-01 0 0 0
54 2 7.3433312790427099e+00 4.5979387133629332e+00 1.8608356147369172e+00 0 0 0
55 1 1.0873815124262904e+01 6.0489989990292727e+00 6.3059404858467138e-01 0 0 0
56 2 1.0311040218501645e+01 6.5491926347979703e+00 1.2898475234936850e+00 0 0 0
57 2 1.0628440122495805e+01 5.1651650369533169e+00 5.9841258527317187e-01 0 0 0
28 1 1.3355959273604781e+00 4.3359586405803929e-01 4.7580832412188050e+00 0 0 0
997 1 1.2166906978024212e+01 4.6215670629975154e+00 1.5362657418718490e+01 0 0 0
1608 2 7.1438178641885859e+00 7.7526820741624407e+00 1.9305269136774964e+01 0 0 0
531 2 1.0730037488021006e+01 4.1884535000154290e+00 6.3788682656951972e+00 0 0 0
121 1 4.7801956089098034e+00 7.9212675355049207e+00 4.3145160092285062e+00 0 0 0
122 2 5.4273522148499298e+00 7.7322541738663144e+00 3.5347381709415160e+00 0 0 0
123 2 3.8637340554819892e+00 7.8171376612669139e+00 3.8979229440027532e+00 0 0 0
124 1 3.0786941945455295e+00 7.5328996552556395e+00 2.1701345962786260e+00 0 0 0
125 2 3.5653576767823232e+00 8.1637299441297788e+00 1.5893136734734086e+00 0 0 0
126 2 2.1351632639366254e+00 7.7246812438986243e+00 2.1856313077120921e+00 0 0 0
127 1 6.0972174676132571e+00 1.0659160076387659e+01 3.6326444157509501e+00 0 0 0
128 2 6.4705515813884791e+00 9.8130448994516613e+00 4.0519981060317036e+00 0 0 0
656 2 1.1619388923811318e+01 1.2306697313830066e+01 6.4253344176529765e+00 0 0 0
130 1 3.4745566054874173e+00 1.0556994996740539e+01 3.6335796976886283e+00 0 0 0
131 2 3.0643933654852580e+00 9.8385890601214268e+00 4.1413653370583354e+00 0 0 0
132 2 3.0146642934228929e+00 1.0575977465042719e+01 2.7345744767574978e+00 0 0 0
133 1 1.8212935895857791e+00 9.0477859420596349e+00 5.0025678272822827e+00 0 0 0
134 2 1.6661941188337477e+00 9.5636982211999939e+00 5.8190928406009981e+00 0 0 0
135 2 1.0687944324034859e+00 9.3762518316310697e+00 4.5229432992008931e+00 0 0 0
1376 2 1.1481269970061158e+01 2.0942464450857134e-01 1.2623474081781255e+01 0 0 0
139 1 4.7035052192649243e+00 8.9743639472325185e+00 8.2649538071176043e-01 0 0 0
140 2 4.6924620866734763e+00 9.9488997233490153e+00 7.3697972731053241e-01 0 0 0
141 2 5.5998200681499339e+00 8.7969475282682055e+00 1.1716783915050955e+00 0 0 0
142 1 1.8601462877323933e+00 1.0649274791872525e+01 1.3227134771461271e+00 0 0 0
143 2 1.7157165735640352e+00 9.8108065236788331e+00 7.8133195572688696e-01 0 0 0
144 2 2.1372456713554526e+00 1.1382473313997739e+01 7.2678772802852076e-01 0 0 0
517 1 1.2209739000961918e+01 4.7041343609101167e+00 9.3133902813838549e+00 0 0 0
148 1 2.0351968910212745e+00 6.3954905780455977e+00 4.8779376635798748e+00 0 0 0
1260 2 7.1530141776114169e+00 1.2084385107390162e+01 1.6258004241811658e+01 0 0 0
150 2 1.9972225023896093e+00 7.3528396652060914e+00 5.0618194682370570e+00 0 0 0
151 1 1.0797518939746766e+01 7.3359702619872591e+00 4.2769388508953989e+00 0 0 0
129 2 5.1352705373304994e+00 1.0582869180608744e+01 3.6990723238402814e+00 0 0 0
153 2 1.0828319193565919e+01 8.0403909072692983e+00 4.9456655191747831e+00 0 0 0
154 1 9.2349543671393874e+00 7.7225389724886266e+00 2.0985378661059086e+00 0 0 0
155 2 9.7131997807071180e+00 8.3787683543253291e+00 1.6342282202294431e+00 0 0 0
156 2 9.6974742218471377e+00 7.6609131784748881e+00 2.9663604223276048e+00 0 0 0
1117 1 1.2021431329166699e+01 1.0638319250047696e+01 1.4784545701094791e+01 0 0 0
158 2 1.1191570175697725e+01 1.0762040502455550e+01 3.4887758680855394e+00 0 0 0
160 1 9.4341563514351847e+00 1.0687268147471345e+01 3.6432598862881957e+00 0 0 0
161 2 8.9760824965702071e+00 1.0540633271025353e+01 2.7838977992451319e+00 0 0 0
1346 2 3.5456315532111953e+00 2.8451847719507284e-01 1.2378260915983233e+01 0 0 0
163 1 7.6834032320724734e+00 8.9297343913658960e+00 5.1107213703021452e+00 0 0 0
164 2 7.6718706112216424e+00 7.9519955995628129e+00 5.0283896723821604e+00 0 0 0
165 2 8.3944639553917497e+00 9.1885411283208764e+00 4.5253917258294178e+00 0 0 0
166 1 6.6132594974727823e+00 7.4518841000899885e+00 2.3364036719883297e+00 0 0 0
167 2 6.2404929005186283e+00 6.6106134888863144e+00 2.0408565986031175e+00 0 0 0
168 2 7.5656269940965490e+00 7.2952487917208444e+00 2.3991602994029830e+00 0 0 0
169 1 1.0877559677467559e+01 9.3105209066233083e+00 4.7046541213302734e-01 0 0 0
170 2 1.0777851845618116e+01 1.0277477360458432e+01 3.9105024692846518e-01 0 0 0
171 2 1.1061531847994781e+01 8.8499265297950540e+00 2.2438586079452140e+01 0 0 0
172 1 7.6852122841315653e+00 1.0724018340080805e+01 1.4815887299332884e+00 0 0 0
173 2 6.8908085970108228e+00 1.0653869337800202e+01 1.9778177451841756e+00 0 0 0
174 2 7.7157454787970927e+00 9.9042449935491650e+00 9.2824459387373670e-01 0 0 0
1597 1 1.1951632210531718e+01 1.0881388552391778e+01 2.0543252289188722e+01 0 0 0
178 1 7.4764163610408767e+00 6.3234142413921273e+00 4.9900066299033172e+00 0 0 0
179 2 6.7265686205626816e+00 5.8765400682270865e+00 4.5317630523449788e+00 0 0 0
180 2 8.2643267368842963e+00 5.8616046335232612e+00 4.6023630271949276e+00 0 0 0
579 2 2.3288199061326398e-01 4.9174106847044383e+00 8.4328040779813414e+00 0 0 0
1739 2 7.2912670369453680e+00 1.2119418160314524e+01 2.1843352284627745e+01 0 0 0
138 2 4.0010177639149191e-01 7.0742378195005671e+00 1.5676990522131642e+00 1 0 0
1589 2 8.8887543513981671e-01 5.6834004126788988e+00 2.1062059241461942e+01 0 0 0
1619 2 7.6662159262856058e+00 6.0799876670437465e+00 1.1469807458123754e-01 0 0 1
495 2 7.4748187706392111e-01 3.5559171072159481e+00 1.0036520165544092e+01 0 0 0
1618 1 7.5368136414321434e+00 6.1655780540190417e+00 2.1985608469957707e+01 0 0 0
1539 2 1.2460140426274446e-01 3.5525728614748822e+00 2.1112347568425488e+01 0 0 0
496 1 -1.8886202725610444e-02 1.3534174679620887e+00 7.7158777248292392e+00 0 0 0
481 1 4.6865731219502669e+00 1.9000551109765835e+00 9.7747009469458970e+00 0 0 0
482 2 4.6079958982637281e+00 1.0714159109179864e+00 1.0233109463686667e+01 0 0 0
483 2 5.4804087475625094e+00 1.7240793752708619e+00 9.1815469854425320e+00 0 0 0
484 1 2.7284325485190664e+00 1.5781440554074129e+00 7.7484483771209067e+00 0 0 0
485 2 3.0986779664379531e+00 1.7766232574111298e+00 8.6120712482999160e+00 0 0 0
486 2 1.7571460807169677e+00 1.5234355971543887e+00 7.9237530418251341e+00 0 0 0
487 1 6.3193440887878758e+00 4.3479735054553705e+00 9.0082568992081793e+00 0 0 0
488 2 5.3424318732389668e+00 4.4173057291168032e+00 9.1747365437541841e+00 0 0 0
489 2 6.6280820077877145e+00 3.7181648035174635e+00 9.6747363531166943e+00 0 0 0
490 1 3.4004389917914688e+00 4.9396307058737783e+00 9.3773606861134624e+00 0 0 0
491 2 2.8848196715901979e+00 4.1838916175306666e+00 9.7033012217554280e+00 0 0 0
492 2 2.9076675095022151e+00 5.7136020359057609e+00 9.7631322825369065e+00 0 0 0
493 1 1.4589794701286187e+00 3.1863691417414537e+00 1.0552653093523771e+01 0 0 0
494 2 1.4847841817029896e+00 3.7984827185058267e+00 1.1350076650624912e+01 0 0 0
1605 2 6.7984090944993385e+00 9.5828243848039012e+00 2.1829895994148607e+01 0 0 0
1613 2 7.7152530666325951e+00 1.1474900262749994e+01 1.8257015117576056e+01 0 0 0
499 1 4.2697880320150796e+00 3.2070733327197019e+00 6.2749790087208961e+00 0 0 0
500 2 3.5389330587645205e+00 2.7323207519698531e+00 6.7076208636064711e+00 0 0 0
501 2 4.3498362147714085e+00 2.7965064182983141e+00 5.4373635145297587e+00 0 0 0
502 1 1.5184807010181658e+00 4.7128227038754478e+00 7.1245603486670337e+00 0 0 0
503 2 2.2041799575695045e+00 4.4748972347489513e+00 7.7951279001368610e+00 0 0 0
504 2 1.9235775917122349e+00 5.4015517275217126e+00 6.5539286841032167e+00 0 0 0
505 1 4.7545089605310409e+00 6.0206924172982053e+00 6.4918201202843697e+00 0 0 0
506 2 4.9161019918205646e+00 5.0719173146342351e+00 6.5154426873479796e+00 0 0 0
507 2 4.4704522566668343e+00 6.3214510798053007e+00 5.6064415914236818e+00 0 0 0
5 2 3.1204764334231774e+00 7.2406869038616828e-01 1.5395469818979997e+00 0 0 0
509 2 1.7773933112012787e+00 1.4720109803245913e+00 1.0695486652061323e+01 0 0 0
511 1 1.0714204102686248e+01 1.8346832634065606e+00 9.9639853852249782e+00 0 0 0
512 2 1.0730810602478547e+01 1.0973815339261155e+00 1.0555933175889097e+01 0 0 0
513 2 9.9917165282219624e+00 1.7975357674791592e+00 9.2879258962649303e+00 0 0 0
514 1 8.8374787281839922e+00 1.6837561760702586e+00 7.7974874206332387e+00 0 0 0
515 2 7.9370421998718186e+00 1.3721538212101050e+00 7.9667896029244165e+00 0 0 0
1571 2 3.0771889169435958e+00 1.1384572297559750e+01 2.1287694840213000e+01 0 0 0
1105 1 4.4571619940245206e+00 1.2078050688805126e+01 1.2170442935887499e+01 0 0 0
520 1 9.4937997064457402e+00 4.4648524464577619e+00 9.3126599385302615e+00 0 0 0
521 2 1.0418835919126824e+01 4.5209662108277335e+00 9.1339338924502620e+00 0 0 0
522 2 9.0822394871316305e+00 4.6389259190190213e+00 8.4328163417813187e+00 0 0 0
523 1 7.8097317817405507e+00 2.8936349400164634e+00 1.0702950092720345e+01 0 0 0
524 2 7.8851231868892793e+00 1.9569357822250966e+00 1.0914718194009223e+01 0 0 0
525 2 8.6579764487327306e+00 3.1657669856134447e+00 1.0294928319738492e+01 0 0 0
526 1 6.3058710870486028e+00 1.5605939681075345e+00 7.6655980892282951e+00 0 0 0
527 2 5.6826987772384978e+00 1.1377550261542393e+00 7.0246074210010603e+00 0 0 0
157 1 1.2144160824347624e+01 1.0986653791081432e+01 3.4759718826797443e+00 0 0 0
529 1 1.0613292202815247e+01 3.2322140590910271e+00 6.3693882340562702e+00 0 0 0
530 2 9.7371925891633211e+00 3.0329077178816215e+00 6.8099509196714845e+00 0 0 0
1468 1 1.4107403729007491e+00 3.0596588961263738e-01 2.2100824925359348e+01 0 0 0
532 1 7.8898004444782543e+00 4.6736337940411055e+00 7.0283965288240751e+00 0 0 0
533 2 7.6088113825097015e+00 5.3295999024918475e+00 6.3680925432565108e+00 0 0 0
534 2 7.1655576392385001e+00 4.5507856259586594e+00 7.8198621257577967e+00 0 0 0
535 1 1.0968682614594242e+01 5.9963564044929063e+00 6.7046019122155869e+00 0 0 0
536 2 1.0216258886067681e+01 6.4812635985387566e+00 7.0992835199568480e+00 0 0 0
750 2 2.2854604551012292e+00 1.2221681011321087e+01 1.0170854010053743e+01 0 0 0
1607 2 5.8148157743506452e+00 7.7266765528540686e+00 2.0222642425763269e+01 0 0 0
614 2 6.8893986133086216e-01 9.4674411645088021e+00 1.0579614282297083e+01 0 0 0
1472 2 1.1155094184771571e+01 1.3483683287470205e+00 2.0783251395266674e+01 0 0 0
99 2 4.3637109750712044e-01 4.2122638022744905e+00 4.0157082717782329e+00 0 0 0
1612 1 7.5813332919735954e+00 1.0631201950524053e+01 1.8731683353453644e+01 0 0 0
601 1 4.9145044205366624e+00 7.8740297589088755e+00 1.0053786677414303e+01 0 0 0
602 2 5.5736174569227712e+00 8.0236900893831518e+00 9.3127027588905555e+00 0 0 0
603 2 5.1408185915084577e+00 8.4820699140194513e+00 1.0727158630682053e+01 0 0 0
604 1 2.9367614869847301e+00 7.6092082587976089e+00 8.1199202668556474e+00 0 0 0
605 2 3.2096092141400514e+00 7.7491423414981817e+00 9.0329709654753714e+00 0 0 0
606 2 3.5041450897005846e+00 6.9583250379040695e+00 7.6420934557443161e+00 0 0 0
607 1 6.0524111667457632e+00 1.0945951694107301e+01 9.3443416094907210e+00 0 0 0
608 2 6.3205768888983087e+00 1.0981503204537256e+01 8.4262769191010101e+00 0 0 0
609 2 6.4807256406516496e+00 1.0163695014030772e+01 9.7710464590537320e+00 0 0 0
610 1 3.0727302399611034e+00 1.1097837037726439e+01 9.2272347837110615e+00 0 0 0
611 2 2.8312155581286298e+00 1.0926143539869706e+01 8.2854812844835415e+00 0 0 0
612 2 4.0966434875692395e+00 1.1132377038325023e+01 9.2784611140538704e+00 0 0 0
613 1 1.6165563482137024e+00 9.1916972456842014e+00 1.0742694877924599e+01 0 0 0
538 1 7.6537822587907707e+00 3.1365995076452080e-01 1.0931334240349129e+01 0 0 0
615 2 2.1789817107675291e+00 9.7008546563893123e+00 1.0121980707879835e+01 0 0 0
1092 2 2.6897117490715319e+00 1.1195608255860989e+01 1.4347151177209341e+01 0 0 0
618 2 1.1294934369745750e+00 7.7935060966838137e+00 8.2693645187595912e+00 0 0 0
619 1 4.5743052093502765e+00 9.5215992668252269e+00 6.4654874444469952e+00 0 0 0
620 2 4.6497293910439312e+00 9.0481475119064179e+00 5.6645185186862559e+00 0 0 0
621 2 3.8511443256955658e+00 8.9619591760210859e+00 6.8545534370218748e+00 0 0 0
622 1 1.6753860078065086e+00 1.0872186690283007e+01 6.9327052027718787e+00 0 0 0
623 2 8.5801167983664106e-01 1.1057930160932358e+01 7.4756568435210848e+00 0 0 0
624 2 1.7123114827622086e+00 1.1562027373241078e+01 6.1723529957842134e+00 0 0 0
779 2 8.7583617240988101e+00 1.2144655317661799e+01 1.0466757696246468e+01 0 0 0
626 2 4.4055134399565574e+00 1.1235425765901454e+01 6.4345525286449288e+00 0 0 0
628 1 1.5318623003334746e+00 6.4336040490619766e+00 1.0648914542096799e+01 0 0 0
629 2 1.6329230657905989e+00 5.9364767456417082e+00 1.1483133628121561e+01 0 0 0
630 2 1.5957837627547167e+00 7.3678394810623127e+00 1.0796994520204608e+01 0 0 0
631 1 1.0701199013904159e+01 7.6950589468096444e+00 1.0205137134973592e+01 0 0 0
632 2 1.0612038940161893e+01 6.8794702888245842e+00 1.0706171801261883e+01 0 0 0
633 2 1.1541607788420427e+01 7.6840874392221732e+00 9.7505338472170546e+00 0 0 0
634 1 9.2191284579271180e+00 7.5777275200517700e+00 8.1010076997844518e+00 0 0 0
635 2 9.5154074818536092e+00 7.6797950049575086e+00 9.0191069182852708e+00 0 0 0
636 2 8.2617147208109358e+00 7.7156406982338170e+00 8.0819328645375705e+00 0 0 0
1442 2 4.4520595533953911e+00 5.4941431131421747e-01 2.1860289019258307e+01 0 0 0
639 2 1.1231783672112744e+01 1.1000592419757142e+01 9.2952330543514687e+00 0 0 0
640 1 9.5208728865055274e+00 1.0931246778356185e+01 9.1857879411874226e+00 0 0 0
641 2 9.0132436353802632e+00 1.1021786345027929e+01 8.3343553983212537e+00 0 0 0
642 2 9.0553579309946688e+00 1.0118592280189125e+01 9.5345430889300289e+00 0 0 0
643 1 7.6761470510682566e+00 9.2919866665103701e+00 1.0656151138745624e+01 0 0 0
644 2 7.6026666508268494e+00 8.3288883965864038e+00 1.0521958106430498e+01 0 0 0
645 2 7.5018698672453459e+00 9.5411421375121712e+00 1.1577415226214939e+01 0 0 0
646 1 6.4595304298342979e+00 7.8857210332046241e+00 7.5498779320119827e+00 0 0 0
647 2 6.0178999760460519e+00 7.1081968391996959e+00 7.0761369564339649e+00 0 0 0
648 2 6.0479463513641116e+00 8.6952011141421135e+00 7.1716162365521301e+00 0 0 0
649 1 1.0836385979133961e+01 9.1367984188077234e+00 6.3253446373477127e+00 0 0 0
650 2 1.0775908706207343e+01 1.0044738567897369e+01 6.1348108423849164e+00 0 0 0
651 2 1.0090521110905300e+01 8.8886577901602788e+00 6.8558209304512010e+00 0 0 0
652 1 7.9234948726239125e+00 1.0946713110216947e+01 7.0644957069610079e+00 0 0 0
653 2 7.8803456571667505e+00 1.0185789252813237e+01 6.3677328725963998e+00 0 0 0
269 2 2.3719576762414483e+00 1.2221096139908100e+01 4.1697861683667847e+00 0 0 0
1089 2 5.1189779085599110e+00 1.1014317583956894e+01 1.5170227082060137e+01 0 0 0
658 1 7.7748007247536979e+00 6.4278975635169386e+00 1.0434808613916502e+01 0 0 0
659 2 7.0446206457729188e+00 6.1766996319664766e+00 9.9016992527792844e+00 0 0 0
660 2 8.4678463898338912e+00 5.8114612182269809e+00 1.0152540410724800e+01 0 0 0
1610 2 1.1076498423648923e+01 9.1173195171855230e+00 1.6983887603676685e+01 0 0 0
1604 2 8.2248049747560277e+00 9.0776081763258745e+00 2.1756372493802843e+01 0 0 0
867 2 3.9525490879640537e+00 1.5504510961858214e-01 6.7855195003746092e+00 0 0 0
145 1 4.5896906873518759e+00 1.1792552162479524e+01 7.7261374918322967e-01 0 0 0
1614 2 8.3478125360517570e+00 1.0640337005018578e+01 1.9361047852635323e+01 0 0 0
1611 2 1.1733210748409309e+01 9.0524020808796006e+00 1.8347010834499194e+01 0 0 0
1464 2 4.6563185289015985e-01 4.4299751749628378e+00 1.8884937994350022e+01 0 0 0
1616 2 1.0881793587059811e+01 1.0983649231635884e+01 1.7750364466500791e+01 0 0 0
1133 2 7.8936833828259179e+00 1.1406373132955178e+01 1.2333227365235965e+01 0 0 0
1096 1 1.2145550059943733e-01 7.7454990298533222e+00 1.3678479867928624e+01 0 0 0
961 1 4.1375213684133447e+00 1.6530081811325612e+00 1.5479204237336058e+01 0 0 0
962 2 4.3726840434879986e+00 2.3284807310010796e+00 1.6138124008845526e+01 0 0 0
1038 2 1.1979606644174899e+01 1.7786183643040991e+00 1.4440923687341279e+01 0 0 0
964 1 2.7245538792499051e+00 1.4949721131148024e+00 1.3339165640038368e+01 0 0 0
965 2 3.1044322324866638e+00 1.5263416333841304e+00 1.4249122511508762e+01 0 0 0
966 2 3.0685915060567566e+00 2.2854166880057423e+00 1.2849232770778451e+01 0 0 0
967 1 6.0177540853253397e+00 4.4740396424856694e+00 1.4871374273691831e+01 0 0 0
968 2 6.4942270961636570e+00 5.1945903853368138e+00 1.5287163121369119e+01 0 0 0
969 2 6.4149745251182670e+00 4.4624927831179066e+00 1.3962449698390445e+01 0 0 0
970 1 3.2111636275246722e+00 4.6900036644634175e+00 1.4832520586606110e+01 0 0 0
971 2 4.2014334705706169e+00 4.5459364674761380e+00 1.4825471052027167e+01 0 0 0
972 2 3.0282282342217521e+00 5.5782356711380192e+00 1.5166941148345375e+01 0 0 0
973 1 1.4605606347720894e+00 2.9031811813753063e+00 1.6261310374323315e+01 0 0 0
974 2 2.1488779529019224e+00 3.4804389279009422e+00 1.5792230099860120e+01 0 0 0
975 2 1.3531705941006396e+00 3.4190410500700805e+00 1.7131391317167733e+01 0 0 0
976 1 2.2467703124992328e-01 2.1007414929832482e+00 1.3234515200407229e+01 0 0 0
977 2 1.1427124770824675e+00 1.7531110508015368e+00 1.3174759284066337e+01 0 0 0
979 1 4.3419428095204697e+00 3.4440651189919111e+00 1.2312084910229425e+01 0 0 0
980 2 4.7295862613954531e+00 3.2343293290399466e+00 1.1471805560659147e+01 0 0 0
981 2 5.0655943341886962e+00 3.0645972380583708e+00 1.2878846548012104e+01 0 0 0
982 1 1.6539757004398754e+00 4.9202454015044470e+00 1.2705797504221234e+01 0 0 0
983 2 2.2944177513991839e+00 4.6914370008541386e+00 1.3463207733551830e+01 0 0 0
984 2 7.6640938357331179e-01 4.8475169967149974e+00 1.3055507191539011e+01 0 0 0
985 1 4.4833934873475370e+00 6.0500983761839571e+00 1.2267619738102457e+01 0 0 0
986 2 4.9303931565797026e+00 6.4286017019985620e+00 1.1486445629258897e+01 0 0 0
987 2 4.4122659808160343e+00 5.0437177607761177e+00 1.2214264975365420e+01 0 0 0
77 2 1.2197769638503996e+01 8.2989376999019748e-01 1.7225127138305190e+00 0 0 0
989 2 1.5421961690944883e+00 1.1791665974462904e+00 1.6237679992671055e+01 0 0 0
991 1 1.0474112249793016e+01 1.5896655424425601e+00 1.5934034945955824e+01 0 0 0
992 2 1.0415759665612235e+01 8.4223996896809772e-01 1.6575665086873567e+01 0 0 0
993 2 9.6983598723330005e+00 1.5272946672830354e+00 1.5314309972171115e+01 0 0 0
994 1 8.7529796152117179e+00 1.2414261797362132e+00 1.3818076941201179e+01 0 0 0
995 2 9.2966902600478587e+00 3.9167698817772639e-01 1.3623658985845879e+01 0 0 0
996 2 8.9775174415189927e+00 1.7410108234836850e+00 1.3041202463234184e+01 0 0 0
16 1 1.7791686661414066e-01 1.9016178078174664e+00 1.9934233199501659e+00 0 0 0
998 2 1.1167940810452823e+01 4.6528928086397396e+00 1.5318828982734258e+01 0 0 0
1000 1 9.4079915864888797e+00 4.8091055156019049e+00 1.5029817959779788e+01 0 0 0
1001 2 8.8152970873109151e+00 4.0858678996535955e+00 1.5417648068329747e+01 0 0 0
1002 2 9.1675162967834947e+00 4.8482390768177135e+00 1.4074492970452015e+01 0 0 0
1003 1 7.7661589977049541e+00 3.0114012327733906e+00 1.6261583182741834e+01 0 0 0
1004 2 7.0211408259359374e+00 3.3919401869129286e+00 1.5805200999769767e+01 0 0 0
1005 2 7.8024028438958393e+00 3.5189273242132755e+00 1.7118143417779883e+01 0 0 0
1006 1 6.0176896634347381e+00 1.4702619307538793e+00 1.3561320863645060e+01 0 0 0
1007 2 5.4001867015273488e+00 1.3298480565913100e+00 1.4385159453493667e+01 0 0 0
1008 2 6.8798374590410249e+00 1.0168771226096036e+00 1.3697261942061097e+01 0 0 0
1009 1 1.0608935426018721e+01 3.2787054668017492e+00 1.2316356376748971e+01 0 0 0
1010 2 1.1258725010996613e+01 2.7810423086915108e+00 1.2717120786806952e+01 0 0 0
1011 2 1.0532678293882928e+01 2.8856187022901159e+00 1.1397142688729632e+01 0 0 0
1012 1 7.4140471511438362e+00 4.6771329143682756e+00 1.2544945753081228e+01 0 0 0
1013 2 7.5610848176865098e+00 3.9165030739348037e+00 1.1977759240176614e+01 0 0 0
1014 2 7.6351824336011775e+00 5.4034423470710413e+00 1.1951788364628467e+01 0 0 0
1015 1 1.0534511827836766e+01 5.9751510041407165e+00 1.2349928395178162e+01 0 0 0
1016 2 1.0611200466608841e+01 5.0301129548213375e+00 1.2214155475697469e+01 0 0 0
1017 2 1.1372211261251801e+01 6.3349217208319688e+00 1.2739782606455021e+01 0 0 0
35 2 9.0437454389396841e+00 1.6255888299354093e+00 2.9513197922532952e+00 0 0 0
1019 2 7.6750703441514911e+00 1.1969872476544237e+00 1.6445008702184079e+01 0 0 0
1109 2 7.2499041856619040e-01 6.0115221005061708e+00 1.5764117495370893e+01 0 0 0
1602 2 9.1721553485529839e+00 1.1108114769835723e+01 2.1414059232407030e+01 0 0 0
1081 1 4.5556400942687976e+00 7.5579184750394184e+00 1.5591100408038077e+01 0 0 0
1082 2 5.4535904379616831e+00 7.4815134800922252e+00 1.5153422286749395e+01 0 0 0
1083 2 4.4554951613053602e+00 6.8507464587210594e+00 1.6241406428487171e+01 0 0 0
1084 1 2.7805740720209422e+00 7.7420538035059696e+00 1.3445202410822633e+01 0 0 0
1085 2 3.3971118991922591e+00 7.8049125743570871e+00 1.4178549940663974e+01 0 0 0
1086 2 3.2337723521536783e+00 7.1309069359186230e+00 1.2790000074643007e+01 0 0 0
1087 1 6.0925122673703100e+00 1.0963586418565702e+01 1.5157638569511132e+01 0 0 0
1088 2 6.2860078330896156e+00 1.0006544186798658e+01 1.5282359326438067e+01 0 0 0
988 1 1.5102639358797274e+00 2.0647281701141587e-01 1.6396830500134296e+01 0 0 0
1090 1 3.0976999741196423e+00 1.1230121145988722e+01 1.5210395805063570e+01 0 0 0
1091 2 2.8680535775377365e+00 1.0337786860371923e+01 1.5560545285650321e+01 0 0 0
1657 1 8.6174749974670256e-02 1.0417535338053810e+01 2.0997434391024498e+01 1 0 0
1093 1 1.5979844006145800e+00 9.2125283279669556e+00 1.6224208782767306e+01 0 0 0
1094 2 1.5946009507959147e+00 8.2054129656544994e+00 1.6098105638374832e+01 0 0 0
1095 2 9.4914999857484172e-01 9.5976890073040710e+00 1.5586105015578712e+01 0 0 0
58 1 7.8760032189439206e+00 3.1103248132025063e-01 4.8811117016448682e+00 0 0 0
1097 2 1.0606185881004930e+00 7.8720416792644636e+00 1.3594712877720349e+01 0 0 0
1099 1 4.6926843258698137e+00 9.5701416457038526e+00 1.2169355786537956e+01 0 0 0
1100 2 3.8039112680698337e+00 9.3907331612918625e+00 1.2603892786889833e+01 0 0 0
1101 2 4.6581810436684048e+00 1.0613125815521645e+01 1.2129765075847464e+01 0 0 0
1102 1 1.7482174662586061e+00 1.0863125427974012e+01 1.2807584305934222e+01 0 0 0
1103 2 1.7996969031723413e+00 1.0095846814218351e+01 1.2176885460928462e+01 0 0 0
1104 2 8.9845201045781775e-01 1.0741570813139301e+01 1.3258042579774875e+01 0 0 0
1456 1 1.6482845571981854e-02 1.5735215706664278e+00 1.9167008456039671e+01 0 0 0
1108 1 1.4334667715471827e+00 6.4708438203938385e+00 1.6272195709539634e+01 0 0 0
637 1 1.2212784042685536e+01 1.1053658109253236e+01 9.3522655420331002e+00 0 0 0
1110 2 1.3736514540445357e+00 6.0542178684989505e+00 1.7170173647284471e+01 0 0 0
1111 1 1.0706384304818691e+01 7.7254605773975058e+00 1.5837480494026634e+01 0 0 0
1112 2 1.1475531210827162e+01 7.5249969932007836e+00 1.5356265413883163e+01 0 0 0
1113 2 1.0062910638262387e+01 7.8995822046919280e+00 1.5110727958336875e+01 0 0 0
1114 1 9.1023464043955293e+00 7.8726457957732796e+00 1.3707261861525117e+01 0 0 0
1115 2 9.3420894781661321e+00 7.0374311692051252e+00 1.3265785141417926e+01 0 0 0
1116 2 8.1448295969727891e+00 7.9445221211221657e+00 1.3756254941467098e+01 0 0 0
33 2 1.1258955320866500e+01 1.6367284321410496e+00 3.5752405329984165e+00 0 0 0
1120 1 9.3754184290633695e+00 1.0661815970093086e+01 1.5213139272265025e+01 0 0 0
1121 2 8.9945725234279568e+00 1.0478593915718029e+01 1.4320514562991116e+01 0 0 0
1122 2 1.0388272829991900e+01 1.0609434876870298e+01 1.5150746356433487e+01 0 0 0
1123 1 7.5568649210221679e+00 8.9421860300716016e+00 1.6512279308257956e+01 0 0 0
1124 2 8.3567100588907994e+00 9.3607511041315465e+00 1.6154372268537244e+01 0 0 0
1125 2 7.2609769733572636e+00 9.5103481697309995e+00 1.7250280004005944e+01 0 0 0
1126 1 6.3970748721149597e+00 7.8303002939164195e+00 1.3520879794436073e+01 0 0 0
1127 2 5.9527427207548440e+00 7.1281557413434049e+00 1.3025958588830015e+01 0 0 0
1128 2 5.9508657928653719e+00 8.6859173455589307e+00 1.3223843259167264e+01 0 0 0
1129 1 1.0852612579694620e+01 9.5130415332915490e+00 1.2143997147170506e+01 0 0 0
1130 2 1.0247057295170896e+01 9.2971869745447560e+00 1.2884733065904921e+01 0 0 0
1131 2 1.0688012151716704e+01 8.8035061325846335e+00 1.1509059155256748e+01 0 0 0
1132 1 7.8091268097644289e+00 1.0703366059307010e+01 1.2961398865685142e+01 0 0 0
1638 2 1.2140387764461650e+01 7.5563611866417402e+00 1.9987949419666478e+01 0 0 0
1134 2 7.1971269478422304e+00 1.1016095850679223e+01 1.3686004965380940e+01 0 0 0
516 2 9.2854707161423065e+00 9.1265472871151587e-01 7.4157401452733032e+00 0 0 0
1137 2 1.0733413484775905e+01 1.1395917214018498e+01 1.1799919956821666e+01 0 0 0
1138 1 7.4257473679965047e+00 6.3353520774773164e+00 1.6346424713328020e+01 0 0 0
1139 2 7.4588476100444030e+00 7.3162414155701061e+00 1.6290227025422610e+01 0 0 0
1140 2 8.2612359667555513e+00 6.0157599374124588e+00 1.5893553434978962e+01 0 0 0
98 2 2.7227934250225533e-01 4.7858398542388771e+00 2.5984470170601872e+00 0 0 0
557 2 1.2048428970522870e+01 1.9724625479574895e+00 8.7768086115803765e+00 0 0 0
147 2 5.2263336827723395e+00 1.2156044483903202e+01 1.4276947829640454e+00 0 0 0
152 2 1.1605101310707942e+01 7.6352453357051422e+00 3.7345539572059101e+00 0 0 0
162 2 8.9670252610534842e+00 1.1351337295771435e+01 4.2625809904999610e+00 0 0 0
198 2 1.2263837866406826e+01 7.1693977928852926e+00 1.7088794231653279e+00 0 0 0
1606 1 6.1857224855235602e+00 7.7344575858177729e+00 1.9279881206844664e+01 0 0 0
1576 1 1.7636787853838813e-02 7.7826669248480904e+00 1.9439727147423618e+01 0 0 0
537 2 1.0788709615746908e+01 6.2577737228444859e+00 5.7366226171940022e+00 0 0 0
1441 1 4.3942759893662897e+00 1.3955861559886544e+00 2.1363053807850459e+01 0 0 0
136 1 3.3766369545294667e-01 7.8779518942622877e+00 2.1439567413462668e+00 0 0 0
1443 2 4.5626514998775454e+00 2.0819279774724491e+00 2.2047786593685824e+01 0 0 0