LAMMPS data file via write_data, version 3 Mar 2020, timestep = 0

2016 atoms
2 atom types

0.0000000000000000e+00 1.7945082249153632e+01 xlo xhi
-1.6466934229243435e+00 4.6642853399843020e+01 ylo yhi
0.0000000000000000e+00 1.9086567816411947e+01 zlo zhi
4.5714877529971921e-02 -6.6520713215263676e+00 -2.3717604217154076e-02 xy xz yz

Masses

1 16
2 2

Atoms # atomic

579 2 9.0612492179074593e+00 6.8075448075539366e+00 1.3129996038398614e-01 0 0 1
223 1 5.5846667465564943e+00 7.6726235945394361e+00 3.0255152099007820e+00 -2 0 -1
995 2 6.6077613583456039e+00 5.4734101113469507e+00 4.4493513700065632e+00 3 0 1
654 2 1.5496293413606404e+01 6.2601983849375076e+00 2.9506158313645345e+00 -2 0 0
394 1 3.1798554949068603e-01 8.7643039154771092e+00 1.6927788478778119e+01 -3 0 -4
578 2 1.0175208533614768e+01 6.3585903697432862e+00 1.0360494742738315e+00 0 0 1
929 2 1.2760643668987639e+01 8.8820079613533824e+00 5.2844870133745880e+00 0 0 0
749 2 3.3436070710925563e+00 7.2958143659769679e+00 1.3886688532031556e+01 -3 0 1
705 2 1.1826700758313809e+01 9.3574697215628966e+00 1.6052532653980535e+01 -3 0 -1
186 2 5.7122607792225679e+00 1.2464656682229975e+00 5.9133299119116522e-01 -4 0 -5
299 2 1.2106635627772469e+01 3.5134501950354791e+00 1.3752857135278557e+01 -3 0 -2
214 1 -1.1346768226865993e+00 8.8765534620735718e+00 8.7414921437241215e+00 0 0 -2
761 2 8.4204513662722338e+00 -1.6197697109592364e+00 7.4021714690664264e-02 -3 0 2
406 1 2.4942503378035434e+00 1.0643240008654291e+00 1.1994746747433870e+01 -2 0 -2
163 1 7.4021207833945173e+00 3.3381566828334721e+00 1.0608685384904962e+01 2 0 0
596 2 1.4603123025923564e+01 7.4769828057400218e+00 5.1588910022331662e+00 2 0 -2
465 2 5.0550691542790762e+00 6.9986067335697797e+00 6.5918488522565193e+00 2 0 0
788 2 6.2150975306763332e+00 8.3180744720572548e+00 1.3774592778285280e+00 -2 0 0
881 2 8.3110695385130100e+00 7.4328915846805987e-01 8.0393039216285960e+00 -3 0 2
319 1 8.5119291101729466e+00 -9.3238565893986303e-01 1.5134956961067505e+01 -4 0 -3
53 2 1.0750558155845219e+01 4.1772583029487560e+00 1.3882012409112081e+00 2 0 0
979 1 8.3557338110327439e+00 7.4662342165181546e+00 1.0581511989494096e+01 -2 0 0
609 2 1.5096466478731885e+00 4.8278707077074543e+00 2.6299038013197737e+00 -3 0 0
710 2 6.0663195079053871e+00 7.5803221863626113e+00 1.8601838389975121e+01 -3 0 -2
122 2 7.8955752335160403e+00 4.7416352487875271e+00 1.7075479547671637e+01 -2 0 -1
963 2 -8.3206179494595922e-01 4.1272337110095316e+00 1.2754648888473168e+01 -3 0 -1
407 2 2.5612134148661232e+00 4.9486069204400840e-01 1.2831870166322926e+01 -2 0 -2
707 2 -2.2401485546300934e+00 6.1372632853982685e+00 1.8573556074867518e+01 -1 0 -1
672 2 1.4236958350793106e+01 4.3667339942711658e-01 4.9648288869152273e+00 -4 0 -1
448 1 5.8921143954870558e+00 3.7468005220210721e+00 7.2185254769439711e+00 -1 0 1
244 1 1.1817454067288899e+01 6.7376537543737243e+00 1.1183327875690274e+01 -4 0 -4
762 2 9.0601023043284794e+00 -1.6255012018172343e-01 6.9780138552561974e-02 -3 0 2
26 2 3.4062786909999838e+00 7.9800831367223797e+00 1.7107069619372492e+01 -2 0 -4
152 2 4.8271955014055106e+00 -1.3210188560360703e+00 4.3528797858594119e+00 3 0 0
670 1 1.4611538633267042e+01 -2.0473489206392714e-01 4.3584718552598840e+00 -4 0 -1
529 1 7.7912998812274168e+00 -1.6011295820835754e+00 3.2819264371280883e+00 -1 0 0
33 2 8.7674201683438202e+00 7.7260795477708193e+00 2.4091521473332924e+00 -4 0 -4
320 2 7.8953505658395517e+00 -2.8276444380881061e-01 1.4812382981619328e+01 -4 0 -3
463 1 4.1177836572951723e+00 6.9776516500520618e+00 6.4232456334771912e+00 2 0 0
449 2 6.7571864247584532e+00 4.0682725974692495e+00 7.4362190238872854e+00 -1 0 1
524 2 5.4224233706301117e-01 1.8159945028581790e+00 6.7071990196951567e+00 -2 0 -4
592 1 1.4037117071112095e+00 1.0238710367507625e+01 1.1923378703768155e+00 -2 0 0
523 1 -4.2035162600766451e-01 1.4831703735650583e+00 6.7528053898986382e+00 -2 0 -4
658 1 2.9844376702137723e+00 -9.5833843342255198e-02 1.4275197170844073e+01 -1 0 -2
206 2 5.8148015173625458e+00 6.3577450216247513e+00 1.0409220585460112e+01 3 0 0
96 2 7.9599415144935435e+00 4.9266494176842750e+00 1.1071983235727663e+00 -2 0 -1
441 2 -8.8646751796240508e-01 1.0007914669909130e+01 1.6828823985824080e+01 -2 0 -1
151 1 5.5769121234578005e+00 -8.0606840226840304e-01 4.8092590128863657e+00 3 0 0
781 1 -1.9507644801499939e+00 2.0654294933281809e+00 1.8579703962516319e+01 -2 0 -3
880 1 9.0732092066191523e+00 1.3329299440451674e+00 7.9699310467777913e+00 -3 0 2
626 2 4.3115122951901608e-01 4.0167190756789930e+00 1.8732013280268838e+01 0 0 -1
87 2 1.0761007690807162e+01 1.7878632540345318e+00 1.7289724856663693e+01 1 0 -3
703 1 -5.5881490752808123e+00 9.7677082252906988e+00 1.6777497338205347e+01 -2 0 -1
382 1 1.4043810858133034e+01 4.0516840925406594e+00 7.3935157258439888e-01 -2 0 1
750 2 4.6211354315086419e+00 8.0960875390017524e+00 1.4430506298205485e+01 -3 0 1
789 2 -3.3651567394375981e-01 8.4496651498080677e+00 1.8982682806655948e+01 -2 0 -1
54 2 9.7255153909796217e+00 4.1056025167975516e+00 2.5295351706253664e+00 2 0 0
729 2 5.8817944700782991e+00 6.6845207478873530e+00 1.4044283294728334e+01 0 0 1
689 2 1.4809772830288106e+01 3.7587290124612167e+00 5.5355092125974013e+00 -3 0 0
733 1 1.0014786893279425e+01 6.2364580516106534e+00 8.9643926427471978e+00 -3 0 -1
457 1 2.4385804115567633e+00 -6.9830106536829095e-01 1.4375089972712183e+00 -2 0 -2
652 1 1.6209739003258878e+01 6.9451653582296586e+00 2.6966762699034068e+00 -2 0 0
52 1 1.0285495023291791e+01 3.5576879418229375e+00 1.9508396849833607e+00 2 0 0
356 2 -2.7484911476116798e+00 8.0487613464529435e+00 1.3245102296430192e+01 -4 0 -3
477 2 9.5368358393664217e+00 -1.0103110014752104e-01 1.1660261704968848e+01 -1 0 2
500 2 -1.5962655803861074e+00 -3.4659778698958599e-01 8.9050593677634442e+00 1 0 0
571 1 1.0123225221723953e+01 -4.0112045889384706e-01 3.1054336453151876e+00 1 0 4
806 2 9.0796250954789137e+00 3.6173511893007664e+00 7.7171563499470146e+00 -4 0 1
190 1 2.5306254852294341e-01 5.5449718533503480e+00 1.2499878643958370e+01 -2 0 -3
810 2 3.3441837431803529e+00 5.9570102889903183e+00 7.4946902420715285e+00 -4 0 -1
930 2 1.2625314890462462e+01 7.9470143470648651e+00 4.0413091182171481e+00 0 0 0
702 2 4.0042013090436779e+00 5.7889786468693849e-01 1.7042367881055380e+01 -3 0 -3
501 2 -1.6892741347187490e+00 6.3763102184313869e-01 9.9792762412377432e+00 1 0 0
625 1 3.4607080686644931e-01 3.8022269490166325e+00 1.7774206558673189e+01 0 0 -1
215 2 -1.2654941102229520e+00 9.4322275912682194e+00 9.4623976501819786e+00 0 0 -2
101 2 -2.9271144269929206e-01 2.9052057024314539e+00 1.0700801062674987e+01 -1 0 -1
384 2 1.4770504491496727e+01 4.2966251851106572e+00 7.4293509620699139e-02 -2 0 1
245 2 1.1931556400883927e+01 6.2751506365116274e+00 1.2015617955302304e+01 -4 0 -4
622 1 -9.0046592362214994e-01 6.9657872489915764e+00 1.5521866332161366e+01 -2 0 -2
624 2 -1.4173232322657547e+00 6.7726923238470231e+00 1.6362893945500314e+01 -2 0 -2
179 2 5.6108172999148476e+00 3.9612006585548443e+00 1.6940948613536825e+01 -3 0 -1
673 1 1.7132312914703029e+01 6.7358939167161385e+00 2.2408508092500115e-01 -1 0 -3
301 1 4.9797309878760920e+00 8.8940423300084710e+00 1.6082080451757786e+01 0 0 -1
776 2 1.0063251985783353e+01 2.0423041508709026e+00 8.9547230699785996e-01 -2 0 2
31 1 8.6282300174738342e+00 8.1466307551886334e+00 3.2411224783460053e+00 -4 0 -4
268 1 3.9111005247640840e-01 9.9123008523559548e+00 1.1532699754251775e+01 2 0 -2
49 1 1.1070416179552636e+01 2.1791041000529474e+00 1.0178742913017985e+01 -1 0 0
183 2 1.1059340804493207e+01 7.5461357772650377e+00 6.3421393994634236e+00 -1 0 0
464 2 3.8042309518023840e+00 7.1751549137533992e+00 5.5371835132427751e+00 2 0 0
34 1 1.7010006365274453e+01 -1.3351286088141243e+00 1.9130078937925201e+00 -2 0 0
1582 1 8.3644504769309638e+00 8.7350847629806747e+00 1.5685310880773757e+01 0 0 0
168 2 7.3080545569589299e+00 9.9710770655295917e+00 5.7707224812823155e+00 -4 0 -3
135 2 1.4397855585526534e+01 2.1380248898854135e+00 2.8969786549896370e+00 0 0 -1
778 1 5.8565409678586713e+00 4.0345017114355706e+00 4.5210521356440001e+00 1 0 0
35 2 -3.0741007628620476e-02 -1.4485110102608263e+00 1.4945133898119833e+00 -1 0 0
598 1 -5.3163999024814856e-01 -1.2609417304713602e+00 7.3304454666087970e+00 -3 0 1
120 2 2.7184261363137914e+00 3.5599981101377374e+00 3.5489920762704785e+00 -2 0 -2
856 1 1.5551519856980498e+01 9.8948633408425550e+00 6.4313779582920105e+00 -2 0 -3
640 1 -1.5904925975121920e+00 7.8529198693605604e+00 1.2107544801194342e+01 4 0 -1
753 2 3.9611489431109481e+00 5.1128335899060273e+00 1.4935302524283089e+00 0 0 3
527 2 2.5717663621023839e+00 -9.1403725684023129e-01 8.3416052870256809e+00 -2 0 0
119 2 3.6435857344190126e+00 2.3898537250796084e+00 3.8964087243347048e+00 -2 0 -2
525 2 -7.6688970020967018e-01 1.8276552612723989e+00 7.5894008945517388e+00 -2 0 -4
495 2 -1.8052386459464589e+00 7.1835160487423426e+00 8.2039402126530696e+00 -3 0 -2
686 2 1.2860010549507837e+00 -1.3302513643982417e+00 1.0110071021001231e+01 -3 0 0
559 1 7.0984345055143354e+00 -3.5217356280676393e-01 8.6738759144706332e+00 -2 0 1
212 2 8.4771405721928961e+00 5.7291996676344716e+00 4.2576944932951797e+00 -5 0 -2
701 2 2.6030508945597024e+00 1.2078437006516891e+00 1.6938088136229716e+01 -3 0 -3
22 1 7.9254356913626953e+00 1.0117858112041912e+01 9.7669594858672077e+00 -2 0 0
470 2 4.3900854984601239e+00 2.8096330598969566e-01 3.5460415249925425e+00 -6 0 -2
471 2 5.0029897157017045e+00 1.0010424296805320e+00 2.4884927558816043e+00 -5 0 -2
708 2 -3.0290305706438256e+00 7.4072393769070626e+00 1.8315872829364714e+01 -1 0 -1
85 1 1.0976896707628519e+01 2.6730188363636849e+00 1.7659191039834280e+01 1 0 -3
675 2 1.0018555602141713e+01 6.0587509374738380e+00 1.8709245442683603e+01 -1 0 -4
599 2 -5.3212155983073717e-01 -3.1971512038753547e-01 7.0954250288812446e+00 -3 0 1
312 2 1.3736630588675069e+01 1.0131466611948706e+01 8.7697861386906943e+00 0 0 -2
627 2 6.2314119122757639e-01 2.8682151847233683e+00 1.7529358519817663e+01 0 0 -1
111 2 1.2027301486656050e-01 -1.2063935350951072e-01 1.4351432422281651e+01 1 0 -4
869 2 1.0810543378000366e+01 3.5736746784124396e+00 6.1771177899258873e+00 1 0 0
16 1 2.0000917450133873e+00 6.4444877149043069e+00 1.4378185347410174e+01 0 0 1
178 1 4.7161589781456916e+00 3.7796150326317539e+00 1.7402123789910931e+01 -3 0 -1
974 2 -3.7728943491161901e+00 3.2781488550096727e+00 1.5839393538012839e+01 -3 0 -2
118 1 3.2635393977756286e+00 3.1730866040191303e+00 4.2808099609488641e+00 -2 0 -2
922 1 2.3637986779610367e+00 4.9118881243416350e+00 1.6421494602383870e+01 -3 0 -3
623 2 -1.6006597115216605e+00 7.3670265852537771e+00 1.4980619294118799e+01 -2 0 -2
1668 2 3.1915621117614501e+00 5.0151483336399627e-01 1.4990342795402761e+01 -1 1 -2
644 2 1.3401851140493974e+01 1.6220560870755656e+00 1.2113668629466721e+01 -4 0 -3
667 1 7.9514715841366987e+00 3.8374746790206551e+00 1.3248418644847790e+01 -3 0 -3
727 1 6.7485095384652416e+00 6.6264276131817610e+00 1.4478694098711207e+01 0 0 1
239 2 4.8189916633414462e+00 3.3532897409547813e+00 1.3825490565424483e+01 0 0 0
716 2 6.2969189497107703e-01 8.8073410367743810e-01 1.6203230531894050e+01 1 0 1
717 2 5.6324760601902391e-01 2.9255323231392349e-01 1.7622024367627766e+01 1 0 1
240 2 6.3162349566008098e+00 3.4747915692332665e+00 1.4149609612681843e+01 0 0 0
895 1 -4.1427885297151814e+00 3.9283316742938554e+00 1.8644606690180733e+01 -1 0 -1
17 2 2.0919712458728217e+00 5.7588909682647875e+00 1.5076834380582179e+01 0 0 1
779 2 4.9870857621502607e+00 3.6654670995818739e+00 4.2440575934097415e+00 1 0 0
760 1 1.6445526108154152e+00 -7.2202235534754522e-01 1.8850591682061239e+01 -3 0 1
645 2 1.3559888097591077e+01 3.5171190257939910e-01 1.1177006736789654e+01 -4 0 -3
613 1 7.4031105475971488e+00 2.4449626244908975e+00 3.2712088151404779e+00 -2 0 0
246 2 1.1146874547624105e+01 6.3116076591943910e+00 1.0655266161050516e+01 -4 0 -4
238 1 5.4621003531212278e+00 3.1993339709885733e+00 1.4535265597005315e+01 0 0 0
522 2 7.2566318171518986e+00 -3.7761419662806439e-01 1.1925078301284865e+01 -5 0 -2
715 1 8.2882439934542340e-01 1.1177859319016110e+00 1.7136412122190446e+01 1 0 1
115 1 1.2713117309777239e+01 6.3705644269940880e+00 1.3706332034228284e+01 -5 0 -5
426 2 1.3803177114301667e+01 4.8660916726107750e+00 4.1315262616963793e+00 -2 0 1
494 2 1.5526108201359371e+01 6.6346473741256631e+00 6.8414188106288387e+00 -4 0 -2
668 2 8.3555266060999447e+00 4.6994249921036921e+00 1.3347289944265210e+01 -3 0 -3
250 1 4.7988566209631527e+00 7.4125107461020132e+00 1.1182988596466000e+01 -3 0 2
933 2 -2.1846164475389767e+00 4.9501364619575092e+00 1.5377069074216681e+01 -2 0 -1
295 1 1.8242429336946646e+00 8.9572929559383390e+00 5.8000643685070772e+00 2 0 3
868 1 9.9168379732586729e+00 3.3991213577501362e+00 5.8322469061086064e+00 1 0 0
291 2 9.8578777531015938e+00 8.7564341880656418e+00 4.4434248381260710e+00 0 0 3
18 2 1.2777749965432443e+00 6.9952746810993389e+00 1.4715127706636851e+01 0 0 1
5 2 3.3499674329626732e+00 6.5798883571710132e+00 1.0422669921053265e+01 1 0 0
993 2 1.3826966546535228e+01 1.8053408910707436e-01 9.1529898073986953e+00 1 0 1
785 2 1.7331604396134523e+01 1.7854450074692410e+00 1.1030457483967443e-01 -4 0 -2
870 2 9.8420104959086743e+00 4.1293706070936809e+00 5.1501013192505107e+00 1 0 0
211 1 9.3232560576080132e+00 5.2793155537812977e+00 3.9318101120397229e+00 -5 0 -2
387 2 -1.2431241186575179e+00 2.5237236409731532e+00 5.6085936606907545e+00 0 0 -2
354 2 9.2288854476837301e+00 6.8241754739796310e+00 1.2127718636914778e+01 -1 0 0
643 1 -4.0469319037114575e+00 7.7476694908175991e-01 1.2012311324332014e+01 -3 0 -3
976 1 4.6717901489759512e+00 -1.4003607587877851e+00 1.7930593828758369e+01 -3 0 -1
143 2 1.2184408739514858e+01 8.8689973037635141e+00 1.4870793349274292e+00 2 0 0
289 1 1.0399302747424109e+01 9.0352644933792874e+00 5.2241329143261828e+00 0 0 3
116 2 -4.4300141256852550e+00 6.9678695912643125e+00 1.3864624446881777e+01 -4 0 -5
224 2 5.0349227483266041e+00 6.9346876705989526e+00 2.6905106048922049e+00 -2 0 -1
845 2 5.6940716711451547e+00 1.0709165040581503e+00 1.1869119188523126e+01 1 0 1
303 2 4.8155921264289381e+00 9.8531224810146760e+00 1.6289814632323978e+01 0 0 -1
117 2 -4.9130299666819548e+00 5.5098003534079609e+00 1.4123810978838826e+01 -4 0 -5
931 1 -2.8553079291173482e+00 4.4276000243140974e+00 1.4894420521683962e+01 -2 0 -1
714 2 -8.8767096991809469e-01 4.0203216952836573e-02 1.1942587970140590e+01 0 0 3
385 1 1.6257368004797005e+01 3.0304719197568728e+00 4.8186257008572548e+00 -1 0 -2
840 2 1.6058433730558153e+01 9.5286876587312950e+00 4.6252229476183864e+00 -1 0 -2
961 1 -1.6550461328204715e+00 3.5636331369103154e+00 1.2635243403295311e+01 -3 0 -1
42 2 1.1143344789370859e+00 6.0292340786158407e+00 7.2840152922253116e+00 -2 0 3
726 2 1.3755397017822604e+01 3.4509798293174878e+00 9.4635023112199885e+00 1 0 1
466 1 1.4097530397189129e+00 8.5352872160213948e+00 9.5194710982297828e+00 -1 0 2
769 1 1.4380460824008795e+01 7.0884011698319735e+00 1.0203245784437451e+01 0 0 -3
1002 2 9.7887852095409009e+00 1.9515671456467993e+00 5.1145360637559802e+00 -1 0 1
616 1 8.4815190673909058e+00 9.1486440765139658e+00 7.2385187318624329e+00 -2 0 -1
274 1 1.4549539718576275e+01 -4.9751213457187116e-01 7.3619035892828821e-01 2 0 0
41 2 -2.5046941769837927e-01 6.4736572334650049e+00 6.8598183016595700e+00 -2 0 3
504 2 3.9431027205992093e+00 -1.4746282930640404e+00 1.0343518138915011e+01 0 0 -1
812 2 9.6913830479520815e+00 5.9287507334998271e+00 1.4748593417837236e+01 -2 0 -1
932 2 -2.4797557782494621e+00 4.0549187023451259e+00 1.4018936819508273e+01 -2 0 -1
230 2 1.4557751281385292e+00 -1.6046645697643935e-01 4.4870794287764602e+00 0 0 -2
213 2 9.9865741573502760e+00 5.9818735048733513e+00 3.8734362833432083e+00 -5 0 -2
142 1 1.1619378362687256e+01 8.2722840983815509e+00 1.0023813217630255e+00 2 0 0
43 1 -2.8189875791690255e-01 -1.3241025972941380e+00 1.2814964275134548e+01 0 0 0
338 2 -4.4415232683108541e-01 5.7548621111056493e+00 3.6695494056777638e+00 -1 0 -1
756 2 3.7649222238287807e+00 8.6546239754595273e+00 7.6592700318453932e+00 0 0 2
969 2 1.2165099585471404e+01 6.3966404075031935e-01 5.9618415548144403e+00 -2 0 1
545 2 2.0705658185131606e+00 3.3587482047776120e+00 1.3483056315917342e+01 2 0 1
386 2 -1.1229845107572451e+00 3.8057484464005791e+00 4.6083600602916901e+00 0 0 -2
839 2 1.6235484668970447e+01 8.4424831987738997e+00 3.5436090055137837e+00 -1 0 -2
40 1 6.6184003874684150e-01 6.4821606585269116e+00 6.5782092488651429e+00 -2 0 3
786 2 1.6409635916909071e+01 1.8409279385628712e+00 1.4890800086803730e+00 -4 0 -2
747 2 -5.2409533623669766e+00 7.3833989481664304e+00 1.8699731556433633e+01 -2 0 0
724 1 1.3268531513644508e+01 2.9136995552993685e+00 8.8332870902662695e+00 1 0 1
784 1 1.7202671765355412e+01 1.3984949579170003e+00 1.0140697072982312e+00 -4 0 -2
967 1 1.2786761823068986e+01 1.4043599794422028e+00 5.8512696567953677e+00 -2 0 1
553 1 3.6392536147144234e+00 4.0904601311888849e+00 1.2796641237312194e+01 -5 0 -2
681 2 1.0132307133852704e+01 -4.5704310459344621e-01 1.6248171357405734e+01 -3 0 -3
649 1 4.4714888706058744e+00 1.4287380219054744e+00 8.1336701864325818e+00 -4 0 0
650 2 3.6092187731554963e+00 1.8850009625556856e+00 7.9188857968945001e+00 -4 0 0
51 2 1.1028586926580493e+01 1.3807138069070946e+00 1.0685727629552680e+01 -1 0 0
176 2 4.7488222255860393e+00 -1.1186363536416004e+00 1.3445267280665137e+01 -5 0 1
945 2 2.4541020847056223e+00 3.5296577439596390e+00 7.3624314685211942e+00 0 0 3
574 1 -1.3434231947972242e+00 -9.1781808225556594e-01 1.7429161574147926e+01 0 0 1
488 2 -2.2450881352871876e-02 9.8815016370086841e+00 3.5778248261960943e+00 -4 0 1
397 1 1.3715989324356938e+01 8.4390616546489046e+00 7.9842187297017846e+00 2 0 0
127 1 1.1716055442475703e+01 6.8576144969481216e+00 3.1758689100485218e+00 -2 0 -1
128 2 1.2567535224512778e+01 6.3050248071961770e+00 3.0938107235975076e+00 -2 0 -1
1407 2 1.2900269545109158e+01 8.0040695747252588e+00 7.6497879921510723e+00 2 0 0
838 1 1.6222186177279138e+01 9.4312166338133228e+00 3.6528141708763666e+00 -1 0 -2
928 1 1.3292864301700472e+01 8.4715713595070099e+00 4.6175181237883525e+00 0 0 0
32 2 8.4684613991665962e+00 9.1410082695376058e+00 3.1776273301143458e+00 -4 0 -4
591 2 1.3618464641736310e+00 9.7511682303643088e+00 1.3005836315663217e+01 -4 0 -1
270 2 8.3515961990674725e-01 9.5788858887496087e+00 1.0704812280324564e+01 2 0 -1
350 2 1.3415933716921373e+01 6.3698834192788212e-01 3.2455499088788098e-01 2 0 4
981 2 8.1638276808251682e+00 8.3978306982445670e+00 1.0385073407201753e+01 -2 0 0
389 2 1.3261357338615216e+01 -1.3021778548736935e+00 3.5341943224378158e+00 -1 0 0
783 2 -1.9281453694068107e+00 1.5286263295669542e+00 1.7769114719707797e+01 -2 0 -3
184 1 6.3540018057230352e+00 9.4377391738415906e-01 1.2926695566489645e+00 -4 0 -6
994 1 7.1565378642985387e+00 6.2931777739366561e+00 4.6078149125277275e+00 3 0 1
725 2 1.2452621775440706e+01 2.6470732732477478e+00 9.3802533701415989e+00 1 0 1
160 1 -3.4335266886260247e+00 4.5532244222930407e+00 1.0571804901062180e+01 1 0 -5
129 2 1.1638973229080607e+01 7.3354808734863415e+00 2.3364469597114530e+00 -2 0 -1
192 2 7.7881393897420814e-01 5.2401505381227249e+00 1.1805953480726586e+01 -2 0 -3
173 2 9.9420590769698833e+00 1.1986904804147671e+00 1.4825042208074841e+01 -1 0 -2
191 2 9.5884444228775223e-01 5.8129466186227123e+00 1.3090447619054132e+01 -2 0 -3
721 1 9.6834756158305861e+00 9.9966709169301744e+00 7.3037459139309341e-02 -5 0 -2
634 1 5.4457096502344982e+00 9.8117298074723571e+00 1.0347656268360822e+01 1 0 -2
462 2 1.1228548559109573e+01 7.6149012463494721e+00 1.4792210786780204e+01 -4 0 -2
651 2 5.1358562281962428e+00 2.0172734792729416e+00 7.7387222308408328e+00 -5 0 0
996 2 6.9330858154780763e+00 6.9828365516758311e+00 3.9498849551641313e+00 3 0 1
611 2 1.1763713443601208e+01 2.9418036294115835e+00 1.1588770530707587e+01 -1 0 2
777 2 1.1122019457245781e+01 1.0343029028731232e+00 4.4217567306906835e-01 -2 0 2
991 1 1.3242876817141655e+01 -3.3762222579583434e-01 9.7218056732918487e+00 1 0 1
971 2 3.3958367852388744e+00 9.2637785664592887e+00 5.1584963098892720e+00 0 0 1
102 2 3.6091017714210416e-01 2.3231833969746907e+00 9.6370491578300790e+00 -1 0 -1
497 2 1.1861458141451378e+01 5.3718702559283731e+00 6.8322023557466345e+00 -1 0 1
498 2 1.2241651704486967e+01 4.2271940353233131e+00 7.9139302386495318e+00 -1 0 1
395 2 -1.6944209584821301e-01 8.1087735314074170e+00 1.6369734606945137e+01 -3 0 -4
924 2 3.2412547702957077e+00 4.5945378718497949e+00 1.6723563900803637e+01 -3 0 -3
349 1 1.2794728326004947e+01 1.3573040952631525e+00 1.1478988361512125e-01 2 0 4
679 1 1.0834701307870551e+01 2.3047149887828855e-01 1.6434352899053838e+01 -3 0 -3
398 2 1.4091855378895325e+01 7.9765483066143563e+00 8.7709759329015871e+00 2 0 0
540 2 4.8245686953242817e-01 1.6091648515715034e+00 2.3890042931523077e+00 -4 0 -3
962 2 -1.4429137125315568e+00 2.6087399864104315e+00 1.2767183838067806e+01 -3 0 -1
216 2 -1.0864634967387254e+00 9.5215085433492845e+00 8.0018666453788985e+00 0 0 -2
943 1 2.2762284547731233e+00 2.6541630530043268e+00 7.0130518466569924e+00 0 0 3
594 2 1.2838021712835352e+00 9.9788157770443018e+00 2.1100053122402893e+00 -2 0 0
290 2 1.0671479599410658e+01 9.9772613821237357e+00 5.0723148693172524e+00 0 0 3
896 2 -4.6505514089898545e+00 4.1082610648506659e+00 1.7820177640539054e+01 0 0 -1
172 1 9.7954519415994259e+00 1.7307857651656025e+00 1.4029582747870853e+01 -1 0 -2
298 1 1.1714496585862705e+01 3.5580105113753175e+00 1.4653249091724527e+01 -3 0 -2
680 2 1.1402119174868076e+01 -1.9251135328522606e-01 1.7119889401077170e+01 -3 0 -3
164 2 6.6129234784431477e+00 2.7698030108830602e+00 1.0705813442345429e+01 2 0 1
538 1 9.7811323865386890e-01 1.4140056605372799e+00 3.1924724301969691e+00 -4 0 -3
944 2 2.6054797541722654e+00 2.7400380428816851e+00 6.1274989787037288e+00 0 0 3
100 1 5.7936555744934992e-01 2.5720589866744703e+00 1.0490876428053465e+01 -1 0 -1
1667 2 2.7859085644230044e+00 -9.7322404543060881e-01 1.4617340217479050e+01 -1 1 -2
949 1 -5.8861397698311499e+00 -9.7203681724331903e-01 1.8451202234675783e+01 -1 0 1
174 2 1.0524372895475276e+01 2.3720873913881206e+00 1.4265985973551670e+01 -1 0 -2
572 2 1.0909014740091465e+01 -9.3588745365250059e-01 3.0831748655673255e+00 1 0 4
709 1 6.5481629018598602e+00 7.4232577708268686e+00 1.7804352538531425e+01 -3 0 -2
575 2 8.2292911308750298e+00 8.6617451202728422e+00 1.6645948735663019e+01 0 0 0
460 1 1.0957102427325655e+01 8.5537652375762683e+00 1.4944004944937870e+01 -4 0 -2
607 1 2.1669759149931926e+00 4.3343427822017073e+00 2.1558492970830385e+00 -3 0 0
723 2 2.5005118246693669e+00 9.5883536295127669e+00 1.8426301114200360e+01 -5 0 -3
980 2 7.5935093324427445e+00 6.9533134052264369e+00 1.0251991192157226e+01 -2 0 0
728 2 6.9730991982735873e+00 7.5000198431698628e+00 1.4840100291936434e+01 0 0 1
595 1 1.5474353555785182e+01 7.1008870533427757e+00 5.3354915229458113e+00 2 0 -2
528 2 3.6615933344700378e+00 -7.3060365073250200e-02 7.4744300143051632e+00 -2 0 -1
109 1 -8.9391639252032640e-02 7.8227618760915973e-01 1.4572001848420026e+01 1 0 -4
615 2 8.0057690520300504e+00 1.9156071589031334e+00 3.8476119951743741e+00 -2 0 0
251 2 5.2079015463468483e+00 8.2885417016409075e+00 1.1023548357039758e+01 -3 0 1
461 2 9.9921074373473928e+00 8.6019334449036506e+00 1.5126793182948644e+01 -4 0 -2
754 1 3.7336662402306233e+00 9.3707513862610199e+00 8.2972570595948802e+00 0 0 2
408 2 1.6739554675869401e+00 1.5959353994613514e+00 1.1889358540641352e+01 -2 0 -2
1665 2 8.0970305235926112e+00 8.0380886144790828e+00 1.8527407396245451e+01 -3 1 -1
182 2 1.0832850294962972e+01 6.9407380979352045e+00 7.6885616223173585e+00 -1 0 0
589 1 1.7251224433380994e+00 9.5273207826837254e+00 1.3906521417643216e+01 -4 0 -1
972 2 4.3174753067252087e+00 1.0111162050299724e+01 4.2335364872030379e+00 0 0 1
671 2 1.5134513289566438e+01 3.1833802210599016e-01 3.7398398025206721e+00 -4 0 -1
475 1 1.0481479114568184e+01 1.6268655155739298e-01 1.1899792664438394e+01 -1 0 2
68 2 4.9463838000111640e+00 4.6813193489448235e+00 1.8669080448758546e+01 -4 0 -3
526 1 2.9456618026769932e+00 -7.3228457461340890e-01 7.4233949294841883e+00 -2 0 0
133 1 1.5345981359278532e+01 1.8028475419304644e+00 2.6976141770728019e+00 0 0 -1
610 1 1.2563512467713959e+01 3.1288035705720070e+00 1.2144821899148944e+01 -1 0 2
858 2 1.4772322597034211e+01 9.4164683154440993e+00 6.8013906230058225e+00 -2 0 -3
734 2 9.3518483188720030e+00 6.8421969703968930e+00 9.4763111335356101e+00 -3 0 -1
300 2 1.2270997865684173e+01 3.1249727528473281e+00 1.5370430375177470e+01 -3 0 -2
950 2 1.4094682530218663e+00 -6.0178947740233557e-01 3.0084272938261894e-02 -1 0 2
782 2 -1.2544521009034844e+00 2.6770240160527985e+00 1.8312511245950976e+01 -2 0 -3
690 2 1.3496910378724387e+01 4.4052989455101326e+00 6.1592829822504767e+00 -3 0 0
561 2 6.1954635029991181e+00 -3.2254759752839979e-02 8.7426099876362606e+00 -2 0 1
36 2 1.7077719647974174e+01 -4.1163850705104532e-01 2.1990815352524473e+00 -2 0 0
113 2 6.4135110537845943e+00 2.2372370321116231e+00 1.5769291124184562e+01 -2 0 -1
27 2 2.6849588282713377e+00 6.5666585902252361e+00 1.6998725915477937e+01 -2 0 -4
4 1 2.5030819253293677e+00 6.1377869518494883e+00 1.0365981315041605e+01 1 0 0
674 2 1.0216107210387293e+01 7.5495225900010059e+00 1.8936622039156379e+01 -1 0 -4
992 2 1.2359382729865112e+01 -4.1227941475103114e-01 9.3309941881423075e+00 1 0 1
67 1 1.1642077814289307e+01 5.3411349387976452e+00 3.4744742504253584e-01 -4 0 -2
65 2 4.4160568780400862e+00 1.8691184733369743e+00 9.9902020410293702e+00 -2 0 -3
114 2 7.8171121207695382e+00 2.1468223586318516e+00 1.6533548199536856e+01 -2 0 -1
425 2 1.3890303552166666e+01 4.6408904126693553e+00 2.6804011886875196e+00 -2 0 1
544 1 1.3168277796540160e+00 3.0432422605941039e+00 1.4011244242769463e+01 2 0 1
1584 2 8.0411935695192724e+00 9.6646402037338586e+00 1.5565379989667361e+01 0 0 0
1001 2 9.5899542294886331e+00 7.1182755481746351e-01 4.1803499240182740e+00 -1 0 1
496 1 1.2095509990696062e+01 4.4246511165708391e+00 6.9760662989764066e+00 -1 0 1
655 1 8.8053240735588414e+00 8.7187013828426316e+00 1.8489513327646613e+01 -3 0 -1
337 1 1.3829285268000358e-01 5.0868918554293208e+00 4.0807182116380556e+00 -1 0 -1
185 2 6.9168266162945455e+00 1.7688662925118903e-01 9.1687362003076189e-01 -4 0 -6
6 2 2.7171222575130294e+00 5.6322393781783795e+00 9.5311944673916784e+00 1 0 0
844 1 5.9894312202118130e+00 6.3993048179183054e-01 1.2680689867080194e+01 1 0 1
925 1 -4.6966882064508457e+00 -1.2525618119149373e+00 1.3770393512041096e+01 2 0 2
687 2 2.2875170065983221e+00 -3.3802351026575073e-01 1.0709608718074847e+01 -3 0 0
641 2 -1.0274262539441836e+00 8.6637067189065160e+00 1.1953532361665737e+01 4 0 -1
110 2 4.6758145927655104e-01 1.4365451101955671e+00 1.4093017517892598e+01 1 0 -4
502 1 4.8690584337185987e+00 -1.6528804901661058e+00 1.0532842840410414e+01 0 0 -1
897 2 -3.5872272757132930e+00 3.1788698078936264e+00 1.8427811632065783e+01 -1 0 -1
207 2 6.6403926397806181e+00 4.9946511672174587e+00 1.0044195291385760e+01 3 0 0
808 1 3.1529746470166433e+00 5.1181124196269181e+00 7.9916508252259284e+00 -4 0 -1
458 2 2.6876529004128327e+00 9.4784392074380719e-03 2.0125845293565980e+00 -2 0 -2
577 1 9.2296523927415048e+00 6.5879802124461957e+00 1.0479841406130623e+00 0 0 1
302 2 5.6849112352532716e+00 8.6367703253707688e+00 1.6691308692094225e+01 0 0 -1
1000 1 9.1898994416549069e+00 1.1885734039782094e+00 4.8785731469514282e+00 -1 0 1
294 2 -1.7532093757199214e+00 4.6193101304869728e+00 8.3866814232560856e+00 1 0 -3
921 2 1.0087064070435833e+01 -1.6187361594916840e+00 9.2258114050384439e+00 0 0 -2
842 2 -3.7106583138308382e+00 -5.1250379494855336e-02 1.5061774271681946e+01 -5 0 -5
521 2 7.4814363904404129e+00 -8.2101413926724587e-01 1.0518225771713054e+01 -5 0 -2
813 2 1.0807052575209852e+01 4.8289308692161672e+00 1.5127608311993265e+01 -2 0 -1
912 2 1.1842891501364333e+01 2.9037839019970217e+00 3.2438307862816202e+00 -2 0 1
144 2 1.0804713759477181e+01 8.7652646039704596e+00 6.4247006373886484e-01 2 0 0
746 2 -5.0953528907434400e+00 8.6842417410303590e+00 1.7836154862287408e+01 -2 0 0
771 2 1.3464223945260279e+01 7.1111192788873581e+00 1.0686764602944852e+01 0 0 -3
161 2 -2.7284231851042895e+00 4.3319391419704605e+00 1.1212237285485305e+01 1 0 -5
809 2 4.0768196824381508e+00 4.8693511113156642e+00 7.7959408170658140e+00 -4 0 -1
866 2 -4.2712257352759337e+00 6.0370582821824748e+00 1.7196608135278336e+01 -3 0 -1
94 1 7.1580390037088799e+00 4.3865979446542065e+00 1.3487414265042263e+00 -2 0 -1
225 2 5.1693147523114815e+00 8.2294579776451293e+00 3.7261592147236979e+00 -2 0 -1
770 2 -2.8592561411048001e+00 7.3921481317917603e+00 1.0801787261678657e+01 1 0 -3
123 2 6.8449825935053008e+00 5.3479349420190765e+00 1.5825817953846149e+01 -2 0 -1
846 2 5.9560673096943244e+00 1.2834137132542289e+00 1.3402402917404718e+01 1 0 1
383 2 1.3653717997659626e+01 3.1974846419540350e+00 4.3262415645750696e-01 -2 0 1
231 2 2.3118997254922236e+00 -5.7216983131058785e-01 5.8710218870317155e+00 0 0 -2
499 1 -2.0038907154333518e+00 5.1428372924811061e-01 9.0530859596200752e+00 1 0 1
910 1 1.2729612104545126e+01 2.6338430311248811e+00 3.5336190509993255e+00 -2 0 1
546 2 1.6707550330444443e+00 3.1541806059938464e+00 1.4913146817402758e+01 2 0 1
876 2 1.1363039079434895e+01 8.4619280986893735e+00 1.1850473261553844e+01 -3 0 1
685 1 2.2086919847734046e+00 -1.0249979316290934e+00 1.0030665330064627e+01 -3 0 1
612 2 1.3174051228308706e+01 3.7402567798455557e+00 1.1624853645893069e+01 -1 0 1
713 2 -2.2637989007835539e+00 7.5047286387804402e-01 1.1899295114694189e+01 0 0 3
121 1 6.9387841925256222e+00 4.8405231248520071e+00 1.6709222284199917e+01 -2 0 -1
911 2 1.2710005917854362e+01 2.3571038680567371e+00 4.4753063076740407e+00 -2 0 1
424 1 1.3914782747488852e+01 5.4022919486539562e+00 3.2880983780077555e+00 -2 0 1
811 1 1.0215551331623917e+01 5.5258384916424301e+00 1.5476432930105839e+01 -2 0 -1