LAMMPS data file via write_data, version 3 Mar 2020, timestep = 1000000

1008 atoms
2 atom types

1.9462568940774005e-01 1.8204929310584294e+01 xlo xhi
6.5869066309241830e-02 2.2504519933687614e+01 ylo yhi
1.7153091690206956e-01 1.9334185083091878e+01 zlo zhi
3.0139309351873783e-02 -6.6791707775205769e+00 -4.8171124844401031e-02 xy xz yz

Masses

1 16
2 2

Atoms # atomic

1 1 6.5612452849182841e+00 1.1906320187968085e+00 4.8060723693474978e+00 0 0 0
35 2 -7.6131938056860293e-01 8.5173729982499946e-01 7.5782389135659916e+00 0 0 0
3 2 6.6518386424301479e+00 1.6424352158517543e+00 3.9643709910723599e+00 0 0 0
4 1 3.7548415014602750e+00 1.2551553789493504e+00 5.0842937873243459e+00 0 0 0
5 2 4.7481287557892582e+00 1.0687272597393478e+00 4.8202008747906264e+00 0 0 0
6 2 3.8195599669386548e+00 1.5332646328714759e+00 6.0081282038024639e+00 0 0 0
7 1 -1.5550076031645022e-01 6.4279795799058554e+00 5.2077469253139084e+00 0 0 0
8 2 -3.7849181217523475e-01 6.0251980847265978e+00 6.0969417583066248e+00 0 0 0
10 1 2.3855575294443856e+00 6.4209419103110594e+00 4.8617664233226439e+00 0 0 0
11 2 1.3948391872732611e+00 6.4677134508650056e+00 5.0041636818939876e+00 0 0 0
12 2 2.8885235262934374e+00 7.2289946494532735e+00 5.0185998863055730e+00 0 0 0
22 1 4.4302323686433853e-01 2.8587473344793470e+00 9.5830998638995872e+00 0 0 0
14 2 5.3270516255159883e+00 5.3690013099921572e+00 8.8253657075089009e+00 0 0 0
133 1 1.5762140502132020e+01 3.4412311744708504e+00 6.3942029475346844e+00 0 0 0
301 1 1.5697034810713205e+01 1.0910031455075618e+01 6.6893949041976573e+00 0 0 0
18 2 5.6029032889476547e+00 5.4111994198729700e+00 9.4211442827224667e-01 0 0 0
246 2 1.4394017195503741e+00 1.0483010576547114e+01 5.7352913145004178e+00 0 0 0
21 2 5.5596038860401653e-01 2.4180424825407587e+00 1.1247845838696628e+00 0 0 0
151 1 6.4884059826921145e+00 2.9531016143013389e-01 7.9471292404871399e+00 0 0 0
23 2 1.0630250526932516e+00 3.6701023957161940e+00 9.5939498043608449e+00 0 0 0
9 2 -6.4138414126141441e-01 7.2495848687448934e+00 5.2106815753329494e+00 0 0 0
25 1 5.0553304344663132e+00 6.4577375398217365e+00 7.3972584265388353e+00 0 0 0
26 2 5.6016932537796258e+00 7.2396241811393587e+00 7.5036898396363458e+00 0 0 0
27 2 4.1739797094408910e+00 6.8727407756145817e+00 7.4804251129671471e+00 0 0 0
28 1 5.9164456694840490e+00 6.7507466747120279e+00 2.3859740609325226e+00 0 0 0
29 2 5.7344468548358822e+00 6.3148101102668255e+00 3.2225307844605036e+00 0 0 0
30 2 5.1645456078489964e+00 7.2933186347913361e+00 2.1159806113353534e+00 0 0 0
31 1 1.1046235264712254e+00 1.2165467318711656e+00 2.5707135436091808e+00 0 0 0
32 2 2.0528465158671394e+00 1.0614663938895772e+00 2.2612377354841042e+00 0 0 0
33 2 1.1267245938325023e+00 1.8016279611015422e+00 3.3700522935980479e+00 0 0 0
34 1 1.1072772033044531e-01 1.2136157945636383e+00 7.2855389131965476e+00 0 0 0
305 2 1.2315506732668801e+01 1.1254324774909353e+01 3.1833399578513251e+00 0 0 0
36 2 3.1510781327072079e-01 1.9967611394246831e+00 7.8367101380262474e+00 0 0 0
37 1 6.4669145004361406e+00 2.5559221975822757e+00 2.5430711000998474e+00 0 0 0
38 2 5.4862916391238041e+00 2.8354223741983930e+00 2.5676955462638200e+00 0 0 0
39 2 7.0455518309114193e+00 3.3492121588799231e+00 2.7612871062509026e+00 0 0 0
40 1 3.9386114157784253e+00 2.4828370703961511e+00 7.3198517170178734e+00 0 0 0
41 2 4.9033012569461727e+00 2.7906319092861924e+00 7.2671842258053010e+00 0 0 0
42 2 3.3636677120378677e+00 3.2909734071223165e+00 7.2034024127313128e+00 0 0 0
43 1 -4.0071101501224393e-01 5.1119322760728929e+00 7.5520420046265722e+00 0 0 0
44 2 -9.0339147060731695e-01 4.3042852061097205e+00 7.2610667566096820e+00 0 0 0
45 2 -7.3961712470244856e-01 5.4643205570260083e+00 8.4444437207420631e+00 0 0 0
46 1 2.0402374103043428e+00 5.0267626176542386e+00 2.6667513481565761e+00 0 0 0
47 2 1.1198185089812887e+00 4.7311429754260743e+00 2.8650022492629454e+00 0 0 0
48 2 2.2496740088904579e+00 5.5559580970971982e+00 3.4995576472384160e+00 0 0 0
49 1 6.3807985722842746e+00 3.4353703397576543e+00 6.6185292987322413e+00 0 0 0
50 2 6.0924416282756440e+00 4.0655420613842903e+00 5.9268784659618508e+00 0 0 0
51 2 6.7416388123342017e+00 2.7142363082514507e+00 6.0623153027014922e+00 0 0 0
52 1 4.0239495545679107e+00 3.4978170073537456e+00 3.4663954586439112e+00 0 0 0
53 2 3.1815479283489667e+00 3.8890465169005068e+00 3.0561176903925227e+00 0 0 0
54 2 3.7864391067163599e+00 2.6579130395323531e+00 3.9743692049644439e+00 0 0 0
55 1 -5.4095780245403424e-01 4.3949382569706703e+00 3.1929593350985983e+00 0 0 0
56 2 -7.4729603839420378e-01 5.1960498053656785e+00 3.6996635981827950e+00 0 0 0
57 2 -2.7761738479249964e-01 3.7221131468384456e+00 3.8837302224005676e+00 0 0 0
58 1 2.2101960678686603e+00 4.4309894049154472e+00 6.5822736286233319e+00 0 0 0
59 2 2.4763794595335926e+00 5.3145278406671306e+00 6.2312021898795020e+00 0 0 0
60 2 1.4215063448995715e+00 4.6118548740269132e+00 7.0999412258192693e+00 0 0 0
61 1 8.3941484518142193e+00 6.9548644540276410e+00 1.4187083785647001e+00 0 0 0
62 2 7.4965423835636864e+00 6.7796213631870490e+00 1.7779249936205790e+00 0 0 0
63 2 8.3681001241962694e+00 6.2675732410489555e+00 7.3030118678556433e-01 0 0 0
64 1 2.2571008409168951e+00 6.9622039148168486e+00 8.2765719872688663e+00 0 0 0
65 2 1.3075552112683893e+00 7.1675829578365615e+00 8.1600532393398648e+00 0 0 0
66 2 2.5908495589495573e+00 7.5212700782152213e+00 9.0196545115464861e+00 0 0 0
209 2 3.6449103771605929e+00 1.0886283377562181e+01 7.2112870550559487e+00 0 0 0
68 2 -2.2489996666228249e+00 1.4341506051315163e+00 9.0473497306264345e+00 0 0 0
222 2 3.6428820456186930e+00 1.0936275948271806e+01 2.1840963219953413e+00 0 0 0
72 2 3.9927786608744142e+00 1.4707568458513802e+00 1.0954009120304486e+00 0 0 0
73 1 5.3966808955682062e+00 5.4856647660314994e+00 4.8534928593288145e+00 0 0 0
74 2 5.0828487367173887e+00 5.8732710813365632e+00 5.6538570818778373e+00 0 0 0
75 2 4.7698642147454500e+00 4.9122334755287946e+00 4.4703166495742144e+00 0 0 0
76 1 8.8208772448837203e-01 2.5724299435705293e+00 4.8329041145437559e+00 0 0 0
77 2 4.8340803646643726e-01 1.9777686784100295e+00 5.5502684085202754e+00 0 0 0
78 2 1.5367114818569565e+00 3.0916008050644268e+00 5.3397289603262861e+00 0 0 0
293 2 1.2450135307151671e+01 1.0481153171496540e+01 7.3752701100318108e+00 0 0 0
97 1 1.3852396293033660e+01 4.9698428354999651e+00 9.6030159267542761e+00 0 0 0
584 2 2.8517070823104880e+00 4.6634028093325725e-01 9.1358477181864917e+00 0 0 0
85 1 1.5521644194701398e+01 1.0970339313507871e+00 4.9471966774882343e+00 0 0 0
87 2 1.5481653323474408e+01 1.4280609448030062e+00 4.0153161911649509e+00 0 0 0
88 1 1.2755313636173438e+01 9.5831762580606961e-01 5.0100175613512983e+00 0 0 0
89 2 1.2645591732859184e+01 1.6513279074978608e+00 4.3218205392768931e+00 0 0 0
90 2 1.3746999713726655e+01 8.5877904983245046e-01 4.9663828498526552e+00 0 0 0
91 1 8.4709045339879232e+00 6.6830522183533807e+00 5.5867682872163122e+00 0 0 0
92 2 8.4204958569854522e+00 6.0284053481611748e+00 4.8637825647815998e+00 0 0 0
93 2 9.4149058544022424e+00 6.9134942622245310e+00 5.5811118750699729e+00 0 0 0
94 1 1.1093886383839314e+01 6.4368251140631276e+00 4.9486683432709189e+00 0 0 0
95 2 1.1866798145533027e+01 7.0181937278976694e+00 5.1758550923630544e+00 0 0 0
96 2 1.1289042895368308e+01 5.5432228561224886e+00 5.3594078627874664e+00 0 0 0
486 2 1.1594948033814573e+01 1.8998451246259826e-01 8.7679996245188789e+00 0 0 0
671 2 8.3670967389366986e+00 5.8384719488749068e+00 9.3305575745896707e+00 0 0 0
156 2 1.1886801283979779e+01 6.4108130062554625e-01 2.2517905587783864e+00 0 0 0
101 2 1.4874979448873074e+01 4.9028678591611090e+00 1.5548829389676417e+00 0 0 0
2 2 7.0903262559853157e+00 3.6286535170923029e-01 4.8258907799370450e+00 0 0 0
67 1 -2.2094227145346528e+00 5.1763931894658377e-01 8.7703209265928805e+00 0 0 0
612 2 1.1712029639280949e+01 2.8334055178454292e+00 3.0909492780620651e-01 0 0 0
221 2 5.1193404748851039e+00 1.0760546479184635e+01 2.6478122830280504e+00 0 0 0
109 1 1.3456266469915731e+01 6.3253380991489685e+00 7.2391143656822869e+00 0 0 0
110 2 1.3569016343956273e+01 5.6066013994996702e+00 7.9068773497670888e+00 0 0 0
111 2 1.2549598525431852e+01 6.6378437481957455e+00 7.4927157451370769e+00 0 0 0
112 1 1.4866962636976613e+01 6.5202226030525958e+00 2.8338990751809536e+00 0 0 0
113 2 1.4164310243714727e+01 7.1378827370042863e+00 2.5432881953405784e+00 0 0 0
114 2 1.5704177911112078e+01 6.9500721165835744e+00 2.6030869503064706e+00 0 0 0
115 1 1.0350945536824563e+01 1.1855037534309611e+00 3.0202519241387393e+00 0 0 0
116 2 1.0164505412723313e+01 1.7604905163778215e+00 2.2092610506967612e+00 0 0 0
24 2 -5.1261479696908996e-01 3.1315549892817329e+00 9.6124507212431105e+00 0 0 0
118 1 9.0529892355161703e+00 1.0844074678325111e+00 7.3679574953891231e+00 0 0 0
119 2 9.0656189233398905e+00 1.7030430768460312e+00 8.1737516110270114e+00 0 0 0
120 2 9.2367498864578579e+00 1.6246020150908851e+00 6.5622139891793685e+00 0 0 0
121 1 1.5712856382371111e+01 2.4591515090711500e+00 2.5178949223155476e+00 0 0 0
122 2 1.6297888747235977e+01 3.1948158879246473e+00 2.5896191290395727e+00 0 0 0
123 2 1.5772917370912525e+01 2.0929385314194060e+00 1.5682535042671273e+00 0 0 0
124 1 1.3135888292880416e+01 2.3787886936603870e+00 7.3952883572086225e+00 0 0 0
125 2 1.3953965761809398e+01 2.8184846514255941e+00 7.3420492962115542e+00 0 0 0
126 2 1.3058652657754836e+01 1.9099482501068976e+00 6.5159442121502327e+00 0 0 0
127 1 8.1452649475468277e+00 5.1703099589448991e+00 7.8571196492491877e+00 0 0 0
128 2 7.6651855260321717e+00 4.3190064279326661e+00 7.6855986705136310e+00 0 0 0
129 2 8.1374964324034575e+00 5.7398866928143253e+00 7.0439467376642053e+00 0 0 0
130 1 1.0983941575797287e+01 5.1632318283623047e+00 2.4466641347968459e+00 0 0 0
131 2 1.1680617928506157e+01 4.5346582831273068e+00 2.6247530650836821e+00 0 0 0
132 2 1.1039545443453346e+01 5.8279932424006535e+00 3.1667476315008312e+00 0 0 0
134 2 1.5327537959111442e+01 4.1300387680138115e+00 5.8659970511536201e+00 0 0 0
136 1 1.3191583755080796e+01 3.2498561901932836e+00 3.2905731125503546e+00 0 0 0
137 2 1.3304717048043106e+01 3.9415135645584423e+00 4.0169183281084173e+00 0 0 0
138 2 1.4098321944309488e+01 2.9803694040783486e+00 3.0137872406968778e+00 0 0 0
139 1 8.2617417505078645e+00 4.4877763011601477e+00 3.6160261812482242e+00 0 0 0
140 2 9.0657110081255201e+00 4.8031365192909972e+00 3.1062946051775193e+00 0 0 0
141 2 8.6704146156810644e+00 3.7987974177730939e+00 4.2462671946778654e+00 0 0 0
142 1 1.0980267145339003e+01 4.2060951665953406e+00 6.5574147330290407e+00 0 0 0
143 2 1.1548723028042533e+01 3.6838755446888292e+00 7.1845476860831061e+00 0 0 0
144 2 1.0202336662001878e+01 4.3854242630001243e+00 7.0998853692934940e+00 0 0 0
147 2 1.6929517242768078e+01 8.0451049767660621e+00 1.1501603218702061e+00 0 0 0
148 1 1.0936641982687721e+01 6.8130921357371799e+00 8.3211271337119790e+00 0 0 0
149 2 1.0785538956757875e+01 5.9997004405237409e+00 8.8420846720874877e+00 0 0 0
150 2 1.1207054597707140e+01 7.5353739393867745e+00 8.9175504838436659e+00 0 0 0
587 2 -1.8126187299336292e+00 6.5577825228166500e+00 9.2288546988766171e+00 0 0 0
753 2 3.8537032645318821e+00 9.3352652208864288e+00 8.7914533573911147e+00 0 0 0
153 2 6.1390002381986477e+00 1.0057003493915651e+00 8.5760185923479053e+00 0 0 0
84 2 3.0418960679075497e+00 6.5414746312429140e+00 6.6881550501331155e-01 0 0 0
155 2 1.2766173524374905e+01 1.5244299295248933e+00 1.3006477403434487e+00 0 0 0
80 2 6.5684243128638320e+00 2.1620737286117051e+00 8.4834332706897775e-01 0 0 0
157 1 1.4185702420948667e+01 5.1372679889943962e+00 4.8935992955548961e+00 0 0 0
158 2 1.4570246237922618e+01 5.7192917446070268e+00 4.2569059592269829e+00 0 0 0
159 2 1.3980415948351880e+01 5.6523899723271658e+00 5.6759376592360073e+00 0 0 0
160 1 9.5585568559687371e+00 2.6329006391682794e+00 5.2622122728191938e+00 0 0 0
161 2 1.0337072068775182e+01 3.1955881346644643e+00 5.5712970147012495e+00 0 0 0
162 2 9.9197087207397736e+00 2.0133013232123682e+00 4.5417728569119848e+00 0 0 0
302 2 1.4975103745151880e+01 1.0676759279393863e+01 7.3309234018172180e+00 0 0 0
82 1 2.3773026519914615e+00 5.9710131181358559e+00 2.4172809180826565e-01 0 0 1
83 2 2.0295827383443523e+00 5.5811817091361817e+00 1.1027290825437053e+00 0 0 0
169 1 6.6908713237471211e+00 8.6120173508150160e+00 4.6710780753357852e+00 0 0 0
170 2 7.1859503516491685e+00 7.7945532153376424e+00 4.9279419820410553e+00 0 0 0
171 2 6.9183431237895601e+00 9.2608200919017793e+00 5.3275993563393360e+00 0 0 0
172 1 4.0685260741465745e+00 8.7172795279602351e+00 4.6498759428427539e+00 0 0 0
173 2 3.9133451723830750e+00 9.4518762893561572e+00 4.0188901602694056e+00 0 0 0
174 2 5.0373861253615084e+00 8.4938689484775356e+00 4.6427885330369891e+00 0 0 0
117 2 9.6067872248605877e+00 5.2097960337061577e-01 2.9162623010051414e+00 0 0 0
290 2 1.5928550477135056e+01 1.0586635724688430e+01 2.4247697969117192e+00 0 0 0
167 2 1.1232829139538572e+01 5.7977760798137776e+00 8.9507151699461318e-01 0 0 0
192 2 3.5923496438912972e-01 9.8022108296192290e+00 8.9592927920191396e+00 0 0 0
199 1 1.6411241086259296e+00 8.7752541519979221e+00 2.8919136939585903e+00 0 0 0
200 2 1.7733975460500764e+00 9.7319475378690274e+00 2.6149610146357514e+00 0 0 0
201 2 9.3683699693753775e-01 8.5164697750404894e+00 2.3038957140242502e+00 0 0 0
202 1 2.7142553669628811e-02 8.5062054062791042e+00 7.5579480971477810e+00 0 0 0
203 2 -9.7752690604402881e-01 8.3781931824387073e+00 7.5453402126748559e+00 0 0 0
204 2 1.5355195360647622e-01 9.0309773959690833e+00 6.7506374880506836e+00 0 0 0
205 1 6.7555395522794015e+00 1.0464061007141842e+01 2.4286125048686502e+00 0 0 0
206 2 6.8294942790272541e+00 9.6990441896268003e+00 3.0620800406638180e+00 0 0 0
207 2 6.6584860361137927e+00 1.0086948196327988e+01 1.5270268182004303e+00 0 0 0
208 1 4.0867406283689522e+00 9.9716115173674389e+00 7.1881711127370673e+00 0 0 0
272 2 1.0313132035019068e+01 9.5068072840524973e+00 8.0593898741086356e-01 0 0 0
210 2 3.9778540407417857e+00 9.6022481048393722e+00 6.3217510056635602e+00 0 0 0
219 2 6.2116305083564445e+00 1.0294781020332717e+01 6.9743740059662116e+00 0 0 0
248 2 7.9416659966343603e+00 8.9237235389339258e+00 3.2746636650553851e-01 0 0 0
306 2 1.3779612298372147e+01 1.0563934342425483e+01 3.3498431446102157e+00 0 0 0
311 2 1.0871380780962802e+01 1.0919066483556858e+01 6.0990241091012436e+00 0 0 0
602 2 1.6589798594509318e+01 4.6980523531650373e+00 1.8110511508347180e-01 0 0 0
235 1 -2.5539061424062885e+00 7.8747446206432814e+00 8.1799396362263632e+00 0 0 0
236 2 1.5130011438371380e+01 8.6192993169457424e+00 8.7285690607464090e+00 -1 0 0
238 1 3.8490998107395242e+00 8.0028850279187509e+00 1.5511778323322405e+00 0 0 0
239 2 3.0314192365976771e+00 8.1210480308602158e+00 2.0366883600225227e+00 0 0 0
240 2 3.9313836603081973e+00 8.7828604137952322e+00 9.8553289345438488e-01 0 0 0
244 1 7.3142334953304444e-01 9.9467642130414422e+00 5.2397498063948733e+00 0 0 0
245 2 1.0649164154889870e+00 9.4267532146419484e+00 4.4279992290572414e+00 0 0 0
304 1 1.2886018793746471e+01 1.0797549700755779e+01 3.8077399525657278e+00 0 0 0
237 2 1.4651157418075188e+01 7.5577160348959458e+00 7.6853092003567811e+00 0 0 0
70 1 3.9211701980464291e+00 6.9656861307192997e-01 1.6587322084985425e+00 0 0 0
253 1 1.5882208299860176e+01 8.6386304558478173e+00 4.9973286849749758e+00 0 0 0
255 2 1.5707626355589690e+01 8.9550823665037314e+00 4.0993191747213213e+00 0 0 0
256 1 1.3217549378272746e+01 8.4997524890744387e+00 5.2661480572187278e+00 0 0 0
257 2 1.4168933826110329e+01 8.5421404727587849e+00 5.1078800189983280e+00 0 0 0
258 2 1.2858129671150847e+01 9.2030666176576723e+00 4.7583373694931268e+00 0 0 0
69 2 1.5064947641795253e+01 4.0064265207860378e-01 8.1269996059140279e+00 0 0 0
751 1 3.6146048865581775e+00 8.9837700812623851e+00 9.6885666867429023e+00 0 0 0
146 2 1.7593753982381543e+01 6.7007528136858063e+00 1.3286353300218490e+00 0 0 0
276 2 9.6210354934854845e+00 1.0021173010638050e+01 9.2912239370049736e+00 0 0 0
283 1 1.0344148603947149e+01 8.3631883557282958e+00 2.4896648309276186e+00 0 0 0
284 2 1.0196748944428581e+01 8.7085738728188566e+00 3.3788128731435711e+00 0 0 0
285 2 9.6367816859050315e+00 7.6985383464237955e+00 2.3299200778942479e+00 0 0 0
286 1 9.2309082696891096e+00 9.1821143765917856e+00 7.6563126443750535e+00 0 0 0
287 2 9.8248653384756519e+00 8.3862185533959828e+00 7.6766129163829104e+00 0 0 0
288 2 8.3215573372292688e+00 8.8657421065324193e+00 7.9027211667207045e+00 0 0 0
289 1 1.5241120143764723e+01 9.9077393470435347e+00 2.5867395129196988e+00 0 0 0
608 2 5.9038677720162767e+00 3.1215151927217510e+00 9.7270574364504814e+00 0 0 0
291 2 1.5239600168466874e+01 9.3731401421250737e+00 1.7946227348404538e+00 0 0 0
292 1 1.3086283713051765e+01 9.7479912872196088e+00 7.5865166141007911e+00 0 0 0
668 2 1.2720156786548667e+01 2.0254283054878246e+00 8.9218448355007940e+00 0 0 0
294 2 1.3228400823261477e+01 9.2876526640798787e+00 6.7815807275598994e+00 0 0 0
220 1 4.2199181859805615e+00 1.0902093869241499e+01 2.9552463165708054e+00 0 0 0
103 1 9.9871169490744798e+00 2.4718076432750413e+00 5.6031940218788467e-01 0 0 0
780 2 1.3281517718582588e+01 9.4666103985644341e+00 5.0026837138004132e-01 0 0 0
217 1 6.8317263245578435e+00 1.0733569116176842e+01 6.4145987601877090e+00 0 0 0
319 1 6.7126967773656112e+00 8.1490698010301159e+00 8.6616640389382713e+00 0 0 0
320 2 6.6393388623231555e+00 8.9508473295102409e+00 9.2482021876904241e+00 0 0 0
321 2 7.0431188884742362e+00 7.4416637092986822e+00 9.2878869680482872e+00 0 0 0
322 1 1.3044689050186367e+01 8.0869919151924634e+00 1.4407126634956877e+00 0 0 0
323 2 1.2292185399944298e+01 8.3360207652261114e+00 2.0219335661046656e+00 0 0 0
521 2 2.4777670630316835e+00 5.4211556252584954e+00 9.4081970808102540e+00 0 0 0
328 1 9.7981812794469736e+00 9.8950042503476219e+00 5.0019299312547814e+00 0 0 0
329 2 9.3733541541519099e+00 9.5183823841243989e+00 5.7832610559746751e+00 0 0 0
330 2 9.3440244366098639e+00 1.0622302723393648e+01 4.5573264190268388e+00 0 0 0
154 1 1.2721829896387483e+01 6.1464213775915066e-01 1.7787242675490016e+00 0 0 0
610 1 1.2705122580873558e+01 2.7424762984042803e+00 1.8875632357174946e-01 0 0 1
399 2 8.0840793749939444e+00 1.6364487772374686e-01 9.7701529830795952e-01 0 0 0
145 1 1.7396578524531108e+01 7.5593624798990771e+00 1.8416985074588277e+00 0 0 0
152 2 7.2307414209622092e+00 7.2289696096819556e-01 7.5097132500576338e+00 0 0 0
254 2 1.6074534881404301e+01 9.3811503166209729e+00 5.5318363029344635e+00 0 0 0
135 2 1.5869232566383598e+01 2.6047342171610666e+00 5.9185144432482710e+00 0 0 0
108 2 8.0935903986774616e+00 2.8104088880822018e+00 9.7124767098546148e+00 0 0 0
331 1 1.5930415762060470e+01 8.8859298743343746e+00 2.1182473510450678e-01 0 0 0
585 2 3.4382014037838800e+00 1.8325410753421361e+00 8.9692757919412411e+00 0 0 0
102 2 1.4173889089352338e+01 4.0827581443689906e+00 4.3818005850003106e-01 0 0 0
836 2 1.2660236017904399e+01 9.1265751036971761e+00 9.1208177541215214e+00 0 0 0
324 2 1.2624492709299517e+01 7.4243209133800816e+00 8.8607583731572337e-01 0 0 0
165 2 1.6733552982998532e+01 7.7574773464427227e-01 4.6528179113820917e-01 0 0 0
86 2 1.6098812578605589e+01 3.1785015970251473e-01 5.0749094351046899e+00 0 0 0
224 2 -4.2247567891176985e-01 1.0838235786199730e+01 4.2526979607863122e+00 0 0 0
100 1 1.4816429821856838e+01 4.8162848482306702e+00 5.9623523551460211e-01 0 0 0
13 1 5.5404972602249121e+00 4.9755560582760765e+00 9.6929064608779001e+00 0 0 0
106 1 9.0523924496294477e+00 2.5576636103839077e+00 9.6497224381273821e+00 0 0 0
17 2 4.7128393582090382e+00 4.2626810581539845e+00 4.6739988687567152e-01 0 0 0
583 1 3.3487076746451616e+00 1.1821796754494169e+00 9.6719905226320879e+00 0 0 0
99 2 1.2871990160798591e+01 4.8623315912792968e+00 9.5002114618891902e+00 0 0 0
19 1 7.4776474543069649e-01 2.6244644138589943e+00 1.8935620072142201e-01 0 0 0
482 2 -1.4533676492068937e-03 1.5272015512038067e-01 1.9018334961681562e+00 0 0 0
104 2 9.4552497693042987e+00 3.1426429604949200e+00 1.8978396398897091e-01 0 0 1
528 2 2.6732732559766879e+00 2.9555713984188512e+00 2.2301195025999981e-01 0 0 0
332 2 9.6444756999780274e+00 9.3359394368173891e+00 1.8634703841279205e+01 0 0 0
607 1 6.4556244071222242e+00 2.3231755949685828e+00 9.7739599782574551e+00 0 0 0
670 1 8.1053118881892381e+00 6.2393970441082294e+00 1.0202524603023461e+01 0 0 0
826 1 9.6245100013874492e+00 7.9324575328286722e+00 1.1314468399943390e+01 0 0 0
906 2 -1.9431037071074564e+00 1.1583114132151753e-01 1.7650554702115024e+01 0 0 0
164 2 8.5951072388185050e+00 8.1867909601957900e-01 1.8794843757307945e+01 0 0 0
601 1 1.0803749579006826e+01 4.9625506971819151e+00 1.9261181515924896e+01 0 0 0
810 2 8.8403628902011686e+00 1.1221667378102158e+01 1.2748579304701719e+01 0 0 0
526 1 -3.0676543741682538e+00 2.8361487502733489e+00 1.9174344338080822e+01 0 0 0
509 2 7.7930742206403281e-02 2.1509770635909783e-01 1.4613449044240197e+01 0 0 0
539 2 -3.9804288997125354e+00 9.8370038264794946e-01 1.7057783763208889e+01 0 0 0
834 2 5.6359517754643997e+00 1.0510124194859308e+01 1.4609196002323360e+01 0 0 0
574 1 4.9133627511869360e-01 4.9984245920140480e-01 1.1038196928774154e+01 0 0 0
655 1 3.3193723732120279e+00 2.9894554520217376e-01 1.7955364499379094e+01 0 0 0
807 2 1.2027657359499752e+01 9.7672538737915602e+00 1.5064726278215515e+01 0 0 0
15 2 4.5850858015746070e+00 4.8887930691169084e+00 9.9516251812929610e+00 0 0 0
779 2 6.5043332020831102e+00 9.6459537068301966e+00 1.8163957057515255e+01 0 0 0
749 2 -2.1063783403057830e+00 1.0286805981672551e+01 1.4631341369588840e+01 0 0 0
505 1 3.1699202058805733e+00 1.1569567762022634e+00 1.4317763450143362e+01 0 0 0
506 2 3.2592389545485991e+00 1.7829149330250189e+00 1.5086616664335439e+01 0 0 0
805 1 1.2314086992160794e+01 1.0512421456569307e+01 1.5656091136908286e+01 0 0 0
508 1 5.0250609616313024e-01 1.0590974306476986e+00 1.4818052518030013e+01 0 0 0
98 2 1.3924346424865725e+01 5.7551518399635162e+00 1.0219805447732959e+01 0 0 0
510 2 1.4641415797376141e+00 9.3460400099804564e-01 1.4720460522542462e+01 0 0 0
511 1 -4.2192381214855095e+00 6.4446074334222496e+00 1.4832757380131563e+01 0 0 0
512 2 -4.1210803306272954e+00 5.7245282765497718e+00 1.4150639894403280e+01 0 0 0
513 2 -4.0745841415807122e+00 5.9552489975488969e+00 1.5708963207605692e+01 0 0 0
514 1 -1.4277396382184753e+00 6.5564034748589330e+00 1.4159800189255410e+01 0 0 0
515 2 -1.3188454871052318e+00 5.6800561938079133e+00 1.4623988550924267e+01 0 0 0
516 2 -2.3659344416303965e+00 6.8790160913441589e+00 1.4269551997584905e+01 0 0 0
523 1 -2.1666440094817681e+00 3.0632625299443315e+00 9.8365209458346445e+00 0 0 0
519 2 1.9926722718061916e+00 5.4277649635920895e+00 1.7932506704803529e+01 0 0 0
588 2 -1.5675145280704006e+00 5.7168437237929810e+00 1.0457585435147905e+01 0 0 0
522 2 2.6083841002207540e+00 5.1888152432181593e+00 1.0882710201069370e+01 0 0 0
518 2 8.3684661683041561e-01 4.5646931831911113e+00 1.8534265277273455e+01 0 0 -1
825 2 3.2685109955912024e+00 8.8730115340592963e+00 1.7593698013676864e+01 0 0 0
525 2 -2.1403666397263121e+00 2.5382178898960315e+00 1.0710532170464909e+01 0 0 0
828 2 9.0152997525482448e+00 8.0265434343376629e+00 1.2047171366759864e+01 0 0 0
527 2 -2.9359334893013527e+00 2.3939490962752803e+00 1.8300797086003236e+01 0 0 0
529 1 1.4487148473387901e+00 6.2806542956956593e+00 1.6550864259847906e+01 0 0 0
530 2 1.3741656105819562e+00 5.9270832379855936e+00 1.5638017094039583e+01 0 0 0
531 2 5.3756082722169918e-01 6.6084650539276550e+00 1.6915848437260976e+01 0 0 0
532 1 2.3548282374074683e+00 6.2652505528025655e+00 1.2092864151183774e+01 0 0 0
533 2 3.1716189143706073e+00 6.7971425979225062e+00 1.2013861405147175e+01 0 0 0
534 2 2.2667877435574146e+00 5.8227321397062095e+00 1.3001633087877648e+01 0 0 0
535 1 -1.8898587907304543e+00 1.1951785676113389e+00 1.2077323338598738e+01 0 0 0
658 1 9.1230882060193164e+00 2.8784109592683838e-01 1.0995817408112922e+01 0 0 0
537 2 -1.1050694671140562e+00 6.9551744004568938e-01 1.1740706570633632e+01 0 0 0
538 1 -3.0671015674428541e+00 1.2456657612332354e+00 1.7011474280027862e+01 0 0 0
809 2 1.0295761599532774e+01 1.0570593310617340e+01 1.2858889502714547e+01 0 0 0
540 2 -2.9802485134276790e+00 1.5469559465154215e+00 1.6121026712693808e+01 0 0 0
541 1 2.7197712765959778e+00 2.3912294949388815e+00 1.2187181259894279e+01 0 0 0
542 2 2.9358486951565093e+00 1.8448792492123558e+00 1.2959965658563998e+01 0 0 0
543 2 2.8963289590526551e+00 1.9089640530537755e+00 1.1349013433159532e+01 0 0 0
544 1 5.6279766352002714e-01 2.7581613215692511e+00 1.6825692100952317e+01 0 0 0
545 2 4.6246166331031890e-01 2.2762714440387772e+00 1.7761867806677820e+01 0 0 0
546 2 2.8235997377076671e-01 2.1065767981785872e+00 1.6114570049751549e+01 0 0 0
547 1 -3.5715441379732060e+00 4.8023316738753916e+00 1.7093083430660549e+01 0 0 0
548 2 -4.2535589359591395e+00 4.1969122740300735e+00 1.6789322168163977e+01 0 0 0
549 2 -3.7961919706057450e+00 5.0453444960286840e+00 1.7975947434312708e+01 0 0 0
550 1 -1.6080894773255068e+00 4.9623497291999845e+00 1.1909463671867210e+01 0 0 0
551 2 -8.6256390407724659e-01 4.3533199842181638e+00 1.2113179001287300e+01 0 0 0
552 2 -1.6641593487561561e+00 5.6422529184512706e+00 1.2636994392624105e+01 0 0 0
553 1 2.8873059086851871e+00 3.2539253222865505e+00 1.5929608860881260e+01 0 0 0
554 2 2.1762597075791943e+00 3.0102135381504365e+00 1.6590007724232734e+01 0 0 0
555 2 3.6390818618084646e+00 3.5710893314351875e+00 1.6486985667835121e+01 0 0 0
556 1 3.0323128860899384e-01 3.1818794116593270e+00 1.3029040869967060e+01 0 0 0
557 2 9.7060042444843475e-01 2.8803192123521568e+00 1.2429132165146074e+01 0 0 0
558 2 2.9182008617332045e-01 2.3744515315663000e+00 1.3664856570616479e+01 0 0 0
559 1 -3.9832761338671414e+00 4.1814972130556125e+00 1.3037770303599553e+01 0 0 0
560 2 -3.3101539291276483e+00 4.4508290158136221e+00 1.2352400310792433e+01 0 0 0
561 2 -3.6093818871890839e+00 3.4533555367409012e+00 1.3580975148339517e+01 0 0 0
562 1 -1.3137854515449878e+00 4.4734868302486674e+00 1.5806019506260466e+01 0 0 0
563 2 -7.3569640881851850e-01 3.8895406164315394e+00 1.6288814123303709e+01 0 0 0
564 2 -2.1041228726175643e+00 4.5727229413584807e+00 1.6475332560663936e+01 0 0 0
565 1 4.8920099997689999e+00 7.3608426168666554e+00 1.1276623237114551e+01 0 0 0
566 2 4.5157140202550909e+00 7.9528320253863125e+00 1.0602381415265391e+01 0 0 0
567 2 5.4107045760513959e+00 6.6913791518491008e+00 1.0751713502148732e+01 0 0 0
568 1 -1.1282700868810034e+00 7.3148482047608443e+00 1.7730142318509003e+01 0 0 0
569 2 -1.4589292843706128e+00 6.5353200143725552e+00 1.8204989675229655e+01 0 0 0
570 2 -8.3519032268828397e-01 8.0226197041327936e+00 1.8370850485789326e+01 0 0 0
808 1 9.4888247116974220e+00 1.0698638102802205e+01 1.3324593549943797e+01 0 0 0
572 2 -5.9450567389746105e+00 1.2601935052797772e+00 1.8237670317164749e+01 0 0 0
815 2 8.8119939177295805e+00 1.1004189216392614e+01 1.6650402253800962e+01 0 0 0
571 1 -5.6461692658796228e+00 4.6174898531542080e-01 1.7788008563454156e+01 0 0 0
576 2 4.9006317429889856e-01 1.3066953033938280e+00 1.0474033010431132e+01 0 0 0
577 1 1.9188507666565835e+00 4.9511052804660887e+00 1.4289772741205246e+01 0 0 0
578 2 1.2343988829975165e+00 4.3032746935027113e+00 1.3940672655376423e+01 0 0 0
579 2 2.5690192241146415e+00 4.3887446376936801e+00 1.4817024459015489e+01 0 0 0
580 1 -2.5838464046395671e+00 2.5647091311432217e+00 1.4590159343294644e+01 0 0 0
581 2 -2.0473209454550974e+00 2.1423643389380147e+00 1.3834764287375167e+01 0 0 0
582 2 -2.0801700866641539e+00 3.2998058503379486e+00 1.5052329577524606e+01 0 0 0
752 2 3.2551950737237427e+00 9.7191871686773155e+00 1.0185034705257511e+01 0 0 0
249 2 6.7975126162642141e-01 9.5465108530316307e+00 1.8254803596360127e+01 0 0 0
589 1 1.1926452004043117e+01 1.0158878176335535e+00 1.4362603390654064e+01 0 0 0
590 2 1.0954101682513222e+01 7.4273455564865931e-01 1.4565326907347044e+01 0 0 0
591 2 1.2202241645767433e+01 1.5674933428559328e+00 1.5164833276124718e+01 0 0 0
592 1 9.2873250431840813e+00 1.0933961086431545e+00 1.4999807182970763e+01 0 0 0
776 2 7.6994522445721998e+00 1.0922574642670389e+01 1.0335166705989646e+01 0 0 0
594 2 9.1659748008759543e+00 1.6271662700425400e+00 1.4184789283987163e+01 0 0 0
595 1 4.9732754522105749e+00 6.4573090956077088e+00 1.4665832472424627e+01 0 0 0
596 2 4.9205159350694441e+00 5.8282630763717300e+00 1.5420964523647893e+01 0 0 0
597 2 4.8706081366688858e+00 5.9213135824768282e+00 1.3826655798454098e+01 0 0 0
598 1 7.8135355445526500e+00 6.2754649750142786e+00 1.4636619695227020e+01 0 0 0
599 2 6.9880014357028815e+00 6.4078539288101553e+00 1.5070072515756381e+01 0 0 0
600 2 7.6304411460128945e+00 5.6880426312012817e+00 1.3869011222632478e+01 0 0 0
604 1 1.0992093585019864e+01 4.6124860381341897e+00 9.7920810764705664e+00 0 0 0
603 2 1.0854625532733451e+01 5.1848873088336225e+00 1.8340090171549406e+01 0 0 0
188 2 -5.5022971007872545e+00 9.4362757102005208e+00 1.8515565653848597e+01 0 0 0
605 2 1.1085250369416636e+01 4.9551861541057596e+00 1.0789908583378807e+01 0 0 0
20 2 1.1506236386888494e+01 3.2923832167049984e+00 1.9091399539771693e+01 -1 0 -1
837 2 1.2182391542846977e+01 9.2290820403934823e+00 1.0664258615304083e+01 0 0 0
721 1 3.3433319305760527e+00 1.0842391693408299e+01 1.5987575642893582e+01 0 0 0
609 2 6.3270325403547236e+00 2.0209835779731602e+00 1.0731378607640679e+01 0 0 0
16 1 -1.3715433782268995e+00 4.9358094207722480e+00 1.9290029761229214e+01 0 0 -1
611 2 6.0744282263576164e+00 2.1745606686116350e+00 1.8508646604396517e+01 0 0 0
613 1 1.0325067288628475e+01 6.1636088571865901e+00 1.6848863211977175e+01 0 0 0
614 2 1.1012667840660793e+01 6.8743130334863247e+00 1.7088525918894533e+01 0 0 0
615 2 9.4783014490468602e+00 6.5491595710191017e+00 1.7095696067402251e+01 0 0 0
616 1 1.1617346189886764e+01 5.7259103840139920e+00 1.1941336535872153e+01 0 0 0
617 2 1.1595293892363504e+01 5.5352021574498966e+00 1.2892173951354422e+01 0 0 0