LAMMPS data file via write_data, version 3 Mar 2020, timestep = 6400000

2016 atoms
2 atom types

0.0000000000000000e+00 1.7945082249153632e+01 xlo xhi
-3.3168324012682646e+00 4.8312992378178279e+01 ylo yhi
0.0000000000000000e+00 1.9086567816411947e+01 zlo zhi
4.8877060812961455e-02 -6.6520713215263676e+00 -2.3717604217154076e-02 xy xz yz

Masses

1 16
2 2

Atoms # atomic

338 2 5.1943708475040840e+00 2.8984203217282047e+00 1.1956456928620494e+01 -2 0 -3
409 1 5.1977087095325425e+00 5.5306476941283460e+00 4.8904648046503354e+00 1 0 -2
1167 2 6.3578880555968782e+00 -1.6767584651543332e+00 1.8232930156686425e+01 1 1 -1
9 2 1.4374171691926906e+01 8.9450466459609945e+00 9.5889274281945251e+00 -1 0 -2
51 2 5.3464044601778689e+00 8.5390681653349354e-01 9.3414183492729883e+00 0 0 0
1513 1 7.7448812012492620e+00 1.3206083352132882e+00 1.6522787208606331e+01 1 0 0
1365 2 1.4014510706292700e+01 9.4971375496384969e-01 7.1274517884777167e+00 -2 1 0
895 1 -3.1607494764324535e+00 7.3314263715745298e+00 1.7269050354075155e+01 1 0 0
1133 2 -5.6673616952860097e+00 2.4295741951138217e+00 1.8470034540192898e+01 0 0 -2
820 1 3.2092454086256321e+00 9.0758581676311838e+00 1.7824187572061234e+01 -5 0 0
944 2 1.1746398093925066e+01 9.0587252733057984e+00 1.5278453352909132e+01 0 0 2
704 2 4.5403223259077814e+00 5.4372632029380590e+00 1.3150607782403954e+00 -4 0 -1
1250 2 -4.9094693397686830e+00 -1.9543872811566576e-01 1.5395818793369573e+01 0 1 0
1873 1 1.5570627203803711e+00 -3.0174068850415985e+00 1.0203501680873766e+01 1 1 1
1001 2 1.0719528619933904e+01 -1.1994871063293955e-01 9.6774580300091806e+00 0 0 1
8 2 1.4745652723280838e+01 8.0440907972657651e+00 8.3739029710002129e+00 -1 0 -2
792 2 2.1818283798861726e-01 -2.8437269390956539e+00 8.9165647713164431e-01 0 0 1
478 1 1.4798334774282473e+00 4.2966481542086319e+00 1.6112678326855470e+01 -1 0 -6
447 2 6.9793146624994398e+00 8.1863463114458188e+00 4.9277937089311301e+00 0 0 0
318 2 -1.2968658664302786e+00 -2.5337282567052117e+00 1.3451569027897330e+01 2 0 0
690 2 5.6546725631946249e+00 3.1024324224470066e+00 7.8069222329556043e+00 -4 0 -1
1438 1 8.4439629547932462e+00 3.8934418253817080e+00 1.5749580076411155e+01 1 1 0
855 2 4.9236334980556817e+00 -1.3705233576733535e+00 8.0903585193353056e+00 -1 0 -2
246 2 1.0210451057342485e+01 -2.6018844044525578e+00 5.4037007323837338e+00 -4 0 -4
314 2 1.6604536844758812e+01 2.1880528805947561e+00 1.1181834382199416e+00 -4 0 -2
1406 2 4.5637132247275414e-01 6.5413304830887657e+00 1.5919383042316124e+01 -1 1 -3
836 2 1.2536435022002186e+00 -1.5061254793149459e-02 7.5594747387654433e+00 0 0 1
1538 2 7.7341977776448250e+00 -1.8195578052306427e+00 1.3302928837125430e-01 0 1 1
660 2 6.5206653945450110e+00 -2.7906818077171209e+00 1.5829849270837929e+01 -1 0 -1
134 2 2.1471301563763188e+00 7.0944721416432817e+00 1.2274059029373234e+01 0 0 -1
531 2 1.0658631028222661e+01 -1.5477024696440773e+00 1.8293559573773219e+01 -1 0 -1
774 2 1.6467739117720930e+00 -1.9489457094895171e+00 1.4987404603143547e+01 -1 0 -3
918 2 7.1918907508846539e+00 4.7473431122194363e+00 1.2114688079040782e+01 0 0 1
638 2 1.0893188291422947e+01 -1.4242563033349394e+00 3.9647260428122904e+00 -1 0 -1
722 2 5.8786694572720100e+00 4.4575871658765500e+00 1.7401550475803838e+01 -6 0 -4
705 2 4.4905555500347818e+00 6.9987443070109236e+00 1.1665268448826522e+00 -4 0 -1
681 2 3.9689150232142634e+00 -1.9042145088483540e+00 1.2022645688625172e+01 -3 0 -1
273 2 -3.5047736225493784e+00 7.3979919182764569e+00 1.3874420526215328e+01 0 0 -2
759 2 2.7152750941587667e-01 -8.3189188757596932e-01 5.1857216423618944e+00 -1 0 -1
446 2 7.4536801428601844e+00 7.4027521371040965e+00 3.6573587823194873e+00 0 0 0
167 2 -2.6042632098680381e+00 -3.3167539802516233e+00 1.1325070344746003e+01 -6 0 -4
1470 2 -3.9183245356310983e+00 -1.4880822196474917e+00 1.3510971395141574e+01 0 1 0
202 1 2.9984311062342144e+00 6.3850778556635124e+00 1.7560643995821387e+01 -3 0 0
364 1 2.2414211978347627e+00 9.4173657938869777e+00 2.0359838379467772e+00 2 0 2
500 2 -1.2089624111334585e+00 5.2398455922860059e+00 6.5982596220011738e+00 -1 0 -1
1468 1 -4.5067327033596163e+00 -2.2717444312421202e+00 1.3590556195506220e+01 0 1 0
838 1 7.2020013149795634e+00 7.2964010758717777e+00 9.7701141072868580e+00 -2 0 -3
1516 1 6.6529612483347869e+00 -1.7661175688004780e+00 1.4028976651628861e+01 0 0 -1
1697 2 -2.9401073992709215e+00 1.1148794255309307e+00 1.5886113172268519e+01 1 1 0
1045 1 1.0681017626646621e+01 -1.4242724322380089e+00 1.4519763678243786e+01 -1 0 -1
748 1 1.0415037649630801e+01 6.8851824451933918e+00 1.7773058127446088e+01 -3 0 0
988 1 1.3892236682095650e+01 9.2148671031615468e+00 3.7593581688783058e+00 -2 0 0
261 2 -5.2696536607349831e-01 2.8267505016232244e+00 6.5103318511985817e+00 -1 0 -2
853 1 4.3800328115377791e+00 -1.5243221274413521e+00 7.2832203623998888e+00 -1 0 -1
1220 2 1.2002435881381942e+01 6.1715900947338742e+00 1.4531149379433619e+00 -1 1 0
835 1 1.9338020835502938e+00 -7.3335603317338371e-01 7.5933160372036923e+00 0 0 1
236 2 3.8525999320969984e-01 7.1096879330378027e+00 9.7331675246513658e+00 -1 0 1
1440 2 7.6963266804079078e+00 4.5346655740372706e+00 1.5832951151280364e+01 1 1 0
1041 2 -3.0443733679036367e-01 5.3194693495474077e+00 1.2765598236309636e+01 0 0 0
961 1 1.3488714873860889e+01 8.1592067691330996e+00 1.2779898426055928e+01 -3 0 -2
540 2 1.0187606751938091e+01 4.5240991100503365e+00 9.2678729157673843e+00 -4 0 -4
480 2 2.0248267444873402e+00 3.4877598163855996e+00 1.6050049951022405e+01 -1 0 -6
1753 1 2.0981515084661115e+00 -1.9452723296297221e+00 1.7169511694427431e+01 -1 1 0
1048 1 1.1846791266003342e+01 7.9275701282971625e+00 3.1082290692929287e-01 -1 0 0
396 2 3.9234834391773843e-01 -1.5608003774785335e+00 1.0328494087578232e+01 -3 0 -3
592 1 -2.1570271654931608e+00 3.6700796705745473e+00 1.0864528885263727e+01 -2 0 -1
1354 1 7.3590986847820039e+00 3.3869040467390201e+00 9.7439118454055440e-01 -1 1 -2
1813 1 2.4892860012225939e+00 3.8446852409494143e+00 8.0307653770069507e+00 1 1 1
1313 2 3.3133289932614058e+00 1.6647936641131498e+00 1.5946699480287037e+01 1 1 0
97 1 -3.0844859103268889e+00 3.6855990345580851e+00 1.4945387890571022e+01 1 0 -2
445 1 6.6543642062647468e+00 7.6755354849548745e+00 4.1853857047494225e+00 0 0 0
419 2 1.2175652747847083e+01 5.8839616543720368e+00 1.6071260176415567e+01 -2 0 2
593 2 -2.6015110263700514e+00 3.0771490775433650e+00 1.1450162336670139e+01 -2 0 -1
505 1 2.8936214773053557e+00 9.1011142340336537e+00 7.8723339851082539e+00 -5 0 -3
1396 1 2.3160165605865117e+00 4.2504339182913595e+00 1.0583942596519105e+01 0 1 0
553 1 3.4279974614014872e+00 7.5121460232562232e-01 6.3562110546677175e-01 -6 0 -2
259 1 -2.4687687732801233e-01 1.9671535284485975e+00 6.8969344179362739e+00 -1 0 -2
922 1 4.9374966738090658e+00 5.6893699352794709e+00 9.2451412876762156e+00 -3 0 -4
776 2 1.2485394376093007e+01 6.3814011120296676e+00 6.9956403431579002e+00 -1 0 2
264 2 1.4558843249976118e+01 -2.2629163408702091e+00 8.0268804803510498e+00 -1 0 0
170 2 -3.3446824788563241e+00 4.2614269396462010e+00 9.6622066790952772e+00 -4 0 1
249 2 1.1677689322085531e+01 4.0300264660576488e+00 5.9862579904097135e+00 0 0 2
1754 2 1.9827843477604228e+00 -2.8509593697246696e+00 1.7455990980109490e+01 -1 1 0
1304 2 1.2631723998765672e+01 -2.2042792240237956e+00 1.0312289137488985e+01 -1 1 1
613 1 1.4259351558138128e+01 1.0987294306377793e-01 3.3996465725776281e+00 -1 0 0
963 2 1.2769192052073633e+01 8.6153918072209237e+00 1.3343751221473314e+01 -3 0 -2
1190 2 -6.1665800410506870e+00 1.8195914274662250e-01 1.8578041133275718e+01 1 1 0
266 2 9.4425885348042371e+00 3.9212111964719085e+00 4.4706284346018084e+00 -1 0 -2
1533 2 9.9502993973159874e+00 5.0366121942972217e+00 1.3798694464410302e+00 1 0 0
1922 2 1.1029878054600847e+01 1.2827764377781445e+00 1.2584252048737916e+01 -1 1 1
911 2 6.0066348659534761e+00 -1.4138103148539063e+00 5.9482224483260824e+00 -3 0 2
161 2 1.5823991750654988e+01 2.9643046932531529e+00 4.0990642766134604e+00 1 0 -4
162 2 1.4799353872250045e+01 3.0349402357246760e+00 5.2192999329257956e+00 1 0 -4
793 1 4.7038525741500790e+00 -1.8893999310409402e+00 3.1644063565929409e-01 -2 0 0
213 2 1.5075696693460321e+01 3.8088083221813207e+00 5.9428902127620767e-02 -6 0 -3
517 1 -3.6403064355552059e+00 2.4127695483123519e+00 1.2718578330725563e+01 -3 0 -4
431 2 -6.4989801201787856e-01 9.0814065307164125e+00 1.8032344819969921e+01 1 0 3
1079 2 1.4075912334452177e+01 4.4651014688472408e+00 6.8083867689285773e+00 0 1 1
1405 1 8.6121915318447861e-01 7.3792258200490490e+00 1.5727794389290361e+01 -1 1 -3
247 1 1.1439736018107705e+01 3.2082399951447345e+00 5.5298309043884091e+00 0 0 1
416 2 -1.4405997355427340e+00 -1.9556025332014597e+00 1.6176382582952396e+01 0 0 -2
1924 1 8.4056443373849135e+00 9.1683105299913237e-01 1.9054710551334498e+01 0 1 1
230 2 1.2067654392507741e+01 1.4687424843766692e+00 1.9601896613033325e+00 -1 0 -2
829 1 1.2145842079087359e+01 6.4126842839245786e+00 1.1050952675809693e+01 -3 0 -1
757 1 5.5026167943217352e-01 6.3867436026867175e-02 4.9811279642779454e+00 -1 0 -1
437 2 1.1536894485140675e+01 6.7489347861578874e+00 8.8269452010064047e+00 -3 0 -1
727 1 1.6739998036114891e+01 -8.7950308467020388e-01 2.7626596617494692e+00 -1 0 2
1469 2 -3.8820983375025095e+00 -2.9917614408417075e+00 1.3836259460143371e+01 0 1 0
713 2 1.2922933196646484e+00 2.9725364534688055e+00 1.3002925340460166e+01 0 0 4
1108 1 8.4838398715958476e+00 1.6585785060308744e-01 1.4310372886046579e+01 0 0 -1
688 1 6.3166394665527523e+00 3.8080741896620545e+00 7.8327257545859101e+00 -4 0 -1
698 2 -9.6660779248192163e-02 6.9960889935614734e-01 1.7532934964819745e+01 2 0 2
15 2 -2.1547881952305898e+00 7.0902988804369738e-02 1.3169889168888648e+01 -4 0 -1
392 2 1.2585176714364337e+01 6.5370040237880964e+00 3.6152648078085057e+00 -1 0 0
745 1 1.0576682334394620e+01 1.4066444231670268e+00 1.6148057311159143e+01 -3 0 0
1466 2 6.8778992769504939e+00 1.4514538705988231e+00 3.6480360099041209e+00 0 1 0
1667 2 2.9132719758817367e+00 -2.6675467196776905e+00 8.5432007842955415e-01 -1 1 0
794 2 -1.7770825448116989e+00 -1.8578994925693733e+00 1.8462351485509135e+01 -2 0 -1
548 2 3.6738499769419031e+00 7.4695885060873657e+00 1.6215988395205770e+01 -3 0 -5
1437 2 6.1180705726579809e+00 2.8187627422318826e+00 5.6205938138935956e+00 1 1 0
860 2 -6.6507686379065323e-01 2.7908263273326988e+00 1.8664986128521186e+01 -2 0 1
594 2 -1.7685276563304604e+00 4.4060166084301704e+00 1.1439244085091696e+01 -2 0 -1
1875 2 2.1764679685342245e+00 -3.0094106077539640e+00 1.0932984965716154e+01 1 1 1
317 2 -7.4765238398312084e-01 -2.2229744097915103e+00 1.2100491465816615e+01 2 0 0
307 1 4.7596533656098501e+00 -7.0645645620794717e-01 3.1070039687621258e+00 1 0 2
1386 2 6.5165864498797355e+00 -2.2407353228695563e+00 9.2045151914780963e+00 0 1 0
171 2 1.3424856254181403e+01 5.3152202237833812e+00 9.8717716856667828e+00 -5 0 1
1051 1 1.8108469330118284e+00 5.3521437116846426e-01 1.0680896668867984e+01 -1 0 0
935 2 1.4590188653553998e+01 5.7330383944461900e+00 3.4447762815265559e+00 -4 0 -1
282 2 1.1722251099594477e+01 -3.0344945189066097e-01 8.2981220486005619e-02 -3 0 1
181 1 9.6267121507332085e+00 4.3323994170752194e+00 1.8224844188404070e+01 0 0 1
1994 2 3.4310735471313287e+00 1.8298755197050260e+00 1.9227022472877269e+00 -2 0 -2
689 2 7.1925278342983017e+00 3.3522093175695806e+00 7.7912518231063164e+00 -4 0 -1
408 2 1.3276963487407793e+01 2.8865388871544235e+00 3.3835833910984592e+00 -2 0 -2
1165 1 7.2207402551876037e+00 -1.5451491031011144e+00 1.8647995781706417e+01 1 1 -1
203 2 2.7664336443543691e+00 5.8479118195195419e+00 1.8313796600666478e+01 -3 0 0
1530 2 1.0238050215694383e+00 8.5324362804925702e+00 5.6907900484389309e+00 0 0 -1
68 2 1.1247893837752065e+01 -9.6128505648975704e-01 2.1646081024569996e+00 -3 0 -1
84 2 6.4016000893002776e+00 6.4039339444779095e+00 4.0869882305118416e-01 -2 0 -4
658 1 2.1161923798823685e+00 -3.1428796519547517e+00 1.0168719612884722e+00 -1 0 0
1489 1 5.2686616985144958e+00 4.3082480638010834e+00 2.5091159353984551e+00 1 1 0
749 2 1.0198600402172799e+01 5.9482118496538696e+00 1.7887055979250714e+01 -3 0 0
1941 2 3.5764389680725723e+00 2.8303677916865819e+00 7.0379382929790726e+00 1 1 0
1109 2 8.6747356175007972e+00 5.5207482951591125e-01 1.3388547724981441e+01 0 0 -1
1898 2 8.8367041451267081e-01 7.8495608594037645e+00 1.4051204679076916e+01 0 0 1
1828 1 8.7485014197754030e+00 2.7425814196555196e+00 7.0313739653908103e+00 1 1 2
483 2 5.4850157755176827e+00 7.7886735456683169e+00 1.3115729445887586e+01 -3 0 -2
972 2 3.1367868698507273e-01 1.6230777824071154e+00 1.0072243055894718e+01 0 0 2
912 2 7.4492549434260180e+00 -9.7770347429343563e-01 6.3144032195517159e+00 -3 0 2
1997 2 8.4217015904889383e+00 3.2131112224527358e-01 2.7020089227889238e-01 1 1 2
1491 2 4.7997981642631666e+00 3.4062791374173775e+00 2.6680059420433824e+00 1 1 0
1303 1 1.2426149090507936e+01 -1.6421602428115576e+00 1.1006789695203292e+01 -1 1 1
1260 2 7.4873965053556679e+00 5.8927357322699514e+00 7.2053395820593193e+00 0 1 0
1758 2 3.4778411903997890e+00 -3.1790556104311603e+00 7.3916457446999733e+00 0 1 0
934 1 1.5258879160450883e+01 5.2671773059408622e+00 2.8372606884727771e+00 -4 0 -1
58 1 8.1012960708093367e+00 -1.4176607575245725e-01 7.7747177297244114e+00 -2 0 2
791 2 1.7035413848516267e+01 -2.0184112967047971e+00 1.5349423997999589e+00 -1 0 1
1381 1 1.1789217738919870e+01 3.1449132540409348e+00 9.2585272108484062e+00 -1 1 0
1531 1 9.5981234262965476e+00 4.5815810391697909e+00 6.0317004207074143e-01 1 0 0
854 2 3.6190507425294127e+00 -9.1218277592601815e-01 7.4355385617297607e+00 -1 0 -2
534 2 1.6690157904310553e+01 4.6405161963582167e+00 3.3095908854781624e+00 -3 0 -1
747 2 9.8848934049835151e+00 1.3915022700945077e+00 1.5496399026453428e+01 -3 0 0
1467 2 7.5638986167371662e+00 1.8192721760460318e-01 2.9470356682583461e+00 0 1 0
840 2 6.5609257547467017e+00 6.5816876595991243e+00 9.9926083713873375e+00 -2 0 -3
1921 1 1.1465587029513816e+01 4.9905863162899156e-01 1.2867422605447286e+01 -1 1 1
133 1 2.8326149876776316e+00 6.4914599406839049e+00 1.1886689561304205e+01 0 0 -1
1815 2 2.3853849684286326e+00 4.0769648265381049e+00 9.0502536874782091e+00 1 1 1
1318 1 5.1043560891012500e+00 3.4563288731515058e+00 1.8725173100416331e+01 0 1 0
728 2 -8.2530071151677054e-01 -1.1579502554022940e+00 3.5947803200753090e+00 0 0 2
1409 2 5.0816584619433014e+00 1.9753651824936238e+00 1.3799573533164326e+01 -1 0 -1
1514 2 8.0916946336234865e+00 1.0868891243254231e+00 1.7409962094551993e+01 1 0 0
92 2 8.3046879273918854e+00 9.1932294018380887e+00 6.7026635989319274e+00 1 0 1
653 2 5.8175090236289249e+00 -1.2436767639226498e+00 1.2654502479762092e+01 -1 0 0
19 1 1.0529281621358846e+01 8.2872820760875694e+00 3.1389485662823282e+00 -3 0 -3
1897 1 1.2934121380755643e+00 8.1675728976417723e+00 1.3206893017172895e+01 0 0 1
2006 2 1.4490968539493529e+01 6.1355245969413730e-01 9.4382857004093292e+00 0 1 0
729 2 -8.7619863684944832e-01 1.9375593396755875e-02 2.5822829843026831e+00 0 0 2
1698 2 -1.8145463029343301e+00 1.7595186473194859e+00 1.6732882685081375e+01 1 1 0
260 2 -2.9985345939615282e-01 2.0790415439786738e+00 7.8613071465276629e+00 -1 0 -2
239 2 -3.9759994997261803e+00 -1.9351833951253070e+00 1.6460519976656702e+01 3 0 0
59 2 8.9892743610677748e+00 -5.1965587995421947e-01 7.8864800264922668e+00 -2 0 2
420 2 1.1719958349426939e+01 4.5596067981875859e+00 1.5401227009147048e+01 -2 0 2
21 2 1.0556194459945223e+01 8.1430381325450263e+00 4.0912764781164759e+00 -3 0 -3
1375 1 1.6725301958745614e+01 7.2841730039724375e+00 1.5356298875728200e+00 0 1 1
1933 1 -3.2914391696044598e-01 -2.6656597988854718e+00 4.7946603101484868e+00 1 1 1
200 2 1.0116548949029177e+01 5.2085818768199292e+00 1.3861821989825351e+01 0 0 -5
813 2 5.0331376201926279e+00 4.9444087208188101e+00 1.3904609525748929e+01 -2 0 0
723 2 5.7144760194514337e+00 4.9114785723600942e+00 1.5984602451957111e+01 -6 0 -4
1517 2 7.2129031298018340e+00 -2.5823395015328154e+00 1.3861474695364395e+01 0 0 -1
529 1 1.1095603034012671e+01 -9.2783296133370241e-01 1.7646856273935430e+01 -1 0 -1
831 2 1.2659069930961191e+01 7.0139724346776564e+00 1.1711563700233663e+01 -3 0 -1
1377 2 1.6957867097653672e+01 7.1605183509634838e+00 5.5686877533281043e-01 0 1 1
1123 1 9.1426288608071218e+00 6.6908497580344921e+00 1.3901732064168371e+01 -3 0 -1
1938 2 8.2547291785533492e+00 2.1737138110489775e+00 1.1666436895252563e+01 0 1 1
72 2 1.4792218688417318e+01 3.2113473586083705e+00 7.4348010937550537e+00 0 0 1
771 2 -1.8123695236190724e+00 8.6702611524950690e+00 1.3906584618687745e+01 0 0 -3
1518 2 7.3983246174912916e+00 -1.1410322380012623e+00 1.4159953028102715e+01 0 0 -1
1000 1 9.9199800732374737e+00 -5.1157653947040016e-01 1.0074136928849949e+01 0 0 1
1881 2 1.9895305546053006e+00 5.3129871488527769e+00 1.3236487762951180e+01 0 1 -1
1398 2 2.2554249573614560e+00 5.1761475032637083e+00 1.0944562717414206e+01 0 1 0
481 1 5.3598077233434456e+00 7.0459048049172051e+00 1.2439522666933380e+01 -3 0 -2
654 2 5.0744651955640014e+00 6.8806889584767106e-02 1.2082897942658901e+01 -1 0 0
2007 2 1.3789959583668821e+01 -5.4074245157798551e-01 1.0198225907737543e+01 0 1 0
1151 2 3.2227512373784029e-01 6.5639718887971643e+00 5.6449862209089359e+00 1 0 0
280 1 4.5019445671322469e+00 -6.1540717416674973e-01 1.8443195009298766e+01 -3 0 0
402 2 6.4906089726653757e+00 1.6642462213452633e+00 1.3770348914368284e+01 -1 0 -1
1899 2 5.3464560343878453e-01 8.6160648224303440e+00 1.2813002905770114e+01 0 0 1
211 1 1.4262574644462351e+01 3.5259756135342730e+00 5.9309579837127413e-01 -6 0 -3
1382 2 1.1749609622275191e+01 2.9082377059498317e+00 1.0222140099482655e+01 -1 1 0
811 1 4.4608786856652030e+00 4.6764627549082665e+00 1.4638650355249677e+01 -2 0 0
82 1 7.2314044978736485e+00 6.8975879857005999e+00 2.7452961932104869e-01 -2 0 -3
1515 2 7.8451446912946885e+00 5.5335712882032917e-01 1.5959611205339202e+01 1 0 0
337 1 4.7476182272415679e+00 3.2942465119554578e+00 1.1175871848301814e+01 -2 0 -3
417 2 -1.8478509031298627e+00 -5.0915428500799642e-01 1.6450450178748504e+01 0 0 -2
980 2 2.5171049733531721e+00 7.2219474459787278e+00 1.0337351218726226e+01 -2 0 -2
1998 2 9.7041589822848504e+00 -4.2741494265698288e-01 5.2254263532505851e-01 1 1 2
1305 2 1.2991998941858979e+01 -1.9369438406386632e+00 1.1688950297153765e+01 -1 1 1
237 2 -7.4518510478881828e-01 6.6392401919960911e+00 1.0891244096843819e+01 0 0 1
1896 2 3.6561074939591975e+00 6.6372990668132932e+00 7.3036561357428189e+00 1 1 0
1808 2 -1.6756065299911611e+00 6.8479816448636281e+00 8.8369941322462591e+00 1 1 1
701 2 5.0982657288217261e+00 -4.8286814029226255e-01 1.4929420265911160e+01 -3 0 -3
60 2 7.5445393545334714e+00 -4.8977986759319148e-01 8.4548371476022908e+00 -2 0 2
971 2 -1.0592031064899059e+00 2.3778753797877492e+00 1.0136107921784058e+01 0 0 2
1940 2 3.8994530208774170e+00 1.7603951783231420e+00 6.0016942502570521e+00 1 1 0
1320 2 1.1103094915758399e+01 4.0819839427977707e+00 4.8359390827906884e-02 0 1 1
712 1 1.4614191180279317e+00 2.0261883251675332e+00 1.2989253193452500e+01 0 0 4
1159 1 1.1108737730841089e+01 9.3347848348032425e-01 8.1218623763181803e+00 -1 0 0
183 2 1.0473691822861689e+01 3.8508082200529437e+00 1.8279065994240945e+01 0 0 1
795 2 5.5994049531509154e+00 -2.2267059941226943e+00 7.0769331192552698e-01 -2 0 0
394 1 -5.5089363811364223e-01 -1.2508245054727940e+00 1.0419536337848438e+01 -3 0 -3
135 2 3.7638841357234165e+00 6.7428349036812314e+00 1.2146328333442797e+01 0 0 -1
1288 1 6.3418357706362825e+00 7.6176696067633056e+00 1.6906974735746889e+01 -1 1 0
407 2 1.1879691900826064e+01 3.1171055779282151e+00 4.0404452666042880e+00 -2 0 -2
533 2 3.3796691680387769e-01 4.1607829043566076e+00 3.1105311042914185e+00 -2 0 -1
1439 2 8.0641400025909888e+00 2.9923631228197642e+00 1.5775253081040685e+01 1 1 0
1408 1 9.9877339120691975e+00 6.3093610447506645e+00 5.6775633333247804e+00 1 1 0
231 2 1.2785227129042235e+01 1.0075237519061675e-01 2.3115395751723056e+00 -1 0 -2
830 2 1.1841109591633266e+01 5.6162139246814728e+00 1.1592412953638290e+01 -3 0 -1
49 1 4.5016651857775543e+00 1.3412995131279830e+00 9.3379782560832485e+00 0 0 0
1653 2 -4.5741291388674270e+00 7.8286466424272039e+00 1.6824885276448061e+01 0 0 0
499 1 -2.6667394669364741e-01 5.1298258693744234e+00 6.2288787789366928e+00 -1 0 0
1880 2 1.2721638262356798e+00 4.8241627639016240e+00 1.4547814720741640e+01 0 1 -1
441 2 5.1320969610511771e+00 -2.4739666537258147e+00 3.1513324874609521e+00 -3 0 -1
987 2 3.1988694306025680e+00 1.8906668282713150e+00 3.5889807625885579e+00 -2 0 -2
229 1 1.2154913565782833e+01 5.1987790658652200e-01 1.6172757852288480e+00 -1 0 -2
837 2 1.5800492687104488e+00 -1.4743995164332664e+00 8.0851194513598053e+00 0 0 1
1537 1 7.3343933498390825e+00 -2.4103907627874532e+00 8.1013540481406054e-01 0 1 1
1676 2 1.2724195301946446e+01 2.9445265353433703e+00 1.2370773721559807e+01 0 0 0
281 2 4.4023347232366934e+00 1.7062752785039992e-01 1.7898776776148530e+01 -3 0 0
669 2 9.7130024502842431e+00 8.5823829728252541e+00 1.1188137442975330e+01 -3 0 -4
917 2 7.7460040606020710e+00 5.6842626046846281e+00 1.3264957825230063e+01 0 0 1
1809 2 1.4997166116569840e+01 6.1126181386801424e+00 8.1929675584228150e+00 0 1 1
970 1 -4.7980804515405229e-01 1.8231390200210873e+00 9.6184971579914009e+00 0 0 2
1509 2 2.1347503152627212e+00 3.8657998741149813e-01 4.9235261643200712e+00 0 1 0
1134 2 -5.4570917072667147e+00 3.9054165231604472e+00 1.7789584306575922e+01 0 0 -2
315 2 -6.7970868682127206e-01 2.5782882832195622e+00 2.4045650859315715e+00 -4 0 -2
775 1 1.2539489069408605e+01 5.6167544415082773e+00 6.3584193796715311e+00 -1 0 2
1160 2 1.1706862544340702e+01 5.6983238739472242e-01 7.4305499841816269e+00 -1 0 0
316 1 -1.1907963829572372e+00 -2.9053117129657382e+00 1.2553829711215542e+01 2 0 0
1258 1 8.1645179046732572e+00 6.3754184066922850e+00 7.6718790081879700e+00 0 1 1
83 2 7.7718320727188903e+00 6.6174708696441140e+00 1.0237590404949712e+00 -2 0 -4
1435 1 6.8720311126760514e+00 2.4441816446909419e+00 5.0987786229982008e+00 1 1 0
1465 1 6.9298369536169977e+00 9.1267019803307115e-01 2.8142476428999901e+00 0 1 0
942 2 3.9130201265612472e+00 9.1482582986727259e+00 2.2732899821717991e+00 0 0 0
91 1 7.4475536732888825e+00 9.4770336971313025e+00 6.2647456749997525e+00 1 0 1
1925 2 1.4404948620949495e+01 1.5549885047297156e+00 4.1518671095871262e-01 0 1 2
411 2 5.8090917017728634e+00 6.3021458689129304e+00 4.8260534513527720e+00 1 0 -2
1384 1 6.2389444889768999e+00 -1.3121132823858370e+00 9.4330613298851631e+00 0 1 0
272 2 -2.6825120723063995e+00 6.9027433146200785e+00 1.5171294304915516e+01 0 0 -3
1696 1 -1.9793545241901169e+00 1.0752441831408310e+00 1.6084273318808172e+01 1 1 0
1040 2 -1.5508069558456961e+00 6.2737480432336685e+00 1.3046976482017264e+01 0 0 0
680 2 2.6092678137037399e+00 -2.1191278769018664e+00 1.2845512502396717e+01 -3 0 -1
1189 1 9.4812651376661228e-01 8.8503749840564527e-01 1.5156426901269858e-02 1 1 1
308 2 5.4741734227799430e+00 -1.5899890347910173e-02 3.0799777357312426e+00 1 0 2
1436 2 7.1994428706251030e+00 3.2653646547850652e+00 4.6342544438278637e+00 1 1 0
395 2 -5.2167820552856092e-01 -3.0754205313228145e-01 1.0318232964401520e+01 -3 0 -3
169 1 1.3902406254700116e+01 4.7657872349204720e+00 9.2101575087080629e+00 -5 0 1
406 1 1.2354385020656725e+01 2.9930216382711166e+00 3.1337613335656083e+00 -2 0 -2
1152 2 1.8018326907310400e+00 6.7423984415368885e+00 6.0814064143234985e+00 1 0 0
1584 2 -4.5036021411194405e-01 4.4568901042748195e+00 1.6438871626351627e+01 1 0 -2
410 2 4.4236669108595903e+00 5.6802790199603024e+00 5.4806710700423462e+00 1 0 -2
1383 2 1.2553104097891884e+01 3.6965209766187206e+00 9.0868688352679374e+00 -1 1 0
966 2 6.8587459035360139e+00 3.6979828809473494e+00 1.0174413680001503e+01 -2 0 0
590 2 -9.4225640238894126e-01 8.6320842989248892e-01 1.4668571926569685e+01 -4 0 0
1814 2 1.6096196264228295e+00 3.5731525212469464e+00 7.6742317959657784e+00 1 1 1
700 1 4.3038627457516281e+00 -7.0206859683079248e-01 1.5459964263833978e+01 -3 0 -3
212 2 1.4342983595561360e+01 3.9819074087984454e+00 1.4012154117298652e+00 -6 0 -3
1046 2 1.1438658145535012e+01 -9.5913627703211901e-01 1.4079662401013405e+01 -1 0 -1
401 2 1.0822064626254889e+01 5.9729095486965278e+00 6.0691108668496980e+00 1 0 0
773 2 6.8697518470546282e-01 -8.6052039304888384e-01 1.4311796853524390e+01 -1 0 -3
591 2 2.3007406263516827e-02 9.4079837354989859e-01 1.3424073966568802e+01 -4 0 0
530 2 -5.9797273154642303e+00 -1.3696010590893453e+00 1.7224284630900680e+01 0 0 -1
7 1 1.4050117791745723e+01 8.7002255551499168e+00 8.7386148056320465e+00 -1 0 -2
532 1 -4.5502554942958728e-01 4.1586288986668700e+00 3.6493123174973641e+00 -2 0 -1
238 1 -4.9410891395752179e+00 -2.1882651610843240e+00 1.6454342295708830e+01 3 0 0
920 2 9.5665157478734795e+00 7.1873768231144179e+00 2.6204231119223542e+00 -2 0 -4
1879 1 1.1870888706743141e+00 4.9116357384248310e+00 1.3563823692703743e+01 0 1 -1
1393 1 1.6582580815935168e+00 4.2756076222110897e+00 2.0089521465518581e+00 1 1 -1
1539 2 7.5524558278954874e+00 -1.9191739258503131e+00 1.6698468429819266e+00 0 1 1
750 2 9.7787291330351813e+00 7.1750003777074820e+00 1.7082433472685366e+01 -3 0 0
719 2 1.0335253859272402e+01 -3.1447111358712068e+00 1.3976958385707468e+00 -1 0 -3
754 1 1.2995341677702605e+01 -6.8622260007204616e-02 6.2742837090755446e+00 -2 0 1
554 2 2.4667293679770776e+00 6.4975936358188013e-01 2.8844548109413970e-01 -6 0 -2
1355 2 6.7636114284100701e+00 3.8729321390718487e+00 1.5676009027412592e+00 -1 1 -2
1508 2 3.5885878254536587e+00 1.8451377939683944e-01 4.1910270130226026e+00 0 1 0
519 2 -3.7342297351402394e+00 1.4960741457849283e+00 1.3111371805225359e+01 -3 0 -4
1652 2 1.1750610034629608e+01 7.6063579136285284e+00 1.7183110076693303e+01 -1 0 0
1490 2 5.9643210153640931e+00 6.2745546781102863e+00 1.2692521479387521e+01 -4 0 -2
777 2 1.2858548005997168e+01 6.0381250359616452e+00 5.5806751578884439e+00 -1 0 2
1289 2 5.5286016419049195e+00 7.6440216876493210e+00 1.6289182305879713e+01 -1 1 0
1039 1 -1.1699025858776633e+00 5.6834584455427777e+00 1.2342934050675243e+01 0 0 0
714 2 2.0095379049632793e+00 1.9528110477246141e+00 1.3764118785560091e+01 0 0 4
589 1 -5.8884694694325646e-01 3.3535066416423964e-01 1.3908816994062613e+01 -4 0 0
482 2 5.2863113737833221e+00 4.7974669466057609e+00 3.3393973618425221e+00 0 0 0
721 1 6.1938933538775043e+00 5.1423898788934697e+00 1.6764169332957362e+01 -6 0 -4
436 1 1.1787184563256618e+01 7.4123107967273345e+00 8.1535796608371029e+00 -3 0 -1
412 1 8.0559961569377361e+00 -1.5027351713442512e+00 3.4122100787947414e+00 -1 0 -3
391 1 1.3382268119694812e+01 6.7407551363894029e+00 4.1637452099333414e+00 -1 0 0
614 2 1.4458175629810754e+01 9.0808348506491221e-01 3.9101473950513683e+00 -1 0 0
923 2 5.1816304358227914e+00 5.0455977045409401e+00 8.5264900813073368e+00 -3 0 -4
1376 2 -3.2296596282287038e-01 7.2235803577387188e+00 2.0510393170302423e+00 1 1 1
235 1 -5.9055126358108545e-01 7.0881560873745180e+00 9.9609596823102606e+00 -1 0 1
1939 1 4.2765661026720343e+00 2.1835065874802577e+00 6.7864084491666654e+00 1 1 0
160 1 1.4993486399233049e+01 2.5396449614156547e+00 4.3623615497598029e+00 1 0 -4
1996 1 8.8727489991420612e+00 -2.7694148887580505e-01 9.5216446788480713e-01 1 1 2
1251 2 1.2361052001174798e+01 1.2305135219168672e+00 1.5369777455671251e+01 -1 1 0
1901 2 1.4523945961338334e+00 6.0717692230994835e+00 2.2845958014599321e+00 1 1 1
306 2 5.8653799141145750e+00 1.6563672213134844e+00 1.6684544227252442e+01 1 0 -3
13 1 -3.0511064809266180e+00 -9.3953070547541984e-02 1.2877987304527016e+01 -4 0 -1
985 1 3.3740982845813074e+00 2.4060943646666146e+00 2.7134926313340393e+00 -2 0 -2
1829 2 8.9112933782394652e+00 1.8502576205607317e+00 7.3806310614625517e+00 1 1 2
919 1 8.7351381138732549e+00 6.5886951652133821e+00 2.5632743886756431e+00 -2 0 -4
679 1 3.2509983660470061e+00 -2.5815545469275918e+00 1.2246013359550975e+01 -3 0 -1
941 2 5.0578399938587228e+00 8.4026672603433443e+00 2.9691390897914474e+00 0 0 0
1132 1 -5.7417059735042457e+00 3.3919850978134098e+00 1.8590925790476483e+01 0 0 -2
1532 2 8.7537620308875503e+00 4.2540520588747492e+00 9.1264678242765018e-01 1 0 0
1923 2 1.1919526778644832e+01 1.5293135501357824e-01 1.2065248201640381e+01 -1 1 1
438 2 1.2449495965421914e+01 7.8715155524644640e+00 8.6976718398793853e+00 -3 0 0
539 2 8.9867860727542350e+00 5.4665861852987518e+00 8.9809599677882801e+00 -4 0 -4
1161 2 1.1348647655954540e+01 1.8264062324268675e+00 8.5249391874395748e+00 -1 0 0
755 2 1.3319863794107238e+01 -1.1936053182030415e-01 5.3480166847788047e+00 -2 0 1
309 2 4.3274434244804283e+00 -6.5606288989592354e-01 2.2863082450582857e+00 1 0 2
1053 2 1.9131278550124104e+00 8.9754982394958294e-01 1.1593432222495188e+01 -1 0 0
1926 2 7.9292374635494136e+00 7.5741338006016790e-02 1.9046241631103417e+01 0 1 1
790 1 1.7263423781326885e+01 -2.5912895449994378e+00 7.0919805889905618e-01 -1 0 1
1314 2 1.7702873651248279e+00 1.5429580080517873e+00 1.6140982485650042e+01 1 1 0
199 1 1.0399705006662778e+01 4.2505561894284156e+00 1.3990658182593748e+01 0 0 -5
1677 2 1.1426416442306790e+01 3.7821535697232482e+00 1.2724836365218087e+01 0 0 0
1191 2 4.4212438989759545e-01 1.1577067418089149e+00 8.0032026486591767e-01 1 1 1
1937 2 9.0877895639192676e+00 8.9912952108925293e-01 1.1128963576384924e+01 0 1 1
1565 2 1.4051980202175116e+01 -2.2245088147328058e+00 1.3243357652704302e+00 -2 0 0
1895 2 3.0187361499827285e+00 5.2007364434057184e+00 7.2481196240830146e+00 1 1 0
979 1 2.0241812393702041e+00 7.2105756591544274e+00 9.4874159322470799e+00 -2 0 -2
1900 1 1.2349287336658570e+00 6.9762483688184052e+00 2.6535124628877207e+00 1 1 1
304 1 4.9048539481628541e+00 1.8052396343254484e+00 1.6770655629041133e+01 1 0 -3
1902 2 1.2337104398304892e+00 6.8774542916387276e+00 3.6337956099188555e+00 1 1 1
957 2 1.5995705149510778e+01 8.9574688425218731e+00 1.4899578453370945e+00 -3 0 -3
240 2 -5.2222686796496731e+00 -2.2680654162587279e+00 1.5509321049911044e+01 3 0 0