LAMMPS data file via write_data, version 8 Apr 2021, timestep = 4443000

1008 atoms
2 atom types

0.33892112847420564 18.06063387152832 xlo xhi
0.028875466076445377 22.541513533905874 ylo yhi
0.1319493906457468 19.373766609364033 zlo zhi
-0.06759590100077843 -6.630940015110365 -0.07955751745719752 xy xz yz

Masses

1 16
2 2

Atoms # atomic

1 1 6.771791482603652 1.074097063363633 4.765780951537132 0 0 0
3 2 6.881615223886092 1.4100179061321902 3.8888480256993874 0 0 0
4 1 4.2410964501297626 0.9963343931234123 5.273498633799765 0 0 0
6 2 3.976256174230071 1.3411433686192793 6.188562397832351 0 0 0
7 1 -0.193620310829151 6.271420926311167 4.874345038950853 0 0 0
8 2 -0.32528540396735295 5.883726484158736 5.762735558098351 0 0 0
10 1 2.469435285363462 6.169551985160571 4.857821891646077 0 0 0
11 2 1.4673049499632906 6.379489248439549 4.983817913503248 0 0 0
12 2 2.990254479303104 7.013219467641123 4.845282559901464 0 0 0
25 1 4.712573804432662 6.180445442895593 7.292580946021779 0 0 0
26 2 5.387544712897951 6.747812037853071 7.645893876085006 0 0 0
27 2 3.852571943364647 6.550796287399549 7.4897826514874035 0 0 0
28 1 5.988547759640264 6.1166839461592595 2.450003068227113 0 0 0
29 2 5.792432464603213 5.8988813374050775 3.352515533761242 0 0 0
30 2 5.45558495211977 6.889037841766493 2.283531199286492 0 0 0
31 1 1.3486870904149804 0.9536816499353026 2.5147471406815867 0 0 0
33 2 1.2398908995776954 1.3801937195035832 3.419913288341872 0 0 0
34 1 0.2785199795884429 0.8948588742617863 7.156650400730586 0 0 0
36 2 0.429930120890825 1.5632436839427302 7.833298140552333 0 0 0
37 1 6.420119239300174 2.31842349333582 2.3929697398208147 0 0 0
38 2 5.546163491445024 2.6679790812258206 2.661707854494338 0 0 0
39 2 6.893499164929111 3.115243064617279 2.5208796248192686 0 0 0
40 1 4.070341764529831 2.7020662456327167 7.467297324246685 0 0 0
41 2 4.95075055442916 3.096765626124014 7.343266005481404 0 0 0
42 2 3.5111342628413786 3.433544772378794 7.129826048890494 0 0 0
43 1 -0.0945009713863657 5.139363213508849 7.430466528242552 0 0 0
44 2 -0.6644259377508498 4.358336846205805 7.203602874213293 0 0 0
45 2 -0.44886297349059545 5.492922550156653 8.304304666564146 0 0 0
46 1 2.3675101454249994 4.8650857648553645 2.5038808238046384 0 0 0
47 2 1.5468872523685082 4.453002340310221 2.6963212656315303 0 0 0
48 2 2.4752693681323614 5.470775701684948 3.270243868188825 0 0 0
49 1 6.855072333690297 3.3722779312975963 6.438883961044831 0 0 0
50 2 6.447600603920901 4.037579064682892 5.818043168221956 0 0 0
51 2 7.1091149557792965 2.621447369325139 5.885993227823675 0 0 0
52 1 4.175079063311901 3.0844245997074555 3.7202094836304895 0 0 0
53 2 3.3036138951815635 3.443921369565706 3.3766037546762986 0 0 0
54 2 4.053561488234431 2.2122359819226367 4.250788181367249 0 0 0
57 2 0.21391818118134262 3.392723559663681 4.045608977772957 0 0 0
58 1 2.2504609355863474 4.3135344716257 6.805615381240406 0 0 0
59 2 2.4812852944808124 5.060279635694821 6.206032122436768 0 0 0
60 2 1.3855877731082091 4.630839729864527 7.172019906374104 0 0 0
61 1 8.605166773116864 6.499600662671321 1.8877199994089378 0 0 0
62 2 7.683224152022378 6.440021141323883 2.2463299547670714 0 0 0
64 1 2.4276524040443235 6.932689572557436 8.17965178874404 0 0 0
65 2 1.6112356710101423 7.310141912987957 7.776284317973319 0 0 0
72 2 4.050259304508397 1.1757201518194076 1.3127359819643278 0 0 0
73 1 5.398468201495921 5.158758254801776 4.8645057182884175 0 0 0
74 2 5.04459632320974 5.590256314632585 5.704089495161251 0 0 0
75 2 4.748780146476313 4.471177202294622 4.59580527699873 0 0 0
76 1 1.100811534145854 2.4707745169117774 5.1522042859463015 0 0 0
77 2 0.715863333564623 1.7483812750033123 5.711956164184349 0 0 0
78 2 1.5279492816722509 3.0887554621839293 5.735487165671847 0 0 0
91 1 8.44558716084388 6.565673203721561 5.50179628455513 0 0 0
92 2 8.067665916015216 5.815153499960595 4.9727643678832205 0 0 0
93 2 9.414050892383747 6.609501814507547 5.181030487192905 0 0 0
116 2 10.230355220481519 1.5680421145385202 1.6231266946160803 0 0 0
127 1 8.835072781533613 4.713929712755618 7.7447001633200365 0 0 0
128 2 8.27409020828609 3.9947801444485562 7.307767422278009 0 0 0
129 2 8.656589140594527 5.505694494877049 7.147945679514742 0 0 0
139 1 8.505514190595502 4.2412032504034896 3.661182497906846 0 0 0
140 2 9.246659056018164 4.674754945070749 3.18671831994334 0 0 0
141 2 8.839297316613864 3.4510779522634913 4.065279516287291 0 0 0
169 1 6.652555074176232 8.702760574733999 4.516551991717598 0 0 0
170 2 7.285644573266637 8.016417949618694 4.897068144443763 0 0 0
171 2 6.820932481505249 9.484783329236885 5.0795691010286195 0 0 0
172 1 3.9002594963503063 8.462846402847111 5.2501228927924135 0 0 0
173 2 3.5412050605219942 9.144275048965794 4.620354041573232 0 0 0
174 2 4.824819434776187 8.3153037239801 4.9399083696091575 0 0 0
199 1 1.5845674595381625 8.533297464322517 2.567373799518005 0 0 0
200 2 1.354684101379588 9.137810506595658 1.8626909669044585 0 0 0
201 2 0.977400075207473 7.763195517169378 2.4962811682930712 0 0 0
202 1 0.3531946459793991 8.574245011138371 7.3510405914285455 0 0 0
203 2 -0.48280841732689717 8.161707025380807 7.493421255302546 0 0 0
204 2 0.3687912019067361 8.83077793707586 6.403544408609529 0 0 0
205 1 6.441440834998722 10.163243676040068 2.4057823335781645 0 0 0
206 2 6.514295662146364 9.486356298300455 3.12282222809581 0 0 0
207 2 6.564269840114013 9.607936301750172 1.6538066803971543 0 0 0
208 1 4.558796808686663 10.028637644288375 7.461646745882694 0 0 0
238 1 4.178461633339023 7.935348361413927 1.6053531234867275 0 0 0
239 2 3.3246479251436476 7.9156067903987495 2.0852008069297217 0 0 0
240 2 4.1983197304050055 8.844286491890625 1.2295101494826386 0 0 0
244 1 0.7532332485371569 10.024977217244665 4.875939218021217 0 0 0
245 2 1.216258445876281 9.48391379660097 4.181099268944685 0 0 0
283 1 10.4789437634215 8.251562373309307 2.693635395846028 0 0 0
285 2 9.715200968029244 7.639138933627235 2.611545201200392 0 0 0
288 2 8.580289253432001 8.501353042323927 7.686643748321509 0 0 0
319 1 6.673730957749684 7.628071366400262 8.405856608218592 0 0 0
66 2 2.7722973963978452 7.699390560436171 8.667029864077692 0 0 0
21 2 0.7885734343044127 2.1925760481997725 0.9824575100309815 0 0 0
192 2 0.5879237190929582 10.009448024137093 8.70020392612771 0 0 0
320 2 6.408381408630414 8.400908011212469 8.936985244260903 0 0 0
115 1 10.432239988453622 1.0127506932760522 2.395322062918915 0 0 0
118 1 9.177354424839786 1.0953084006915634 7.239257649822505 0 0 0
130 1 10.92915782474108 5.148765222222905 2.583886367878 0 0 0
160 1 9.787142690163684 2.0945710791039773 4.74564229625261 0 0 0
162 2 10.079846503482596 1.648705793233722 3.8842658667627576 0 0 0
284 2 10.338297007405522 8.604815290125364 3.5823646257369193 0 0 0
329 2 9.581546305269976 9.410766661066422 5.7769053990343755 0 0 0
286 1 9.498340253584741 8.735345369510007 7.41124623819536 0 0 0
328 1 9.985472154768896 9.904689291673016 5.048607384081137 0 0 0
63 2 8.618303011391797 5.917523363131146 1.116218189216343 0 0 0
210 2 4.557060242891797 9.29393152895085 6.837748850180927 0 0 0
272 2 10.30364983734433 9.31248101231361 1.4472513020537885 0 0 0
132 2 11.284373566614535 5.612410191709221 3.3570279835276957 0 0 0
94 1 11.03869846916651 6.419247768487393 4.867684358816026 0 0 0
119 2 9.511860743614397 1.7370349601772428 7.847564875059979 0 0 0
131 2 11.394123412842113 4.288352660956985 2.5759838422614982 0 0 0
161 2 10.514387267994165 2.591361781457064 5.168875791025351 0 0 0
287 2 9.988595694531304 7.950610893242525 7.674099632814169 0 0 0
144 2 10.347318590649905 4.302189331531007 7.0237479619668575 0 0 0
323 2 12.311666290209748 7.978201763159839 2.0453719638028933 0 0 0
96 2 11.189279046464076 5.773028711003155 5.615722246819651 0 0 0
95 2 11.640229757025619 7.2455663708405815 5.087005704560531 0 0 0
322 1 13.124570689140803 7.843298337827733 1.518869835255639 0 0 0
324 2 12.795017931529507 7.233081416737483 0.8401075462700068 0 0 0
120 2 9.374214068677086 1.4201585109909318 6.353941799557132 0 0 0
18 2 5.701989823247481 5.047119122090292 1.1074822645189832 0 0 0
153 2 6.623053744031437 1.2870729655031619 8.686326933509207 0 0 0
246 2 1.4727903525696688 10.57570033917672 5.230432919423412 0 0 0
32 2 2.3016535175647608 0.7726134085265965 2.334836540071757 0 0 0
14 2 4.9911065848331715 4.9732789334053 9.024063829557049 0 0 0
5 2 5.285543402416425 0.8471761038797868 5.320233436470947 0 0 0
276 2 9.591348087143365 9.911795491694832 8.67310693200952 0 0 0
321 2 7.013782417900161 6.936301935598347 9.058901730851675 0 0 0
142 1 11.120363300596686 4.159462643606222 6.415077835361071 0 0 0
155 2 13.132286488300576 1.2782015264498454 0.986593366456545 0 0 0
330 2 9.453901470009189 10.64167096020053 4.801266183423661 0 0 0
35 2 -0.6479937688627916 0.6891817492602674 7.438966046796483 0 0 0
585 2 3.9429039146078315 2.265139656637948 9.326013745472649 0 0 0
80 2 6.806356488471513 1.3904071936531257 0.7332634514057115 0 0 0
671 2 8.138968457136682 5.231643118637187 9.25411823883322 0 0 0
221 2 4.515885627610665 10.326710480785662 2.7115774868847002 0 0 0
83 2 2.492321609284624 5.526451139141109 0.9328836165415103 0 0 0
68 2 -2.544970035456409 1.3231625948067518 8.505006014060465 0 0 0
19 1 1.1625225393063778 2.678591594609793 0.2313385463498273 0 0 0
753 2 4.1943770268140215 9.128867885252582 8.932753357451931 0 0 0
136 1 12.92612332730622 3.177378200742618 3.1548037131696343 0 0 0
149 2 10.890263059489476 5.972653948754527 8.623589859799017 0 0 0
148 1 11.187120392588508 6.926173434312682 8.347826890335694 0 0 0
143 2 11.776185893876901 3.660925564922396 6.986448957002617 0 0 0
258 2 12.67212581882055 9.169704814650936 4.822455904386416 0 0 0
150 2 11.369653333783956 7.528549489697086 9.061401833932951 0 0 0
256 1 12.643686773009719 8.338028846104816 5.32398124486601 0 0 0
237 2 14.876899539793728 7.295095248782005 7.510760000603751 0 0 0
125 2 14.009055989403086 3.0530180711215613 7.3432038989741875 0 0 0
152 2 7.6660125454387344 0.7573112502987914 7.650313399903919 0 0 0
304 1 12.973018963135736 10.594010824267151 3.8262568069799157 0 0 0
217 1 6.960365548941284 10.665816408605242 6.2583236125861355 0 0 0
235 1 -2.22579001719722 7.9479306148545446 7.796087298025594 0 0 0
236 2 15.027427635025175 8.554645443188083 8.404117357099445 -1 0 0
85 1 15.625192890766597 1.0111553741207138 4.937968556497797 0 0 0
89 2 12.89306716997667 1.9305945964539228 4.6127930141056215 0 0 0
101 2 14.506492202748639 5.379650457460555 1.3285802862571343 0 0 0
138 2 13.872954946004384 2.9941888971211266 2.7438999889652216 0 0 0
88 1 12.983540683480404 1.2206507329624317 5.2573228520888025 0 0 0
137 2 13.141616101483248 3.87589824013533 3.83071848193598 0 0 0
126 2 12.895114234358683 2.0861494652192962 6.7317627255509 0 0 0
113 2 14.170477286366676 6.850497927647414 2.3571820562714696 0 0 0
294 2 12.789885878871628 9.120927423489372 6.991121535508635 0 0 0
111 2 12.78459539373307 6.470764286074335 7.780799894984001 0 0 0
306 2 13.723851827534379 10.41485797134009 3.202558316264528 0 0 0
167 2 11.270879023801184 5.863740455115783 1.0552605240928932 0 0 0
67 1 -2.2549664602114707 0.5150789228172673 8.058944997899147 0 0 0
584 2 2.9287994247044886 1.0981877022845175 9.416997220677171 0 0 0
151 1 6.810976451576555 0.49854830621193036 8.09481812356792 0 0 0
486 2 11.243482161956965 0.014073505228530542 8.61543414022512 0 0 0
70 1 3.878374698322596 0.3851875629286494 1.820496402770182 0 0 0
147 2 17.01405127409566 7.723537626448323 1.0530253918367283 0 0 0
55 1 -0.22207175740569063 3.8985323623549752 3.291131663075216 0 0 0
248 2 8.095089771272436 8.120145286104805 0.6549522139631722 0 0 0
190 1 0.49377138984538993 10.323582479921113 9.59891949340348 0 0 0
156 2 12.025063448737416 0.817384966827482 1.9931750544339597 0 0 0
86 2 16.328147246832728 0.3424518377080913 5.068551591868169 0 0 0
219 2 6.199930189975513 10.637531196103952 6.890847179286067 0 0 0
9 2 -0.7871651249881672 7.009626989857249 4.706540567436516 0 0 0
255 2 15.536388119801918 8.604163470345775 3.7590356120804995 0 0 0
165 2 16.64414309488073 0.419462362755314 0.6334669692692787 0 0 0
84 2 3.231383480793249 6.860247303702406 0.4864444139205105 0 0 0
290 2 15.834675704964377 10.58204232638693 2.7120484405946326 0 0 0
22 1 0.27003545367082044 2.718138887292634 9.295836722617038 0 0 0
220 1 3.8872354857809532 10.575163213759913 3.4451214786220876 0 0 0
301 1 15.634967421354453 10.51547316781393 6.378127279300936 0 0 0
100 1 14.609247748285025 4.982620342719854 0.34268831562959545 0 0 0
16 1 5.747714306232611 4.6286707963237745 0.2049016129355627 0 0 0
121 1 15.56774181719726 2.3986811996866715 2.413386759551382 0 0 0
158 2 14.598521781111002 5.7430993569911815 4.683243246073067 0 0 0
257 2 13.370061130215793 7.902063243589713 4.926411742686306 0 0 0
124 1 13.050667744833907 2.7730558249654083 7.466544864512246 0 0 0
90 2 13.951063517173365 0.9304938990244596 5.180534831098752 0 0 0
157 1 14.09985464227544 5.02169247850373 5.080636524887781 0 0 0
112 1 14.798181183113114 6.11759783525902 2.660599382351191 0 0 0
159 2 13.843976131832436 5.220004971427746 6.008795320523769 0 0 0
292 1 13.041614663170725 9.914748349782016 7.5092862443447705 0 0 0
123 2 15.70455609819426 2.182041784790913 1.484357188052726 0 0 0
291 2 15.322318817864469 9.388885328708925 1.6671868392769829 0 0 0
289 1 15.184969433329183 9.794584143439463 2.5421978456989853 0 0 0
836 2 12.592005651603284 9.317564576811456 9.064052445280305 0 0 0
528 2 2.9888252752123785 2.8690713681801996 0.26588806337903415 0 0 0
253 1 15.617473536883736 8.270949718842036 4.708394779886102 0 0 0
602 2 16.264416969783277 4.7099878529708255 0.4476483229144667 0 0 0
103 1 10.174448080687057 2.751092523892245 0.35237434645249865 0 0 0
780 2 13.144222353572445 9.472112492155729 0.5658260169449213 0 0 0
302 2 14.85431474089634 10.392113828520184 6.935103627063941 0 0 0
109 1 13.6019118615903 5.929461610522595 7.6448181670796815 0 0 0
24 2 -0.6413888055201001 2.857238665638528 9.541732967397547 0 0 0
222 2 3.050527104482429 10.912938705016971 3.045834948985028 0 0 0
133 1 15.48718981640752 3.3247563656835126 6.608787502096437 0 0 0
2 2 7.528796539916229 0.46203251094894404 4.853628198147119 0 0 0
20 2 0.6429784768110943 3.5664673166186627 0.23215458230031807 0 0 0
668 2 12.696173304603679 1.7130558391068622 8.96111230599258 0 0 0
56 2 -0.31900283792080775 4.833590517820646 3.5252482318694702 0 0 0
189 2 2.1409130035677846 10.255313207462356 0.2094190892008246 0 0 0
154 1 12.737142779571448 0.4510766414689432 1.3757473071765016 0 0 0
311 2 11.107853615977334 11.007520291716586 5.844547086215052 0 0 0
274 1 9.591303026028305 10.271864572335204 9.581768102443574 0 0 0
145 1 17.257099971070517 7.039350265899254 1.7794499855844077 0 0 0
122 2 16.200007285105038 3.136738335699429 2.680715652067643 0 0 0
293 2 12.395739246645443 10.62383692359392 7.216839055887052 0 0 0
114 2 15.658385312344633 6.484168768148596 2.351378639625278 0 0 0
587 2 -1.7163947745940993 6.645833722555286 9.366870544814047 0 0 0
23 2 0.7134005425380925 3.5286095157793307 9.462469758650638 0 0 0
146 2 17.445322705899315 6.247149141181407 1.1936220700757565 0 0 0
110 2 13.756866213789197 5.400843680690569 8.472666927224376 0 0 0
134 2 15.198048123435631 3.843707660009351 5.835863402645195 0 0 0
106 1 9.54842194950371 2.4892968044598835 9.498842155403633 0 0 0
777 2 6.210528912819418 10.940767957107454 9.637651441225255 0 0 0
117 2 9.64760031633532 0.3527342974049001 2.241583474876079 0 0 0
305 2 12.355114950740834 11.246217473299552 3.4951993235058025 0 0 0
87 2 15.600955150579717 1.1988094508412408 3.9774283717324996 0 0 0
273 2 10.922929686409065 10.141961367568802 0.2258593996090021 0 0 1
521 2 2.1763252793815537 5.576366330777625 9.237098651017837 0 0 0
209 2 3.714351917404893 10.536172991072654 7.230184038271655 0 0 0
776 2 7.670418587133866 10.358885534529751 9.708384773287593 0 0 0
254 2 15.848120956691456 8.989168146542998 5.329016256956356 0 0 0
135 2 15.704048322527706 2.411798668638304 6.268664239752924 0 0 0
751 1 3.760845522398815 8.667689323976056 9.679468564730053 0 0 0
247 1 7.335210420316299 8.497054219229472 0.21087966360107194 0 0 0
102 2 14.05884506468692 4.148071036968691 0.20982651418423462 0 0 0
187 1 1.157250846222718 10.16342125476178 0.35659863283826326 0 0 0
401 2 1.6168033763986869 0.11889603844687237 7.991476300128296 0 0 0
224 2 -0.35799524434042707 11.130805235311787 4.200185136874781 0 0 0
399 2 8.463118342469334 0.19479282919230212 0.6916996841707947 0 0 0
108 2 8.603313359191626 2.6321536259782192 9.726782240849793 0 0 0
271 1 10.12102454498115 9.735764298107323 0.5379278899862002 0 0 0
667 1 12.20478413815734 1.149742792715866 9.606629736305942 0 0 0
82 1 2.685556437642225 6.12885140733304 0.19511514129064783 0 0 1
104 2 9.487228665222597 3.4819903219312316 0.38780919080354687 0 0 1
775 1 6.736462204777041 10.132684677239823 9.564450977911632 0 0 0
604 1 11.118308321350893 4.498899622993712 9.60011306242575 0 0 0
606 2 10.60965121208302 3.6286598371680605 9.494902950192309 0 0 0
612 2 12.117096043368973 3.0138417316045825 0.2268522312361122 0 0 0
686 2 8.83671750024438 11.016014286501301 0.2807012690521158 0 0 0
601 1 17.215512355080072 4.9440602707586825 0.20779175236511793 0 0 1
694 1 4.042545714807122 10.203152368618666 0.17736194131484875 0 0 1
696 2 4.664916056054106 10.961741597711733 0.2651487001885421 0 0 1
163 1 16.08268899840717 1.1186010693280064 0.1463167486606982 0 0 0
586 1 -0.8818601982539246 6.337726781133034 9.69009912534789 0 0 0
166 1 11.596065752286103 6.281893311038625 0.1906875621003556 0 0 1
692 2 -2.7072037366229917 10.706278936472978 9.710481570791078 0 0 0
778 1 6.27486714623859 10.096309446924069 19.16042424385119 0 0 0
749 2 -1.8373629117159282 10.30365761608851 15.181828361238967 0 0 0
654 2 7.421097033787213 6.190256559151968 18.218490460186263 0 0 0
834 2 5.495721619188116 10.573331230551076 14.088173992624919 0 0 0
740 2 -5.293411612738679 7.166265458590197 18.77142849722293 0 0 0
249 2 1.0695611065282384 8.898599995272482 18.69316019149227 0 0 0
526 1 -2.8103674672656753 2.709989016182236 19.05236551346632 0 0 0
571 1 -5.293793048524354 0.25282245826092475 18.007953565452468 0 0 0
79 1 0.40505021073049435 1.1759900400929162 19.067438318160335 0 0 0
333 2 8.539811274233427 8.06450478025685 18.982978331706057 0 0 0
603 2 10.458081679754622 5.176189196722764 18.510053059933814 0 0 0
507 2 3.878536820179322 0.8182964435701702 14.30131717031553 0 0 0
728 2 -3.4600046355347622 10.841573335577129 13.441964826375287 0 0 0
656 2 2.3360995308212784 0.08660274574207542 17.506343353239334 0 1 0
523 1 -2.492597650634243 2.496568057427444 9.76696377660199 0 0 0
81 2 -0.21331844298494396 0.5559910951751311 18.77662303584026 0 0 0
723 2 4.171919746316086 11.075979257038206 16.656462304564453 0 0 0
986 2 13.424501726746723 0.06713364617564944 10.896043071439315 0 0 0
505 1 3.2745822883441447 1.5516306965161966 14.220114341382526 0 0 0
506 2 3.5470484296082048 2.161362453074309 14.937405985913761 0 0 0
621 2 8.025179289606228 0.9290192032845384 12.07052707733359 0 0 0
508 1 0.5969893043960225 1.3017693285781693 14.633451109336095 0 0 0
670 1 7.793538374425488 5.755971673398455 9.990744522611713 0 0 0
527 2 -3.0800132156339144 2.3328692568458944 18.181839480684733 0 0 0
511 1 -4.132058141578151 6.544563571087939 14.584482214948782 0 0 0
512 2 -4.046535238483794 5.703028096653002 14.098280789094067 0 0 0
513 2 -3.9946671195522985 6.249360490859176 15.517665144528609 0 0 0
514 1 -1.4092260949649438 6.574330688948406 14.206828327558489 0 0 0
515 2 -1.2977415059287485 5.8105175194704755 14.695284599322003 0 0 0
516 2 -2.3200539523029895 6.797832552503218 14.193464460592535 0 0 0
810 2 8.677045922160392 11.157026718154007 12.483061320238772 0 0 0
519 2 1.8120860130130518 5.335416866742655 18.234129372745382 0 0 0
828 2 8.811701764583725 8.149478933033535 11.66319374555979 0 0 0
522 2 1.862752544984136 5.2150364316521465 10.688516127191948 0 0 0
672 2 8.588490984540558 6.334086474932256 10.247863855258597 0 0 0
107 2 9.714588809333389 1.7785783343765018 10.13759306245278 0 0 0
509 2 0.08513548744245303 0.4993225011826374 14.531590313618358 0 0 0
798 2 9.425841509640493 9.366957322618228 16.307773651725718 0 0 0
572 2 -5.389640887534926 1.1833607170644003 18.241101046579253 0 0 0
529 1 1.4995361029721526 6.361832067705726 17.01295313910674 0 0 0
530 2 1.3381955831973555 5.958744600613694 16.14396513202516 0 0 0
531 2 0.5518462210043095 6.51444139976627 17.376778511493733 0 0 0
532 1 2.3428066253415984 6.414190235608532 12.150383174734642 0 0 0
533 2 3.242232655069706 6.728746498338117 12.225553886105596 0 0 0
534 2 2.22011693118353 5.841642804403535 12.92427225416317 0 0 0
535 1 -1.8889425724093196 1.2745261006106903 12.152362320844764 0 0 0
525 2 -2.329787823967817 1.955895507091599 10.584595838509012 0 0 0
693 2 -1.2443234042814448 10.131410248330294 9.852027681481944 0 0 0
538 1 -3.130491711708059 1.279503891442579 16.817948560983957 0 0 0
609 2 6.8101750978529205 2.103445927013353 10.616449099234464 0 0 0
540 2 -3.0396728606352794 1.597352384187686 15.891015312305852 0 0 0
541 1 2.6888580036300076 2.981773511766072 12.018415119192527 0 0 0
542 2 3.053715384020129 2.2978616796869655 12.616400463904155 0 0 0
543 2 2.7687383223040065 2.654522197055012 11.144464387354436 0 0 0
544 1 0.6720766020638744 2.9122512928940023 16.83292338930275 0 0 0
545 2 0.32016245587434095 2.4209368509597136 17.627192249777153 0 0 0
546 2 0.6307503054742375 2.206165664391288 16.132052364714472 0 0 0
547 1 -3.4621476146855334 4.934210517128115 16.88259121460932 0 0 0
548 2 -4.118204498700535 4.234406270931029 16.826592567019357 0 0 0
549 2 -3.371153169746499 5.11088586539907 17.825863130745454 0 0 0
550 1 -1.4053180155092821 5.135072345746397 11.999229966258572 0 0 0
551 2 -1.0038818472185245 4.256794981426928 12.159383221268648 0 0 0
552 2 -1.1727499618900024 5.578577944108977 12.841219530332335 0 0 0
553 1 3.387793361770831 3.2645383947217783 16.230579468770948 0 0 0
554 2 2.652547395678214 3.302769933554227 16.853005681910847 0 0 0
555 2 4.1288329354336595 3.812048307924209 16.471975198518937 0 0 0
556 1 0.2957645784640627 3.489041873144881 13.1436984639959 0 0 0
557 2 1.1325027203389224 3.400409289057751 12.638546967307251 0 0 0
558 2 0.3468102400520784 2.642754406742893 13.645383481988768 0 0 0
559 1 -3.80753626587991 4.3628758449605 13.089368533507757 0 0 0
560 2 -3.0418308660892484 4.527435385799931 12.52951796009458 0 0 0
561 2 -3.465313194497919 3.5012044832534888 13.527241561602635 0 0 0
562 1 -1.1437185473856406 4.396106414984251 15.5789722564505 0 0 0
563 2 -0.4567700506265022 3.881999302047853 16.148717583998078 0 0 0
564 2 -1.9177005965410685 4.403148792154514 16.15860787478585 0 0 0
565 1 4.987680674099808 7.084807227604836 11.509034968104192 0 0 0
743 2 0.11242364346140482 7.624757946522926 10.330125649340113 0 0 0
658 1 9.292755073882097 0.29526100468386324 11.305326859065207 0 0 0
568 1 -0.9271131062099823 6.918322324218021 17.918797322106613 0 0 0
539 2 -3.962012962001353 0.8645369116819285 16.925090298154423 0 0 0
518 2 0.9494281857408986 4.596602307204841 19.2423773394186 0 0 -1
779 2 6.239092274030054 9.690244519426361 18.296072086961708 0 0 0
574 1 0.5571859808261478 0.6975144279102281 11.230082043389697 0 0 0
827 2 10.253389353414253 7.544966772610377 11.232276148054831 0 0 0
570 2 -0.5103062456817216 7.507498694236285 18.668048615869438 0 0 0
576 2 0.42527305474701055 1.4641145828593571 10.681567699476322 0 0 0
577 1 1.8859976229735427 5.172409362971596 14.387696084683911 0 0 0
578 2 1.0992701352149834 4.637318759253384 14.151572142541585 0 0 0
579 2 2.502968717043273 4.56185941671636 14.768427865010944 0 0 0
580 1 -2.5228409023515157 2.310184688271169 14.361790131381238 0 0 0
581 2 -2.1579337166817716 1.8736730381374234 13.52400649471155 0 0 0
582 2 -1.8223924099351239 3.0129593403667685 14.567632589131156 0 0 0
607 1 6.829512427502026 2.6146195632155664 9.790214196252364 0 0 0
98 2 13.7726590945305 5.285207110567643 10.745982625991232 0 0 0
589 1 12.130084051113565 0.9941597149318221 14.705391207290182 0 0 0
711 2 2.012139599750486 10.254994335326595 11.845067454682328 0 0 0
591 2 12.305827871323457 1.9381370588619236 14.907118174543948 0 0 0
592 1 9.340810603095795 0.9545523609577863 14.873789968554485 0 0 0
826 1 9.397336101262452 7.925130835578539 10.87661733675857 0 0 0
594 2 9.19476205265775 1.641267419531165 14.140190486296214 0 0 0
595 1 5.1039059864533805 6.777158384301773 14.700056530524872 0 0 0
596 2 4.819227054370926 6.348719789507806 15.506207527696743 0 0 0
597 2 5.023994797573566 6.079785601060073 13.973846274287297 0 0 0
598 1 7.755278014887887 6.311773233820678 15.059561027694778 0 0 0
599 2 6.930409168243577 6.815836510677056 15.090967939607225 0 0 0
600 2 7.924903292892895 6.090886503820678 14.130543417632996 0 0 0
794 2 12.377621566520471 10.706345560263248 12.477256536356407 0 0 0
797 2 10.548407683477297 10.325425874301544 16.703016326920046 0 0 0
837 2 12.091140156837854 9.369723213495137 10.576989478282309 0 0 0
605 2 10.85199761798704 4.895063369831106 10.443244442501749 0 0 0
832 1 6.2304654611986905 10.07683516294456 14.545393329859257 0 0 0
608 2 6.194018424341309 3.3789301557381743 9.925230331894825 0 0 0
825 2 3.599510223821773 8.525685588742235 18.11249390025324 0 0 0
724 1 0.6553081877706011 10.879989066661189 12.887796099582769 0 0 0
566 2 5.2251021579121 6.240573441754379 11.081922872682759 0 0 0
611 2 6.5053799280779225 2.348629082809727 18.5150467593018 0 0 0
613 1 10.33035612435095 6.090928392640016 16.814202220564002 0 0 0
614 2 10.993372256523298 6.777031088939588 17.051755957056574 0 0 0
615 2 9.464070810343848 6.5125373906963056 16.971305167942397 0 0 0
616 1 11.343531728449973 6.430600709100466 11.942278741264326 0 0 0
617 2 11.307379933520009 5.915505756459647 12.720910582899997 0 0 0
618 2 12.327468701747053 6.611041144191326 11.911524304773334 0 0 0
619 1 7.087701125607384 1.3082019379265515 12.08989140896975 0 0 0
655 1 3.1809225421167326 0.5478862689537307 17.729538213734504 0 0 0
99 2 12.708835889144233 4.485750903933358 9.964350341040298 0 0 0
622 1 5.800058500943609 1.288742213422885 17.232940437462805 0 0 0
809 2 10.1259579576782 10.578469679531267 12.596360930043192 0 0 0
624 2 5.953423430022268 1.480022304431526 16.288942662087013 0 0 0
625 1 11.936364673832525 2.5747372323587645 12.031639733729989 0 0 0
626 2 12.04292187571401 1.892587624603158 12.701442179611146 0 0 0
627 2 12.655011398710961 3.252301257952751 12.12786339341854 0 0 0
628 1 10.03376911238197 2.377327001531865 17.02636967272818 0 0 0
629 2 9.859212807465353 2.0926998203354956 17.95666690815282 0 0 0
630 2 9.630395894364986 1.7748634681748006 16.338884946601308 0 0 0
631 1 5.2213994757515945 4.966346180751012 16.95099012596953 0 0 0
632 2 5.124079166749391 5.284333049164956 17.839137259815267 0 0 0
633 2 6.0727040504076495 4.465616705398949 16.97627552959321 0 0 0
634 1 7.624213187016301 5.0124565314854905 12.593590982261388 0 0 0
635 2 6.689500115056594 4.747392440595434 12.731708868088385 0 0 0
636 2 7.557141348876626 5.270380606953316 11.612233234052162 0 0 0
637 1 12.351862486455106 3.3878179882352533 15.721853491235278 0 0 0
638 2 12.157677804379727 4.20663309808014 15.275677278449106 0 0 0
639 2 11.554262461453483 3.1241081992434983 16.191261054372863 0 0 0
640 1 9.314838678284826 3.094746265707607 13.364372758274914 0 0 0
641 2 8.760573520573809 3.8494305339991572 12.948463608847215 0 0 0
642 2 10.07361269378831 3.039250286138749 12.74791856337749 0 0 0
643 1 5.115639716827942 4.362169296213309 13.323959858750419 0 0 0
644 2 4.247844562327205 4.1730825314105795 12.899114257862227 0 0 0
645 2 5.277767803253565 3.573615647195066 13.870960277715316 0 0 0
646 1 7.692248327232876 3.9172206516550023 16.219777798322045 0 0 0
647 2 8.5443669007099 3.7785432044540075 16.692042423676575 0 0 0
648 2 7.852136801525716 4.731937534657184 15.727583680893053 0 0 0
649 1 13.86820294352014 7.118705874411379 11.459650395568582 0 0 0
650 2 13.464262822683645 7.83094871493207 10.948676393517154 0 0 0
651 2 -3.168075104389028 7.63837200898693 11.894690729744989 0 0 0
652 1 7.859733499732001 7.041630786393513 17.91014965270658 0 0 0
653 2 7.1807879542519535 7.5013679232667965 17.336419422341343 0 0 0
593 2 8.818968612924344 0.10105127561871108 14.762947864753333 0 0 0
275 2 9.636187772612251 9.397871060784427 10.09190155125104 0 0 0
537 2 -0.9521299163028601 1.0116369128595686 12.21169161926949 0 0 0
661 1 10.528365375962235 5.241515887506556 14.171978687997573 0 0 0
662 2 10.486570308487055 5.56007932553968 15.064468942229112 0 0 0
663 2 10.106448837196135 4.390188066222019 14.210783632420366 0 0 0
664 1 6.347359827309072 2.312753954804668 14.581112926652674 0 0 0
665 2 6.87083819643115 2.980730022462992 15.100491977343813 0 0 0
666 2 6.7769834327708365 1.9053307364695045 13.81663501870817 0 0 0
669 2 11.924149906437309 1.6865824507841616 10.402835152309876 0 0 0
796 1 9.638059025123296 10.095860992066527 16.89942129969462 0 0 0
590 2 11.180422530195878 0.773746560498414 14.737945028335911 0 0 0
673 1 3.3897201315213725 8.838388247544032 14.214624591050045 0 0 0
674 2 4.0245883900877475 8.06111980499003 14.383203303893048 0 0 0
675 2 3.407008301303187 9.215610047844919 15.111117296671516 0 0 0
676 1 0.26608366284153506 8.567651917029444 14.89853228850149 0 0 0
677 2 1.1725316424988497 8.183250831701748 14.820504628813095 0 0 0
678 2 -0.3258317929821287 7.82511467244538 14.843102354507701 0 0 0
623 2 4.840551160246437 1.1403367069111479 17.275257842848518 0 0 0
808 1 9.28471039264324 10.8031227051312 13.134118131236075 0 0 0
588 2 -1.0767834456981769 5.830461633392091 10.544328676459719 0 0 0
807 2 12.547856416543 10.061434779823545 15.672745207205482 0 0 0
695 2 -2.6012327055173197 9.6595428529136 18.519147027402028 0 0 0
805 1 12.168984694920924 10.828374800296645 16.15190273843838 0 0 0
703 1 -2.042287180756027 8.870526283787964 12.241619737385928 0 0 0