LAMMPS data file via write_data, version 15 Apr 2020, timestep = 1148000

1920 atoms
2 atom types

1.7007008284737779e-02 2.4707397991718729e+01 xlo xhi
9.1964131158789542e-02 2.4632440868835360e+01 ylo yhi
-2.8320306682951824e-02 2.2820692306688017e+01 zlo zhi
1.1123925404794640e-02 1.8935530180595220e-01 -1.0787017958347950e-03 xy xz yz

Masses

1 16
2 2

Atoms # atomic

1 1 4.3492620863990918e+00 1.8706774580524481e+00 4.4179804457977783e+00 0 0 0
2 2 5.1776547207355099e+00 1.8280953427794984e+00 3.8768646039570123e+00 0 0 0
3 2 4.2500053827339226e+00 1.0254632381707851e+00 4.9337183673902842e+00 0 0 0
4 1 3.0378991184434128e+00 2.0097637583223937e+00 1.9614790274834539e+00 0 0 0
654 2 7.7800342576121428e+00 1.1819269045671437e+01 6.5159719220699115e+00 0 0 0
6 2 3.2635600143754604e+00 1.8723277237409524e+00 2.9031243684020756e+00 0 0 0
7 1 5.9594773886627781e+00 4.7184500166464316e+00 3.9599051485245322e+00 0 0 0
8 2 4.9986406728841848e+00 4.8481593163651739e+00 3.8972590661318951e+00 0 0 0
9 2 6.2259875657322539e+00 3.8139573787170873e+00 4.2578237582032967e+00 0 0 0
10 1 3.3260971751100126e+00 4.8298159662648574e+00 3.5880254035444481e+00 0 0 0
11 2 2.8387652189355093e+00 4.0328583836778655e+00 3.9723417521138584e+00 0 0 0
12 2 2.7966150897198476e+00 5.4421674066836117e+00 4.1466908592806586e+00 0 0 0
13 1 1.5049649997292811e+00 3.0102736046251559e+00 4.8202095458896101e+00 0 0 0
14 2 1.5100348008809765e+00 2.0244167002268627e+00 4.8702123900622709e+00 0 0 0
15 2 1.5087918237833389e+00 3.3935346700690037e+00 5.7360814290521942e+00 0 0 0
77 2 1.2150684752041377e+01 7.5146558258789586e-01 1.7691899210118684e+00 0 0 0
17 2 1.1569290440254221e+00 2.0091604786433459e+00 2.5634308540558921e+00 0 0 0
19 1 5.0549890265495767e+00 3.3970692915637124e+00 6.9140060439097606e-01 0 0 0
20 2 4.2261795903782113e+00 3.1467015991931069e+00 1.1468074155904218e+00 0 0 0
21 2 4.9966167725948374e+00 4.3698931420585874e+00 7.4314980986963597e-01 0 0 0
22 1 1.7299519147450508e+00 4.8799170634140143e+00 1.5043421016909733e+00 0 0 0
23 2 2.5381654337745188e+00 4.8974007556370820e+00 2.0863142327432036e+00 0 0 0
24 2 1.6120225380082007e+00 4.1626991323417872e+00 8.3808360015118577e-01 0 0 0
25 1 4.9727014420963913e+00 6.0337461833277128e+00 8.0745362168250501e-01 0 0 0
26 2 4.2879131634981098e+00 6.4782441422267159e+00 1.3571965950206091e+00 0 0 0
27 2 4.9842478098891343e+00 6.3513418949254659e+00 2.2773665882297180e+01 0 0 0
1018 1 7.8141701637861711e+00 2.8678762515667311e-01 1.6273555020918863e+01 0 0 0
31 1 1.0710667749783296e+01 1.5442552199631856e+00 4.1930586510088750e+00 0 0 0
32 2 1.0604653646944010e+01 2.3836928786170297e+00 4.6042250525727804e+00 0 0 0
625 1 4.6678359204550439e+00 1.2270783399746954e+01 6.5666798243797997e+00 0 0 0
34 1 9.0990575454097513e+00 1.2712938479228710e+00 1.9904964063417050e+00 0 0 0
16 1 3.0229128789564980e-01 1.6682562051749654e+00 2.2791927230916436e+00 0 0 0
36 2 9.2853121840036632e+00 2.0905339471213003e+00 1.5774581188114640e+00 0 0 0
558 2 1.2069601351967730e+01 2.2401140112847338e+00 7.2441876794106790e+00 0 0 0
39 2 1.1093835356613743e+01 4.5411992632772060e+00 3.5274793878697985e+00 0 0 0
40 1 9.5556258229385076e+00 4.3256956545639111e+00 3.4630008986894616e+00 0 0 0
41 2 8.9062478669242484e+00 4.6249496426922772e+00 2.7484310118077371e+00 0 0 0
42 2 9.0474145376523509e+00 3.7646038447935974e+00 4.0959146125769221e+00 0 0 0
43 1 7.8151155437335111e+00 3.1006346900845143e+00 4.9791001916148243e+00 0 0 0
44 2 7.7087032851112216e+00 3.5730646803009249e+00 5.8358252576096925e+00 0 0 0
45 2 7.6539639423553618e+00 2.1957887462411287e+00 5.1672328905873917e+00 0 0 0
46 1 6.4462724185183076e+00 1.7505614930167637e+00 2.5060740952833607e+00 0 0 0
47 2 7.4097509501622145e+00 1.5879944233040590e+00 2.2502194647212210e+00 0 0 0
48 2 6.2229049069327447e+00 2.4208672268229217e+00 1.8398904814487571e+00 0 0 0
49 1 1.0893392749388800e+01 3.1476534069698583e+00 5.6137384552994274e-01 0 0 0
50 2 1.1629301863915682e+01 2.6281565198029462e+00 1.0135454470779479e+00 0 0 0
51 2 1.1032159602874874e+01 2.7238802107527689e+00 2.2516765724152989e+01 0 0 0
52 1 7.8092642544884106e+00 4.8114871433990496e+00 1.6516155347594670e+00 0 0 0
53 2 7.6357916738156462e+00 4.0237205702942411e+00 1.1473916308073868e+00 0 0 0
54 2 7.1166776350331453e+00 4.8209518326845426e+00 2.3482875397470200e+00 0 0 0
55 1 1.0947341499234936e+01 5.9554038906066395e+00 7.4895137718610338e-01 0 0 0
56 2 1.0282944065978791e+01 6.4790843404212923e+00 1.2200249395503948e+00 0 0 0
57 2 1.0707140531377416e+01 4.9756169748005226e+00 7.4206331028550609e-01 0 0 0
678 2 1.2103798929575388e+01 6.9167696373260732e+00 7.5970351467148065e+00 0 0 0
579 2 2.2929975931337332e-01 4.7875217043724874e+00 8.4976678845311167e+00 0 0 0
1608 2 7.4677553526099434e+00 7.8458865317591018e+00 1.9389127292038189e+01 0 0 0
531 2 1.1069814843552319e+01 4.2685997823028048e+00 6.5367324617973219e+00 0 0 0
121 1 4.6992255315620550e+00 7.6231535466997054e+00 4.3655375769563731e+00 0 0 0
122 2 5.4536690312049432e+00 7.4200945350797198e+00 3.8129474054046386e+00 0 0 0
123 2 4.0257769851633451e+00 7.6894584264866959e+00 3.6902077162719844e+00 0 0 0
124 1 3.0861243094738393e+00 7.6551193682099887e+00 2.2781898215642640e+00 0 0 0
125 2 3.4833748934017241e+00 8.3157948111050572e+00 1.7493101344757205e+00 0 0 0
126 2 2.1181499644359119e+00 7.7382234765391615e+00 2.2231430129088121e+00 0 0 0
127 1 6.0136265594258802e+00 1.0765333664045237e+01 3.6450180891892083e+00 0 0 0
128 2 6.4019745529555294e+00 1.0116518214764227e+01 4.2748173815345787e+00 0 0 0
1478 2 1.2394638874169843e+01 5.5195033362104562e+00 2.1398977239012495e+01 0 0 0
130 1 3.3440628498853431e+00 1.0958418524903898e+01 3.7654171907075140e+00 0 0 0
131 2 2.8113712701137707e+00 1.0430391958489842e+01 4.3777793872097357e+00 0 0 0
132 2 2.9480294772270819e+00 1.0729556248991726e+01 2.9265992885836285e+00 0 0 0
133 1 1.6442565548175567e+00 9.1429064451177968e+00 4.7424140649549464e+00 0 0 0
134 2 1.5146495269298290e+00 9.5820844818573683e+00 5.6070462607455482e+00 0 0 0
135 2 8.9861731503622766e-01 9.6111211906563856e+00 4.2313615948393632e+00 0 0 0
540 2 7.1030716125515330e+00 3.1514629573678066e-01 9.9909330095539524e+00 0 1 0
139 1 4.8691148195267138e+00 9.3213642622321569e+00 6.2905968077578522e-01 0 0 0
140 2 4.7082947001008968e+00 1.0260599049999358e+01 7.9579607324542623e-01 0 0 0
141 2 5.5646410063225620e+00 9.0250783629004374e+00 1.1784910150639443e+00 0 0 0
142 1 1.7490329948008263e+00 1.0731141643820598e+01 1.4895163340437219e+00 0 0 0
143 2 1.7481042571565892e+00 9.8877652459353360e+00 9.6902453191993709e-01 0 0 0
144 2 1.7657923623914775e+00 1.1441656758789891e+01 8.2704867780058222e-01 0 0 0
699 2 3.3869101662215162e-01 1.1459230521670529e+01 9.5751143351542591e+00 0 0 0
148 1 1.2946363688334808e+00 6.3137101497762913e+00 5.0520120168463629e+00 0 0 0
749 2 1.6501315725563246e+00 1.1765690293395510e+01 1.1361441367033807e+01 0 0 0
150 2 1.3074252899474978e+00 7.2392570188310152e+00 4.8039969867828951e+00 0 0 0
151 1 1.0839273119762979e+01 7.5386436533337040e+00 4.3286915763339691e+00 0 0 0
129 2 5.0179586084268504e+00 1.0641809156446206e+01 3.6700766991519487e+00 0 0 0
153 2 1.0828917086838983e+01 8.3411197649900473e+00 4.9415918751397347e+00 0 0 0
154 1 9.1844883690287276e+00 7.7915161898046668e+00 2.0687547719732242e+00 0 0 0
155 2 9.6940771584684562e+00 8.5166782903288762e+00 1.6548831337162391e+00 0 0 0
156 2 9.5074030622599484e+00 7.7771336299077074e+00 2.9773041905516999e+00 0 0 0
655 1 1.0331000106549943e+01 1.1939542956257228e+01 6.2117009330214179e+00 0 0 0
158 2 1.1479725492707106e+01 1.0635918308891188e+01 3.5021151658796628e+00 0 0 0
160 1 9.7171599542886238e+00 1.0638371014204866e+01 3.6103279400605590e+00 0 0 0
161 2 9.1112981232056836e+00 1.0928086528689811e+01 2.8537857270167661e+00 0 0 0
779 2 8.4962224793393251e+00 1.2169984732729253e+01 1.0285488534056372e+01 0 0 0
163 1 7.6925528396040264e+00 9.0463723647683363e+00 4.9464795213237425e+00 0 0 0
164 2 7.9860500034735864e+00 8.1189302516999202e+00 5.1020455227277610e+00 0 0 0
165 2 8.4730391809429406e+00 9.4683669296424728e+00 4.4716519836630617e+00 0 0 0
166 1 6.5642339687655022e+00 7.7685396607961721e+00 2.2992168276323919e+00 0 0 0
167 2 6.2585679139884247e+00 7.0969932912467142e+00 1.7023746474043275e+00 0 0 0
168 2 7.5833800298988008e+00 7.8406654236549524e+00 2.2366019934603023e+00 0 0 0
169 1 1.0950672927209332e+01 9.5613140767975668e+00 9.2474304808728114e-01 0 0 0
170 2 1.1020007297067156e+01 1.0568045917934654e+01 8.4198202316119697e-01 0 0 0
171 2 1.0937538055615118e+01 9.1453727754112588e+00 -2.8247837891466541e-02 0 0 1
172 1 7.9808984597336892e+00 1.0974347246515206e+01 1.8140811378521962e+00 0 0 0
173 2 7.1943480642442541e+00 1.0932249194078080e+01 2.3859167392272722e+00 0 0 0
174 2 7.8969996327826166e+00 1.0233629805443920e+01 1.1446717438958807e+00 0 0 0
175 1 1.0922881105197263e+01 1.2249867554987201e+01 7.7935828947037566e-01 0 0 0
178 1 8.1286760755804721e+00 6.4237349379620108e+00 4.9345309221834288e+00 0 0 0
179 2 7.3806042935712517e+00 5.9038703331762292e+00 4.6051164726010372e+00 0 0 0
180 2 8.8381560031536281e+00 5.8626610147739147e+00 4.5385588437840401e+00 0 0 0
1518 2 1.2250487578885737e+01 2.4711900996372367e+00 1.8630698790749101e+01 0 0 0
28 1 1.3971736065093840e+00 3.0062604327921033e-01 4.8843898202738600e+00 0 0 0
1827 2 3.8464122559064986e+00 4.6342805532989428e-01 1.8166024540320009e+01 0 0 0
1589 2 1.3877506823235881e+00 5.8633259997162952e+00 2.1716802207730929e+01 0 0 0
1619 2 7.6144428726870643e+00 6.0463365753954639e+00 2.4769779820656862e-01 0 0 1
495 2 9.4792739432602025e-01 3.5869026696831221e+00 1.0139101964321206e+01 0 0 0
1618 1 7.8139864913875057e+00 6.3319608655275772e+00 2.2163745211438211e+01 0 0 0
997 1 1.2215443735617207e+01 4.8127100574090127e+00 1.4935874471802682e+01 0 0 0
219 2 3.6556604916119334e-01 1.1741818035093930e+01 3.9139956544940429e+00 0 0 0
481 1 4.2556593974021393e+00 1.9749724132823079e+00 1.0117641197389494e+01 0 0 0
482 2 4.1353646892970337e+00 1.1858442236561912e+00 1.0661951191097703e+01 0 0 0
483 2 5.0763711991487046e+00 1.8602349041398758e+00 9.5695251752876906e+00 0 0 0
484 1 2.8492015256155878e+00 1.6080137662833833e+00 7.7636224190640881e+00 0 0 0
485 2 3.1088898654684112e+00 1.6270516592365167e+00 8.6732669526824200e+00 0 0 0
486 2 1.8726105452188007e+00 1.8164097854545391e+00 7.6714565193901647e+00 0 0 0
487 1 6.1561275119086307e+00 4.9754807894241013e+00 8.9996133343228770e+00 0 0 0
488 2 5.1890955706663702e+00 5.0123563295621016e+00 9.0177103122269635e+00 0 0 0
489 2 6.5199483466629919e+00 4.1531470675387423e+00 9.4410979866953504e+00 0 0 0
490 1 3.2268777986466755e+00 5.0245604912356763e+00 9.1567997443479427e+00 0 0 0
491 2 2.8551630510904777e+00 4.2383884712403486e+00 9.6130880932451266e+00 0 0 0
492 2 2.7585733106877224e+00 5.7547255394119743e+00 9.6241975982205883e+00 0 0 0
493 1 1.6476041886694661e+00 3.2660688382317238e+00 1.0767130624827933e+01 0 0 0
494 2 1.4821724848326452e+00 3.8220728326290749e+00 1.1551729792460094e+01 0 0 0
1605 2 7.0304757010323264e+00 9.6882303631889481e+00 2.2220098999651199e+01 0 0 0
1613 2 7.5923650887893199e+00 1.1391899170717679e+01 1.8005009377517148e+01 0 0 0
499 1 4.3011118686577463e+00 3.5788852699492795e+00 6.7367032598817600e+00 0 0 0
500 2 3.4649484916324633e+00 3.1410739315874991e+00 7.1323201925352677e+00 0 0 0
501 2 4.4550521641843019e+00 3.0350211499621924e+00 5.8958551521744704e+00 0 0 0
502 1 1.5202927832903843e+00 4.5556070431685107e+00 7.0981255119496609e+00 0 0 0
503 2 2.2477966387826953e+00 4.6982626996401162e+00 7.7764910635171658e+00 0 0 0
504 2 1.6692958839190517e+00 5.2742622193219866e+00 6.4322716695068527e+00 0 0 0
505 1 5.1185306046373222e+00 6.0717181327478755e+00 6.5079209918118064e+00 0 0 0
506 2 4.8035768162012848e+00 5.1145531744178934e+00 6.5693933434386702e+00 0 0 0
507 2 4.9313086629365364e+00 6.5310710830681833e+00 5.6145698740028074e+00 0 0 0
5 2 3.4450807541840098e+00 1.2260999576773985e+00 1.6075420808712084e+00 0 0 0
509 2 1.4923081848081021e+00 1.5045036200523219e+00 1.0889609843157656e+01 0 0 0
511 1 1.0772133517096576e+01 1.6643656615382907e+00 9.7813002548228773e+00 0 0 0
512 2 1.0539046064591181e+01 9.2309941704889731e-01 1.0407912989453241e+01 0 0 0
513 2 1.0060461859709939e+01 1.6429686743772611e+00 9.0946256902411147e+00 0 0 0
514 1 8.9142295943323973e+00 1.6498158091549553e+00 7.6458345963675445e+00 0 0 0
515 2 7.9854900545972320e+00 1.8319695435457986e+00 7.5808649933316330e+00 0 0 0
1571 2 2.8551877592826860e+00 1.1622311713596876e+01 2.1160270581177663e+01 0 0 0
300 2 7.0870840271035229e+00 1.2312862208413192e+01 4.2916633429447781e+00 0 0 0
520 1 9.7507327786698639e+00 4.4787403545482896e+00 9.2327334149902516e+00 0 0 0
521 2 1.0698148276268601e+01 4.7514564991788681e+00 9.0220959222578330e+00 0 0 0
522 2 9.1964376886097039e+00 4.4531875298509220e+00 8.3759860261501142e+00 0 0 0
523 1 7.5312432541400058e+00 3.3050449436015636e+00 1.0491319356659712e+01 0 0 0
524 2 7.7978853792405936e+00 2.4017486909969521e+00 1.0608489795616240e+01 0 0 0
525 2 8.3327659598574542e+00 3.8039132219692564e+00 1.0123422769572661e+01 0 0 0
526 1 6.1184938997711855e+00 1.8132842283543649e+00 7.9736544733177634e+00 0 0 0
527 2 5.6683870235604852e+00 1.0122588368482486e+00 7.6718437160257684e+00 0 0 0
1739 2 7.2926793392863463e+00 1.2290233502181929e+01 2.2093607316577440e+01 0 0 0
529 1 1.0940981055209166e+01 3.2656837619828663e+00 6.5762047854856620e+00 0 0 0
530 2 1.0124823150244028e+01 3.0254493966362808e+00 7.0212818148646772e+00 0 0 0
145 1 4.5944555237925053e+00 1.2016427734161910e+01 9.4159277162184984e-01 0 0 0
532 1 7.8321490722347562e+00 4.6356885767922202e+00 6.9559753868739991e+00 0 0 0
533 2 7.9869533491831914e+00 5.3506572116889526e+00 6.3292834688331654e+00 0 0 0
534 2 7.0110008685391474e+00 4.8924885229971435e+00 7.4835811070774856e+00 0 0 0
535 1 1.1033118822074204e+01 5.8033680951255908e+00 6.1562930899163755e+00 0 0 0
536 2 1.0288247681340273e+01 6.1891082943312101e+00 6.6321276737884363e+00 0 0 0
538 1 7.8043483750869713e+00 5.8360494588609590e-01 1.0597592602654625e+01 0 0 0
1607 2 6.1797668479577164e+00 7.4329559679581214e+00 2.0157750421172494e+01 0 0 0
614 2 9.3136703969756485e-01 9.5431147437367052e+00 9.7795399320217111e+00 0 0 0
1472 2 1.1801314758939679e+01 1.6532331246060954e+00 2.0711095726284299e+01 0 0 0
990 2 1.0317483436010675e+00 3.3265303664993062e-01 1.5912145489538721e+01 0 1 0
1612 1 7.7286117155302678e+00 1.0637993738640498e+01 1.8568560860074953e+01 0 0 0
601 1 4.8235834419874726e+00 7.8549811848809501e+00 1.0030959017109257e+01 0 0 0
602 2 5.6222011375053560e+00 7.7492732444149199e+00 9.4770824067807631e+00 0 0 0
603 2 5.0351196170985002e+00 8.5984837164069035e+00 1.0643388524822615e+01 0 0 0
604 1 3.3194638132642642e+00 7.8258255783217168e+00 7.7354932536970207e+00 0 0 0
605 2 3.7121405172795745e+00 7.9829282321918456e+00 8.6596348505995948e+00 0 0 0
606 2 3.8246630945450830e+00 7.0920811347290371e+00 7.3447964918961688e+00 0 0 0
607 1 5.9632432364247823e+00 1.1023648883155744e+01 9.2685005101174998e+00 0 0 0
608 2 6.2896101392289445e+00 1.1085342025978800e+01 8.3677779970288562e+00 0 0 0
609 2 6.3490407118870253e+00 1.0229207757878358e+01 9.6649933801226009e+00 0 0 0
610 1 3.3238135827490005e+00 1.0921834840681980e+01 9.3264456616742439e+00 0 0 0
611 2 2.8969484394122884e+00 1.0858534455617471e+01 8.4175314106635248e+00 0 0 0
612 2 4.3125765521173456e+00 1.0884903889562143e+01 9.2085328023494899e+00 0 0 0
613 1 1.6456965168831466e+00 9.2253130523609190e+00 1.0446991256915020e+01 0 0 0
897 2 1.1550692061166039e+01 2.1340540397387103e-01 6.7499517954958499e+00 0 0 0
615 2 2.3887469745697962e+00 9.8241280923012653e+00 1.0173645363426671e+01 0 0 0
1092 2 2.9897848383532328e+00 1.0733767749660892e+01 1.4090939947244797e+01 0 0 0
618 2 1.4282446543495140e+00 7.5745383288893420e+00 7.8121039607513785e+00 0 0 0
619 1 5.0152302622821008e+00 9.6270844642403652e+00 6.4229482349730054e+00 0 0 0
620 2 4.9111269328142395e+00 9.1601966862020969e+00 5.5631973048198207e+00 0 0 0
621 2 4.3603735281325831e+00 9.1137996463729838e+00 6.9776675648658735e+00 0 0 0
622 1 1.6413172741075066e+00 1.0817328615372245e+01 6.9191422170596102e+00 0 0 0
623 2 1.0197844928674986e+00 1.0852855471047802e+01 7.7074455613583561e+00 0 0 0
624 2 1.6745394334799601e+00 1.1687943340374646e+01 6.4362596784387556e+00 0 0 0
1376 2 1.1782880460800577e+01 3.5042352019187262e-01 1.2188166006156662e+01 0 0 0
626 2 4.8692454538977543e+00 1.1283481374207868e+01 6.4603665922070812e+00 0 0 0
628 1 1.4430158647748403e+00 6.4309083701617817e+00 1.0652085183163207e+01 0 0 0
629 2 1.3649202016156194e+00 5.9169545146416640e+00 1.1549711918360787e+01 0 0 0
630 2 1.4633346042304556e+00 7.3646851588311533e+00 1.0773679500670482e+01 0 0 0
631 1 1.0610316094335474e+01 7.6998642655794702e+00 1.0031411705140252e+01 0 0 0
632 2 1.0567161093472686e+01 6.9804589076090036e+00 1.0657233096565243e+01 0 0 0
633 2 1.1417977377405515e+01 7.6475208859630772e+00 9.5012468865839956e+00 0 0 0
634 1 9.3107695744468302e+00 7.5808405367995944e+00 7.4780376642608077e+00 0 0 0
635 2 9.6230363725242309e+00 7.6132318151557037e+00 8.4284129082406629e+00 0 0 0
636 2 8.3136941280569143e+00 7.6069656561283399e+00 7.5276782731630236e+00 0 0 0
1498 1 8.0761776860260586e+00 2.9523726915335757e-01 2.2091281988227998e+01 0 0 0
639 2 1.1427161214848800e+01 1.0719281650252087e+01 9.2754720390622758e+00 0 0 0
640 1 9.5688335123740345e+00 1.0782521867767572e+01 9.1212278488843523e+00 0 0 0
641 2 8.8888495483223160e+00 1.0948638719461615e+01 8.4034344835880450e+00 0 0 0
642 2 9.0227488864016880e+00 1.0165310345212095e+01 9.6113264046093256e+00 0 0 0
643 1 7.7135563546273218e+00 9.3441839233003687e+00 1.0595860759788023e+01 0 0 0
644 2 7.9462002013901492e+00 8.4371081600918991e+00 1.0643137352694099e+01 0 0 0
645 2 7.5967959832337009e+00 9.8180818279243898e+00 1.1413717120441474e+01 0 0 0
646 1 6.6364069475628060e+00 7.7789111797190680e+00 7.7466263971856053e+00 0 0 0
647 2 6.1592326829324140e+00 7.0257587971327977e+00 7.4467870674293408e+00 0 0 0
648 2 6.1624979885044322e+00 8.5306896736205946e+00 7.3917709523392761e+00 0 0 0
649 1 1.0953923945645737e+01 9.4212651331665409e+00 6.3091092641273931e+00 0 0 0
650 2 1.0550202142155969e+01 1.0301639205716302e+01 6.1951757987464200e+00 0 0 0
651 2 1.0257496811931331e+01 8.8487913936792246e+00 6.7422038336103007e+00 0 0 0
652 1 7.7099374338681956e+00 1.1060183302356258e+01 7.1758629939491456e+00 0 0 0
653 2 7.5704036147644462e+00 1.0326553226072186e+01 6.5466846896664244e+00 0 0 0
616 1 4.9047436929334381e-01 7.6873775866701513e+00 7.7809844063603473e+00 0 0 0
1089 2 5.4642797246097530e+00 1.1014005010101002e+01 1.5019889400603299e+01 0 0 0
658 1 8.2322542553225428e+00 6.2885773386576487e+00 1.0305985633194126e+01 0 0 0
659 2 7.6266526387924847e+00 5.9568405470369195e+00 9.6670115690148641e+00 0 0 0
660 2 9.0239132370428798e+00 5.9677300736047112e+00 9.9341998228593980e+00 0 0 0
1610 2 1.0920525529760882e+01 9.2266612887374837e+00 1.7216195772401271e+01 0 0 0
1604 2 8.5539744137107068e+00 9.7721587548298210e+00 2.1983809832300011e+01 0 0 0
1178 2 5.2712277991306478e-01 1.1668116233428099e+01 1.5247257155519632e+01 0 0 0
1260 2 7.1902181993888767e+00 1.2235866249292265e+01 1.5858822193604768e+01 0 0 0
1614 2 8.7126656884203921e+00 1.0760901162472315e+01 1.8748007424657267e+01 0 0 0
1611 2 1.1734623051511823e+01 8.8775708531440340e+00 1.8431297445088994e+01 0 0 0
1464 2 7.9176421497386584e-01 4.8409082380116955e+00 1.9064416012726674e+01 0 0 0
1616 2 1.1174474961444943e+01 1.1195038921953751e+01 1.8022472546946858e+01 0 0 0
1133 2 7.9474152380762497e+00 1.1616433778706831e+01 1.2209315306005154e+01 0 0 0
1658 2 3.5543026665854871e-01 1.0770434484820859e+01 2.0132243575280221e+01 0 0 0
961 1 4.8354394120997028e+00 1.7225072917049462e+00 1.5629601261767448e+01 0 0 0
962 2 4.9725374853057636e+00 2.4013757891712015e+00 1.6312655587093083e+01 0 0 0
750 2 2.5202544073926059e+00 1.2111360525413419e+01 1.0098979830578859e+01 0 0 0
964 1 2.9040002969802194e+00 1.9440414928932193e+00 1.3501524291171338e+01 0 0 0
965 2 3.4203841812081803e+00 1.7744227425123011e+00 1.4341396062374217e+01 0 0 0
966 2 3.3049354305326943e+00 2.7943118243987866e+00 1.3159981173398904e+01 0 0 0
967 1 6.1724788028962658e+00 4.8386715205640867e+00 1.4992468439657484e+01 0 0 0
968 2 6.6994331924816608e+00 5.4745094391308591e+00 1.5504884482835534e+01 0 0 0
969 2 6.6891573283064298e+00 4.8749409916867261e+00 1.4108530806200147e+01 0 0 0
970 1 3.3290433793351211e+00 4.7133359379819906e+00 1.5037117858583537e+01 0 0 0
971 2 4.3512196028450996e+00 4.7742464041798742e+00 1.5051555436785813e+01 0 0 0
972 2 3.0166559431895825e+00 5.4641913541976637e+00 1.5604324849097971e+01 0 0 0
973 1 1.4708926162522808e+00 3.3126630735830345e+00 1.6472250381029710e+01 0 0 0
974 2 2.2395272216618989e+00 3.6529565896918572e+00 1.6013067094951751e+01 0 0 0
975 2 1.5654338773178593e+00 3.6910110010385266e+00 1.7362100253720094e+01 0 0 0
637 1 1.2418399781436387e+01 1.0725497968563710e+01 9.4806411984188994e+00 0 0 0
977 2 1.0520456754118366e+00 1.9100838532583404e+00 1.3474018451894990e+01 0 0 0
979 1 4.6821692013093594e+00 3.7078791505036661e+00 1.2236742082681607e+01 0 0 0
980 2 4.5754376271857522e+00 3.1467445796284759e+00 1.1428430206335745e+01 0 0 0
981 2 5.5259777208683802e+00 3.3724659338915894e+00 1.2586058452697634e+01 0 0 0
982 1 1.7122498734592069e+00 4.9249867882149188e+00 1.2905433126096034e+01 0 0 0
983 2 2.4383145415821152e+00 4.8041678193361470e+00 1.3546336877892864e+01 0 0 0
984 2 9.1421795960901342e-01 4.7777993292477667e+00 1.3448629898501256e+01 0 0 0
985 1 4.6943195468867218e+00 6.3435535405666270e+00 1.2242995893054131e+01 0 0 0
986 2 4.9057157320449827e+00 6.7164264694823599e+00 1.1347510294756082e+01 0 0 0
987 2 4.6966795040752976e+00 5.3853985541198215e+00 1.2171416420606070e+01 0 0 0
896 2 1.0808725555003722e+01 4.1629988992313238e-01 5.5143483345846223e+00 0 0 0
989 2 1.7255986449238114e+00 1.5081693797333888e+00 1.6559650361094292e+01 0 0 0
991 1 1.1071216782019805e+01 1.6252403545258260e+00 1.5479770725111115e+01 0 0 0
992 2 1.0953907899785552e+01 9.3441748021485249e-01 1.6175326497824400e+01 0 0 0
993 2 1.0255048991389561e+01 1.5733030895309017e+00 1.4974836180970602e+01 0 0 0
994 1 9.1342520872315820e+00 1.3155264782384188e+00 1.3449917364796375e+01 0 0 0
995 2 9.7013293039945339e+00 6.3274684668667636e-01 1.3033929504717761e+01 0 0 0
996 2 9.5183140200242899e+00 2.0573113581680547e+00 1.3012156360283537e+01 0 0 0
1602 2 9.3858729922789763e+00 1.1703772524179014e+01 2.1398517162949631e+01 0 0 0
998 2 1.1258899843911976e+01 4.6991787326311538e+00 1.4961763697027376e+01 0 0 0
1000 1 9.5010207182002109e+00 4.9205017401235960e+00 1.4622448547624680e+01 0 0 0
1001 2 9.1383876267846134e+00 4.1388774964923529e+00 1.5117519031356098e+01 0 0 0
1002 2 8.9696860787545791e+00 4.8506049781496490e+00 1.3824312159158115e+01 0 0 0
1003 1 8.0811660135853831e+00 3.1317453213765729e+00 1.6222271326446275e+01 0 0 0
1004 2 7.2979800539337036e+00 3.4834025972561822e+00 1.5728858261632904e+01 0 0 0
1005 2 7.9032972462332314e+00 3.3920362047631820e+00 1.7125350417808875e+01 0 0 0
1006 1 6.4332924294964533e+00 1.8789383249880980e+00 1.3287178285533320e+01 0 0 0
1007 2 6.1369386221352826e+00 1.8108302368330316e+00 1.4230712758291952e+01 0 0 0
1008 2 7.3850903221250261e+00 1.6111540692511019e+00 1.3232745676006967e+01 0 0 0
1009 1 1.0834112468909295e+01 3.1170370308627828e+00 1.2047858938743662e+01 0 0 0
1010 2 1.1579010691833409e+01 2.6500489655090522e+00 1.2470058584681857e+01 0 0 0
1011 2 1.0782025631503364e+01 2.7157244055766201e+00 1.1143395770105826e+01 0 0 0
1012 1 7.5151617298724593e+00 4.9457382178948288e+00 1.2598793238096443e+01 0 0 0
1013 2 7.3275243857804160e+00 4.2594661232375399e+00 1.1842816034756673e+01 0 0 0
1014 2 7.8047578518205354e+00 5.7219602961330676e+00 1.2060067560175112e+01 0 0 0
1015 1 1.0746444117116406e+01 5.9202295710337900e+00 1.2088134111095076e+01 0 0 0
1016 2 1.0849230714445831e+01 4.9389586329379718e+00 1.2027707958814503e+01 0 0 0
1017 2 1.1602493887131647e+01 6.1986649771662377e+00 1.2427467451225565e+01 0 0 0
35 2 9.5495712761047340e+00 1.3779101051700664e+00 2.8493171058175970e+00 0 0 0
1019 2 7.9314780799155900e+00 1.2632610967854889e+00 1.6156803173283663e+01 0 0 0
1109 2 7.6373840008130711e-01 5.9737442815209185e+00 1.5627197182213303e+01 0 0 0
58 1 7.6821909919860625e+00 2.5679673471584419e-01 4.9642045903487526e+00 0 0 0
1081 1 5.1394589080054685e+00 7.9981815208302063e+00 1.5411984384021700e+01 0 0 0
1082 2 6.0820163703149204e+00 7.9266745732894250e+00 1.5285029276919664e+01 0 0 0
1083 2 5.0876065849916898e+00 7.1252862848174008e+00 1.5883834337262758e+01 0 0 0
1084 1 3.0473770149359218e+00 8.1133849058303742e+00 1.3417608775426762e+01 0 0 0
1085 2 3.6696310145133304e+00 8.3433150805266312e+00 1.4143018740270497e+01 0 0 0
1086 2 3.5360733623780956e+00 7.4185710194923171e+00 1.2914431377346418e+01 0 0 0
1087 1 6.4273759365179624e+00 1.0981636322200337e+01 1.4885523082007124e+01 0 0 0
1088 2 6.6595095799009538e+00 1.0080922798710120e+01 1.5158425858015443e+01 0 0 0
1177 1 2.4804226569512408e-01 1.0808958943612424e+01 1.4994486268530403e+01 1 0 0
1090 1 3.5230018763190962e+00 1.0765009963714636e+01 1.4900881790744785e+01 0 0 0
1091 2 3.1116105920192370e+00 1.0085079659420179e+01 1.5473497128187526e+01 0 0 0
1477 1 1.2278649494349690e+01 4.6702958259181813e+00 2.0943785069644157e+01 0 0 0
1093 1 1.9119973772225209e+00 9.0772770356476009e+00 1.6410714766325931e+01 0 0 0
1094 2 1.7682116761376183e+00 8.1377239090738609e+00 1.6381718921898191e+01 0 0 0
1095 2 1.0761825192670431e+00 9.4775628511515535e+00 1.6005539567486771e+01 0 0 0
1105 1 4.7768714064228721e+00 1.2228708291018505e+01 1.2043858474003345e+01 0 0 0
1097 2 1.0619713875607704e+00 7.5343414014755306e+00 1.3643392684096842e+01 0 0 0
1099 1 5.0651149741065051e+00 9.5290983711795878e+00 1.2022419002884940e+01 0 0 0
1100 2 4.2334909293117002e+00 9.2306709944196204e+00 1.2466946065597977e+01 0 0 0
1101 2 4.9990018287711582e+00 1.0546804817654536e+01 1.1949568585669583e+01 0 0 0
1102 1 1.6749923759028815e+00 1.0544655205244094e+01 1.2786720682761938e+01 0 0 0
1103 2 1.5068995114528945e+00 9.7826792814094805e+00 1.2231809441797381e+01 0 0 0
1104 2 1.0219017719958454e+00 1.0622884175307556e+01 1.3507726506231442e+01 0 0 0
1617 2 1.1379617978439805e+01 1.2312691861934088e+01 1.6961500113491809e+01 0 0 0
1108 1 1.4153448602839500e+00 6.4924862241127537e+00 1.6171558745248795e+01 0 0 0
1615 1 1.1272291111368398e+01 1.2168309694084563e+01 1.7928725276304554e+01 0 0 0
1110 2 1.3320512836957938e+00 6.1040208523510335e+00 1.7080365498781390e+01 0 0 0
1111 1 1.0931481164687243e+01 7.7776408045652072e+00 1.6016081075365264e+01 0 0 0
1112 2 1.1731533654212997e+01 7.5823129971471790e+00 1.5445518349710666e+01 0 0 0
1113 2 1.0241482921973072e+01 7.8593170821928977e+00 1.5346380952233394e+01 0 0 0
1114 1 9.2649484615422040e+00 8.0478983619181008e+00 1.3541661900906416e+01 0 0 0
1115 2 9.6209237190610928e+00 7.1974120730480324e+00 1.3169006654167648e+01 0 0 0
1116 2 8.2804491335129047e+00 8.1277868720800601e+00 1.3343533668475395e+01 0 0 0
33 2 1.1520870463764089e+01 1.5957841097726222e+00 3.6557009147908386e+00 0 0 0
1120 1 9.5670071247269828e+00 1.0431538329622565e+01 1.5165362999262106e+01 0 0 0
1121 2 9.2291487816936169e+00 1.0701206841208439e+01 1.4303025745118697e+01 0 0 0
1122 2 1.0530211425548597e+01 1.0457313697219728e+01 1.4924879976995745e+01 0 0 0
1123 1 7.7353232554560600e+00 8.9021062745970969e+00 1.6366162537081010e+01 0 0 0
1124 2 8.4700713750122141e+00 9.2791911019902980e+00 1.5897291055157703e+01 0 0 0
1125 2 7.6664611848050788e+00 9.5745431354596651e+00 1.7127363458129402e+01 0 0 0
1126 1 6.7189979733974745e+00 7.8239506766086970e+00 1.3209487582394921e+01 0 0 0
1127 2 6.0645892173087876e+00 7.0991129664527604e+00 1.3131133728642327e+01 0 0 0
1128 2 6.2130595455979272e+00 8.5418561374702779e+00 1.2830827742207594e+01 0 0 0
1129 1 1.1031542405759716e+01 9.3971180283603530e+00 1.2199219249915304e+01 0 0 0
1130 2 1.0309907936561199e+01 8.9077169384615580e+00 1.2682826198555579e+01 0 0 0
1131 2 1.0849379123756060e+01 9.2181062185440492e+00 1.1245346463550518e+01 0 0 0
1132 1 8.1454196680282873e+00 1.0915158145602566e+01 1.2806791760833585e+01 0 0 0
37 1 1.2103883333648637e+01 4.6279440939404992e+00 3.4897244819214395e+00 0 0 0
1134 2 7.4588792033632885e+00 1.1060150173781439e+01 1.3517820054071333e+01 0 0 0
516 2 9.2065038697206969e+00 9.7728153284257691e-01 7.0422149356938348e+00 0 0 0
1137 2 1.0816561969552211e+01 1.1133358139728619e+01 1.2234020420946749e+01 0 0 0
1138 1 7.9253509645631643e+00 6.4005974565932302e+00 1.6464430937695361e+01 0 0 0
1139 2 8.0834288280524085e+00 7.4067914077377948e+00 1.6491908051759879e+01 0 0 0
1140 2 8.6203252134437491e+00 6.0143675546194224e+00 1.5917434667533492e+01 0 0 0
1585 1 5.2616224037511552e+00 1.2213879165544713e+01 1.8369349831591286e+01 0 0 0
1259 2 8.6733698012439362e+00 1.2198449454959352e+01 1.6162138900559121e+01 0 0 0
385 1 4.6789458691989614e+00 1.1114130183235976e-01 9.0801536695555496e-01 0 1 0
152 2 1.1568065454444936e+01 7.7173378860152138e+00 3.6401073214755439e+00 0 0 0
162 2 9.4940571216845804e+00 1.1095424873764305e+01 4.4385123648695686e+00 0 0 0
1230 2 2.5907151967002449e+00 1.2248075309864495e+01 1.6085451366520267e+01 0 0 0
1606 1 6.5455975870727485e+00 7.7468788527032020e+00 1.9306402416692229e+01 0 0 0
136 1 4.7225823976011888e-01 7.8341372692109781e+00 1.9424030550863591e+00 0 0 0
537 2 1.1106316026074348e+01 6.3793660701150996e+00 5.3753828936766039e+00 0 0 0
1441 1 4.7385837294813395e+00 1.5818079976540997e+00 2.1579989775398296e+01 0 0 0
1856 2 1.0199120557833554e+01 3.0200841880140183e-01 1.8228401871785067e+01 0 0 0
1443 2 4.9219255810502762e+00 2.2724167461167908e+00 2.2304888348440763e+01 0 0 0