LAMMPS data file via write_data, version 15 Apr 2020, timestep = 15850000

6144 atoms
2 atom types

-5.6552221426017013e-01 6.0533811345394753e+01 xlo xhi
0.0000000000000000e+00 2.8045769129367173e+01 ylo yhi
0.0000000000000000e+00 2.7107289318084586e+01 zlo zhi
1.0145519737631496e+01 1.0171072770024239e+01 7.1083501689460746e+00 xy xz yz

Masses

1 16
2 2

Atoms # atomic

1073 2 1.9884924356000340e+01 2.1936205578255379e+01 1.3466676596006851e+01 0 0 0
1604 2 1.1172724360040712e+01 1.2865106493810325e+01 6.9789607383554122e+00 0 0 1
2530 1 1.5475819463795116e+01 2.4851419668949870e+01 1.8164436622296098e+01 0 0 0
987 2 1.9046708374027155e+01 1.7318122674417658e+01 7.2794926624797238e+00 0 0 0
1826 2 7.5802486627745989e+00 7.6605809783497882e+00 1.4945908111703499e+01 0 0 0
901 1 2.0532339417121747e+01 2.4071253607693112e+01 2.2448807194704390e+01 0 0 -1
25 1 1.4116200034071060e+01 2.2772896639662459e+01 2.5452405727246981e+00 0 -1 0
827 2 2.3002122626353511e+01 2.1679538744102150e+01 1.9340444751274340e+01 0 0 0
2464 1 1.8424507977859889e+01 2.4541542877580053e+01 2.4096403550974507e+01 0 1 -1
886 1 2.2542049662977213e+01 1.8565263878829807e+01 1.9063168538435843e+01 0 1 -1
1633 1 2.1875241755276591e+01 1.8612234169595666e+01 1.1867063341399776e+01 0 0 0
612 2 1.7500027684617695e+01 2.9763115801186338e+01 1.4436778506174123e+01 0 0 0
348 2 7.9537552265983038e+00 1.4118228445358898e+01 1.0860112277917679e+01 0 0 0
358 1 2.0310672208712543e+01 1.9160709755797942e+01 1.4032417102950685e+01 0 0 0
2466 2 1.8759199918327155e+01 2.4232606457917758e+01 2.4927611349614128e+01 0 1 -1
1895 2 1.0220529900859860e+01 9.0931682535466454e+00 3.2020623281985614e+00 0 0 1
1670 2 2.3696344226716391e+01 1.8799509570415069e+01 2.6281411862467479e+01 0 0 -1
1634 2 2.1925192259177795e+01 1.9361657038672359e+01 1.1256691880496295e+01 0 0 0
1064 2 2.0468764058242662e+01 2.6807404814964798e+01 1.7143037819903846e+01 0 0 -1
1894 1 9.5680013797641728e+00 8.5382864591026859e+00 3.6913938798980830e+00 0 0 1
1740 2 1.8678413667050584e+01 3.2869053927172139e+01 1.8605627602709852e+01 0 0 0
945 2 2.1391487814299289e+01 2.1017959170402925e+01 2.4844643879827114e+01 0 1 -1
611 2 1.8671477613220240e+01 2.9509202647108509e+01 1.3480354665993357e+01 0 0 0
1709 2 1.6009611931992069e+01 1.7975526880765546e+01 2.2611434663337793e+00 0 -1 1
2551 1 2.1963799088943816e+01 1.3971675818526279e+01 9.4461170720224139e+00 0 0 0
1750 1 1.8182121801140163e+01 2.4544441571875865e+01 2.0112615134686191e+01 0 0 0
1587 2 1.8106726768692148e+01 9.0587004418387735e+00 8.9371059637042976e+00 0 0 0
1586 2 1.6859126946693575e+01 9.8024121067948542e+00 9.3726491385505835e+00 0 0 0
1204 1 1.8181618076602664e+01 4.6085363087177171e+00 9.4755890781370216e+00 0 1 0
1733 2 1.5480351366307946e+01 2.8019538994347599e+01 7.4829551251100268e+00 0 0 0
2624 2 1.5112502911166967e+01 2.4425932275207145e+01 1.9828385509421498e+01 0 0 0
1871 2 2.2024531882137058e+01 1.2702329594747482e+01 2.6959026275521609e+01 0 0 0
610 1 1.8091156358818818e+01 2.9069924284332338e+01 1.4093717324265208e+01 0 0 0
1275 2 1.5263568368911216e+01 1.7773625795694485e+01 2.1424619172047244e+01 0 0 -1
677 2 1.5607114484657341e+01 1.9057819271130306e+01 2.5180777912231367e+01 0 1 -1
2322 2 1.3900630351720137e+01 1.8419716783892227e+01 1.8535940332725545e+01 0 0 0
1708 1 1.5990743633417306e+01 1.7890380898154753e+01 1.2840986759739683e+00 0 -1 1
27 2 1.4703813878771586e+01 2.3476782233961895e+01 2.9600662257071457e+00 0 -1 0
558 2 1.8558871641328757e+01 1.4221775482143075e+01 1.5004814141810412e+01 0 0 0
99 2 1.7333063954634667e+01 6.3863870125882514e+00 1.6462109387383336e+01 0 0 0
1561 1 1.9087197191347595e+01 1.4252685441406884e+01 1.0986067609260230e+01 0 0 0
1131 2 1.2177934579584370e+01 2.9188187596781292e+00 1.5785378766380844e+00 0 0 0
1579 1 1.3943379906256922e+01 1.0204302100238182e+01 2.4152276168641333e+01 0 0 0
1914 2 1.2543065095423604e+01 2.2031146590236034e+01 1.2470582122989033e+00 0 0 1
924 2 1.6188626859810995e+01 2.5020210045746531e+01 3.0318415367269642e+00 0 0 0
292 1 7.0067217627843021e+00 1.3388202976662383e+01 7.3186626427795236e+00 0 0 0
2561 2 2.8651693938195251e+01 2.9395116486898452e+01 1.6886081734376337e+01 0 0 0
1781 2 8.1736476877952562e+00 9.5729914478674019e+00 6.0760138573293192e+00 0 0 0
1710 2 1.5021853743376671e+01 1.8134154278669406e+01 1.0900462709535350e+00 0 -1 1
1689 2 1.6726403840048292e+01 4.4922336698384564e+00 1.6141770936806839e+01 0 0 0
1705 1 1.5619599680580258e+01 2.1711441759941874e+01 1.3764692465955928e+01 0 0 -1
2442 2 1.5254669284351936e+01 1.7149063537789647e+01 9.4525640043435590e+00 0 0 1
752 2 1.3341267500196132e+01 1.8874731465599638e+01 1.3959145460709326e+01 0 0 0
1570 1 1.0483030543727926e+01 8.8230283973630907e+00 1.3315049195383494e+01 0 0 1
2314 1 1.3169728675459867e+01 1.4795714088793977e+01 2.9294035959903395e+00 0 0 1
1129 1 1.1988731948920730e+01 2.3338565482198876e+00 7.7614800924307170e-01 0 0 0
2360 2 1.5346230841272721e+01 2.3610161139666248e+00 8.8350039375818330e+00 0 0 0
1635 2 2.1361873608586677e+01 1.8919234628202222e+01 1.2650463043236396e+01 0 0 0
1637 2 1.1491552355008256e+01 1.4552673315471900e+01 1.6276435962492414e+01 0 0 0
249 2 2.2566741810745302e+01 2.9713270983552214e+01 9.5545324587691312e+00 0 -1 0
821 2 9.9071235108000248e+00 1.0475563070118211e+01 6.7814296631793285e+00 0 0 0
1059 2 2.1495400262330175e+01 2.8227753857698342e+01 2.5614678994096631e+00 0 0 0
203 2 7.2711802987124088e+00 7.1725359633390395e+00 1.7228589114573133e+01 0 1 0
868 1 1.6447955053582405e+01 1.3928733849051770e+01 1.1678189327556263e+01 0 0 0
729 2 1.5865401145332708e+01 2.9721604931852589e+01 1.8657046522321849e+01 0 0 0
1571 2 1.0017037395837544e+01 9.0469822660362809e+00 1.4177685543176217e+01 0 0 1
1659 2 2.0006148473061479e+01 1.9134832098176847e+01 1.7112640683213307e+01 0 0 0
894 2 1.5093151571560433e+01 8.8072506374306858e+00 9.1755892999483617e+00 0 0 0
52 1 1.3238756863342484e+01 2.7069666819760805e+01 1.2453901886913295e+01 0 -1 0
1274 2 1.6548841515742708e+01 1.7648870325472057e+01 2.0387726967884362e+01 0 0 -1
2115 2 1.8345561157700740e+01 1.0143196694790317e+01 4.4998701626268929e+00 0 0 0
1669 1 2.3988010762686251e+01 1.8253073022458043e+01 2.5551126878252806e+01 0 0 -1
1063 1 2.0989395869892899e+01 2.6913756702906330e+01 1.7962064389562702e+01 0 0 -1
1671 2 2.3161195876300866e+01 1.7857085109866027e+01 2.5199190566330820e+01 0 0 -1
2574 2 2.6142691711588334e+01 2.9125420608119445e+01 2.0990964439445584e+01 0 -1 0
1702 1 1.3144525235883947e+01 1.5505787028981100e+01 1.6926154210414111e+01 0 0 0
846 2 1.6401754231949113e+01 2.2676532558361409e+01 1.6327053963617168e+01 0 0 -1
1866 2 8.0896947123756302e+00 8.4525974014885943e+00 1.8638636888853650e+01 0 0 0
1739 2 1.8069767155149364e+01 3.1803085132807485e+01 1.7759761024039960e+01 0 0 0
822 2 9.6967962537179382e+00 9.0728199033271153e+00 7.5673251306976850e+00 0 0 0
308 2 2.8827838593217397e+01 3.1496016759496047e+01 1.5746891835446149e+01 0 0 -1
2667 2 1.0758459080112221e+01 1.4818601137495358e+01 1.1198993300415427e+01 0 0 0
1594 1 1.6889538465567014e+01 2.6358828858104179e+01 2.1798039512665422e+01 0 0 0
2465 2 1.9185051453463768e+01 2.4415017342281274e+01 2.3440451202256703e+01 0 1 -1
1611 2 1.4652870556000572e+01 1.6561385832700157e+01 5.8466178740111641e+00 0 -1 0
1730 2 1.9283157023706337e+01 2.1774383584128682e+01 2.0285519550153865e+01 0 -1 0
2674 1 2.3146943439090244e+01 7.6639277353160784e+00 2.3149211523354047e+01 0 1 0
1791 2 3.6845971409825475e+00 7.2007072333471349e+00 1.0903302964272794e+00 0 0 1
151 1 2.1804896725465685e+01 2.0931077192523475e+01 1.0404995502339522e+01 0 0 -1
2407 1 1.6693346334554356e+01 8.9304345687874935e+00 2.0494843385912546e+01 0 1 -1
1687 1 1.7510225656534075e+01 4.7738464210678266e+00 1.5612294366439949e+01 0 0 0
986 2 2.0092131807593454e+01 1.8282339302868753e+01 6.6257019484185253e+00 0 0 0
1706 2 1.6150439202268487e+01 2.0991944356349769e+01 1.4216178983167049e+01 0 0 -1
1703 2 1.3091772536085752e+01 1.6003953512130202e+01 1.7763400964750655e+01 0 0 0
2640 2 2.3072274837622366e+01 2.2824219544083451e+01 1.0705158575902529e+00 0 1 0
1688 2 1.7169147999415802e+01 5.1804124511627636e+00 1.4771845557682420e+01 0 0 0
2577 2 1.5302920197160866e+01 2.9621376193743856e+01 1.1311016905990781e+01 0 0 0
1824 2 1.7246069695156226e+01 1.6548005694424837e+01 8.4291648867309821e+00 0 0 0
922 1 1.6069689324655236e+01 2.4204903208150377e+01 3.5452026069724218e+00 0 0 0
354 2 1.6321182610854692e+01 8.0719512843974179e+00 1.2137205981250446e+01 0 0 0
845 2 1.5586049747019054e+01 2.3432574156505158e+01 1.7452284708210041e+01 0 0 -1
1563 2 1.9191887877213254e+01 1.4267968638357560e+01 9.9916435670574124e+00 0 0 0
908 2 2.7015913253665651e+01 2.5408458560827540e+01 1.9401486992223141e+01 0 0 -1
893 2 1.5068326104745656e+01 9.4927361756416495e+00 1.0410297526096242e+01 0 0 0
830 2 1.3320913105085211e+01 1.5964631494814441e+01 1.5069496616986788e+00 0 0 1
944 2 2.2493068575345603e+01 2.2203387027805160e+01 2.4867251653411866e+01 0 1 -1
564 2 7.7346821397333496e+00 1.5276812305626500e+01 2.7384493040268487e+00 0 0 0
300 2 1.9137413880780407e+01 1.9556802966686345e+01 2.6776476466956204e+01 0 1 -1
1585 1 1.7787298838607363e+01 9.9882325561044496e+00 9.0655402383732326e+00 0 0 0
2414 2 1.9007866790079220e+01 1.7785990729622085e+01 2.6750365649462818e+01 0 0 0
2436 2 2.3080566292037780e+01 2.7569205705346047e+01 1.4290394242630596e+01 0 0 0
1060 1 1.5494254870759661e+01 1.1638958139094170e+01 2.2211502782119354e+01 0 1 -1
2321 2 1.2444966705717354e+01 1.8682630804252398e+01 1.8343484159525556e+01 0 0 0
1562 2 1.9252970096229632e+01 1.5153159817993776e+01 1.1254878727760325e+01 0 0 0
78 2 2.5141757276674248e+01 3.1961669995362147e+01 2.5380410310993096e+01 0 -1 -1
1738 1 1.7863846274804303e+01 3.2402831687139248e+01 1.8457007808308973e+01 0 0 0
100 1 6.3927620998123604e+00 8.3908098311920050e+00 8.1509764879934483e+00 0 0 0
909 2 2.6015908797172578e+01 2.6520395710627898e+01 1.9768551027415697e+01 0 0 -1
1704 2 1.3257940703032656e+01 1.4585838053996561e+01 1.7306988234159160e+01 0 0 0
271 1 9.1001879990351746e+00 1.0208025430429249e+01 1.5244898222342394e+01 0 0 0
258 2 2.4340445742342332e+01 9.1369690553349532e+00 2.5502625802047273e+01 0 0 0
1377 2 1.8251456000687945e+01 2.3485885026022988e+01 1.1290077925057380e+01 0 1 0
98 2 1.6971702957702913e+01 7.7999632552506339e+00 1.6038780536090545e+01 0 0 0
2335 1 1.6614854679361869e+01 3.1142141608021177e+01 1.5119650565658976e+01 0 0 0
369 2 1.5518060247125121e+01 1.9735679547990514e+01 7.3677422800147765e+00 0 0 -1
1065 2 2.0621188574699630e+01 2.7729871838117688e+01 1.8375365071299736e+01 0 0 -1
3026 2 2.3883403010164194e+01 2.5910680726943120e+01 1.7436204509913441e+01 0 0 0
2355 2 2.3870439776115298e+01 2.9922604599471065e+01 2.2886390195320644e+01 0 0 0
962 2 1.7525070792652929e+01 3.0045376038695533e+01 9.4795331373063672e+00 0 0 0
888 2 2.1766090155592938e+01 1.8475826990764165e+01 1.8436492959764568e+01 0 1 -1
828 2 2.2631207582074236e+01 2.0332372217240447e+01 2.0036315961528341e+01 0 0 0
299 2 9.3593013517850654e+00 1.3615308019461477e+01 6.1897170429379911e-01 0 1 0
626 2 1.8935504694716748e+01 2.1656677891402740e+01 2.4149738783725727e+01 0 0 -1
873 2 7.6734527607060201e+00 1.3724632710044951e+00 4.7240172855302358e+00 0 0 1
218 2 1.2024004471946323e+01 2.6021969120192363e+01 1.0205376583544822e+01 0 -1 0
2311 1 1.0980927472673404e+01 1.7865909823521609e+01 5.1585818398259295e+00 0 1 0
1515 2 2.4938107485640142e+01 2.8395541593835691e+01 1.7940353525585568e+01 0 -1 0
1896 2 8.8194799941486988e+00 9.0070548253011786e+00 4.0802034441787223e+00 0 0 1
1546 1 1.3245219328383600e+01 1.2745924679777161e+01 2.5305905684899102e+01 0 1 0
333 2 1.0489280680332776e+01 2.4573768035456592e+01 3.1307885141867930e+00 0 0 1
1686 2 1.6565780120537021e+01 2.4310854442257980e+01 2.6878824236589640e+01 0 -1 0
2548 1 3.3840033931161074e+01 3.4284432278737697e+01 2.6572945638979217e+01 0 0 0
2668 1 2.6553756168761385e+01 2.8295989061462553e+01 2.5227365523204849e+01 0 1 -1
485 2 2.0748065895732054e+01 1.3236735393240203e+01 1.9550281193542272e+01 0 0 0
554 2 2.4934217974558607e+01 2.9054216566671229e+01 1.1814605625968795e+01 0 0 -1
2648 2 9.3524050166556716e+00 5.8367209260405053e+00 1.3170240864669216e+01 0 1 0
1273 1 1.5973424505646676e+01 1.7166500191062624e+01 2.1007311828519047e+01 0 0 -1
1629 2 1.8186747262967437e+01 1.6556342333995492e+01 1.4785047241550240e+01 0 0 0
1780 1 7.6573116464818991e+00 9.5140474246962299e+00 5.2113138069463938e+00 0 0 0
898 1 1.7257675728188151e+01 1.6953030485659845e+01 1.7714738270886436e+01 0 0 0
1514 2 2.6465990627076334e+01 2.8573518238878847e+01 1.7944673133636012e+01 0 -1 0
885 2 2.1422827714049880e+01 1.4688325321498812e+01 2.1291331157955035e+01 0 1 -1
352 1 1.6716477645418781e+01 7.3112396797356407e+00 1.1731640143968757e+01 0 0 0
961 1 1.7846652278865442e+01 2.9283213579811896e+01 9.9858428408628352e+00 0 0 0
1590 2 1.0941558508794436e+01 2.2025191004947835e+01 9.1790305113424342e+00 0 -1 1
5798 2 1.5253687591517206e+01 2.8033701821832942e+01 1.6713548176778396e+01 1 0 0
2316 2 1.4005399861500349e+01 1.4722738245058139e+01 3.4100763740627249e+00 0 0 1
89 2 2.4521071375216824e+01 3.0662576271226623e+01 1.3072530694516360e+01 0 -1 -1
1653 2 5.1880206259988197e+00 1.4313874348059944e+01 5.1753104913002113e-01 0 0 1
775 1 2.2504506160757145e+01 2.3592736780902719e+01 8.9536305095051443e+00 0 -1 0
1603 1 1.1145172749328975e+01 1.3603434176758148e+01 7.5525885744291603e+00 0 0 1
2167 1 2.0927539600303536e+01 1.3205399601578854e+01 1.2657683529724418e+01 0 0 0
1605 2 1.2088535221111959e+01 1.3528036215277352e+01 7.8919747445738659e+00 0 0 1
2573 2 2.6779949126449146e+01 3.0454463465267214e+01 2.0427257483417449e+01 0 -1 0
77 2 2.3809904670476726e+01 3.2072181140200058e+01 2.6250152092873883e+01 0 -1 -1
2580 2 1.1218080106897810e+01 1.3272309261591012e+01 1.8409888968503318e+00 0 0 0
1864 1 8.5360183936699379e+00 7.7764913722364088e+00 1.9261433020405455e+01 0 0 0
2669 2 2.6571619719214517e+01 2.9022926250781602e+01 2.4527610439251774e+01 0 1 -1
2323 1 1.4884767592217097e+01 2.1141821411111554e+01 4.5590339995286504e+00 0 1 1
1898 2 1.3116028833488620e+01 2.2932546652758063e+01 1.7396310401560193e+01 0 0 0
2623 1 1.4691624930128707e+01 2.4009426322415731e+01 2.0671743388131439e+01 0 0 0
2283 2 1.9391161868567323e+01 2.6540824708935329e+01 5.8942999113718519e+00 0 -1 0
995 2 1.4127416236270026e+01 2.5485501692816459e+01 5.4651397720705308e+00 0 1 0
97 1 1.7177552037247445e+01 7.2438849638700722e+00 1.6827910751429783e+01 0 0 0
2361 2 1.5399908223455935e+01 3.7205542628560266e+00 7.9612478923032590e+00 0 0 0
2684 2 9.9140726920447300e+00 1.1392960071013082e+01 1.8445815640880948e+01 0 1 0
1513 1 2.5640417654594440e+01 2.9071510772304752e+01 1.7876701151492206e+01 0 -1 0
1078 1 2.0060128918758778e+01 2.9058119195651710e+01 1.9132750223492067e+01 0 0 0
1044 2 8.6665697215962414e+00 1.3284580906337498e+01 1.2648139904032645e+01 0 1 0
1547 2 1.3368995208434077e+01 1.1952045694368579e+01 2.4744640957686588e+01 0 1 0
1493 2 2.1622131700183566e+01 3.1382790216947328e+01 1.4449177905391144e+01 0 0 0
1003 1 2.6100493666758709e+01 1.3381844433015431e+01 2.6326149212664074e+01 0 1 -1
417 2 1.7866741161137561e+01 1.8104331034090571e+01 1.8642264731704525e+01 0 0 0
985 1 1.9695120393676774e+01 1.8038975918009953e+01 7.4969370986266286e+00 0 0 0
1465 1 2.2056509237147349e+01 2.3833537667361188e+01 2.0358545942864406e+00 0 0 0
76 1 2.4286337336337361e+01 3.1457405611198240e+01 2.5623163293280157e+01 0 -1 -1
298 1 1.8860328315110742e+01 2.0463998478002150e+01 2.7011647330142100e+01 0 1 -1
1707 2 1.5180566536893089e+01 2.2214312744026302e+01 1.4500983734293861e+01 0 0 -1
1712 2 9.9523304085830233e+00 1.4836903386374416e+01 8.0208302805180178e+00 0 0 0
1233 2 1.0777639718319449e+01 6.3050051774556284e+00 2.1678016584680524e+01 0 1 -1
294 2 7.4232377681142196e+00 1.2911024773336573e+01 8.0841068169483030e+00 0 0 0
2410 1 1.2183685851422002e+01 2.7449687934105395e+01 7.3208522033675365e+00 0 0 1
1467 2 2.2094266851133884e+01 2.3289124342361038e+01 2.8741958482473891e+00 0 0 0
357 2 1.5746332780688618e+01 2.5240558492103592e+01 2.4854541210602033e+01 0 0 -1
1915 1 2.4212400876848051e+01 2.7591977298730317e+01 7.4534604705326828e+00 0 0 0
2451 2 1.9918414136058765e+01 3.2512852133114720e+01 2.1442509795245353e+01 0 0 0
2315 2 1.2536232910098402e+01 1.4939152649945463e+01 3.6219205861755897e+00 0 0 1
1875 2 1.3778241156813568e+01 1.2407944326747954e+01 1.1055182067487429e+01 0 0 0
965 2 1.6152504723714422e+01 5.1740395875321656e+00 6.3415763492910315e+00 0 0 0
923 2 1.5633752993296135e+01 2.4516056678625382e+01 4.3893704464079999e+00 0 0 0
1608 2 6.8225018073270158e+00 3.0062848167754739e+00 7.4049383309747441e+00 0 0 0
2071 1 2.0601809747270671e+01 1.6507251892151306e+01 2.6674655689459237e+00 0 0 1
156 2 1.4955625568619364e+01 1.1205532695601637e+01 2.0270747811346777e+01 0 0 0
1573 1 2.2509350929951001e+01 3.0311063174697320e+01 1.7590041569674003e+01 0 0 0
1564 1 1.4146108148488306e+01 2.4090880890105996e+01 1.4826303464588136e+01 0 0 0
1050 2 1.8866015306609540e+01 2.4133668851280373e+01 2.0283907688924643e+00 0 0 0
633 2 9.7742194632756210e+00 1.5258743370125918e+01 1.3119921232603501e+01 0 0 0
2557 1 1.6408379414599302e+01 6.8506919999629838e+00 6.8750821232191992e+00 0 0 1
912 2 2.0351123820670843e+01 2.7307495486293316e+01 1.0383118279242727e+00 0 0 0
1588 1 1.1201341029848850e+01 2.1939986080758448e+01 8.2464350565106379e+00 0 -1 1
866 2 2.5280009135423342e+01 1.8607713022432211e+01 2.0967963854739192e+01 0 0 -1
2268 2 1.7256314131331056e+01 2.3673331221156808e+01 3.6051035977872670e-01 0 0 1
313 1 1.3166936876799040e+01 5.7510328520071932e+00 1.2469353053703912e+01 0 1 -1
1118 2 2.0858974486115002e+01 3.3148230630285759e+01 2.4624489530517977e+01 0 0 -1
1723 1 2.4238826695418570e+01 2.4440629634397123e+01 1.6450515908183704e+01 0 0 0
2613 2 1.6034990080551079e+01 2.3573342180746415e+01 6.4125901334943096e+00 0 0 1
2570 2 1.9727618972383940e+01 2.7755673231119300e+01 7.8318519293947695e+00 0 0 0
2562 2 2.9080860680928986e+01 2.8046472415375092e+01 1.7657691500475057e+01 0 0 0
356 2 1.6047085758101758e+01 2.5996395294102250e+01 2.3480014744119735e+01 0 0 -1
33 2 1.2841044568070732e+01 1.5505910922487651e+01 6.1457399409762381e+00 0 0 0
1870 1 1.2448571484564116e+01 5.7509838300069642e+00 6.1596863709966354e-01 0 0 1
242 2 5.2795299954606616e+00 1.0903249271581203e+01 5.9746051065091255e+00 0 0 0
163 1 1.3066796097437274e+01 8.4157901084811915e+00 8.7830454807416813e-01 0 0 0
135 2 2.4793232143456159e+01 3.1048156518855997e+01 1.5420229635675758e+01 0 -1 0
376 1 2.0907424904666204e+01 3.1412713647207422e+01 2.0316473806377950e+01 0 -1 0
1109 2 1.1973952124739416e+01 1.1360050816054647e+01 2.1490338529214707e+01 0 0 0
372 2 1.4003805150308164e+01 1.4076461700972050e+01 2.0811165217091624e+01 0 0 0
2384 2 6.1306996485218859e+00 1.3606769037672940e+01 2.4972969334087867e+00 0 0 0
1799 2 2.0887519760658108e+01 2.6056900024044285e+01 2.6679576273858466e+01 0 -1 1
374 2 1.3344620009026027e+01 1.3159664871556123e+01 5.4546136152093172e-01 0 0 0
1801 1 2.2330100209439244e+01 9.7734141541647652e+00 2.1058745825270108e+01 0 0 -1
54 2 1.3720637097708728e+01 2.7709564903965621e+01 1.2981140476400023e+01 0 -1 0
2601 2 7.6559656638385363e+00 6.3204285535190818e+00 1.6736022944191098e+00 0 1 0
2600 2 8.3584015791985085e+00 5.1354255907420123e+00 2.4941695210624557e+00 0 1 0
188 2 1.0731113740063734e+01 1.9581422065692873e+01 2.5480860955048419e+00 0 0 0
2343 2 1.6288191196653045e+01 1.2134421843006340e+01 6.7881256008998072e+00 0 1 1
230 2 1.7160326093839011e+01 1.5494063684718233e+01 2.1563179226357565e+01 0 0 -1
1088 2 2.0983896753553125e+01 7.7122398012469580e+00 2.5565540944262239e+01 0 1 -1
138 2 2.0422810673067591e+01 1.2875284203166309e+01 2.5625893707353288e+01 0 -1 0
1119 2 2.1407132571347596e+01 3.4402121405596489e+01 2.5321478547483252e+01 0 0 -1
803 2 2.2193658680558045e+01 2.5697807445837295e+01 5.5180219874402843e+00 0 0 0
2330 2 8.0799217682351063e+00 1.3884150429940812e+01 6.0074009263061781e+00 0 0 0
269 2 1.3474682286091461e+01 1.6471256413753707e+01 2.2301828977075161e+01 0 -1 -1
1494 2 1.1569892560932679e+01 4.5386975389231434e+00 1.5542684935060588e+01 0 1 0
2685 2 1.0490794446136499e+01 1.0498550091426019e+01 1.9473349912409574e+01 0 1 0
1089 2 2.1891858975157739e+01 7.1182199336578202e+00 2.4494872430484801e+01 0 1 -1
2336 2 1.5859843657949309e+01 3.1541747510967525e+01 1.4625962910432337e+01 0 0 0
2434 1 2.2089026662169367e+01 2.7636575978730892e+01 1.4134646199193478e+01 0 0 0
776 2 2.2052109095673543e+01 2.3974460024811780e+01 8.2193694026524753e+00 0 -1 0
1130 2 1.2701471343388361e+01 2.3851005524593742e+00 1.1843521234828493e-01 0 0 0
1658 2 2.1264168357871647e+01 1.8517301056247796e+01 1.6542863693951944e+01 0 0 0
813 2 1.5336980595008288e+01 2.1148963038845089e+01 1.0951761121051602e+01 0 1 0
295 1 1.3953171613577965e+01 5.3640359796396853e+00 4.3734801112420012e+00 0 0 0
1830 2 1.3434008296986883e+01 2.3248646825215179e+01 6.5787129256996550e+00 0 -1 0
1045 1 1.3363865023896057e+01 1.8709547925758613e+01 1.2150210696654245e+01 0 0 0
2666 2 1.0816679028247938e+01 1.6330652576207587e+01 1.1283270071540755e+01 0 0 0
278 2 1.8765528357197539e+01 2.0280453440206063e+01 1.0901429536890824e+01 0 0 0
1211 2 2.4798907077927719e+01 1.9533558780844082e+01 1.1437552345836750e+01 0 0 0
2427 2 1.0325426365471372e+01 1.2456461070271185e+01 2.1182481798403668e+01 0 0 0
899 2 1.6488128136558451e+01 1.6803088591458408e+01 1.7163790001503173e+01 0 0 0
2413 1 1.9906817739123724e+01 1.8108469831695146e+01 2.6856975004410934e+01 0 0 0
895 1 1.3795584542608360e+01 1.9653682688962427e+01 5.5852052427678700e-01 0 0 0
378 2 2.0887437597107592e+01 3.2221275210689420e+01 1.9836468871491086e+01 0 -1 0
2583 2 1.0902292239981257e+01 6.3569371603374520e+00 5.8370407349596185e+00 0 2 0
2629 1 1.3387420195113403e+01 9.9484248557540838e+00 1.6214864138244184e+01 0 0 0
224 2 2.6497695201686149e+01 2.8760795254529338e+01 5.2276889746160640e+00 0 -1 0
2312 2 1.1345459375350673e+01 1.8326480592271743e+01 4.3818761524777639e+00 0 1 0
1876 1 1.0845228089870362e+01 9.8506395722306799e+00 2.6314884490502564e+01 0 0 0
655 1 1.5521541733633825e+01 1.4216558081442416e+01 4.4356147615135439e+00 0 1 0
994 1 1.4710413226769774e+01 2.5113481845308520e+01 6.1913877179333383e+00 0 1 0
1062 2 1.5353831972948656e+01 1.1135823622544470e+01 2.3004618647249117e+01 0 1 -1
897 2 2.3417575360540702e+01 2.6402518912769523e+01 2.7002227190487570e+01 0 0 -1
318 2 2.3206591715816238e+01 3.4047679084130074e+01 2.7032411333762898e+01 0 -1 -1
725 2 1.5702398943185862e+01 1.6728110973466293e+01 2.3937761778147383e+01 0 0 0
2456 2 2.1503925234896261e+01 1.7033151386420712e+01 2.4311103509856682e+01 0 0 0
1672 1 2.0708155083099648e+01 1.5596836826848671e+01 1.6416999489763178e+01 0 -1 0
1752 2 1.9159437797688312e+01 2.4581110936082435e+01 2.0165006293476981e+01 0 0 0
1117 1 2.0621371076304321e+01 3.3875925762308931e+01 2.5214511184479978e+01 0 0 -1
2140 1 2.5860024285269890e+01 2.0633305545076844e+01 1.5499264400559396e+01 0 0 0
1909 1 1.5937834374514210e+01 1.0474104561817757e+01 1.5418402703045164e+01 0 0 0
1682 2 1.4397243556308890e+01 1.1138863588913953e+01 5.7911264973432610e+00 0 0 0
368 2 1.6288985346507918e+01 1.8659095489786772e+01 8.1874628195330104e+00 0 0 -1
229 1 1.7733971941389711e+01 1.4768685015305962e+01 2.1790784167040272e+01 0 0 -1
1858 1 1.1667657029534293e+01 1.4970312800654636e+01 2.4191876817580237e+01 0 0 0
977 2 1.9114471664903114e+01 5.8421283175925778e+00 2.1916522187323014e+01 0 0 0
243 2 6.2692212357620036e+00 1.2142585907273377e+01 6.1083420459298523e+00 0 0 0
2513 2 1.5585635516706898e+01 1.6651150342080033e+01 1.5071806428617023e+01 0 0 0
114 2 1.7029956871917761e+01 2.7556922988392444e+01 1.8534254814660642e+01 0 -1 0
1681 1 1.3697607431271194e+01 1.0540237536057120e+01 5.3954722364900194e+00 0 0 0
1699 1 1.3841574699926268e+01 1.6587780368354075e+01 2.6363995108779484e+01 0 0 0
984 2 1.6998943522964822e+01 7.1656333914682104e+00 2.4847241277780110e+01 0 1 -1
1621 1 1.3275682958963344e+01 1.1905529651018869e+01 2.9331858307383039e+00 0 0 -1
1113 2 1.2433808771539873e+01 2.2998306997141583e+01 1.2336577914327265e+01 0 0 0
50 2 5.3084906998802461e+00 1.2564641346063363e+01 4.3205415857719816e+00 0 0 0
1691 2 2.0975587066772167e+01 3.0149994878495018e+01 2.5071563960604397e+01 0 -1 0
316 1 1.3170355492233128e+01 2.6065450556189028e+01 3.2610865262275790e-01 0 -1 0
2612 2 1.7271902795687460e+01 2.3006628892581915e+01 5.7212839312757895e+00 0 0 1
1030 1 1.9829960724003101e+01 1.4633744045084342e+01 2.5942909694598363e+01 0 0 -1
791 2 3.1449593782075723e+01 3.1619815652914081e+01 2.6693858940376963e+01 0 -1 -1
1110 2 1.2279410191990509e+01 1.2806567482560787e+01 2.1926829377911705e+01 0 0 0
1042 1 8.2152584235128217e+00 1.2600368388010521e+01 1.2136281269278731e+01 0 1 0
2563 1 1.4659990105404900e+01 2.4848622960046498e+01 1.1537566507905172e+01 0 1 0
2630 2 1.4218359649097129e+01 1.0355517953364593e+01 1.5890362163819388e+01 0 0 0
216 2 1.5875494629521295e+01 2.2967971816778743e+01 9.2628777281725458e+00 0 0 0
241 1 5.9059884066317014e+00 1.1520995849149557e+01 5.3986253545516210e+00 0 0 0
373 1 1.2447794298737598e+01 1.2890115626531545e+01 2.5669866086435178e-01 0 0 0
1049 2 2.0337410030152668e+01 2.4473836043458700e+01 2.7744630282102509e+00 0 0 0
2512 1 1.5238333861287767e+01 1.7013924478655532e+01 1.5897465932353047e+01 0 0 0
214 1 1.5536574441807520e+01 2.3905176182387194e+01 9.1774906304778217e+00 0 0 0
964 1 1.5934330410201142e+01 4.2870656591022920e+00 6.0220665785630390e+00 0 0 0
375 2 2.2369763467473753e+01 2.0621079474132955e+01 2.6620021482500338e+01 0 0 -1
1756 1 2.0227593806754783e+01 5.8469572499700666e+00 1.6221367708811997e+01 0 0 0
2439 2 5.0711550994143604e+00 8.4476825603821801e+00 2.0804754253023603e+00 0 1 0
189 2 1.2172774798715764e+01 1.9258033590103068e+01 2.2608717186992102e+00 0 0 0
844 1 1.5834574286454458e+01 2.2545861518433981e+01 1.7089148324520075e+01 0 0 -1
187 1 1.1408531114004791e+01 1.8912707408163083e+01 2.6879084248305625e+00 0 0 0
95 2 8.6481690088006360e+00 6.4739838005366339e+00 6.4681316178873614e+00 0 0 0
314 2 1.4040531224737894e+01 5.7563315225252794e+00 1.2986478550502339e+01 0 1 -1
933 2 2.9396386742226891e+01 3.1807857491785590e+01 2.4536251604472987e+01 0 0 0
1548 2 1.4178036820943898e+01 1.3012476416088770e+01 2.5534185214735743e+01 0 1 0
1560 2 7.0963108872856271e+00 7.4506836355838479e-01 1.9204913867472833e+00 0 1 1
360 2 1.9552143051122947e+01 1.8587765538731905e+01 1.4207345081409908e+01 0 0 0
842 2 1.4879239734204310e+01 2.2570131979484927e+01 2.3676461658299523e+01 0 0 -1
1447 1 2.0825140325548809e+01 1.5193238702543338e+01 6.2607154063492008e+00 0 1 0
1657 1 2.0608883220403545e+01 1.8369610690567768e+01 1.7226591142974506e+01 0 0 0
1031 2 1.8957569555362632e+01 1.4718646376987049e+01 2.5443313485804747e+01 0 0 -1
154 1 1.5075513595413405e+01 1.1473491584158557e+01 1.9335939399220063e+01 0 0 0
1015 1 1.9168241868394592e+01 1.4239599244971368e+01 8.1202610012955585e+00 0 1 -1
1575 2 2.3400068979755066e+01 3.0145667355249241e+01 1.7263267956550937e+01 0 0 0
625 1 1.9688251959387081e+01 2.1096938101626719e+01 2.3867076129842914e+01 0 0 -1
2388 2 4.9901560389101993e+00 4.9235565438017668e+00 1.3167295468492210e+01 0 1 0
2437 1 5.4090231656389882e+00 9.0960292932548885e+00 2.7499032820010934e+00 0 1 0
1615 1 2.7824896082277856e+01 2.8616747892310226e+01 1.4180600372035418e+01 0 -1 0
920 2 2.0798146852463443e+01 2.3025815103063749e+01 1.6484934413620888e+01 0 0 -1
284 2 2.1730652146614879e+01 2.4150524337104347e+01 1.9569954911830848e+01 0 0 -1
871 1 1.7185301456513077e+01 2.8707348011423232e+01 5.1152297394792550e+00 0 -1 1
820 1 9.2129960666641146e+00 9.8437828019949531e+00 7.1727532728596550e+00 0 0 0
2670 2 2.6031382813707115e+01 2.8601765174054261e+01 2.6012977184733945e+01 0 1 -1
117 2 2.7162526393612737e+01 2.7063771018143925e+01 1.6749803741478960e+01 0 0 -1
1783 1 5.8057060773342100e+00 4.8693012422406019e+00 3.7407020505562532e+00 0 0 0
606 2 1.2441057177729663e+01 1.7442528243474996e+01 2.0286686131197101e+01 0 0 0
2424 2 1.9828886882775574e+01 4.0635871253925249e+00 1.3616404772471114e+01 0 1 0
583 1 8.5262389578714384e+00 7.8095196289894391e+00 1.3181631472900448e+00 0 0 0
1039 1 1.8704606049801630e+01 2.2629501115947498e+01 8.1751505806726872e+00 0 0 0
2471 2 2.5124754116581734e+01 3.4135769159807339e+01 2.4352164244656706e+01 0 0 0
1910 2 1.6563867785401214e+01 1.0483397859912401e+01 1.6181267665392618e+01 0 0 0
1087 1 2.1416764013553831e+01 6.8937928633848555e+00 2.5307686105196698e+01 0 1 -1
774 2 1.8640249140276559e+01 1.7156269920486949e+01 4.9597928196930088e+00 0 0 0
1566 2 1.4835906713362863e+01 2.4805913434110295e+01 1.4755267004798021e+01 0 0 0
777 2 2.1970523479064340e+01 2.2819514168973683e+01 9.2887440562533037e+00 0 -1 0
332 2 1.1578208618214708e+01 2.3858390196193763e+01 2.1580183696180466e+00 0 0 1
2354 2 2.3681020473548561e+01 3.0624719024353560e+01 2.4211555992132023e+01 0 0 0
3003 2 8.9888291068930304e+00 7.2854236687237588e+00 9.6450433937403677e+00 0 1 0
1138 1 1.6043590299896003e+01 1.3796885695348170e+01 1.8063472533415659e+01 0 1 -1
1859 2 1.2016173232669731e+01 1.4125379740952710e+01 2.4485768910818770e+01 0 0 0
315 2 1.2539535970751862e+01 5.2907222402658167e+00 1.3052970562275570e+01 0 1 -1
283 1 2.0867626734235110e+01 2.4461310788740587e+01 1.9238092204333810e+01 0 0 -1
1232 2 1.1721174801229701e+01 7.3301440875676258e+00 2.2446686688501007e+01 0 1 -1
769 1 1.9028279725068941e+01 6.3240935916208745e+00 1.2191366913597159e+01 0 0 -1
726 2 1.7031382714991956e+01 1.7627012498337940e+01 2.3925664074421864e+01 0 0 0
260 2 1.9304259256016543e+01 2.0968102108042967e+01 8.6709123303551383e+00 0 0 0