LAMMPS data file via write_data, version 15 Apr 2020, timestep = 500000

3072 atoms
2 atom types

1.3563739650261297e-01 3.0004556603494741e+01 xlo xhi
1.4483750939162832e-01 2.8195628490604342e+01 ylo yhi
1.2280947683084342e-01 2.7288635523164967e+01 zlo zhi
1.0152490720317417e+01 1.0174026142391284e+01 7.0937894813256612e+00 xy xz yz

Masses

1 16
2 2

Atoms # atomic

1 1 7.6093047853652722e+00 5.4299145381505163e+00 4.2817770263655763e+00 0 0 0
2 2 6.8513622091183954e+00 5.0113508871879544e+00 3.8804996637491467e+00 0 0 0
3 2 7.3378816198488250e+00 6.2976162490530809e+00 4.6338189598729986e+00 0 0 0
4 1 1.0113383970856798e+01 7.0049936774750563e+00 1.0841870484900708e+01 0 0 0
5 2 1.0308602386759645e+01 6.5832747628560551e+00 1.1659506288739619e+01 0 0 0
6 2 9.9053011306100895e+00 7.9284796021985740e+00 1.1079708946361212e+01 0 0 0
7 1 9.8906158420796562e+00 1.2237233071328655e+01 4.1901501907392094e+00 0 0 0
8 2 1.0361294811356759e+01 1.1892083143584346e+01 4.9891951670640591e+00 0 0 0
9 2 9.8272010755634511e+00 1.3218594410654985e+01 4.3747020517333901e+00 0 0 0
10 1 1.2590308142731592e+01 1.3992214457473516e+01 1.0908298659040835e+01 0 0 0
11 2 1.3273014622824782e+01 1.4335294270088291e+01 1.0335451293611197e+01 0 0 0
12 2 1.2114228327724662e+01 1.3376084242314169e+01 1.0304460886441616e+01 0 0 0
13 1 1.4965992938196431e+01 5.2121289922184637e+00 4.1285966442972191e+00 0 0 0
14 2 1.5544880267458669e+01 4.8983298225063052e+00 4.8295677889755533e+00 0 0 0
15 2 1.4835219612827400e+01 6.1200154567700968e+00 4.3392575185774209e+00 0 0 0
16 1 1.7560864823308915e+01 7.1416490290742249e+00 1.0819004467538106e+01 0 0 0
17 2 1.7998958579195520e+01 6.9685968244298202e+00 1.1663948541118815e+01 0 0 0
18 2 1.8337542613897593e+01 7.1198612014651639e+00 1.0292129173100079e+01 0 0 0
19 1 1.7427081001749322e+01 1.2408553768858736e+01 4.1019728924125172e+00 0 0 0
20 2 1.8233775830790275e+01 1.2722036184986633e+01 3.6083071100113191e+00 0 0 0
21 2 1.7798873216451522e+01 1.1929687779326500e+01 4.8304685509676490e+00 0 0 0
22 1 1.9945578737307866e+01 1.3872796910448344e+01 1.0761392030550526e+01 0 0 0
23 2 2.0670648410479092e+01 1.4146451991213421e+01 1.0083182040512256e+01 0 0 0
24 2 1.9707181463834015e+01 1.4686916534756001e+01 1.1150380060452234e+01 0 0 0
25 1 1.1677890841167468e+01 8.1266692778304090e+00 6.1021633664963311e+00 0 0 0
26 2 1.0883731831332906e+01 8.5273226891419736e+00 5.6759284216813075e+00 0 0 0
27 2 1.1296830452279355e+01 7.4129808372931638e+00 6.6596691141631323e+00 0 0 0
28 1 1.4408606661237567e+01 9.9733157414993734e+00 1.3147389873681517e+01 0 0 0
29 2 1.4540448965707693e+01 9.5828892510159669e+00 1.2287909255781805e+01 0 0 0
30 2 1.3589421541324150e+01 1.0521955868384357e+01 1.2937950088559958e+01 0 0 0
31 1 1.4208250823811012e+01 1.5169941445634107e+01 6.4639886908857349e+00 0 0 0
32 2 1.4459064184847318e+01 1.4732226136338003e+01 5.6121174139813164e+00 0 0 0
33 2 1.3453892382993796e+01 1.5698295800302377e+01 6.1482257086536887e+00 0 0 0
34 1 1.6856743093220985e+01 1.7285949168935357e+01 1.3245019537710510e+01 0 0 0
35 2 1.6166405654141602e+01 1.7904861448567733e+01 1.2878784856833812e+01 0 0 0
323 2 8.3372395693260160e+00 1.3850535787088827e+01 8.1178453178023631e+00 0 0 0
37 1 1.9233714445623857e+01 8.2861426285935895e+00 6.3908221847810216e+00 0 0 0
38 2 1.8469651780762977e+01 8.7371102075434663e+00 5.9471974465572339e+00 0 0 0
39 2 1.8835895172266579e+01 7.6383380375663243e+00 7.0357517180163711e+00 0 0 0
40 1 2.1614404047336208e+01 1.0028875009692175e+01 1.3141006864352098e+01 0 0 0
1152 2 1.3794514027763746e+01 3.2701699894291916e+00 1.2000724039200080e+01 0 1 0
131 2 7.8053746589939559e+00 1.1283454193676018e+01 1.0540346351090209e+01 0 0 0
43 1 2.1738425009946958e+01 1.5141396274755184e+01 6.2701143522957006e+00 0 0 0
44 2 2.0890435674727165e+01 1.5598890811846173e+01 6.0447485065678430e+00 0 0 0
86 2 8.9161690122348940e+00 1.5890743712919320e+00 3.5176887506158550e-01 0 0 0
206 2 1.6541852956098165e+01 2.3255209392926375e+00 3.3000378347139812e+00 0 0 0
47 2 2.3537465001699896e+01 1.7580618046117536e+01 1.3200047600979930e+01 0 0 0
881 2 2.0726701205479298e+01 2.0811139867256749e+01 1.3531273258765333e+01 0 0 0
49 1 5.5028555699775872e+00 3.9217198044621639e+00 2.9785259134288071e+00 0 0 0
50 2 5.7058620084863927e+00 3.0921623515143759e+00 2.5500896293982804e+00 0 0 0
51 2 4.7042639758913634e+00 3.7902328572409441e+00 3.5551209854869210e+00 0 0 0
52 1 8.0601364910723738e+00 5.4836915115814069e+00 9.8322441038712984e+00 0 0 0
53 2 7.5449975795261190e+00 5.8437612999298469e+00 9.0614923242088441e+00 0 0 0
54 2 8.7717195709365718e+00 6.0958367916854028e+00 1.0021077586939420e+01 0 0 0
55 1 7.9216187384179797e+00 1.0621779405612443e+01 2.8614141876694399e+00 0 0 0
56 2 8.3454289576356580e+00 9.8022057176024369e+00 2.5109330430644228e+00 0 0 0
57 2 8.6030967071808213e+00 1.1167154954686190e+01 3.2227346710296896e+00 0 0 0
58 1 1.0601666758982816e+01 1.2588551467063148e+01 9.7049849319915857e+00 0 0 0
59 2 1.0201218803138140e+01 1.2898038431201478e+01 8.8524968177037362e+00 0 0 0
60 2 1.0791573434553552e+01 1.1621865257649080e+01 9.4267064179798279e+00 0 0 0
61 1 1.2732881906785039e+01 3.6362615527782340e+00 3.0764330392892165e+00 0 0 0
62 2 1.3366810291853215e+01 4.2584852453430759e+00 3.4559036249049502e+00 0 0 0
63 2 1.2227354259816485e+01 4.1874130425567389e+00 2.4637991911680128e+00 0 0 0
64 1 1.5572168915833544e+01 5.5447333088265758e+00 9.5866510065328594e+00 0 0 0
65 2 1.6117287641267289e+01 5.9160862269682930e+00 1.0264043564153244e+01 0 0 0
66 2 1.5675188654274201e+01 4.6096647642812201e+00 9.4855255844716666e+00 0 0 0
67 1 1.5320297359891903e+01 1.0736210662714592e+01 2.9955625972875550e+00 0 0 0
68 2 1.6130240806557687e+01 1.1225090173826228e+01 3.1995121284405674e+00 0 0 0
69 2 1.5707374207308154e+01 9.8108426974326832e+00 2.9176454357834034e+00 0 0 0
70 1 1.8081641628821270e+01 1.2426645525936911e+01 9.7482517693835309e+00 0 0 0
71 2 1.7651669962415355e+01 1.2873001477631831e+01 9.0019695591884794e+00 0 0 0
72 2 1.8805923128881286e+01 1.3017651725315254e+01 1.0086999740990153e+01 0 0 0
73 1 1.0776130149682646e+00 1.0180482452242248e+00 5.1124179054869501e-01 0 0 0
46 1 2.4406842483818476e+01 1.7054596224978180e+01 1.3321715517222563e+01 0 0 0
1147 1 2.2104464301667896e+01 2.8761829338649065e+01 5.1660714039378819e+00 0 0 0
76 1 3.6603512342579871e+00 2.4672292347725753e+00 7.5778687592237395e+00 0 0 0
77 2 1.4453348467846293e+01 2.9941380617388575e+01 8.0829840714474628e+00 0 -1 0
806 2 2.4712750275849572e+01 2.2525341685625897e+01 6.4308261594486824e+00 0 0 0
79 1 3.8742036553369585e+00 7.8915079224193718e+00 9.1209466253719973e-01 0 0 0
83 2 6.2139849042048692e+00 1.0019638434309046e+01 8.2800195853213250e+00 0 0 0
81 2 4.5788581943908380e+00 7.2276979079629573e+00 9.5158643789929453e-01 0 0 0
82 1 6.2788186936157260e+00 9.5203323339487547e+00 7.4488177551825769e+00 0 0 0
1151 2 2.4384710602128269e+01 3.0203733018588451e+01 1.3116174189365827e+01 0 0 0
84 2 7.1625340504698389e+00 9.1803778671551814e+00 7.6213160838023759e+00 0 0 0
85 1 8.6204512699559750e+00 8.7149284889957634e-01 9.6471476836480519e-01 0 0 0
809 2 2.6898606981589513e+01 2.3493463597656511e+01 1.2530885731263076e+01 0 0 0
87 2 8.4361067218430161e+00 1.3729902475114300e+00 1.7600600702358880e+00 0 0 0
88 1 1.1198005301350983e+01 2.5369789966638940e+00 7.2864866574173490e+00 0 0 0
89 2 1.2054059081493616e+01 2.3388213369802693e+00 7.5684181488903359e+00 0 0 0
90 2 1.1386310886881194e+01 3.3013660632249859e+00 6.6927045150784208e+00 0 0 0
91 1 1.1309640600498998e+01 7.8653049192042817e+00 6.5875842012704477e-01 0 0 0
42 2 2.0929889187521258e+01 1.0599356526890292e+01 1.2651788757385059e+01 0 0 0
93 2 1.2134814069252187e+01 7.4549888455611226e+00 1.1139348505902147e+00 0 0 0
94 1 1.3713125551494596e+01 9.6288152272258110e+00 7.2362003607952659e+00 0 0 0
95 2 1.4376600452793665e+01 9.0285386420069287e+00 7.6831488778374704e+00 0 0 0
96 2 1.3024295205581572e+01 9.0140475698321598e+00 6.9253111416638831e+00 0 0 0
97 1 5.5876181571366441e+00 4.2131865382425051e+00 6.1534780831248490e+00 0 0 0
98 2 5.8061222435342454e+00 4.8289252059760503e+00 6.8592073993297262e+00 0 0 0
99 2 4.8973352192046109e+00 3.6665291796436819e+00 6.5303782355013480e+00 0 0 0
100 1 8.0382223094575487e+00 5.8683100666892329e+00 1.2871918662128932e+01 0 0 0
101 2 7.7682099069152928e+00 6.5340497896877938e+00 1.2162407052985145e+01 0 0 0
102 2 8.5327505545749940e+00 5.1373138672781877e+00 1.2458669524896452e+01 0 0 0
103 1 8.0267521694964259e+00 1.1308070666577834e+01 6.2065798658904052e+00 0 0 0
104 2 7.6036332264266040e+00 1.1774405578576349e+01 5.3922171903840503e+00 0 0 0
105 2 7.3739876463288230e+00 1.0665005739352587e+01 6.3930992804251421e+00 0 0 0
106 1 1.0052511221072059e+01 1.3152330032692795e+01 1.2696812965027592e+01 0 0 0
80 2 3.1927969640565168e+00 7.4885992246920514e+00 3.7886086617957332e-01 0 0 0
108 2 1.0674341422819019e+01 1.2753267356131088e+01 1.2111055802133798e+01 0 0 0
109 1 1.2771859343534274e+01 4.3321826028807351e+00 5.9918772985416684e+00 0 0 0
110 2 1.3500377647262338e+01 3.7320286226111365e+00 5.6321340423388326e+00 0 0 0
111 2 1.2373881995719481e+01 4.8090509500550755e+00 5.2243151711981639e+00 0 0 0
112 1 1.5348646478572270e+01 6.1653655726214094e+00 1.2878827247083521e+01 0 0 0
326 2 1.1721829818482339e+01 5.3274710285605851e+00 2.3038425529378084e-01 0 0 0
1113 2 1.2363956771606942e+01 2.8065798780383162e+01 5.0674840268863450e+00 0 0 0
115 1 1.5458469040859640e+01 1.1613857621143723e+01 5.9741296811112710e+00 0 0 0
116 2 1.4772862516293632e+01 1.1181706954422662e+01 6.5957048359015387e+00 0 0 0
117 2 1.5860175905875860e+01 1.2251953155217592e+01 6.6416527875670628e+00 0 0 0
118 1 1.7938982344476084e+01 1.3209139256436899e+01 1.2747496942565551e+01 0 0 0
284 2 2.0006590210293798e+01 1.2490361295383167e+01 2.0687113581810230e+00 0 0 0
120 2 1.7540643144696258e+01 1.3673019625002823e+01 1.1974271653155936e+01 0 0 0
121 1 3.2789782877972615e+00 3.0028935032368098e+00 4.3376056914282488e+00 0 0 0
1150 1 2.4571525144068808e+01 3.0569637696107741e+01 1.2219782192991740e+01 0 0 0
123 2 3.6743036270679541e+00 2.1420919900707669e+00 4.6979201350564646e+00 0 0 0
124 1 5.8062738266522018e+00 4.3033245843110333e+00 1.1038854825850041e+01 0 0 0
125 2 6.4853806483355374e+00 4.8965606286852017e+00 1.0663193793579081e+01 0 0 0
126 2 6.2345932494573484e+00 3.4765318934325049e+00 1.1320212198972346e+01 0 0 0
127 1 5.8065754314523987e+00 9.9713905016428317e+00 4.5183277444267764e+00 0 0 0
207 2 1.5519141698331365e+01 1.6067101577897440e+00 2.3942404973341955e+00 0 0 0
129 2 6.5253723196191649e+00 1.0295808084213707e+01 3.9682901841436902e+00 0 0 0
130 1 8.4197260730332708e+00 1.1527760179967991e+01 1.1229161568187763e+01 0 0 0
1140 2 1.8079853738122093e+01 3.0730998443535249e+01 1.2061289941326514e+01 0 0 0
132 2 9.0309380833396364e+00 1.2107563990661239e+01 1.0759110409168990e+01 0 0 0
133 1 1.0509712016631880e+01 2.9058890642650885e+00 4.4800406208271761e+00 0 0 0
134 2 1.0940011498077109e+01 2.1070452730650535e+00 4.8465825516295009e+00 0 0 0
135 2 1.1247032356611289e+01 3.4020456546823050e+00 3.9873646383815640e+00 0 0 0
136 1 1.3073979837672081e+01 4.6062403586493694e+00 1.0966117737199715e+01 0 0 0
137 2 1.3835620006685074e+01 4.9969310403515657e+00 1.0502256572685157e+01 0 0 0
138 2 1.2904911010661692e+01 5.2181984198865692e+00 1.1735776549414977e+01 0 0 0
139 1 1.3047933771913087e+01 9.9627774051024343e+00 4.3777894014468473e+00 0 0 0
140 2 1.3845123450381500e+01 1.0262012264695135e+01 3.9009125541684084e+00 0 0 0
141 2 1.3380225047006128e+01 9.1654925575377870e+00 4.9337295599512849e+00 0 0 0
142 1 1.5795145074221088e+01 1.1571994696006206e+01 1.1030707709190388e+01 0 0 0
143 2 1.6627603785218088e+01 1.2084339939944874e+01 1.0704871599160557e+01 0 0 0
144 2 1.6208560722836630e+01 1.0667985409630164e+01 1.1344122361320837e+01 0 0 0
145 1 6.8548160704806342e+00 2.1130324350369243e+00 5.1988164633519593e+00 0 0 0
146 2 7.5897166240397391e+00 1.7644246606788512e+00 5.7345463334421405e+00 0 0 0
147 2 6.4926291535603156e+00 2.9911082894091177e+00 5.6087927809471738e+00 0 0 0
148 1 9.2839828458212246e+00 3.5747885544748876e+00 1.1794660228906009e+01 0 0 0
149 2 9.9136078183302985e+00 3.6640585626358018e+00 1.1057973750174771e+01 0 0 0
150 2 1.9988174453565573e+01 3.1434022939962315e+01 1.2565555650274121e+01 0 -1 0
151 1 9.6314117565098645e+00 9.1766068736989901e+00 5.0098905452867726e+00 0 0 0
152 2 9.4316086302269166e+00 1.0059118559190550e+01 5.3223354312464881e+00 0 0 0
153 2 9.9412698599548150e+00 9.2787980817045828e+00 4.0822517862928329e+00 0 0 0
154 1 1.2053887269737654e+01 1.1204886767764767e+01 1.1975496458130563e+01 0 0 0
155 2 1.1409319473470699e+01 1.0481466495835416e+01 1.2063533829003985e+01 0 0 0
156 2 1.2489786916978311e+01 1.1120323369414358e+01 1.1098604298471731e+01 0 0 0
157 1 1.4235998609148730e+01 2.3032104022699293e+00 5.2972906387178460e+00 0 0 0
158 2 1.5081410345955687e+01 2.0391209580007352e+00 5.7493414747281877e+00 0 0 0
159 2 1.4548208812771049e+01 2.3716099060266140e+00 4.3690003255337562e+00 0 0 0
160 1 1.6913556589494636e+01 3.9578886613113466e+00 1.2030323062925218e+01 0 0 0
161 2 1.6478301327903072e+01 4.7885333341619667e+00 1.2354848157808448e+01 0 0 0
162 2 1.6166961029050864e+01 3.3106175968979517e+00 1.2056618706927722e+01 0 0 0
163 1 1.6830086091589667e+01 9.5655291487017458e+00 5.1956863641737865e+00 0 0 0
164 2 1.6372008943644325e+01 1.0332774419340296e+01 5.5789552805610549e+00 0 0 0
165 2 1.7294149133699509e+01 9.8738469580952852e+00 4.4516544616851128e+00 0 0 0
166 1 1.9676959011773874e+01 1.1342840727022473e+01 1.2021937190232080e+01 0 0 0
167 2 1.8944391075944704e+01 1.2056850246682878e+01 1.2225887848634768e+01 0 0 0
168 2 1.9790843478657155e+01 1.1502337911641934e+01 1.1074193905867347e+01 0 0 0
169 1 9.0295281244398957e+00 4.3998410978716169e+00 6.1702303441838620e+00 0 0 0
170 2 9.6688754632817169e+00 3.8506764545930094e+00 5.6957653304631730e+00 0 0 0
171 2 8.4261837453914392e+00 4.7974177845448169e+00 5.4492200977918372e+00 0 0 0
172 1 1.1519214873115750e+01 5.8349672360069444e+00 1.2905862919864648e+01 0 0 0
798 2 1.9039230969058604e+01 2.3323518929257688e+01 1.3615992368157391e+01 0 0 0
345 2 6.2715186122901923e+00 1.3182430076915185e+01 3.8678537123878711e+00 0 0 0
175 1 1.1625907958763142e+01 1.1417364907398877e+01 6.1636896231435099e+00 0 0 0
176 2 1.2267940426214416e+01 1.0933925981004649e+01 5.6546620272403185e+00 0 0 0
177 2 1.2199821880081439e+01 1.2125947163218168e+01 6.5359107673636361e+00 0 0 0
178 1 1.4191392876178615e+01 1.3070571755714791e+01 1.2879243719924016e+01 0 0 0
179 2 1.3423278027477785e+01 1.3259078563201763e+01 1.2274636748322898e+01 0 0 0
180 2 1.4785029083882367e+01 1.2627365711871985e+01 1.2286406935961335e+01 0 0 0
181 1 1.6496175328545913e+01 4.4166056250527603e+00 6.0054166873102002e+00 0 0 0
182 2 1.7057659535774938e+01 3.7434227716988122e+00 5.5708733416998477e+00 0 0 0
183 2 1.7078464164882675e+01 5.0260116681315381e+00 6.5400702608241632e+00 0 0 0
184 1 1.8644490875668325e+01 6.1905640397464285e+00 1.3115673619202342e+01 0 0 0
1232 2 2.3297924011227003e+01 2.2427483278153094e+01 1.1094375599510622e+00 0 0 0
1082 2 8.6477096098758199e+00 1.8234245804989659e+01 4.6270547522879701e-01 0 0 0
187 1 1.8977282886375598e+01 1.1281300303106848e+01 6.3206579575363691e+00 0 0 0
188 2 1.8776868028267252e+01 1.0599713788060736e+01 6.9530445724981380e+00 0 0 0
189 2 1.9279129040382063e+01 1.2036301080486533e+01 6.8708039466281017e+00 0 0 0
190 1 2.1636621254608713e+01 1.3480319742476610e+01 1.2959159512452302e+01 0 0 0
855 2 1.2845050969439923e+01 1.4449383765277410e+01 3.4474019342377954e-01 0 0 0
192 2 2.1129255274491687e+01 1.3657347625931127e+01 1.2107910631399870e+01 0 0 0
193 1 8.2815901603448019e+00 2.8104910489915276e+00 2.7338300194236687e+00 0 0 0
194 2 7.6545888462336462e+00 2.5453174444557440e+00 3.4328926175433496e+00 0 0 0
195 2 9.1362491480911459e+00 2.7827393698717744e+00 3.2050672867544550e+00 0 0 0
196 1 1.0852786228723151e+01 4.1558538360011674e+00 9.6315642882348058e+00 0 0 0
197 2 1.0976986642208942e+01 3.4249775904733681e+00 9.0395471647061232e+00 0 0 0
198 2 1.1744496674102901e+01 4.4129730338292248e+00 9.9727838047169683e+00 0 0 0
199 1 1.0796241474464191e+01 9.7000298922646735e+00 2.6023943450658606e+00 0 0 0
200 2 1.0956442211158988e+01 8.9513279011887210e+00 1.9458149120932002e+00 0 0 0
201 2 1.1603179798659726e+01 9.8135678290851338e+00 3.1281665814463531e+00 0 0 0
202 1 1.3636177775119114e+01 1.1511700264998394e+01 9.5999168962808170e+00 0 0 0
203 2 1.4560571668946249e+01 1.1444186777889906e+01 9.9410802760000188e+00 0 0 0
204 2 1.3562847093080018e+01 1.0847003885481517e+01 8.9065797084965208e+00 0 0 0
205 1 1.5636689166272028e+01 2.4040947349614199e+00 2.8906981418285196e+00 0 0 0
339 2 3.5862132957617257e+00 6.3515788236737389e+00 4.0632655839352747e+00 0 0 0
1191 2 9.5315066513867936e+00 2.1686142179844733e+01 5.4016146642668161e+00 1 0 0
208 1 1.8493199623765150e+01 4.3192607911549494e+00 9.7970972770967801e+00 0 0 0
209 2 1.7921788503220348e+01 4.0166375989827801e+00 1.0565459146479688e+01 0 0 0
1116 2 1.4383653020385692e+01 2.9767655268700537e+01 1.1960029750902175e+01 0 0 0
211 1 1.8269611930354355e+01 9.8828534535427881e+00 2.7059866839936380e+00 0 0 0
897 2 1.0519108655334243e+01 2.4527797192943776e+01 5.0144059177419829e+00 0 0 0
213 2 1.8083409577721902e+01 1.0679184486007767e+01 2.1851608989323026e+00 0 0 0
214 1 2.0934597495657798e+01 1.1581033178750554e+01 9.5083350254314460e+00 0 0 0
1139 2 1.6919158812786105e+01 3.0115723856653005e+01 1.2978232157081466e+01 0 0 0
341 2 7.1095226166349432e+00 8.5050725443575175e+00 1.1797240632279882e+01 0 0 0
217 1 5.7871843816257451e+00 1.5925586227124116e+00 1.6931417775974542e+00 0 0 0
218 2 4.9377935946883174e+00 1.0725066870556965e+00 1.7198077082130907e+00 0 0 0
219 2 5.9755631807837171e+00 1.8323273304582117e+00 7.4558807301141139e-01 0 0 0
220 1 8.1374125843090503e+00 2.9937801840605456e+00 8.6430615865361471e+00 0 0 0
221 2 7.8124390794804039e+00 3.7405569859418177e+00 9.1676534369483242e+00 0 0 0
222 2 8.3437264647443801e+00 3.3712349317772334e+00 7.7712197203031730e+00 0 0 0
223 1 8.3605526129862646e+00 8.3040977565530749e+00 1.5802085297388215e+00 0 0 0
224 2 9.0465731591515670e+00 7.6246056295249165e+00 1.8562613533402759e+00 0 0 0
225 2 8.6982745323683321e+00 8.7227805406573840e+00 7.5899376485470382e-01 0 0 0
226 1 1.0822458246364434e+01 1.0015176575881979e+01 8.6478826081171487e+00 0 0 0
227 2 1.1495055406771487e+01 9.2890143591774432e+00 8.9186300449218407e+00 0 0 0
228 2 1.0979450632219507e+01 1.0179497949904935e+01 7.7097206969202858e+00 0 0 0
229 1 1.3181067459649105e+01 1.3962858848531021e+00 1.8838861013476449e+00 0 0 0
230 2 1.2343196066989846e+01 8.5283972119746609e-01 1.9634411121142812e+00 0 0 0
231 2 1.3078708375341938e+01 2.1885076083790507e+00 2.4398249131559271e+00 0 0 0
232 1 1.5823269585859602e+01 3.1265340789515026e+00 8.8169362570744241e+00 0 0 0
233 2 2.6648472138818700e+01 3.0451097996891995e+01 9.1102975964184569e+00 0 -1 0
234 2 1.6046907443989177e+01 3.3780262603471236e+00 7.9334899006123933e+00 0 0 0
235 1 1.5521078651790065e+01 8.4296096507724592e+00 1.7133877826335968e+00 0 0 0
236 2 1.5961215466851215e+01 8.7269781861329712e+00 8.7669164895209695e-01 0 0 0
237 2 1.6112708100616722e+01 7.7869371951174742e+00 2.1624521155339869e+00 0 0 0
238 1 1.8578767888283441e+01 9.5982682282795970e+00 8.8934264012437776e+00 0 0 0
239 2 1.9165972290745280e+01 8.8904559638420828e+00 9.2588521415670577e+00 0 0 0
240 2 1.8736737005332479e+01 1.0456977000601633e+01 9.3010020717652715e+00 0 0 0
241 1 7.7277060829659945e+00 4.6024584988043573e+00 8.9691260940056716e-01 0 0 0
242 2 7.8991201659913148e+00 4.0260754225549817e+00 1.6700502170138771e+00 0 0 0
243 2 6.9930887899756815e+00 5.2094971791406275e+00 1.2380609047930997e+00 0 0 0
244 1 9.9016216859385295e+00 6.3700994837798657e+00 7.6588941794734327e+00 0 0 0
245 2 1.0228277646737853e+01 5.9421188745962921e+00 8.4128193279719419e+00 0 0 0
246 2 9.6185622547890617e+00 5.5905339848729243e+00 7.0680827884359179e+00 0 0 0
247 1 9.9083854633855690e+00 1.1771472794635999e+01 7.6652656505086503e-01 0 0 0
248 2 9.3717149064424312e+00 1.2459876551747238e+01 1.2528664614325065e+00 0 0 0
249 2 1.0197344555217709e+01 1.1197127139784831e+01 1.5532030971065065e+00 0 0 0
250 1 1.2824133063937179e+01 1.3448360060857670e+01 7.8337834303779310e+00 0 0 0
251 2 1.3294664365881090e+01 1.3044697472684856e+01 8.6143719949211963e+00 0 0 0
252 2 1.3457383521394455e+01 1.4039668674157562e+01 7.4011838251430806e+00 0 0 0
253 1 1.5079445492429636e+01 4.6581488590821483e+00 1.0126310793342559e+00 0 0 0
254 2 1.5359660954175181e+01 4.0740028812426008e+00 1.7351823719449160e+00 0 0 0
255 2 1.4447186368978905e+01 5.2269247420980420e+00 1.4655312675136567e+00 0 0 0
256 1 1.7778351897708209e+01 6.2190954311067959e+00 7.8244804367039134e+00 0 0 0
257 2 1.8114006753568507e+01 5.8853364667500667e+00 8.6459564683141519e+00 0 0 0
258 2 1.6947022322784740e+01 6.5984085921907543e+00 8.1381957954849202e+00 0 0 0
259 1 1.7614451546625386e+01 1.1858731385005939e+01 7.7115079554702981e-01 0 0 0
260 2 1.6908842107100135e+01 1.2460458951156669e+01 1.1292819366330589e+00 0 0 0
876 2 1.5842976180905699e+01 2.7713621906627573e+01 1.3701512007400497e+01 0 0 0
262 1 2.0048903187870106e+01 1.3458796626388580e+01 7.6985124592917744e+00 0 0 0
263 2 2.0572629806977758e+01 1.2867058804068309e+01 8.2930231022234686e+00 0 0 0
264 2 2.0740592056991826e+01 1.3874969147831909e+01 7.0993671573984738e+00 0 0 0
265 1 9.7265382858768348e+00 6.1251487593407976e+00 2.7707318358152468e+00 0 0 0
266 2 8.8596158497442747e+00 5.8409705405757011e+00 3.1582568697072344e+00 0 0 0
267 2 1.0011190271549339e+01 5.4297768226604219e+00 2.1789838372313768e+00 0 0 0
268 1 1.2386318621616248e+01 7.9238995119741533e+00 9.5458490567239345e+00 0 0 0
269 2 1.2811117782885516e+01 7.3278788748365633e+00 8.8969900859228268e+00 0 0 0
270 2 1.1624631113393500e+01 7.4148612855611162e+00 1.0011783968899959e+01 0 0 0
271 1 1.2115021759273217e+01 1.2875625499714044e+01 2.6951869181576118e+00 0 0 0
272 2 1.2815001264253310e+01 1.3130158997774567e+01 3.3194404797385562e+00 0 0 0
273 2 1.1366270371288941e+01 1.2490363652126737e+01 3.1787860474679825e+00 0 0 0
274 1 1.4787207433910869e+01 1.5038943869365262e+01 9.6339649119004935e+00 0 0 0
275 2 1.4674952792832842e+01 1.5901185550929606e+01 9.2618758035166984e+00 0 0 0
276 2 1.5517096698355191e+01 1.5198186795391941e+01 1.0270131944022781e+01 0 0 0
277 1 1.7061791386994283e+01 6.3161538522890694e+00 2.7908677943317337e+00 0 0 0
278 2 1.6344054966267784e+01 5.7440947321547320e+00 3.0543788553744395e+00 0 0 0
327 2 1.1172552143864378e+01 3.8827147029107367e+00 3.7140165523499041e-01 0 0 0
280 1 1.9933070242388823e+01 7.4980630263621659e+00 9.5333685562982140e+00 0 0 0
1611 2 6.5758082174402457e+00 4.9652646678190262e+00 1.3415168553460926e+01 0 0 0
128 2 5.0013559641086527e+00 9.9357651966002507e+00 3.9855238928272207e+00 0 0 0
283 1 1.9669790333282084e+01 1.3115995180453471e+01 2.8091974779008759e+00 0 0 0
1138 1 1.7152613951031572e+01 3.0342984889875378e+01 1.2059266867084860e+01 0 0 0
888 2 2.2323317770368536e+01 2.6800484449620960e+01 1.3326318417893599e+01 0 0 0
286 1 2.2058184789818892e+01 1.4748947786543841e+01 9.2712584459397647e+00 0 0 0
1141 1 1.9564987462438506e+01 2.1583049985348065e+01 5.1276885272481731e+00 0 0 0
288 2 2.1649291340823556e+01 1.5596414343380573e+01 8.8701728748450055e+00 0 0 0
289 1 6.2051191527458824e+00 6.6683620474914065e+00 1.8303015717254498e+00 0 0 0
290 2 5.7222630164780126e+00 6.5044387107194117e+00 2.6798586163981710e+00 0 0 0
291 2 6.9166454664197703e+00 7.3323194164729291e+00 1.8900490896255513e+00 0 0 0
292 1 8.4785335098044605e+00 8.4680979571093378e+00 8.6611421836129967e+00 0 0 0
293 2 9.0097125432371818e+00 7.8921965868444177e+00 8.1234657968457551e+00 0 0 0
294 2 9.1847678871190332e+00 9.1337527898513091e+00 8.8864663330585891e+00 0 0 0
295 1 8.4448386493515706e+00 1.3541672694175071e+01 2.0178882742311566e+00 0 0 0
296 2 8.0314192761407934e+00 1.3455310305753606e+01 2.9236621911491540e+00 0 0 0
297 2 7.7004378840103849e+00 1.3853539267444139e+01 1.5169634869724569e+00 0 0 0
298 1 1.1375547092038101e+01 1.5801746511113404e+01 8.7330253782218303e+00 0 0 0
299 2 1.1668839775133243e+01 1.4932797367956862e+01 8.3777949002499259e+00 0 0 0
300 2 1.0740423532201653e+01 1.6169684835344103e+01 8.0789201549474789e+00 0 0 0
301 1 1.3476191188925512e+01 6.7864576102046099e+00 1.6572666982606281e+00 0 0 0
302 2 1.3242089987505622e+01 6.6886952869329699e+00 2.6246812664775900e+00 0 0 0
303 2 1.4172358084671428e+01 7.4627735461424543e+00 1.4678562915654692e+00 0 0 0
304 1 1.5839861658494094e+01 8.6565865642013371e+00 8.5656819240062241e+00 0 0 0
305 2 1.5565134210212712e+01 8.3213888961223041e+00 9.5090946553901592e+00 0 0 0
306 2 1.6772920133029881e+01 8.9494198238680021e+00 8.5157479681519366e+00 0 0 0
307 1 1.5756844605823630e+01 1.3827060651740039e+01 1.7668496129211286e+00 0 0 0
308 2 1.5091500410823436e+01 1.4146233056445675e+01 1.1400907639206186e+00 0 0 0
309 2 1.6414678100017092e+01 1.4593727797249791e+01 1.8082052140426998e+00 0 0 0
310 1 1.8515783697864968e+01 1.5775465042535629e+01 8.5941661114572643e+00 0 0 0
311 2 1.8971410209029283e+01 1.4903817564005141e+01 8.3919245770431097e+00 0 0 0
312 2 1.7824356210675528e+01 1.6019666082295764e+01 7.9515651664509992e+00 0 0 0
313 1 3.8045984031086810e+00 4.7770998813839656e+00 1.0042799390671768e+00 0 0 0
851 2 1.1729855069063028e+01 2.4520976773220866e+01 6.8261846804899173e+00 0 0 0
315 2 4.6170495261324982e+00 4.5448197386768641e+00 1.5520287907693999e+00 0 0 0
316 1 6.4198563337036596e+00 6.3550167546688394e+00 7.6892537391961495e+00 0 0 0
317 2 6.6457904003219683e+00 6.9501526209466080e+00 6.9636043839272386e+00 0 0 0
318 2 5.7382534871684623e+00 6.8181278760047928e+00 8.2173243380519203e+00 0 0 0
319 1 6.5630668991588932e+00 1.1764823271314851e+01 6.6401609219566893e-01 0 0 0
983 2 2.5853946251061867e+01 2.4794032239939114e+01 8.8665292728041809e+00 0 0 0
321 2 7.0366715536647826e+00 1.1352300411839485e+01 1.4068331633359608e+00 0 0 0
322 1 8.9988393598114094e+00 1.3313090308260666e+01 7.6101103283669538e+00 0 0 0
173 2 1.1745178897517693e+01 6.7131292356385757e+00 1.3288095442378497e+01 0 0 0
324 2 8.6572423481902216e+00 1.2436915554083528e+01 7.2966403335919825e+00 0 0 0
325 1 1.1365791654360050e+01 4.7164737949568876e+00 9.1054915846322093e-01 0 0 0
722 2 1.8286052106379152e+01 6.3475340738327262e+00 4.1361174171780997e+00 0 0 0
669 2 5.3076674956644148e+00 1.2529602062244665e+01 2.0456299224387755e+00 1 0 0
328 1 1.3741818254471749e+01 6.5161315991480162e+00 7.6361125431902899e+00 0 0 0
329 2 1.3516810354305095e+01 5.7282198925095367e+00 7.1009587899929469e+00 0 0 0
330 2 1.4529494513472807e+01 6.1608454821990630e+00 8.0952688921611902e+00 0 0 0
331 1 1.3901812410588679e+01 1.1546455969964114e+01 8.7829967818274268e-01 0 0 0
332 2 1.3206782039622631e+01 1.1928512843844155e+01 1.4924407068876240e+00 0 0 0
333 2 1.4471092840367783e+01 1.1056050571434769e+01 1.4983537584389770e+00 0 0 0
334 1 1.6497561165982621e+01 1.3679079845476297e+01 7.7371855379852832e+00 0 0 0
335 2 1.6749036214395055e+01 1.4335268168630833e+01 7.0421850272707864e+00 0 0 0
336 2 1.5869691422221635e+01 1.4081715977072669e+01 8.3119065824863423e+00 0 0 0
337 1 4.5434496465837748e+00 6.4100694700393124e+00 4.2930132237250254e+00 0 0 0
338 2 4.8609746227056085e+00 5.6177319673614639e+00 4.7134873708850806e+00 0 0 0
1130 2 1.3024442747078737e+01 2.2352218255946315e+01 4.9879673371398097e+00 0 0 0
340 1 7.0876401534741298e+00 7.9266771590691363e+00 1.1010375334642719e+01 0 0 0
1131 2 1.2255508683550552e+01 2.0996252513959973e+01 4.7322520589248080e+00 0 0 0
342 2 7.7420783749302773e+00 8.2815228848138034e+00 1.0371112908764959e+01 0 0 0
343 1 7.1517977859379451e+00 1.3125482345321734e+01 4.3242828658046717e+00 0 0 0
185 2 1.8912982871963816e+01 6.9890312025024137e+00 1.3618219638845714e+01 0 0 0
287 2 2.2685095980264393e+01 1.5049413463744356e+01 9.9357120297934625e+00 0 0 0
346 1 9.5295742697148320e+00 1.5217912613219324e+01 1.0904040907170524e+01 0 0 0
347 2 1.0162630797302949e+01 1.5458201813563196e+01 1.0172545311902784e+01 0 0 0
348 2 9.8052177672453311e+00 1.4334758990591414e+01 1.1171416094928537e+01 0 0 0
349 1 1.2128877084940978e+01 6.2724482425699559e+00 4.0350521742828267e+00 0 0 0
350 2 1.2015808888041150e+01 6.9730082527323196e+00 4.7404152946408322e+00 0 0 0
351 2 1.1144456183966392e+01 6.1901358402349453e+00 3.7332163902637361e+00 0 0 0
352 1 1.4728831172393093e+01 8.1780653788693947e+00 1.1070879840736698e+01 0 0 0
353 2 1.5101230370800121e+01 7.4211838976636617e+00 1.1548384259173574e+01 0 0 0
354 2 1.3807110421327060e+01 8.0220941541789550e+00 1.0889091457002081e+01 0 0 0
355 1 1.4700007471903309e+01 1.3694320030857511e+01 4.2500019723007094e+00 0 0 0
356 2 1.4894019825785938e+01 1.2793822012721689e+01 4.6523435483374023e+00 0 0 0
357 2 1.5059249413375598e+01 1.3718261906455494e+01 3.3244253729484656e+00 0 0 0
358 1 1.6942231978685779e+01 1.5334948324326602e+01 1.1062850802057694e+01 0 0 0
359 2 1.6995208848099281e+01 1.6017159550221187e+01 1.1753143116563042e+01 0 0 0
360 2 1.7536348362998279e+01 1.5593577225597148e+01 1.0360173225532847e+01 0 0 0
361 1 7.1489058981927620e+00 7.8102002232071435e+00 5.5880774529292054e+00 0 0 0
362 2 6.4828116729766094e+00 8.5255298438299736e+00 5.3716998236594939e+00 0 0 0
363 2 7.9692740499442776e+00 8.2461321680267581e+00 5.2727873150552265e+00 0 0 0
364 1 9.8190969222358753e+00 9.3787733154099833e+00 1.1912826964947310e+01 0 0 0
365 2 9.1188718698978271e+00 1.0036572575043586e+01 1.1734283249550407e+01 0 0 0
366 2 9.5473554794790054e+00 9.0885234029623891e+00 1.2761227923787278e+01 0 0 0