LAMMPS data file via write_data, version 15 Apr 2020, timestep = 0

6144 atoms
2 atom types

-1.4315668047407932e+00 6.1399855935921352e+01 xlo xhi
0.0000000000000000e+00 2.8045769129367173e+01 ylo yhi
0.0000000000000000e+00 2.7107289318084586e+01 zlo zhi
1.0145519737631496e+01 1.0171072770024239e+01 7.1083501689460746e+00 xy xz yz

Masses

1 16
2 2

Atoms # atomic

1595 2 1.7788808316874697e+01 2.2738672174439252e+01 1.7588787278701382e+01 0 0 0
1604 2 1.6687910076919078e+01 2.0434809369924199e+01 2.4014829464076016e+01 0 0 0
1655 2 7.8611023755057978e+00 2.4919496363072046e+01 5.1355044541046935e-01 0 0 2
987 2 1.5036868315649610e+01 1.4146888710539894e+01 1.9330750895299683e+01 0 0 0
225 2 7.7793105649479930e+00 4.6286431670237622e+00 4.8667547144436361e+00 0 0 0
52 1 1.1768835747721431e+01 2.5222075284261404e+01 9.0578128260726078e+00 0 -1 0
25 1 9.6445112577806746e+00 1.2472015661015043e+01 1.1742861202591339e+01 0 0 -1
1625 2 1.5330362121400700e+01 1.7797213181665299e+01 1.7081437391031507e+01 0 0 0
2464 1 1.0993210994062853e+01 1.8303974464610373e+01 6.8780508530984985e+00 0 1 0
886 1 1.6430056912104060e+01 2.3117346420296187e+01 2.0173473063165197e+01 0 1 -1
1633 1 1.8602502162467857e+01 1.6206167905081248e+01 1.8063036943981270e+01 0 0 0
849 2 1.8115068782715245e+01 2.0895018933451482e+01 1.1367661548701181e+01 0 0 -1
2443 1 1.3158846329464932e+01 1.2688138544028039e+01 5.6916757232135859e+00 0 1 0
358 1 1.5896026623968623e+01 2.5544964783235699e+01 2.3015169912611885e+01 0 0 0
2466 2 1.0699679441293453e+01 1.8814608361174386e+01 6.1456501386371718e+00 0 1 0
1895 2 1.0869147780500384e+01 1.4436344646484557e+01 7.9254601249789687e+00 0 0 1
1670 2 1.8318348307033350e+01 2.8929567906956525e+01 4.0098214531905318e+00 0 -1 0
1634 2 1.8205758326575182e+01 1.6671518015351289e+01 1.8815413890192804e+01 0 0 0
1064 2 2.2789791158268905e+01 3.1771715934313644e+01 2.0778103631301740e+01 0 0 -1
1894 1 1.0137167426833722e+01 1.3839160142611028e+01 7.5193973077499709e+00 0 0 1
1740 2 1.7124206265394957e+01 2.3046365519292923e+01 2.6782944454442582e+01 0 0 0
1916 2 1.4827815863598225e+01 2.3254890638284955e+01 1.5680087028002893e+01 0 0 0
611 2 9.4888114561910761e+00 5.3243015861382368e+00 1.4463937240374687e+01 0 1 0
1709 2 1.1473375400847658e+01 5.8159395057874024e+00 1.8817355395704681e+01 0 0 0
487 1 1.6782720413694303e+01 2.7625832933029336e+01 2.4552908326827492e+01 0 0 -1
53 2 1.1065808962944601e+01 2.4540495556678998e+01 9.1218223275566697e+00 0 -1 0
1587 2 1.1776812456641764e+01 9.4917648596046469e+00 1.0989534604277710e+01 0 0 0
1586 2 1.2471740162555138e+01 1.0544457120010328e+01 1.1901079013622716e+01 0 0 0
2523 2 1.3775702815511465e+01 2.7899865908537873e+01 1.6420369920246827e+01 0 0 0
2564 2 9.8665140851073616e+00 1.3226493929635978e+01 1.8290379731301538e+00 0 1 0
416 2 1.2118428274620257e+01 1.7374458567309986e+01 1.8169758446050672e+01 0 0 0
1871 2 1.6255040563302586e+01 2.4711430150920386e+01 1.9960922443724709e+01 0 0 0
610 1 8.5392586924593203e+00 5.4468395064141015e+00 1.4434696963342956e+01 0 1 0
1275 2 4.6754433829488704e+00 6.4537875693012419e+00 1.3457285044571057e+00 0 0 0
1734 2 1.1127213137687511e+00 4.1225643838327004e+00 2.0182936467961836e+00 0 1 0
2450 2 1.5702944441147114e+01 2.3486871850419107e+01 2.3186563081897820e+01 0 0 0
1708 1 1.1465847927451509e+01 6.3432069426034490e+00 1.7993111519062776e+01 0 0 0
27 2 9.8714121490393829e+00 1.3459974471712975e+01 1.1884675573502914e+01 0 0 -1
907 1 1.8744101948580205e+01 2.6493475796140338e+01 2.1523613769440729e+01 0 0 -1
99 2 1.0653005711555334e+01 6.0353422021621022e+00 6.2666692155127173e+00 0 0 0
1561 1 1.3492460946804233e+01 1.4057411615874235e+01 1.3271923542955237e+01 0 0 0
850 1 7.0971204593019017e+00 1.2993837254069913e+01 1.2731334301723429e+01 0 1 0
345 2 3.8639761598474216e+00 1.1396040283552663e+01 1.6018931030965191e+00 0 0 0
226 1 1.1127554803424612e+01 2.9307845338242632e+01 6.1826833082756512e+00 0 0 0
924 2 1.8512884080802433e+01 1.6777759889973371e+01 1.0927199967286816e+01 0 0 0
149 2 1.1581959636280502e+01 7.4354265851324293e+00 2.5056654203486801e+01 0 0 -1
224 2 9.0236540259871312e+00 4.8386570501471740e+00 3.8905181707418977e+00 0 0 0
1781 2 9.3314421175343547e+00 1.0986730950746706e+01 1.4212325076620697e+01 0 0 0
1710 2 1.0501129877620624e+01 6.5139361745537450e+00 1.7862771637687771e+01 0 0 0
1689 2 1.1129089646332032e+01 7.3566646465469461e+00 1.3478743980009600e+01 0 0 0
1705 1 1.4598560675600975e+01 1.7299393942744125e+01 1.3431936601857123e+01 0 0 -1
1773 2 2.1080978091579890e+01 3.1649239336664209e+01 2.6629926982120104e+01 0 0 -1
752 2 1.2290078435106533e+01 2.0079952012419891e+01 1.6471756417445381e+01 0 0 0
1570 1 1.1296291141046790e+01 9.5033016681646458e+00 1.5677064626116270e+01 0 0 1
2314 1 1.6161353592463538e+01 2.3124116413442653e+01 9.1941429770030254e+00 0 0 1
1129 1 1.1936278983451635e+01 1.3606332612585604e+01 2.2198343255854656e+01 0 0 -1
2360 2 1.2586700838566392e+01 1.2759970124113805e+01 1.3316096219042961e+01 0 0 0
1635 2 1.8207206947497873e+01 1.5307077997184443e+01 1.8265784961925856e+01 0 0 0
1017 2 2.2201949489779405e+01 2.8776774319350352e+01 9.8923092507254342e+00 0 0 -1
249 2 4.9535372825794095e+00 4.4117303351202573e+00 9.4304256288835990e+00 0 0 0
821 2 1.7412669825125196e+01 2.5159972767044863e+01 2.6239482916624809e+01 0 0 -1
1059 2 1.6719372346139556e+00 1.2386231533617764e+00 6.4848640901344401e-01 0 1 0
896 2 2.2579344564081499e+01 2.8945918457055949e+01 2.3196866157588708e+01 0 0 -1
868 1 8.0912846420604687e+00 1.5109139424201450e+01 8.7772727758635085e+00 0 0 0
944 2 5.6967981177659439e+00 1.5334340007478177e+01 2.1352482505243477e+00 0 1 0
1571 2 1.2074371306211354e+01 9.1018328300166758e+00 1.5228811893254695e+01 0 0 1
1659 2 1.7250253971824069e+01 2.8895193678357373e+01 1.7007856795453488e+01 0 -1 0
894 2 1.1747655526343159e+01 2.0483255255420850e+01 1.0089838302739388e+01 0 0 0
842 2 1.3680143800152544e+01 2.2621172839347331e+01 2.3886862239625334e+01 0 0 -1
1274 2 5.5728500815440256e+00 7.2805584739760976e+00 2.4553198151473459e+00 0 0 0
1113 2 1.3216414456315135e+01 2.1401547572576540e+01 1.2939184409843838e+01 0 0 0
1669 1 7.5009476590789586e+00 1.2771478257080346e+00 3.3890060366545209e+00 0 0 0
1063 1 2.3335649871667162e+01 3.1182805376949318e+01 2.1386088362942736e+01 0 0 -1
1671 2 7.8677984386533861e+00 1.0803897132882496e+00 2.5136376394573521e+00 0 0 0
684 2 1.7863212918705425e+01 1.0584924862922373e+01 4.3323243654871160e+00 0 0 0
1001 2 8.4841479900610466e+00 1.3081674814204547e+01 5.7822004186517866e+00 0 0 0
846 2 1.4664159032634554e+01 1.5293666304440183e+01 2.7073058450872647e+01 0 0 -1
2409 2 8.5509818323645632e+00 1.8362894145302928e+01 8.9034518794328861e+00 0 0 0
1739 2 1.7036860197148588e+01 2.2535051160332806e+01 2.5356124377714725e+01 0 0 0
822 2 1.7477970511534199e+01 2.6642015881177443e+01 2.5793319113814334e+01 0 0 -1
2471 2 2.0412662891279314e+01 9.9389985766630105e+00 2.0089526560933308e+01 0 1 0
1112 2 1.2307428703644071e+01 2.2544928119497410e+01 1.2737996318515151e+01 0 0 0
887 2 1.6720648076904151e+01 2.2976008151729260e+01 1.9280964615369903e+01 0 1 -1
2465 2 1.1600526880303020e+01 1.7688984114685969e+01 6.4552423270254131e+00 0 1 0
54 2 1.1324991785445809e+01 2.6098166332774063e+01 8.8964254657007391e+00 0 -1 0
102 2 5.7575011759128776e+00 8.9700010240070025e+00 8.5731113779648460e+00 0 0 0
223 1 8.2907300750654311e+00 5.2799479762186721e+00 4.3845380919584329e+00 0 0 0
1917 2 1.4194881796356775e+01 2.4322387390939035e+01 1.6599790472455556e+01 0 0 0
353 2 7.5478515401750936e+00 1.0399138415908254e+01 9.1386070728095241e+00 0 0 0
2407 1 9.1805015452497969e+00 1.7597820347225557e+01 8.7172894519661952e+00 0 0 0
1687 1 1.0371128917781160e+01 7.4267088133113734e+00 1.2857371877075987e+01 0 0 0
986 2 1.6254313870698521e+01 1.4909452772617696e+01 1.9706990715692928e+01 0 0 0
1706 2 1.4356304549458294e+01 1.8237566397259876e+01 1.3512131777648158e+01 0 0 -1
1703 2 9.8337561997174809e+00 1.2917661966880509e+01 1.5571764332696441e+01 0 0 0
1374 2 1.7789027431528478e+01 1.8997817642048695e+01 2.2610270249734641e+00 0 0 0
1688 2 1.0604420298468142e+01 7.1063581553005495e+00 1.1966364306406021e+01 0 0 0
1002 2 6.9177206923768395e+00 1.3228301677995272e+01 6.2780060245589873e+00 0 0 0
1610 2 8.6154531864835988e+00 1.8216218415813046e+01 2.6066977230713926e+00 0 -1 0
922 1 1.9027701883421773e+01 1.6804216690214815e+01 1.1737731053201108e+01 0 0 0
114 2 1.6107779450862143e+01 3.1316584031825190e+01 2.0748860037772030e+01 0 -1 0
845 2 1.3742339739847697e+01 1.6098807307301527e+01 2.6158749865788849e+01 0 0 -1
1563 2 1.4394500976882203e+01 1.4150329142394209e+01 1.3540598656961338e+01 0 0 0
908 2 1.8925303210475921e+01 2.6251589932627546e+01 2.2436755097499763e+01 0 0 -1
893 2 1.2690946367514059e+01 2.1535378470058074e+01 9.3590189730947309e+00 0 0 0
28 1 2.1668048932158356e+01 2.1580414816269343e+01 1.3048667717304919e+01 0 0 0
348 2 7.0475128041475834e+00 1.4657910622075068e+01 1.0171666250996337e+01 0 0 0
870 2 8.5771030390962828e+00 1.5977336570738455e+01 8.7589970127119372e+00 0 0 0
300 2 1.1810075725655754e+01 2.1693773603055448e+01 4.4142367472093849e+00 0 0 0
1585 1 1.2664222244882181e+01 9.9000798491423794e+00 1.1172435710282732e+01 0 0 0
2414 2 1.2535631945038109e+01 1.9501192473928278e+01 1.2032950232175617e+01 0 0 1
2436 2 2.2652910603557743e+01 2.4345907682049578e+01 1.3382199097692059e+01 0 0 0
2441 2 1.6723630278836026e+01 2.0165934623155255e+01 8.3750552169184100e+00 0 0 1
847 1 1.7210800815395590e+01 2.0606862922091047e+01 1.1325607527609128e+01 0 0 -1
1562 2 1.2872548926853991e+01 1.4733441166362185e+01 1.3696747712418839e+01 0 0 0
1015 1 2.1694735966472425e+01 2.8134709984010183e+01 9.3841574741270080e+00 0 0 -1
1738 1 1.6908744461790516e+01 2.3330732664843843e+01 2.5883281585609353e+01 0 0 0
949 1 2.4007175481713698e+01 2.0354056105356172e+01 1.4684478436322777e+01 0 -1 0
30 2 2.2518080435353223e+01 2.1048649437975733e+01 1.3075402263665366e+01 0 0 0
2597 2 1.2539845243636062e+01 2.1347523854487676e+01 2.0801205760181688e+01 0 0 0
1656 2 8.3580314169319117e+00 2.5233060324741025e+01 2.0263506143121690e+00 0 0 2
150 2 2.1517761829327501e+01 3.4448439740337946e+01 2.6215630204025764e+01 0 -1 -1
2440 1 1.6517216237423252e+01 1.9430846125900409e+01 8.9808589209894780e+00 0 0 1
98 2 9.2108072694153087e+00 6.2652599225722767e+00 5.5908766822187133e+00 0 0 0
2408 2 9.7898911917183753e+00 1.7976179187187824e+01 8.0039462109327761e+00 0 0 0
369 2 1.6396849546917839e+01 1.3993210402745174e+01 1.1226781766815554e+01 0 0 -1
1065 2 2.3019416325265045e+01 3.0212978508076997e+01 2.1465950427790194e+01 0 0 -1
1130 2 1.1430889805939344e+01 1.2777606203416713e+01 2.1926063625180827e+01 0 0 -1
2355 2 2.2786363648354410e+01 2.7914340227465480e+01 1.9096793843954199e+01 0 0 0
962 2 2.5915517932532754e+01 3.0207202324037208e+01 2.5856714309661179e+01 0 0 -1
888 2 1.5529605876266672e+01 2.2692924429634065e+01 2.0148261984022568e+01 0 1 -1
1135 1 1.1476598248858121e+01 1.0438072350772680e+01 2.4301094396704229e+01 0 1 -1
299 2 1.1929690494454938e+01 2.2692280736301061e+01 5.4998968971049260e+00 0 0 0
626 2 7.9449566614360769e+00 7.5416190501018097e+00 6.6870675404849655e-01 0 0 0
873 2 1.3161113789641114e+01 1.6497184215684705e+01 1.4256119724516363e+01 0 0 0
105 2 7.8030927535256858e+00 1.2224352870904330e+01 1.0655901796385335e+01 0 0 0
2311 1 2.0384588547832895e+01 1.6639785597524142e+01 2.4014424314636809e+01 0 1 -1
1515 2 1.1636060780528419e+01 1.7650535665805108e+01 4.0908658440456183e+00 0 0 0
1896 2 1.0451636158730311e+01 1.3665624998980388e+01 6.6400459604061464e+00 0 0 1
1546 1 1.2257961844231879e+01 1.3703938917478993e+01 2.4758380545346064e+01 0 1 0
984 2 1.8746127842780812e+01 6.3433159279675113e+00 1.6103235534749700e+01 0 1 -1
588 2 7.8874323213048356e+00 9.1441082062720511e+00 5.8062985276911201e+00 0 0 0
909 2 1.8087243568012031e+01 2.7195336268226484e+01 2.1510396499514375e+01 0 0 -1
2668 1 1.9465170050202939e+01 2.4837712501507458e+01 1.0001932092038290e+01 0 0 0
2354 2 2.3965735604266140e+01 2.8265679632429844e+01 2.0070365443313211e+01 0 0 0
1493 2 2.9144758136801222e+01 3.0331617611721086e+01 1.6077319306100215e+01 0 0 0
84 2 1.2527935746076050e+01 1.9013139354907032e+01 2.3667291760705059e+01 0 0 -1
1273 1 5.0501724094581384e+00 7.3692958926140761e+00 1.5975769566312199e+00 0 0 0
1132 1 8.9734275197898228e+00 5.2547398407562191e+00 1.0105134761277000e+01 0 1 0
1780 1 9.8249507356254320e+00 1.1485967285546346e+01 1.4883330829098806e+01 0 0 0
898 1 1.4052341966264311e+01 2.5287702014376940e+01 1.8014738921192844e+01 0 0 0
1514 2 1.2030482427678946e+01 1.6241094051603643e+01 4.3054881279792481e+00 0 0 0
1003 1 2.6836607274889989e+01 1.6148685379990155e+01 2.6812615987218546e+01 0 1 -1
352 1 7.3565373908428029e+00 9.5673826085499982e+00 8.7130253586755657e+00 0 0 0
961 1 2.5665217872759875e+01 3.0719860652818781e+01 2.4982079238054236e+01 0 0 -1
885 2 1.4948983753551786e+01 5.2671439612116790e+00 1.9845468302113954e+01 0 1 -1
1449 2 2.0878825841769455e+01 1.5762565355316983e+01 5.8904145131981549e+00 0 1 0
2316 2 1.5179848599632141e+01 2.3055027611638881e+01 9.4535777004042263e+00 0 0 1
975 2 1.3667381568659936e+01 2.9839999507054046e+01 9.8982304600282198e+00 0 0 0
818 2 2.1595964236757407e+01 3.1037486274268144e+01 1.7942067147980179e+01 0 0 -1
775 1 1.1554017387200174e+01 2.4407541322441300e+01 5.6039508105140374e+00 0 0 0
1603 1 1.7047983467012369e+01 2.0887722803950922e+01 2.4761902701133685e+01 0 0 0
1544 2 6.9576758728138497e+00 9.7904989217835130e+00 1.6499283069457690e+01 0 0 0
1605 2 1.7902492070059200e+01 2.0466838142680594e+01 2.4981238374608505e+01 0 0 0
2532 2 1.4236365953753371e+01 2.0236128117384258e+01 1.7416821838378592e+01 0 0 0
77 2 1.0607564491751807e+01 2.6576553082828916e+01 2.8868151730507967e+00 0 -1 0
100 1 5.0554119568729607e+00 8.3211930875529987e+00 8.4701262223728477e+00 0 0 0
1877 2 2.1026827599322665e+01 3.3384633821201831e+01 2.0820397597749960e+01 0 -1 0
2669 2 2.0174480347483634e+01 2.5281190867289869e+01 1.0548363030068641e+01 0 0 0
2323 1 7.9860321114298003e+00 2.0683055955371817e+01 1.4889065185424593e+00 0 1 1
840 2 2.6190563025265202e+01 2.7725314701490486e+01 9.4185051098020249e+00 0 0 0
1016 2 2.1970887540576623e+01 2.8221734144934430e+01 8.4656436750374251e+00 0 0 -1
2283 2 1.3200240334154302e+01 2.5477887321174432e+01 7.9078438420029551e+00 0 -1 0
995 2 5.3758683025955865e+00 9.3114041947931163e+00 2.1915768404543869e+00 0 1 0
97 1 9.9693530229043539e+00 6.7070710490479737e+00 5.9999189936039494e+00 0 0 0
2361 2 1.1248762355926264e+01 1.2000140174875984e+01 1.3048164314146252e+01 0 0 0
2520 2 3.0406058764544948e+01 2.9175083171697267e+01 2.3739025299041042e+01 0 0 0
1513 1 1.2314021750573396e+01 1.7128567600064407e+01 4.5936237285074233e+00 0 0 0
1078 1 1.8241965937520465e+01 2.3282071651710304e+01 1.4177596995579121e+01 0 0 0
963 2 2.6501037673799932e+01 3.0496276656497692e+01 2.4439959613978246e+01 0 0 -1
1547 2 1.2162182461296013e+01 1.3539950756372733e+01 2.3801416170160447e+01 0 1 0
2353 1 2.3627503959101809e+01 2.8381174372224898e+01 1.9118445593247309e+01 0 0 0
917 2 3.5053675823040038e+00 4.9292232494631856e+00 6.2631472171304570e-01 0 1 0
417 2 1.2796549334055431e+01 1.6330588782835505e+01 1.9205202285322244e+01 0 0 0
985 1 1.5780783241691498e+01 1.4617918608004748e+01 1.8873897112726773e+01 0 0 0
1884 2 1.1534277284686640e+01 1.7808189385429184e+01 1.0690946643515295e+01 0 0 0
76 1 1.0329102082056504e+01 2.7550596870073576e+01 2.9654098258042438e+00 0 -1 0
298 1 1.2141167276161813e+01 2.1774105834441787e+01 5.3126610513861605e+00 0 0 0
1707 2 1.5566058356734580e+01 1.7362340054176066e+01 1.3747076911545653e+01 0 0 -1
203 2 6.0931659866119974e+00 5.2617382696215920e+00 1.6445450038282008e+01 0 1 0
612 2 8.1515958574610465e+00 4.8102324313712881e+00 1.5082359959645188e+01 0 1 0
2396 2 1.3596552265974251e+01 2.9804368577417435e+01 1.2042147591943195e+01 0 0 0
1079 2 1.8565345985040114e+01 2.4149266653315930e+01 1.4510153097949351e+01 0 0 0
883 1 1.5149688816110132e+01 5.1579310142968788e+00 1.8874644744057843e+01 0 1 -1
2442 2 1.5558960732008206e+01 1.9295745843943642e+01 8.7989108257654305e+00 0 0 1
1915 1 1.3912117088213268e+01 2.3567458587574400e+01 1.5941679251423352e+01 0 0 0
2451 2 1.4401789246756072e+01 2.3675299339907163e+01 2.2294750427668692e+01 0 0 0
2315 2 1.6668054109084938e+01 2.3099984256382779e+01 9.9818380874147969e+00 0 0 1
202 1 5.4820165303525883e+00 5.9971813926557793e+00 1.6516904672730966e+01 0 1 0
983 2 1.8345014067407458e+01 6.5548461284206976e+00 1.4616614505115191e+01 0 1 -1
923 2 1.9614219150011564e+01 1.7594103896962853e+01 1.1782918014750589e+01 0 0 0
2572 1 1.3768730579335770e+01 2.1859566633161005e+01 1.9939329894237392e+01 0 0 0
354 2 8.1485934837667955e+00 9.4093225426234905e+00 8.1674541654988797e+00 0 0 0
156 2 8.3969510745272018e+00 4.3933435336525104e+00 1.2903089593176455e+01 0 0 0
2580 2 1.9675612503291770e+01 1.1604503090903671e+01 9.5042819099716187e+00 0 0 0
1616 2 1.5547852015574161e+01 2.4065658095083236e+01 1.2170556427355907e+01 0 -1 0
1050 2 1.5120375144653504e+01 2.2369792370758820e+01 1.6472155081696946e+00 0 0 0
1081 1 1.7188896171062282e+01 1.5468980270988348e+01 2.1147547894866392e+01 0 0 -1
1594 1 1.6959430042302298e+01 2.2258298217176122e+01 1.7732677263488210e+01 0 0 0
2445 2 1.2272312989593001e+01 1.2692758710790324e+01 5.3007999459998345e+00 0 1 0
1588 1 8.9742152985565316e+00 2.2344596104993641e+01 4.8882509082272696e+00 0 -1 1
1150 1 1.8073378524531048e+01 1.9318737965040306e+01 1.6508861333622765e+01 0 0 0
1841 2 2.1928524788987239e+01 1.6623259038832380e+01 2.3320911479432571e+01 0 0 0
313 1 1.3613215524980081e+01 1.9886862199301063e+01 1.3554892121000938e+01 0 0 -1
1118 2 2.3992868769522769e+01 3.1753945815838666e+01 1.8525851913676391e+01 0 0 -1
1872 2 1.7080303041029737e+01 2.5914021723541254e+01 1.9384140646952737e+01 0 0 0
2613 2 1.5939294179674519e+01 2.8234477129944931e+01 9.9137670838098408e+00 0 0 1
1133 2 8.7000790632070544e+00 4.9071186974571521e+00 9.1819348358405719e+00 0 1 0
1762 1 1.3420154794882972e+01 1.3302143993288148e+01 1.9751049862915583e+01 0 0 0
2556 2 2.0308040013142556e+01 2.0672473746897037e+01 2.3335233857704708e+01 0 0 0
2548 1 8.3532187116878323e+00 4.3635411281273564e+00 8.2843257164502304e-01 0 1 1
1870 1 1.6198728703505981e+01 2.5677943502666047e+01 1.9704253967346418e+01 0 0 0
1662 2 7.3757876640210149e+00 1.6328251010065301e+01 1.8862903815654881e+00 0 -1 1
1136 2 1.0756289657665654e+01 1.1143331839670477e+01 2.4304002411946918e+01 0 1 -1
1736 2 1.4183046483641640e+01 1.2163004178024671e+01 9.9712063917556133e+00 0 0 0
376 1 1.9206747294140701e+01 3.0494753508577197e+01 2.1684660690944483e+01 0 -1 0
1109 2 1.5067528358130314e+01 9.4783068465948990e+00 1.5078701833736249e+01 0 0 0
372 2 1.4167304462286239e+01 1.1813541746046496e+01 2.2910256720186691e+01 0 0 0
333 2 1.7670002009855310e+01 3.1833494555949418e+01 1.6936037286819545e+01 0 0 0
2555 2 1.8950301439796736e+01 1.9855798415997160e+01 2.3088001739208309e+01 0 0 0
374 2 6.7058720602991606e+00 7.7901274785453287e+00 4.4702096255991099e+00 0 0 0
1801 1 1.6286168183380365e+01 2.0051803679034848e+01 1.3635600190971786e+01 0 -1 0
442 1 1.1322914198502664e+01 7.6990011768165063e+00 3.8365210641724210e+00 0 0 0
2601 2 1.7282020475108599e+01 2.1955208960815973e+01 6.3997853852621613e+00 0 0 0
2600 2 1.6982661605786380e+01 2.2204685499899966e+01 7.8402400535351253e+00 0 0 0
188 2 1.3242930117423303e+01 2.2811100137811600e+01 1.0708281940328765e+01 0 0 0
2444 2 1.3603469781957203e+01 1.3564732483014119e+01 5.4845093499093931e+00 0 1 0
1613 2 1.8293987587574936e+01 7.0276228214002856e+00 9.3649968506951584e+00 0 -1 0
2642 2 9.7343891936231124e+00 2.1366874851959037e+00 6.1359446510041504e+00 0 0 1
2307 2 2.1734856949815715e+01 2.6912419928577560e+01 2.2124745247074440e+00 0 -1 0
1119 2 2.3432338311835082e+01 3.0277534214470347e+01 1.8912928465222159e+01 0 0 -1
1088 2 2.1945940599283450e+01 2.7657162689053948e+01 2.6633896042442327e+01 0 0 -1
2330 2 9.1661258955269922e+00 2.0645579071562469e+01 4.7562336163702099e+00 0 0 0
269 2 1.5916458537491838e+01 1.9326716119942695e+01 1.9280178999014776e+01 0 -1 -1
2306 2 2.2306683666486666e+01 2.5394215871717972e+01 2.2421749296901123e+00 0 -1 0
198 2 1.9007381508857932e+01 2.6840464437998644e+01 9.8727529048960250e+00 0 -1 0
1089 2 2.3258818971763670e+01 2.8265394060214433e+01 2.6120812325659173e+01 0 0 -1
2468 2 1.1083665407425695e+01 1.0690570912368083e+01 8.2280100574489284e-03 0 0 1
2570 2 1.9097317676971141e+01 2.2284426181470604e+01 8.1148481491577442e+00 0 0 0
776 2 1.0781181493442062e+01 2.4974856225877410e+01 5.8901418867071076e+00 0 0 0
293 2 6.5501773474473506e+00 1.2813586395467174e+01 8.4484468802870154e+00 0 0 0
1658 2 1.7707826961546242e+01 2.8961326866817227e+01 1.8477912727092669e+01 0 -1 0
15 2 3.0759262097547797e+00 7.0147589297273312e+00 2.4426927458326033e+00 0 0 0
2604 2 1.5059718336779735e+01 1.8544871875521530e+01 2.4656068200120039e+01 0 1 0
2397 2 1.4693187792289638e+01 3.0860149661781783e+01 1.1661947531566261e+01 0 0 0
1134 2 9.9046563752902763e+00 5.4277275303506922e+00 1.0159626088823311e+01 0 1 0
2644 1 1.3859759158964543e+01 9.8725969370939204e+00 2.0268400762903543e+01 0 0 0
3026 2 2.7564568267240535e+01 3.1528292058533239e+01 1.9020341974396654e+01 0 0 0
332 2 1.7307746032385538e+01 3.0890340584425616e+01 1.5685318962863452e+01 0 0 0
1735 1 1.4521239531141536e+01 1.1284441842233292e+01 9.7391382295935358e+00 0 0 0
2646 2 1.4729569448655621e+01 9.9402159055175794e+00 1.9858712772644768e+01 0 0 0
2413 1 1.1756528946509746e+01 1.9533922078018129e+01 1.1440430155091722e+01 0 0 1
895 1 2.2057424771557631e+01 2.8935079716653597e+01 2.2356178014752224e+01 0 0 -1
2603 2 1.5447989400005344e+01 1.7197242379748641e+01 2.5313134529487698e+01 0 1 0
2554 1 1.9415048879324218e+01 2.0678640162202552e+01 2.2898351272613702e+01 0 0 0
2629 1 2.0629013823384316e+01 2.9751941586622785e+01 1.2040212272141993e+01 0 -1 0
2305 1 2.2384205217996612e+01 2.6308499381695292e+01 2.5985272201778100e+00 0 -1 0
443 2 1.0867261087703390e+01 7.1364298938526236e+00 4.4452502598281480e+00 0 0 0
2447 2 2.1800207954447322e+00 4.0669186059241458e+00 7.4158229806716722e+00 0 1 0
2185 1 2.5177026909849868e+01 2.7878939918582876e+01 7.4812163374519054e+00 0 -1 0
994 1 5.0748991232261007e+00 1.0199804301411602e+01 2.4764539271334378e+00 0 1 0
2641 1 9.4644402903964586e+00 2.9759607961079704e+00 6.3953053818570069e+00 0 0 1
897 2 2.1299981773762035e+01 2.9475622360243829e+01 2.2648001398994310e+01 0 0 -1
318 2 2.1609583545459387e+01 2.7062530750102479e+01 2.2860336370880283e+01 0 -1 -1
725 2 6.2953963178230934e+00 3.0367008690620247e+00 5.6670053417848116e+00 0 0 1
2456 2 1.3506572469746065e+01 1.9704701859800409e+01 9.4084039132405595e-01 0 0 1
1672 1 1.6037293570186453e+01 2.9850857450475129e+01 6.9753309926079492e+00 0 -1 0
1617 2 1.4275392251068299e+01 2.3494907989416635e+01 1.2896894479690701e+01 0 -1 0
1117 1 2.3220833963293440e+01 3.1136347855720935e+01 1.8520562491270567e+01 0 0 -1
1737 2 1.3969383700037024e+01 1.0653126259869133e+01 1.0273855905383478e+01 0 0 0
1909 1 1.4616268238296431e+01 1.2835033697464223e+01 1.6531915294572833e+01 0 0 0
1682 2 7.4113522818015323e+00 5.1321567206043479e+00 7.3392136285368368e+00 0 0 0
368 2 1.7818101843956580e+01 1.3657993529625120e+01 1.1539075369494370e+01 0 0 -1
197 2 1.9894645277588030e+01 2.8049173817375245e+01 9.6007957735487892e+00 0 -1 0
759 2 2.1181712172727714e+01 2.8480084581774811e+01 6.2027253393006561e+00 0 -1 0
2576 2 1.6364777585791476e+01 3.0402437004677868e+01 9.9432996757405050e+00 0 0 0
444 2 1.2177408994578641e+01 7.8350164885746514e+00 4.2556657639843083e+00 0 0 0
2513 2 1.6364228025644685e+01 2.6063505800869237e+01 1.5847579807486536e+01 0 0 0
674 2 2.3897826093989917e+01 2.6881098723452268e+01 1.9356517333960253e+00 0 -1 0
1681 1 7.8322126198988737e+00 4.3932140822755539e+00 7.8536454047649613e+00 0 0 0
2467 1 2.1195490510895507e+01 1.8102628528355361e+01 2.6207740384387762e+01 0 0 0
1596 2 1.6737888475933413e+01 2.1963303801454842e+01 1.6822020535654694e+01 0 0 0
1621 1 1.1049659825109797e+01 1.2411998293334516e+01 1.8395938794594738e+01 0 0 -1
1622 2 1.0407795705038541e+01 1.1883436534934336e+01 1.7883122366406941e+01 0 0 -1
1151 2 1.8499676514174237e+01 1.8538738014133383e+01 1.6117639481816390e+01 0 0 0
1691 2 1.3076850996515519e+01 2.1561378080027684e+01 2.6194679502865044e+00 0 -1 1
316 1 2.1586011518102538e+01 2.6376098472565559e+01 2.3576619600243070e+01 0 -1 -1
2612 2 1.7400570471473294e+01 2.8457399146195222e+01 1.0450463940801153e+01 0 0 1
2491 1 1.0757598356908886e+01 1.8813867763884254e+01 2.9235516469597047e+00 0 0 1
242 2 4.2002261833056398e+00 1.0505829772384235e+01 6.0576684692437546e+00 0 0 0
1110 2 1.4752690276071668e+01 8.0918758862669371e+00 1.4687006297727198e+01 0 0 0
1876 1 2.1894775107689142e+01 3.3330625181368937e+01 2.0397515433947806e+01 0 -1 0
2563 1 8.9164965785338346e+00 1.3116952229579251e+01 1.5710333993356274e+00 0 1 0
2630 2 2.0772980323311799e+01 2.9384795004292307e+01 1.2937617391445672e+01 0 -1 0
216 2 1.7899715995343758e+01 2.3398119540819714e+01 1.2393351013544168e+01 0 0 0
819 2 2.0098144372030045e+01 3.1429247181917727e+01 1.7735560408936283e+01 0 0 -1
373 1 6.2128136254876489e+00 6.9769167172815623e+00 4.0454257734966745e+00 0 0 0
1049 2 1.5027324369733364e+01 2.2743802715839944e+01 3.0354173189888667e+00 0 0 0
2512 1 1.6837227857974508e+01 2.5929125872338435e+01 1.6738217813343013e+01 0 0 0
214 1 1.7500448742315196e+01 2.3798407995723732e+01 1.1640866320210430e+01 0 0 0
2494 1 3.2093491467024108e+01 3.0673447097404878e+01 2.6255377230593567e+01 0 0 0
375 2 6.9703940035479821e+00 6.3333450158608215e+00 4.0285606428837824e+00 0 0 0
1668 2 1.7246730501024171e+01 1.8128905581987873e+01 2.6499457482336830e+01 0 0 0
2439 2 7.2351296997538270e+00 1.2221582735900228e+01 4.0496311788541872e+00 0 1 0
189 2 1.3013965852769784e+01 2.3695151075515980e+01 9.4329100981156202e+00 0 0 0
844 1 1.4612003906236712e+01 1.5671283736546346e+01 2.6151813307301435e+01 0 0 -1
187 1 1.3550672238628959e+01 2.2925248223528691e+01 9.7563096293667737e+00 0 0 0
1611 2 7.7187193738142845e+00 1.7448930844115541e+01 3.6642811987083914e+00 0 -1 0
314 2 1.4507955532045791e+01 2.0058502354009200e+01 1.3838446276977216e+01 0 0 -1
2602 1 1.5512338807683253e+01 1.7659859665177006e+01 2.4466008915733930e+01 0 1 0
1548 2 1.1716525196038907e+01 1.4537866280001651e+01 2.4985997927196170e+01 0 1 0
1560 2 1.4652713327342003e+01 2.7841349255368083e+01 1.4944766005442613e+00 0 0 1
1447 1 2.0921349999839503e+01 1.6672189691189494e+01 6.1369998815642228e+00 0 1 0
271 1 1.0426237529008830e+01 1.1632412250775790e+01 2.1099032444382722e+01 0 0 0
2469 2 2.2128498265187918e+01 1.8326123080984001e+01 2.6076973582016073e+01 0 0 0
1657 1 1.7047260975116355e+01 2.8579796711117659e+01 1.7894417516805763e+01 0 -1 0
385 1 1.9211988833908880e+01 2.0176017452312891e+01 2.6087335165753743e+01 0 0 -1
154 1 8.2830358562598505e+00 3.7039922588038690e+00 1.2177568599896631e+01 0 0 0
29 2 2.1856547001090501e+01 2.2528344394625744e+01 1.3160041088347544e+01 0 0 0
1152 2 1.8729857589838371e+01 1.9562685722769313e+01 1.7188573021423725e+01 0 0 0
625 1 7.4027636102878223e+00 6.8201539007145078e+00 2.9440873977874027e-01 0 0 0
1878 2 1.2201506905328682e+01 6.0936869215702760e+00 2.0762810488694559e+01 0 0 0
2437 1 7.3422158735171426e+00 1.1470937132784410e+01 3.4212573775451371e+00 0 1 0
1615 1 1.4712757126588482e+01 2.4309290219413672e+01 1.2585802864103638e+01 0 -1 0
920 2 2.0029827485487868e+01 2.1661960315336838e+01 2.1441392348216027e+01 0 0 -1
284 2 2.4485747583014888e+01 3.2610931396716644e+01 2.1770627443192854e+01 0 0 -1
871 1 1.2479603424209850e+01 1.6046626833914054e+01 1.4753737332799599e+01 0 0 0
820 1 1.7998161870244882e+01 2.5958317533535904e+01 2.6258021320762825e+01 0 0 -1
2670 2 1.9825930913725827e+01 2.3971309182305994e+01 9.5751338930620520e+00 0 0 0
117 2 2.1835318816507790e+01 2.1564049834264722e+01 2.6157971302663494e+01 0 0 -1
2433 2 1.5494766197739910e+01 2.8959407199120761e+01 1.8564495309317877e+01 0 0 0
2492 2 1.0165416925935112e+01 1.9265981858021402e+01 3.5783407318190661e+00 0 0 1
1085 2 1.5582130194535875e+01 1.4480909714673242e+01 5.0501387580835688e+00 0 0 0
848 2 1.7132396880284265e+01 2.0023846513129396e+01 1.0533730930059564e+01 0 0 -1
273 2 1.0054064397479641e+01 1.0732544378956280e+01 2.1256897066001940e+01 0 0 0
1084 1 1.4629971765667303e+01 1.4856236040843918e+01 5.0273030006863655e+00 0 0 0
1910 2 1.4907911105468038e+01 1.3582137676597394e+01 1.5932805674006769e+01 0 0 0
1087 1 2.2827005737569674e+01 2.7955055859391518e+01 2.6898058776123804e+01 0 0 -1
360 2 1.6010185795007292e+01 2.5946774434409672e+01 2.2161031382402211e+01 0 0 0
196 1 1.8920711990424042e+01 2.7716937770006602e+01 9.5121397908222818e+00 0 -1 0
777 2 1.2361123775505082e+01 2.4777677594425285e+01 6.0456290890391378e+00 0 0 0
308 2 2.5607739190791964e+01 3.3975664346322858e+01 2.4852627604658693e+01 0 0 -1
309 2 2.5876738339772036e+01 3.2366985736523503e+01 2.4752113687261240e+01 0 0 -1
3003 2 7.7564690481366387e+00 6.5355066882838324e+00 1.0304425344758032e+01 0 1 0
1809 2 1.8634882650327960e+01 9.6996465797780616e+00 1.0382975916290103e+01 0 0 0
880 1 1.5587691495094891e+01 2.0495662783236465e+01 2.2484041674735309e+01 0 0 0
315 2 1.3136096833019653e+01 1.9639550940907547e+01 1.4373213138519359e+01 0 0 -1
283 1 2.5013025761430679e+01 3.3437512998784563e+01 2.1876868133674815e+01 0 0 -1
386 2 8.9808063311416895e+00 1.3023938002241103e+01 2.7004693161879173e-02 0 0 0
1201 1 2.2209630449424790e+01 1.6287467163991160e+01 1.8486228144467724e+01 0 1 -1
726 2 6.7607032770814737e+00 2.8827260818706657e+00 4.2359481273818300e+00 0 0 1
1545 2 7.8499152697230627e+00 9.0561436549791292e+00 1.5422146904414994e+01 0 0 0