LAMMPS data file via write_data, version 8 Apr 2021, timestep = 1755000

1008 atoms
2 atom types

-0.05440287828800828 20.726929535515204 xlo xhi
-0.05440287828800828 20.726929535515204 ylo yhi
-0.05440287828800828 20.726929535515204 zlo zhi
0 0 0 xy xz yz

Masses

1 16
2 2

Atoms # atomic

570 2 4.670277399132924 0.39051509733003337 7.898283718017257 1 -2 1
638 2 7.901235574134279 7.202273909118729 9.768868219650525 0 -1 1
171 2 6.68897903891373 9.401194133449529 3.52633795315376 3 2 0
784 1 11.00791323766766 1.0075191338800733 2.1426316796646043 -1 1 0
138 2 17.36894611612459 6.398378431273985 1.8705756173939638 1 -2 3
535 1 19.226629604507792 4.569163104919196 4.149364530959667 -1 -3 3
94 1 15.458412156985453 2.5349083348420343 5.532049184664484 4 -2 -2
857 2 0.2918512026291138 6.928990727396742 1.3776206883471036 0 0 -1
538 1 0.36255918929422754 0.6156894188903773 5.660557005100144 4 2 2
976 1 5.863531594818126 7.992467342105946 7.396608008277664 1 -1 2
682 1 13.41615280437575 5.835748921874438 4.5335904764656885 -1 2 0
540 2 0.9077401272811412 0.08090085110087886 6.353976616667621 4 2 2
537 2 19.861115688132358 3.9746813484606385 3.651968165751884 -1 -3 3
957 2 18.18762559741171 5.100101330583597 7.066921106704832 -1 -1 1
975 2 6.687918772521749 8.948960063666563 1.3492056806056953 -1 -3 1
627 2 14.446488544945016 8.146487242636093 6.62910658444181 2 2 0
31 1 9.126423044989313 2.9484840556493066 5.483782546820461 -2 3 -1
531 2 6.8903444772335485 1.4515315876962658 2.8036865357727963 -1 1 2
977 2 6.6828989833240575 7.764260522021071 7.882261242047299 1 -1 2
785 2 10.399266198570176 0.16788084013709045 2.139584987459919 -1 1 0
149 2 12.31782820499703 3.844336682446439 0.3057431772412945 1 1 0
47 2 11.065184457158624 0.4986417604208001 5.40434598549956 1 -2 2
569 2 5.423285323511338 1.736168638015345 7.768709516916941 1 -2 1
237 2 1.878926506829092 9.637059129584186 5.479886271279461 -1 2 -3
565 1 12.098481433682418 9.832273989464849 8.687001326198745 -2 -4 1
521 2 20.519791810073254 2.033641345228765 2.8873614608862535 0 0 1
464 2 6.263226911770191 6.875557960114151 4.4075185478167285 2 0 -2
936 2 2.3562244959015626 5.796392886932523 5.395352440921755 1 0 -2
883 1 13.053665334948198 3.166322153131557 3.750248861168086 -1 1 2
262 1 19.630762409726895 8.888634715894439 3.301162812806872 -3 2 -1
567 2 11.133486236632347 10.05552510348313 8.688356295923318 -2 -4 1
388 1 20.22694158236161 0.28354334270425696 3.208923260512863 0 2 0
911 2 9.695850309687257 5.053261866833413 0.7676597196706927 0 0 1
915 2 6.794989101547954 4.394529927697408 9.249897647321276 0 2 0
232 1 9.389165325949229 5.972243446529769 6.7872993391555685 -1 0 -2
500 2 1.671488478823946 6.972254516299617 7.587048085667672 -1 0 -3
845 2 11.591721018348021 8.465718636351289 3.7106824365521844 0 -1 1
505 1 13.34664038137176 7.560322267508046 8.028954069380589 -2 3 0
224 2 9.141790817353755 9.189581103524333 8.74496465170953 -1 2 0
534 2 10.384840368530257 8.554779469973722 5.681706835517054 -4 1 2
711 2 20.542414939766637 3.208937322186705 9.522215903656777 -1 1 -1
701 2 11.943293311289953 1.9947427668271265 9.110579906165631 -2 2 0
506 2 13.81537142203515 7.5273768810772275 8.939685774757693 -2 3 0
396 2 2.001096733328511 3.1197029181152285 6.783807005660533 -1 1 0
395 2 1.8555446120940617 3.7889936778409283 5.3502353841786014 -1 1 0
560 2 19.07562646273646 2.9880269257579397 6.494511818753838 3 1 1
973 1 6.953363673780766 8.256923569692004 0.6871231515580222 0 -3 1
702 2 11.56909387023086 0.5478049165676661 8.920996537576752 -2 2 0
655 1 15.299117761235802 0.20158958792156156 3.965605553069767 4 -1 2
905 2 4.688424580012769 8.748306518142902 8.424924292846917 0 1 -2
980 2 1.5850461214834415 2.88750277482934 0.639476792629551 2 2 1
343 1 2.062881518831024 7.3603107136623835 9.275557501421229 0 2 0
657 2 15.279226733391468 0.6720507066094055 4.798144147859989 3 -1 2
381 2 14.747823473922928 3.7467721163483345 8.23559032134428 2 -2 0
136 1 17.225351856261312 7.179977373958393 2.4727776913009314 1 -2 3
141 2 16.188996138054122 3.481761156408079 4.158122178693852 0 -3 -1
201 2 17.261297008907967 1.9468408629940315 5.695499092490396 0 1 2
884 2 12.85288800289166 3.076656058675788 2.806171731225229 -1 1 2
507 2 12.813609298307707 8.401493212984457 8.179683812997487 -2 3 0
626 2 14.616009125541373 9.162526319873093 5.4252738061057295 2 2 0
929 2 7.8438547151308216 2.9707177879274744 2.0421446041875737 2 0 0
959 2 13.489398091603134 0.5074189483314749 9.43584341824487 1 1 1
590 2 19.50706593021027 4.610440600773936 8.403603024032828 2 0 -1
75 2 14.97127144177002 7.2424286274695255 0.24603064943583525 4 -1 -2
561 2 20.521914035836986 3.58040717400819 6.5292594082407565 3 1 2
667 1 9.996009754954787 8.038661204221667 0.8871895807099713 0 2 0
597 2 17.62983395214576 0.4223035589668623 1.3939789741891147 -1 0 -1
441 2 14.756220274156325 4.622545298987923 0.2773139673384621 2 -1 1
522 2 1.0169244228912175 2.859283297515583 3.0063392917236844 1 0 1
645 2 4.032638480110209 8.362799021518814 0.8622318066445842 3 0 2
407 2 3.8478811812125437 3.0794038562802895 3.7065648432487377 0 3 2
55 1 13.55438296361855 1.0681628670272738 1.7830810705320317 -4 1 1
254 2 3.761575800066296 5.964447187288866 7.672646081539649 1 -2 0
693 2 16.606422003449026 6.821647891734556 4.0712815374485904 0 -2 0
430 1 11.87155164449788 1.9071428507764416 5.730424187274794 -4 -1 1
710 2 20.58744582636204 1.6429499853191694 9.353759758712496 -1 1 -1
545 2 3.2694113105465905 2.4433301568413754 8.514965891835917 0 -2 1
319 1 3.4648568190380002 8.45711219928661 2.868016981957507 1 0 3
95 2 15.509981658470945 2.915335590059248 6.477770996608576 4 -2 -2
85 1 1.9244310207426827 0.0014692738563171007 10.137678671593578 2 -1 -2
692 2 15.744915251998211 7.222932840176656 5.408510523111756 0 -2 0
533 2 9.545122396889242 9.110177896599936 6.865699975055524 -4 1 2
1008 2 2.3604066874547174 9.67993414194633 1.748041860965204 1 -1 1
539 2 0.665702881175749 1.5472743922343324 5.661658986496603 4 2 1
683 2 14.37636612922614 5.85373018707661 4.626520299770426 -1 2 0
236 2 2.9613954754326905 8.982982174726581 4.57904779827593 -1 2 -3
74 2 15.993897387841223 7.855804760349314 1.204294955496275 4 -1 -2
214 1 9.31166801789962 3.1294545119253265 2.8450856836453386 1 -1 0
844 1 11.606683990589016 7.855452071803415 4.485315398931859 0 -1 1
223 1 9.287556254287429 10.005624726337416 8.270683159653942 -1 2 0
96 2 14.5544187664062 2.4102440468513358 5.335552673956284 4 -2 -2
793 1 15.001275255003225 3.289921471892555 1.355854863691507 2 1 0
934 1 2.8901129550140934 5.104168524387039 4.915796157611873 1 0 -2
954 2 17.605595107153377 9.592824864128582 5.169927258321034 -1 2 1
178 1 17.86008859604618 8.202680634410902 8.16389934835903 3 1 3
930 2 6.541734179486987 3.7906105451314582 1.5151786933974878 2 0 0
10 1 12.960577367446106 3.501611419587255 8.412408008858462 -2 2 -1
65 2 18.295432833891965 10.01758645359174 2.7707360102415968 1 3 0
742 1 2.8998454219578447 5.758094011084088 2.4824273155360244 1 0 -2
403 1 17.62582688791176 5.602230082228263 0.32031796608505914 -5 1 2
150 2 11.966893592554689 5.033428315790778 1.2267726510201717 1 1 0
904 1 4.011436292367876 9.133659947872664 9.040789181716338 0 1 -2
672 2 10.322989682575209 6.309578989171312 3.8511631807856888 -1 -3 0
744 2 3.7740480400893675 5.698806905368044 2.069331551792504 1 0 -2
264 2 19.49918805746234 8.455968762533633 4.182688711251087 -3 2 -1
989 2 20.23043558157347 7.437073609655102 6.086385364658666 1 0 1
708 2 5.892231494681309 5.806517693576621 2.2848434344045807 -1 0 0
56 2 12.545437077180082 0.8539935966221458 1.9439259405514437 -4 1 1
345 2 2.4475396822096114 6.598415585576676 9.749742242811301 0 2 0
924 2 3.621631206457934 1.1750133395435023 3.2059746080843374 1 1 3
607 1 13.804605535043688 0.43926897380175584 6.733735485810023 0 -3 1
974 2 6.0945645226674126 8.093495547902354 0.24079599661052148 0 -3 1
637 1 8.409859137849212 7.515361293520971 8.967527128832346 0 -1 1
344 2 2.8468290856166996 7.994431323532475 9.232093218908663 1 2 0
955 1 17.424426401349407 5.655742690258163 7.224067255362302 -1 -1 1
846 2 12.506401901179022 7.398181543411469 4.475231890137378 0 -1 1
293 2 10.773162558734024 1.7799770960217034 0.4033501885888145 3 -4 3
882 2 11.337473464785855 7.393618727511318 0.21686885177069182 -3 -1 -1
404 2 18.00086541704149 4.711772514097647 0.020161294697625724 -5 1 2
394 1 1.3795948253146015 3.2314315665361284 6.046166809408824 -1 1 0
889 1 11.274618191005128 9.7699517817296 2.5234913656884777 -1 -2 2
762 2 8.169353322901536 0.5350020495617398 9.534967707059986 1 0 0
990 2 19.62874806831341 6.280782754853852 5.245145262413772 1 -1 1
140 2 17.54366637964298 4.29272316243605 3.6844404181824832 0 -3 -1
379 1 15.611985021364012 3.541200171530127 7.916094399963736 2 -2 0
501 2 2.0393991323411425 7.742087393336225 6.319435004225339 -1 0 -3
233 2 9.077323737506068 5.051741437388578 6.735402149391943 -1 0 -2
300 2 16.094051416844888 0.5877442004993362 9.046023591564595 3 -2 0
431 2 12.592410841881838 1.5093952007029294 6.218721348689911 -4 -1 1
432 2 12.217012635659971 2.4190062952227125 4.966629623011601 -4 -1 1
636 2 8.058551856980507 8.323420502576356 5.179914796686669 0 0 3
475 1 6.796681456436167 2.3126177679184075 7.158998683207025 -2 2 -2
794 2 15.389793139541682 3.647022655376642 2.168059116036471 2 1 0
148 1 11.79287593991891 4.091530553548462 1.097668769972688 1 1 0
44 2 13.524996111203395 10.138065515510467 3.466528812858433 1 0 0
795 2 14.396346557321756 2.6476977059408724 1.7298325949050983 2 1 0
465 2 5.372444906822531 5.6317228890056805 4.401235853020602 2 0 -2
199 1 18.052140175400258 1.7668927411984097 6.188621594501301 0 1 2
426 2 12.446965229582439 6.460314298155214 7.355482010761416 0 1 2
33 2 8.328454923325033 2.5771886348203314 5.9212859164743605 -2 3 -1
235 1 2.706418998343876 9.109494340904906 5.523915821398187 -1 2 -3
180 2 17.263283486481246 8.480465785503595 8.94159643387089 3 1 3
755 2 6.011946184262293 2.7496459894251726 4.461716178130701 0 0 3
530 2 5.887338869915826 0.5566189141798927 3.4424609540002424 0 1 2
284 2 16.91922255244794 0.6486537196807357 3.2870542812240426 -3 1 -2
914 2 6.044442773805679 5.12553641506801 8.205829101616178 0 2 0
380 2 16.13598872003949 4.345713078373268 7.66961202140524 2 -2 0
568 1 4.611171297577115 1.3465457216304275 8.109464548038126 1 -2 1
32 2 9.850571709039926 2.5133376007112784 5.944970292759303 -2 3 -1
856 1 0.43073929969863806 7.883669247072858 1.5278966286453965 0 0 -1
97 1 13.382790614466023 10.005032526159082 1.314370170421696 3 -3 0
255 2 3.9242563110187296 5.581690414982853 6.248184889616013 1 -2 0
953 2 17.773947138153805 9.52489158631647 6.733520305180883 -1 2 1
263 2 20.34528724066329 8.414508009373039 2.767648988892097 -3 2 -1
220 1 0.15804141193624058 5.139367265005559 1.0782017698405908 -1 3 1
880 1 12.212444643016171 6.954522614767995 0.0576457974334244 -3 -1 -1
849 2 -0.0264611971456847 10.008791498262584 4.577612284754552 0 -1 -1
756 2 5.148318345627392 3.4444862009074426 5.560914250456009 0 0 3
221 2 0.2153452536797147 5.043799779739742 0.1275834160463655 -1 3 1
179 2 17.43203030009057 7.358059843317692 7.761308722481848 3 1 3
935 2 2.9819728839849295 5.351059473788147 3.9881033440012468 1 0 -2
215 2 9.21978703064077 3.136761923240166 3.8125853098716416 1 -1 0
216 2 9.773327214864494 3.9670389005440523 2.699416152155824 1 -1 0
463 1 5.540760529412394 6.460858719075083 3.964426564543346 2 0 -2
743 2 2.3773281997519167 5.073949591274942 2.034206949742117 1 0 -2
591 2 18.668361404814576 4.700640703417166 9.69318877727424 2 0 -1
589 1 19.548873264311144 4.897883126546854 9.33391081025489 2 0 -1
139 1 16.720491073334774 3.7422466679864934 3.3697625045775426 0 -3 -1
952 1 17.76464767993403 10.149833054626562 5.979550935267002 -1 2 1
477 2 7.291267544398519 1.9146220427784961 7.908151101383443 -2 2 -2
408 2 3.2057536665904984 3.027964411501394 2.229192931591241 0 3 2
891 2 12.082225771294432 9.620380462015778 2.0044592308496996 -1 -2 2
406 1 3.0712802562452923 2.7514740749553455 3.195439261637854 0 3 2
11 2 12.49176951354469 4.194225082149668 7.8479214952337095 -2 2 -1
706 1 5.440260202374246 5.233425934058783 1.6277966065806166 -1 0 0
390 2 19.275253502782085 0.41487153491896417 3.2578840494514076 0 2 0
981 2 2.535108550199394 4.188335063306472 0.25126356924135296 2 2 2
707 2 5.832530524859886 5.5701714690438715 0.7674058823510518 -1 0 -1
425 2 11.167175591773 5.669450979361841 6.896190580514667 0 1 2
700 1 11.955927329653614 1.1434887345016924 9.569435467469091 -2 2 0
625 1 15.077664307110453 8.467621900701989 5.9581457887513185 2 2 0
691 1 16.21397393089334 6.46179853664818 4.9432025046199515 0 -2 0
546 2 1.826959347005021 2.7366723422982577 9.122736069225606 0 -2 1
283 1 17.661254524163766 1.2187482854504708 2.899325332188336 -3 1 -2
222 2 0.1790829144742622 4.263839628822233 1.485932821928078 -1 3 1
978 2 5.456453432037067 7.125427571902264 7.137692133589674 1 -1 2
137 2 18.096370887040386 7.634272641266364 2.459796382511774 1 -2 3
234 2 8.81687730263784 6.322580922402002 6.1212220712860645 -1 0 -2
669 2 9.043406430274631 8.246137738084164 0.8621223140944474 0 2 0
285 2 17.38016492933769 2.176783237940024 2.8569099963341804 -3 1 -2
671 2 9.159110208923588 6.633807396402633 2.898459676753943 -1 -3 0
635 2 6.595092352142457 8.451215408431697 5.680354039765282 0 0 3
12 2 12.94102594830197 3.9790851475908298 9.273829534758104 -2 2 -1
499 1 1.6989815691543002 6.914992521962084 6.6627018347339675 -1 0 -3
791 2 19.628216204641888 8.109112426227862 8.628649726158802 0 0 1
885 2 13.263440820588482 4.136545349099668 3.903515095833907 -1 1 2
536 2 19.325860505175935 4.379253127131256 5.085248120963986 -1 -3 3
786 2 10.539402795376645 1.639899717303993 2.68191867188817 -1 1 0
532 1 9.521715910860621 8.875084468130503 5.941979065357928 -4 1 2
253 1 4.477220015978995 5.800783335954195 7.050760068941423 1 -2 0
684 2 12.916061810618107 5.64388773628761 5.394259872699565 -1 2 0
424 1 12.123088590323913 5.640010990062558 6.891642501401943 0 1 2
900 2 14.30459450874359 0.18082869977719793 0.49834106014001933 -2 1 1
428 2 4.904933689531053 1.3427886263238515 10.120821372741265 3 1 -1
267 2 2.5873228036724347 4.337902313501257 10.054560016768626 1 1 0
928 1 6.964636023767357 2.888159325433168 1.5346587080708831 2 0 0
169 1 6.427378064762598 9.927218088065692 2.7476720710132363 3 2 0
670 1 9.594050879613555 5.894650769312588 3.34569173772543 -1 -3 0
544 1 2.5733604011383537 3.1466203678562645 8.619003605060916 0 -2 1
988 1 19.486598695078143 7.184672295615263 5.5834101629984625 1 0 1
634 1 7.164774145726163 8.524520198017793 4.897823573281323 0 0 3
858 2 0.044501405702912784 8.209863859812396 0.6801718669215397 0 0 -1
520 1 0.07604127782032283 2.9267280101005144 2.7494508409451197 1 0 1
134 2 18.76939304086812 0.20062464832097948 8.853982766612866 -2 -1 -1
476 2 6.832315508971835 3.2944851567837574 7.381354303003474 -2 2 -2
200 2 18.490863634620702 0.9966172690490488 5.79411861131379 0 1 2
133 1 19.727788781818994 0.19546969255830315 8.644776960023371 -2 -1 -1
73 1 15.14081987450722 8.03896679798776 0.7054132523142789 4 -1 -2
498 2 16.366920813616574 3.7758686742344927 9.820659872966228 -2 -1 -1
754 1 5.3969029788149605 3.52972280814053 4.629096745337977 0 0 3
760 1 8.585563367916475 1.2981532283183295 9.068820424707129 1 0 0
709 1 0.28838039149813244 2.397663687498077 9.688876777174274 0 1 -1
559 1 19.579877664973843 3.7990927037748086 6.6654717125462595 3 1 2
639 2 8.627760526750343 6.691011520223504 8.494483960732383 -1 -1 1
956 2 17.07435993896508 5.888217014101065 6.328144781018354 -1 -1 1
792 2 0.4026406571900951 7.901592705342174 9.285546850726146 1 0 2
321 2 3.0669579128213105 7.554713126653564 2.7169608918766106 0 0 3
320 2 4.461813960406262 8.374319930383193 2.9776334682188685 1 0 3
298 1 16.928464995099304 0.6222230087897025 8.582817749765804 3 -2 0
529 1 6.7068130102882195 1.0880912826915061 3.681213171647875 -1 1 2
98 2 14.081017915256737 9.37132032501043 1.1640009608006023 3 -3 0
913 1 6.926071842599499 4.749303251182501 8.362323080832489 0 2 0
790 1 20.366710880182183 8.460695839446448 9.225626036786743 0 0 2
668 2 10.37258166400236 8.75791962974202 1.4646563145532923 0 2 0
761 2 8.808752651720338 2.0977927523400592 9.656030785586148 1 0 0
299 2 16.994395388202236 1.4676166607922083 8.108424369778417 3 -2 0
579 2 9.70295208542446 -0.005841323287363545 8.312388545400452 0 0 1
564 2 0.1431710399620119 10.09289363109259 8.818955919604004 -1 3 -2
57 2 14.049063513637387 0.7659454986433583 2.5390312576306613 -4 1 1
609 2 14.44661445902726 0.8645338822991476 7.341176683578561 0 -3 1
979 1 2.4972875671435433 3.2110217814223225 0.6045885436867022 2 2 2
135 2 19.682478524933533 0.3556431585704831 7.630133019841211 -3 -1 -1
958 1 14.490453353806675 0.2361373054392335 9.502763472081789 1 1 2
737 2 16.290059079760706 9.64146465406741 0.03288191098678055 0 -1 -2
923 2 4.067633406649344 0.2212299783539987 2.071935936360742 1 1 3
906 2 3.870264840879433 10.066023349792946 8.753270258419073 0 0 -2
922 1 4.151749794921692 0.3602318938750288 3.0180140397925928 1 1 3
588 2 4.213939135830547 10.159956752292441 6.0466984602820135 -3 0 0
881 2 12.806914251506335 7.675789634387353 0.21351754500099446 -3 -1 -1
389 2 20.4864978626304 0.14066423612014023 4.123225074233889 0 2 0
910 1 9.17000011369291 4.80642863985323 -0.043253035968376846 0 0 1
643 1 4.249352041115513 7.847811661183013 -0.03155588674955843 3 0 2
355 1 16.96930385508847 10.288686386652417 13.201922278227327 -4 3 -1
488 2 20.179730222748695 5.3588893584673905 13.320098627510855 1 -2 -1
1002 2 11.279725432170528 8.814458925517842 17.20078368057648 1 0 1
770 2 3.4459237127151026 1.8863224118120079 13.4922257847832 3 0 0
88 1 2.08099875503234 2.9477613740084943 17.932937734866737 0 0 -1
198 2 2.872928906393813 8.047078706966946 15.558131125764069 -1 1 0
168 2 4.5798984141314705 3.011295971641882 15.278553523281134 0 -2 -2
93 2 9.717183611865297 4.892512667729415 17.567360586563268 -4 -1 -4
614 2 18.664225122383574 1.9786020195609575 17.040836374925195 1 2 2
334 1 2.3911819716182645 9.67953664512908 14.683713942043166 2 3 -1
736 1 16.57493497803591 10.195361416756478 20.11351143086838 0 -1 -3
829 1 7.711414826186147 4.405303993168601 13.31939681611371 -3 -2 1
996 2 12.877922033287563 4.710451936584678 11.271340182952086 -2 0 -2
322 1 11.692498482914242 1.4441145580576824 14.15698212250018 0 -1 -3
324 2 12.616550707114067 1.855211288207838 13.935459770956442 0 -1 -3
210 2 17.763607102729306 2.515825842666754 15.07482046643108 -2 1 -3
113 2 1.0341392459387482 8.996779653459258 18.61006541584536 1 -1 1
903 2 17.960704955810048 1.7279783928750858 12.620796767982274 -3 1 0
316 1 4.606985071557511 5.028643541610671 12.625962154617357 1 0 0
893 2 15.965953795767682 8.016889243505462 10.742371220318963 -2 0 -1
209 2 16.88635264389798 3.1942850267011558 13.865059101209562 -2 1 -3
294 2 9.819032314918093 1.3521845101305812 19.88129564063702 3 -4 2
269 2 7.740074020063636 9.266096026769842 19.415761049158043 0 -1 -4
699 2 12.723096028326552 6.302913023893059 19.265413412877237 -2 1 -1
895 1 2.1216296006469126 4.981658925588731 15.090573971341167 0 0 0
62 2 16.474311166021664 4.730482709605247 12.166771171311003 0 1 1
41 2 17.120285743443052 8.505579763890493 13.727273959072512 -2 -1 2
993 2 17.57886105484229 8.048388945114572 17.54398060560248 -1 2 -1
325 1 1.1496583996196825 1.7385115145605907 15.756928793450648 0 0 -1
364 1 18.36869872452663 0.502178135474644 17.629687363328493 2 1 0
483 2 2.8986601303951525 4.347381021056433 17.49240444462892 1 0 -2
896 2 2.3840033259282123 5.871766591053751 15.28415989090935 0 0 -1
815 2 13.721322800027105 9.72878361150415 12.676830539734006 0 -2 0
798 2 3.317459420299505 5.3273465418794945 19.302180276477344 1 -1 -1
456 2 11.73009629506595 8.738369032125165 11.931945929089288 1 -1 2
323 2 11.273367912942236 1.1800704761368592 13.330849031427004 0 -1 -3
948 2 10.164752397557097 7.809162584692009 15.202071949556407 3 2 1
330 2 12.465564596345187 5.861267324665678 16.762282839119383 2 1 1
496 1 17.07949706574115 3.8283539720235593 10.469679602553128 -2 -1 -2
83 2 15.646438047315272 4.585095564108997 16.346817889046978 -2 -1 0
92 2 9.334310709294968 3.3519157724476765 17.021609889328097 -4 -1 -4
410 2 11.207108990149083 6.16543642668015 11.828831690086124 1 1 -2
830 2 7.30414198919994 4.8148449589931355 14.182785884113873 -3 -2 1
727 1 9.959992968415763 6.465313633128265 18.357758399804386 0 0 1
840 2 9.342378247056441 7.483456208283565 11.888940833114955 4 2 1
17 2 19.989892034969063 5.935504828375401 11.05833302862452 -2 1 -1
336 2 3.009324658331147 9.866448111894007 13.86613914396742 2 3 -1
474 2 7.578478818408037 1.940370630450777 16.76898404912545 1 0 0
612 2 6.0504312316012285 3.88637639760997 16.853186296407255 -1 2 -1
490 1 5.885242164453508 2.0073195855809063 16.00852315075655 0 -1 0
611 2 5.144407137068051 4.9922136447078 17.198592620978847 -1 3 -1
624 2 4.709700866885872 8.587945341847718 17.15428443350742 1 0 -1
949 1 9.020463780269269 0.06604464551227862 18.97699652511892 -2 1 -2
157 1 3.7408940100918175 0.7588122958501988 16.340442927327594 3 1 -2
796 1 2.982875010004641 5.461534728002674 20.236252717357402 1 -1 -1
677 2 7.365893384630545 6.947026565765601 18.820086440234604 0 -2 1
797 2 3.4338898045631456 6.270035633749822 20.579957172658048 1 -1 -1
242 2 10.659298932792531 9.788456442143106 15.18592688169072 0 -2 1
528 2 8.115254130523487 3.703938965538017 11.21097542242136 -2 1 1
511 1 16.56899300543854 1.385053382471565 19.651840306037286 2 3 0
411 2 11.174299278051059 5.042394646274438 12.93187297577311 1 1 -2
317 2 4.486427037790841 4.354013194824956 13.333208449048952 1 0 0
387 2 7.7835783907507095 0.3890532323506699 13.578291677120903 0 4 0
558 2 6.807687013551341 6.690186757335985 14.910924825877755 2 0 3
440 2 14.286670473839042 5.209405486843851 19.695424995264787 2 -1 0
266 2 2.000474674236511 4.626020306722116 11.503233979266671 1 1 -1
901 1 18.083439878570573 1.4458307151724072 11.668935444496723 -3 1 0
610 1 6.114869337371336 4.766995306265787 17.24087351604087 -1 2 -1
472 1 8.508322476546917 1.9427499027465136 17.0223439818952 1 0 0
42 2 16.06790584059888 7.707311424911397 14.338131317441723 -2 -1 2
485 2 19.769062966589107 5.782944669695017 16.462619415129623 -2 -1 0
551 2 7.281420860221932 6.00062188833361 12.067940317678122 -3 0 0
698 2 12.267687335609805 4.867400381198931 18.81938614183272 -1 1 -1
68 2 6.723257284958663 2.38016029223674 20.56391950587629 -3 -1 1
802 1 1.0037448435828915 3.1695295663908953 12.300542558759805 -2 2 -3
991 1 18.474559455848567 8.562828356526918 17.476107319313893 0 2 -1
687 2 4.987814377317018 1.7070955846217342 19.54663394287715 -1 -1 -2
176 2 4.406552409912496 0.2158612510856704 20.574192087056357 2 2 2
641 2 7.6121290225765454 5.444634932360527 20.237227171385996 2 2 -4
512 2 15.64196613573257 1.5644478091025236 19.37523597198431 3 3 0
554 2 13.655310770327358 4.979704421654408 15.003856633803643 0 -1 -2
1000 1 11.731673913610187 8.502826340136645 17.98135417153491 1 0 1
894 2 16.29138842956727 9.45120226507569 10.50112912572147 -2 0 -1
838 1 9.927321569970704 8.131741638980445 12.37265768794158 4 2 1
439 1 15.00437136049501 5.283838040090682 20.3911742430368 2 -1 0
486 2 20.670861683428228 5.072310843907463 17.583612672835134 -2 -2 0
620 2 7.124053272516828 2.7075885218111715 13.252701696733572 -1 1 -2
67 1 6.496185640751937 2.2630245526438015 19.633544097974433 -3 -1 1
484 1 20.14701502566043 4.951649870996777 16.81085261951623 -2 -1 0
594 2 5.085347684747887 6.635741667783772 13.33820303922319 0 2 0
628 1 3.759170380717382 9.60690325845893 18.77173251894518 -1 4 -1
686 2 3.391741065646911 2.0982588087095344 20.1412767301244 -1 -1 -2
362 2 20.082559995869776 8.339504403394935 14.636948732404294 0 0 0
427 1 4.860255052954289 1.645486753564259 11.048931270020402 3 1 -1
552 2 7.205539694929996 7.566033872058967 11.846392494690841 -3 0 0
405 2 16.726852968902957 5.623556752570676 20.7204138537557 -5 1 1
208 1 17.550622885317033 2.5144898956008745 14.106083297350812 -2 1 -3
365 2 17.496700123107694 0.6353214592331888 18.023801265778527 2 1 0
769 1 2.9984488550746335 1.218022645698078 12.87996493089728 3 0 0
326 2 1.03001739903048 2.4948950948240105 15.189343874603939 0 0 -1
350 2 11.223056454501714 1.1368558443746972 17.43088622346121 2 2 -2
640 1 6.740753434604426 5.794752994233353 19.874388287683967 2 2 -4
509 2 14.726208008623933 1.4335408986145035 14.802353835981586 3 1 3
195 2 10.733651106461112 9.977060912932426 18.62102473931756 0 0 0
290 2 14.463341323243812 2.073253847106535 12.3960639594585 2 2 1
654 2 17.57556132661079 0.7428321691217469 14.716368674984484 0 1 -1
997 1 10.185825998521608 0.9854311242942818 12.169493143970616 -2 2 1
40 1 16.947879696229382 7.588483977311391 13.906163988892201 -2 -1 2
30 2 14.215113892695397 6.378833612602354 10.823015228462245 -1 0 1
621 2 5.846693637762185 1.8374048632546978 12.890026580885397 -1 1 -2
593 2 5.586622016579221 8.102929213112484 13.252911356799027 0 2 0
481 1 3.6014469823667556 5.091318949720678 17.665826475164756 1 0 -2
60 2 5.307723852984791 9.172615150159007 10.487364055786058 2 1 0
613 1 18.528218981165786 2.870730501947934 16.592027095336036 1 2 2
514 1 19.264299571914044 8.790106257461822 11.759558900091054 0 2 1
90 2 1.4566965666582727 2.885588454810326 18.659458521919653 0 0 -1
4 1 0.1641162909099885 10.262940701252669 20.491081899114487 1 0 0
622 1 5.531095868047938 8.537589086885367 16.670355099705624 1 0 -1
491 2 6.0198897883649805 1.8842289204942044 15.05043734985511 0 -1 0
918 2 20.493553904421894 6.179623851586299 19.65937926971277 1 0 -1
29 2 13.631312495083517 7.9289266733496415 10.936042092033816 -1 0 1
738 2 15.7979185062926 10.052583002226672 19.537012165343253 0 -1 -3
824 2 13.67794837340556 2.763698929063165 18.361593079953135 1 1 -1
728 2 9.80881192199714 6.164543741565197 19.252476156855447 0 0 0
527 2 9.680237148761327 3.8796777003959066 11.53097226836133 -2 2 1
219 2 11.34901355580794 3.3766605913078727 17.86476403136899 -4 3 -2
243 2 9.358765679723236 9.450990902171919 16.022751191592896 0 -2 1
423 2 15.098764386454521 1.2380699686533645 16.82396898741123 1 -1 2
557 2 6.907671687530125 5.673654737830315 16.082075324136824 2 0 3
658 1 14.641690600970595 7.744402573501855 15.216094301204286 1 1 0
384 2 -0.02508423742676281 1.449408679240346 20.22159449838641 0 -1 -1
947 2 9.280237809062756 6.482930896488371 15.121714377434047 3 2 1
91 1 10.022440030449527 4.114522086980409 17.003814757410247 -4 -1 -4
455 2 12.351070130961626 9.446797255483936 10.666850485207087 1 -1 2
825 2 15.21820228665342 2.982407869151834 17.99821388719874 0 1 -1
462 2 5.881127216690439 2.8104328209335954 10.75691089649511 -1 0 1
803 2 0.41613991817312385 3.6675655211448897 12.945111717849619 -2 2 -3
839 2 10.136820395683676 7.642685572116592 13.136638128884652 4 2 1
110 2 13.425756333962797 8.886621366170829 18.15751814335525 -1 0 -4
217 1 11.980779702175091 3.1213914261335263 18.554145713663285 -4 3 -2
489 2 20.066074523962374 4.821495809408832 14.832890685115393 0 -2 -1
555 2 15.030220185268956 4.875082451795151 14.241501369804602 0 -1 -2
972 2 18.77074451611842 3.5422151027232744 18.94998013520615 2 -1 -2
673 1 8.003900478991236 9.967439008992487 11.902646274435318 1 2 1
510 2 14.296465410035367 2.8635756998510873 14.41711059670813 3 1 3
361 1 20.485153095624327 9.191265319686492 14.175341327781148 -1 0 0
729 2 9.251764779269514 7.096748366284227 18.14216436853888 0 0 1
685 1 3.973409317298638 1.5410224288527856 19.527329255504846 -1 -1 -2
592 1 5.5312741565219 7.380672279948611 13.84829150941064 0 2 0
409 1 11.30969131876752 5.230492237904286 11.991935701788718 1 1 -2
328 1 12.445945720785378 6.052009492596514 15.809849212584382 2 1 0
383 2 20.27296207340536 2.8660829411914377 20.004037849769322 -1 -1 -1
831 2 8.598828524498488 4.198482267281447 13.618430008012481 -3 -2 1
1005 2 18.927299540048352 7.63467065013687 16.217247727225146 2 -1 0
999 2 10.678228970688085 0.9378778847072633 11.379951130912888 -2 2 1
1004 2 18.474633365400493 7.210939967576476 14.899283428966122 2 -1 0
109 1 14.35778400302158 9.240652981667044 18.20543554662877 -1 0 -4
814 1 13.936019483133665 9.959015327674116 13.558084176650988 0 -2 0
553 1 14.514652200811055 4.437523233329338 14.911258098443662 0 -1 -2
998 2 9.691190600269 1.7801273686736636 12.022462037340324 -2 2 1
598 1 10.282564419391647 3.9009221688994495 14.06675514969622 -2 0 -1
197 2 1.8908887107915968 8.035086522014517 16.72405177776798 -1 1 0
971 2 17.793776197389896 2.5213720115025384 19.816318782653873 2 -1 -2
241 1 10.278269256718934 9.318272393748698 15.919083779117775 0 -2 1
125 2 19.512139763642303 0.03502703723763307 18.97946207415865 1 0 -1
447 2 20.46167778456336 0.28348980634781545 13.177397069059241 1 -1 2
454 1 12.539297957453085 8.991092734678746 11.498495287383358 1 -1 2
556 1 7.431166261542991 5.967051974832256 15.298251449763892 2 0 3
992 2 18.137979461067243 9.49253994291496 17.50102058847729 0 2 -1
82 1 16.17515498726164 4.577478004573777 17.13595721305787 -2 -1 0
318 2 3.915043523876181 5.0047207364774255 11.90283271477382 1 0 0
771 2 2.130950512351814 1.670034360885171 12.742492648439416 3 0 0
143 2 16.052296428631372 6.335518734062252 17.875108402661574 -1 -1 -3
600 2 10.180004819609032 4.253388569835735 14.931099068723885 -2 0 -1
678 2 7.099431408223191 7.8745428859908255 17.570454983664682 0 -2 1
630 2 4.512939303007881 10.219551696752381 18.952979806772316 -1 4 -1
442 1 19.32047938128098 7.45635119213554 20.19636037715687 2 0 -1
660 2 13.882928645291901 7.136945863390109 15.274956786201612 1 1 0
460 1 6.399970534057698 3.6767116188988522 10.792997689188269 -1 0 1
492 2 5.074702611026533 1.5093146402752224 16.265936781783346 0 -1 0
473 2 8.601667096227656 1.1766274748757144 17.650105510802707 1 0 0
421 1 15.424783738336005 0.7923313987844922 16.02523112348487 1 -1 2
482 2 3.2456613758721433 5.975698111728508 17.401309138645487 1 0 -2