LAMMPS data file via write_data, version 8 Apr 2021, timestep = 1696000

1008 atoms
2 atom types

0.2136146414133594 18.185940358582332 xlo xhi
0.07616690568421958 22.494222094325956 ylo yhi
0.16625911439285548 19.33945688560541 zlo zhi
0.22433565906839623 -7.0616163239139915 -0.04720264802893144 xy xz yz

Masses

1 16
2 2

Atoms # atomic

1 1 6.557962257982642 1.0924973448266735 5.216207887729986 0 0 0
3 2 6.667872482393435 1.342103286370363 4.250063371568072 0 0 0
4 1 3.73426295029581 0.8204156151790716 5.109293466382205 0 0 0
6 2 3.531720852598931 1.1319630683601847 6.012994524815048 0 0 0
7 1 -0.5593137531431437 6.347365864229838 4.793974759764339 0 0 0
8 2 -0.38676836818402927 6.479570466057885 5.779909333155342 0 0 0
10 1 2.2511287670773292 6.604438085526365 4.7649245415816885 0 0 0
11 2 1.4353152010478216 6.987785365123401 4.3890849149042515 0 0 0
12 2 3.0625889177082444 7.198190344995906 4.635164050692217 0 0 0
18 2 5.603356248407178 5.416469300188872 1.459916638645087 0 0 0
25 1 4.779859818374287 6.474432221530328 7.2677600499298105 0 0 0
26 2 5.569733815770551 7.112874965004499 7.427863344338944 0 0 0
27 2 3.9075142980382798 6.889585708456401 7.5096724453814065 0 0 0
28 1 5.975776315746497 6.565941427675246 2.7109822625489404 0 0 0
29 2 5.636108889070884 6.133135649819632 3.475915106894363 0 0 0
30 2 5.299618689602315 7.185213318428607 2.3888774404056257 0 0 0
31 1 1.1400807163288968 1.087196390648101 2.594197037375144 0 0 0
33 2 1.0335717260591997 1.348828641046085 3.475792436406626 0 0 0
34 1 0.1446580652686731 0.9339703431722393 7.213008361399473 0 0 0
36 2 0.3235547053105142 1.6875682971334804 7.762441950637947 0 0 0
37 1 6.360577217540793 2.0638661724890524 2.413158648089657 0 0 0
38 2 5.595952075357025 2.6145044638456545 2.804861017420652 0 0 0
39 2 7.116958501929482 2.732826030449732 2.4560576742873583 0 0 0
40 1 3.838865646881271 2.630285532988121 7.398748896598909 0 0 0
41 2 4.789194013591549 2.858823472913076 7.353388988407795 0 0 0
42 2 3.3300641106607216 3.3211006490492387 6.8765616725949235 0 0 0
43 1 -0.12497035264959966 4.93516693247906 7.241748853196009 0 0 0
44 2 -0.7192414782152202 4.163226319764309 7.202819126879206 0 0 0
45 2 -0.3595380446594343 5.459925150026397 8.02869893355479 0 0 0
46 1 1.7295281960912852 4.552071164432968 2.9373397593242916 0 0 0
47 2 0.8034556577190758 4.387227328197579 3.16866861856478 0 0 0
48 2 1.8808387336500014 5.284351166493265 3.5835581404740946 0 0 0
49 1 6.617933852590645 3.390290282279656 6.697654631152006 0 0 0
50 2 6.096270656458273 3.9786939206485314 6.105672439358174 0 0 0
51 2 6.788928893942222 2.561899838544151 6.201794890360641 0 0 0
52 1 3.993222116460625 3.1934950818902488 3.7187354319706913 0 0 0
53 2 3.0960637200225922 3.4279452337000356 3.444508337942578 0 0 0
54 2 3.834875609426957 2.3424429555540556 4.213140314445417 0 0 0
57 2 -0.5185176025234227 3.327564081523252 4.0065963646601395 0 0 0
58 1 2.1925321423544304 4.190512385246085 6.331592006670251 0 0 0
59 2 2.4428824765677724 5.035919307668934 5.892013088873592 0 0 0
60 2 1.4274574700938456 4.44929557452894 6.806253041315338 0 0 0
61 1 8.560008670833364 7.369162526496778 1.8005626871266058 0 0 0
62 2 7.670905892612175 7.117672520414096 2.1933532247969545 0 0 0
64 1 2.404747706718314 7.4182996918064745 8.146712026989583 0 0 0
65 2 1.5504694921110787 7.684550377249267 7.780450882994975 0 0 0
72 2 3.7895339854051078 0.9695783428844454 1.1620663324518958 0 0 0
73 1 5.483832705735192 5.050042455168659 4.9892634096938115 0 0 0
74 2 5.126193184620485 5.519111861562282 5.752926400360265 0 0 0
75 2 4.7766263887562515 4.4106352889606475 4.622659541900719 0 0 0
76 1 0.6150354299271343 2.284670864831167 4.87227922692152 0 0 0
77 2 0.3678792100450435 1.70430037247614 5.642388659373307 0 0 0
78 2 1.1964297391544303 3.0391344570870356 5.254248069062096 0 0 0
91 1 8.325729398457518 6.569330475257177 4.97334367220611 0 0 0
92 2 7.908480249446198 5.840353114911293 4.473393451338261 0 0 0
93 2 9.319347994772937 6.69840785546723 4.887780021269854 0 0 0
115 1 10.276401268058933 1.250812623161245 2.7260822134401805 0 0 0
116 2 10.142990625484053 1.879024012504243 1.975822108922792 0 0 0
118 1 8.933730035876453 1.0670864997956562 7.475824952045575 0 0 0
127 1 8.669063725789462 5.011308778536454 7.173234430400566 0 0 0
128 2 7.972951687925202 4.286521630916815 7.036497446019648 0 0 0
129 2 8.50106049579731 5.68794397706097 6.50176658827176 0 0 0
130 1 10.724608006427227 5.08964903306941 2.5124185809461848 0 0 0
139 1 8.285455490674753 3.866070974916588 3.1235136597449773 0 0 0
140 2 9.085870328994167 4.356131656842693 2.8818048061278536 0 0 0
141 2 8.550756714802668 3.3660229438909157 3.917245740471825 0 0 0
153 2 6.02451108272289 1.228481899324394 8.876131826047772 0 0 0
160 1 9.630214248793015 2.6138038332316302 4.9709822946211295 0 0 0
162 2 9.98910473704678 2.1243575217479034 4.186997754815137 0 0 0
169 1 6.9411443993599296 8.80580549827196 4.60258487834801 0 0 0
170 2 7.528749528023449 8.06064339166367 4.806138484518229 0 0 0
171 2 7.059285743975354 9.479243224399134 5.37262631966755 0 0 0
172 1 4.124491609234494 8.176150848002605 4.68895360618571 0 0 0
173 2 4.093875529539092 9.016900027937842 4.1830605851836005 0 0 0
174 2 5.121722637202772 8.06522771146739 4.65140846394157 0 0 0
199 1 1.4894220883841611 8.653960101721479 2.585117564126106 0 0 0
200 2 1.2518758215406267 9.387567165791053 1.9803140173436062 0 0 0
201 2 1.0691478350274584 7.850706866968042 2.221201692179133 0 0 0
202 1 -0.05656994405933985 8.882380832548565 7.1764497580055915 0 0 0
203 2 -1.0274726978100444 8.888442256766197 7.407498184109695 0 0 0
204 2 0.01415437567180533 9.5618683095777 6.442519916935097 0 0 0
205 1 6.558917264456773 10.391375478836892 2.5198853441612865 0 0 0
206 2 6.7558757721377845 9.588067593072493 3.117627866788586 0 0 0
207 2 6.692120810033429 10.000630508598872 1.5984055288595143 0 0 0
208 1 4.068076218644064 9.945382993647998 7.005225317414718 0 0 0
210 2 4.0811776757186715 9.175876548452752 6.398925625774508 0 0 0
238 1 4.005422846118348 8.16708456515239 1.8712591664590021 0 0 0
239 2 3.0686929635337457 8.301272881182609 2.128471224875631 0 0 0
240 2 4.194839316884787 8.834948560963328 1.2042088166718508 0 0 0
244 1 0.7680133615144266 10.201819743354053 4.8476487858742185 0 0 0
245 2 0.9878839486885541 9.605044653479117 4.091487952002247 0 0 0
283 1 10.484800538227777 8.809194176427551 2.5720902452309398 0 0 0
284 2 10.206184482399546 9.2178972308721 3.4086386901656214 0 0 0
285 2 9.785998882002717 8.123951641820241 2.4266168174334406 0 0 0
288 2 8.470526011870932 8.63963923271107 7.523109597399043 0 0 0
319 1 6.755059450862253 7.859880949517501 8.10355304832096 0 0 0
329 2 9.637483229155324 9.670236617899857 5.765503724807296 0 0 0
330 2 9.208708490525536 10.699205798149517 4.586057761966874 0 0 0
14 2 4.892352424694221 4.980933910367983 8.658757086621238 0 0 0
66 2 2.7435405128217414 8.126661351295562 8.74188537231776 0 0 0
21 2 1.0171900568186207 2.4446782301227685 1.3662139935866806 0 0 0
132 2 10.945035175300891 5.8250322408465385 3.148356218333146 0 0 0
286 1 9.41283716616502 8.898153159351535 7.279798050097935 0 0 0
328 1 9.949804791688296 10.147798677517583 4.983375638533867 0 0 0
94 1 10.91835725309411 6.482310152395036 4.793506726073561 0 0 0
119 2 9.053830791377086 1.8867119953164295 7.9858106157622695 0 0 0
131 2 11.38471439993739 4.38747715922271 2.7376085091538416 0 0 0
161 2 10.346783153780326 3.1831318785938665 5.304977016058619 0 0 0
287 2 10.044233553101245 8.175954337354597 7.489379767222965 0 0 0
96 2 11.164929453787602 5.650938204816961 5.1878827419059395 0 0 0
5 2 4.678009520418856 0.5746500430557093 5.135583816664843 0 0 0
324 2 12.573520447960057 7.309119827845224 1.297056333101955 0 0 0
272 2 9.998196755793987 9.59826598399425 0.8791685257957826 0 0 0
323 2 12.16666988940327 8.38446868778155 2.3904182333199464 0 0 0
144 2 10.847305493689788 4.247924360101136 7.081556584754433 0 0 0
142 1 11.499200636649906 4.3548514199989645 6.4112972248805775 0 0 0
95 2 11.67569045537001 7.104016957686121 4.994662530783254 0 0 0
322 1 12.921826244075437 8.074658039870455 1.8215867205747491 0 0 0
246 2 1.5447988336818357 10.712469170948037 5.107886078184693 0 0 0
320 2 6.539752797583134 8.566956915884921 8.679117716306749 0 0 0
63 2 8.844847259914404 6.584273908654125 1.3097276951119659 0 0 0
321 2 7.297604764977247 7.222165764114673 8.672105083311836 0 0 0
276 2 9.781643688575036 10.254431170847097 8.638694917223521 0 0 0
192 2 0.17121391496549737 9.828077468712905 8.665305088076487 0 0 0
671 2 8.13788393498145 5.537763120248482 8.905990329157266 0 0 0
32 2 1.9984981709933742 0.695261985420826 2.3591813448219474 0 0 0
120 2 9.122668300101248 1.4371056331985352 6.62039229762952 0 0 0
80 2 6.858671058629399 1.82457901099991 0.8759066739878298 0 0 0
56 2 -0.9809925307900874 4.855037214623575 3.960988157187611 0 0 0
117 2 9.708262700528294 0.5744767300484103 2.4324044821032906 0 0 0
293 2 12.302429138247396 10.79408227913733 7.1346135162621405 0 0 0
237 2 14.658138866474545 8.047116211056887 7.595763884061143 0 0 0
585 2 3.4503816657648803 1.7076971141646433 8.822850495153553 0 0 0
35 2 -0.7350262229541139 0.5960418631005213 7.466119581095524 0 0 0
156 2 11.855481512839017 0.7833276056607925 1.9900852685636743 0 0 0
17 2 5.224536170934623 4.1852623103415345 0.4630185850048998 0 0 0
152 2 7.084012304691377 0.720825107084374 7.798344684936188 0 0 0
151 1 6.291591179586507 0.5156776472026663 8.29657704983347 0 0 0
219 2 5.941010457713464 10.332747562197001 7.0978864549222385 0 0 0
68 2 -2.383754789279655 1.2282775919127489 8.796786567830617 0 0 0
154 1 12.62170070948891 0.6350923362154067 1.410203283868465 0 0 0
290 2 15.701464768888881 10.87336003971265 2.544115655173185 0 0 0
2 2 7.170547763417451 0.32566706460545547 5.2716854916339715 0 0 0
9 2 -1.0178087057165146 7.141804281908761 4.499596314256724 0 0 0
189 2 1.9691488891523758 10.427833847412145 0.25343930603421944 0 0 0
753 2 4.238680744881414 9.534718071471497 8.842783410191503 0 0 0
13 1 4.637035672984548 4.617415015577927 9.528287491409648 0 0 0
133 1 15.621606644274635 3.438113621142934 6.201599217428533 0 0 0
777 2 6.1253205636673025 10.84295876085932 9.654928785170995 0 0 0
69 2 15.003536529961982 0.060676764968360775 7.903147769965818 0 0 0
146 2 17.499252775319718 6.25103894906579 0.9742931031657079 0 0 0
167 2 11.081827432786211 5.772369896335694 0.8686028933117407 0 0 0
55 1 -0.8445348449433386 4.005517382044065 3.389148063845 0 0 0
104 2 9.474567217562132 3.469986445988366 0.47972166965955637 0 0 1
694 1 3.8735513744242693 10.445986889894424 0.36493432817511867 0 0 1
134 2 15.279382501755068 4.202674985222054 5.579810590437942 0 0 0
15 2 3.6554825933422608 4.456144307954516 9.677900533641955 0 0 0
187 1 1.0008764780490864 10.251623109819956 0.3761341312326343 0 0 0
165 2 16.378110378235302 1.0260636332272157 0.8746512832087753 0 0 0
22 1 0.5009874448203557 2.6503240955978686 9.267420578474479 0 0 0
190 1 0.2994461616871204 10.199708393236207 9.56944449014805 0 0 0
254 2 15.510295727408074 9.305626526214297 5.388795830367967 0 0 0
587 2 -1.6863810404480493 6.793617377434692 8.96340302003196 0 0 0
255 2 15.2778110777495 9.098174363184688 3.922611907631828 0 0 0
114 2 15.933928586817332 6.723604158426245 2.2751454208167496 0 0 0
86 2 16.1546543161825 0.3640287778002451 5.184094677948188 0 0 0
253 1 15.443862334629967 8.564411515639595 4.731634664163983 0 0 0
24 2 -0.4288849203094848 2.8241483257352433 9.447337950548468 0 0 0
668 2 12.917610973630513 1.8350045844364578 8.866295284353033 0 0 0
16 1 5.769629022600342 4.989599048542633 0.6271196396757717 0 0 0
83 2 2.1152854240541696 5.286644586686664 1.5298350281815727 0 0 0
84 2 3.0138615282909846 6.562847581054247 1.0177259872555233 0 0 0
209 2 3.627554363447193 10.683738602286846 6.566049520326899 0 0 0
70 1 3.5591211163010628 0.29545095173964564 1.8550510762196628 0 0 0
302 2 14.715622738784896 10.69289752076088 6.977794238820988 0 0 0
67 1 -2.3012450270000735 0.2959223622798015 8.4947300344546 0 0 0
155 2 12.851606010336768 1.45054445178829 0.8884485552002859 0 0 0
148 1 11.206773146302167 7.147340381268883 7.974964709877831 0 0 0
149 2 10.838577292263668 6.205285940987 8.053908756475462 0 0 0
136 1 12.645765414094015 3.3623561629559333 3.51680033735294 0 0 0
143 2 12.354783203046665 3.9115299912675807 6.746846265999853 0 0 0
89 2 12.503769271412068 1.9017414598905835 4.379576337442406 0 0 0
258 2 12.469737616509018 9.235833667625005 4.674906284498148 0 0 0
88 1 12.688049244774364 1.0479486794588642 4.833758843506049 0 0 0
137 2 13.128558628780532 4.097294843975186 4.0386642508048105 0 0 0
256 1 12.764336673976597 8.409001224823065 5.0818274237575585 0 0 0
150 2 11.422400656777281 7.422993760945405 8.855667476564609 0 0 0
101 2 14.671045205572398 5.38827079722019 1.1889311265592521 0 0 0
113 2 14.342739219324075 7.146325869454093 2.248854076168891 0 0 0
138 2 13.291151952880373 2.9634795872170505 2.9339218522517263 0 0 0
111 2 12.941478862513103 6.800097519087904 7.096046650481252 0 0 0
294 2 12.775848756885283 9.36998705168525 6.732349792744962 0 0 0
126 2 13.10567072918152 1.7521362887663718 6.494971395606716 0 0 0
124 1 13.349715846885976 2.310431397138922 7.254927838960543 0 0 0
306 2 13.332342145866294 10.533414029602442 3.1203354514732773 0 0 0
220 1 4.159897281811114 10.949490848266006 3.7653741247854247 0 0 0
304 1 12.696532127517099 10.806797378814462 3.824591955772482 0 0 0
122 2 15.772922937668948 3.1181634356837886 2.765485633182305 0 0 0
159 2 14.129941396381318 5.777166300879126 5.61265059543949 0 0 0
90 2 13.623634814100766 0.9083426744752336 4.6866577647720815 0 0 0
112 1 14.989038612452033 6.48458948171396 2.45955972375806 0 0 0
158 2 14.571611627801904 5.829990350851751 4.026896502267413 0 0 0
292 1 12.924029971633196 10.030512630799073 7.408866165674244 0 0 0
157 1 14.353117396406661 5.217910060095251 4.832723503896654 0 0 0
291 2 15.312638876037449 9.546156087290473 1.8214272049561209 0 0 0
257 2 13.68186962914463 8.164735716330265 4.899675733383429 0 0 0
121 1 14.964150654200976 2.675103610667092 2.4431902549158977 0 0 0
123 2 15.227978563420285 2.3069634188813817 1.5485974643996232 0 0 0
109 1 13.835449757865925 6.475951993631111 7.03802471043221 0 0 0
289 1 15.015852359451396 10.213147817208116 2.542862786135088 0 0 0
836 2 12.739221963171708 9.332426167088622 9.22639806507829 0 0 0
110 2 14.061395931496927 6.024925691470286 7.84550607448288 0 0 0
584 2 2.609024000607669 0.45920734059031865 9.306764711807405 0 0 0
147 2 16.95600693657416 7.712636397486864 0.9615572429992065 0 0 0
87 2 15.664691807597622 1.2714244221437703 4.010701751553884 0 0 0
85 1 15.480058380133809 1.001751641378279 4.9179784161863 0 0 0
520 1 1.9705289067961185 5.111689674892444 9.686633865469144 0 0 0
125 2 14.23184517530424 2.748091398698193 6.998438177894958 0 0 0
693 2 -1.5132368251930002 10.50018244233847 9.676940273840197 0 0 0
311 2 10.695051372021155 11.081583197401237 6.1052466064035995 0 0 0
103 1 10.103046487439695 2.7372442108127055 0.41697395241149837 0 0 0
236 2 15.043068131399457 8.89738413362298 8.789070880343665 -1 0 0
518 2 7.547754245729154 4.844026295645758 0.5849802997148684 0 0 0
221 2 4.791793654277508 10.711287111220777 3.0128756641741523 0 0 0
145 1 17.370228211116828 7.046582432188428 1.5054829560823477 0 0 0
751 1 3.802977615947928 8.954638222235257 9.529834641004857 0 0 0
102 2 14.266761162989761 4.159950485969409 0.30786894661519393 0 0 0
235 1 -2.5611668269020536 8.26482973731969 8.159478817269736 0 0 0
301 1 15.506092547863814 10.910968922046896 6.396940096404196 0 0 0
521 2 2.115509568685834 5.771685913230781 8.986201049594754 0 0 0
667 1 12.487139456396912 1.502297356018405 9.68008826509876 0 0 0
135 2 15.69522598105561 2.7002266393690597 5.535323495215184 0 0 0
217 1 6.532866480692349 10.753872244028695 6.472663167953672 0 0 0
248 2 7.537343907211191 8.460390940996323 0.6295089724893888 0 0 0
780 2 13.151994846123555 9.40748670323282 0.7680704861691258 0 0 0
331 1 15.799476313457081 8.727007767888757 0.2669863137372953 0 0 0
99 2 13.009789313571675 4.637716735581734 9.035571849551404 0 0 0
23 2 0.8562210619255597 3.5830546511495056 9.22191312323795 0 0 0
524 2 -2.9625259616567314 3.2895716318357495 9.503162243815234 0 0 0
586 1 -1.035577588790284 6.238984445932633 9.425880942803431 0 0 0
399 2 8.335397834221565 0.10257232033189362 0.9437834976633056 0 0 0
82 1 2.4995099818449282 5.773795496218702 0.7489067468476462 0 0 1
775 1 6.698558844248554 10.01457643023217 9.716611571912814 0 0 0
583 1 3.203242739840642 1.2081103988252748 9.624821567340538 0 0 0
606 2 10.211551314037557 3.9531194587915444 9.4972875474983 0 0 0
486 2 11.096241703160361 0.22692618775724335 8.854889320136206 0 0 0
523 1 -2.2574708669427617 2.6942774402590404 9.684989388823489 0 0 0
274 1 9.564376536110812 10.600785503940987 9.57845861475489 0 0 0
97 1 13.891163663418222 4.841932303046342 9.353038852653441 0 0 0
100 1 14.813972582577614 4.973689305112832 0.33037918149293277 0 0 0
517 1 8.47601911763109 4.964062313517354 0.27586443516144665 0 0 1
604 1 10.773624414727381 4.776794024350797 9.423324994275864 0 0 0
776 2 7.60754658794791 10.361574293708617 9.59862608565315 0 0 0
163 1 15.936962911830701 1.6503419730589135 0.31452819019104417 0 0 0
19 1 1.2109935401187597 2.751124028190204 0.5008536701532668 0 0 0
218 2 7.269685870905695 11.067529113397878 6.961087406521327 0 0 0
106 1 9.134856265657373 2.545299906503778 9.728167328227652 0 0 0
696 2 4.49079807131829 11.197838229335929 0.2823437663691262 0 0 1
305 2 11.939541304770279 11.165741317673847 3.335932562581274 0 0 0
20 2 0.759557053533541 3.5863640466038156 0.4057863373976822 0 0 0
224 2 -0.18487400341619137 11.22783121545256 3.7065354239435755 0 0 0
526 1 4.038997436491417 2.547821519986382 0.16635635893430323 0 0 1
571 1 -6.0450827566892915 0.4892842445045095 17.912457609232174 0 0 0
620 2 6.262427050635379 0.6083383364560828 12.063717698675193 0 0 0
669 2 12.385954821870659 2.265591189996912 10.321317868662225 0 0 0
655 1 3.0714928691921064 0.3077162827517994 17.818464129924735 0 0 0
740 2 -5.714839835468709 6.813044451324007 18.98106431742421 0 0 0
810 2 8.818976823619483 11.186330373200713 12.23611835576259 0 0 0
808 1 9.384118265217209 10.850310036211646 12.972680552747187 0 0 0
752 2 3.4652707230544855 9.640653521652027 10.175258273575025 0 0 0
601 1 10.379885323766352 4.904205665415204 18.985259412278594 0 0 0
98 2 13.609444554663392 5.573186466243933 9.943552383881899 0 0 0
658 1 9.246631915351532 0.41677764836794334 11.515921570548853 0 0 0
191 2 0.2278440624876017 9.437692170510521 10.21531889092475 0 0 0
749 2 -2.2665988402591863 10.2697219035977 15.17089466610607 0 0 0
527 2 -2.950546142434969 2.26052135894769 18.40003795918219 0 0 0
728 2 -3.626050470755887 11.205588482029302 13.615938105290532 0 0 0
509 2 -0.22726242904017896 0.37042338862142904 14.433703141855869 0 0 0
797 2 10.48853990887632 10.609732869616916 17.22735584883808 0 0 0
986 2 13.31245455963022 0.20865057610892138 10.599768222883753 0 0 0
505 1 3.3216644731628677 1.1981470056510408 13.82371200656952 0 0 0
506 2 3.4509627095970075 1.7919313220712254 14.590844136829633 0 0 0
537 2 -1.193030972651794 1.3284857524747402 12.03058759599548 0 0 0
508 1 0.48525186663535286 1.0255661194697918 14.497074027239908 0 0 0
835 1 12.242439764031154 8.86509698576133 9.902275748463666 0 0 0
510 2 1.3861679681498673 0.679707056861652 14.391373733708289 0 0 0
511 1 -3.9473672983042807 6.445947370605215 14.405388221520136 0 0 0
512 2 -4.060848265651916 5.690650243099395 13.770403435741184 0 0 0
513 2 -4.119982787606934 5.930212217896381 15.208959581145965 0 0 0
514 1 -1.283456347355079 6.360443514306608 14.167344081344446 0 0 0
515 2 -1.1411165061722537 5.482715903984999 14.575121273363102 0 0 0
516 2 -2.2381016039777157 6.53592848367292 14.316117064723139 0 0 0
608 2 5.681394036661472 3.2997991109662177 9.84904391830348 0 0 0
519 2 1.281188297149641 5.249005840354523 18.526038468948677 0 0 0
828 2 8.581204491873763 8.241236955176541 11.26452763278555 0 0 0
522 2 1.8559923260297584 5.67112679480601 10.482879635446414 0 0 0
691 1 -2.5164994303107187 10.48895849899891 9.75655591056941 0 0 0
732 2 -0.8755205176931423 11.034332640978542 17.115695093612207 0 0 0
249 2 0.2763586656353403 9.195550789897258 18.46386330828555 0 0 0
798 2 9.32886129435302 9.545605853722419 16.680204419319136 0 0 0
779 2 5.899437925629448 9.48539240204517 18.441977156444395 0 0 0
529 1 1.0941796893488376 6.43949611850325 16.93863866458259 0 0 0
530 2 1.199346968729131 5.835058925616979 16.201401595480274 0 0 0
531 2 0.10809743244307451 6.6111508673321415 17.03714004904482 0 0 0
532 1 1.9400500600726214 6.474316269072801 12.041038484629011 0 0 0
533 2 2.768171495207155 7.027121313435677 12.018229679080683 0 0 0
534 2 1.8743076220437866 6.182202213037212 12.93019806505244 0 0 0
535 1 -2.115007564501733 1.5357448976530168 12.114808150681446 0 0 0
816 2 7.084701999191912 10.847644598167221 15.552156052585284 0 0 0
612 2 5.0140895259865985 3.0007268118910178 18.91435634875987 0 0 -1
538 1 -3.2632783112197066 1.307348346348414 16.975363259203345 0 0 0
81 2 -0.44992697531630244 0.6528316746471424 18.95432639831679 0 0 0
540 2 -3.139603512373999 1.8457878545893667 16.105949905918543 0 0 0
541 1 2.789992407746535 2.808570258838799 11.990741720408709 0 0 0
542 2 3.1573259859786647 2.0917787600402287 12.621811498089153 0 0 0
543 2 2.8078219678043954 2.3584418418601434 11.090748774628059 0 0 0
544 1 0.69804994907477 2.560736343781076 16.862005978799527 0 0 0
545 2 0.3045704093837768 2.1645059647266445 17.66576577311135 0 0 0
546 2 0.5055081051849953 1.9209328339066045 16.10473795335743 0 0 0
547 1 -3.7715205956372255 5.011694641696082 16.90331108475354 0 0 0
548 2 -4.508443774249735 4.285798362517757 16.966231895034014 0 0 0
549 2 -3.8027341440924625 5.293456831653224 17.85062805331137 0 0 0
550 1 -1.4048819895280604 5.098862071245498 11.78382642955506 0 0 0
551 2 -0.9197025014998904 4.2992523143217865 12.056950406214108 0 0 0
552 2 -1.462406466337561 5.718176845923959 12.543394840491226 0 0 0
553 1 3.0883985569368453 3.448813836765442 15.762350780692438 0 0 0
554 2 2.308682568506172 3.2423268122356763 16.32545560413863 0 0 0
555 2 3.7645988192591506 3.970718815775988 16.15966560747835 0 0 0
556 1 0.20000389418012177 3.203233034575554 12.905810727439299 0 0 0
557 2 1.0579825245849896 2.9455207291578205 12.550687544392384 0 0 0
558 2 0.22686316728781086 2.5384313730709804 13.622899396912091 0 0 0
559 1 -3.993343694194583 4.244649476665452 12.697367328635258 0 0 0
560 2 -3.183221663417656 4.285727996840956 12.203718340069129 0 0 0
561 2 -3.822589438106913 3.646105285561651 13.446084906680381 0 0 0
562 1 -1.175843453813814 4.331157645121369 15.925345132475817 0 0 0
563 2 -0.6024340563234636 3.6698010439461317 16.38743022965691 0 0 0
564 2 -1.9709752953678286 4.436967532442112 16.473238212636637 0 0 0
565 1 4.583223246277001 6.98248774562094 11.264112840923568 0 0 0
566 2 4.247496701142134 7.739378358069377 10.748377699601356 0 0 0
621 2 7.784796512725786 0.9006534173155576 12.188721970381273 0 0 0
568 1 -1.590277331442179 7.015582404964622 17.905921846711554 0 0 0
603 2 10.347124067425243 5.222748572078722 18.05878795681857 0 0 0
570 2 -1.028550081185315 7.7085523653128805 18.37460653822398 0 0 0
672 2 8.773334587554084 6.51615096144432 10.00957737865973 0 0 0
572 2 -6.062449890202574 1.2840080247136063 18.439344790872667 0 0 0
827 2 10.121498217488417 7.856488945733568 11.085792547665566 0 0 0
714 2 1.513755900248598 10.12541470226929 16.660520098598465 0 0 0
576 2 0.6328331883724633 1.0728606121067137 10.545581888283861 0 0 0
577 1 1.5553020466972276 5.289179917265297 14.34397023123191 0 0 0
578 2 0.9630263396753662 4.57237396646237 13.935108596766183 0 0 0
579 2 2.256509563462089 4.7607165430724345 14.72025144554372 0 0 0
580 1 -2.73832293236716 2.564132602998022 14.504508859479742 0 0 0
581 2 -2.5134410724344383 2.1580629435966037 13.655892913505438 0 0 0
582 2 -2.0020084939449734 3.2189930938254125 14.666463026397476 0 0 0
333 2 8.270812126508797 8.090991297549703 18.785217356421924 0 0 0
794 2 12.527733974990948 10.738572528829375 12.630625449974067 0 0 0
589 1 12.276945085641572 1.2856752707778045 14.305115443923931 0 0 0
569 2 -1.6090934962400638 6.306587820106475 18.60893735648452 0 0 0
591 2 12.53166407291538 2.0413658484297947 14.82955475145488 0 0 0
592 1 9.450396741391899 1.5222183218966723 14.603866301136188 0 0 0
826 1 9.29091869341496 8.077098300013077 10.641246119973973 0 0 0
594 2 9.226152280192071 2.221889894896943 13.941925781346182 0 0 0
595 1 4.6674652982232425 6.606950256880097 14.651772628514326 0 0 0
596 2 4.833864937928036 6.303832262517151 15.570359867455519 0 0 0
597 2 4.595254607071051 5.8227249147193305 14.157325905335878 0 0 0
598 1 7.556615849078091 6.627617767330065 14.478542762665857 0 0 0
599 2 6.605858292392961 6.703421785168803 14.671325678057997 0 0 0
600 2 7.621812365661311 6.235644645570946 13.620946682977271 0 0 0
166 1 4.495321248603559 6.2170319179835305 19.304091030782875 0 0 0
590 2 11.299750301855088 1.2154565174302578 14.532029031168639 0 0 0
834 2 5.617207463565451 10.41261661084753 14.096080713877877 0 0 0
605 2 10.905842573920019 5.060761321533583 10.311466807369955 0 0 0
832 1 6.174108905219645 9.787317890902171 14.540427356386521 0 0 0
593 2 8.967995571401921 0.7099659784654044 14.504767645156932 0 0 0
825 2 2.791169226960831 8.679870528050596 18.096072129235292 0 0 0
609 2 6.365573345737382 2.303248114226191 10.855711785951263 0 0 0
168 2 3.863648172547992 6.683470959551392 18.74837974117604 0 0 0
611 2 5.927267245781569 2.1039982414137404 17.956501386862843 0 0 0
613 1 10.250152557520572 6.402419791912316 16.74343426452797 0 0 0
614 2 10.942692701177533 6.946265665823947 17.294877918522637 0 0 0
615 2 9.3589681628023 6.649516384274283 16.93896350800934 0 0 0
616 1 11.229561771261519 6.1039526014899455 11.767314794665417 0 0 0
617 2 11.087883231547599 5.687124526141727 12.610874785958764 0 0 0
618 2 12.165201514544712 6.441250222470841 11.75477578129761 0 0 0
619 1 6.874041559153672 1.2652449904567076 12.37314147193943 0 0 0
108 2 8.129091680194882 2.687959419470216 9.811284501129105 0 0 0
610 1 5.937567344849281 2.750661383815581 18.73497620614383 0 0 0
622 1 5.3159172879262915 1.0583917461180783 16.75091424023366 0 0 0
711 2 2.1086593888820895 10.420377814001997 12.001134576951339 0 0 0
624 2 5.365171800380664 1.5542688171201404 15.873159736847702 0 0 0
625 1 11.661737284909934 2.91652498095577 12.170845288099803 0 0 0
626 2 12.015907471032262 2.2799760772320603 12.783021343185595 0 0 0
627 2 12.306888600769362 3.6704402343908784 12.169819198831778 0 0 0
628 1 9.635789376297332 2.6652281730905356 17.091786750708433 0 0 0
629 2 9.406174762390153 2.254239901906984 17.918611075688354 0 0 0
630 2 9.559806042270855 2.11643107808346 16.313399801537518 0 0 0
631 1 5.095495071691308 5.043881603251444 16.842272109014615 0 0 0
632 2 5.075673128801374 5.272663830191925 17.784302324720855 0 0 0
633 2 5.8870939007756755 4.453225138935762 16.735797819386967 0 0 0
634 1 6.948182456381843 5.385058802728514 12.091971467614698 0 0 0
635 2 6.125940472032075 4.864182305908158 12.333248253257956 0 0 0
636 2 7.161208627352536 5.53771276897403 11.183353543712185 0 0 0
637 1 12.235658292144068 3.354764528797558 16.210082351389755 0 0 0
638 2 11.70313438690682 3.9720794475918577 15.64629672014634 0 0 0
639 2 11.55715979748878 2.8148811337033868 16.6401146960277 0 0 0
640 1 9.145862018254526 3.5337361086592622 12.925612020291515 0 0 0
641 2 8.401263655962438 4.098879666800044 12.503442598646188 0 0 0
642 2 9.722024025523467 3.21487586587026 12.240023261818715 0 0 0
643 1 4.646460115087717 4.355847156388018 13.08356244219662 0 0 0
644 2 3.910941560463774 3.866647337524009 12.654959506485467 0 0 0
645 2 4.886896155819033 3.673076339901491 13.73375515390656 0 0 0
646 1 7.498070193258514 4.16268076135493 16.14370451873981 0 0 0
647 2 8.254957454601344 3.731371962258848 16.63411833750081 0 0 0
648 2 7.756867520211796 4.971320616232011 15.804112219563974 0 0 0
649 1 13.845305481452334 7.008551134129559 10.980366584558839 0 0 0
650 2 13.322758529520566 7.727452010273967 10.592026220073528 0 0 0
651 2 -3.5181349950739866 7.51478690355414 11.592411882154524 0 0 0
652 1 7.666381755225692 7.068276519696571 17.537037646160492 0 0 0
653 2 6.801237705852399 7.515759310584343 17.488292925386705 0 0 0
654 2 7.57205576874282 6.293959631113247 18.150266029097004 0 0 0
536 2 -2.7296689144703543 0.7674166969566532 12.001071561536591 0 0 0
778 1 5.973024701913172 10.035585821971196 19.251562283978075 0 0 0
661 1 10.901167595200523 5.171569981819233 14.352955600908928 0 0 0
662 2 10.566506875452669 5.819843556401199 15.027028569338354 0 0 0
663 2 10.08009178432318 4.605939315327979 13.892328225767729 0 0 0
664 1 5.9057812647221555 2.5296112895274003 14.554200377726284 0 0 0
665 2 6.707883932505026 2.8963453313821956 14.976484561525275 0 0 0
666 2 6.2719849478705605 1.9824977859442736 13.805213723772953 0 0 0
723 2 3.7720723076650375 11.08446763355861 16.77715043324067 0 0 0
607 1 6.428274379772255 2.648994388457619 9.974669414728996 0 0 0
721 1 3.014757058806247 10.66108657703975 16.30594367283639 0 0 0
673 1 2.865197135153833 8.580285338270764 14.511309715926465 0 0 0
674 2 3.529066746344149 7.852997152403247 14.49333286198926 0 0 0
675 2 3.1281578522549753 9.212193293500924 15.195386683145337 0 0 0
676 1 0.13080590475339898 8.519082403910536 14.588293194746779 0 0 0
677 2 1.0750390594685864 8.258363726680894 14.626685243418445 0 0 0
678 2 -0.304741594995421 7.656025537018307 14.521738011779567 0 0 0
525 2 -2.4115443777252223 2.3484820311566352 10.55709143174229 0 0 0
79 1 0.13983282715570894 1.4132481189996786 19.233381620005762 0 0 0
539 2 -4.197652008869315 1.0757229942036428 16.94569323379536 0 0 0
807 2 12.1490259990694 10.00354022603905 15.649339282642172 0 0 0