LAMMPS data file via write_data, version 15 Apr 2020, timestep = 26560000

576 atoms
2 atom types

3.1027599365696368e-01 1.7609725006306135e+01 xlo xhi
1.0527499365708870e-01 1.7404724006306260e+01 ylo yhi
4.5527599365714444e-01 1.7754725006306316e+01 zlo zhi

Masses

1 16
2 2

Atoms # atomic

364 1 1.0058365743488109e+00 5.8000944459945503e-01 3.9676547066444097e+00 2 3 -3
369 2 3.9968859946294586e+00 3.7774529208694130e+00 1.3865481467162963e+00 -5 -2 0
367 1 3.1537007731065798e+00 4.2434854938899713e+00 1.4053546981653431e+00 -5 -2 0
339 2 2.1668335800765197e+00 3.1852546349009421e+00 4.8212466474716442e-01 0 0 8
275 2 1.1515077351177645e+00 2.1669819904636802e+00 4.7172949349243245e+00 -5 0 -2
453 2 6.0102863778226645e-01 5.6022831140225893e-01 2.3006028819587190e+00 -3 13 1
451 1 3.8017194969328716e-01 6.2035448338076327e-01 1.3613728100610389e+00 -3 13 1
261 2 4.6865590662755849e+00 2.2087998159472892e+00 4.1496607748803669e+00 -1 0 2
259 1 4.9563119915645704e+00 1.4114291616799182e+00 3.5466945163493260e+00 -1 0 2
574 1 6.6629587094362650e+00 1.5018050831606840e+00 1.2510699762534112e+00 -3 3 -4
575 2 7.4574590126378872e+00 1.5198292426245539e+00 1.8099086257564212e+00 -3 3 -4
260 2 5.3364102099780384e+00 1.6425309826651815e+00 2.6226891130918011e+00 -1 0 2
576 2 6.3608521991567581e+00 5.1933563918058301e-01 1.0763540638109674e+00 -3 3 -4
496 1 8.1093637350671361e+00 1.8789702134726451e+00 3.5183872704510866e+00 -2 4 -1
498 2 8.2717668149345744e+00 1.2354329593351654e+00 4.1824546412090307e+00 -2 4 -1
497 2 8.0314850406745837e+00 2.7540972566590183e+00 3.9500148721338233e+00 -2 4 -1
482 2 6.1327227144809386e+00 2.9696596973431189e+00 7.8190346960137003e-01 -7 -3 5
544 1 8.1886679192352840e+00 4.3783989468855138e+00 4.2332034175183564e+00 0 3 0
481 1 5.7369194776265129e+00 3.7871225168451672e+00 4.6117238442359820e-01 -7 -3 5
252 2 3.1826808749869722e+00 7.1774096228564606e+00 4.8538490853248550e-01 5 0 3
420 2 1.8728462700003248e+00 4.9605213230404743e+00 3.0590967405516669e+00 3 5 3
418 1 1.2878895461581377e+00 5.2208441115486899e+00 3.8377248928403809e+00 3 5 3
176 2 3.0417235799819062e+00 8.0008658325207858e+00 2.7980103199081610e+00 -2 -5 -3
175 1 3.4293645813559874e+00 8.1853022998747527e+00 1.8954234770541358e+00 -2 -5 -3
11 2 1.9470758328959470e+00 6.8129677866866754e+00 4.1494989486021412e+00 8 -1 2
10 1 1.9680312973428593e+00 7.8022591614278864e+00 4.2144143334732087e+00 8 -1 2
177 2 4.4158228693853019e+00 8.1336223753818668e+00 2.0584493904434269e+00 -2 -5 -3
368 2 3.2918764693547860e+00 5.0413994373433813e+00 8.3458014342026410e-01 -5 -2 0
289 1 4.4166034401820049e+00 6.1200189645912166e+00 4.3314751278492034e+00 3 -1 -5
419 2 3.7679600594456092e-01 5.4852108025366126e+00 3.5029885202682753e+00 3 5 3
545 2 7.7292132036325825e+00 4.8841010642183740e+00 3.5146140459581621e+00 0 3 0
290 2 4.9861729515817146e+00 5.8821055099815425e+00 3.5586401790677438e+00 3 -1 -5
9 2 6.2691652481004683e+00 4.9186993847756950e+00 1.7341406752782864e+00 5 1 5
8 2 6.5433926219396348e+00 6.4832639381391965e+00 2.1317085626275158e+00 5 1 5
7 1 6.6542737472526889e+00 5.5882310704956311e+00 2.4074367768345404e+00 5 1 5
394 1 6.2795109292631794e+00 8.2069520436887267e+00 2.3492470059147630e+00 9 0 0
468 2 8.8495368323398651e+00 7.8818107870612844e+00 3.0998737603304556e+00 1 -3 -1
378 2 7.3580731375616037e-01 1.2548368177172039e+01 2.5699909557989637e+00 -5 -3 -2
461 2 2.9116767434356574e+00 9.7053145213094698e+00 1.6100270176014901e+00 -1 9 2
144 2 5.1860621254264694e-01 1.0934984237044993e+01 1.5877378399633801e+00 -2 -1 3
229 1 4.5558058312003444e+00 1.2460458576704299e+01 1.5475520550861301e+00 3 7 3
230 2 4.5750240192165359e+00 1.2190167970908799e+01 2.4647493022426059e+00 3 7 3
458 2 8.2123346691927990e-01 8.9665957789878306e+00 4.6952295424026742e+00 7 2 -4
121 1 4.5789272287358784e+00 1.2376543559944110e+01 4.4526534439734817e+00 -4 1 0
377 2 1.6117448829905590e+00 1.2644481084607444e+01 3.9383828205907832e+00 -5 -3 -2
460 1 2.4043782856769811e+00 1.0503486146048932e+01 1.3790167709319539e+00 -1 9 2
462 2 3.1941875641800839e+00 1.1143249717951736e+01 1.4900580207159970e+00 -1 9 2
486 2 8.6749633686436081e+00 1.1745605234655445e+01 3.1672182075277346e+00 -4 0 -2
395 2 6.5145274756579816e+00 8.8334422409521007e+00 1.6490156513345615e+00 9 0 0
396 2 6.3225902970191683e+00 8.7742221526560247e+00 3.1199620760394025e+00 9 0 0
399 2 5.4903223238443255e+00 1.0780785816778309e+01 4.7106587336153938e+00 3 0 2
397 1 5.8827494483065825e+00 9.8947075047570063e+00 4.7038971138677708e+00 3 0 2
95 2 5.9990170652685446e+00 1.2459295975402583e+01 6.9213908559264836e-01 -4 -1 -7
365 2 1.8245364086183806e+00 1.7342317025477293e+01 3.8952965846746728e+00 2 2 -3
282 2 3.9778223064345544e+00 1.7394338298890460e+01 3.7484285068294123e+00 0 -1 -6
376 1 1.3792271491390755e+00 1.3155833911072264e+01 3.0856181971919594e+00 -5 -3 -2
231 2 4.2607250482371271e+00 1.3366729874916963e+01 1.6496868989341467e+00 3 7 3
212 2 2.6850704653273638e+00 1.4609225267680390e+01 1.0288653576228279e+00 0 -4 -3
280 1 3.4138537687789641e+00 1.6561235179509623e+01 3.9397583136134395e+00 0 -1 -6
281 2 3.4814624523905997e+00 1.6026182184928530e+01 3.1528447751402302e+00 0 -1 -6
211 1 2.9908009207329034e+00 1.4731698570544133e+01 1.9101361604031817e+00 0 -4 -3
213 2 2.4533893701420166e+00 1.4181096311622335e+01 2.4962570316176365e+00 0 -4 -3
366 2 3.8929201674189462e-01 1.7289954838516387e+01 4.5461757434213297e+00 2 2 -3
310 1 8.2954416939749613e+00 1.3441819039281370e+01 3.9095495058472443e+00 -3 2 1
336 2 6.8119375015208963e+00 1.4334538394394450e+01 3.6582482481217733e+00 -3 0 3
356 2 5.9442740876263382e+00 1.5901613106020823e+01 1.9677714877614598e+00 1 -2 -6
334 1 6.0136381858302350e+00 1.4930518459263483e+01 3.4040777045938326e+00 -3 0 3
335 2 6.0413367459696810e+00 1.5595594472930806e+01 4.0788067688588896e+00 -3 0 3
355 1 6.1224992903446411e+00 1.6268829033204227e+01 1.0457735466238653e+00 1 -2 -6
141 2 8.7432267251346847e+00 1.5064554695214333e+01 9.9136173345572487e-01 -4 -1 -1
357 2 6.8181595746609149e+00 1.5724914304622661e+01 6.1989309118198910e-01 1 -2 -6
276 2 1.2162687559567915e+00 3.7724439369053879e+00 4.7888810082194961e+00 -5 0 -2
268 1 4.0417412824576875e+00 3.4403585733309008e+00 5.0409461681751484e+00 10 5 9
270 2 4.0799447948155994e+00 4.3817358835334819e+00 4.8329419468238743e+00 10 5 9
269 2 3.1050094453835912e+00 3.2209763809221847e+00 5.1244973145927384e+00 10 5 9
207 2 1.9774694679348757e+00 2.8226482963407635e+00 8.1338146377076210e+00 -3 3 -1
274 1 1.3697832735610853e+00 2.9380014532581598e+00 5.2748170084114143e+00 -5 0 -2
205 1 1.1310333178439924e+00 3.1157712877763108e+00 7.7597490939577130e+00 -3 3 -1
206 2 1.0707812025329262e+00 2.8457134668298663e+00 6.8271069894212921e+00 -3 3 -1
324 2 5.3020478369895399e+00 2.9171138823405038e+00 9.0837726074402951e+00 4 6 -2
5 2 6.7797092630447917e+00 1.2671920143930754e-01 5.9923576366883484e+00 1 4 -2
6 2 5.8481123262535339e+00 4.5470271781662386e-01 4.8712663556912199e+00 1 4 -2
550 1 8.1557356620643358e+00 1.1014676052132240e+00 6.4470827828735500e+00 4 0 7
471 2 7.0488352834899786e+00 3.9545749667474541e+00 5.7234492173682279e+00 -6 -2 -1
552 2 7.6275937299677636e+00 1.9108086990415272e+00 6.6120274107567791e+00 4 0 7
469 1 6.5155413843465890e+00 3.4642304379913580e+00 6.3105223328048003e+00 -6 -2 -1
470 2 5.6015883955226524e+00 3.4273676654438336e+00 5.9157079330386706e+00 -6 -2 -1
341 2 5.1223252640343029e+00 3.6809985142897955e-01 8.6483240487532793e+00 0 2 3
455 2 5.7950113514745105e+00 4.3839641819139130e+00 7.5118751310392851e+00 -1 0 -3
551 2 8.5636138963802679e+00 9.1324745681296871e-01 7.3644881814416348e+00 4 0 7
12 2 2.5664930283555862e+00 7.9838219594959865e+00 4.9531033529035646e+00 8 -1 2
284 2 3.7193530057526347e+00 6.9393295237038464e+00 7.1541895751046365e+00 2 -3 0
285 2 2.6781468540197308e+00 5.9997812507554382e+00 7.8245301100537636e+00 2 -3 0
283 1 3.5969096268716267e+00 6.3703041038890840e+00 7.9493448434383893e+00 2 -3 0
100 1 9.1406988768155062e-01 5.6042660363053489e+00 8.2942456687465089e+00 -2 2 5
102 2 9.5720228647720729e-01 4.6392232453045219e+00 8.0278307312246291e+00 -2 2 5
82 1 3.9275006530237104e+00 8.6232576929101814e+00 6.2060822856408979e+00 -1 -1 3
532 1 8.6888064745881977e+00 5.8624695705813679e+00 7.7804204829473491e+00 3 4 5
511 1 8.8481131401206667e+00 8.4544254011921449e+00 7.9981507177291080e+00 1 0 -6
533 2 8.5849235918680513e+00 5.6741748856745922e+00 8.7254948257840663e+00 3 4 5
454 1 5.5503172124554139e+00 4.6055354123654171e+00 8.4673617008668529e+00 -1 0 -3
456 2 4.8219554343464468e+00 5.2260854171804949e+00 8.4755436970034594e+00 -1 0 -3
291 2 5.0125248821228272e+00 6.4822441923105565e+00 4.9885833207687877e+00 3 -1 -5
434 2 6.7544483371771467e+00 6.2242404549376005e+00 7.0925302132750341e+00 -5 4 -1
435 2 6.2524180199061981e+00 7.6409611498418686e+00 7.0040360204711538e+00 -5 4 -1
433 1 6.3437712039598875e+00 6.8348378138473329e+00 6.5186491242505387e+00 -5 4 -1
120 2 7.9215450585646989e+00 6.7911466613302656e+00 5.2957363432194464e+00 4 -4 2
118 1 8.6457150495113613e+00 7.3758811582371173e+00 4.9438908966649446e+00 4 -4 2
512 2 8.7308194517062461e+00 7.5108556159601045e+00 7.8452845935199917e+00 1 0 -6
123 2 3.7511373200413796e+00 1.2108301227815359e+01 4.8750293389137527e+00 -4 1 0
521 2 1.3197091123242257e+00 1.1108957054801815e+01 5.1431492419749221e+00 4 2 2
520 1 1.8958025951866306e+00 1.1894056266707532e+01 5.2657946726631906e+00 4 2 2
84 2 4.5461132755445384e+00 9.1455673296933888e+00 5.6511158438940994e+00 -1 -1 3
417 2 9.7399897166753291e-01 9.0356522649816231e+00 7.9265922487843188e+00 1 0 -1
457 1 4.3458933234072561e-01 9.5895798849032161e+00 5.2865721633517584e+00 7 2 -4
273 2 2.3000320632635507e+00 1.1046411299553696e+01 8.0160029751870319e+00 6 -1 1
271 1 2.3910564255277764e+00 1.0100258934913308e+01 8.2616494035340882e+00 6 -1 1
522 2 1.8885545765605212e+00 1.2217690346710967e+01 6.1947088860056843e+00 4 2 2
83 2 3.6490754317894050e+00 9.2315270941961369e+00 6.9681410618380566e+00 -1 -1 3
447 2 2.3584438452406156e+00 1.2815402968160175e+01 8.7522814403436531e+00 0 5 8
445 1 2.0288485307491086e+00 1.2678776721173850e+01 7.7943065830904494e+00 0 5 8
422 2 8.7078484531346554e+00 9.0753417799522502e+00 5.2514633480917325e+00 -1 3 2
398 2 6.7869137576077652e+00 1.0057708317137241e+01 4.9421932788653624e+00 3 0 2
421 1 8.6729005971715125e+00 1.0045396224981765e+01 5.2947675198408222e+00 -1 3 2
513 2 8.0210148785530357e+00 9.0054634467112340e+00 8.0342865538857264e+00 1 0 -6
157 1 5.7312182947248989e+00 1.2295191274151211e+01 8.6201261489293994e+00 -4 4 -11
159 2 5.6984101103902987e+00 1.2920859119572098e+01 7.8775318793501929e+00 -4 4 -11
554 2 6.3049330038172497e+00 1.0636906678395512e+01 8.0740759972241349e+00 -1 4 8
553 1 6.6007893638662409e+00 9.7059414196208067e+00 8.1520805753675667e+00 -1 4 8
555 2 6.1339681320374382e+00 9.3295296189947017e+00 8.8864181478843385e+00 -1 4 8
26 2 8.8785293654919748e+00 1.1445827384223065e+01 8.0625652694428638e+00 -1 -6 1
342 2 4.5155065774191012e+00 1.6593622974431206e+01 7.6495941744342204e+00 0 1 3
279 2 6.6326818832398793e-01 1.5934339377514814e+01 7.9669283285971808e+00 -1 -1 3
490 1 3.5656451702074743e+00 1.5650871637739359e+01 6.5268597476670465e+00 1 -1 -8
446 2 1.2575687187072937e+00 1.3279646388810555e+01 7.7054963806245933e+00 0 5 8
491 2 3.6586502111407948e+00 1.6052744479505940e+01 5.6282157023219357e+00 1 -1 -8
492 2 2.6309033874193957e+00 1.5379872741202536e+01 6.6314425158212611e+00 1 -1 -8
277 1 5.0893741068403775e-01 1.5293359422939020e+01 7.3220242815102630e+00 -1 -1 3
93 2 6.2800837415405804e+00 1.4314062786078992e+01 6.4652845367351910e+00 2 -6 -2
92 2 4.7314485216005728e+00 1.4544750064293490e+01 6.6469831070871779e+00 2 -6 -2
122 2 4.9034262182898880e+00 1.3233007435897855e+01 4.8187451423910010e+00 -4 1 0
311 2 8.4487527110480194e+00 1.3567212626251859e+01 4.8951042586706510e+00 -3 2 1
4 1 6.0693382964421208e+00 1.7049102336694652e+01 5.4801342702139753e+00 1 3 -2
186 2 8.9361569097022677e+00 1.4652041138253884e+01 6.5803227678828620e+00 1 -2 -1
185 2 8.5963607659614407e+00 1.3135915203339598e+01 6.9600269670929311e+00 1 -2 -1
340 1 5.0142180544659940e+00 1.6706460905507726e+01 8.4814781090227154e+00 0 1 3
91 1 5.3835391868498261e+00 1.3890818828190278e+01 6.4877018427111430e+00 2 -6 -2
45 2 7.7235296370589124e+00 1.5152072788055886e+01 8.4133810367041200e+00 6 -4 3
184 1 8.2237082911389265e+00 1.3964870774482632e+01 6.6094511282520445e+00 1 -2 -1
44 2 6.3878813257281335e+00 1.5910756000191070e+01 8.8979883363141585e+00 6 -4 3
173 2 2.4615320751814660e+00 3.4017780235860342e+00 1.0547348667413837e+01 0 -2 2
172 1 2.3133437239325536e+00 4.0641090929338333e+00 1.1215366520614582e+01 0 -2 2
148 1 2.6762093981186696e+00 2.0134392824612402e+00 9.7634682152679364e+00 -2 -5 -4
174 2 1.8751334771981576e+00 3.6133633941017145e+00 1.2017546361515638e+01 0 -2 2
149 2 2.3284979235711600e+00 1.0583950403927389e+00 9.8177619960551628e+00 -2 -5 -4
150 2 3.6645018315537699e+00 1.8560548871680151e+00 9.7761377349305771e+00 -2 -5 -4
169 1 7.0654334131902474e-01 3.0969319107484528e+00 1.3204178142736293e+01 2 2 -7
323 2 5.6361339481852770e+00 1.9036837048301347e+00 1.0254693613494270e+01 4 6 -2
136 1 6.2269275107574416e+00 1.3895105497036282e+00 1.1717529212132776e+01 4 -6 -1
137 2 6.5433675311405137e+00 2.0880717821522006e+00 1.2327556318778921e+01 4 -6 -1
63 2 5.6747973521161663e+00 4.0537774658982961e+00 1.3412997547544256e+01 3 -2 3
322 1 5.2813415137243656e+00 1.9485069663266792e+00 9.2816843648658462e+00 4 6 -2
105 2 7.9150922912394863e+00 4.3198860830096280e+00 1.0607319271615996e+01 0 -1 3
138 2 5.4633183975165434e+00 8.2439586109326413e-01 1.2023504682550628e+01 4 -6 -1
87 2 7.5995649217939123e+00 4.2316849088596092e-01 1.1260535236799093e+01 -2 5 1
240 2 3.7849488438162870e+00 4.8281026235563322e+00 1.2079743042758823e+01 0 -3 -6
293 2 9.1829227413212444e-01 6.0059262267434290e+00 9.9071561704626330e+00 1 6 2
113 2 1.2694933016829650e+00 7.6969574596069226e+00 1.1549868816900300e+01 1 1 -4
292 1 1.1115730584525323e+00 6.3887352843362653e+00 1.0801285904984088e+01 1 6 2
294 2 1.7661873180580066e+00 5.7853679070391655e+00 1.1111514965112713e+01 1 6 2
114 2 1.2561129773804380e+00 8.3814519999082631e+00 1.3087770996645959e+01 1 1 -4
112 1 1.4119331406416229e+00 8.5031712386710669e+00 1.2139633868204427e+01 1 1 -4
238 1 4.4881629516066441e+00 5.0675688721021546e+00 1.2685010385249582e+01 0 -3 -6
111 2 4.4853122462357344e+00 7.5387062141841632e+00 9.4009628418655815e+00 -2 -3 -4
104 2 6.6753188500928813e+00 4.8831994926115083e+00 9.5665559333170780e+00 0 -1 3
103 1 7.3626350507161176e+00 5.0506999006690840e+00 1.0343807191024547e+01 0 -1 3
234 2 6.7960666900028128e+00 6.2259394408073572e+00 1.1306245656257992e+01 2 5 0
239 2 5.0304769479478981e+00 5.7037638191964559e+00 1.2143269982095941e+01 0 -3 -6
232 1 6.4832944118134481e+00 7.0369749247595097e+00 1.1803951359537676e+01 2 5 0
108 2 7.9259806754942908e+00 7.3758104613135682e+00 1.2480841578624958e+01 -3 -2 1
233 2 5.9827103524393648e+00 7.5927974178257367e+00 1.1178400121859376e+01 2 5 0
109 1 4.9819265262718142e+00 8.1893646160939895e+00 9.8680542577538457e+00 -2 -3 -4
106 1 8.8447933784185864e+00 7.3316945070918811e+00 1.2821416337466653e+01 -3 -2 1
267 2 2.7417619297795652e+00 9.6070663729721328e+00 1.1426038143077388e+01 -3 3 0
537 2 1.6062196378509193e+00 1.2086876841878366e+01 1.2105957552826299e+01 0 -1 -3
265 1 3.4351375357275558e+00 1.0019284265438237e+01 1.0879710099346930e+01 -3 3 0
536 2 2.4776585197747836e+00 1.2420081184277269e+01 1.3334824515930615e+01 0 -1 -3
535 1 2.2042953914887269e+00 1.2762433298634731e+01 1.2454452249801387e+01 0 -1 -3
98 2 8.2658830918968207e-01 9.9249531410144982e+00 1.1746288753761057e+01 0 1 3
97 1 7.0702299526150669e-01 1.0810873965028179e+01 1.1434489375829031e+01 0 1 3
161 2 3.0454663015713566e+00 1.2401620210326826e+01 1.0723399380579067e+01 -1 8 4
160 1 3.5040998999475508e+00 1.2822505952196856e+01 9.9885778455169607e+00 -1 8 4
266 2 3.9475268193529014e+00 1.0501584743744827e+01 1.1602151673546741e+01 -3 3 0
110 2 4.3593634043685112e+00 8.8537054647682307e+00 1.0175935318827792e+01 -2 -3 -4
272 2 2.6036286096517136e+00 1.0087391997080610e+01 9.2012644013671885e+00 6 -1 1
487 1 8.3069035463234115e+00 1.3078891286033533e+01 1.3102537852953571e+01 -8 0 -5
561 2 7.2143962056412150e+00 1.0305175679196939e+01 1.2536669626596860e+01 1 -8 -2
559 1 8.1192735411459935e+00 1.0449549199558207e+01 1.2258856681168291e+01 1 -8 -2
16 1 5.3467079088636034e+00 1.0762764510786791e+01 1.2764362529125153e+01 6 2 -6
3 2 7.9660980183625272e+00 1.1318722711977548e+01 1.0427106674460264e+01 -2 1 -2
560 2 8.2955600361963331e+00 1.1389614138042772e+01 1.2539151519395249e+01 1 -8 -2
1 1 8.0961918472449597e+00 1.1900300091797662e+01 9.6801748211289365e+00 -2 1 -2
182 2 8.9597225922307491e+00 9.3950817405362148e+00 1.0910607819965161e+01 -7 -9 -3
158 2 4.9094876565544610e+00 1.2371631876305733e+01 9.1079988912606069e+00 -4 4 -11
18 2 5.4328690762007472e+00 1.1647817140760218e+01 1.3125946722363473e+01 6 2 -6
2 2 7.1710300443006476e+00 1.2100125283452025e+01 9.4040221479655468e+00 -2 1 -2
389 2 4.0697806501733940e+00 1.5752426677634435e+01 9.4551910784451074e+00 6 -2 0
66 2 3.7005858447738165e+00 1.7365413416064030e+01 1.3021418359005576e+01 1 -4 1
571 1 1.3410902005814773e+00 1.7033919325602533e+01 9.2153382365922205e+00 -1 0 -2
64 1 4.2426985049924211e+00 1.6661815592428667e+01 1.2510731972053579e+01 1 -4 1
162 2 3.6027558224441045e+00 1.3773481426029219e+01 1.0185644273560769e+01 -1 8 4
388 1 3.2652817784608743e+00 1.5455172087553899e+01 9.9680426386617622e+00 6 -2 0
390 2 3.3472276617630543e+00 1.5852634119635521e+01 1.0867240375796953e+01 6 -2 0
573 2 2.0245134477220690e+00 1.6369913671281559e+01 9.4514142831399699e+00 -1 0 -2
480 2 1.2167871846518112e+00 1.4055204785511412e+01 1.3071790708762720e+01 -2 0 -1
478 1 5.9214402356562157e-01 1.4769729518150335e+01 1.3382533817207850e+01 -2 0 -1
572 2 6.2727961640018215e-01 1.6919141141400409e+01 9.8442438720243644e+00 -1 0 -2
65 2 4.9589759973829564e+00 1.6374937059729717e+01 1.3094278731517942e+01 1 -4 1
85 1 8.3024259668220530e+00 1.7082680276778412e+01 1.0978285219137906e+01 -2 4 1
204 2 5.3145273556169759e+00 1.4285192039307439e+01 1.2033758062506937e+01 -1 2 1
202 1 6.1836402150512173e+00 1.3996912477329866e+01 1.1825378547659566e+01 -1 2 1
203 2 6.5154742032984165e+00 1.4434190395536339e+01 1.1072285387863568e+01 -1 2 1
488 2 7.4211073475516907e+00 1.3371671035980404e+01 1.2822171095281018e+01 -8 0 -5
43 1 7.2338219375483890e+00 1.5471421084528872e+01 9.1644299849708606e+00 6 -4 3
86 2 7.9749129630004472e+00 1.6390860810610924e+01 1.0355498313744857e+01 -2 4 1
218 2 2.0872424628955466e+00 2.0256930460678495e+00 1.3551542753704988e+01 0 3 -2
217 1 2.7523435657377116e+00 1.4348022699961516e+00 1.3813124143608283e+01 0 3 -2
170 2 5.4114106744123902e-01 3.7400506364139106e+00 1.3954119465822201e+01 2 2 -7
337 1 1.7419625579753411e+00 2.5476623819703876e+00 1.7173492251987106e+01 0 0 7
219 2 2.9715211720670092e+00 1.4482918128338305e+00 1.4784421456951556e+01 0 3 -2
543 2 3.4331321482244821e+00 1.7627572270785872e+00 1.6802772052786295e+01 3 4 4
541 1 3.8951249936926562e+00 1.2597311146350996e+00 1.6112333607124377e+01 3 4 4
387 2 1.0271607750925535e+00 3.8282637082760003e+00 1.6221210239321188e+01 1 -7 -2
320 2 1.6144767096300141e+00 3.1344188524782651e-01 1.4360253982577076e+01 -5 3 0
385 1 4.1892905192192809e-01 4.3039685556156169e+00 1.5629433427697650e+01 1 -7 -2
338 2 1.3212491032189713e+00 1.7953746449987760e+00 1.7663942654260381e+01 0 0 7
61 1 6.4550733780042560e+00 3.4725007051651513e+00 1.3610824488375249e+01 3 -2 3
542 2 4.7923472520420338e+00 1.5658099575780871e+00 1.6089237137612038e+01 3 4 4
360 2 6.8542941923621896e+00 1.8018693094879621e+00 1.6648159729447158e+01 1 0 2
359 2 7.1886260001619453e+00 1.1636598952386805e+00 1.5322815187390388e+01 1 0 2
358 1 6.4605015558646537e+00 1.6547970541691412e+00 1.5789941313330457e+01 1 0 2
62 2 6.3877830422942807e+00 3.1765753300487498e+00 1.4570642235825984e+01 3 -2 3
483 2 6.2984642766756664e+00 4.1368552955586626e+00 1.7085589805293317e+01 -7 -3 4
250 1 2.8192616766779541e+00 6.4999702791230378e+00 1.7217623679767591e+01 5 0 2
557 2 3.9571862716125339e+00 6.5172249974023977e+00 1.5733050827521797e+01 -1 -2 -3
251 2 1.8633715728986588e+00 6.6791476389435909e+00 1.7211924249665330e+01 5 0 2
558 2 4.5568577353555524e+00 6.0211325344601612e+00 1.4445691098925050e+01 -1 -2 -3
386 2 3.3981674613862811e-01 5.2111953048757558e+00 1.5962297691492106e+01 1 -7 -2
51 2 7.7623766213615744e+00 4.4841137199132044e+00 1.3609695989284734e+01 7 2 -5
556 1 4.8184325353805280e+00 6.5228641942059662e+00 1.5235425911676225e+01 -1 -2 -3
346 1 8.9348422857569894e+00 7.7848736108608474e+00 1.7074893074675913e+01 -1 4 -3
50 2 8.8784082211472377e+00 5.6529055487697759e+00 1.3523523464498068e+01 7 2 -5
49 1 8.7403207994039978e+00 4.7505820558770520e+00 1.3859813406251865e+01 7 2 -5
506 2 5.1174188831604654e+00 8.3981964098904704e+00 1.5127722004659889e+01 -1 -1 3
347 2 8.3198034947227537e+00 7.0657564822731649e+00 1.6843523507895590e+01 -1 4 -3
30 2 7.7855456148174218e+00 5.2766369319865483e+00 1.5447785977105424e+01 0 0 8
28 1 7.2365065970587690e+00 5.5020692986950346e+00 1.6189165696381188e+01 0 0 8
29 2 6.5153049673485253e+00 6.0646532168533840e+00 1.5883522836973786e+01 0 0 8
502 1 5.9330356505753057e-01 8.9349582014222868e+00 1.4673278127938074e+01 0 2 3
503 2 1.3956541907391429e+00 9.2520590448963507e+00 1.5156255260910774e+01 0 2 3
153 2 2.8418534303563630e+00 1.0837360124472189e+01 1.5768461568024961e+01 5 -1 1
152 2 2.4636582284909596e+00 1.0016651486492544e+01 1.7046131278255970e+01 5 -1 1
151 1 2.6648768779653378e+00 9.9267102909352634e+00 1.6092147805183600e+01 5 -1 1
425 2 3.8925664010452272e+00 1.2486038834478849e+01 1.4903070260358852e+01 3 -1 2
507 2 4.2501899177890277e+00 9.4938521254544703e+00 1.5496739548160500e+01 -1 -1 3
424 1 2.9244232637879479e+00 1.2304812665381665e+01 1.4957568427014783e+01 3 -1 2
426 2 2.4940787228708228e+00 1.3026918652438120e+01 1.5558815195292516e+01 3 -1 2
438 2 7.6366762726260697e+00 9.1611492319248242e+00 1.7034004945726259e+01 0 -1 -1
94 1 6.8024434126979356e+00 1.2597306251012583e+01 1.7508455303421933e+01 -4 -1 -8
96 2 7.2341643307544858e+00 1.1719861607452305e+01 1.7449564788912262e+01 -4 -1 -8
505 1 5.1124712298521660e+00 9.3738366345707309e+00 1.5170783673709900e+01 -1 -1 3
17 2 5.0528654514650775e+00 1.0160875354477673e+01 1.3444367676369581e+01 6 2 -6
436 1 6.8494753104986996e+00 9.7032261711404519e+00 1.7366890286544034e+01 0 -1 -1
437 2 6.1866265674469236e+00 9.7541514376702789e+00 1.6648884330938024e+01 0 -1 -1
306 2 5.9967859121333111e+00 1.2524835631642166e+01 1.5769876408796252e+01 2 4 -1
304 1 5.6508317239786967e+00 1.2778625169654656e+01 1.4900847153113995e+01 2 4 -1
319 1 8.2269679107697047e-01 1.7059238152112300e+01 1.4579281582189731e+01 -5 2 0
195 2 3.9941747882245449e+00 1.6854578871260429e+01 1.6389493555549741e+01 1 2 -1
440 2 3.0483333599343796e+00 1.4785714158463938e+01 1.6449131024146752e+01 6 -3 1
441 2 1.5742933347095109e+00 1.4942001720036743e+01 1.6545437664879060e+01 6 -3 1
439 1 2.2058757939330977e+00 1.4245807526874916e+01 1.6577590406916578e+01 6 -3 1
193 1 4.2970645988174541e+00 1.5954001810869055e+01 1.6530130801359853e+01 1 2 -1
321 2 1.0001096798627440e+00 1.6216061194382114e+01 1.4036707126198577e+01 -5 2 0
515 2 5.0606526519416151e-01 1.6530128595426305e+01 1.7555595434360676e+01 5 3 -3
140 2 7.7789971925421204e+00 1.4101758629743983e+01 1.7642091627800120e+01 -4 -1 -2
165 2 5.2861172238395806e+00 1.5628252847770066e+01 1.5411381587209362e+01 6 -3 -3
164 2 6.6463156489434061e+00 1.5869589792818694e+01 1.4542776201372087e+01 6 -3 -3
31 1 8.0659280936860576e+00 1.6768140254140157e+01 1.4980439541518624e+01 -9 4 6
32 2 8.6171555454710766e+00 1.6505627345806218e+01 1.5764411582298584e+01 -9 4 6
194 2 4.7761156845334529e+00 1.6016875329981865e+01 1.7401789708913313e+01 1 2 -1
139 1 8.2410621799222756e+00 1.4930769650946244e+01 1.7417520924072441e+01 -4 -1 -2
163 1 5.7405406682816302e+00 1.5444291797690539e+01 1.4514714538397294e+01 6 -3 -3
305 2 5.8754199563398126e+00 1.3737644130713500e+01 1.4786210433887472e+01 2 4 -1
33 2 8.7035561477302554e+00 1.6979772792597373e+01 1.4265994955469685e+01 -9 4 6
381 2 1.0843274391251704e+01 3.4656544600043127e+00 1.7220459673893596e+00 4 -7 5
463 1 1.0449907949925771e+01 2.0848570182983224e+00 2.3403330212440085e+00 1 2 4
465 2 9.6616277704617399e+00 2.1648951699456020e+00 2.9499026345601389e+00 1 2 4
464 2 1.0077519302855421e+01 1.6338568704920104e+00 1.5187555174836553e+00 1 2 4
38 2 1.1187043125320903e+01 7.3173670260017942e-01 2.8342553807604896e+00 -4 -7 -1
565 1 1.3193354568459398e+01 2.6112519502413436e+00 3.9651814867337229e+00 -4 5 0
379 1 1.0897652394394303e+01 4.4300624055742759e+00 1.4274846207632881e+00 4 -7 5
566 2 1.2374068548759785e+01 2.3068636616562563e+00 3.5360806048913092e+00 -4 5 0
530 2 1.4090640815644694e+01 3.5737085104400554e+00 3.0489115666704252e+00 -1 2 3
531 2 1.4891780921950353e+01 3.4013089591396741e+00 1.6896597036375249e+00 -1 2 3
529 1 1.4488406021843572e+01 4.0858097386749748e+00 2.2705934323502062e+00 -1 2 3
452 2 1.6788122627342197e+01 1.0333463685583202e+00 1.3405764636261523e+00 -4 13 1
333 2 1.4779170811217780e+01 1.2417893176426567e+00 1.0452293190292030e+00 2 2 -6
331 1 1.5466782871154109e+01 1.9176761013136612e+00 1.0619269647766627e+00 2 2 -6
567 2 1.3544982867467169e+01 1.7470974772221186e+00 4.2797805171615249e+00 -4 5 0
467 2 9.0621716488489508e+00 7.9976967430875501e+00 1.5163797304108064e+00 1 -3 -1
466 1 9.3340526042369447e+00 8.4192319475420021e+00 2.4023852188268795e+00 1 -3 -1
46 1 1.3152308545675847e+01 5.8033780345935613e+00 9.5398056465045844e-01 3 2 0
380 2 1.1817406328406728e+01 4.8201455030280478e+00 1.3556553473074950e+00 4 -7 5
242 2 1.2204668721714313e+01 7.3919128635581623e+00 1.4622051995670249e+00 -1 9 -2
241 1 1.1853007130221004e+01 8.3036430004833868e+00 1.5926089372505068e+00 -1 9 -2
243 2 1.0904431556081079e+01 8.3929137407167342e+00 1.8901890573638269e+00 -1 9 -2
75 2 1.0838352654992303e+01 5.0379625837929041e+00 3.1198219740983628e+00 7 -3 0
201 2 1.2518562101761573e+01 8.4120895281406121e+00 3.3089123706300771e+00 3 -4 1
73 1 1.0689458633939468e+01 5.3979263821587562e+00 4.0206933065955885e+00 7 -3 0
199 1 1.2860741782231651e+01 8.5703519393814034e+00 4.2024186543315327e+00 3 -4 1
74 2 1.1336225943880756e+01 4.9064273140820900e+00 4.5826652529801803e+00 7 -3 0
546 2 9.0595629680784775e+00 4.8186576894913733e+00 4.1996067950093146e+00 0 3 0
47 2 1.3586346168013648e+01 5.1505817907246438e+00 1.5427626803239749e+00 3 2 0
222 2 1.5759521079130950e+01 7.1902617767320081e+00 1.8134031548562692e+00 0 3 3
301 1 1.6164804552671480e+01 5.9643282986883897e+00 3.0058204575441829e+00 -1 -3 5
302 2 1.5682753013069787e+01 5.2003252669610882e+00 2.6519359955812969e+00 -1 -3 5
303 2 1.5694455062766302e+01 6.1994924122543882e+00 3.8083893930762147e+00 -1 -3 5
221 2 1.5855257984394894e+01 8.6228637216521342e+00 1.1275377678911129e+00 0 3 3
220 1 1.5773177282575897e+01 7.6878846858190411e+00 9.7410265635174387e-01 0 3 3
371 2 1.4166884817741865e+01 7.1312913203600194e+00 4.7718919722553519e+00 12 3 0
125 2 1.2160226005138487e+01 9.8191949198628912e+00 1.0571892336270665e+00 2 -7 5
135 2 1.2110366773025429e+01 1.2554265742192490e+01 1.5532413581490965e+00 4 -4 -4
473 2 1.2469470473653745e+01 1.0354391751197149e+01 4.1435123381081587e+00 -4 -7 -1
474 2 1.1209257273956112e+01 1.1325820425498902e+01 3.6305833250812731e+00 -4 -7 -1
484 1 9.3475661518172490e+00 1.1048781309736077e+01 3.0888520897241789e+00 -4 0 -2
124 1 1.2427329838532858e+01 1.0772761000700466e+01 8.6834681660968038e-01 2 -7 5
423 2 9.1263934414931160e+00 1.0413477581804550e+01 4.4779419066731840e+00 -1 3 2
472 1 1.2196327955863460e+01 1.1254381870223053e+01 3.8991035958301130e+00 -4 -7 -1
168 2 1.2639620985935066e+01 1.2761409680920167e+01 4.2449179229698011e+00 -5 3 -3
485 2 9.1069605144921315e+00 1.0343379529489699e+01 2.4462295776945262e+00 -4 0 -2
142 1 1.7160403968793716e+01 1.1623601672773210e+01 1.8367080190337157e+00 -3 -1 3
375 2 1.4825468522189363e+01 9.8952346096023458e+00 4.3238361801763876e+00 2 -2 8
313 1 1.4891146821968354e+01 1.0025163516288677e+01 2.3712597873373862e+00 0 3 -1
314 2 1.4063457596657116e+01 1.0583916182926963e+01 2.3151833368316570e+00 0 3 -1
315 2 1.5572989267271630e+01 1.0725485267075316e+01 2.3407936800609646e+00 0 3 -1
143 2 1.6736908369382313e+01 1.1977116570812944e+01 1.0311627530807965e+00 -3 -1 3
133 1 1.2179101008689800e+01 1.3566243401623332e+01 1.4848853332067775e+00 4 -4 -4
39 2 1.2416064317776202e+01 1.7106711066943824e+01 2.3795991863966632e+00 -4 -8 -1
326 2 1.0677028246273332e+01 1.4554345586791333e+01 1.9940920131179725e+00 -3 -4 6
327 2 1.0347355121175731e+01 1.5784465115428075e+01 2.6139919145574040e+00 -3 -4 6
325 1 9.8829480327490433e+00 1.5042693358035006e+01 2.2053894108915295e+00 -3 -4 6
37 1 1.1602266429355119e+01 1.7145384695594423e+01 2.9798437783215768e+00 -4 -8 -1
180 2 1.2051833670078279e+01 1.6316504518891435e+01 4.5060664773657795e+00 -1 5 1
134 2 1.2669404143442124e+01 1.3887519312430182e+01 2.2218345385828675e+00 4 -4 -4
166 1 1.3110350553604418e+01 1.3633118131818287e+01 4.2698215408779578e+00 -5 3 -3
312 2 8.9802518497289530e+00 1.3995201652635831e+01 3.4565185891705408e+00 -3 2 1
145 1 1.3589647085991755e+01 1.7264090971096174e+01 1.1394722566543991e+00 2 2 3
52 1 1.5136908391234636e+01 1.4972273856112260e+01 8.0042804613374563e-01 -3 -1 2
526 1 1.6490813577756001e+01 1.4576942982390676e+01 3.4914599740547843e+00 -5 -5 0
527 2 1.7396699928929124e+01 1.4233046470377865e+01 3.2407941093377328e+00 -5 -5 0
528 2 1.6001616061878579e+01 1.3808321303220991e+01 3.8941978114459928e+00 -5 -5 0