LAMMPS data file via write_data, version 3 Mar 2020, timestep = 46150000

2016 atoms
2 atom types

0.0000000000000000e+00 1.7971137600909127e+01 xlo xhi
-6.1461853433878346e+00 5.1142345320308003e+01 ylo yhi
0.0000000000000000e+00 1.9112345604597255e+01 zlo zhi
5.4603112468977054e-02 -6.6837679575058289e+00 -2.2982228055226983e-02 xy xz yz

Masses

1 16
2 2

Atoms # atomic

385 1 9.1992590924394246e-01 -8.8652423385445722e-01 1.5643400659063131e+01 0 0 -4
1602 2 1.2467870381985369e+01 5.7633038842219531e+00 1.4669238639657765e+00 0 0 1
568 1 4.3256927579233473e+00 -1.2099206621267156e+00 8.5160140557498369e+00 0 0 2
1422 2 6.5772302270599194e+00 6.7569270238516257e+00 1.6432455346509158e+01 -1 1 -1
1566 2 -5.8479233987029975e+00 7.3623168776441652e+00 1.7832710345971371e+01 -1 0 -1
746 2 -2.2314760972787941e+00 -1.8417454276438523e+00 6.5824422716204634e+00 -1 -1 0
11 2 1.5141449595505467e+01 4.3700416067113075e+00 6.9512491849016089e-01 -2 0 1
253 1 4.2082289042808547e+00 -4.8746171452306992e+00 1.5485454475255978e+01 -4 0 -2
37 1 7.9995123802160748e+00 1.0791282252986401e+00 1.0029820232255844e+01 -3 0 -3
1455 2 9.6540866560680816e-01 2.2728010335458215e-01 2.1732017939664567e+00 1 0 -1
1753 1 8.5616249507191871e+00 7.6211610932483467e+00 7.1025421646767315e+00 -1 0 0
474 2 -7.3053090194764003e-01 3.8907055535556854e+00 1.6373503094703043e+01 1 0 2
1775 2 3.9135432992957280e+00 5.3130562150622360e+00 5.8245687569055500e+00 2 1 0
872 2 1.1730598250267613e+01 4.7115743351029575e+00 1.7381635858766593e+01 -3 0 -2
886 1 9.3815367813631436e+00 -1.4477772596799268e+00 1.0359619974621776e+01 0 0 0
812 2 6.1193655790911183e+00 3.1351065168320176e+00 2.2571930407384042e+00 0 0 1
1688 2 7.6392492212911858e+00 5.1911293797593245e+00 1.5089713566028031e+01 0 1 -1
350 2 5.4790713106119888e+00 -2.4429948443884686e+00 1.3031007025883190e+01 3 0 5
488 2 1.8985425692984514e+00 3.8245748927777665e+00 5.4113580095829432e+00 -4 0 1
724 1 1.1401833163849400e+01 -3.4118561263519642e+00 1.5054793605939903e+01 1 0 2
1888 1 5.8223794491618239e+00 6.1690726334313375e+00 1.2857593236065494e+01 1 1 1
560 2 2.7111692706389943e+00 1.7217740461051534e+00 4.7274645142111452e-02 -1 0 0
1983 2 1.2700075621897616e+01 -5.0994203833331575e-01 7.5739069627290387e+00 -1 1 0
1953 2 1.3972570985827661e+01 4.9826724567221543e+00 3.9432250414008410e+00 -2 1 0
1282 1 -3.2247495153925483e+00 4.6797944069414612e+00 1.8427749726913703e+01 2 0 0
1390 1 1.1022611812449874e+00 4.2906403849142514e+00 8.4259351340225823e+00 1 0 0
233 2 1.2488677599150659e+01 -4.0753334127205560e+00 4.3678344741904489e+00 -2 0 1
665 2 1.3268870052274909e+01 4.4156015433423637e+00 1.2063060650136640e+01 3 0 3
646 1 -1.4117532683490883e+00 -2.4133312031121461e+00 1.4881876034542591e+01 -2 0 -1
7 1 -3.5889636053609753e-01 -1.3701064255627413e+00 1.0682502153146126e+01 1 0 -1
1426 1 1.5929019249005925e+01 1.9876174073763622e+00 2.3324885821135499e+00 1 1 1
1820 2 6.8833444378817248e+00 1.6484532927688766e+00 1.7531040192826129e+01 -1 1 -2
1195 1 9.4666825451263819e+00 -3.5987898875872455e+00 7.4625153065011673e+00 -1 0 1
934 1 3.0749222597763222e+00 -3.9473912953936847e+00 7.8615483634162411e+00 -3 0 1
202 1 1.4839394349046493e+01 4.9677571574943080e+00 7.6000424633135975e+00 -5 0 1
1307 2 1.0865889915924900e+00 -1.1568594251818709e+00 3.6724684715215095e-01 1 1 0
1349 2 -2.6497788482638063e-01 -2.4685926431199414e+00 8.9914189344534083e+00 1 1 1
1167 2 3.3976699688226155e+00 7.1834430302244048e+00 1.7879452579811986e+01 0 0 -1
755 2 -1.2400313764411308e-01 1.7930025634382982e+00 9.4333694989518584e+00 0 0 3
1830 2 9.4868370669086133e+00 4.3261591044683900e+00 1.5942478069422743e+01 1 0 0
1884 2 8.6072779779803295e+00 5.9368748067637132e+00 1.7100600766010541e+00 -2 1 -1
679 1 -1.3537496891758551e+00 6.9351759970840394e+00 4.0729164621725698e+00 -4 0 -3
1755 2 9.3773109238455739e+00 8.0543007464459766e+00 6.8339401198641987e+00 -1 0 0
1377 2 8.3378680730009691e-01 2.1438162612622147e+00 1.7029648600000758e+01 2 0 -1
1667 2 5.0153196234973327e+00 -7.3824074254315697e-01 4.9393267619213205e-01 1 1 -2
1821 2 6.5103538063368989e+00 3.0919428866063186e+00 1.7365338643490102e+01 -1 1 -2
726 2 1.1864573568274409e+01 -3.1706083537931016e+00 1.4233516118440541e+01 1 0 2
304 1 8.3309131329728778e+00 -4.0118734713305528e+00 1.0796231165774445e+01 0 0 -3
1692 2 -7.6361146830413729e-01 3.9488448336112452e+00 1.1946363744226966e+01 0 1 0
1899 2 4.6390205321461186e+00 6.5603169843903260e+00 1.5133454875529688e+00 0 1 0
183 2 3.9731454529926591e+00 2.3649192138752664e+00 8.1818520930751912e+00 1 0 1
638 2 -1.5523775375185167e-01 7.0613969356182889e+00 1.5439351793568658e+01 -1 0 -2
149 2 6.2353594309463700e+00 -2.7185547464020146e+00 4.0517003296337846e+00 -3 0 1
831 2 1.0084494501436227e+01 2.5487928881736845e+00 3.1819436171787774e+00 -4 0 0
778 1 5.8495996648083870e-01 1.7783753191774077e+00 2.2363823495153254e+00 0 0 -1
725 2 1.0430293279390852e+01 -3.3522835475488812e+00 1.4858611286867239e+01 1 0 2
1547 2 4.1454712025956875e+00 5.5017928973107377e+00 9.5832042677227847e+00 -1 0 0
825 2 3.1903483076416248e+00 -4.3906268530428232e+00 5.7622474414268163e+00 1 0 0
318 2 4.4825335050997186e+00 8.7544619968831050e-01 5.0566981833419717e+00 0 0 0
464 2 1.5910434626697214e+01 -4.8430160270707105e+00 5.7264188720700080e+00 2 1 0
100 1 5.9224710032344570e+00 -3.5533745240398016e+00 9.2625194216015210e+00 -3 0 -1
786 2 4.2014927766094816e+00 1.9102888163059557e+00 1.4458608513636053e+00 -6 0 -4
1819 1 6.7602338136626248e+00 2.4759558885582429e+00 1.8057361052168204e+01 -1 1 -2
593 2 -4.5072763569722341e-03 -3.9363135475110957e+00 1.2283991574631308e+01 -2 0 -1
1976 2 -6.6442124421467152e-01 -4.3793531967099248e+00 1.8023157763947818e+01 2 1 0
1883 2 8.2903731605596303e+00 6.9344851817085811e+00 2.8044907866068178e+00 -2 1 -1
1420 1 6.5222342900577219e+00 7.4557883005447412e+00 1.7136649380434061e+01 -1 1 -1
1925 2 -1.9164853789784888e+00 -3.3099090925683687e+00 1.6172761844514401e+01 0 1 0
569 2 3.9045688272372345e+00 -2.6941619541683348e-01 8.6709984515018004e+00 0 0 2
274 1 8.7924399663830322e+00 4.1051338321974367e+00 3.8341807679784754e+00 2 0 2
315 2 -4.7080377500588622e-01 -4.4590550670522271e+00 7.7243567680011438e+00 -4 0 -3
747 2 1.4701071299336656e+01 -1.8054320552043421e+00 5.4752234486903237e+00 -2 -1 0
1017 2 -3.9557830691328544e+00 8.5335336012102481e-01 1.6302639073462281e+01 1 0 0
1701 2 1.2840055741004146e+01 -2.5635753138596584e-01 1.1131442802136499e+01 1 1 0
440 2 5.4328779981077489e+00 -1.7085931194714910e+00 5.5533509111045571e+00 -5 0 -2
1437 2 5.4128963357554749e+00 -4.0679827766788499e+00 6.2819424699209980e+00 1 1 -1
57 2 4.7994057164775095e-01 1.4755146271870379e+00 5.8679483766263658e+00 -2 0 3
1889 2 6.2364048211144780e+00 5.7870600195378454e+00 1.2037927975380944e+01 1 1 1
114 2 8.5956289709413554e+00 3.1656157448435618e+00 1.2305585438259262e+01 -1 0 -1
1225 1 -4.5880772797620955e+00 6.0051213848463849e+00 1.4834772560859111e+01 2 0 -1
52 1 1.2996278546564879e+01 8.0360241307486611e+00 4.9011474953539507e+00 0 0 -1
807 2 4.5142852942850551e+00 -5.4786599794474435e+00 1.8463726004296590e+00 -3 0 3
1522 1 1.2999288869079798e+01 7.2574866778735903e+00 1.1079389521050514e+01 1 0 0
1556 2 2.1798388890079514e+00 4.5201647493925279e+00 9.9061409049132045e+00 -1 0 0
570 2 4.6470802261878035e+00 -1.1737329928193612e+00 7.5993022833597577e+00 0 0 2
255 2 4.4859816939287880e+00 -4.4435952568908839e+00 1.4679296642796693e+01 -4 0 -2
1436 2 6.3865254245092853e+00 -4.1888450769793559e+00 7.4403597124563676e+00 1 1 -1
320 2 9.2825871648208373e+00 -1.4359503398997830e-02 1.3236336690295063e+01 -6 1 -2
823 1 3.7150483237875989e+00 -4.7231540849123812e+00 5.0243058102904543e+00 1 0 0
1931 2 -2.2404593590414139e+00 -3.9862976792364937e+00 1.1968679649232271e+01 0 1 1
28 1 1.3738179712847579e+01 3.2428949163519487e+00 9.2061212327141106e+00 -4 0 -4
38 2 8.0118051784014632e+00 1.7536084735624362e+00 1.0778654923446316e+01 -3 0 -3
1945 1 1.4263044730623522e+01 -3.8476856292204826e+00 1.5117995174682794e-01 -1 1 2
1627 1 1.3765326491299952e+00 7.3805851112466438e+00 1.4635420589269028e+01 0 0 0
1226 2 -4.5359739909482659e+00 5.3843760707746480e+00 1.4120174557560125e+01 2 0 -1
1774 1 4.4070321881147061e+00 6.1404710772830899e+00 5.6314051975039012e+00 2 1 0
1080 2 1.1543127235644453e+01 9.2609554123372284e-01 9.7910671921437729e+00 0 0 -2
1096 1 1.1390745585011961e+01 5.0996664056927070e+00 7.5637066784873808e+00 3 1 -2
648 2 -1.1551529920716916e+00 -2.8112873863916428e+00 1.4009998424529538e+01 -2 0 -1
735 2 8.0257362299854709e+00 -3.9307802082839052e+00 3.8252602130128555e+00 -3 0 1
1587 2 2.5642196815310632e+00 1.9942248643679594e+00 4.6748857253412908e+00 0 0 1
940 1 8.8717183868187224e+00 -6.2315622336196874e-01 3.9389782993988884e+00 1 0 3
685 1 7.6987682886054385e+00 -2.7501629349685071e+00 1.0995369219436040e+00 -2 0 3
53 2 1.2520065168884583e+01 7.2451105624313659e+00 4.7962963162877710e+00 0 0 -1
327 2 1.1948455961739510e+01 -3.5021022021677153e+00 1.0436442603715795e+01 1 0 -2
1606 1 4.5669437271002389e+00 -9.2542859208603101e-01 1.5725714709817069e+01 -1 0 0
1623 2 -2.8927828588391709e+00 -3.7635188517629281e-01 1.2112282046283502e+01 2 0 1
930 2 4.0081022729622697e+00 3.8470392834481917e+00 1.8929503427522040e+01 -1 0 -3
1650 2 5.6603707648968795e+00 5.1431435228476801e+00 2.8240714199747221e+00 1 0 0
511 1 -1.8252477961376310e+00 2.6562630139179593e+00 1.1310233345349150e+01 4 0 0
512 2 -2.6212475284348780e+00 3.0395418688707210e+00 1.0877235360262581e+01 4 0 0
1558 1 1.0988700081774162e+01 4.0785166663500760e+00 9.8719029937686873e+00 0 1 0
2008 1 1.5803077448161146e+01 -4.2364562702799518e+00 2.4171907193727669e+00 2 1 0
305 2 8.0046766085213275e+00 -4.2997088204193075e+00 1.1681414895480579e+01 0 0 -3
184 1 8.8207257225245979e+00 -2.9880825155883195e+00 1.4729251832940601e+01 -3 0 -7
740 2 1.1363770566354532e+01 -5.2934954432485650e+00 1.0592347899397570e+01 -1 0 4
649 1 9.0037502744058262e-01 6.8227735237870490e-01 1.7791334314971021e+01 -6 0 -2
1236 2 1.9320696657617971e+00 -5.5385931560784298e+00 1.2738085391760146e+01 2 1 -1
1739 2 1.3832786440964940e+01 7.9570485546872902e+00 8.2097731692233111e+00 0 0 0
2009 2 1.6650541387292250e+01 -4.6400316071229675e+00 2.1851983332042559e+00 2 1 0
1586 2 1.2359762278516704e+00 2.0680073084565347e+00 3.8467903421062402e+00 0 0 1
1858 1 8.7529041598563744e+00 9.7015171632504504e-01 6.2140769111836551e+00 -3 1 -1
1600 1 1.1646001352082200e+01 5.3872469260003815e+00 1.7816459697472369e+00 0 0 1
1860 2 8.4064863948417958e+00 3.0200904458829836e-01 6.8367368078583430e+00 -3 1 -1
203 2 1.4929061706956929e+01 4.7360266755444158e+00 6.7110803342458878e+00 -5 0 1
763 1 8.8583420705454010e+00 4.8571127329897088e+00 6.5562633697030703e+00 -5 0 -1
651 2 1.5358304577205217e-01 2.3763491081706256e-01 1.8180892204021674e+01 -7 0 -2
1387 1 7.6536734291265347e+00 -1.2119217489761613e+00 7.6078310945055714e+00 -1 1 1
194 2 -1.5230221103274555e+00 5.7513259677075776e+00 8.6887273794808522e+00 -3 0 -4
915 2 1.2043044997911183e+01 -2.0729109279237052e+00 8.6886784692778747e+00 -1 0 3
697 1 1.0575258080662081e+01 6.8513477589912899e+00 1.4382100831756643e+01 1 0 2
271 1 1.1375527603025803e+01 2.2256865192286721e+00 4.4639245293420532e-01 -1 0 0
150 2 4.7254163913165677e+00 -3.2497896162005562e+00 4.2752333627107486e+00 -3 0 1
748 1 1.1575464903528301e+01 -5.2218811225442963e-01 3.6721960200693005e+00 -5 0 2
9 2 4.6776124645309602e-01 -9.6829104602543126e-01 1.0960313293791303e+01 1 0 -1
395 2 3.3662745414313830e+00 3.4215869173542917e+00 1.1533971202507711e+01 -3 0 -3
302 2 3.1257372857608772e+00 -5.8887988012134214e+00 1.4573257862256295e+01 0 1 -3
1898 2 3.9225580407296858e+00 6.1674803828445555e+00 1.1698567719464269e-01 0 1 0
699 2 1.1418754249354304e+01 6.7384929264290019e+00 1.4776503101560738e+01 1 0 2
112 1 7.6678833837679887e+00 3.0506262466472283e+00 1.1971783006870924e+01 -1 0 -1
257 2 1.2122013985248401e+00 3.2880789531266732e+00 1.4829601318599673e+01 -1 0 0
887 2 9.1513313252018662e+00 -6.7115861150143807e-01 1.0898624279719590e+01 0 0 0
850 1 1.1651312366216793e+01 5.8482907065053542e+00 4.5114548560623344e+00 0 0 1
617 2 4.5273058365860246e+00 -1.6617578274380049e+00 2.7712634390343172e+00 -2 0 -1
1890 2 5.8213565552485571e+00 7.1190024311909994e+00 1.2735380362049906e+01 1 1 1
800 2 2.6414678161605400e+00 -3.8277065014547622e+00 2.9988263659371334e-01 -1 0 -4
1034 2 3.4126784352164430e-02 -3.1202950602001369e+00 3.7635135110003062e+00 0 0 -1
351 2 4.6519246243101575e+00 -3.4496553096299856e+00 1.2343987524483897e+01 3 0 5
467 2 7.5318346558552278e+00 4.5493325814594971e+00 8.0607659957182309e-01 -1 0 5
1097 2 1.1685601217819075e+01 5.9697428529300378e+00 7.6978614921596433e+00 3 1 -2
754 1 6.2162900814119260e-01 1.7796765269809720e+00 8.8269065066786894e+00 0 0 3
70 1 1.1954903309851543e+00 6.5108367176082016e+00 3.9944521192742988e+00 -1 0 0
554 2 7.5449842449233291e+00 6.0659086356403780e+00 1.0346174416405091e+01 -7 0 -3
852 2 1.1666386103091602e+01 5.6914427425516987e+00 3.5220964915737087e+00 0 0 1
645 2 -3.6466168691116794e+00 -2.8564439255596863e-01 1.4182900605123093e+01 -4 0 -1
1649 2 4.6963818583844468e+00 5.9826328729182929e+00 3.7770753831040751e+00 1 0 0
1601 2 1.0875985051604742e+01 6.0459858658416596e+00 1.7478316354905075e+00 0 0 1
524 2 8.5928013709493047e+00 -4.3420040515760281e+00 1.7841790612256435e+01 -1 0 -3
764 2 9.8266422166295744e+00 4.8268077865886170e+00 6.7301883593059779e+00 -5 0 -1
955 1 1.3974973756145950e+01 6.0539036720064061e+00 4.5317236099455027e-01 -3 0 -2
2002 1 3.3416001301058977e+00 1.1820671120311301e+00 9.3280999213828206e+00 1 0 1
1021 1 9.6149453664970608e+00 2.3177840973974906e-01 3.1864225115590233e-01 1 0 -1
523 1 9.0903956071150311e+00 -4.5690633533507761e+00 1.7079200449450614e+01 -1 0 -3
639 2 -1.6677685062295038e+00 7.4786904269807764e+00 1.5616877467173405e+01 -1 0 -2
956 2 6.9495766901131431e+00 6.5680295751335791e+00 1.8847375883919845e+01 -3 0 -3
1691 2 4.0495579782464297e-01 4.3809868994198062e+00 1.2926328852631977e+01 0 1 0
1006 1 5.5626610443518354e+00 2.0581404120651747e+00 1.3828743737606706e+01 0 0 -1
1082 2 1.1084217510230378e+01 3.5290850116564840e+00 1.2874643218440214e+01 -2 0 -1
71 2 9.9739932736294303e+00 1.2341803702813001e+00 9.5881619862049714e+00 0 0 -2
1391 2 5.3434440285134599e-01 5.0092040024260474e+00 8.7941431094444571e+00 1 0 0
1618 1 8.4294007786167828e+00 -1.4320025493403516e+00 1.8356539728141914e+01 -1 1 -1
154 1 1.1012715984554962e+01 1.2886102616873663e+00 1.5615014120732203e+01 1 0 -3
734 2 7.9107724638664285e+00 -2.8859999551793640e+00 2.7063756095421496e+00 -3 0 1
309 2 1.0525103266080706e+01 2.7275051921595743e+00 1.6764557191503570e+01 1 0 1
314 2 -1.8202735428897920e+00 -5.1828396265173815e+00 7.7733017969513707e+00 -3 0 -3
264 2 1.2424955828729635e+01 2.3083049049461888e+00 5.9913079305083876e+00 0 0 1
56 2 -5.7234848097088786e-02 1.4000408708427940e+00 7.3510394132831758e+00 -2 0 3
182 2 4.1985930208715008e+00 2.6129851352585334e+00 6.6133057788213696e+00 1 0 1
1266 2 6.2658474685928418e+00 7.1109124196803517e+00 3.2453477300523725e+00 1 0 2
256 1 1.4662861869938153e+00 3.4516318139561246e+00 1.3930415698605145e+01 -1 0 0
1366 1 1.0619492432593479e+01 -1.2998867486008265e+00 1.6769857626688630e+01 0 1 0
285 2 1.5942770970201700e+01 1.7466843817270217e-01 2.2961173644273862e+00 -1 0 4
1906 1 -3.6636656013791256e+00 5.3221823082253472e-01 1.7805581272598626e+01 0 1 0
1306 1 -5.3834599597459452e+00 -1.3755821836512974e+00 1.8567660653314064e+01 1 1 -1
1421 2 5.5543551547313994e+00 7.3305622909464567e+00 1.7470071457693312e+01 -1 1 -1
1007 2 5.5804630616313977e+00 1.1100427625371214e+00 1.3729757584548892e+01 0 0 -1
283 1 1.5999115965355410e+01 -8.0160072912978464e-01 2.2186150083266662e+00 -1 0 4
12 2 8.0670775432355430e+00 3.1782522053538234e+00 1.8893198507291725e+01 -2 0 0
1079 2 1.8892051851956015e-01 6.6561534787211052e+00 3.9527443825002875e+00 -1 1 0
503 2 5.3435827838499090e+00 2.7791841947999991e+00 1.5533630877526823e+01 0 0 1
616 1 4.0557934452295088e+00 -1.2332376275776920e+00 2.0583058173972950e+00 -2 0 -1
997 1 1.7194035680296760e+00 7.2478046830257323e+00 1.0195658946554422e+01 -4 0 4
1622 2 -3.3860021474991253e+00 2.8271192211610252e-01 1.0792696949143826e+01 2 0 1
196 1 -2.7490401863840330e+00 3.0934646855567429e+00 1.4038469877574119e+01 -4 0 -3
113 2 7.5139254824767718e+00 3.8616858306468238e+00 1.1416715630121672e+01 -1 0 -1
44 2 6.3502207898303471e+00 8.6274410644049837e-02 1.0402234093996849e+01 1 0 1
504 2 5.4364211245675813e+00 4.2911544809485420e+00 1.5688670551700739e+01 0 0 0
1690 1 -4.5569656013099502e-01 4.6632710750705595e+00 1.2487651524879166e+01 0 1 0
1095 2 -1.5099643057328360e-01 -1.7053904967955678e+00 5.2457240058701293e+00 1 0 2
1907 2 -4.3877503552421162e+00 -1.1718958165432447e-01 1.8036427036776733e+01 0 1 0
1098 2 1.1254073575228253e+01 4.6864962606430449e+00 8.4331825226773756e+00 3 1 -2
1738 1 1.3360699822307181e+01 7.1393029491303484e+00 8.4010188641738406e+00 0 0 0
1666 1 1.9249831668530719e+00 7.4092467492232288e+00 1.7357013020252687e+01 1 0 -3
1548 2 4.5017615161643718e+00 4.5831748560875827e+00 8.4410028092767178e+00 -1 0 0
1094 2 -6.5353599912232219e-01 -5.2928807933503297e-01 6.2143345250796314e+00 1 0 2
1859 2 8.4184816858059790e+00 1.8716381716729167e+00 6.5381192479053878e+00 -3 1 -1
64 1 1.5553968556890984e+01 2.5656100169947678e+00 5.0399548840758195e+00 -5 0 -5
765 2 8.7027412024986148e+00 5.8492520614533579e+00 6.6370348418646046e+00 -5 0 -1
316 1 4.1462351707866976e+00 1.7263289047283665e+00 4.7492921627323161e+00 0 0 0
628 1 1.0538619018378949e+01 6.0902390913118261e+00 1.1530168855630864e+01 0 0 1
1946 2 1.3338150913897785e+01 -4.0475203436765659e+00 4.7399414343714717e-02 -1 1 1
1700 2 1.3027010548682805e+01 -2.9496752661995007e-01 9.6496028200914150e+00 1 1 0
1348 1 1.3784071263142383e-01 -2.9275346124967139e+00 8.2504311456104489e+00 1 1 1
913 1 1.1359106040019462e+01 -2.6127059056897042e+00 9.2139057181319011e+00 -1 0 3
1620 2 7.9723108371380400e+00 -2.2470222011617018e+00 1.8766411612371964e+01 -1 1 -2
1924 1 -1.9513425143184904e+00 -3.8211148370316965e+00 1.7005412223846861e+01 0 1 0
630 2 1.1465425595722497e+01 6.4497242386242082e+00 1.1438135044054954e+01 0 0 1
170 2 6.7611128940574439e+00 -1.0821018443238177e+00 1.5054453765163360e+00 -3 0 5
1514 2 4.3700620015473408e+00 -3.4734075916597611e+00 1.0340616872579595e+01 0 0 1
195 2 -1.7629753886687758e+00 5.9906028433042522e+00 1.0138655891634592e+01 -3 0 -4
1585 1 1.6079871721431829e+00 2.2292609792922367e+00 4.7483758634414652e+00 0 0 1
936 2 2.1856526937599434e+00 -3.5324773213978768e+00 7.9959147703410531e+00 -3 0 1
306 2 8.8641153009179909e+00 -4.8153495199775849e+00 1.0462193506190177e+01 0 0 -3
749 2 1.0638673322643831e+01 -7.6484295445668593e-01 3.7434279215357344e+00 -5 0 2
489 2 1.8481154799963826e+00 5.3555473435337415e+00 5.2818931446381896e+00 -4 0 1
643 1 -3.5808570405644549e+00 -1.1254632094223957e+00 1.3684194968786473e+01 -4 0 -1
1435 1 6.3513904080623984e+00 -4.1533545485948355e+00 6.4461042387174743e+00 1 1 -1
666 2 -4.4411602787679039e+00 3.2512228058590811e+00 1.3066464256077495e+01 4 0 3
1951 1 1.4971043330628980e+01 4.9856416435160185e+00 3.8292845406468601e+00 -2 1 0
1981 1 1.3146487702617964e+01 -1.0857586119689788e+00 8.2179616843936483e+00 0 1 0
502 1 5.1012951432473175e+00 3.4862831131982119e+00 1.6175978825810208e+01 0 0 0
979 1 7.4197510626261769e+00 -4.6287108138378219e+00 1.3244696571534272e+01 -3 0 -2
1947 2 1.4523309502540572e+01 -3.8673674754893406e+00 1.1009351330785482e+00 -1 1 1
914 2 1.0685168524847720e+01 -2.0035962438662018e+00 9.6183740577594019e+00 -1 0 3
618 2 3.1084785635101038e+00 -1.0389811069528241e+00 2.2610522772459594e+00 -2 0 -1
1033 1 -1.4621007270210917e-01 -2.1167817482331301e+00 3.8269119979532138e+00 0 0 -1
745 1 1.4816374862340066e+01 -2.1086332389608717e+00 6.3908569138553739e+00 -2 -1 0
1515 2 3.1432217615752585e+00 -2.5913979387765420e+00 1.1013661973549247e+01 0 0 1
629 2 1.0307161494748861e+01 6.3179801455090718e+00 1.2451999574559927e+01 0 0 1
1932 2 -3.0426974955241626e+00 -5.3597653874176050e+00 1.2159714270709445e+01 0 1 1
1546 1 4.7930470456359853e+00 5.4180090013306721e+00 8.8549246599187370e+00 -1 0 0
559 1 2.8321222571283147e+00 2.4465154303947045e+00 7.5404915740634171e-01 -1 0 0
756 2 8.1935933887656143e-01 2.7397711856354405e+00 8.6082739556722601e+00 0 0 3
733 1 7.8594395852657151e+00 -3.0486072637270829e+00 3.6867574424719978e+00 -3 0 1
276 2 8.8484907309121095e+00 4.3318548633998351e+00 4.7911317308887993e+00 2 0 2
1342 1 2.5637048659114621e+00 -2.7622989559036739e+00 1.6591250681098032e+01 -1 0 -2
1621 1 -2.5273179171524793e+00 8.6051758156481917e-02 1.1309668742950659e+01 2 0 1
1428 2 1.5804612398884840e+01 2.7855948951571872e+00 1.7992374169226006e+00 1 1 2
1035 2 -9.5563057952375385e-01 -1.8689384741450015e+00 3.3283062323534813e+00 0 0 -1
1733 2 4.0437518122429887e+00 5.6557940657952450e+00 1.3530783788678669e+01 1 0 0
272 2 1.1520041726795508e+01 2.2881349910853714e+00 1.3915141312406472e+00 -1 0 0
942 2 8.5188969638030816e+00 -1.4047478572219774e-02 4.6145878618848197e+00 1 0 3
240 2 7.8787742631522040e+00 2.1229967235600000e-02 1.5258876995344952e+01 -1 0 0
647 2 -6.0935892752110554e-01 -1.8683402001175535e+00 1.5131602865837134e+01 -2 0 -1
799 1 -4.3415802021628522e+00 -3.7565639399282649e+00 1.8459858055907784e+01 -1 0 -5
680 2 1.5868158871274400e+01 6.2772993020182639e+00 3.8980775735765292e+00 -5 0 -3
980 2 6.4973285699456618e+00 -4.1966927633281035e+00 1.3140481862585952e+01 -3 0 -2
1952 2 1.5202147631424882e+01 4.2296271595710628e+00 4.3737886623853095e+00 -2 1 0
1083 2 1.0274599528929052e+01 2.2404703595887714e+00 1.2810745862117024e+01 -2 0 -1
1853 2 6.5021274110707337e+00 2.9386749583987140e+00 7.7197821765160475e+00 -1 1 1
1081 1 1.0162486703601820e+01 3.1784877744441893e+00 1.2979153507584186e+01 -2 0 -1
1751 2 2.6105822664793994e+00 -3.2335254349621767e-01 1.2393672515902937e+01 -2 1 -2
1392 2 1.3987044120680214e+00 4.4861820630836551e+00 7.4912682921388383e+00 1 0 0
1368 2 1.0837030373536637e+01 -1.9862753808173945e+00 1.6141386115949913e+01 0 1 0
1344 2 2.9161354921555729e+00 -3.3778906243176308e+00 1.5981608881923169e+01 -1 0 -3
1457 2 1.0372464198912661e+01 -1.5821357790375030e+00 3.2125123284772417e-01 2 1 1
1488 2 -3.5390017237674254e+00 6.2148792310785819e+00 1.1786703492500084e+01 1 0 -1
473 2 -1.5003387489412310e+00 5.2509431968733598e+00 1.6127099407133283e+01 1 0 2
507 2 5.9479988840758384e+00 -2.1784800703195195e-01 1.6670883683492601e+01 -4 0 -4
1926 2 -2.8326184085192434e+00 -3.8514363825045250e+00 1.7430386961341053e+01 0 1 0
1648 1 5.1183426471017350e+00 5.9473851557542989e+00 2.8981844995955131e+00 1 0 0
238 1 8.0602509045481820e+00 -3.4898616011037564e-01 1.4364711294943652e+01 -1 0 0
659 2 1.2936824913549927e+00 6.7943230298412569e+00 1.7774696282397219e+01 1 0 -3
750 2 1.1580163617328587e+01 4.1691804517515862e-01 3.6174897925163321e+00 -5 0 2
992 2 1.2069417268658849e+01 -4.9329919470810930e+00 6.6284355078054640e+00 1 0 0
1016 2 -3.7151550422761925e+00 1.6167161184911025e+00 1.5019805467577427e+01 1 0 0
1234 1 1.5162625645936840e+00 -4.9336078836807964e+00 1.2031417262271045e+01 2 1 -1
72 2 1.3892926466131439e+00 6.8077232734345987e+00 3.0770925465201304e+00 -1 0 0
321 2 1.0693091612761140e+01 -3.3590508838379396e-01 1.2523619846923719e+01 -6 1 -2
757 1 -2.4174622031462256e-02 7.4314564243826862e+00 1.2456782850201877e+01 -3 0 -2
720 2 1.1648324429712876e+01 -5.5553412699056892e+00 1.4522843869771185e+01 -2 0 -3
505 1 6.8827156500015425e+00 1.2164816105777287e-01 1.6841456008313575e+01 -4 0 -4
284 2 1.5636789750192735e+01 -1.0106271665480069e+00 1.3192382552607498e+00 -1 0 4
386 2 1.4578156240165132e+00 -1.6548694313755945e+00 1.5966440348091265e+01 0 0 -4
463 1 1.5212524301661299e+01 -4.6061418267637659e+00 5.1373375419025331e+00 2 1 0
1557 2 2.5072421345012419e+00 5.7378770991642511e+00 1.0700308295034565e+01 -1 0 0
1747 1 1.3974646480597993e+01 -1.6066970352272865e+00 3.8049780677415312e+00 0 1 0
1375 1 7.6679804344466262e-01 3.1230458439084998e+00 1.6657837159830780e+01 2 0 -1
1367 2 1.0672616866573794e+01 -4.5635570497147260e-01 1.6298136041067718e+01 0 1 0
1284 2 -4.0710260747143963e+00 4.9333257119523246e+00 1.8010081577811356e+01 2 0 0
1722 2 -1.8117375415506354e+00 -5.2950065050646193e+00 1.6253888464802532e+01 1 1 0
26 2 5.3681639016593232e+00 -3.6043263327102171e-01 1.2312789098594147e+01 -4 0 -4
1930 1 -3.0699616367104094e+00 -4.4541830132203888e+00 1.1694707551222900e+01 0 1 1
1376 2 1.0920240356652426e+00 3.6904396989493513e+00 1.7387384968553807e+01 2 0 -1
1560 2 1.0707432369011933e+01 4.6012274811495981e+00 1.0621924434111186e+01 0 1 0
698 2 1.0006304484292979e+01 6.1479963915004276e+00 1.4677576303767550e+01 1 0 2
169 1 6.7047010318960822e+00 -2.8824522537890385e-01 2.0715749525713636e+00 -3 0 5
811 1 6.8362739370028986e+00 3.8120395775805047e+00 2.2205670843220551e+00 0 0 1
441 2 6.0918725198510373e+00 -8.8576868495744954e-01 6.6881922957906879e+00 -5 0 -1
784 1 4.9765428387175499e+00 1.9555377959333615e+00 2.0270573841342028e+00 -6 0 -4
1015 1 -4.2878816921697087e+00 9.5065343537717606e-01 1.5340143467471730e+01 1 0 0
65 2 1.4654793306772008e+01 2.6322727820937626e+00 5.5152944807654682e+00 -5 0 -5
1197 2 9.2840288443016430e+00 -4.5114363789335385e+00 7.6044059368098784e+00 -1 0 1
1533 2 2.7905002383465916e+00 7.4193688686147343e+00 1.3061594635452498e+00 -3 0 -1
1750 1 2.3792114349445521e+00 -7.8073187013460021e-01 1.1529000963784670e+01 -2 1 -2
1661 2 1.1753199483505473e+01 -6.0831839747284109e+00 8.8886779308174564e+00 0 0 2
1852 1 7.4545368229462188e+00 3.0581700915444792e+00 7.8480531777420701e+00 -1 1 1
396 2 4.1867309736311134e+00 2.4482672954364197e+00 1.2438231378490324e+01 -3 0 -3
993 2 1.1113582961505600e+01 -3.8557186923183147e+00 6.3387870240783570e+00 1 0 0
1513 1 3.4990089148127512e+00 -3.4965211416365101e+00 1.0881617361208916e+01 0 0 1
1454 2 7.6268512138518807e-01 -1.1458270207097856e+00 2.8267073698013507e+00 1 0 -1
1023 2 1.0244846531983031e+01 9.4909139648573593e-01 2.2446401978288247e-01 1 0 -1
2003 2 3.4777371767118868e+00 1.7026103854226138e+00 1.0208879567669007e+01 1 0 1
29 2 1.3054350635957675e+01 3.7468953252984907e+00 9.6536710984809808e+00 -4 0 -4
1008 2 6.3289994163021461e+00 2.4739121496274947e+00 1.3354719607841659e+01 0 0 -1
43 1 5.5982259559512642e+00 -4.1820290614748057e-01 1.0717419558497104e+01 1 0 1
1982 2 1.3807240692549794e+01 -1.5425340749416918e+00 7.6691560807413133e+00 0 1 0
1352 2 3.5701551541323502e+00 -2.9984212023725254e+00 2.1779580963527914e+00 -1 1 -1
957 2 1.4332621974414549e+01 6.6743553525308847e+00 1.1053238984584994e+00 -3 0 -2
1343 2 2.9274127408761883e+00 -2.8154817431844661e+00 1.7499221564228076e+01 -1 0 -3
198 2 -2.2132970260217308e+00 2.9541816689198566e+00 1.3255686022725293e+01 -4 0 -3
1854 2 7.7371055431809328e+00 3.8489186084259348e+00 7.3753896667528469e+00 -1 1 1
873 2 -5.0942757489149715e+00 5.3858457641856958e+00 1.6371609684355153e+01 -2 0 -2
779 2 -3.4290132362207848e-01 1.8708525423871638e+00 2.0567401322661496e+00 0 0 -1
1619 2 9.1607865103567292e+00 -1.6861642269368060e+00 1.7816819441071502e+01 -1 1 -1
156 2 1.0677756661516430e+01 1.4431457441490112e+00 1.4743221078009171e+01 1 0 -3
1427 2 1.5577778245007487e+01 2.2717890855897860e+00 3.2168621108759297e+00 1 1 2
1350 2 -1.5790320813505954e-01 -2.4172103765112456e+00 7.4692812843521352e+00 1 1 1
155 2 1.2022593634090374e+01 1.2931324796246741e+00 1.5570444827608721e+01 1 0 -3
1734 2 2.9034700160476312e+00 4.6009656923812461e+00 1.3826148928556927e+01 1 0 0
234 2 1.3213013023617460e+01 -3.0571167977795199e+00 3.4229242851685058e+00 -2 0 1
55 1 -3.5567970238647284e-01 1.3398711895683535e+00 6.3668844930776398e+00 -2 0 3
1487 2 -2.3512589019421055e+00 5.3299540960932674e+00 1.2280379726559964e+01 1 0 -1
325 1 1.2171549679730500e+01 -3.7902150260860887e+00 1.1357893618329326e+01 1 0 -2
1196 2 1.0030492368577567e+01 -3.3898287771989710e+00 8.2391420667913700e+00 -1 0 2
644 2 -2.8350625983503774e+00 -1.6165727589175267e+00 1.4029182897424821e+01 -4 0 -1
468 2 2.0957641859103173e+00 4.7382419119071741e+00 1.8900129161996094e+01 -1 0 4
27 2 6.5891299341171434e+00 -4.0999735032327411e-01 1.3505421786542206e+01 -4 0 -4
39 2 7.7233134516290729e+00 1.7732884277529335e+00 9.3601738289045784e+00 -3 0 -3
308 2 9.8061746987487801e+00 3.5108934399634251e+00 1.7905857138635223e+01 1 0 1
758 2 -1.9220231961728729e-01 6.4910572247653135e+00 1.2510670826257197e+01 -3 0 -2
918 2 1.1170648103083064e+01 -5.0563074842437352e+00 7.5430321758168684e-01 1 0 4
916 1 1.1809655939109323e+01 -4.3761529553525342e+00 9.5875365635157683e-01 1 0 4
319 1 9.8505097787814897e+00 2.5215080336996643e-01 1.2515484938070404e+01 -6 1 -2
687 2 7.1721178583403278e+00 -3.5414859869165514e+00 6.8602535781205376e-01 -2 0 2
592 1 -7.6767034765458675e-01 -3.3627158092672325e+00 1.2513040318054907e+01 -2 0 -1
25 1 5.6121899599196041e+00 -5.5800048038021899e-01 1.3263038501057677e+01 -4 0 -4
466 1 7.9389738741723157e+00 5.1575442362776958e+00 1.3269013608222896e-01 -1 0 5
439 1 5.3220043489259172e+00 -9.1507258727848662e-01 6.0978218493793861e+00 -5 0 -2
888 2 8.9908280024535792e+00 -2.2901718372437485e+00 1.0639840473784046e+01 0 0 0
273 2 5.5231485057887726e+00 2.1269195176981146e+00 1.9038793067493238e+01 -1 0 0
317 2 4.5781440036876395e+00 1.8574588249676189e+00 3.8788422100819222e+00 0 0 0
326 2 1.3178119504206030e+01 -3.8765071400141031e+00 1.1335000989799434e+01 1 0 -2
664 1 1.2818222918318689e+01 3.8578933449878345e+00 1.2709765548440521e+01 3 0 3
525 2 1.0019729734826374e+01 -4.5262549028447143e+00 1.7348488903563315e+01 -1 0 -3
851 2 1.0717712656051789e+01 5.8873849964461709e+00 4.7497536921569612e+00 0 0 1
171 2 7.4350869921094418e+00 -2.7060049816208487e-01 2.6587266957288485e+00 -3 0 5