LAMMPS data file via write_data, version 3 Mar 2020, timestep = 1000000

1008 atoms
2 atom types

2.2381317998317840e-01 1.8175741820010362e+01 xlo xhi
4.7792745437977402e-02 2.2522596254556817e+01 ylo yhi
1.5381355525703810e-01 1.9351902444741089e+01 zlo zhi
6.7526733514413809e-02 -6.6327107709526656e+00 -3.3181706121578065e-02 xy xz yz

Masses

1 16
2 2

Atoms # atomic

1 1 6.4637423145592479e+00 1.4852361121439754e+00 4.6845612536100676e+00 0 0 0
189 2 2.0557270429818812e+00 1.0611316309669290e+01 7.9633349987243307e-01 0 0 0
3 2 6.4235296117100908e+00 1.7992684278410733e+00 3.7795411479759111e+00 0 0 0
4 1 3.8160218253627849e+00 9.4395440866876368e-01 5.0680110182171214e+00 0 0 0
5 2 4.7928075919278896e+00 8.8444278939974597e-01 4.9054416460039194e+00 0 0 0
6 2 3.6641456341926446e+00 1.4388598940074822e+00 5.8911374407424786e+00 0 0 0
7 1 -3.9019456928196150e-01 6.3264130951928070e+00 5.3622122294564161e+00 0 0 0
8 2 -5.9458671259278151e-01 5.7030102039807353e+00 6.0670545656215085e+00 0 0 0
9 2 -1.0139013334939726e+00 7.0779713908843069e+00 5.2974480713347329e+00 0 0 0
10 1 2.1201680832715510e+00 6.1120746143407230e+00 4.7807823478005620e+00 0 0 0
11 2 1.2132585270397342e+00 6.3574144397882941e+00 4.9117262108343631e+00 0 0 0
12 2 2.5881267237381951e+00 6.9360204176577875e+00 4.9102214662886317e+00 0 0 0
83 2 2.2130402905905253e+00 5.5525294169634467e+00 1.1047282683429083e+00 0 0 0
399 2 8.0298971520981315e+00 2.7130897702163376e-01 1.2407584565123093e+00 0 0 0
151 1 6.5905273566998206e+00 6.3526629351911890e-01 8.0186126563149394e+00 0 0 0
156 2 1.1947575162762387e+01 4.6579630108090131e-01 1.8539555905584861e+00 0 0 0
18 2 5.5636058707151452e+00 5.0173207941070466e+00 1.2274898633094904e+00 0 0 0
775 1 7.0013809013184165e+00 1.0462243655890093e+01 9.5948141553656026e+00 0 0 0
331 1 1.5962658825247232e+01 9.0304679382350681e+00 4.1027081229106893e-01 0 0 0
21 2 1.4187623551492092e+00 2.2739786954332195e+00 1.0651699104436170e+00 0 0 0
167 2 1.0985043476659618e+01 6.0635520462713997e+00 8.5928370141915356e-01 0 0 0
237 2 1.4967880789305726e+01 7.6839161513946159e+00 7.9762655261288540e+00 0 0 0
13 1 4.9739328348213050e+00 4.7875543179761895e+00 9.5601895900602631e+00 0 0 0
25 1 4.7058600187889095e+00 6.6034442341321515e+00 7.1743324269191069e+00 0 0 0
26 2 5.3992475580319352e+00 7.2028913058667881e+00 7.5196736055508007e+00 0 0 0
27 2 3.8692400070793154e+00 6.7940300969633043e+00 7.5997271819945666e+00 0 0 0
28 1 5.9056439950201671e+00 6.3179889158157261e+00 2.4109440341990891e+00 0 0 0
29 2 5.9358784432381242e+00 6.1464835578978958e+00 3.4025904362759629e+00 0 0 0
30 2 5.2170599613714552e+00 7.0248934999958097e+00 2.3473642241105845e+00 0 0 0
31 1 1.4771790004239751e+00 9.9462784090087564e-01 2.6890893067656858e+00 0 0 0
401 2 1.5537280763630066e+00 1.0616872580487471e-01 8.0523864716612010e+00 0 0 0
33 2 1.1323017933466533e+00 1.3442563415304887e+00 3.4975888911509183e+00 0 0 0
34 1 2.6421705382154448e-01 1.0832448052110453e+00 7.5717124061568901e+00 0 0 0
35 2 -7.0192873490770857e-01 8.0395874239643561e-01 7.5717087717473275e+00 0 0 0
36 2 3.7959883281684803e-01 1.7690808905494886e+00 8.2411203838624587e+00 0 0 0
37 1 6.1113736330130655e+00 2.7525146575998698e+00 2.3653902130280930e+00 0 0 0
38 2 5.3031027346624313e+00 3.1741792408908149e+00 2.7443065574647458e+00 0 0 0
39 2 6.8469132467628127e+00 3.2883013547013196e+00 2.5979023143757933e+00 0 0 0
40 1 4.0478428316589774e+00 2.4454386520070117e+00 7.4182698310761763e+00 0 0 0
41 2 4.9482126161115012e+00 2.7637130469198610e+00 7.2603737050840182e+00 0 0 0
42 2 3.4350713032824314e+00 3.1990644981947338e+00 7.2137218575050763e+00 0 0 0
43 1 -6.3547721317971839e-01 4.7183981175808656e+00 7.4560100076537603e+00 0 0 0
44 2 -1.4660352253467730e+00 4.1258721629483510e+00 7.3256345160594361e+00 0 0 0
45 2 -7.9754849184582355e-01 5.1653282558120797e+00 8.2953576861663443e+00 0 0 0
46 1 1.6319370821708996e+00 4.4461197384200402e+00 2.5330155027426997e+00 0 0 0
47 2 7.1289722745600415e-01 4.1948247184068963e+00 2.7478043664557976e+00 0 0 0
48 2 1.7325389834491380e+00 5.1771248362271152e+00 3.1770418335934454e+00 0 0 0
49 1 6.5521987873648699e+00 3.5120121265139606e+00 6.3562576591993416e+00 0 0 0
50 2 6.0324581910783062e+00 4.2040529636297812e+00 5.9266308155071004e+00 0 0 0
51 2 6.5961237995107451e+00 2.7992673586695616e+00 5.7003510438610272e+00 0 0 0
52 1 3.8248832694259489e+00 3.2563486834940409e+00 3.5531723488468661e+00 0 0 0
53 2 2.9461324518945586e+00 3.4815841838753605e+00 3.2141442863081466e+00 0 0 0
54 2 3.7695023357546305e+00 2.4079247255705991e+00 4.0356747918646985e+00 0 0 0
55 1 1.6963825781245362e+01 4.0418522283238563e+00 3.5570299384906985e+00 -1 0 0
56 2 1.6595159716948320e+01 4.8574566326375797e+00 3.9817998691793428e+00 -1 0 0
57 2 -5.6607143875911448e-01 3.5663650045298088e+00 4.2854855204068150e+00 0 0 0
58 1 2.0324979979464772e+00 4.2099258539815345e+00 6.8005667253631170e+00 0 0 0
59 2 2.0439091502268303e+00 5.1016743836556024e+00 6.3731457382602281e+00 0 0 0
60 2 1.1669611719436470e+00 4.2183858677083510e+00 7.2052298444208480e+00 0 0 0
61 1 8.2888558143199766e+00 6.9012800139311992e+00 1.3602183488336648e+00 0 0 0
62 2 7.4439534229943263e+00 6.6458254832026666e+00 1.8191646507507326e+00 0 0 0
63 2 8.5385160143975884e+00 6.2367041760994795e+00 7.7379997675026480e-01 0 0 0
64 1 2.3875675321563552e+00 6.8819704372655863e+00 8.4986144796389560e+00 0 0 0
65 2 1.4697711856800328e+00 7.1948500066072461e+00 8.3506395894023822e+00 0 0 0
66 2 2.6898588604068996e+00 7.7270276560906819e+00 8.9168068524252337e+00 0 0 0
304 1 1.2836792667629203e+01 1.0746672285162731e+01 3.5417326413104142e+00 0 0 0
68 2 -2.3707220934348254e+00 1.2386425415337605e+00 8.8998186614031773e+00 0 0 0
836 2 1.3032828348397880e+01 9.2453788796837113e+00 9.1843255938478752e+00 0 0 0
72 2 4.1965954537687296e+00 9.4548194308679612e-01 9.6199760831193015e-01 0 0 0
73 1 5.2788444624899098e+00 5.3065888384132593e+00 4.6500606318603994e+00 0 0 0
74 2 4.7894044642491531e+00 5.6578183691785355e+00 5.4363188627686609e+00 0 0 0
75 2 4.6479961657940034e+00 4.6708534213463908e+00 4.3351077273050791e+00 0 0 0
76 1 5.3268669660723611e-01 2.2714429963667508e+00 5.1987126784572331e+00 0 0 0
77 2 2.9372159862881775e-01 1.6121305992446919e+00 5.8683830287497942e+00 0 0 0
78 2 1.2933867923651157e+00 2.8129708919739387e+00 5.5034489815936558e+00 0 0 0
80 2 6.5251657343319112e+00 1.6285230686889447e+00 8.8773818747935729e-01 0 0 0
293 2 1.2704100558380670e+01 1.0978521717394505e+01 7.3593250037222013e+00 0 0 0
67 1 -2.1343924924225322e+00 4.4310447039509560e-01 8.3330122177065800e+00 0 0 0
85 1 1.5739250547038587e+01 1.1392577745388142e+00 4.5315290997001911e+00 0 0 0
87 2 1.5535036948321268e+01 1.3580447911936395e+00 3.6066571356604888e+00 0 0 0
88 1 1.2663062689068752e+01 1.0956511819441805e+00 4.9659085088355406e+00 0 0 0
89 2 1.2313687202109973e+01 1.7471736135737079e+00 4.3161169949773459e+00 0 0 0
90 2 1.3592935890384561e+01 8.9610391340049256e-01 4.6826114599142796e+00 0 0 0
91 1 8.4021626957810600e+00 6.6987272162486162e+00 5.0688477517396366e+00 0 0 0
92 2 8.2709072581466767e+00 5.8518854422231303e+00 4.5759698076455964e+00 0 0 0
93 2 9.4025358032808963e+00 6.8039662062748709e+00 4.9826805568519452e+00 0 0 0
94 1 1.0945240549975953e+01 6.4963995540341513e+00 4.9654505773599418e+00 0 0 0
95 2 1.1680382094176053e+01 7.0836398400135403e+00 5.1897333253116322e+00 0 0 0
96 2 1.1080041515569532e+01 5.6661829495437690e+00 5.5382238760403739e+00 0 0 0
586 1 -7.8798619508396106e-01 6.0799199729642615e+00 9.7267988997168526e+00 0 0 0
135 2 1.5532314886533552e+01 2.1280847177089401e+00 5.8642654591001611e+00 0 0 0
117 2 9.9449499836341069e+00 4.2292172635186481e-01 2.1334010626357589e+00 0 0 0
101 2 1.4577309632786053e+01 4.9509851042234754e+00 1.0839133439640349e+00 0 0 0
254 2 1.5919701916440593e+01 9.2670708203652250e+00 5.5981668030519032e+00 0 0 0
69 2 1.5020154750479181e+01 5.4937094444673422e-02 7.8612863178518895e+00 0 0 0
671 2 8.2864569713145499e+00 5.4953623465568198e+00 9.0382580173262355e+00 0 0 0
485 2 1.0551888587184003e+01 1.8780737835314823e-01 7.8170332903309596e+00 0 0 0
109 1 1.3893055407369665e+01 6.5434896238473224e+00 7.2768650929598131e+00 0 0 0
110 2 1.3967600827095051e+01 5.8090762090005086e+00 7.8945761525730607e+00 0 0 0
111 2 1.3005902674078794e+01 6.8239293152347864e+00 7.3981618874141537e+00 0 0 0
112 1 1.4835689071636425e+01 6.2341176154218862e+00 2.5999297463051656e+00 0 0 0
113 2 1.4153762102283487e+01 6.9094560006726402e+00 2.2736275934640910e+00 0 0 0
114 2 1.5686531500309753e+01 6.5844177403938531e+00 2.3056566666183507e+00 0 0 0
115 1 1.0628839878604463e+01 1.0878379297266616e+00 2.4825099222341120e+00 0 0 0
116 2 1.0566658402546297e+01 1.9082276883416218e+00 1.9331726253280139e+00 0 0 0
612 2 1.1981799216493105e+01 2.9754440555476274e+00 3.9043159164950331e-01 0 0 0
118 1 9.0635720853952311e+00 1.2685523887311523e+00 7.3259665274351207e+00 0 0 0
119 2 9.3908141190964436e+00 1.9572834089901159e+00 7.9187449816749851e+00 0 0 0
120 2 9.1923041633495455e+00 1.5513039744613932e+00 6.3867179411002413e+00 0 0 0
121 1 1.4839444453351955e+01 2.5197687168558631e+00 2.4348470318682613e+00 0 0 0
122 2 1.5415788622484895e+01 3.1939694632766269e+00 2.9029659377535451e+00 0 0 0
123 2 1.5307700804497570e+01 2.2485128605157567e+00 1.6191393942154291e+00 0 0 0
124 1 1.2848778569539798e+01 2.4493032699707191e+00 7.4781195015143211e+00 0 0 0
125 2 1.3697454818798159e+01 2.8882430490348368e+00 7.1142742611339180e+00 0 0 0
126 2 1.2729847397912394e+01 1.8047612858712596e+00 6.7081525253490923e+00 0 0 0
127 1 8.6457499193748859e+00 5.0533211993443343e+00 7.3614333446304201e+00 0 0 0
128 2 8.0421383997394127e+00 4.2639071002808331e+00 7.1974578709552057e+00 0 0 0
129 2 8.4027928570588664e+00 5.6975231484824294e+00 6.6645849659703522e+00 0 0 0
130 1 1.0773650321355165e+01 5.2581094951283012e+00 2.5168589993683970e+00 0 0 0
131 2 1.1383627203500788e+01 4.5207183922850671e+00 2.7818348079133552e+00 0 0 0
132 2 1.0846583881401106e+01 5.9772604083153862e+00 3.1265735727995350e+00 0 0 0
134 2 1.5097744538930099e+01 3.6106627357907040e+00 5.6952010726480085e+00 0 0 0
136 1 1.2391728664106017e+01 3.2932405206951172e+00 3.3947043382214299e+00 0 0 0
137 2 1.2820333553209400e+01 3.7926007055149089e+00 4.0677339504591163e+00 0 0 0
138 2 1.3138104040027326e+01 2.9952121056581276e+00 2.7973888826018221e+00 0 0 0
139 1 8.2159698570595161e+00 4.2995954606235056e+00 3.3535789022195921e+00 0 0 0
140 2 9.0776798118924287e+00 4.6152619276004545e+00 2.9687175036286364e+00 0 0 0
141 2 8.6031831300428330e+00 3.6230903295567143e+00 3.9081037541463934e+00 0 0 0
142 1 1.0888966103084048e+01 3.9631210238853805e+00 6.2831494505128420e+00 0 0 0
143 2 1.1504814534317227e+01 3.4449109317648809e+00 6.7514862694022177e+00 0 0 0
144 2 1.0202819745089911e+01 4.3120803479898067e+00 6.8392925678614525e+00 0 0 0
147 2 1.7150434892743018e+01 7.6517005628917136e+00 1.1243620357906337e+00 0 0 0
148 1 1.1534490877027668e+01 7.2171370307876561e+00 8.1871266303917469e+00 0 0 0
149 2 1.1154640674140065e+01 6.4169327147174373e+00 8.6310432853539378e+00 0 0 0
150 2 1.1939071210818156e+01 7.8228411866436849e+00 8.8556798788324329e+00 0 0 0
100 1 1.4631192894999712e+01 4.6360673368214540e+00 1.6367320813264002e-01 0 0 0
152 2 7.4153256237346916e+00 9.7396304722244864e-01 7.6771132194426164e+00 0 0 0
153 2 6.5116782544197331e+00 1.3670020644375103e+00 8.6746502946918600e+00 0 0 0
668 2 1.2543760734196688e+01 2.0646513487996754e+00 9.1128181013395189e+00 0 0 0
155 2 1.3172871690564511e+01 9.3256637943160703e-01 1.0671820005933861e+00 0 0 0
165 2 1.6799637214279016e+01 1.0756286231575420e+00 6.2809610853396403e-01 0 0 0
157 1 1.4371578206392005e+01 4.9973017739505945e+00 4.9500112289512010e+00 0 0 0
158 2 1.4409477238675619e+01 5.5235310739150574e+00 4.1299900813600878e+00 0 0 0
159 2 1.4158424158183289e+01 5.5614049974659387e+00 5.7731380140611659e+00 0 0 0
160 1 9.4541616208129025e+00 2.2138121593339322e+00 4.7865356394170773e+00 0 0 0
161 2 1.0102532645873609e+01 2.7957445520533559e+00 5.2345119567974585e+00 0 0 0
162 2 9.8162329672022146e+00 1.8745671634116785e+00 3.9277059978014734e+00 0 0 0
585 2 3.9518774248905797e+00 1.9180107139389773e+00 9.0968641985860934e+00 0 0 0
188 2 9.4144625024997586e-01 9.5929646028792988e+00 2.9926068578543108e-01 0 0 1
169 1 6.5495336084220721e+00 8.8250192330773896e+00 4.6090970426879920e+00 0 0 0
170 2 7.2075020152242857e+00 8.1640815895181422e+00 4.8211206141080742e+00 0 0 0
171 2 6.7994395467809516e+00 9.6763842847664918e+00 5.0647782299240074e+00 0 0 0
172 1 3.6571534386492992e+00 8.7137582230458115e+00 4.9364913214625785e+00 0 0 0
173 2 3.6792850849365486e+00 9.5626551131454889e+00 4.3813469871231918e+00 0 0 0
174 2 4.6007724494493907e+00 8.4139953550775211e+00 4.8025017178503067e+00 0 0 0
780 2 1.2921415830958029e+01 9.5900308716823428e+00 5.4071555272658223e-01 0 0 0
302 2 1.5077117570336080e+01 1.0457046218173476e+01 7.1661372094628994e+00 0 0 0
32 2 2.4213887605678677e+00 7.9400800957656759e-01 2.7981383550433017e+00 0 0 0
192 2 5.0861062639690768e-01 9.7055686102894150e+00 9.0979861958144390e+00 0 0 0
199 1 1.3979426715356431e+00 8.6195735477671835e+00 3.0391356864152659e+00 0 0 0
200 2 1.1702402033512782e+00 9.3481395665210414e+00 2.3645654248990309e+00 0 0 0
201 2 7.9073830733785810e-01 7.8774035176811736e+00 2.8510208640697434e+00 0 0 0
202 1 3.6269012536177314e-01 8.7059602281686121e+00 7.7156158268600352e+00 0 0 0
203 2 -6.1258286628368541e-01 8.5001204372444317e+00 7.9438157317890381e+00 0 0 0
204 2 3.8048749702151419e-01 9.1399710996221071e+00 6.8617619878039546e+00 0 0 0
205 1 6.5436910127685382e+00 1.0169213230975865e+01 2.3441179824536302e+00 0 0 0
206 2 6.8287001949241954e+00 9.5226374647098595e+00 3.0385653388592080e+00 0 0 0
207 2 6.7323386502478995e+00 9.8557104526713513e+00 1.4306878466398194e+00 0 0 0
208 1 4.4767351975696483e+00 1.0120785806586886e+01 7.2736118826456959e+00 0 0 0
154 1 1.2828013015070821e+01 1.7297463927833115e-01 1.4648537829282802e+00 0 0 0
210 2 4.4106159972869765e+00 9.3746387533379476e+00 6.6624329737956964e+00 0 0 0
221 2 4.8556316754503266e+00 1.0621191413112710e+01 3.1506336954221199e+00 0 0 0
305 2 1.2138209914312961e+01 1.1095270183551371e+01 3.0155457346160719e+00 0 0 0
14 2 4.9916490804854767e+00 5.3339769283226319e+00 8.7852108260815207e+00 0 0 0
103 1 1.0278893391493016e+01 2.7668083146889888e+00 5.0781816667818891e-01 0 0 0
133 1 1.5418424456605589e+01 3.0074517405056294e+00 6.3689145229221689e+00 0 0 0
235 1 -2.3114339898366443e+00 8.1386663721595429e+00 8.5042042956431292e+00 0 0 0
309 2 7.7386092616975235e+00 1.1208453821207010e+01 2.7276744996443556e+00 0 0 0
238 1 3.8779664532341807e+00 8.1138766942985079e+00 1.6741658291812571e+00 0 0 0
239 2 3.0316690819503544e+00 8.1811267948246940e+00 2.2334498540731396e+00 0 0 0
240 2 4.0593134076802215e+00 9.0150466755923073e+00 1.2023334682480546e+00 0 0 0
244 1 5.4341020707293852e-01 9.8999853389571388e+00 5.3298419657029008e+00 0 0 0
245 2 8.4157574464531981e-01 9.2142260609320790e+00 4.6184389885555186e+00 0 0 0
246 2 1.3716549750187887e+00 1.0384179437105480e+01 5.5998233381172051e+00 0 0 0
104 2 9.7507454785656744e+00 3.5703380793714681e+00 5.2854759105005966e-01 0 0 1
587 2 -1.5923032603390630e+00 6.5775068037540390e+00 9.4550580085621476e+00 0 0 0
253 1 1.5940810063473693e+01 8.5388176293359344e+00 4.9313604883382203e+00 0 0 0
255 2 1.5745939532018143e+01 9.0753055500777453e+00 4.1725894087963997e+00 0 0 0
256 1 1.2867701039786235e+01 8.3738049665517611e+00 5.1031960708672246e+00 0 0 0
257 2 1.3836987934703348e+01 8.1897057156065483e+00 4.9548482616092961e+00 0 0 0
258 2 1.2723125029296272e+01 9.1239645001076486e+00 4.6030465916802425e+00 0 0 0
301 1 1.5793905380495296e+01 1.0725548446591155e+01 6.5619788827936443e+00 0 0 0
272 2 9.8224319009137080e+00 9.5983919985372950e+00 1.1167046082697998e+00 0 0 0
696 2 4.5629570334281091e+00 1.1198284135248217e+01 4.0794012568672278e-01 0 0 1
276 2 9.9427746975620508e+00 1.0014511083030230e+01 8.6829850897364800e+00 0 0 0
283 1 1.0180862185954089e+01 8.2897548898908990e+00 2.3178376000926093e+00 0 0 0
284 2 1.0088795680239077e+01 8.6140844241781735e+00 3.2320620562373596e+00 0 0 0
285 2 9.3368332173576984e+00 7.7631819769066617e+00 2.1425428017548267e+00 0 0 0
286 1 9.3228080850022703e+00 8.8839411254425826e+00 7.3163592532313482e+00 0 0 0
287 2 9.9783459707801665e+00 8.1694025757209641e+00 7.5354650287715508e+00 0 0 0
288 2 8.4240713900672244e+00 8.5645125266611739e+00 7.5292827880071815e+00 0 0 0
289 1 1.5417630325418026e+01 1.0132064675222006e+01 2.7665248738594039e+00 0 0 0
86 2 1.6243472329304648e+01 3.1598418802746442e-01 4.4733563823156590e+00 0 0 0
291 2 1.5701247001543196e+01 9.5997511372480258e+00 2.0689708823677440e+00 0 0 0
292 1 1.3104301893288415e+01 1.0147630023441062e+01 7.6780037081120165e+00 0 0 0
79 1 6.9417749404310589e+00 1.0217381034685034e+00 2.8945215995247081e-01 0 0 1
294 2 1.2674548975305296e+01 9.5598494581942504e+00 6.9892861862352396e+00 0 0 0
274 1 9.9067484873975289e+00 1.0340915794373945e+01 9.6129360567537265e+00 0 0 0
187 1 1.1162417843828984e+00 1.0330618670692113e+01 9.1214027305741274e-01 0 0 0
306 2 1.3419227771282701e+01 1.0231117270422812e+01 2.9055885221357780e+00 0 0 0
217 1 7.0296671367938632e+00 1.0831190532969291e+01 6.2584487620087943e+00 0 0 0
319 1 6.8308350147649239e+00 8.0006174314785650e+00 8.2274537106380699e+00 0 0 0
320 2 6.7503785169615416e+00 8.8347163412924630e+00 8.6497729372729424e+00 0 0 0
321 2 7.0291847441268640e+00 7.2924287913667296e+00 8.9462250360119242e+00 0 0 0
322 1 1.2849181930879697e+01 7.9695022620645641e+00 1.7646029034913604e+00 0 0 0
323 2 1.1993429841476194e+01 8.0006329453886842e+00 2.2671021613387503e+00 0 0 0
324 2 1.2495149535963943e+01 7.5412301342179324e+00 9.4687871605852203e-01 0 0 0
328 1 1.0022261313854557e+01 9.7782931067128160e+00 4.7911298796062676e+00 0 0 0
329 2 9.6720549043107233e+00 9.3081256939048487e+00 5.6105072599479699e+00 0 0 0
330 2 9.3894813940673245e+00 1.0456036479180280e+01 4.4331757066002186e+00 0 0 0
2 2 7.1965057064695044e+00 8.9539762735633721e-01 4.8047512674160888e+00 0 0 0
220 1 4.0828188713574214e+00 1.1021950728614991e+01 3.5446425520959526e+00 0 0 0
236 2 -2.7289313700903248e+00 8.8137347979346945e+00 8.9708609974402833e+00 0 0 0
146 2 1.7492401797426023e+01 6.1344225938865984e+00 1.1745252164495856e+00 0 0 0
99 2 1.2939799619853911e+01 4.4453228286163915e+00 9.3492915090284274e+00 0 0 0
584 2 2.9212002201270391e+00 7.5365220615666328e-01 9.4215231630732585e+00 0 0 0
311 2 1.1009804738569560e+01 1.1263661725647079e+01 5.8964747665851478e+00 0 0 0
17 2 5.0628201265626878e+00 3.9490466056264815e+00 1.9500270892758315e-01 0 0 0
145 1 1.7383254055879803e+01 6.9467388850456731e+00 1.7676518603553280e+00 0 0 0
753 2 4.0571510242955879e+00 9.5267387901757203e+00 9.0414294098010295e+00 0 0 0
290 2 1.6124514290939914e+01 1.0763735951660539e+01 2.9588069653556563e+00 0 0 0
97 1 1.3867610485663398e+01 4.7231203450319104e+00 9.2259356341510887e+00 0 0 0
219 2 6.2244384198192204e+00 1.0727881833827078e+01 6.8016186181875167e+00 0 0 0
209 2 3.8060651178142990e+00 1.0801638106358672e+01 6.9427947660636109e+00 0 0 0
70 1 3.8529133503985271e+00 2.3106027519662078e-01 1.5596545502686532e+00 0 0 0
521 2 2.2006565264440239e+00 5.4423394771904103e+00 9.3964601231707512e+00 0 0 0
224 2 -8.5532330067598084e-02 1.1089549866027205e+01 4.2714128393573931e+00 0 0 0
777 2 6.4474065196981920e+00 1.1262668818693642e+01 9.5587452461242659e+00 0 0 0
604 1 1.1162709061844296e+01 4.9107638566416263e+00 9.7094433144464336e+00 0 0 0
776 2 7.9531475782408387e+00 1.0787988151628374e+01 9.6525440694591467e+00 0 0 0
82 1 2.4689473497786891e+00 6.0470600997327209e+00 3.0905103815160623e-01 0 0 1
248 2 7.8742293117251183e+00 8.3453319230713614e+00 2.3443642124171332e-01 0 0 0
84 2 3.0997101550772492e+00 6.6812373023301905e+00 6.5308427056668816e-01 0 0 0
16 1 5.5503346571893086e+00 4.7994881436572303e+00 2.8160235224223346e-01 0 0 0
271 1 9.9709910778617541e+00 1.0246799934337064e+01 4.3424206840308610e-01 0 0 0
486 2 1.1706835776565676e+01 5.5437698127919599e-01 8.8512043781835033e+00 0 0 0
606 2 1.0591735013568295e+01 4.1102914932857653e+00 9.6497967668561291e+00 0 0 0
694 1 3.8443491753506414e+00 1.0530427881508336e+01 4.2693588286210321e-01 0 0 1
524 2 -2.7757890041362385e+00 3.2378355016749998e+00 9.5729293522143770e+00 0 0 0
15 2 4.0075610667816370e+00 4.5589509409782742e+00 9.6997271876323214e+00 0 0 0
273 2 1.0921201472626953e+01 1.0491205326214766e+01 5.1552982805155279e-01 0 0 1
19 1 1.1590255805091334e+00 2.5756428518103562e+00 1.5739901056657571e-01 0 0 0
832 1 6.7567031674226081e+00 1.0335899115859482e+01 1.4354153425103624e+01 0 0 0
583 1 3.6499874782145931e+00 1.2976446894573423e+00 9.7924510010830002e+00 0 0 0
536 2 -2.8271134442507577e+00 5.0166427796960789e-01 1.1933892176537835e+01 0 0 0
603 2 1.1287174987538069e+01 5.0493328634500232e+00 1.8169838554937019e+01 0 0 0
249 2 1.0008385316998911e+00 9.4879427465690398e+00 1.8419756934891861e+01 0 0 0
607 1 6.7101016204821704e+00 2.5987835647184387e+00 9.9098632967380311e+00 0 0 0
24 2 -1.9430200240194084e-01 2.9327943051643426e+00 9.8119451212720943e+00 0 0 0
749 2 -1.8518287257221613e+00 1.0797056566147495e+01 1.4724130299908397e+01 0 0 0
794 2 1.2588181945307618e+01 1.0580037426042837e+01 1.2442434420015884e+01 0 0 0
691 1 -2.5930182876875714e+00 1.0282672933526351e+01 1.0067235685146887e+01 0 0 0
778 1 5.9885505026935810e+00 1.0370777199514881e+01 1.9264919791365070e+01 0 0 0
190 1 5.4402752720277237e-01 1.0267848518417395e+01 9.9287315741221267e+00 0 0 0
692 2 -3.1169736637256995e+00 1.1083256042564615e+01 9.9750822196069802e+00 0 0 0
333 2 8.6998569689993168e+00 8.3715687581566041e+00 1.9200485697400858e+01 0 0 0
672 2 8.7754233464245619e+00 6.6195590599499274e+00 9.9933382167778042e+00 0 0 0
191 2 6.8134396761399962e-01 9.5725412054126515e+00 1.0571058235901310e+01 0 0 0
81 2 -3.7628359168153036e-01 5.7728305055059992e-01 1.8918611398546311e+01 0 0 0
164 2 8.8858976244975345e+00 9.3983148583562970e-01 1.8896946292312201e+01 0 0 0
505 1 3.3534444705570721e+00 9.5934812555529636e-01 1.4241799038346459e+01 0 0 0
506 2 3.5202336872397701e+00 1.6403234243180698e+00 1.4942423707729455e+01 0 0 0
693 2 -1.6471416346630265e+00 1.0434932873921037e+01 1.0120768568196949e+01 0 0 0
508 1 5.9800007775622710e-01 1.2194390707150944e+00 1.4827312839400795e+01 0 0 0
835 1 1.2977859222610183e+01 8.6651770139278916e+00 9.9532579882220293e+00 0 0 0
510 2 1.4103343556112149e+00 9.8122990096194362e-01 1.4436955574588580e+01 0 0 0
511 1 -3.7454997090787616e+00 6.4906793118914887e+00 1.4913179289340199e+01 0 0 0
512 2 -3.8192297088827276e+00 5.8287712633414985e+00 1.4183699597306664e+01 0 0 0
513 2 -4.0089844160635995e+00 5.9832096445158047e+00 1.5700960402387604e+01 0 0 0
514 1 -7.9150522574744242e-01 6.4357785758497723e+00 1.4422260773901883e+01 0 0 0
515 2 -8.4367049885849532e-01 5.5967743768775025e+00 1.4948786648650310e+01 0 0 0
516 2 -1.6608663661330088e+00 6.7838026921710428e+00 1.4594660508979695e+01 0 0 0
332 2 9.6217364719100580e+00 9.4941840545081551e+00 1.8820976941509723e+01 0 0 0
519 2 1.7951315145683031e+00 4.7004847064790214e+00 1.7958168173131217e+01 0 0 0
728 2 -3.5404458193022936e+00 1.0997649506893113e+01 1.3525924991032838e+01 0 0 0
522 2 2.3951902326541008e+00 5.2583555688366639e+00 1.0894272654080241e+01 0 0 0
743 2 -1.3007837277024148e-02 7.3296186762400239e+00 1.0618333337220543e+01 0 0 0
823 1 3.4521423937388018e+00 8.1479129222427922e+00 1.7699033695794178e+01 0 0 0
525 2 -2.4859358119306383e+00 2.3478915576090058e+00 1.0761589639736201e+01 0 0 0
166 1 4.7758507372446131e+00 6.2717332337095666e+00 1.9174649429419844e+01 0 0 0
527 2 -2.6238901510979291e+00 2.3122343329229853e+00 1.8109046202702064e+01 0 0 0
529 1 1.5816316459391615e+00 6.4640104313953133e+00 1.6738954268078910e+01 0 0 0
530 2 1.5561654313449811e+00 6.2327416664837667e+00 1.5833908804565469e+01 0 0 0
531 2 6.1627750501061662e-01 6.6123650092340780e+00 1.6956704136162355e+01 0 0 0
532 1 2.3457393376769780e+00 6.4566113749133969e+00 1.2328935319238438e+01 0 0 0
533 2 3.2426268408610532e+00 6.8818392295655144e+00 1.2170889403212772e+01 0 0 0
534 2 2.3797913558257617e+00 5.9601341057236903e+00 1.3215299119270115e+01 0 0 0
535 1 -2.2467016695458915e+00 1.1729286967464314e+00 1.2298686204984941e+01 0 0 0
809 2 1.0215821252422437e+01 1.0540036687662786e+01 1.2615365205403352e+01 0 0 0
537 2 -1.3301578024870508e+00 9.3073004323728614e-01 1.2038375234099806e+01 0 0 0
538 1 -2.8835161008138308e+00 1.1207689630349627e+00 1.6609871005946275e+01 0 0 0
539 2 -3.8702832288924833e+00 8.6351545669667529e-01 1.6797735044684167e+01 0 0 0
540 2 -2.8585498066453505e+00 1.4476766509421155e+00 1.5704679614534037e+01 0 0 0
541 1 3.1327469906600154e+00 2.6651811092819297e+00 1.2064812443870540e+01 0 0 0
542 2 3.1381071592908247e+00 1.9421875782369842e+00 1.2722763185810576e+01 0 0 0
543 2 3.5518187125962752e+00 2.2658223171791776e+00 1.1263652583619566e+01 0 0 0
544 1 5.1200887629080949e-01 2.5004054879671798e+00 1.7103095591944619e+01 0 0 0
545 2 4.7959320564374242e-01 1.9010183873053761e+00 1.7864425225428878e+01 0 0 0
546 2 4.9897735995137715e-01 1.9381132218554256e+00 1.6316515747737771e+01 0 0 0
547 1 -3.6184156300504946e+00 4.7774000149306328e+00 1.7093611667157209e+01 0 0 0
548 2 -4.1559335965872979e+00 4.0024988109273707e+00 1.6880628796990798e+01 0 0 0
549 2 -3.7072370407493103e+00 5.0183751690647007e+00 1.8055347235010654e+01 0 0 0
550 1 -1.4629074139058917e+00 4.8393011433580115e+00 1.2207464861589481e+01 0 0 0
551 2 -6.9830237361371861e-01 4.2340205537189464e+00 1.2368219632631693e+01 0 0 0
552 2 -1.4065773837181439e+00 5.5557682044385013e+00 1.2852177009764558e+01 0 0 0
553 1 3.1158728702918097e+00 3.0923516505397783e+00 1.6073028896517336e+01 0 0 0
554 2 2.3061455763446652e+00 2.9824945822993341e+00 1.6616798525316863e+01 0 0 0
555 2 3.9030469712153666e+00 3.4670989195633171e+00 1.6620697614362740e+01 0 0 0
556 1 5.3369407353012122e-01 3.3895596410171507e+00 1.2776247563188704e+01 0 0 0
557 2 1.3041213561308025e+00 3.1020775487917307e+00 1.2199851405922054e+01 0 0 0
558 2 3.3567299277999751e-01 2.5706779242127444e+00 1.3288313006793418e+01 0 0 0
559 1 -4.0556575541331989e+00 4.2214635677138386e+00 1.3006495237559591e+01 0 0 0
560 2 -3.2260487735143109e+00 4.3748242155824553e+00 1.2519841910519292e+01 0 0 0
561 2 -3.7577929614463770e+00 3.5035953359192180e+00 1.3602090048606062e+01 0 0 0
562 1 -1.1298414096215001e+00 4.3002754899756468e+00 1.6080329302307096e+01 0 0 0
563 2 -5.7415738611226441e-01 3.6024607001502535e+00 1.6550701223742706e+01 0 0 0
564 2 -1.9769268592560403e+00 4.3476331844631941e+00 1.6633515164572135e+01 0 0 0
565 1 4.9903131201972268e+00 7.1931994464333409e+00 1.1238093611328297e+01 0 0 0
566 2 4.6696885754667736e+00 7.8166426415874852e+00 1.0477279638759320e+01 0 0 0
567 2 5.0571430387089737e+00 6.3044420470817952e+00 1.0838891849050780e+01 0 0 0
568 1 -9.1718916626540636e-01 7.1462501443212307e+00 1.8066656109194959e+01 0 0 0
569 2 -1.1854678555778344e+00 6.3572767740068095e+00 1.8579352012719180e+01 0 0 0
570 2 -3.4522572836891907e-01 7.6495883274521557e+00 1.8569963015792887e+01 0 0 0
574 1 4.5400374167263990e-01 5.4368657191866543e-01 1.1406383145466863e+01 0 0 0
572 2 -5.6435028035084684e+00 1.3684868345941117e+00 1.8014323099624963e+01 0 0 0
903 2 4.5950544166863585e+00 4.3720103047474930e-02 1.0583950757739151e+01 0 0 0
658 1 9.4575511613996728e+00 4.5878565793320958e-01 1.1498120531441153e+01 0 0 0
576 2 6.8298284511247687e-01 1.3355174739794344e+00 1.0861497301152641e+01 0 0 0
577 1 2.1453034896385201e+00 5.0143050712433421e+00 1.4591001681696639e+01 0 0 0
578 2 1.4797311134322850e+00 4.4749342169346260e+00 1.4116911995192064e+01 0 0 0
579 2 2.4277358254850476e+00 4.4012085995222590e+00 1.5298420033544016e+01 0 0 0
580 1 -2.4688702123077890e+00 2.5322980389356204e+00 1.4560449844612831e+01 0 0 0
581 2 -2.0910357060246780e+00 2.0311198798738790e+00 1.3776291980976078e+01 0 0 0
582 2 -1.8501299574209953e+00 3.1913457266710510e+00 1.4993134349269344e+01 0 0 0
108 2 8.4426221984333090e+00 2.8636660071575823e+00 9.8933355942134042e+00 0 0 0
523 1 -2.1023574635462006e+00 2.6471650425541813e+00 9.9188701841734961e+00 0 0 0
589 1 1.2259411698727721e+01 9.5806727443515638e-01 1.4095321149622439e+01 0 0 0
590 2 1.1357148988048156e+01 6.9898389436604491e-01 1.4341007489459816e+01 0 0 0
591 2 1.2567261848219857e+01 1.5681178141034935e+00 1.4743630209445550e+01 0 0 0
592 1 9.5047326167546586e+00 9.9143516928972697e-01 1.4459503754133939e+01 0 0 0
808 1 9.3490809747023480e+00 1.0646158338454185e+01 1.3036100782857837e+01 0 0 0
594 2 9.2682753851151034e+00 1.6625269100877076e+00 1.3849946449787495e+01 0 0 0
595 1 4.8997557241232785e+00 6.5251707885114323e+00 1.4780110719869407e+01 0 0 0
596 2 4.8591687511476627e+00 5.8672253695922585e+00 1.5498930547140144e+01 0 0 0
597 2 4.8726595637913261e+00 5.9059376200879417e+00 1.3997305734091592e+01 0 0 0
598 1 7.7785764091530361e+00 6.3827151634117847e+00 1.4494926432761913e+01 0 0 0
599 2 6.8635374538354297e+00 6.7379786061854441e+00 1.4660552930605940e+01 0 0 0
600 2 7.6614052934026482e+00 6.0898250625211308e+00 1.3510242884698140e+01 0 0 0
752 2 3.2584661913827957e+00 9.1814379979865191e+00 1.0554061902978136e+01 0 0 0
517 1 1.8080512193373766e+00 4.5465803126814652e+00 1.8898024396858258e+01 0 0 0
833 2 7.0654649374372482e+00 9.8700509054621701e+00 1.3571012080654022e+01 0 0 0
605 2 1.1309684554231602e+01 5.0887479337778325e+00 1.0661588447002877e+01 0 0 0
725 2 -1.1719309341277917e-01 1.0959959595775816e+01 1.2514508259124309e+01 0 0 0
825 2 3.1524847259151700e+00 8.9228477333358587e+00 1.8179198590219684e+01 0 0 0
807 2 1.2419229385989766e+01 9.6762769802090300e+00 1.5745403943354294e+01 0 0 0
609 2 6.5546632311796245e+00 2.0801974555182645e+00 1.0732138112910270e+01 0 0 0