LAMMPS data file via write_data, version 3 Mar 2020, timestep = 0

2016 atoms
2 atom types

0.0000000000000000e+00 1.7971137600909127e+01 xlo xhi
-2.1684874767690090e+00 4.7164647453687301e+01 ylo yhi
0.0000000000000000e+00 1.9112345604597255e+01 zlo zhi
4.7020628454748074e-02 -6.6837679575058289e+00 -2.2982228055226983e-02 xy xz yz

Masses

1 16
2 2

Atoms # atomic

579 2 2.2933463399379086e+00 4.9619881044862995e+00 1.4302079732748743e+01 0 0 0
223 1 5.3162914074166725e+00 7.3919200405114847e+00 4.6246235963880922e-01 -2 0 -1
995 2 1.0455098738674213e+01 2.6952949787796250e+00 1.0447069041383941e+01 3 0 1
654 2 3.5760455816551757e+00 3.8506563190593601e+00 2.4035120984798946e+00 -1 0 0
394 1 9.2298303170896574e+00 3.0703758898761846e+00 5.5785551092814849e+00 -3 0 -3
578 2 1.1467133528000630e+00 4.5752024614468239e+00 1.5435350155878611e+01 0 0 0
929 2 1.4584125423464105e+01 2.3154393285246311e+00 6.2548213059860993e+00 0 0 0
713 2 -7.5367174591627162e-01 -1.9355890125658810e+00 1.2331862614306393e+01 0 0 3
705 2 -3.0119639819989645e+00 6.6331834912510406e+00 1.0019321324105150e+01 -2 0 -1
302 2 5.6004873844807888e+00 5.3563130111228645e+00 3.6794157285055404e+00 0 0 0
299 2 1.0345778882261813e+01 8.5969782290487951e-01 1.6632713469602567e+01 -3 0 -2
896 2 1.0984924765248561e+01 5.7588227747070997e+00 1.6306603162538838e+01 -1 0 -1
150 2 -2.6827754323813249e+00 7.2880684533175355e+00 1.2396298482663438e+01 -3 0 -1
406 1 1.8887686738975766e+00 -1.1998982151496707e-01 1.2386940474155871e+01 -2 0 -2
160 1 6.3642438057496475e-01 9.2640797021604175e+00 8.1470580144223774e+00 1 0 -5
596 2 3.4522273308598366e+00 3.8093537993424569e+00 6.4151201485726830e+00 3 0 -2
429 2 1.0942519380963901e+01 8.0850960003415686e+00 1.5645124141028408e+01 -1 0 -1
252 2 4.4256626386769771e+00 9.6993074387848974e+00 8.3977558952882649e+00 -3 0 1
881 2 1.3241349017731986e+01 2.0510978573882266e+00 8.7191307872645218e+00 -3 0 2
748 1 6.4207954129902136e+00 5.5557470342631685e+00 1.0369529460393508e+01 -3 0 1
53 2 2.7374199923241074e+00 -4.3466606951668640e-01 1.8746489551208093e+01 2 0 -1
234 2 1.0451989709888467e+01 5.6814268960523551e+00 4.3856285131099666e+00 -2 0 0
609 2 5.7170126781762605e+00 -6.1005041850660757e-01 1.5318797567449496e+00 -3 0 0
1583 2 -4.2129442773703465e+00 4.7369308381320252e-02 1.3663607519547469e+01 0 1 1
122 2 6.5624256323832686e+00 8.0188154572235852e+00 1.7014107910437193e+01 -2 0 -1
297 2 9.1088042172524730e+00 9.3601394701532055e+00 1.8537502386273200e+01 1 0 2
407 2 1.7055660571371964e+00 -4.8228148848810570e-01 1.3256678960892229e+01 -2 0 -2
707 2 -1.0254315349011898e+00 6.1607296029417302e+00 1.4139108221252178e+01 -1 0 -1
972 2 2.3861801900765833e+00 6.2994245511041598e+00 3.4984204852217604e+00 0 0 1
448 1 3.6422494520565731e+00 5.5420848526173803e+00 1.3073260453655022e+01 -1 0 1
788 2 6.0742167998757548e+00 8.9417210046770901e+00 3.6496524551419425e+00 -2 0 0
561 2 8.1048785798817669e+00 -1.5190012244917703e+00 5.4966511684916641e+00 -2 0 1
687 2 1.9470466333964520e+00 -1.0827462397152281e+00 1.0876880827454439e+01 -3 0 0
229 1 1.5390686713927297e+00 -1.2747443236951217e+00 5.8764299008854257e+00 0 0 -2
190 1 4.2085224625176121e-01 8.3845975252408280e+00 1.2758682253115937e+01 -2 0 -3
301 1 6.5254195510167214e+00 4.9330815967743584e+00 3.6772250511845335e+00 0 0 0
735 2 7.5654029225056849e+00 9.6966388144064268e+00 2.4554828937365545e+00 -3 0 -1
270 2 -5.0454481963228606e+00 7.1290516568866646e+00 1.6659885722543383e+01 2 0 -1
463 1 3.2916367029946652e+00 5.4139534351431466e+00 7.2911530191857068e+00 2 0 0
449 2 3.1548359470093157e+00 5.1142034728421297e+00 1.2351132380285566e+01 -1 0 1
524 2 2.3049458194114107e+00 3.6085512861314477e+00 1.0654733212459330e+01 -2 0 -4
527 2 4.5779765994319348e+00 -5.9349333212061040e-01 5.3568119549565836e+00 -2 0 0
523 1 1.9680485372423395e+00 4.2457189601646590e+00 1.1293176776596333e+01 -2 0 -4
658 1 6.3177756945412300e+00 1.6752013984254615e+00 1.4717333983668027e+01 -1 0 -2
206 2 4.8988779053656302e+00 1.5186483054090116e-01 1.1159069476132103e+01 3 0 0
96 2 2.6217125203832792e-02 1.1493034794618686e+00 4.1642434232029979e+00 -1 0 -1
441 2 -2.4608349718889806e+00 4.1994076413800396e+00 1.5804284816990195e+01 -2 0 -1
151 1 1.0991126947457911e+01 2.7110233067813061e-01 2.2050322522032659e+00 3 0 0
781 1 4.0811137256907388e+00 5.3771881776933963e+00 1.1915854764517386e+00 -2 0 -2
880 1 1.2858490994847665e+01 1.1775472599067842e+00 8.6124975889912108e+00 -3 0 2
626 2 2.6525743108275730e+00 3.0838510869333708e+00 1.7082617224531965e+01 0 0 -1
1665 2 1.3860823885875735e+01 9.9382099928266801e+00 1.7998488159434134e+00 -3 1 0
703 1 -2.2459618302841040e+00 6.7156889782553897e+00 1.0599656120285466e+01 -2 0 -1
382 1 2.0196810800380827e-03 6.0135708042272427e+00 1.2898433274382870e+00 -1 0 1
21 2 1.0239905001862821e+01 8.4460396955167578e+00 8.9577670905807583e-01 -3 0 -3
526 1 4.1190599169980286e+00 -1.4464731740800048e+00 5.2054773824106464e+00 -2 0 0
54 2 1.9395880049782530e+00 4.3474423071609536e-01 1.7776868320229344e+01 2 0 -1
919 1 1.2198111977185917e+01 -4.4994212272496226e-01 1.0646002695934927e+01 0 0 -2
689 2 1.0825471360114785e+00 1.1592759835208506e+00 7.0429903087692081e+00 -2 0 0
876 2 1.1296561811388496e+01 9.5394105344420090e+00 1.0178155804097578e+01 -3 0 1
392 2 -2.7052101699511297e+00 4.9511025578170793e+00 1.1437043002542547e+01 -1 0 -1
652 1 3.1765687036320753e+00 3.2716572838329281e+00 3.1387948156123295e+00 -1 0 0
52 1 2.7124080939952382e+00 4.9721804940454728e-01 1.8380347413505763e+01 2 0 -1
356 2 -4.7982584754871294e+00 3.8737057975518177e+00 1.7999262496646658e+01 -4 0 -3
477 2 6.9628884042036754e+00 5.3808391219047973e+00 1.4508342632793278e+01 -1 0 2
500 2 -3.1194156033507880e-01 2.2911490432252997e+00 1.3150588851507607e+01 1 0 0
737 2 1.1094782389267491e+01 9.2681703420600492e+00 5.0959772101753096e+00 -1 0 1
806 2 1.0856342228816237e+01 5.1320406167395429e+00 7.5530658800755850e+00 -4 0 1
311 2 3.7162842425022338e+00 1.0063780223338830e+01 1.0881816136721406e+01 0 0 -2
810 2 6.1038317113872225e+00 3.8749926870080218e+00 9.2429638135874832e+00 -4 0 -1
930 2 1.5269557312029104e+01 1.0496346437105819e+00 6.7463715094944607e+00 0 0 0
702 2 4.4972472661524643e+00 -1.1240125275645019e-01 1.5702194615106507e+01 -3 0 -3
501 2 -5.6140928381496957e-01 1.8095006997032081e+00 1.1703048193805962e+01 1 0 0
625 1 3.0160414108959612e+00 3.2028193173822457e+00 1.7963054415432094e+01 0 0 -1
776 2 1.3296296342336090e+01 -1.1904276954580624e+00 2.6957895112525582e-01 -2 0 2
101 2 6.4073832971443361e+00 4.0746214347979599e+00 1.2862320553820711e+01 -1 0 -1
384 2 1.7102997843238615e+01 5.8270910203161081e+00 9.3114459154759022e-01 -2 0 1
321 2 1.0591388294272591e+01 -7.0706998076624394e-01 1.5386644198874151e+01 -4 0 -3
622 1 3.1598140741944847e+00 1.5580487843486073e+00 5.3080065878988128e-02 -2 0 -1
624 2 3.1173315849895809e+00 1.1315267791620971e+00 9.3970983311006306e-01 -2 0 -1
179 2 3.2949899768881608e-01 4.7506413011060920e+00 1.7555399861106462e+01 -3 0 -1
538 1 2.0317201939596981e+00 -1.5806784383589032e+00 1.7656666012501268e+00 -4 0 -3
634 1 -1.0921795449019800e+00 7.6908781944107272e+00 6.6248650086599987e+00 1 0 -2
747 2 -1.9857112858555124e+00 8.8950441849420123e+00 1.4190905340307966e+01 -2 0 0
268 1 -4.1615867060625176e+00 7.3205768138256175e+00 1.6958926409397687e+01 2 0 -2
600 2 -1.7956383685885149e+00 4.4845462094819899e-01 9.8192670476549164e+00 -3 0 1
49 1 1.0829686927349190e+01 1.9779768047201420e+00 1.3960774985769859e+01 -1 0 0
183 2 1.4424216764962438e+01 5.2473842946849905e+00 6.0967562292653019e+00 -1 0 0
464 2 3.5892837893014260e+00 5.8130231549068627e+00 8.1707456056504757e+00 2 0 0
393 2 -1.9240247526136387e+00 4.9390457704563175e+00 1.2666555204371454e+01 -1 0 -1
962 2 1.1866144583988278e+00 -2.1130000763345853e+00 1.4416460844536420e+01 -3 0 -1
149 2 -3.6632152790046764e+00 8.4179561735773323e+00 1.2894608254637852e+01 -3 0 -1
135 2 1.8248458421431217e+00 1.2934572555024944e+00 9.0511341781432382e+00 1 0 -1
778 1 6.4848370630567995e+00 5.1432342195332064e+00 6.4201717126681048e+00 1 0 0
221 2 1.3169899235707190e+00 9.0956174563252912e+00 1.7912458707832055e+01 -2 0 -3
598 1 -1.6624572793182644e+00 7.2365076606002710e-01 1.0761792879545311e+01 -3 0 1
120 2 9.3348776205703334e+00 9.5779530903654342e-01 2.0085894987733885e+00 -2 0 -2
334 1 7.9630574242943588e+00 7.6570263415725091e+00 5.7939148786068815e+00 -2 0 -1
640 1 1.4743018949670393e+01 6.8686303729326195e+00 5.7333127871147038e+00 3 0 -1
753 2 -4.3407821631006973e+00 6.5681054019571903e+00 1.3666809482128869e+01 0 0 2
502 1 5.0480503494780553e+00 -1.2698068633978385e+00 9.8779443244002625e+00 0 0 -1
119 2 7.9447966212215650e+00 9.0048620512441424e-01 1.3109926939463574e+00 -2 0 -2
525 2 1.3531766942803465e+00 3.6297849997077609e+00 1.1761300266720170e+01 -2 0 -4
495 2 -4.7815770321241891e-01 4.4166992680246562e+00 9.4967218352750038e+00 -3 0 -2
971 2 3.4737642415277987e+00 6.3781944557419585e+00 2.4618705436470356e+00 0 0 1
232 1 1.0250309389982506e+01 6.3705381674104249e+00 5.0342790610814001e+00 -2 0 0
212 2 1.0085185268471248e+01 3.1571766564818944e+00 8.2799141176568565e+00 -5 0 -2
701 2 3.2726345540793629e+00 7.8769038106224532e-01 1.5128437468784075e+01 -3 0 -3
5 2 3.8809666440497392e+00 6.4395588688376808e+00 6.1099497399065514e+00 1 0 0
470 2 1.4414071271602618e+01 1.9659409222570048e+00 1.1253475225674274e+00 -7 0 -2
471 2 1.3001997502191390e+01 1.5372533432869897e+00 1.3129878725809618e+00 -6 0 -2
708 2 -6.0684872383031774e-02 5.1199275789362186e+00 1.3440770819473217e+01 -1 0 -1
993 2 1.3393724373944393e+01 -1.3127899411689743e+00 9.7445643200246934e+00 1 0 1
46 1 8.9534755495345237e+00 4.7050716167417583e+00 7.7438306932361956e+00 -3 0 0
434 2 7.1523225653255640e+00 9.9888463216188654e+00 1.8843077552007649e+01 -2 0 0
685 1 2.0663188524866669e+00 -1.4635091042059543e+00 9.9269864105900432e+00 -3 0 1
627 2 2.9790039353792102e+00 2.2666686779167708e+00 1.8293347770969380e+01 0 0 -1
111 2 -2.7938463893559540e-01 4.0093864200420271e-01 1.7306182064848553e+01 1 0 -4
869 2 1.2608148586799462e+01 5.9748681907241181e+00 9.9800496329597284e+00 1 0 0
16 1 -7.6289669566855345e-01 1.6924457925657679e+00 1.4677481406074152e+01 0 0 1
178 1 3.7519972631540366e-01 5.3752586227042292e+00 1.6810797291445070e+01 -3 0 -1
974 2 1.7563706266608850e+01 -6.8474477858585181e-01 3.3616880684643452e-01 -4 0 -1
118 1 8.3850143973286571e+00 1.3516840489508311e+00 2.0401521297135372e+00 -2 0 -2
250 1 4.0732992992220032e+00 9.4366404245977584e+00 9.2655259491345436e+00 -3 0 2
623 2 -2.5446538518078921e+00 1.4158019788674161e+00 1.8878291847579835e+01 -2 0 -2
1668 2 6.3722547728861567e+00 1.7308873263673763e+00 1.5713985609570500e+01 -1 1 -2
644 2 8.3512676388882792e+00 1.9915380451836020e+00 1.8197681087821916e+01 -4 0 -3
668 2 7.9756903785198414e+00 9.5404651707800401e+00 1.3477882119903715e+01 -3 0 -3
83 2 -1.5056781410950086e+00 8.8339263106906589e+00 4.9297967296300866e+00 0 0 -3
239 2 3.4445215614572131e+00 7.4119726743164716e+00 1.3231031673103308e+01 0 0 0
716 2 5.5449159152511651e+00 4.4591756372004339e+00 5.0346478201025835e-01 1 0 2
717 2 7.0199778645379682e+00 4.1119802026035668e+00 7.6913566821783341e-01 1 0 2
240 2 3.3475640565292784e+00 8.4355970661617228e+00 1.4467761880233578e+01 0 0 0
904 1 1.8958433434870079e+00 7.6558253418683115e+00 1.7524413141264681e+01 -3 0 1
17 2 -1.4295607828152344e+00 2.3803988769945921e+00 1.4942202719172036e+01 0 0 1
779 2 5.8074280304337744e+00 5.7778861870937082e+00 6.1146231480030995e+00 1 0 0
807 2 1.1163149234799526e+01 5.9704291260294919e+00 6.3142337790145451e+00 -4 0 1
645 2 9.7525545731232075e+00 2.2066572842607926e+00 1.8847346941009505e+01 -4 0 -3
613 1 -1.0663323217212834e+00 1.8329356755054302e+00 1.7821541576788174e+01 -2 0 -1
231 2 2.4511137330161974e+00 -1.3380656569084053e+00 5.4881002039610793e+00 0 0 -2
238 1 2.9992738166719137e+00 8.3087764657416709e+00 1.3499301813359674e+01 0 0 0
336 2 8.8279107998556743e+00 7.1879028480463916e+00 5.4101752752902632e+00 -2 0 -2
715 1 6.3211078955568034e+00 4.1465779698371996e+00 7.0278942926408294e-02 1 0 2
115 1 -3.7111780138162471e+00 2.0822460364585957e+00 1.1821295888442467e+01 -4 0 -5
426 2 1.3592999705547971e+01 3.2480402223881795e+00 2.9999225660343884e+00 -2 0 1
494 2 5.9173798321304227e-01 5.4020655323679030e+00 1.0136296426929787e+01 -3 0 -2
922 1 3.8309523479540335e+00 8.6033357574327880e+00 1.5921978893283379e+01 -3 0 -3
846 2 6.6499754809351881e+00 -1.7517510440846338e+00 1.2269409974456064e+01 1 0 1
933 2 -2.4679680337121255e+00 -1.0168511054903890e+00 1.5010036735717566e+01 -2 0 -1
921 2 1.1258998077914892e+01 -4.5519922640746402e-01 1.0731684933214536e+01 0 0 -2
868 1 1.3110320482103587e+01 5.9177307057909712e+00 9.1661583271144789e+00 1 0 0
540 2 1.9649590653386104e+00 -1.7151240439877644e+00 7.8393658590247173e-01 -4 0 -3
18 2 -1.2600588337760277e+00 8.2910703339216463e-01 1.4508834985090118e+01 0 0 1
616 1 4.7268400334704026e+00 9.8891079953802485e+00 6.6806541061431117e+00 -2 0 -1
559 1 8.1322917839401825e+00 -1.5542329047366699e+00 6.4330459298710228e+00 -2 0 1
785 2 3.2978096970464821e-01 1.0303696567460898e+00 1.4958324455231813e+00 -3 0 -2
870 2 1.2501702179214158e+01 5.9238642242863087e+00 8.4427989308539537e+00 1 0 0
211 1 1.0453715224269008e+01 2.2569073944842586e+00 8.5312863078233239e+00 -5 0 -2
387 2 3.2251348560031143e+00 1.6409483512417093e+00 2.7822522051203249e+00 0 0 -2
589 1 -1.2091279490784208e+00 8.7376450041704405e+00 1.7185251424903644e+01 -4 0 -1
643 1 8.7777024464645521e+00 2.3654806619617039e+00 1.8962798808243097e+01 -4 0 -3
746 2 -3.9719544645811666e-01 8.8584555537723375e+00 1.4068648444607813e+01 -2 0 0
279 2 7.1919838774181493e+00 7.6259965446835203e+00 2.5241644620795989e+00 -4 0 -1
222 2 7.7522281141953746e+00 1.0009278505664602e+01 5.1082795558243396e-02 -2 0 -2
116 2 -4.1352980994569943e+00 1.5458323190137699e+00 1.2537380229609395e+01 -4 0 -5
224 2 -1.2671174816675110e+00 7.5482788855463312e+00 1.8616243824950427e+01 -2 0 -2
845 2 7.7663959523376462e+00 -7.2112092257735516e-01 1.2665308407744043e+01 1 0 1
48 2 8.8983410545040371e+00 4.4172375851808585e+00 6.7923950813811782e+00 -3 0 0
117 2 -3.4544370801062056e+00 2.9245828770605309e+00 1.2263653915616009e+01 -4 0 -5
931 1 -2.4573799642540517e+00 -3.4813621777256287e-01 1.4303025102618093e+01 -2 0 -1
949 1 -4.3511784174819823e+00 -1.1726283163787130e+00 1.7803663568954867e+01 -1 0 1
385 1 3.3552824204311160e+00 6.6896919448276115e-01 2.5545710294994000e+00 0 0 -2
950 2 -4.4915156882040499e+00 -2.7662272969436930e-01 1.7488147619806263e+01 -1 0 1
961 1 1.4497088123937765e+00 -1.3389912263917814e+00 1.4942528386357596e+01 -3 0 -1
42 2 3.5968644036060864e+00 6.6020874557187597e+00 1.0533328805381551e+01 -2 0 3
726 2 -1.5760638657331663e+00 -4.6164007728145240e-01 8.0117478921826475e+00 2 0 1
531 2 8.0665829929870512e+00 -1.7382382139767354e+00 3.4837391640314266e+00 -1 0 0
769 1 -5.1990922923452243e-01 3.5618886611834553e+00 5.5689019567026810e+00 1 0 -3
1002 2 1.1569863364558888e+01 1.9432757085590051e+00 4.7209008773198420e+00 -1 0 1
4 1 4.4620571632371000e+00 7.0200363784492765e+00 5.5732899416180723e+00 1 0 0
905 2 2.6321733127541789e+00 7.8566050557783136e+00 1.6876804256219451e+01 -3 0 1
41 2 4.9672225877428566e+00 6.3496790405083470e+00 9.9125848298467183e+00 -2 0 3
87 2 1.5572530241923278e+01 -1.6805606309089414e+00 4.7150410386429481e-01 1 0 -2
812 2 1.1669853322081966e+01 2.5233076063808459e+00 1.7012052222812407e+01 -2 0 -1
932 2 -2.0975174344873553e+00 -7.8501159461683900e-01 1.3526958927309254e+01 -2 0 -1
459 2 -4.6317572207974822e-01 -1.5810939362802805e+00 3.7635031167069486e+00 -2 0 -2
213 2 9.7957163548035222e+00 1.6055151282675242e+00 8.1771117964708804e+00 -5 0 -2
857 2 1.2332274476074323e-01 4.8948727761831563e+00 6.5295828784269201e+00 -1 0 -3
513 2 8.1580438520148100e+00 -8.3499533789160529e-01 1.5546969601830996e+01 1 0 0
338 2 7.2503009790287436e+00 1.6935823127671981e+00 3.4132001032495731e+00 -1 0 -1
938 2 1.7371591015773667e+01 8.9372331299849410e+00 1.1832513795062307e+00 1 0 1
969 2 3.6229478774576269e+00 1.9147626959424251e+00 1.0164459335107427e+01 -1 0 1
545 2 1.0433482651582251e+00 1.4773819847507292e+00 1.5195324388749794e+01 2 0 1
386 2 2.5609530465487795e+00 2.6812412191250745e-01 3.0031271636919699e+00 0 0 -2
937 1 -7.0443141402335541e-02 8.6233548278161578e+00 1.9617258522776750e+00 2 0 2
40 1 4.0490274118220366e+00 6.6712959064590454e+00 9.6332042326421572e+00 -2 0 3
786 2 1.1596903161933074e+00 1.0146794581014040e+00 2.8235724842204113e-01 -3 0 -2
670 1 -5.4164150655722265e-01 -2.0151496306100802e+00 7.4220171885188444e+00 -3 0 -1
724 1 -2.3040214684593781e+00 1.6627421922114660e-01 8.2565819541837797e+00 2 0 1
784 1 2.5746060559282563e-01 8.4555793195581197e-01 5.7925902375885208e-01 -3 0 -2
967 1 3.0665741132986390e+00 2.3537444547598163e+00 9.4855346935622844e+00 -1 0 1
553 1 1.5623746245545794e+01 5.1626652293569704e+00 2.7204970850018761e-01 -5 0 -1
681 2 5.8340203264342412e+00 4.4225083006476904e+00 1.8962662287362797e+01 -3 0 -3
649 1 8.6027879047117146e+00 4.5724928524866337e-01 8.1103224562053882e+00 -4 0 0
650 2 7.6136664644401595e+00 5.9118279447345445e-01 8.2695594953522402e+00 -4 0 0
51 2 1.1420378987793544e+01 1.3356411083710316e+00 1.3543798983177632e+01 -1 0 0
36 2 1.5199487788970455e+01 8.3753348311661169e-01 4.6038967758649463e+00 -2 0 0
945 2 4.6326005292598271e+00 1.8568040816165787e+00 5.9001603836325724e+00 0 0 3
673 1 -3.4707763851671594e+00 9.6827401471812937e+00 1.8216572954644175e+01 0 0 -4
939 2 8.7225253474003672e-01 8.8259851363302655e+00 1.8246948528014260e+00 2 0 1
397 1 1.0798339589229486e+00 4.8962009803314022e+00 3.4506349556013500e+00 3 0 0
127 1 1.4038736631013602e+01 6.2566001790561518e+00 2.1170738325886171e+00 -2 0 -1
128 2 1.3876837086926848e+01 5.5284701699403067e+00 2.7528630608400544e+00 -2 0 -1
1407 2 4.1131430403183789e-01 4.3716982667549482e+00 3.9816734402748102e+00 3 0 0
34 1 1.5269063918676560e+01 1.8407193175354086e-01 3.8297675794473527e+00 -2 0 0
928 1 1.5293165681749519e+01 1.6480806973067401e+00 5.9947058378056548e+00 0 0 0
777 2 1.2165719551749207e+01 -2.0529831337256010e-01 9.7101354415519969e-01 -2 0 2
152 2 1.1478570837285691e+01 8.0253920982569316e-01 2.8552305575663164e+00 3 0 0
439 1 -2.6281076321153831e+00 3.2592642582194467e+00 1.5951730033414742e+01 -2 0 -2
350 2 6.0772603930395599e+00 8.2406383600751631e-01 1.7800751751983377e+01 2 0 3
368 2 1.4698426789053169e+01 8.9476788475144335e+00 3.6623014487175278e+00 -2 0 0
176 2 4.1675694321747603e+00 -1.3045222752925116e+00 1.3711517019405658e+01 -5 0 1
783 2 4.5769727304099828e+00 6.2155553874717562e+00 8.6468279691103112e-01 -2 0 -2
148 1 -3.0182184561005037e+00 7.7771896544086498e+00 1.3202535209017897e+01 -3 0 -1
994 1 1.0281262518136797e+01 2.9802900450556038e+00 1.1368127429837184e+01 3 0 1
725 2 1.4822179884753728e+01 -3.6025956609576815e-01 8.2946285660631283e+00 1 0 1
278 2 8.2972739683481418e+00 7.1464405238045039e+00 1.4415120186668990e+00 -4 0 -1
129 2 1.4296649389195482e+01 7.0747757090708436e+00 2.5573240353192026e+00 -2 0 -1
858 2 6.0223717419158440e-02 5.6402908886317311e+00 7.8702533626875057e+00 -1 0 -3
173 2 9.9459073621788576e+00 3.9225773500916965e+00 1.6868278320596488e+01 -1 0 -2
745 1 -1.1176358264193107e+00 9.2168070624494405e+00 1.4659508484098003e+01 -2 0 0
504 2 5.1026564049401681e+00 -4.7581889335733840e-01 9.3354030761855515e+00 0 0 -1
427 1 1.0660506437550044e+01 8.9978078236683672e+00 1.5619467817087525e+01 -1 0 -1
462 2 1.2088412933201440e+01 5.5752716856868458e+00 1.2140355610836147e+01 -4 0 -2
651 2 8.5860186558431995e+00 -8.0212547441739002e-02 7.3379322097393214e+00 -5 0 0
996 2 1.0764919764099785e+01 3.8651438364292172e+00 1.1417080246641724e+01 3 0 1
611 2 1.3636670996956038e+01 4.1972686371320869e+00 9.1237591821589650e+00 -1 0 2
161 2 1.4821891620188055e+00 8.9114677443641366e+00 8.3904164988251342e+00 1 0 -5
216 2 2.7475935938057234e+00 9.1771621559832077e+00 7.7745265032075439e-01 0 0 -2
162 2 2.7883676860046291e-01 9.3151707135989792e+00 9.0145924839045222e+00 1 0 -5
102 2 5.9710290884510151e+00 3.3892563024132372e+00 1.4065178441360104e+01 -1 0 -1
497 2 6.0128661581406906e+00 1.7162622347570617e+00 8.7227209709049056e+00 0 0 1
498 2 5.8390571391922599e+00 7.7890764290717485e-01 7.5703483618890965e+00 0 0 1
395 2 9.4241169740680970e+00 3.2915941255948349e+00 4.6580551427638852e+00 -3 0 -3
289 1 1.0174384453410191e+01 8.9422753540689932e+00 6.7863914560642096e+00 0 0 3
349 1 6.4236631363530288e+00 1.6160959155420844e+00 1.7365886313184248e+01 2 0 3
679 1 5.4830414832367023e+00 3.5371457345327411e+00 1.8990762638846146e+01 -3 0 -3
398 2 5.1908290737736063e-01 5.3089414573096416e+00 2.7204454952852180e+00 3 0 0
277 1 7.4344040579600028e+00 6.8754956978345998e+00 1.8681337643499019e+00 -4 0 -1
269 2 -4.0004956096771220e+00 8.2419002294957249e+00 1.7201534599115629e+01 2 0 -1
591 2 -1.0878192861361562e+00 8.9431369707759494e+00 1.6251334695857238e+01 -4 0 -1
943 1 5.2900467951988830e+00 1.1695166613888635e+00 5.9468047607542198e+00 0 0 3
369 2 1.3155402039868568e+01 8.7854164324172075e+00 3.4800372816731451e+00 -2 0 0
714 2 -1.4288655855447603e+00 -6.3230943949415508e-01 1.1605101217173978e+01 0 0 3
763 1 1.3408467401375185e+01 9.8491234995521051e+00 1.2283381112358020e+01 -4 0 -3
172 1 9.6861789595328638e+00 4.8593748472599279e+00 1.6782342790795514e+01 -1 0 -2
298 1 9.8844224185929654e+00 -4.1895341248206375e-02 1.6651977871431928e+01 -3 0 -2
680 2 4.6701471922875273e+00 3.7367873754877445e+00 1.8516847063663391e+01 -3 0 -3
530 2 6.6594557011264452e+00 -1.1082719278396145e+00 3.3484187086676402e+00 -1 0 0
215 2 2.7858465071608851e+00 8.5648518413916950e+00 2.2201904783738398e+00 0 0 -2
944 2 5.9188677929256457e+00 1.4653420044512480e+00 5.2967567595161844e+00 0 0 3
100 1 5.9150021842101879e+00 4.2962146910619774e+00 1.3688233017522617e+01 -1 0 -1
1667 2 5.5759171585597054e+00 1.0194396425432020e+00 1.4601650222418733e+01 -1 1 -2
352 1 7.8924833660744653e+00 7.5557870040567447e+00 9.1550657181005466e+00 -1 0 0
174 2 9.4283309250546221e+00 5.2100212837072011e+00 1.7651543383510067e+01 -1 0 -2
762 2 7.9256155098524594e+00 -1.8718717577241075e+00 2.9677934963891334e-01 -3 0 2
465 2 2.3097717220910599e+00 5.4345754593334634e+00 7.1443900432101701e+00 2 0 0
84 2 -9.4044285683176509e-01 9.0351051101179412e+00 3.4623417344099399e+00 0 0 -3
460 1 1.1604387056406392e+01 5.3776503748106421e+00 1.1320233683253081e+01 -4 0 -2
607 1 5.8248545652405186e+00 -1.1820248176783288e-01 2.3847621485593726e+00 -3 0 0
875 2 1.2323199648989032e+01 9.1563431114320881e+00 1.1218139408937118e+01 -3 0 1
539 2 2.7720852704463050e+00 -2.1511392553052979e+00 1.9940177053225432e+00 -4 0 -3
924 2 4.6684237838236635e+00 8.2237372668364532e+00 1.6230380902254648e+01 -3 0 -3
595 1 3.3090586091854899e+00 2.9413398540359807e+00 5.9675321147723270e+00 3 0 -2
514 1 1.2715748456384324e+01 8.1548251643163976e+00 7.5828494549257499e+00 -1 0 -1
109 1 4.1267381295318284e-01 -2.8542569558718323e-01 1.7266426994415674e+01 1 0 -4
615 2 -1.6380622234513034e+00 2.4090340169775430e+00 1.7278738517557681e+01 -2 0 -1
251 2 4.1736805500095215e+00 8.4734183438700708e+00 9.1406380677656323e+00 -3 0 1
461 2 1.0907766354881785e+01 6.0608995910141683e+00 1.1245371805482595e+01 -4 0 -2
599 2 -2.4773375587641651e+00 1.0557093578039929e+00 1.1188627921173936e+01 -3 0 1
408 2 1.4792150428835393e+00 7.4469062318826840e-01 1.2379103438391208e+01 -2 0 -2
20 2 1.0760112455578831e+01 6.9845631315900558e+00 5.4536138634221787e-01 -3 0 -3
182 2 1.3164270900649088e+01 4.5011216997026109e+00 6.5576799286423908e+00 -1 0 0
35 2 1.4694097800051045e+01 4.3906688852224462e-01 3.0947464531879518e+00 -2 0 0
760 1 8.8783829010548949e+00 -1.9095382594207391e+00 3.0931602481015857e-01 -3 0 2
295 1 1.0107098418750184e+01 9.4135191095749544e+00 1.8687192584525416e+01 1 0 2
475 1 7.5464219663331393e+00 5.9956977192247969e+00 1.4986424946542259e+01 -1 0 2
68 2 5.8470960808494290e+00 6.7350995569939514e+00 1.8491823354859751e+01 -4 0 -3
635 2 -5.0728360170335995e-01 6.8743687443235721e+00 6.6990726677225627e+00 1 0 -2
133 1 1.0388106810624973e+00 7.5685924081596401e-01 8.6809052947096053e+00 1 0 -1
610 1 1.4216706214182992e+01 3.3791860288169522e+00 9.2414892501837098e+00 -1 0 2
976 1 5.3352122758218155e+00 -1.4061724956015724e+00 1.6663576124147088e+01 -3 0 -1
82 1 1.6342419386024609e+01 9.3566705358246072e+00 4.1249210530465623e+00 -1 0 -2
300 2 9.5252364687892062e+00 -1.4361201442198679e-01 1.7531607155751946e+01 -3 0 -2
214 1 2.4463827455694731e+00 9.3016335581401801e+00 1.7107600776737830e+00 0 0 -2
782 2 3.1666004603434335e+00 5.3704877759807665e+00 7.7944468455928362e-01 -2 0 -2
690 2 1.9277226065741040e+00 2.0045201098735745e+00 6.0050351905937491e+00 -2 0 0
503 2 4.0976768547163918e+00 -1.5078064256935497e+00 9.8660099182657923e+00 0 0 0
728 2 9.3210184448879438e+00 7.4940901251493415e+00 1.2140533395641125e+01 0 0 1
113 2 9.2698464109434937e+00 1.0469646921026108e+00 1.3752471504438056e+01 -2 0 -1
671 2 2.2466849663213573e-01 -1.8132750836745801e+00 6.8973585652551774e+00 -3 0 -1
290 2 1.0949908837057237e+01 8.4652229229505807e+00 7.1183908622620642e+00 0 0 3
712 1 -1.6030764603758310e+00 -1.4710096778329875e+00 1.2187708410468705e+01 0 0 3
522 2 8.9108917883743448e+00 -1.0952769146970442e+00 1.0850579380305684e+01 -5 0 -2
67 1 1.2189837415651946e+01 6.3449839060634456e+00 1.9159396937591297e-01 -4 0 -2
727 1 9.7027784176746241e+00 7.2796200160553344e+00 1.1237122540303435e+01 0 0 1
114 2 7.7800379739528323e+00 1.0343527851617420e+00 1.4197654552395663e+01 -2 0 -1
425 2 1.3536566841678614e+01 4.0089292376317225e+00 4.4058453663297268e+00 -2 0 1
544 1 1.9306639438236406e+00 1.8281368897257213e+00 1.5538000171790326e+01 2 0 1
963 2 2.2452357090519657e+00 -1.6486785447665797e+00 1.5411342159084127e+01 -3 0 -1
1001 2 1.2299313284934764e+01 6.4332597710619499e-01 5.2481244270958598e+00 -1 0 1
496 1 6.1128212023427073e+00 7.7512458743847867e-01 8.5301793697938688e+00 0 0 1
245 2 9.4672277946153844e+00 8.2401474095340959e+00 1.4448796284593893e+01 -4 0 -4
337 1 6.8340480969483064e+00 2.2314096326370567e+00 4.1420857770815145e+00 -1 0 -1
168 2 1.1376861525759528e+01 4.0164846611752756e+00 3.1408596043176944e+00 -4 0 -3
787 1 7.0323895036545858e+00 8.7613338821048767e+00 3.7031652801551393e+00 -2 0 0
192 2 1.9674321419434015e-01 7.4261215973146957e+00 1.2697274770041139e+01 -2 0 -3
529 1 7.1819209746346342e+00 -1.7791876735096992e+00 3.8474318306654394e+00 -1 0 0
584 2 -1.3611476153282194e+00 8.6503028399424764e+00 1.0633399872856824e+01 -4 0 -4
641 2 1.5539754551747272e+01 7.2034303542818208e+00 6.1502872121487160e+00 3 0 -1
110 2 4.8918154426533622e-01 -6.0297663678556201e-01 1.6273628106050303e+01 1 0 -4
389 2 1.3386005040577770e+01 -1.5231615844761648e+00 5.4843460673207938e+00 -1 0 0
47 2 8.2202157739128765e+00 5.2603421317112593e+00 7.9092334868138643e+00 -3 0 0
207 2 4.2677332535266448e+00 1.0588134188095260e+00 1.2276463707412065e+01 3 0 0
808 1 5.5562607749982060e+00 3.4046600875666018e+00 8.6069662784713277e+00 -4 0 -1
585 2 -2.5102494146935994e-01 9.2616605768636564e+00 1.1442940463117514e+01 -4 0 -4
577 1 1.5749594265290572e+00 4.2831093812533965e+00 1.4594524446784229e+01 0 0 0
19 1 9.9426403176148419e+00 7.5617889982519273e+00 6.4320693497009163e-01 -3 0 -3
1000 1 1.2090566677867104e+01 1.1839786637585430e+00 4.4760766959637426e+00 -1 0 1
294 2 -3.4009780116102561e-01 2.1517430781490319e+00 8.8922530630486367e+00 1 0 -3
390 2 1.4604090236287764e+01 -1.5172448950964004e+00 4.3474465161289420e+00 -1 0 0
583 1 -7.7228236961793550e-01 9.3986390837942579e+00 1.0615189097727351e+01 -4 0 -4
521 2 9.2270675565175395e+00 -4.3759089826228514e-01 9.4668713758056295e+00 -5 0 -2
813 2 1.0986935282508501e+01 2.3223664088335907e+00 1.5622672108876797e+01 -2 0 -1
912 2 1.1608372540399190e+01 -1.1650834954588671e+00 6.5230543484715708e+00 -2 0 1
244 1 8.9081242172806370e+00 7.9843323647942750e+00 1.3681431327673156e+01 -4 0 -4
978 2 6.2516843051068696e+00 -1.4834170386761558e+00 1.6447706437296645e+01 -3 0 -1
771 2 -1.4591022749852138e+00 3.4343239800336232e+00 5.8290839562424068e+00 1 0 -3
312 2 3.4805341443813687e+00 9.5993024485727130e+00 1.2374543976414788e+01 0 0 -2
809 2 5.8248898760759245e+00 3.8077811581096981e+00 7.7573790259488771e+00 -4 0 -1
866 2 -1.1457175713787864e+00 5.8954941611233149e+00 1.6400192910940714e+01 -3 0 -1
94 1 -9.3685966304036583e-02 6.6345175752198182e-01 3.3002147784748113e+00 -1 0 -1
225 2 6.2880486616734679e+00 7.1709156298407635e+00 8.9148074867161520e-01 -2 0 -1
770 2 -3.5269038971400768e-02 2.7440500916706920e+00 5.8644038539816545e+00 1 0 -3
123 2 6.3701598974259577e+00 6.8989029571586400e+00 1.5979979354395088e+01 -2 0 -1
440 2 -3.5572448348996115e+00 3.2321109559161529e+00 1.6300543387988458e+01 -2 0 -2
383 2 -1.2686606185849553e-01 6.9795321831470964e+00 1.6757189645403365e+00 -1 0 1
85 1 1.4604583416864440e+01 -1.9620438576216652e+00 7.5635857727832168e-01 1 0 -2
499 1 7.9396641836276594e-02 2.3155821224132085e+00 1.2238441336442618e+01 1 0 1
910 1 1.2426672443702618e+01 -6.2323886036817311e-01 6.4254788488493260e+00 -2 0 1
546 2 1.8833281233488295e+00 2.6381282096037797e+00 1.4979861191950155e+01 2 0 1
428 2 1.0473851708719423e+01 9.1551956126037854e+00 1.6563867148668908e+01 -1 0 -1
515 2 1.2835520076352836e+01 9.1462089770064239e+00 7.7738475092322110e+00 -1 0 -1
612 2 1.3954802254559352e+01 3.0642842966301451e+00 1.0120620788862391e+01 -1 0 1
674 2 -2.5837126045883836e+00 9.5040541267962091e+00 1.7822297393536438e+01 0 0 -4
121 1 5.9349029755228084e+00 7.3673230867381090e+00 1.6687927674603198e+01 -2 0 -1
911 2 1.2591381961251013e+01 -1.4321175423699950e-01 7.2380304717230075e+00 -2 0 1
424 1 1.3246370666674032e+01 4.0661593149962707e+00 3.4499357207615176e+00 -2 0 1
811 1 1.0866876975754348e+01 2.3171563298636828e+00 1.6539970307042545e+01 -2 0 -1