LAMMPS data file via write_data, version 15 Apr 2020, timestep = 3280000

576 atoms
2 atom types

5.3965608541538224e-01 1.7380344914573712e+01 xlo xhi
3.3465508541550726e-01 1.7175343914573837e+01 ylo yhi
6.8465608541545997e-01 1.7525344914574340e+01 zlo zhi

Masses

1 16
2 2

Atoms # atomic

403 1 1.7130695296464118e+00 3.2883295407102060e+00 1.9120713633937487e+00 1 5 0
405 2 7.8861786320753646e-01 2.8887268199962093e+00 1.9974284601722350e+00 1 5 0
404 2 2.1457157969783589e+00 3.2994388408550530e+00 2.8341988232186801e+00 1 5 0
238 1 3.2453429884428862e+00 6.6966474995304970e-01 1.3559628777172432e+00 -1 -4 1
199 1 3.4178079362229035e+00 3.2398015328209002e+00 4.1459296969031438e+00 3 -3 -3
200 2 3.3894735754728700e+00 2.3886832122405921e+00 4.5929456960810482e+00 3 -3 -3
201 2 4.3145540782722138e+00 3.4464738681568852e+00 4.0026751879229829e+00 3 -3 -3
239 2 4.0650128137836177e+00 9.8524008105526084e-01 1.8197408179978922e+00 -1 -4 1
228 2 3.2355160645770700e+00 4.2869564148816082e+00 1.3721776314035838e+00 1 2 1
240 2 2.8556097402150553e+00 1.3862931272400341e+00 8.1185451675087528e-01 -1 -4 1
502 1 1.0390263256775376e+00 3.4817763933896778e-01 3.5986740029882811e+00 -1 4 3
504 2 1.2015747387928335e+00 7.5247552189786893e-01 2.7599719219979213e+00 -1 4 3
433 1 5.8109524635079550e+00 6.4226734681194475e-01 3.2674620824482927e+00 -3 7 -1
362 2 8.3597613156281056e+00 3.1575170514720292e+00 3.7569925560131687e+00 -7 0 -1
434 2 6.7102701289404445e+00 1.0801002067489938e+00 3.2567084212135780e+00 -3 7 -1
361 1 7.9639780654724266e+00 2.3475096955325734e+00 4.1448825237117415e+00 -7 0 -1
559 1 6.1911715214179104e+00 3.7949167261538759e+00 2.0780152516158719e+00 0 -3 -1
197 2 7.7392587476936603e+00 2.7808697801826785e+00 1.1314336923224291e+00 1 -4 -2
560 2 5.2932133594660815e+00 4.2038522353088368e+00 1.7595591525469807e+00 0 -3 -1
363 2 7.2150143679462051e+00 2.7812774241189220e+00 4.6521483685258991e+00 -7 0 -1
384 2 4.8509868039836137e+00 7.4731501992030369e-01 4.6048458289799790e+00 2 -1 -1
196 1 8.5646108370282832e+00 2.4264230476137079e+00 8.2962174227770835e-01 1 -4 -2
561 2 6.5591936768712955e+00 4.4208543450668980e+00 2.6851880401252681e+00 0 -3 -1
524 2 9.6399143220749064e+00 5.8103416075395420e-01 3.3291518316619690e+00 2 0 1
445 1 1.1240520416267357e+01 3.9203867246988686e+00 1.5522210619701591e+00 0 1 4
258 2 1.1080777151151123e+01 4.3304716931210496e+00 3.9399483057076079e+00 -3 3 3
525 2 9.7520379201820937e+00 1.5236488987837074e+00 2.0287571961307558e+00 2 0 1
256 1 1.1478223851304394e+01 3.6474262210160471e+00 4.4878721879420578e+00 -3 3 3
257 2 1.2011487333322988e+01 3.2563140235334593e+00 3.8200495188676320e+00 -3 3 3
523 1 1.0269216073978429e+01 8.5242758235134219e-01 2.5765414559265150e+00 2 0 1
501 2 1.2228042885081157e+01 1.4055209701552926e+00 2.7570654505123242e+00 -1 -3 -1
446 2 1.1335984621841957e+01 3.3351424007978090e+00 7.6786937334107042e-01 0 1 4
499 1 1.3133852389837543e+01 1.6103168165376307e+00 2.4396964152279299e+00 -1 -3 -1
305 2 1.5463131204908155e+01 2.7634418458156955e+00 2.2375749716235345e+00 0 2 2
126 2 1.4314403292015539e+01 5.7083377201065133e-01 4.5445158966088099e+00 3 -3 3
304 1 1.6145271918942491e+01 2.4731219657297094e+00 1.6423296965607332e+00 0 2 2
500 2 1.3645911435151595e+01 8.2544552575213204e-01 2.7585307204073222e+00 -1 -3 -1
306 2 1.5755809700274527e+01 1.7269238279054908e+00 1.2051853160178729e+00 0 2 2
161 2 1.6247898867011858e+00 8.2942931491532832e+00 4.7810857739394121e+00 3 2 5
530 2 2.4812871382073496e+00 7.5235764256703819e+00 2.6203723857239609e+00 2 0 4
531 2 3.8579136566204100e+00 7.0563853871245517e+00 3.2411864132453765e+00 2 0 4
529 1 3.0968257323224795e+00 6.7788598680826766e+00 2.6915457501543321e+00 2 0 4
227 2 3.7508105537901253e+00 5.7289564537622022e+00 1.4095406807316542e+00 1 2 1
26 2 1.1692454387639870e+00 4.8228172428170257e+00 1.4392290198122679e+00 1 -2 0
25 1 6.9017117426617824e-01 5.6735600151094321e+00 1.1905583297385878e+00 1 -2 0
226 1 3.9226521555801992e+00 4.8765986490767883e+00 9.7718318765767265e-01 1 2 1
138 2 5.1920793056570593e+00 8.2072771403662461e+00 4.8106219891108379e+00 3 -6 1
137 2 5.4112014199069884e+00 8.5841723398432670e+00 3.3349624707540988e+00 3 -6 1
491 2 6.7560172661520124e+00 7.0897304272728254e+00 4.3243841152353628e+00 0 1 -5
490 1 7.6675759577345328e+00 6.7502705930182394e+00 4.6104848478129306e+00 0 1 -5
168 2 8.7004148914739474e+00 5.6911278178296980e+00 3.7899472311380213e+00 -3 2 -1
247 1 6.7355938895090137e+00 8.0050683571416066e+00 1.3704659988979819e+00 -2 3 2
248 2 6.1518311331212869e+00 7.3282470428029196e+00 1.7843342314906048e+00 -2 3 2
284 2 8.3414387400222054e+00 7.9518072833639009e+00 1.5039627704706160e+00 4 -3 -1
136 1 5.3114299641793750e+00 7.7965177805703165e+00 3.9183377827825021e+00 3 -6 1
447 2 1.0657536845090590e+01 4.6219299774464773e+00 1.2367016930864083e+00 0 1 4
166 1 9.1452712798031204e+00 4.8410795147729466e+00 3.6338648530722275e+00 -3 2 -1
167 2 9.4871270145720334e+00 4.8291688850143428e+00 2.7022044296828214e+00 -3 2 -1
285 2 9.4104664031942438e+00 8.1480783690509462e+00 2.5780340444243848e+00 4 -3 -1
180 2 9.6437907025799010e+00 6.7182574209405512e+00 1.0689080717886548e+00 -2 3 3
178 1 9.6458544845924195e+00 5.7623920382076923e+00 8.3042264188230908e-01 -2 3 3
131 2 1.2437646398372378e+01 8.4337545991904044e+00 1.5470381307087062e+00 2 1 -6
563 2 1.1456841564518673e+01 8.1121265758082437e+00 3.3418249130411164e+00 -4 -3 5
130 1 1.2862878757047657e+01 8.1930510545562232e+00 2.3928210990902521e+00 2 1 -6
283 1 9.2109605793722444e+00 8.3422267398798748e+00 1.6958376170075455e+00 4 -3 -1
562 1 1.0583742312834735e+01 8.0212265234935476e+00 3.8730010753820507e+00 -4 -3 5
132 2 1.2931792365498497e+01 7.2180557982185860e+00 2.3429478909409172e+00 2 1 -6
287 2 1.2638302348073339e+01 4.8204014040060672e+00 1.8091831059585997e+00 4 -1 -1
564 2 1.0787902222049247e+01 7.3154710944538648e+00 4.4686850199617503e+00 -4 -3 5
121 1 1.4193861505230460e+01 4.8430274145533980e+00 4.5504814275183509e+00 -2 0 1
312 2 1.6959488095397546e+01 6.5185872231110444e+00 4.1692317004764456e+00 -5 -1 2
288 2 1.3706637955341455e+01 5.3410658052994160e+00 2.9548141603016860e+00 4 -1 -1
310 1 1.6283084705634511e+01 6.3026498093327952e+00 3.5018840225574683e+00 -5 -1 2
286 1 1.3402455444354469e+01 5.4372090072882076e+00 2.0465572645004237e+00 4 -1 -1
27 2 1.7249474638032275e+01 5.9556503547003539e+00 2.1092907949453972e+00 0 -2 0
311 2 1.5691252961853253e+01 7.0667295034834767e+00 3.6210751142365938e+00 -5 -1 2
323 2 1.3895091526961044e+01 7.8495890589549919e+00 4.6168856095264754e+00 1 2 1
123 2 1.5132522794800673e+01 4.9412183911207244e+00 4.7981692725202905e+00 -2 0 1
21 2 1.4559359858732147e+01 5.4918420541486395e+00 9.6452950157401718e-01 -2 1 6
56 2 1.7159919094164685e+01 8.7099989066989867e+00 1.9226607716870525e+00 -1 -3 1
382 1 4.2074519498057068e+00 9.7905987562356822e-01 5.3590540359783674e+00 2 -1 -1
54 2 9.2660469319338601e-01 8.6156696189477400e-01 5.2105486154242726e+00 3 0 3
473 2 6.9136814782648970e-01 1.5185519512542101e+00 8.8353344582194726e+00 -2 -4 -3
459 2 2.5589235540015185e+00 3.6150875608979645e+00 8.5790201273023250e+00 4 3 -4
387 2 1.7385939152918057e+00 2.4142943365462894e+00 6.7340894449627671e+00 3 -1 -1
385 1 2.2166334964671801e+00 3.2054676346691235e+00 7.1041981570008543e+00 3 -1 -1
386 2 1.9899604911206570e+00 4.0094718697291407e+00 6.5461631813983505e+00 3 -1 -1
528 2 4.0174638246091874e+00 2.9367558436662744e+00 7.2645268184450416e+00 -2 -4 -4
383 2 4.7101190841933498e+00 1.2981193928573651e+00 6.1522020190102973e+00 2 -1 -1
472 1 1.3790528815929493e+00 8.3646020399228993e-01 8.9281494922985889e+00 -2 -4 -3
527 2 5.0583664933768562e+00 2.3829157003150123e+00 8.2774930706016434e+00 -2 -4 -4
526 1 4.9764096606490362e+00 2.7106887077446786e+00 7.3148449640549433e+00 -2 -4 -4
102 2 8.8401516346495743e+00 2.5705426403330573e+00 8.3543489362484635e+00 0 2 3
100 1 8.0944076882247700e+00 2.6075831997760535e+00 7.7173313395153382e+00 0 2 3
101 2 7.3301433352805612e+00 2.8551554582673653e+00 8.2577771871818744e+00 0 2 3
534 2 5.4821502764714340e+00 3.7150557358747873e+00 5.7892341148658764e+00 3 3 7
532 1 6.1390481447839695e+00 3.9508603273134444e+00 5.1252455877714738e+00 3 3 7
510 2 7.3711616296163571e+00 1.1455871210283779e+00 6.9305815194395564e+00 1 0 -2
263 2 8.8870222834016044e+00 4.4331939062800707e+00 7.3330935880084374e+00 -5 1 -1
508 1 7.1709024089926308e+00 3.8803954224219750e-01 6.4280554001061363e+00 1 0 -2
264 2 9.4865289538570625e+00 4.4587826688295449e+00 5.9178687513305723e+00 -5 1 -1
432 2 1.0083460478668274e+01 5.7621995446313679e-01 7.3039829227623008e+00 -3 -2 2
411 2 1.1664167843867679e+01 3.6918868244203393e+00 7.9763348570754342e+00 -2 2 0
300 2 9.0948490662329800e+00 2.0124819783301269e+00 5.3885543285385662e+00 1 2 5
299 2 1.0635909812155717e+01 2.4267530777374233e+00 5.5401881478614978e+00 1 2 5
298 1 9.9358723402391806e+00 1.7457671458952535e+00 5.7952386736288517e+00 1 2 5
410 2 1.3065774956978935e+01 3.5397519714314694e+00 7.5442250224710650e+00 -2 2 0
409 1 1.2384372266694042e+01 4.2305911046650664e+00 7.7079583766498940e+00 -2 2 0
75 2 1.2908271285519069e+01 1.0107682493777905e+00 7.1866459395642615e+00 1 -2 -3
349 1 1.4779821902973756e+01 2.2955686555145967e+00 5.0587962123627088e+00 -1 -3 -1
350 2 1.5693520284531187e+01 2.3406317793586067e+00 5.3561532472939462e+00 -1 -3 -1
351 2 1.4444336192434037e+01 3.2110250618266662e+00 5.0337967959435330e+00 -1 -3 -1
52 1 1.7259745468785603e+01 1.3671429531862775e+00 5.9050437350255836e+00 2 0 3
74 2 1.4090519518849742e+01 1.7981388580455442e+00 6.5846818872417661e+00 1 -2 -3
73 1 1.3551823494773437e+01 1.7158842715042582e+00 7.4361709508477611e+00 1 -2 -3
368 2 1.5181800538737040e+01 2.2338948082943704e+00 8.2258119027074166e+00 -2 -4 -3
53 2 1.6924895025233205e+01 6.5339662015564592e-01 6.4821125360275245e+00 2 0 3
367 1 1.5977760054247561e+01 2.8120154653151386e+00 8.3080718382474004e+00 -2 -4 -3
302 2 1.6262531462915661e+01 3.9647505145107353e+00 7.1469482041535137e+00 0 -3 4
152 2 1.4427512869349082e+01 3.4051021529173719e-01 9.0822068331533323e+00 4 2 1
218 2 3.2176455937853241e+00 5.1496814806345510e+00 4.9007449238440834e+00 1 1 -4
11 2 3.2297831047062675e+00 6.9231571187319467e+00 8.7255234266913178e+00 6 -1 3
162 2 7.9028729418568200e-01 7.5399929071997613e+00 5.9430299468423042e+00 3 2 5
160 1 1.2082177780491441e+00 7.4093879671734983e+00 5.0880578487347261e+00 3 2 5
219 2 2.3161703065481487e+00 6.2362037481809898e+00 5.4335851965997364e+00 1 1 -4
217 1 2.9727336534785667e+00 5.5496372116500687e+00 5.7635905139036163e+00 1 1 -4
495 2 4.5190374963064475e+00 5.8662022749262936e+00 6.8562917075198184e+00 0 -1 1
128 2 9.3012938387195665e-01 6.8330197713570078e+00 8.3246619142221228e+00 1 -3 1
567 2 1.9169016342753724e+00 8.7097107152586659e+00 7.7552414000028440e+00 -3 2 2
533 2 6.5730114630921657e+00 4.7521808395065657e+00 5.3930551088188432e+00 3 3 7
174 2 6.1499919383634412e+00 5.0925399854545530e+00 8.5477498552759315e+00 -1 -3 3
275 2 7.9429541824078580e+00 7.4710725153158748e+00 8.7018600868288996e+00 -6 -1 -2
492 2 7.9260817456719979e+00 7.1783369500256891e+00 5.3946452766040309e+00 0 1 -5
493 1 5.2788799015396446e+00 6.1555663987313878e+00 7.3551582403532541e+00 0 -1 1
494 2 5.4525518846403696e+00 7.0375014337447803e+00 7.0291613331457201e+00 0 -1 1
343 1 8.5098651533016536e+00 7.2683378615003340e+00 7.1604910118990697e+00 3 1 1
344 2 8.8979592727347114e+00 6.3317422850916349e+00 7.1286618597674449e+00 3 1 1
246 2 4.8720239450867719e+00 8.6864476640499415e+00 8.9689897758665875e+00 -1 -1 -1
207 2 1.1101303627638648e+01 8.0317988028645360e+00 8.4447841110028463e+00 -4 1 0
205 1 1.1098099552808295e+01 8.5526857975830684e+00 7.6463834092086644e+00 -4 1 0
395 2 1.2024335167755867e+01 7.1268570784065313e+00 6.6012398779273296e+00 2 1 0
345 2 9.3685324254234974e+00 7.7553230242268567e+00 7.1964609202352010e+00 3 1 1
262 1 9.5459354332292694e+00 4.9175907137081669e+00 6.7646923051725327e+00 -5 1 -1
396 2 1.1769604115803531e+01 5.6228886881516980e+00 6.2242787218036169e+00 2 1 0
394 1 1.2185725228246591e+01 6.4678756446885144e+00 5.9213692303357028e+00 2 1 0
206 2 1.2104312088730529e+01 8.6728405950604426e+00 7.4798582386567736e+00 -4 1 0
486 2 1.2880033198449878e+01 4.9287439336520027e+00 9.0997405025923168e+00 -4 -1 1
301 1 1.6484101427564667e+01 4.5855700501789238e+00 6.4009878593838021e+00 0 -3 4
322 1 1.4690161677441024e+01 8.3142845029609056e+00 4.9325740838271317e+00 1 2 1
127 1 1.7034176527665899e+01 7.1743819217913591e+00 7.8262795222377921e+00 0 -3 1
86 2 1.4033310671681734e+01 8.6422085784026397e+00 6.4170718606960122e+00 1 4 0
87 2 1.4168353807098223e+01 8.4213875877610693e+00 7.9924268513255310e+00 1 4 0
129 2 1.6287953202618819e+01 6.9996136232042927e+00 8.3858428761155324e+00 0 -3 1
122 2 1.3681613587461614e+01 5.0975142673905109e+00 5.3294720618439779e+00 -2 0 1
303 2 1.6596884736043371e+01 5.3869176058590496e+00 6.9433902171083428e+00 0 -3 4
355 1 1.6236470205734657e+00 2.1353080504238129e+00 1.1926701495180884e+01 4 -1 -3
356 2 1.9027244593736639e+00 1.2282277131574530e+00 1.2047607518365261e+01 4 -1 -3
458 2 2.5456508772779083e+00 3.7334091538933287e+00 1.0270253816375201e+01 4 3 -4
468 2 2.1347339505932741e+00 3.4988116001396170e+00 1.2643551236210142e+01 2 0 -2
325 1 4.3805548828267611e+00 1.4201131911880529e+00 9.6097161151360488e+00 -3 1 5
357 2 7.2848779150655807e-01 2.0298685299370955e+00 1.1614187966887563e+01 4 -1 -3
457 1 2.9472888860052522e+00 4.0351267665823496e+00 9.3843911791891532e+00 4 3 -4
326 2 3.4096430725790632e+00 1.3663353237315132e+00 9.6875396009053159e+00 -3 1 5
327 2 4.6432992003479461e+00 4.4397477117955486e-01 9.7649398217839600e+00 -3 1 5
466 1 2.7165029206656652e+00 4.2876602083431159e+00 1.2792833919652406e+01 2 0 -2
93 2 4.8402641844913541e+00 2.6318736055181287e+00 1.0829732708252321e+01 3 -1 -5
92 2 6.3369668627123001e+00 2.9075507867948374e+00 1.1177956300779558e+01 3 -1 -5
91 1 5.3985701833990518e+00 3.3538828439572614e+00 1.1179737108674564e+01 3 -1 -5
173 2 6.0888388343654043e+00 4.1932534585810730e+00 9.8220239696158682e+00 -1 -3 3
48 2 7.9943867400979345e+00 1.4524764121504528e+00 1.0339380616902822e+01 1 -2 2
47 2 7.9624407734180185e+00 1.8650803871722257e+00 1.1884426324337637e+01 1 -2 2
46 1 7.5590040615654557e+00 2.0244220759054543e+00 1.0984781436987197e+01 1 -2 2
252 2 7.6288920541293370e+00 4.3137280668825824e+00 1.2961168952849341e+01 5 4 2
392 2 5.5833638373004781e+00 4.4448624350221824e+00 1.2329131516357780e+01 0 -6 4
250 1 8.5300164590577587e+00 3.8896848455731701e+00 1.2881456460080914e+01 5 4 2
297 2 1.0467190114212752e+01 2.0430809604976718e+00 9.7946874641402371e+00 0 -3 1
427 1 1.1979321594072127e+01 1.4049922527892058e+00 1.1702614392506600e+01 1 1 -7
451 1 1.2659268796138587e+01 4.0243260784630426e+00 1.2498607820721061e+01 -4 7 1
452 2 1.2291794463804578e+01 3.2499008191538619e+00 1.2127974770353051e+01 -4 7 1
296 2 9.9175428221634618e+00 3.5125020431150666e+00 9.6388046355073502e+00 0 -3 1
295 1 1.0534683503783132e+01 2.8353772142719285e+00 9.2239527474100047e+00 0 -3 1
429 2 1.2306348513035417e+01 1.0407085441187534e+00 1.2520517426677371e+01 1 1 -7
188 2 9.0626776795911024e+00 4.2980516332422951e+00 1.1130691881490833e+01 3 6 -1
339 2 1.0697621171711573e+01 4.6729435808260178e-01 1.1015027218944974e+01 5 0 3
428 2 1.2615315468070605e+01 1.1631526758278343e+00 1.1012921239229202e+01 1 1 -7
337 1 9.8838390507333660e+00 4.1141369652331194e-01 1.0389785726431594e+01 5 0 3
453 2 1.3578825982555072e+01 3.6864650338635632e+00 1.2812079504031241e+01 -4 7 1
293 2 1.6178159083317411e+01 1.3944830231986161e+00 1.2685287499617113e+01 -1 7 0
292 1 1.5811125366357773e+01 1.8790740241499315e+00 1.1912342358391056e+01 -1 7 0
480 2 1.5614247011852214e+01 3.6329809563141162e+00 1.1302082148167598e+01 -2 -2 -4
294 2 1.5282652615446471e+01 1.2832648113165326e+00 1.1388663713237550e+01 -1 7 0
478 1 1.5667898804374804e+01 4.3636236466949834e+00 1.0630094858550518e+01 -2 -2 -4
151 1 1.4237645623358747e+01 4.1007220299804426e-01 1.0064272548697158e+01 4 2 1
369 2 1.5878226181363354e+01 3.1863775608078333e+00 9.1698387835234403e+00 -2 -4 -3
12 2 2.6151079382503819e+00 5.6542066204248140e+00 9.4943448147428775e+00 6 -1 3
467 2 2.2509502877498431e+00 4.9470489695422639e+00 1.2325719379313824e+01 2 0 -2
99 2 4.4874500934746528e+00 6.2210264488637597e+00 1.0514522398615378e+01 -3 2 -1
104 2 1.7709845995167826e+00 8.1036925181155013e+00 1.0102834624677079e+01 1 -1 4
97 1 4.5591449598116842e+00 6.8947901451364721e+00 1.1166534699934946e+01 -3 2 -1
272 2 2.6304955379603636e+00 8.2062089956078808e+00 1.2455664836718139e+01 -2 2 0
267 2 8.6698273088019162e-01 6.9195055322306214e+00 1.1238850706257070e+01 -5 -2 1
265 1 8.5616087758561044e-01 5.9696298473136098e+00 1.1604060773220915e+01 -5 -2 1
103 1 1.2999690481021471e+00 8.7194322564536808e+00 1.0694139788068245e+01 1 -1 4
147 2 6.4214451498744185e-01 5.8827799167143269e+00 1.3107862460749129e+01 3 3 4
10 1 2.4986915644910970e+00 6.6560842648518515e+00 9.2877943092360606e+00 6 -1 3
245 2 5.0075592710094243e+00 8.1527590235667695e+00 1.0360229945036854e+01 -1 -1 -1
98 2 5.3391291722266896e+00 6.6069961875998118e+00 1.1665795123452758e+01 -3 2 -1
391 1 6.0897199688836627e+00 5.1956933110667123e+00 1.2822247568891987e+01 0 -6 4
172 1 6.7288987286792414e+00 4.6586110982095823e+00 9.2364244283837706e+00 -1 -3 3
189 2 8.2025081037126473e+00 4.5546407253182482e+00 9.8648204906778130e+00 3 6 -1
331 1 7.8850979406467072e+00 7.3441601633304021e+00 1.2018933137783254e+01 -1 0 -4
332 2 7.6787491344910341e+00 7.3321886471768245e+00 1.1027602736499137e+01 -1 0 -4
333 2 7.3766671239939470e+00 6.6123510612011795e+00 1.2387110132524477e+01 -1 0 -4
274 1 7.7585215988162943e+00 7.9875389846450711e+00 9.5314227978019783e+00 -6 -1 -2
276 2 6.9080096772001953e+00 8.3936098679719322e+00 9.3237447307086025e+00 -6 -1 -2
204 2 7.4089414279141428e+00 8.4861830381243877e+00 1.3201872098887035e+01 -4 1 0
485 2 1.2879745249274936e+01 4.6840117952491154e+00 1.0553211046719177e+01 -4 -1 1
375 2 1.0261947905221120e+01 7.5764114845773580e+00 1.3060135547551837e+01 0 -1 4
187 1 9.0759918799344792e+00 4.7597232265611042e+00 1.0249913142708152e+01 3 6 -1
373 1 1.0768013828415954e+01 8.1532158471645424e+00 1.2497483777494297e+01 0 -1 4
374 2 1.0760931161261645e+01 7.6822815028047282e+00 1.1649211651900252e+01 0 -1 4
77 2 1.0303100554778110e+01 6.4064369484061920e+00 1.0024512825230204e+01 0 -3 -3
76 1 1.0984752941888578e+01 7.0727223262218164e+00 9.9760854567106101e+00 0 -3 -3
78 2 1.1840468786076755e+01 6.5686905632837567e+00 1.0107670359131861e+01 0 -3 -3
484 1 1.3146373108156592e+01 5.3513123199810044e+00 9.8974343782213374e+00 -4 -1 1
63 2 1.2590157969563650e+01 7.7458031518946715e+00 1.2514998074437379e+01 3 -2 0
479 2 1.4800631454896562e+01 4.8100139509726869e+00 1.0533167480276708e+01 -2 -2 -4
61 1 1.3454059718931049e+01 7.6346361282971911e+00 1.2101269384126370e+01 3 -2 0
62 2 1.3899909217375054e+01 6.9885321228936492e+00 1.2747360366904097e+01 3 -2 0
144 2 1.5027634492338644e+01 8.1052436079686245e+00 1.0137959638616779e+01 1 -1 2
266 2 1.6863454622746474e+01 5.5217495508877521e+00 1.1256317230036732e+01 -6 -2 1
143 2 1.4182565394619267e+01 6.9145226771304875e+00 9.6433256541319974e+00 1 -1 2
142 1 1.4831941433175063e+01 7.6190302893381228e+00 9.2951410394214378e+00 1 -1 2
191 2 3.9162805969555183e+00 2.8336474819899440e+00 1.3476121656803148e+01 2 1 -5
515 2 8.2249663844132104e-01 7.6285088869138540e-01 1.4610675807288739e+01 2 3 -3
360 2 3.0111632179522436e+00 1.8206396776317948e+00 1.5251986463255616e+01 2 3 3
358 1 2.1576910596978900e+00 1.6328381668962562e+00 1.5642330396021455e+01 2 3 3
359 2 1.5507343230657618e+00 2.3800574320101315e+00 1.5528662806343917e+01 2 3 3
190 1 4.4337474461509938e+00 2.2146224264969554e+00 1.3957994602373585e+01 2 1 -5
192 2 4.7200192331124011e+00 1.5026540436371842e+00 1.3363825440368169e+01 2 1 -5
279 2 6.1303226059639622e+00 9.5483528417245300e-01 1.6323385272674205e+01 -2 0 6
198 2 8.1636434800286839e+00 1.7031975577158898e+00 1.7142258988374422e+01 1 -4 -3
33 2 7.6131026176391403e+00 8.7976657828768390e-01 1.4020502964620196e+01 -7 6 4
545 2 5.5033433683848259e+00 3.1108620387266503e+00 1.5072464572304428e+01 -1 2 1
544 1 5.8776851740539842e+00 3.7998261204103319e+00 1.5650228043909252e+01 -1 2 1
31 1 8.3992758468650592e+00 1.0099467787996708e+00 1.3497654506595909e+01 -7 6 4
546 2 5.2375528159523146e+00 3.9942791228972849e+00 1.6406011100707012e+01 -1 2 1
277 1 7.0217172593969295e+00 6.3593021176991349e-01 1.6260651638058825e+01 -2 0 6
32 2 8.7793769198864737e+00 1.8293200716771072e+00 1.3951884003298861e+01 -7 6 4
537 2 1.2952715183222297e+01 1.4264059514476171e+00 1.7268489369990156e+01 3 -1 -7
535 1 1.2882076286927708e+01 1.4161433642636549e+00 1.6334772982506522e+01 3 -1 -7
290 2 9.7146396031524382e+00 2.7343928398365094e+00 1.6250396979716363e+01 2 -2 -2
289 1 1.0517167044159988e+01 2.5375452192232886e+00 1.5738232568967161e+01 2 -2 -2
536 2 1.1920454700653210e+01 1.6554115670778973e+00 1.6123793642019251e+01 3 -1 -7
291 2 1.0980242353421380e+01 3.3608044349776680e+00 1.5433022081584580e+01 2 -2 -2
251 2 9.1122357842707551e+00 4.4181682605545394e+00 1.3501318275752594e+01 5 4 2
539 2 1.7065875976914839e+01 4.2775443027613242e+00 1.5047513568401108e+01 4 3 0
538 1 1.6852022204132844e+01 3.4900635911366864e+00 1.5574688531995729e+01 4 3 0
471 2 1.4006302511497529e+01 2.3487999413840441e+00 1.5154176421519281e+01 -2 1 1
469 1 1.4386185140709106e+01 3.0856278147346936e+00 1.4634071477652062e+01 -2 1 1
470 2 1.5272675658962401e+01 3.1967926042090484e+00 1.5048415375475305e+01 -2 1 1
540 2 1.6408707431367567e+01 3.8248339387556767e+00 1.6394755930022001e+01 4 3 0
514 1 1.6850667717352188e+01 4.0203071164916654e-01 1.4137907222686311e+01 1 3 -3
271 1 2.6826660756352836e+00 8.6121605409832469e+00 1.3383449902378048e+01 -2 2 0
237 2 1.4796608893118641e+00 6.7912578396042900e+00 1.6913283160053602e+01 3 2 2
235 1 1.7160494914001498e+00 7.2580950285178760e+00 1.6067423439826801e+01 3 2 2
315 2 3.1516817128884136e+00 6.2406954568729507e+00 1.5344698077716471e+01 1 1 2
313 1 3.7090568914438267e+00 6.0400872459851467e+00 1.4563982652644855e+01 1 1 2
314 2 3.1868047034514762e+00 5.4000977026670567e+00 1.3980938127050655e+01 1 1 2
273 2 2.9527342675214800e+00 7.8273725192177812e+00 1.3878800507458243e+01 -2 2 0
236 2 1.9457461368149158e+00 8.1279760252844540e+00 1.6341603094458470e+01 3 2 2
146 2 7.5924258490411345e-01 6.5572831124420876e+00 1.4691492020617131e+01 3 3 4
249 2 6.4443722083317896e+00 7.9802595802953737e+00 1.7272143714066580e+01 -2 3 1
393 2 5.8129595447414868e+00 5.1271135986951055e+00 1.3726779808307004e+01 0 -6 4
140 2 7.3102522320841308e+00 4.9259070406249919e+00 1.5911354783268729e+01 -3 1 -3
576 2 6.2665516266682602e+00 8.0863935962837665e+00 1.4962509258639360e+01 0 1 -2
141 2 7.1214239532806518e+00 6.3387964190058526e+00 1.5573303097155362e+01 -3 1 -3
574 1 5.8067232714494903e+00 7.5091231653522490e+00 1.5663321862583803e+01 0 1 -2
575 2 5.1302626186096107e+00 7.0360482685581589e+00 1.5123964072505119e+01 0 1 -2
139 1 7.8588454548316271e+00 5.6478718766987264e+00 1.5611129310732162e+01 -3 1 -3
179 2 8.8847998184021950e+00 5.6726424706275766e+00 1.7014901785689652e+01 -2 3 2
9 2 1.1766403344987046e+01 8.3391907777680654e+00 1.6132910471759509e+01 6 2 2
483 2 1.2955842427677341e+01 4.5470452500356817e+00 1.5387948758579968e+01 -6 -3 8
482 2 1.2149163300104181e+01 4.5497328258361360e+00 1.4069304892446324e+01 -6 -3 8
571 1 1.2480420135158967e+01 7.3942349835541332e+00 1.5182204539952757e+01 -2 2 -3
481 1 1.2093621363802935e+01 4.8634542822041613e+00 1.4998103882319693e+01 -6 -3 8
572 2 1.2218330303470866e+01 6.4905846957707762e+00 1.5209349514575775e+01 -2 2 -3
8 2 1.0535007742558006e+01 8.6050574164651827e+00 1.7247174825997035e+01 6 2 2
573 2 1.3369482237353207e+01 7.4893902769581873e+00 1.5558748464665189e+01 -2 2 -3
19 1 1.5154804195296130e+01 5.3662758444345675e+00 1.7045487667074603e+01 -2 1 5
20 2 1.6082822526672828e+01 5.5407648275626382e+00 1.7373730376005057e+01 -2 1 5
230 2 1.5824336937392628e+01 5.8728545017746239e+00 1.3852402739218160e+01 2 2 3
231 2 1.4481663067121064e+01 5.2599908555593569e+00 1.4128679637466785e+01 2 2 3
145 1 1.7368557041665063e+01 5.7595017290478339e+00 1.4140387041457966e+01 2 3 4
229 1 1.4920204423707315e+01 5.8023018408519942e+00 1.3471782590796318e+01 2 2 3
29 2 1.4991406260139161e+01 8.4044892338048331e+00 1.6785321790756456e+01 1 -2 2
28 1 1.4867416341019087e+01 7.9085958369562164e+00 1.5954671338028914e+01 1 -2 2
30 2 1.5103888671489370e+01 6.9925222552004946e+00 1.6242538046947381e+01 1 -2 2
462 2 3.0623120061470126e+00 9.6926388117457005e+00 3.7886270869161813e+00 0 5 -1
184 1 4.1954113803154920e+00 9.6906944624138873e+00 2.1705527095732444e+00 1 3 1
185 2 3.7163660736207995e+00 9.7218099867364884e+00 1.3567376293971662e+00 1 3 1
439 1 3.8504464101068017e+00 1.2664262125077821e+01 8.4371376583051716e-01 3 -1 2
460 1 2.4258529767237098e+00 9.6131639451131417e+00 4.5269897513240140e+00 0 5 -1
195 2 1.4052624115636987e+00 1.1146403702840058e+01 3.8809670294510856e+00 1 2 -1
194 2 1.0968471818215644e+00 1.2273166832519577e+01 2.9340999077907219e+00 1 2 -1
193 1 6.8989434772653224e-01 1.1475858440438017e+01 3.3210922735275985e+00 1 2 -1
441 2 2.9847141006296827e+00 1.2500590550941988e+01 1.1459037663536948e+00 3 -1 2
55 1 1.2249972639234352e+00 8.9631035868741282e+00 2.1773631447073911e+00 0 -3 1
224 2 4.4041766885103657e+00 1.2140222598128391e+01 4.7161993799062474e+00 3 3 -2
57 2 1.0069533616796797e+00 9.7698037759689242e+00 2.7220798609716184e+00 0 -3 1
186 2 4.8861810703622943e+00 1.0365117896397082e+01 2.1081974281846669e+00 1 3 1
18 2 8.2611624822531287e+00 1.1593118462620854e+01 2.9174923158317050e+00 2 -1 -3
16 1 8.6674570679491350e+00 1.2078170559746987e+01 3.6643501502264941e+00 2 -1 -3
66 2 6.1256121490532633e+00 1.2083945080473391e+01 2.7803534028614969e+00 0 -2 -1
232 1 6.9261353529581884e+00 1.0571376112899348e+01 1.9447213784611781e+00 1 4 3
233 2 6.9641024575235750e+00 1.1109395330908447e+01 1.1132608621731575e+00 1 4 3
65 2 4.8561705764842031e+00 1.2686096951173763e+01 2.3655094558860172e+00 0 -2 -1
234 2 6.9289854344023549e+00 9.6259954336919655e+00 1.7500375801332939e+00 1 4 3
64 1 5.4928839460625616e+00 1.2736534187769857e+01 3.1036970847395020e+00 0 -2 -1
17 2 9.1968839141990824e+00 1.2711306586668014e+01 3.1830039464544080e+00 2 -1 -3
59 2 1.0819295868839065e+01 1.2060765244413751e+01 1.2359683630341922e+00 -1 -3 1
448 1 1.2621275596991588e+01 1.1442538927403948e+01 3.8443651238385788e+00 2 1 -4
450 2 1.2424780477461494e+01 1.1270192047971138e+01 2.8937742806238695e+00 2 1 -4
449 2 1.1837417294831337e+01 1.1002219024047527e+01 4.2698692879273912e+00 2 1 -4
506 2 9.5729561411237594e+00 1.0851441187328042e+01 4.4648310973779992e+00 -3 -1 3
58 1 1.1603494890603903e+01 1.1435988406648494e+01 1.3369383823193273e+00 -1 -3 1
60 2 1.1404099425515438e+01 1.0579743490958677e+01 8.7336312442096686e-01 -1 -3 1
406 1 1.5779591828443268e+01 1.1807562955680867e+01 7.2314442888936947e-01 1 2 -1
390 2 1.5960107696592083e+01 1.1379627473108322e+01 4.0000973874448249e+00 3 -3 -1
389 2 1.4410271828445101e+01 1.1396291200274595e+01 3.9932162665394446e+00 3 -3 -1
465 2 1.5530802613872890e+01 1.0142899636156764e+01 1.4015125526065699e+00 -1 1 2
408 2 1.6746847025932482e+01 1.1694542125658556e+01 7.4868670283162775e-01 1 2 -1
324 2 1.4854323537772039e+01 9.2284791477253698e+00 4.5784987228821166e+00 1 2 1
407 2 1.5513448544935596e+01 1.2520360937543883e+01 1.3605296900636847e+00 1 2 -1
388 1 1.5158659811213926e+01 1.0943631184053016e+01 4.4100908162136250e+00 3 -3 -1
464 2 1.4675434296890767e+01 8.9813736659224475e+00 2.0747010408056914e+00 -1 1 2
463 1 1.5393969743349258e+01 9.1429425133948357e+00 1.4820711068821681e+00 -1 1 2
397 1 3.1496799508741438e+00 1.5059520905264595e+01 3.5894138792960839e+00 3 4 2
398 2 2.6696433528480235e+00 1.5950530024209689e+01 3.5882699338881787e+00 3 4 2
399 2 3.8488933346978951e+00 1.5228114081400717e+01 4.2214621391271336e+00 3 4 2
438 2 2.3054914295507825e+00 1.4004070335389841e+01 2.4364429542164583e+00 2 -2 1
436 1 1.6133986467719243e+00 1.3539743526903978e+01 1.9254120493073337e+00 2 -2 1
437 2 1.4405252916329903e+00 1.4126228980362949e+01 1.1660798053149590e+00 2 -2 1
551 2 2.1460843145531872e+00 1.4201017862159848e+01 4.8295197856424732e+00 4 -6 3
2 2 4.3125563287846376e+00 1.4609742807524100e+01 7.9437145901915707e-01 1 3 2
164 2 7.9129443046662828e+00 1.3116418808018455e+01 4.8027486187588311e+00 4 -2 -3
497 2 7.0730390515649635e+00 1.4885241981120762e+01 1.6473798817417553e+00 0 1 0
435 2 5.9929964534069100e+00 1.6562834608904666e+01 2.9205302955785548e+00 -3 6 -1
496 1 7.0865855341122179e+00 1.5014806096163316e+01 2.5957222501385067e+00 0 1 0
498 2 6.4644239462090125e+00 1.4309134364798311e+01 2.9295947649837069e+00 0 1 0
475 1 8.6883425889947983e+00 1.6290808437300242e+01 4.2731949656084289e+00 0 0 -7
477 2 8.0021326618691297e+00 1.5903791586122514e+01 3.7492942435529573e+00 0 0 -7
371 2 8.8014072900333513e+00 1.3356426183529866e+01 9.8958669461026383e-01 5 2 0
370 1 9.6128353766192998e+00 1.3186817112539829e+01 1.4041366139345062e+00 5 2 0
372 2 1.0006415052758628e+01 1.4102037982458107e+01 1.3641216066318438e+00 5 2 0
35 2 1.2763072282686579e+01 1.5613817836191473e+01 7.8577800533013686e-01 -3 1 -1
37 1 1.1347473415022652e+01 1.5324967308670264e+01 1.6712699929085622e+00 -1 -7 -4
38 2 1.1608276757780207e+01 1.4843261085122746e+01 2.4774432579679280e+00 -1 -7 -4
39 2 1.0911356467850004e+01 1.6148290231226778e+01 1.9114748966539712e+00 -1 -7 -4
281 2 1.2218427775017679e+01 1.3070572824539143e+01 3.8669938291829387e+00 -1 1 -3
280 1 1.2379906344180599e+01 1.4052122381792113e+01 3.9216357694215418e+00 -1 1 -3
341 2 1.1500367503441998e+01 1.5574068813390076e+01 4.8421734440893607e+00 0 -2 0