LAMMPS data file via write_data, version 15 Apr 2020, timestep = 1164000

1920 atoms
2 atom types

-3.4465625539844780e-02 2.4758870625541142e+01 xlo xhi
2.7718200089472234e-02 2.4696686799902043e+01 ylo yhi
7.9172861977921727e-02 2.2713199138026106e+01 zlo zhi
-1.8774953160651451e-02 -1.8660477364369688e-01 -5.5624655962452890e-02 xy xz yz

Masses

1 16
2 2

Atoms # atomic

1 1 4.5567364965512533e+00 1.1687698947392529e+00 4.3482382785697222e+00 0 0 0
2 2 5.2373532958407081e+00 1.3570517002135862e+00 3.6880888118317876e+00 0 0 0
3 2 4.7540019654879089e+00 6.3329870737947103e-01 5.0870628676281289e+00 0 0 0
4 1 2.8611238324107142e+00 1.7931559656419340e+00 2.3227765042409128e+00 0 0 0
654 2 7.9648886823818890e+00 1.1758739360751717e+01 6.5947830991628456e+00 0 0 0
6 2 3.1674447631305505e+00 1.7726945515810257e+00 3.2628039084211427e+00 0 0 0
7 1 6.1783537656564835e+00 4.8432452265607795e+00 3.7988012015438222e+00 0 0 0
8 2 5.2313078308008416e+00 4.6808666126139435e+00 3.7177222912904493e+00 0 0 0
9 2 6.6704257611883904e+00 4.1046428792217053e+00 4.3222686958942109e+00 0 0 0
10 1 3.2807685367421979e+00 4.6043436006723928e+00 3.6203469874217475e+00 0 0 0
11 2 2.6372165520424029e+00 4.0023188572924155e+00 4.0842516862175673e+00 0 0 0
12 2 2.9472801660379662e+00 5.4437933379318562e+00 3.9161186303110829e+00 0 0 0
13 1 1.5159139078257435e+00 3.0539210292507799e+00 4.8302532597696191e+00 0 0 0
14 2 1.4637463919896054e+00 2.0727999891083382e+00 4.9003787892010822e+00 0 0 0
15 2 1.6826869711070469e+00 3.4481590822227401e+00 5.7346391702587143e+00 0 0 0
750 2 2.4141355076294073e+00 1.2092239932501357e+01 1.0092632535765919e+01 0 0 0
17 2 9.4145449396049663e-01 1.8417097289516546e+00 2.0928626178286849e+00 0 0 0
19 1 4.6533440299818878e+00 3.1988115875317313e+00 6.2266211662286508e-01 0 0 0
20 2 3.9766043587399178e+00 2.8117603053261937e+00 1.2353171699543353e+00 0 0 0
21 2 4.6442146819336125e+00 4.1975841231881699e+00 6.8515960633114459e-01 0 0 0
22 1 1.4273188644292873e+00 4.3300219474659123e+00 1.5464950741567265e+00 0 0 0
23 2 2.2306081074651947e+00 4.3537981332028188e+00 2.1582816604245836e+00 0 0 0
24 2 1.5610483929243035e+00 3.7118865855932515e+00 8.2683577056237034e-01 0 0 0
25 1 4.6460375059148564e+00 5.8121356454695654e+00 7.4606456676664923e-01 0 0 0
26 2 3.9767567913897857e+00 6.1023209320223479e+00 1.3440246890995216e+00 0 0 0
27 2 4.4508919943961356e+00 6.2680835802678159e+00 2.2548464491905946e+01 0 0 0
1470 2 1.2418681818169304e+00 4.0208017489008652e-02 1.9242567075162209e-01 0 1 0
31 1 1.0881297044580535e+01 1.3621857045732255e+00 4.2809864161911939e+00 0 0 0
32 2 1.0764729915370808e+01 2.1725337697848199e+00 4.8206756426465986e+00 0 0 0
896 2 1.0607685990068546e+01 1.0028908968339280e-01 5.5735865437411505e+00 0 0 0
34 1 9.0327850967641563e+00 1.5033699424935485e+00 2.2503487719436230e+00 0 0 0
198 2 1.1957756637833411e+01 6.7996370760412050e+00 1.5068264672984961e+00 0 0 0
36 2 9.5740223657793013e+00 2.1817998658094484e+00 1.7562756989706663e+00 0 0 0
1096 1 7.2849678804946388e-02 7.6887387770466118e+00 1.3298191057854018e+01 0 0 0
39 2 1.1141934966511084e+01 4.6407674285751366e+00 4.0230481322701124e+00 0 0 0
40 1 9.5367638254313540e+00 4.5847402591622775e+00 3.8625802091652170e+00 0 0 0
41 2 9.1240137222669944e+00 4.4808702449011468e+00 2.9841602358974240e+00 0 0 0
42 2 9.0823546635028212e+00 3.9051707587641040e+00 4.3529480625950585e+00 0 0 0
43 1 7.5494865670391196e+00 3.1519709452236686e+00 5.2295654008862060e+00 0 0 0
44 2 7.8015041436340153e+00 3.5618220635271181e+00 6.0496445976917723e+00 0 0 0
45 2 7.6924936125404226e+00 2.1594463701719007e+00 5.2879122728501384e+00 0 0 0
46 1 6.3398157349368214e+00 1.4985275240328439e+00 2.2063839719342484e+00 0 0 0
47 2 7.3219677689859521e+00 1.4983262753255215e+00 2.3282861363618546e+00 0 0 0
48 2 6.1380389110860341e+00 2.2822943241736313e+00 1.5875545911703366e+00 0 0 0
49 1 1.1001711635042103e+01 3.1871161691516940e+00 9.6554514893131826e-01 0 0 0
50 2 1.1747160063819804e+01 2.7982261541565272e+00 1.4238043318023028e+00 0 0 0
51 2 1.0900395526731250e+01 2.7278926152542251e+00 2.2711872988726427e+01 0 0 0
52 1 7.8088189942808075e+00 4.8530259182996840e+00 1.6160112769154071e+00 0 0 0
53 2 7.8881718298987789e+00 3.9679229112232699e+00 1.1705835461319438e+00 0 0 0
54 2 7.0729687915451915e+00 4.9690631532741367e+00 2.3028830386537607e+00 0 0 0
55 1 1.0869611340458562e+01 5.7583081581844722e+00 8.4308989388713895e-01 0 0 0
56 2 1.0055246870014361e+01 5.9506275562580795e+00 1.3199280740705315e+00 0 0 0
57 2 1.1080853580690697e+01 4.8042882809425320e+00 1.0949316783027510e+00 0 0 0
58 1 7.6173195471410136e+00 3.1785453811230074e-01 5.1803454570904490e+00 0 0 0
1539 2 1.2193619228968722e-01 4.0462629036016704e+00 2.0873248121562675e+01 0 0 0
1608 2 6.9831698701806655e+00 7.6008068449779138e+00 1.9066316468198607e+01 0 0 0
531 2 1.0859537165372235e+01 4.2911672710003854e+00 6.4886516081907928e+00 0 0 0
121 1 4.5298826627729420e+00 7.7113541442374913e+00 4.2689461712524528e+00 0 0 0
122 2 5.3477897240358834e+00 7.4822235698792809e+00 3.7115298631458931e+00 0 0 0
123 2 3.7889700842585690e+00 7.7070154561568414e+00 3.5632193881773611e+00 0 0 0
124 1 3.0149022666222991e+00 7.5279658691015436e+00 2.1609314825191546e+00 0 0 0
125 2 3.5524446769321858e+00 8.2214355295418908e+00 1.8069944313448569e+00 0 0 0
126 2 2.0549268923850827e+00 7.7505360636506131e+00 2.2312082622651142e+00 0 0 0
127 1 5.9712721659025938e+00 1.1117746225758271e+01 3.5840647478586400e+00 0 0 0
128 2 6.3480435277684020e+00 1.0373941585258089e+01 4.1209074796094960e+00 0 0 0
197 2 1.2010734976581999e+01 8.3763005212523982e+00 1.7174348235757362e+00 0 0 0
130 1 3.1785588407680434e+00 1.1080313422539803e+01 3.2961930396411505e+00 0 0 0
131 2 2.9587936641420245e+00 1.0416597814467705e+01 3.9723416217532583e+00 0 0 0
132 2 2.7839303578381331e+00 1.0852983743825858e+01 2.4387754698776329e+00 0 0 0
133 1 1.7569625231258534e+00 8.9338682261185749e+00 5.1515344166289916e+00 0 0 0
134 2 1.7025894874790295e+00 9.5650532389513785e+00 5.9566851425950169e+00 0 0 0
135 2 1.1381678506120396e+00 9.2751857037627961e+00 4.4572211163016471e+00 0 0 0
1376 2 1.1461076163340570e+01 4.1184094133557544e-02 1.2584704021328157e+01 0 0 0
139 1 4.6060791875706322e+00 9.5144788247800829e+00 7.2683428979801756e-01 0 0 0
140 2 4.7632603922158321e+00 1.0455557194486872e+01 9.1274060447192895e-01 0 0 0
141 2 5.4000968522167065e+00 9.1169254135416526e+00 1.0768857563851923e+00 0 0 0
142 1 1.6033921924069015e+00 1.0729697986444496e+01 1.2008823912348117e+00 0 0 0
143 2 1.8814446034509580e+00 9.9727407550082727e+00 6.8738272879217988e-01 0 0 0
144 2 1.5584546582187944e+00 1.1464582901298842e+01 6.1632867590627505e-01 0 0 0
1518 2 1.1780481493496689e+01 2.0834627516431063e+00 1.9049358929228603e+01 0 0 0
148 1 1.7271182819487845e+00 6.3188698683388154e+00 4.8950067891711209e+00 0 0 0
1477 1 1.1904546232999081e+01 4.4041185336874804e+00 2.0663635552015066e+01 0 0 0
150 2 1.7055686474158633e+00 7.2581022651932461e+00 5.2482180530695990e+00 0 0 0
151 1 1.0670078798902194e+01 7.5785027823002835e+00 4.2289516430718992e+00 0 0 0
129 2 4.9744198293022572e+00 1.1140792711264275e+01 3.5028680294216015e+00 0 0 0
153 2 1.0853469236290682e+01 8.4281528718708323e+00 4.7001578623143319e+00 0 0 0
154 1 8.9561854372692498e+00 7.4129167463184764e+00 2.0946928729186487e+00 0 0 0
155 2 9.3943779962502365e+00 8.0000642718222110e+00 1.4538766883283945e+00 0 0 0
156 2 9.4564080752316926e+00 7.5694870540151200e+00 2.8735303603146347e+00 0 0 0
699 2 2.5854978251723776e-01 1.1599164377047678e+01 9.8935274568562406e+00 0 0 0
158 2 1.1289373554846646e+01 1.0855670013516026e+01 3.3611637445416105e+00 0 0 0
160 1 9.5800958251843458e+00 1.1090798410841977e+01 3.6573992300764000e+00 0 0 0
161 2 8.9843130873990393e+00 1.1228877456795527e+01 2.8860230836643965e+00 0 0 0
98 2 1.3736153428276832e-01 4.6984820479892839e+00 2.6440867051483257e+00 0 0 0
163 1 7.8900464607167917e+00 9.2689427839956391e+00 4.9421138440591301e+00 0 0 0
164 2 8.0750128941957584e+00 8.3251754110972804e+00 4.9569318276658354e+00 0 0 0
165 2 8.5499348163637521e+00 9.7887368806022064e+00 4.3647981369197018e+00 0 0 0
166 1 6.2797154633662666e+00 7.6424488528501673e+00 2.2446245676567940e+00 0 0 0
167 2 6.0044147320128660e+00 6.8261547771470044e+00 1.7286978254600067e+00 0 0 0
168 2 7.2944940778367204e+00 7.6359296200674640e+00 2.3702617220697975e+00 0 0 0
169 1 1.0823438249240199e+01 9.2227932566786333e+00 8.3105244240191889e-01 0 0 0
170 2 1.0804132814253364e+01 1.0168858801124948e+01 9.0693263633006316e-01 0 0 0
171 2 1.0649463438735845e+01 8.8950485933848409e+00 2.2506498080276238e+01 0 0 0
172 1 7.8286681650008187e+00 1.1091866405766902e+01 1.4331395289475182e+00 0 0 0
1617 2 1.1035332149333367e+01 1.2221570646069450e+01 1.6900202029425074e+01 0 0 0
174 2 7.8065043428128078e+00 1.0187548973614831e+01 9.9991963997561961e-01 0 0 0
1456 1 1.3961236688802281e-02 1.6134797280306776e+00 1.9045209535640694e+01 0 0 0
178 1 7.9136430296589779e+00 6.6019944797178445e+00 5.2418367220145425e+00 0 0 0
179 2 7.1608176752862089e+00 6.0870777712566442e+00 4.7728442106234485e+00 0 0 0
180 2 8.6877752968217141e+00 6.2377215856543557e+00 4.8387106530836297e+00 0 0 0
417 2 1.0196270822300560e+01 1.5657221736479027e-01 1.4507297013881386e+00 0 0 0
1856 2 9.6937409877665672e+00 5.6080696602345395e-02 1.8836302288673487e+01 0 0 0
99 2 2.6666448349144406e-01 4.1273528728792348e+00 3.9985093283995607e+00 0 0 0
1589 2 8.7970219896588531e-01 5.7137175575535757e+00 2.1709417187602988e+01 0 0 0
1619 2 7.8361793657337371e+00 5.8597347518988965e+00 2.2111238418676413e-01 0 0 1
495 2 6.8992344362314517e-01 3.6186393718625935e+00 1.0190707648333449e+01 0 0 0
1618 1 7.5294312499350751e+00 6.2505364744232423e+00 2.1948572854371847e+01 0 0 0
867 2 4.1363568965656841e+00 2.2354961698728190e-01 7.2397313274500146e+00 0 0 0
1597 1 1.2159368533331074e+01 1.0735476795092696e+01 2.0431023759704857e+01 0 0 0
481 1 4.2576070551777825e+00 1.4362449626852225e+00 9.9874261000282409e+00 0 0 0
482 2 4.1934926233378800e+00 7.4944293285998365e-01 1.0729072584447170e+01 0 0 0
483 2 5.1403109513125145e+00 1.4900675854608247e+00 9.5481075027199989e+00 0 0 0
484 1 2.9267422153633236e+00 1.4565674881827348e+00 7.7321246845742673e+00 0 0 0
485 2 3.2802047008180590e+00 1.4887003530643792e+00 8.6764878220015049e+00 0 0 0
486 2 1.9191140822231081e+00 1.5452994767071320e+00 7.7766104666080116e+00 0 0 0
487 1 6.0014571470060201e+00 4.6313606380381884e+00 9.2076698481192558e+00 0 0 0
488 2 5.0592756616366668e+00 4.7233728794373731e+00 9.0841550692924997e+00 0 0 0
489 2 6.2805479311044934e+00 3.8215329885368963e+00 9.6997269436176818e+00 0 0 0
490 1 3.2405449576111205e+00 4.8708683342451602e+00 9.0206366344709839e+00 0 0 0
491 2 2.6849683034331102e+00 4.1546232500685498e+00 9.4145547262181335e+00 0 0 0
492 2 3.0029159935119529e+00 5.7029415515013167e+00 9.4342927089031825e+00 0 0 0
493 1 1.4957437158150664e+00 3.1956564160941352e+00 1.0510715582618095e+01 0 0 0
494 2 1.4962895727199623e+00 3.4290046742458564e+00 1.1488056594695228e+01 0 0 0
1605 2 6.7805920055600755e+00 9.3633645407908954e+00 2.1660198318669195e+01 0 0 0
1613 2 7.9465599501788970e+00 1.1514691338432305e+01 1.8110901310189874e+01 0 0 0
499 1 4.5361239439454817e+00 3.0998547290501488e+00 6.5848848915548723e+00 0 0 0
500 2 3.8864853162841064e+00 2.5183627255185526e+00 7.0955574673072483e+00 0 0 0
501 2 4.6328563377135259e+00 2.6619969057118427e+00 5.7560924497918444e+00 0 0 0
502 1 1.5848164750047153e+00 4.6683971476418362e+00 6.9683793528682925e+00 0 0 0
503 2 2.4661085397732090e+00 4.7058019141207890e+00 7.5153523372881921e+00 0 0 0
504 2 1.6133359454252365e+00 5.4870785534772972e+00 6.4217205554984531e+00 0 0 0
505 1 4.5731187758903626e+00 5.7467435784731951e+00 6.3783259118039117e+00 0 0 0
506 2 4.5871813532295729e+00 4.7523738954815675e+00 6.3197919066287316e+00 0 0 0
507 2 4.5678855929750064e+00 6.1679520896033049e+00 5.4987378565227187e+00 0 0 0
5 2 3.1893826317980509e+00 1.0304696650327339e+00 1.8900807227467760e+00 0 0 0
509 2 1.5258841549184412e+00 1.2898689570138531e+00 1.0455979235505424e+01 0 0 0
511 1 1.0973330454591665e+01 1.5950467422088377e+00 9.9738605848752417e+00 0 0 0
512 2 1.0680813216728087e+01 9.0918590173553071e-01 1.0531200365793870e+01 0 0 0
513 2 1.0294807144494438e+01 1.8012236662135841e+00 9.4015329263094163e+00 0 0 0
514 1 9.0841179624941830e+00 1.7320731059417476e+00 7.5898971758570157e+00 0 0 0
515 2 8.1387958914660974e+00 1.5951149185228035e+00 7.8017311248665653e+00 0 0 0
1571 2 2.8300222550232941e+00 1.1302640369109916e+01 2.1331340548809337e+01 0 0 0
780 2 7.2241757622194029e+00 1.2295616983865301e+01 1.0029769866169076e+01 0 0 0
520 1 9.5426228532340929e+00 4.3745426825971450e+00 9.6368028218567527e+00 0 0 0
521 2 1.0472133357475483e+01 4.5736511536970363e+00 9.5164102987521062e+00 0 0 0
522 2 9.1142289486449233e+00 4.3701320517321571e+00 8.7521392254642105e+00 0 0 0
523 1 7.4683176892836869e+00 2.7108293601119557e+00 1.0832063645305613e+01 0 0 0
524 2 7.3997489724932493e+00 1.7248206849588019e+00 1.0961665683409741e+01 0 0 0
525 2 8.2734739760048814e+00 2.8028209479411683e+00 1.0260883865969927e+01 0 0 0
526 1 6.4467655056533841e+00 1.3237289832740711e+00 8.1565700920128830e+00 0 0 0
527 2 6.1071944412123962e+00 4.7094106130600877e-01 7.7469828508749057e+00 0 0 0
578 2 1.2707743514598785e-01 5.3916486962892360e+00 9.7043133500421597e+00 0 0 0
529 1 1.0664381860707980e+01 3.2977716584699097e+00 6.3360513726343646e+00 0 0 0
530 2 1.0007629941860499e+01 3.1056262413376277e+00 7.0660950689521087e+00 0 0 0
1230 2 2.3151333659297237e+00 1.1970809042833405e+01 1.6002728383068089e+01 0 0 0
532 1 8.0054305352115147e+00 4.7407783842788831e+00 7.5107995262137903e+00 0 0 0
533 2 7.8690914362856166e+00 5.5413606675015794e+00 6.9168181019175767e+00 0 0 0
534 2 7.1401948460307905e+00 4.6323701545417562e+00 8.0479705886822543e+00 0 0 0
535 1 1.0692890337139174e+01 5.9293982654517077e+00 6.8234060194921602e+00 0 0 0
536 2 9.9924704677558509e+00 6.5870717314452314e+00 7.1854897915054199e+00 0 0 0
749 2 1.8280241709769371e+00 1.2180841218222723e+01 1.1529083383831784e+01 0 0 0
1607 2 5.7555114668738403e+00 7.5390706170021176e+00 2.0004359391886716e+01 0 0 0
614 2 9.0136300522725377e-01 9.5605600559095549e+00 1.0122499602939097e+01 0 0 0
1472 2 1.1351618938028661e+01 1.3602897743989399e+00 2.0945118092583556e+01 0 0 0
1615 1 1.0884356561906500e+01 1.1949816365379382e+01 1.7832177628278494e+01 0 0 0
1612 1 7.7311567374226851e+00 1.0820205454212170e+01 1.8734881509352988e+01 0 0 0
601 1 4.8555284412056219e+00 7.9473393548988147e+00 1.0037821874511971e+01 0 0 0
602 2 5.6673461723629943e+00 7.7133392950784412e+00 9.5681895020925669e+00 0 0 0
603 2 5.0426506566110154e+00 8.7435099396380576e+00 1.0529189954687901e+01 0 0 0
604 1 3.0674883169078559e+00 7.5768222911978365e+00 7.7815825918179513e+00 0 0 0
605 2 3.4401980346252823e+00 7.9036346430151889e+00 8.5966766609434284e+00 0 0 0
606 2 3.6706224367935087e+00 6.9037259193391005e+00 7.4160614112118388e+00 0 0 0
607 1 6.0173145358788513e+00 1.1065748911349189e+01 9.1662680929448808e+00 0 0 0
608 2 6.4784357580148644e+00 1.0760841014833321e+01 8.3816530509642018e+00 0 0 0
609 2 6.4414584343757921e+00 1.0547803210600282e+01 9.8824234502108173e+00 0 0 0
610 1 3.3483107053894332e+00 1.0963150164477215e+01 9.1012095397985586e+00 0 0 0
611 2 2.9637332917132562e+00 1.0652063723856520e+01 8.2576783218538292e+00 0 0 0
612 2 4.3381984416760533e+00 1.0880760868551187e+01 9.0497381397871433e+00 0 0 0
613 1 1.7325047671622957e+00 9.3418691915797751e+00 1.0607765512522835e+01 0 0 0
1468 1 1.2344210083705280e+00 3.4166463526869034e-01 2.1912813976749980e+01 0 0 0
615 2 2.4281601736588563e+00 9.8949026195822203e+00 1.0127786904581777e+01 0 0 0
1092 2 3.0650008625879694e+00 1.0717021747384301e+01 1.4225977958708304e+01 0 0 0
618 2 1.0778771943200067e+00 7.5155276422105892e+00 7.8440348837194023e+00 0 0 0
619 1 4.7461819520111597e+00 9.3110776516248706e+00 6.3679910435402007e+00 0 0 0
620 2 4.6250867170929499e+00 8.8134042265707038e+00 5.5297371989597712e+00 0 0 0
621 2 4.0708262859324389e+00 8.8647742269161114e+00 6.8812079272260531e+00 0 0 0
622 1 1.7520640802484393e+00 1.0800140030076767e+01 7.0593499193903266e+00 0 0 0
623 2 1.0901967282319580e+00 1.0886734117016410e+01 7.7538745337374975e+00 0 0 0
624 2 1.8558633844616719e+00 1.1521849492304844e+01 6.4471816395626869e+00 0 0 0
1658 2 -1.6207154054854445e-01 1.0365397325107431e+01 1.9876828495006798e+01 0 0 0
626 2 4.5817517257134854e+00 1.1034501067075853e+01 6.2082882397741681e+00 0 0 0
628 1 1.4271894322902983e+00 6.6052526944772421e+00 1.0523817140025912e+01 0 0 0
629 2 1.5322528382672880e+00 6.1455561815925623e+00 1.1350753611570044e+01 0 0 0
630 2 1.5805706616188280e+00 7.5392383453005340e+00 1.0723169629324776e+01 0 0 0
631 1 1.0846234591037998e+01 7.6734085732802786e+00 9.7393560552177103e+00 0 0 0
632 2 1.0915733560313276e+01 6.7825696000211861e+00 1.0064277516417331e+01 0 0 0
633 2 1.1495848404484278e+01 7.7800836862085179e+00 9.0557878286224547e+00 0 0 0
634 1 9.0887438620600509e+00 7.9591578018388685e+00 7.8348235643392350e+00 0 0 0
635 2 9.5349437002151713e+00 7.8931325301836850e+00 8.7215231555160564e+00 0 0 0
636 2 8.1757094250204059e+00 7.6068620486473346e+00 7.8757807225653664e+00 0 0 0
1442 2 4.3622611156833315e+00 7.4872061104229526e-01 2.1767978412373374e+01 0 0 0
639 2 1.1253412442315367e+01 1.0536539100549438e+01 9.4194540697048534e+00 0 0 0
640 1 9.3590991931012706e+00 1.0596864633399663e+01 9.4950546681151149e+00 0 0 0
641 2 8.9947921274429614e+00 1.0507424809794157e+01 8.6249532025953659e+00 0 0 0
642 2 8.7848571378467177e+00 1.0103927251056321e+01 1.0084486103672813e+01 0 0 0
643 1 7.3433649066705398e+00 9.1731143275226525e+00 1.0852528531668497e+01 0 0 0
644 2 7.1402580227836712e+00 8.2746606296475758e+00 1.1180116286606941e+01 0 0 0
645 2 7.4628615436745944e+00 9.6660364081289760e+00 1.1679482384845311e+01 0 0 0
646 1 6.2623561522411757e+00 7.5880748490177394e+00 7.7280696354992653e+00 0 0 0
647 2 5.9798722796257522e+00 6.8053256275032545e+00 7.2023041948971018e+00 0 0 0
648 2 5.9268287768580343e+00 8.3976022747960464e+00 7.2624548732898448e+00 0 0 0
649 1 1.0724501316605279e+01 9.3404337879404480e+00 6.2680626278340323e+00 0 0 0
650 2 1.0750342861647784e+01 1.0300434497816036e+01 6.2085956241027782e+00 0 0 0
651 2 9.9354003650947611e+00 9.1351351774996470e+00 6.7985519699124950e+00 0 0 0
652 1 7.6913544433794367e+00 1.1007605333361484e+01 7.0778264868720635e+00 0 0 0
653 2 7.6786410189148366e+00 1.0324111571675243e+01 6.4320040131231959e+00 0 0 0
268 1 1.5157804092099592e+00 1.2269503388904411e+01 4.8509964778150652e+00 0 0 0
1089 2 5.1012313180604725e+00 1.0914016668478798e+01 1.5201763634774487e+01 0 0 0
658 1 7.5792483726467577e+00 6.3226228509763738e+00 1.0764356554972897e+01 0 0 0
659 2 6.9228781632796101e+00 5.9438543328496758e+00 1.0189644180643272e+01 0 0 0
660 2 8.4008427546823654e+00 5.9893893887453613e+00 1.0370642841151133e+01 0 0 0
1610 2 1.0693259634502546e+01 8.8915777017665345e+00 1.6737328814478062e+01 0 0 0
1604 2 8.3596015525189689e+00 9.3666980490199681e+00 2.1580426121656714e+01 0 0 0
558 2 1.2019153781937343e+01 2.1891920541923082e+00 7.0994200125327227e+00 0 0 0
557 2 1.2149963054814661e+01 1.4041167425424417e+00 8.4962962405598645e+00 0 0 0
1614 2 8.4077535133544359e+00 1.0632536877508626e+01 1.9418724098386519e+01 0 0 0
1611 2 1.1492224540850378e+01 9.0164472658252137e+00 1.8083619034120296e+01 0 0 0
1464 2 7.4783923641138483e-01 4.4113220790466201e+00 1.9013502410141840e+01 0 0 0
1616 2 1.0690422600307482e+01 1.0970795166185741e+01 1.7714154342577956e+01 0 0 0
1133 2 7.2558216008150112e+00 1.1640540761397347e+01 1.2465589419199508e+01 0 0 0
997 1 1.2205428785896176e+01 4.4876228858269309e+00 1.4831368230489350e+01 0 0 0
961 1 4.4223479110595694e+00 1.4556091155301616e+00 1.5629684534274091e+01 0 0 0
962 2 4.3854097484731858e+00 2.1065831923180078e+00 1.6357480366053018e+01 0 0 0
16 1 1.0137927093770593e-02 1.6560515508561684e+00 1.7976398075189814e+00 0 0 0
964 1 2.8650213848382720e+00 1.6298604698090124e+00 1.3189989930732164e+01 0 0 0
965 2 3.2320129969569615e+00 1.6060732270452496e+00 1.4117904561107908e+01 0 0 0
966 2 3.3348172048890898e+00 2.3430744248686013e+00 1.2732797247479960e+01 0 0 0
967 1 6.2102383998267117e+00 4.3994361018694956e+00 1.4814479861304237e+01 0 0 0
968 2 6.6060401876536226e+00 5.1599507040001624e+00 1.5257629186849908e+01 0 0 0
969 2 6.6475418865426299e+00 4.5180095765214165e+00 1.3938722072975791e+01 0 0 0
970 1 3.2285503776887392e+00 4.4302851126487148e+00 1.4984201734542605e+01 0 0 0
971 2 4.2081942466468769e+00 4.4222875469685743e+00 1.5224483669864028e+01 0 0 0
972 2 2.7765599413728403e+00 5.1265911599719338e+00 1.5463563025494762e+01 0 0 0
973 1 9.9495618530643704e-01 2.8247033759153837e+00 1.6117282247979723e+01 0 0 0
974 2 1.7935356753766110e+00 3.2096266523942800e+00 1.5676648071164324e+01 0 0 0
975 2 1.1076399048301320e+00 3.1884319825804375e+00 1.7005023630999119e+01 0 0 0
1178 2 4.9005620545815587e-01 1.1589539172128850e+01 1.5404750267989046e+01 0 0 0
977 2 7.8273060038957232e-01 1.3806438839384700e+00 1.3251164970504512e+01 0 0 0
979 1 4.3680059756946825e+00 3.3186419264361340e+00 1.1903271418664779e+01 0 0 0
980 2 4.1585697388232417e+00 2.7801467536250204e+00 1.1054484913112891e+01 0 0 0
981 2 5.1143384122527769e+00 2.8674611341503229e+00 1.2297454155663338e+01 0 0 0
982 1 1.7412262757739585e+00 4.8445109614809798e+00 1.2734486974654189e+01 0 0 0
983 2 2.4344864480454582e+00 4.6821743501436384e+00 1.3378344673389243e+01 0 0 0
984 2 9.8517427251078904e-01 4.8176130371444659e+00 1.3308952987644060e+01 0 0 0
985 1 4.5860102497654056e+00 6.1029699153350787e+00 1.2204264680890549e+01 0 0 0
986 2 4.5308474281682765e+00 6.7286979151488806e+00 1.1433960201997801e+01 0 0 0
987 2 4.3347192837391351e+00 5.2418359083380501e+00 1.1941809681049451e+01 0 0 0
28 1 1.4072612067891375e+00 3.9290716095550388e-01 4.9254449018252986e+00 0 0 0
989 2 1.2210031984075649e+00 1.2110412340470242e+00 1.6258150308565838e+01 0 0 0
991 1 1.0657895815219382e+01 1.3991402613713924e+00 1.5996141637401848e+01 0 0 0
992 2 1.0194714650527901e+01 7.3684410277598278e-01 1.6562392543331839e+01 0 0 0
993 2 1.0080726334551960e+01 1.3606007993600051e+00 1.5221680587231038e+01 0 0 0
994 1 8.9165867005993018e+00 1.3851943868347498e+00 1.3682477018083242e+01 0 0 0
995 2 9.4125728951849119e+00 6.4942627993482638e-01 1.3280845606245723e+01 0 0 0
996 2 9.2423629620421917e+00 2.0998646148996927e+00 1.3111484707510256e+01 0 0 0
1710 2 7.1659435267404414e-01 1.1913640808172850e+01 2.1382660046094720e+01 0 0 0
998 2 1.1225851517745591e+01 4.5493775536984353e+00 1.5059445469918092e+01 0 0 0
1000 1 9.4395640857419263e+00 4.5786827717405743e+00 1.5112200057862378e+01 0 0 0
1001 2 9.2173522078238577e+00 3.7204743025758908e+00 1.5469040779898272e+01 0 0 0
1002 2 9.0791889651120119e+00 4.5948112664962775e+00 1.4195839954114383e+01 0 0 0
1003 1 7.7111368371339486e+00 2.8030158645535632e+00 1.6435812344241597e+01 0 0 0
1004 2 7.0845148783647591e+00 3.1054254861160886e+00 1.5783732606205181e+01 0 0 0
1005 2 7.5614132007740560e+00 3.4085050337861755e+00 1.7177991186840906e+01 0 0 0
1006 1 5.9912014919470975e+00 1.5098891718176373e+00 1.3228050777675502e+01 0 0 0
1007 2 5.7900058687801810e+00 1.6618996202042673e+00 1.4165176817194304e+01 0 0 0
1008 2 6.9965236972347720e+00 1.6896733015776741e+00 1.3169319508440152e+01 0 0 0
1009 1 1.0729564444607638e+01 2.9110833981358089e+00 1.2372943089059945e+01 0 0 0
1010 2 1.1424604394719083e+01 2.7313807036913964e+00 1.2953641699545171e+01 0 0 0
1011 2 1.1046715132214048e+01 2.6395569147398761e+00 1.1503081196364604e+01 0 0 0
1012 1 7.9311843864708269e+00 4.5574791596542523e+00 1.2733437625298345e+01 0 0 0
1013 2 7.7828907814094537e+00 3.7613323961664689e+00 1.2156063417121599e+01 0 0 0
1014 2 7.6999149289631763e+00 5.3171843646809416e+00 1.2133803473298938e+01 0 0 0
1015 1 1.0671095256808401e+01 5.9899311543059239e+00 1.1934191313347801e+01 0 0 0
1016 2 1.0727021485264610e+01 4.9989908132261389e+00 1.2023059007999269e+01 0 0 0
1017 2 1.1311471000706231e+01 6.3873855418911338e+00 1.2581748684262966e+01 0 0 0
35 2 9.3862435096409644e+00 1.5501487299268464e+00 3.1849879944350681e+00 0 0 0
1019 2 7.5673039502651864e+00 1.1764484674032596e+00 1.6556319832236248e+01 0 0 0
1109 2 5.7145687368285791e-01 5.7663252405403158e+00 1.5657141943205406e+01 0 0 0
1602 2 9.2039018702117303e+00 1.1346699876247474e+01 2.1001871893809621e+01 0 0 0
1081 1 4.3653214216312568e+00 7.5549925650182681e+00 1.5456330452492054e+01 0 0 0
1082 2 5.1060404175456249e+00 7.6111536754545153e+00 1.4808986868987263e+01 0 0 0
1083 2 4.5472167162309454e+00 6.8877288519231046e+00 1.6134017406387088e+01 0 0 0
1084 1 2.7809735694853357e+00 7.6591866116730039e+00 1.3389540481918708e+01 0 0 0
1085 2 3.1977911225169677e+00 7.7544356678801218e+00 1.4278475057679383e+01 0 0 0
1086 2 3.2113393270197865e+00 6.8912424702752224e+00 1.2999632575063487e+01 0 0 0
1087 1 6.0571018017999201e+00 1.0927678140314393e+01 1.5042373844104022e+01 0 0 0
1088 2 6.4151090080100381e+00 1.0112808266417362e+01 1.5472277701160076e+01 0 0 0
1135 1 1.0697299705337132e+01 1.2204912995622420e+01 1.1736130037847094e+01 0 0 0
1090 1 3.4449247803359664e+00 1.0574013260354231e+01 1.5131898143943218e+01 0 0 0
1091 2 2.9753079925147388e+00 9.7354483618931233e+00 1.5508300022568536e+01 0 0 0
1638 2 1.1845253997534927e+01 7.9760599910875305e+00 1.9789347460939801e+01 0 0 0
1093 1 1.7120451963703318e+00 8.8572293167257961e+00 1.6141725145787063e+01 0 0 0
1094 2 1.5988604312623980e+00 7.8933344604224924e+00 1.6156896602883549e+01 0 0 0
1095 2 1.0105154657814395e+00 9.3917866642847194e+00 1.5783853492962736e+01 0 0 0
1585 1 4.4745108129590285e+00 1.2018796593823952e+01 1.7976024009492193e+01 0 0 0
1097 2 1.0639542192870577e+00 7.7641377343325582e+00 1.3287596246285519e+01 0 0 0
1099 1 4.5652830859223297e+00 9.5752343405089828e+00 1.2332759492680008e+01 0 0 0
1100 2 3.7403042555488555e+00 9.2109793474625832e+00 1.2689140545827200e+01 0 0 0
1101 2 4.6330415558913085e+00 1.0513783944879874e+01 1.2557768971157511e+01 0 0 0
1102 1 1.7800847754967783e+00 1.0992537333629050e+01 1.2891874849152275e+01 0 0 0
1103 2 1.7024217677042457e+00 1.0223707585451033e+01 1.2239088613096921e+01 0 0 0
1104 2 1.1053841565983118e+00 1.0761886219501321e+01 1.3528345164405314e+01 0 0 0
157 1 1.2196142866657873e+01 1.1114386587337185e+01 3.5378829549436008e+00 0 0 0
1108 1 1.3817739315980582e+00 6.0903079720604776e+00 1.6113881816775837e+01 0 0 0
677 2 1.2067158845522528e+01 8.4804500532070151e+00 7.0333396155537864e+00 0 0 0
1110 2 1.2806632254800157e+00 5.5743998034690820e+00 1.6930248929430263e+01 0 0 0
1111 1 1.0581112388082213e+01 7.5852239282089542e+00 1.5533809782130078e+01 0 0 0
1112 2 1.1284822511871202e+01 7.4461588855599237e+00 1.4900872016163412e+01 0 0 0
1113 2 9.8328383366982806e+00 7.7356696493810864e+00 1.4820088187743027e+01 0 0 0
1114 1 9.0716610190296620e+00 7.6427179801820131e+00 1.3461756016405959e+01 0 0 0
1115 2 9.5453857862784801e+00 6.9357619421396821e+00 1.2967855236075595e+01 0 0 0
1116 2 8.0790654517412079e+00 7.5621172786961006e+00 1.3475696430274555e+01 0 0 0
33 2 1.1580072565791030e+01 1.5297733419586861e+00 3.5857395477220444e+00 0 0 0
1120 1 9.4610737140217385e+00 1.0646387825085188e+01 1.4966519136494624e+01 0 0 0
1121 2 8.9033374487035619e+00 1.0841293316557044e+01 1.4141502707610858e+01 0 0 0
1122 2 1.0415850852612406e+01 1.0767953825740245e+01 1.4776068118314297e+01 0 0 0
1123 1 7.7710578509964057e+00 9.1592594979624966e+00 1.6323864969613275e+01 0 0 0
1124 2 8.5051887831751518e+00 9.4461931140510753e+00 1.5818621100609704e+01 0 0 0
1125 2 7.8176110423986280e+00 9.6510749587667615e+00 1.7125031132219057e+01 0 0 0
1126 1 6.3550316909097084e+00 7.5619660330685878e+00 1.3371257022005100e+01 0 0 0
1127 2 5.8163161915788582e+00 6.8905066327281341e+00 1.2925109061325363e+01 0 0 0
1128 2 5.9526849924788250e+00 8.4152955920832966e+00 1.3157474769369978e+01 0 0 0
1129 1 1.0670445846901343e+01 9.4350711950598978e+00 1.1962758787013980e+01 0 0 0
1130 2 1.0073623951771950e+01 8.9017357286047503e+00 1.2443454599339773e+01 0 0 0
1131 2 1.0919606731634659e+01 8.8049217463412841e+00 1.1248588693352602e+01 0 0 0
1132 1 7.5658905647639605e+00 1.0870864600171840e+01 1.2975313144057610e+01 0 0 0
1827 2 3.5903252756962898e+00 1.7787537233949485e-01 1.8188321275904819e+01 0 0 0
1134 2 6.9297875036702186e+00 1.0891039630259552e+01 1.3739302166230196e+01 0 0 0
516 2 9.5738120686823738e+00 9.2452539391466182e-01 7.3137028187359689e+00 0 0 0
1137 2 1.0461611270548380e+01 1.1253641583047438e+01 1.1748593175678160e+01 0 0 0
1138 1 7.6975146489936099e+00 6.3527278215165799e+00 1.6566932365181621e+01 0 0 0
1139 2 7.5866555648776481e+00 7.3183937022683887e+00 1.6663947807123662e+01 0 0 0
1140 2 8.4100211108210843e+00 6.2428341598502985e+00 1.5927927135055009e+01 0 0 0
579 2 2.4715408010450035e-01 4.9181988741891569e+00 8.3623510393652900e+00 0 0 0
1105 1 4.5727359651781354e+00 1.2095853215817122e+01 1.2484890537552724e+01 0 0 0
416 2 1.1046857547108207e+01 2.0953410376988055e-01 1.8053885098475969e-01 0 0 1
152 2 1.1403446779975081e+01 7.5237039599293292e+00 3.6260401620079312e+00 0 0 0
162 2 9.1145629446390934e+00 1.1740576761553690e+01 4.2961226777554442e+00 0 0 0
517 1 1.2233021072561067e+01 4.6123179252409710e+00 9.3380423502087062e+00 0 0 0
1606 1 6.0112800965291688e+00 7.5795086753667871e+00 1.9038279622230064e+01 0 0 0
1177 1 1.0275534624540411e-01 1.0802448489690066e+01 1.4975590210215916e+01 1 0 0
537 2 1.0836988419244816e+01 6.2722799601445960e+00 5.9382770248322991e+00 0 0 0
1441 1 4.2382703315536814e+00 1.4902265658054585e+00 2.1142841798127456e+01 0 0 0
508 1 1.4293236231471620e+00 3.3921366751791626e-01 1.0266817923942037e+01 0 0 0
1443 2 4.2822915617498447e+00 2.3168186841448306e+00 2.1762287776294905e+01 0 0 0