LAMMPS data file via write_data, version 15 Apr 2020, timestep = 50000000

864 atoms
2 atom types
576 bonds
1 bond types
288 angles
1 angle types

-9.5932778761803741e-02 1.8303505178718311e+01 xlo xhi
9.7853512849680413e-01 2.2650642671580453e+01 ylo yhi
-1.1703776599300456e-01 2.2330233565987509e+01 zlo zhi

Masses

1 16
2 2

Atoms # full

259 1 2 -1.1794000000000000e+00 2.2567806849611158e+00 4.8537624843957303e+00 1.0858209161961871e+00 4 -1 9
843 1 1 5.8970000000000000e-01 5.2237185784796409e+00 3.6349481487866151e+00 2.0993093655020676e+00 -2 6 0
261 1 1 5.8970000000000000e-01 3.1288713100612227e+00 4.4654483212987541e+00 1.1560625092753507e+00 4 -1 9
539 1 1 5.8970000000000000e-01 4.0652671452042038e-01 4.0224705852575884e+00 1.4819651217107745e+00 -1 -4 0
841 1 2 -1.1794000000000000e+00 4.7405563992771507e+00 3.1908942307744170e+00 1.4024395775511183e+00 -2 6 0
842 1 1 5.8970000000000000e-01 5.3788399704572267e+00 3.0864791408152588e+00 6.9678455703047093e-01 -2 6 0
492 1 1 5.8970000000000000e-01 4.2589806530293668e+00 1.4249851818424708e+00 1.4935684328126857e+00 4 4 4
260 1 1 5.8970000000000000e-01 2.4109979024692536e+00 5.7260686019350375e+00 7.2310588319685509e-01 4 -1 9
223 1 2 -1.1794000000000000e+00 8.7417256397887364e+00 4.9818997456133172e+00 2.5706924654395240e+00 6 1 -10
548 1 1 5.8970000000000000e-01 9.4084812436814165e+00 4.7415589005651260e+00 9.1294162866190454e-01 5 -3 6
224 1 1 5.8970000000000000e-01 8.8223977027386695e+00 5.9306263525269749e+00 2.6690096835819697e+00 6 1 -10
381 1 1 5.8970000000000000e-01 2.2935340289809885e+00 1.0356503852842864e+00 2.8376858390962056e-01 8 -1 -2
382 1 2 -1.1794000000000000e+00 2.3600808872394934e+00 7.4734361618020655e+00 3.6326966196811084e-01 -10 -1 3
247 1 2 -1.1794000000000000e+00 1.4989407246376260e+01 1.1447103921583798e+01 4.4653799654779736e-01 -8 2 -1
392 1 1 5.8970000000000000e-01 1.3194154275492998e+01 1.0396664000931608e+00 2.2489176582199057e+00 3 -2 -1
747 1 1 5.8970000000000000e-01 1.7649460155273427e+01 2.5671017440198072e+00 3.6761301370313759e-01 2 2 -6
345 1 1 5.8970000000000000e-01 1.0461615387011902e+01 2.7908660500707092e+00 2.6411709119856175e-01 2 -1 1
53 1 1 5.8970000000000000e-01 1.2845329528914789e+01 3.1538281000871704e+00 2.7585939961278294e+00 -5 0 2
538 1 2 -1.1794000000000000e+00 1.7911684562835799e+01 3.7624116239816057e+00 1.7030887970663535e+00 -2 -4 0
554 1 1 5.8970000000000000e-01 1.3049736925870354e+01 4.5692884554393460e+00 1.2162850710749733e+00 -3 -5 4
520 1 2 -1.1794000000000000e+00 1.6240908611511241e+01 5.5983232280987298e+00 6.7195675217215045e-01 -5 1 -2
521 1 1 5.8970000000000000e-01 1.6796894155840910e+01 4.9169435570692777e+00 1.0499226418078391e+00 -5 1 -2
553 1 2 -1.1794000000000000e+00 1.3572419340721058e+01 4.7284274198092824e+00 4.3032023163383565e-01 -3 -5 4
540 1 1 5.8970000000000000e-01 1.7986871139499936e+01 3.3537446124988732e+00 2.5654091222873534e+00 -2 -4 0
522 1 1 5.8970000000000000e-01 1.5385666759519271e+01 5.1807974836669457e+00 5.6953112712198906e-01 -5 1 -2
443 1 1 5.8970000000000000e-01 1.6697736587736639e+01 6.7668007103000969e+00 1.9004721597199030e+00 6 6 -2
623 1 1 5.8970000000000000e-01 1.2479195558215720e+01 1.0145239083316895e+01 1.8019880856773736e+00 9 -3 -1
52 1 2 -1.1794000000000000e+00 1.2350988846752069e+01 3.9723951506432451e+00 2.7156914851374716e+00 -5 0 2
387 1 1 5.8970000000000000e-01 1.8089359905962361e+01 1.1717157087303018e+01 2.9319170803822074e+00 -5 4 -1
214 1 2 -1.1794000000000000e+00 6.1024160649979473e+00 8.2021236909806543e+00 2.7995274073364307e+00 -6 5 0
575 1 1 5.8970000000000000e-01 1.6105436567544860e+01 1.0584585205844921e+00 1.5940060191434560e-01 3 2 -6
391 1 2 -1.1794000000000000e+00 1.3918340925489410e+01 1.6453320911225828e+00 2.4069660140950542e+00 3 -2 -1
208 1 2 -1.1794000000000000e+00 3.5673552248239426e+00 1.1779941307367755e+01 3.4429939881693705e-01 5 -1 5
78 1 1 5.8970000000000000e-01 1.2122226489270341e+01 8.9793279890897644e+00 6.6033663891714419e-03 -6 -4 -5
384 1 1 5.8970000000000000e-01 1.6929194934251486e+00 8.0243524329887475e+00 7.7271273717020694e-01 -10 -1 3
216 1 1 5.8970000000000000e-01 5.5067776994629254e+00 8.3387483629521117e+00 2.0627731339486766e+00 -6 5 0
46 1 2 -1.1794000000000000e+00 3.4521017322625669e-01 9.0281107661767521e+00 1.4941643183367828e+00 3 1 -2
685 1 2 -1.1794000000000000e+00 4.6990193480886342e+00 9.0038186880463940e+00 4.0178477506231625e-01 10 -8 0
687 1 1 5.8970000000000000e-01 4.3481979143860663e+00 9.8832545899142232e+00 2.6115616159575633e-01 10 -8 0
383 1 1 5.8970000000000000e-01 3.1654779492519953e+00 7.9872449838218325e+00 4.2321090753919050e-01 -10 -1 3
48 1 1 5.8970000000000000e-01 -9.5295803524746328e-02 9.2365938834989088e+00 6.7030231569122711e-01 3 1 -2
47 1 1 5.8970000000000000e-01 1.8163821224207503e+01 8.4008716711134586e+00 1.9248287304216176e+00 2 1 -2
442 1 2 -1.1794000000000000e+00 1.6893349961434691e+01 7.4111111184755192e+00 2.5808080631078267e+00 6 6 -2
576 1 1 5.8970000000000000e-01 1.4976559922902085e+01 1.0320574952800825e+00 1.1678138341927222e+00 3 2 -6
624 1 1 5.8970000000000000e-01 1.3837111094015180e+01 1.0306698902475638e+01 1.1524092281229104e+00 9 -3 -1
107 1 1 5.8970000000000000e-01 8.9792583149664260e+00 1.0250499517795209e+01 2.3561493847006837e-01 -2 -1 5
90 1 1 5.8970000000000000e-01 9.4852834955105330e+00 1.0795178029327282e+01 2.1954882211414439e+00 1 -7 8
664 1 2 -1.1794000000000000e+00 1.1199994725399884e+01 1.1094142958496439e+01 2.5919468765252489e+00 1 -3 6
89 1 1 5.8970000000000000e-01 8.5230546973530021e+00 9.6430862685713290e+00 2.3923588862249123e+00 1 -7 8
88 1 2 -1.1794000000000000e+00 8.5714258128041259e+00 1.0541584064506189e+01 2.0658312838485418e+00 1 -7 8
444 1 1 5.8970000000000000e-01 1.6037422185640299e+01 7.6566430322066958e+00 2.9320353898407081e+00 6 6 -2
547 1 2 -1.1794000000000000e+00 9.8287725680342746e+00 4.4322237929536570e+00 1.1048946606978084e-01 5 -3 6
308 1 1 5.8970000000000000e-01 1.3928920540848063e+01 8.3496514118009806e+00 2.5772816499322082e+00 3 9 0
622 1 2 -1.1794000000000000e+00 1.3199480376752732e+01 9.6444386061393192e+00 1.4190452933020967e+00 9 -3 -1
386 1 1 5.8970000000000000e-01 5.9135252781016057e-01 1.0511737106258890e+01 2.7696146641017831e+00 -4 4 -1
313 1 2 -1.1794000000000000e+00 8.7712332704711713e+00 7.8617208659484552e+00 2.7591008755201902e+00 -6 -3 0
315 1 1 5.8970000000000000e-01 7.8178200208938708e+00 7.7785186931029893e+00 2.7407360533659371e+00 -6 -3 0
248 1 1 5.8970000000000000e-01 1.5649784913663161e+01 1.0912238939227688e+01 5.9920187108764922e-03 -8 2 -1
343 1 2 -1.1794000000000000e+00 1.0701379804851861e+01 1.9191991114191200e+00 -5.0472267544766990e-02 2 -1 1
587 1 1 5.8970000000000000e-01 1.8973514402681526e+00 3.7121651944082559e+00 4.8216316723215726e+00 0 4 0
699 1 1 5.8970000000000000e-01 3.2393185270126659e+00 5.5228831296904186e+00 4.3670333737416263e+00 -1 3 -1
586 1 2 -1.1794000000000000e+00 1.7719162771703689e+00 2.8734615870946567e+00 5.2655908628223678e+00 0 4 0
468 1 1 5.8970000000000000e-01 5.7363691926186258e+00 5.3825148899939297e+00 4.2841335559604623e+00 11 -2 7
466 1 2 -1.1794000000000000e+00 5.2962594847275275e+00 6.1389709756077613e+00 4.6718639344458097e+00 11 -2 7
789 1 1 5.8970000000000000e-01 8.0625447533717653e-01 6.2127795745388390e+00 4.7889280451496781e+00 6 -2 9
697 1 2 -1.1794000000000000e+00 2.3589367059667383e+00 5.2284869688024980e+00 4.1335485982583897e+00 -1 3 -1
117 1 1 5.8970000000000000e-01 6.6806879456806429e+00 1.2400600372354016e+00 4.9193640378656118e+00 0 -3 5
787 1 2 -1.1794000000000000e+00 1.8296592019043004e+01 6.4866827264227629e+00 4.9104610595162370e+00 5 -2 9
115 1 2 -1.1794000000000000e+00 6.3047762605307893e+00 1.1978975882573104e+00 4.0400617876610943e+00 0 -3 5
45 1 1 5.8970000000000000e-01 1.8300961592566715e+01 2.3709596581086099e+00 4.5837607292013089e+00 5 8 1
43 1 2 -1.1794000000000000e+00 1.7532420792829338e+01 2.4632193266700901e+00 4.0206536086126885e+00 5 8 1
133 1 2 -1.1794000000000000e+00 1.2627453217374702e+01 1.1402304419321323e+01 4.8576945836417105e+00 -4 -4 -3
588 1 1 5.8970000000000000e-01 2.1166323887678820e+00 3.0147470636414098e+00 6.1473317835416230e+00 0 4 0
606 1 1 5.8970000000000000e-01 6.4102556495636556e+00 3.0261121486129352e+00 3.9036225773211370e+00 -3 1 1
581 1 1 5.8970000000000000e-01 2.8704649569237550e+00 1.4348934887365488e+00 4.6599295844724704e+00 -4 -1 3
326 1 1 5.8970000000000000e-01 9.9078627412063831e+00 4.5649189411375586e+00 5.6444036583166817e+00 -1 -2 -3
694 1 2 -1.1794000000000000e+00 1.0328193897469481e+01 3.4894178969193135e+00 4.4130224358818779e+00 -1 2 1
696 1 1 5.8970000000000000e-01 1.0192538691782055e+01 2.5452556668177042e+00 4.4931126547244853e+00 -1 2 1
695 1 1 5.8970000000000000e-01 1.0962242792171113e+01 3.5812967094523893e+00 3.7018277421802455e+00 -1 2 1
385 1 2 -1.1794000000000000e+00 4.7110947288612243e-01 1.1301505303175166e+01 3.2969338355616817e+00 -4 4 -1
116 1 1 5.8970000000000000e-01 5.3611915407559314e+00 1.1289709795043570e+00 4.1855059526674916e+00 0 -3 5
200 1 1 5.8970000000000000e-01 1.3896564686219735e+01 6.3312952825824889e+00 4.0076393127987231e+00 1 -4 -1
44 1 1 5.8970000000000000e-01 1.7266471716680424e+01 1.5640261601613576e+00 3.8283491937202725e+00 5 8 1
199 1 2 -1.1794000000000000e+00 1.3573196417842571e+01 5.5472222299467928e+00 4.4513968316942485e+00 1 -4 -1
753 1 1 5.8970000000000000e-01 1.6787910017349684e+01 5.3428276830945132e+00 5.0809863309422694e+00 -1 3 -4
751 1 2 -1.1794000000000000e+00 1.6129796760169217e+01 4.6480615702637040e+00 5.1020505463946453e+00 -1 3 -4
752 1 1 5.8970000000000000e-01 1.6538696669502084e+01 3.9160861928865378e+00 4.6402391375981615e+00 -1 3 -4
201 1 1 5.8970000000000000e-01 1.4364000693251770e+01 5.0665784956622257e+00 4.6960825267508364e+00 1 -4 -1
393 1 1 5.8970000000000000e-01 1.4185024030907705e+01 1.4702472075807955e+00 3.3094524445262281e+00 3 -2 -1
54 1 1 5.8970000000000000e-01 1.2805978132208235e+01 4.5594454813765672e+00 3.3195290268711437e+00 -5 0 2
353 1 1 5.8970000000000000e-01 2.6860796163309764e-01 7.8601379394151412e+00 5.9964148371483539e+00 6 6 -3
467 1 1 5.8970000000000000e-01 5.4509373394524143e+00 6.8508886634923218e+00 4.0509729516735193e+00 11 -2 7
592 1 2 -1.1794000000000000e+00 5.3623157865601607e+00 1.0035782577765934e+01 4.8585499335052740e+00 -3 0 -1
593 1 1 5.8970000000000000e-01 4.5511381660101042e+00 9.6894784315686717e+00 5.2304664793165507e+00 -3 0 -1
594 1 1 5.8970000000000000e-01 5.1577305759450747e+00 1.0945363779775770e+01 4.6416080513303939e+00 -3 0 -1
215 1 1 5.8970000000000000e-01 5.8893728316278393e+00 8.9046157541385771e+00 3.4138362507872961e+00 -6 5 0
604 1 2 -1.1794000000000000e+00 6.3278144642427607e+00 3.9065667958576662e+00 3.5372078731387924e+00 -3 1 1
17 1 1 5.8970000000000000e-01 1.4525870545427040e+01 8.9477729307099096e+00 6.2474885216355007e+00 -6 4 3
510 1 1 5.8970000000000000e-01 9.9606513231142504e+00 9.2986492184660143e+00 5.9768180088233116e+00 7 2 0
135 1 1 5.8970000000000000e-01 1.2021120999777382e+01 1.1173142677337434e+01 5.5620485750464024e+00 -4 -4 -3
314 1 1 5.8970000000000000e-01 8.9931034228502345e+00 7.8748119401617993e+00 3.6901534532836853e+00 -6 -3 0
13 1 2 -1.1794000000000000e+00 8.9794554698562710e+00 7.7035795026676430e+00 5.4839506865466179e+00 1 -6 -5
14 1 1 5.8970000000000000e-01 9.3987439519319889e+00 6.8678074200034702e+00 5.6887433787529922e+00 1 -6 -5
225 1 1 5.8970000000000000e-01 9.4491944192028878e+00 4.6240232993413883e+00 3.1070403382116969e+00 6 1 -10
666 1 1 5.8970000000000000e-01 1.1635511143642081e+01 1.1106963488138783e+01 3.4442494390439671e+00 1 -3 6
788 1 1 5.8970000000000000e-01 1.8051596871513784e+01 6.8831953311092660e+00 4.0743909725035463e+00 5 -2 9
525 1 1 5.8970000000000000e-01 1.7815492296827696e+01 1.0778817767518564e+01 4.5621701554981220e+00 4 3 2
134 1 1 5.8970000000000000e-01 1.3337756751089824e+01 1.0765408951139420e+01 4.9358053593516935e+00 -4 -4 -3
523 1 2 -1.1794000000000000e+00 1.7199885211219165e+01 1.0449437089301298e+01 5.2169928406519874e+00 4 3 2
524 1 1 5.8970000000000000e-01 1.7144023327794823e+01 1.1149491242066848e+01 5.8674239071067644e+00 4 3 2
309 1 1 5.8970000000000000e-01 1.4430247202140988e+01 8.5526639910763169e+00 3.9912880594310516e+00 3 9 0
18 1 1 5.8970000000000000e-01 1.5500523215544808e+01 9.9184070581729902e+00 5.6151286740968338e+00 -6 4 3
16 1 2 -1.1794000000000000e+00 1.4620335325245236e+01 9.5559490150632200e+00 5.5143743756714461e+00 -6 4 3
189 1 1 5.8970000000000000e-01 1.2764303450660014e+01 5.4816583993879444e+00 6.0597335966211441e+00 -3 4 0
509 1 1 5.8970000000000000e-01 9.8700423237936512e+00 1.0788167741885660e+01 6.2319283895532607e+00 7 2 0
508 1 2 -1.1794000000000000e+00 1.0496581119086192e+01 1.0066791052732508e+01 6.1742916644575185e+00 7 2 0
354 1 1 5.8970000000000000e-01 1.8151653576754430e+01 9.2584991789523361e+00 6.2607658805827420e+00 5 6 -3
15 1 1 5.8970000000000000e-01 8.4850574267473888e+00 7.9238654049439701e+00 6.2734449836177699e+00 1 -6 -5
698 1 1 5.8970000000000000e-01 2.4156128364966603e+00 5.0178772483382161e+00 3.2015144160977704e+00 -1 3 -1
307 1 2 -1.1794000000000000e+00 1.4339669651455836e+01 7.8880762512380587e+00 3.3083702358685261e+00 3 9 0
605 1 1 5.8970000000000000e-01 7.1942978914447213e+00 4.0996046652362601e+00 3.1791584532387067e+00 -3 1 1
129 1 1 5.8970000000000000e-01 3.5897456566231458e+00 3.6339048179087761e+00 8.0398665536137557e+00 1 -1 -2
127 1 2 -1.1794000000000000e+00 2.7054711009050392e+00 3.4720415891298497e+00 7.7110576457575695e+00 1 -1 -2
7 1 2 -1.1794000000000000e+00 5.2996727507601662e+00 4.2658883626605384e+00 8.6430444173705556e+00 2 1 2
128 1 1 5.8970000000000000e-01 2.1777937690541007e+00 4.1783470096838036e+00 8.0838124900018933e+00 1 -1 -2
463 1 2 -1.1794000000000000e+00 5.4475358478938674e-01 4.9807671172436994e+00 8.7499313117506059e+00 12 5 -1
473 1 1 5.8970000000000000e-01 5.5505735261826681e+00 5.8732192159535082e+00 7.7470649354359571e+00 6 1 -2
528 1 1 5.8970000000000000e-01 2.4438923076181109e+00 1.9011767419412802e+00 8.3340979623310005e+00 -3 -4 6
465 1 1 5.8970000000000000e-01 2.8238626816194806e-01 5.8916856913333895e+00 8.8827844386256185e+00 12 5 -1
464 1 1 5.8970000000000000e-01 1.8236225330408729e+01 4.6005164995115413e+00 8.2298818491780157e+00 11 5 -1
205 1 2 -1.1794000000000000e+00 2.6990705194192852e+00 1.1520657045859570e+01 7.9963775142070022e+00 -6 -2 -2
9 1 1 5.8970000000000000e-01 6.1663630922044561e+00 3.8990820206465706e+00 8.4682366901855257e+00 2 1 2
852 1 1 5.8970000000000000e-01 8.4893217015093345e+00 3.1740075495083042e+00 8.7546191514013891e+00 -2 0 -2
851 1 1 5.8970000000000000e-01 8.6912134198995599e+00 4.2063369393229184e+00 7.6658156397274917e+00 -2 0 -2
850 1 2 -1.1794000000000000e+00 8.0367190618185322e+00 3.6130262522514229e+00 8.0344309693282217e+00 -2 0 -2
368 1 1 5.8970000000000000e-01 7.5328596745676837e+00 2.0880365472969471e+00 7.0296769975638176e+00 2 8 3
327 1 1 5.8970000000000000e-01 1.0604072684453975e+01 5.4561301453715396e+00 6.6508784971249764e+00 -1 -2 -3
325 1 2 -1.1794000000000000e+00 9.7391794621608820e+00 5.2385544238612711e+00 6.3032041946963755e+00 -1 -2 -3
526 1 2 -1.1794000000000000e+00 2.5480801464947413e+00 1.0137327488138883e+00 8.6773829651252434e+00 -3 -4 6
362 1 1 5.8970000000000000e-01 7.9655454108929371e+00 1.1744223955252291e+01 6.8166246086115336e+00 2 -4 1
452 1 1 5.8970000000000000e-01 1.3298174475248983e+01 8.4962843516466346e+00 7.9967080453281749e+00 -2 -2 6
833 1 1 5.8970000000000000e-01 1.2543133204391809e+01 2.8300080859699319e+00 8.1059206339554830e+00 1 1 4
832 1 2 -1.1794000000000000e+00 1.2763216825815697e+01 3.5912436476650713e+00 8.6428952083603416e+00 1 1 4
188 1 1 5.8970000000000000e-01 1.2754991140362856e+01 4.9768667199746464e+00 7.4869881148722390e+00 -3 4 0
96 1 1 5.8970000000000000e-01 1.6907181906403814e+01 2.8236702705698535e+00 7.5017577073646162e+00 -9 0 3
94 1 2 -1.1794000000000000e+00 1.6741066502009502e+01 3.7441665729235183e+00 7.7051019453182246e+00 -9 0 3
187 1 2 -1.1794000000000000e+00 1.2462959905303634e+01 5.7061719507460262e+00 6.9400985424673838e+00 -3 4 0
834 1 1 5.8970000000000000e-01 1.3537480625889829e+01 3.3209363583345639e+00 9.1365611501981068e+00 1 1 4
569 1 1 5.8970000000000000e-01 1.5702696673316064e+01 3.4889390243531331e+00 9.1963661446245499e+00 4 5 -1
398 1 1 5.8970000000000000e-01 6.1927240121357281e+00 1.0319365457407727e+01 6.3831828485364523e+00 9 -3 -4
768 1 1 5.8970000000000000e-01 1.2293613409225514e+01 1.0673737606563044e+01 8.5636293813666402e+00 -4 -3 -1
766 1 2 -1.1794000000000000e+00 1.2100372145847913e+01 9.7391515773817847e+00 8.4896797380076627e+00 -4 -3 -1
474 1 1 5.8970000000000000e-01 5.6225135767139482e+00 6.6292567007337810e+00 6.4374128738719829e+00 6 1 -2
222 1 1 5.8970000000000000e-01 1.2136648513810309e-01 8.0155522871938381e+00 8.1777104464475290e+00 5 -8 1
220 1 2 -1.1794000000000000e+00 1.8226421900695097e+01 7.6553423080651317e+00 9.0142782554519982e+00 4 -8 1
472 1 2 -1.1794000000000000e+00 5.8290243940243549e+00 6.7072777861754460e+00 7.3688217257270514e+00 6 1 -2
206 1 1 5.8970000000000000e-01 2.8328399415141723e+00 1.0854061202839503e+01 7.3225727753652885e+00 -6 -2 -2
824 1 1 5.8970000000000000e-01 4.7506036599506940e+00 7.7453735005727893e+00 8.3721220383530124e+00 -2 2 2
779 1 1 5.8970000000000000e-01 3.4015866494099254e+00 9.0053011784893275e+00 7.2551296367933338e+00 7 -1 -3
823 1 2 -1.1794000000000000e+00 4.1975826404327874e+00 8.4031095580917263e+00 8.7937967762303497e+00 -2 2 2
778 1 2 -1.1794000000000000e+00 3.0287342173104754e+00 9.3032351282994306e+00 6.4253868847303997e+00 7 -1 -3
352 1 2 -1.1794000000000000e+00 4.1195919121743479e-01 8.6280008439590858e+00 6.5496724499348886e+00 6 6 -3
780 1 1 5.8970000000000000e-01 2.1445639552744091e+00 8.9366631412494986e+00 6.4142134886671638e+00 7 -1 -3
397 1 2 -1.1794000000000000e+00 6.5760384491282720e+00 1.0691284734737318e+01 7.1775397544516082e+00 9 -3 -4
399 1 1 5.8970000000000000e-01 6.9611433983115250e+00 9.9418717449533034e+00 7.6317768083096373e+00 9 -3 -4
251 1 1 5.8970000000000000e-01 8.4200100174292487e+00 7.8868747874720331e+00 8.6012505251367202e+00 1 -6 3
250 1 2 -1.1794000000000000e+00 7.8867894722523282e+00 8.2822527209665839e+00 7.9116062375921041e+00 1 -6 3
767 1 1 5.8970000000000000e-01 1.1521013478255570e+01 9.6732136385040928e+00 7.7305639343701671e+00 -4 -3 -1
252 1 1 5.8970000000000000e-01 7.1922315907275909e+00 7.6438376707614859e+00 7.7495170795822297e+00 1 -6 3
451 1 2 -1.1794000000000000e+00 1.3945908727920322e+01 7.8883124090797496e+00 7.6402433101116971e+00 -2 -2 6
453 1 1 5.8970000000000000e-01 1.3432781852378984e+01 7.1346187687627944e+00 7.3488618574617357e+00 -2 -2 6
703 1 2 -1.1794000000000000e+00 1.6593540975053163e+01 1.0624068206443329e+00 6.7502539171926141e+00 -1 0 0
367 1 2 -1.1794000000000000e+00 7.2732794574773161e+00 1.3072983424195384e+00 6.5404668777256472e+00 2 8 3
2 1 1 5.8970000000000000e-01 1.4945471568816652e+01 7.7592796797448589e+00 9.1278268287401954e+00 5 -4 3
674 1 1 5.8970000000000000e-01 1.2961471882684267e+01 1.0713503333009524e+00 6.5736443456335358e+00 -3 0 1
95 1 1 5.8970000000000000e-01 1.6563377497855143e+01 4.1491923713048635e+00 6.8561983006408775e+00 -8 0 3
825 1 1 5.8970000000000000e-01 4.8124835112851096e+00 9.0599885740628885e+00 9.1203967340902974e+00 -2 2 2
31 1 2 -1.1794000000000000e+00 1.3588041756628677e+00 3.8400066701172788e+00 1.1011731850035307e+01 1 4 2
419 1 1 5.8970000000000000e-01 4.6216367816499755e+00 4.6776102662696966e+00 1.1854613358663515e+01 -8 -4 9
33 1 1 5.8970000000000000e-01 1.0715900385146890e+00 4.2110299367733726e+00 1.0177401743756889e+01 1 4 2
287 1 1 5.8970000000000000e-01 1.3945884482519069e+00 2.1237441963597190e+00 1.1219583522013325e+01 4 5 4
418 1 2 -1.1794000000000000e+00 5.4129881952048269e+00 4.7042891614973401e+00 1.1316739657026600e+01 -8 -4 9
32 1 1 5.8970000000000000e-01 6.2373365607660480e-01 3.9891630138327865e+00 1.1606442091460837e+01 1 4 2
738 1 1 5.8970000000000000e-01 2.5029785129425530e+00 4.4367315000594418e+00 1.2131190400415397e+01 -2 2 -2
420 1 1 5.8970000000000000e-01 5.9594547895723000e+00 5.3746664212097519e+00 1.1726893243529680e+01 -8 -4 9
486 1 1 5.8970000000000000e-01 1.4787987431063003e+01 1.0405409277638796e+01 1.1328220249376315e+01 5 2 3
485 1 1 5.8970000000000000e-01 1.5422051988915502e+01 9.0534920652411817e+00 1.1078739275280542e+01 5 2 3
801 1 1 5.8970000000000000e-01 1.8198049012547720e+01 1.1209125381723183e+01 1.0157193236312549e+01 5 -1 1
6 1 1 5.8970000000000000e-01 6.4058682408902063e+00 3.1821934723160110e+00 1.1737714639823084e+01 0 2 -3
263 1 1 5.8970000000000000e-01 1.9534147796155985e+00 1.1181169560574567e+01 9.7982255997849492e+00 4 -3 5
155 1 1 5.8970000000000000e-01 9.6304364743429236e+00 2.8191552545353571e+00 1.0349788448223755e+01 2 5 -5
338 1 1 5.8970000000000000e-01 1.1171849121709522e+01 4.1921168079995716e+00 1.1193160796722177e+01 -1 3 2
5 1 1 5.8970000000000000e-01 7.6140362329378313e+00 2.3554946469471640e+00 1.1351896180564687e+01 0 2 -3
337 1 2 -1.1794000000000000e+00 1.0661922800544655e+01 4.3359901318469571e+00 1.0395958203632926e+01 -1 3 2
4 1 2 -1.1794000000000000e+00 6.8375739400372293e+00 2.3457422074821648e+00 1.1911600506599269e+01 0 2 -3
154 1 2 -1.1794000000000000e+00 9.0600566048594384e+00 2.0616884446697457e+00 1.0218764614797031e+01 2 5 -5
156 1 1 5.8970000000000000e-01 9.5621828046835802e+00 1.3213761028830415e+00 1.0559448264391763e+01 2 5 -5
22 1 2 -1.1794000000000000e+00 7.3430353882273796e+00 6.3254028857308811e+00 1.2298585492850894e+01 -5 0 -4
182 1 1 5.8970000000000000e-01 9.6450506280905071e+00 6.1362640665657739e+00 1.0088025011773444e+01 0 4 -1
1 1 2 -1.1794000000000000e+00 1.5461059674088821e+01 7.6399110333149203e+00 9.9254357311716621e+00 5 -4 3
799 1 2 -1.1794000000000000e+00 1.7289548765254999e+01 1.1455072500195778e+01 9.9828553485850211e+00 5 -1 1
570 1 1 5.8970000000000000e-01 1.5082046903298233e+01 3.8921583181234984e+00 1.0517034410348536e+01 4 5 -1
556 1 2 -1.1794000000000000e+00 1.5261159003563270e+01 5.3459529880538268e+00 1.1571916712429436e+01 4 5 0
557 1 1 5.8970000000000000e-01 1.4721920482607871e+01 5.6325827304115590e+00 1.2309020241462077e+01 4 5 0
212 1 1 5.8970000000000000e-01 1.6841871781416245e+01 4.5453205708226578e+00 1.2267725910672947e+01 0 2 4
359 1 1 5.8970000000000000e-01 1.5750584872031705e+01 1.4063668934821438e+00 9.7088550557862003e+00 1 1 -2
286 1 2 -1.1794000000000000e+00 1.7503110678827589e+00 1.2352002324664988e+00 1.1234000807142655e+01 4 5 4
484 1 2 -1.1794000000000000e+00 1.5553863094784759e+01 9.8759421240413374e+00 1.1550395214980218e+01 5 2 3
278 1 1 5.8970000000000000e-01 2.8098376322396303e+00 7.9754959786882296e+00 1.0056934386178895e+01 0 1 -1
611 1 1 5.8970000000000000e-01 5.4796745379921434e+00 1.1050977306784841e+01 1.0544994734778998e+01 4 2 -1
277 1 2 -1.1794000000000000e+00 1.9923841365578236e+00 8.0123221172592523e+00 1.0553594485039744e+01 0 1 -1
279 1 1 5.8970000000000000e-01 2.1949503856774362e+00 7.5772156547882163e+00 1.1381790283514926e+01 0 1 -1
264 1 1 5.8970000000000000e-01 1.6635659848236608e+00 9.9312491346227514e+00 1.0601744934036196e+01 4 -3 5
262 1 2 -1.1794000000000000e+00 1.3855401225024728e+00 1.0840265473246681e+01 1.0489282180809534e+01 4 -3 5
177 1 1 5.8970000000000000e-01 1.2629038757206801e+00 1.1670157436611923e+01 1.1993600805057733e+01 -3 -3 12
221 1 1 5.8970000000000000e-01 5.3988286930506624e-01 7.8488148510373943e+00 9.6230478036899392e+00 5 -8 1
339 1 1 5.8970000000000000e-01 1.1268313670782755e+01 4.1338384175908018e+00 9.6834406986539765e+00 -1 3 2
800 1 1 5.8970000000000000e-01 1.6769931571369380e+01 1.0800101340230489e+01 1.0448974564536474e+01 5 -1 1
610 1 2 -1.1794000000000000e+00 5.7732809393362974e+00 1.0163232302642127e+01 1.0340124715803013e+01 4 2 -1
612 1 1 5.8970000000000000e-01 5.7096758641462921e+00 9.6917481909420822e+00 1.1170737413070205e+01 4 2 -1
183 1 1 5.8970000000000000e-01 8.4751175319438321e+00 6.6758731537562621e+00 1.0883031517819582e+01 -1 4 -1
197 1 1 5.8970000000000000e-01 9.9740648924686628e+00 8.4493532535781668e+00 1.0379284886413139e+01 -8 -4 4
24 1 1 5.8970000000000000e-01 6.9184243851433669e+00 7.1190459987709085e+00 1.2624306778914230e+01 -5 0 -4
196 1 2 -1.1794000000000000e+00 1.0228038986844444e+01 9.3694203577268169e+00 1.0451604533437088e+01 -8 -4 4
689 1 1 5.8970000000000000e-01 8.9304138692593344e+00 1.0794601058129341e+01 1.0002409463980891e+01 1 -3 1
680 1 1 5.8970000000000000e-01 1.0728068650927534e+01 9.8635537112697502e+00 1.2113872567772423e+01 -6 -5 -3
690 1 1 5.8970000000000000e-01 7.4346028449396320e+00 1.0869257687073446e+01 1.0223619439831749e+01 1 -3 1
688 1 2 -1.1794000000000000e+00 8.2308787387068758e+00 1.1399908031991645e+01 1.0248405005125024e+01 1 -3 1
181 1 2 -1.1794000000000000e+00 9.0086549484432012e+00 6.8510130642694467e+00 1.0107840324353516e+01 -1 4 -1
400 1 2 -1.1794000000000000e+00 1.3010110585812090e+01 1.1583496593487968e+01 1.1578442905813363e+01 -5 0 -1
558 1 1 5.8970000000000000e-01 1.5331099190950484e+01 6.1184623748777760e+00 1.1011029911054697e+01 4 5 0
288 1 1 5.8970000000000000e-01 2.1012397143899211e+00 1.1028651818179387e+00 1.0353323284591557e+01 4 5 4
568 1 2 -1.1794000000000000e+00 1.5101158485840134e+01 3.1824761079443258e+00 9.8749666355579837e+00 4 5 -1
211 1 2 -1.1794000000000000e+00 1.7563911315040890e+01 4.0739888359717424e+00 1.2683380863448317e+01 0 2 4
682 1 2 -1.1794000000000000e+00 1.2102539555699879e+01 3.5998032477632238e+00 1.2690997005723908e+01 7 1 -3
8 1 1 5.8970000000000000e-01 5.2827442997828813e+00 4.4006016256500251e+00 9.5905794122687116e+00 2 1 2
3 1 1 5.8970000000000000e-01 1.6371040484619613e+01 7.6899918679932462e+00 9.6327127108502708e+00 5 -4 3
198 1 1 5.8970000000000000e-01 1.0890664321045346e+01 9.4896583370292742e+00 9.7713640589611508e+00 -8 -4 4
836 1 1 5.8970000000000000e-01 3.2132625594761239e+00 2.2918885054915972e+00 1.4522803199556698e+01 -1 3 2
835 1 2 -1.1794000000000000e+00 3.1161145859888100e+00 3.1385106827631550e+00 1.4958749905146153e+01 -1 3 2
837 1 1 5.8970000000000000e-01 2.9751329081992486e+00 3.7610008720464401e+00 1.4245387032557931e+01 -1 3 2
536 1 1 5.8970000000000000e-01 4.9302382662889421e+00 3.7298214245343506e+00 1.5249071499971363e+01 8 2 3
684 1 1 5.8970000000000000e-01 1.2644970746323082e+01 4.3719063521381383e+00 1.2851874548397111e+01 7 1 -3
324 1 1 5.8970000000000000e-01 7.8606666595796755e+00 1.0809514850838299e+01 1.5447742276507224e+01 5 -3 -2
855 1 1 5.8970000000000000e-01 7.3260241389780054e+00 4.6524402206230988e+00 1.5092152603631947e+01 -2 -1 1
853 1 2 -1.1794000000000000e+00 8.0557150815973628e+00 4.9319195029967497e+00 1.4539250187979711e+01 -2 -1 1
499 1 2 -1.1794000000000000e+00 9.9715932293717735e+00 3.1182573417367419e+00 1.4330329674547301e+01 3 -3 -2
854 1 1 5.8970000000000000e-01 8.5703448097340189e+00 4.1367435941075774e+00 1.4401008920526596e+01 -2 -1 1
501 1 1 5.8970000000000000e-01 1.0725899813483887e+01 3.4554037476723285e+00 1.3846992097382218e+01 3 -3 -2
500 1 1 5.8970000000000000e-01 1.0213591932897653e+01 3.2157765909672240e+00 1.5251298834626050e+01 3 -3 -2
438 1 1 5.8970000000000000e-01 9.7689239074686274e+00 1.4187378027505688e+00 1.4041210428539284e+01 3 3 0
782 1 1 5.8970000000000000e-01 6.6732203248914441e+00 1.3206584577061056e+00 1.3688904674132559e+01 -1 3 3
584 1 1 5.8970000000000000e-01 1.4556418189731129e+01 1.4365637733674756e+00 1.3174918485985051e+01 0 -3 1
583 1 2 -1.1794000000000000e+00 1.3615737672610765e+01 1.4613347364742793e+00 1.3350322870504840e+01 0 -3 1
229 1 2 -1.1794000000000000e+00 1.7534551235023468e+01 4.7375259850492473e+00 1.5414130318468548e+01 2 3 -2
231 1 1 5.8970000000000000e-01 1.7863298653598569e+01 5.6254103134453866e+00 1.5273264618349248e+01 2 3 -2
213 1 1 5.8970000000000000e-01 1.7436700603115558e+01 4.2186148824101162e+00 1.3621018109996866e+01 0 2 4
347 1 1 5.8970000000000000e-01 1.3876418941292796e+01 5.4137077591484744e+00 1.4504002491261303e+01 -5 4 -6
346 1 2 -1.1794000000000000e+00 1.3594808349800267e+01 5.8057405137726379e+00 1.3677399897509821e+01 -5 4 -6
585 1 1 5.8970000000000000e-01 1.3549436354139774e+01 1.4556051034608768e+00 1.4305220308457256e+01 0 -3 1
97 1 2 -1.1794000000000000e+00 1.6347915039001577e+01 1.5494263669228856e+00 1.3158123437774094e+01 -3 -5 5
815 1 1 5.8970000000000000e-01 1.5756300574508987e+01 4.2951356186719805e+00 1.5728940050322167e+01 -6 8 -6
98 1 1 5.8970000000000000e-01 1.6771546033275047e+01 2.3908281864641374e+00 1.2988311048382808e+01 -3 -5 5
348 1 1 5.8970000000000000e-01 1.2886858700846563e+01 6.4012943534841762e+00 1.3923141334151344e+01 -5 4 -6
814 1 2 -1.1794000000000000e+00 1.4811378192029762e+01 4.4139671870856914e+00 1.5825156507219067e+01 -6 8 -6
535 1 2 -1.1794000000000000e+00 5.7922466058584448e+00 3.8089535540305675e+00 1.5657667080946215e+01 8 2 3
411 1 1 5.8970000000000000e-01 2.8634534361661581e+00 1.1742179046950344e+01 1.5351051467708212e+01 2 4 -5
633 1 1 5.8970000000000000e-01 4.5583919714129655e+00 8.6594754958027167e+00 1.5509564933567985e+01 -2 6 2
410 1 1 5.8970000000000000e-01 2.6290916095295396e+00 1.1409642838020705e+01 1.3892816011898759e+01 2 4 -5
409 1 2 -1.1794000000000000e+00 3.2310963049902504e+00 1.1246961884797614e+01 1.4619028400254578e+01 2 4 -5
809 1 1 5.8970000000000000e-01 2.9355296581029680e+00 7.7217375065104639e+00 1.3806495537295220e+01 5 -3 -1
632 1 1 5.8970000000000000e-01 4.0103740523268776e+00 9.6262968010502874e+00 1.4481512078111594e+01 -2 6 2
631 1 2 -1.1794000000000000e+00 4.3345474746970485e+00 8.7312329032364833e+00 1.4581662759033374e+01 -2 6 2
810 1 1 5.8970000000000000e-01 1.4557369600969297e+00 7.4797320252067427e+00 1.3597677522938174e+01 5 -3 -1
808 1 2 -1.1794000000000000e+00 2.3131700749903690e+00 7.3080803985018292e+00 1.3208317675360275e+01 5 -3 -1