LAMMPS data file via write_data, version 8 Apr 2021, timestep = 1683000

1008 atoms
2 atom types

0.16566325136870852 18.2338917486277 xlo xhi
0.05948172103964389 22.510907278972432 ylo yhi
0.28070298646739644 19.225013013531623 zlo zhi
-0.018436680882038124 -6.5124585236209525 -0.008435412478305638 xy xz yz

Masses

1 16
2 2

Atoms # atomic

1 1 6.621344985146334 0.9290787524547048 4.897203245878443 0 0 0
3 2 6.836015297376845 1.4300590595750664 4.076417817422926 0 0 0
4 1 4.096242025406512 1.2226982886555948 5.325042944149464 0 0 0
6 2 4.086734428442524 1.8670690723559789 6.036123489534931 0 0 0
7 1 -0.451891632981008 6.496176749635049 5.253299264066303 0 0 0
8 2 -0.45051259656269593 6.094540839493657 6.12820323460044 0 0 0
10 1 2.099055244378038 6.480946311103741 5.044896536737794 0 0 0
11 2 1.1647815955815861 6.847221066025242 5.081324281784591 0 0 0
12 2 2.8622863504347493 7.087901208594776 5.106532942629696 0 0 0
18 2 5.768421870735708 5.081953884452819 1.5937935075363618 0 0 0
25 1 4.804715227335899 6.345628169468466 7.436078170479704 0 0 0
26 2 5.341375994455525 7.13309784854459 7.601090041302837 0 0 0
27 2 3.896593652031832 6.63530529479381 7.752731436987242 0 0 0
28 1 6.033202709150508 6.705614413341679 2.530498308675711 0 0 0
29 2 5.914103194811711 6.537029441972811 3.4590670880884713 0 0 0
30 2 5.133716529647284 7.0311684356808115 2.2399275724781833 0 0 0
31 1 1.1802670420395054 1.1395816769370122 2.7482337193333026 0 0 0
33 2 1.1367288002553582 1.380403335820005 3.702549957058703 0 0 0
34 1 0.6555075171706579 1.2940986942421557 7.738635556528009 0 0 0
36 2 0.8722093975556442 1.8938607314131146 8.423376709688823 0 0 0
37 1 6.521105939981115 2.391808660567008 2.6345093002418767 0 0 0
38 2 5.6034163882979575 2.7816158321012465 2.707501220257825 0 0 0
39 2 7.21531615947568 3.0661242878339583 2.8518220271580588 0 0 0
40 1 4.1639650168861735 3.093007641940826 7.536337364230377 0 0 0
41 2 5.091382147838189 3.3131275795993256 7.385717016348342 0 0 0
42 2 3.4327385455959987 3.7289264470317574 7.361819051901581 0 0 0
43 1 -0.5382081401182761 5.1151341887390975 7.67640663663647 0 0 0
44 2 -1.185239157120117 4.3972543410677964 7.498112385298121 0 0 0
45 2 -0.6232243507113485 5.416362850528103 8.573342323244106 0 0 0
46 1 2.13016707361524 4.97587798513874 2.5124948386225867 0 0 0
47 2 1.205598307027079 4.5567948101052425 2.5099101013218412 0 0 0
48 2 2.1140525608264764 5.560937035088346 3.319475972615917 0 0 0
49 1 6.784147549287222 3.4833762282323293 6.356096014693777 0 0 0
50 2 6.509000660856282 4.209947948691788 5.739521184432995 0 0 0
51 2 6.755963871296635 2.6539265850447147 5.8351299816836955 0 0 0
52 1 4.107690887788244 3.240701951365763 3.3849330828787894 0 0 0
53 2 3.4082319014014733 3.655494032798868 2.896382471647705 0 0 0
54 2 3.8513179656484557 2.4212621361813937 3.950015213387468 0 0 0
57 2 -0.0684544697530784 3.438576196569263 4.385273336675648 0 0 0
58 1 2.116816055954202 4.348470793674443 6.648881049796486 0 0 0
59 2 2.3127012336790216 5.137467012832321 6.0803590853913745 0 0 0
60 2 1.301534260043336 4.437513704259316 7.178646973977079 0 0 0
61 1 8.440316735209848 7.248028268566164 1.6805410883325764 0 0 0
62 2 7.618576409828731 6.86963031409348 2.1229675039942055 0 0 0
64 1 1.9718088336106807 7.075854093687636 8.533176510698741 0 0 0
65 2 1.3524617574529803 7.694006149162633 8.030121311783601 0 0 0
72 2 3.7080412441377293 1.3057676518119925 1.3210114367085393 0 0 0
73 1 5.440602601481378 5.4364240413894 4.768861223036634 0 0 0
74 2 5.127130620295324 5.844944983053183 5.575305552726428 0 0 0
75 2 4.692114130614581 4.843513124956563 4.460053703559849 0 0 0
76 1 0.9539830939493328 2.2406789460979484 5.35582822070015 0 0 0
77 2 0.7362872631542344 1.7367433505483871 6.183309450233911 0 0 0
78 2 1.5643776025529021 2.994429612928922 5.670480952754403 0 0 0
91 1 8.509474748833515 6.535173420446455 5.175201420142427 0 0 0
92 2 8.24928380442799 5.877718389145587 4.465452178458973 0 0 0
93 2 9.415336887606133 6.799654635673084 5.266132375060703 0 0 0
115 1 10.496978536979677 1.1330975981130484 2.9820805433595283 0 0 0
116 2 10.49190621606489 1.7150823820658974 2.1895021247048834 0 0 0
118 1 9.172647636146456 1.260746547318346 7.498560500230559 0 0 0
127 1 8.86017310043605 5.069493739608628 7.448586617723548 0 0 0
128 2 8.308887619414572 4.33346559572003 7.229419479159209 0 0 0
129 2 8.689269023381016 5.681338789529864 6.695402273157488 0 0 0
130 1 11.272935134563134 5.2578370101993555 2.8654650481002815 0 0 0
139 1 8.474241520535331 4.133888349641561 3.357288841479879 0 0 0
140 2 9.295501288431412 4.457377679085254 3.0060355951593603 0 0 0
141 2 8.823866631078493 3.658829130519865 4.1595472962903015 0 0 0
153 2 6.583094446527456 1.5069752474955251 9.125267113836061 0 0 0
160 1 9.734200105768885 2.7745014752290715 5.27982608303861 0 0 0
162 2 10.240770738541066 2.2611699724511554 4.600644237201211 0 0 0
169 1 6.8209656790008735 8.475524669820008 4.814594522024469 0 0 0
170 2 7.490266905789822 7.7413742530292975 4.963378628799726 0 0 0
171 2 7.041953142680195 9.191557266484441 5.43709580197711 0 0 0
172 1 4.162567760280577 8.46390941079152 5.154205418774594 0 0 0
173 2 3.9821988698715973 9.241154220961043 4.603658041095451 0 0 0
174 2 5.117406681986552 8.35261016153868 4.825820115807545 0 0 0
199 1 1.111893588903326 8.734242053308412 2.7620763089161606 0 0 0
200 2 1.0429193006395985 9.46444879315498 2.1525609753579924 0 0 0
201 2 0.4182168348361808 8.06660990234404 2.4424125803893033 0 0 0
202 1 0.2815923752876769 9.08631367130005 7.3632612811154825 0 0 0
203 2 -0.6001399390400943 8.758599153850758 7.626569413041087 0 0 0
204 2 0.3911996130375377 9.195762506411397 6.3541437874783036 0 0 0
205 1 6.176962036603212 10.048819646131488 2.7154035526406854 0 0 0
206 2 6.547499292969892 9.314445956397144 3.241308837619532 0 0 0
207 2 6.28790045374283 9.72583593391648 1.8228160095733128 0 0 0
208 1 4.386328972871596 10.072610311829385 7.3481050756051935 0 0 0
210 2 4.342167796903862 9.40683492707745 6.5954816242443925 0 0 0
238 1 3.7620067183914876 8.00573235740131 1.903470855529006 0 0 0
239 2 2.9636753217477474 8.149763285791547 2.372420478990234 0 0 0
240 2 3.9456775243861038 8.84919738832767 1.4927573651163097 0 0 0
244 1 1.116267836845576 10.062700103603907 5.014556010564513 0 0 0
245 2 1.2053137626277177 9.552674457166429 4.133538496177261 0 0 0
283 1 10.404955173616546 9.13892544949479 2.598721233683895 0 0 0
284 2 10.383501714250857 9.474793035610684 3.533310272655767 0 0 0
285 2 9.947304307984504 8.257014208848588 2.6591270962103986 0 0 0
288 2 8.411155154803367 8.348125664367524 7.636401555689105 0 0 0
319 1 6.766998383951472 7.997234294087438 8.11985432735985 0 0 0
329 2 9.424929708133588 9.455954366410209 5.70197505225577 0 0 0
330 2 9.111414383908883 10.681701331105039 4.680618867382925 0 0 0
14 2 4.959934807141977 5.307679738419873 9.019352121120724 0 0 0
66 2 2.555518430862054 7.636443747461245 9.092649077273279 0 0 0
21 2 0.8867366160991556 2.2676355026743495 1.5056856901604736 0 0 0
132 2 11.480366202752627 6.00511540689858 3.490718293247462 0 0 0
286 1 9.21535619047842 8.772892711877434 7.21552509061621 0 0 0
328 1 9.809245184788239 10.085076015695638 4.988154833497241 0 0 0
94 1 11.143041436530876 6.895886900693054 5.329820632336889 0 0 0
119 2 9.461316001630017 2.019679076354215 8.110355557466807 0 0 0
131 2 11.899830562920465 4.499717232708556 3.0924228911741714 0 0 0
161 2 10.356034451164405 3.417986491297074 5.6588455496088015 0 0 0
287 2 9.933452227258137 8.09620074640118 7.418141057403378 0 0 0
96 2 11.520388331044368 6.285649346565546 5.955501424347669 0 0 0
5 2 5.039076549704644 1.0280165631488214 5.0447508689042 0 0 0
324 2 12.567420203283744 7.393290884354431 1.312427147764932 0 0 0
272 2 9.977433429751848 9.556384014640766 0.9703171949918875 0 0 0
323 2 12.370016059667229 8.522675790704728 2.3918947764111023 0 0 0
144 2 10.606055819671312 4.673717963174326 6.943458749317084 0 0 0
142 1 11.40235269238935 4.442405801421227 6.40488409421212 0 0 0
95 2 11.681640992396915 7.7313354622999775 5.154203079520979 0 0 0
322 1 13.046638630843848 8.089868462323658 1.8235069083588327 0 0 0
246 2 1.9056488129858393 10.459593103067707 5.36304706856461 0 0 0
320 2 6.497455973321672 8.7038314303034 8.75588822124007 0 0 0
321 2 7.038711131580778 7.272526543762896 8.696147202273227 0 0 0
276 2 9.500043995349989 10.023922255829207 8.369334194268244 0 0 0
192 2 0.49461966555789827 9.819836404431435 8.973666266169587 0 0 0
67 1 -1.875631227164559 0.6160974669145637 8.523361994356183 0 0 0
32 2 2.1031560886044436 0.8200614217570588 2.652571816355223 0 0 0
120 2 9.306497019807514 1.641735225719726 6.593553965743989 0 0 0
155 2 13.20825864908999 0.9587454553059493 1.4578316809471406 0 0 0
148 1 11.202429602523042 7.275906787709547 8.313732390743136 0 0 0
149 2 11.206270634846216 6.403417814651696 8.866279226901474 0 0 0
136 1 12.966228528843853 3.382613103097185 3.93732980663003 0 0 0
143 2 12.032086447822675 3.85909037027571 6.881826771992538 0 0 0
89 2 12.517938963469472 1.8748091072833573 4.734885130080402 0 0 0
258 2 13.252279008809122 9.546786760998176 4.626897112457122 0 0 0
88 1 12.671859229163486 1.048049422350398 5.236521031605468 0 0 0
137 2 13.463357007346692 4.080979528504293 4.489661382828044 0 0 0
80 2 6.8641373338032405 1.8916329172344053 1.0093783476087306 0 0 0
63 2 8.782823154342127 6.4376692880413655 1.234105872612122 0 0 0
150 2 11.508534120604484 7.976963538367958 8.950310090205035 0 0 0
256 1 13.145282783998956 8.822581704259619 5.293696276933973 0 0 0
306 2 13.826851128755921 10.323979631325678 3.0058491152415105 0 0 0
113 2 14.15493185890275 7.37303264249798 2.7341456563021977 0 0 0
68 2 -2.357268149003494 1.312702029001569 9.004986966936546 0 0 0
217 1 6.836169768259089 10.866932321494684 6.320594890194038 0 0 0
671 2 8.021438162071263 5.555626040135539 8.97515423319756 0 0 0
247 1 6.5901268573002385 8.827107717388813 0.3306802537657826 0 0 0
138 2 13.587124559715406 2.9731857235607544 3.338743818752946 0 0 0
668 2 12.755284453077795 2.0665240908280875 8.90189320508992 0 0 0
159 2 14.154468806769529 5.9503030886328645 5.956707939903362 0 0 0
101 2 14.673167854591 5.184752768431231 1.7319272450019905 0 0 0
109 1 13.879391021458412 6.7998781038706255 7.385006375433148 0 0 0
257 2 14.017285448074224 8.397389304794283 5.3940475497442675 0 0 0
292 1 13.256959764412318 10.060728917891513 7.669796294390255 0 0 0
112 1 14.84687890913783 6.750432201166166 3.00978925842401 0 0 0
294 2 13.23789804906427 9.521449312269013 6.855780064782127 0 0 0
289 1 15.544562415322853 9.826246150431547 2.8397715262164382 0 0 0
123 2 15.324476154204355 1.9474389540572405 1.770851301529064 0 0 0
291 2 15.534137974833389 9.517682801093876 1.9408602306540534 0 0 0
126 2 12.888341781134018 1.9230172085956887 6.790815068107125 0 0 0
111 2 13.097435790871613 7.3116968886493385 7.665565484087009 0 0 0
90 2 13.640874085560512 0.8771661944129231 5.173106755952063 0 0 0
124 1 13.22197478562213 2.6289531472219894 7.401477046971797 0 0 0
157 1 14.327656486236231 5.350568005424126 5.195867092274592 0 0 0
121 1 15.321561090745044 2.224976198240217 2.736467183522554 0 0 0
158 2 14.585321196214453 5.83664813006921 4.357281098345045 0 0 0
56 2 -0.484175988040062 4.998136518108258 4.22827299756175 0 0 0
55 1 -0.44898021741544325 4.129143035491172 3.761132734510895 0 0 0
753 2 4.2056449130362195 9.346947169705167 8.982449103370653 0 0 0
167 2 11.547987995322645 5.711055394640564 1.4282401107826088 0 0 0
152 2 7.5027854211271405 0.9141156569846297 7.975040228539853 0 0 0
601 1 17.35353493802815 4.532163504991698 0.32983928610719376 0 0 1
35 2 -0.23629556782593092 0.990290809092177 8.014486108727441 0 0 0
304 1 13.061239921846914 10.704471624277287 3.3736665032386903 0 0 0
117 2 9.663996366372615 0.7064414558906487 2.9640076046454826 0 0 0
399 2 8.096147147986986 0.35445148190813036 1.084997681708985 0 0 0
836 2 12.88314945607649 9.332165982594482 9.245129293849326 0 0 0
222 2 3.195638773787833 11.07784429939134 3.1792169548594855 0 0 0
156 2 12.298185710808013 0.4087178540293708 2.5747054852609073 0 0 0
302 2 14.818563833721639 10.735921474866698 6.897070497306001 0 0 0
585 2 3.7165270680584985 2.031086355702341 8.860429667800197 0 0 0
751 1 3.6922472144123124 8.834864009664075 9.593782528672822 0 0 0
151 1 6.728353010733914 0.749486586203115 8.516219790014746 0 0 0
219 2 6.1454572579121765 10.558480407026217 6.90210862794737 0 0 0
248 2 7.49377148200338 8.404811973961735 0.636572790930609 0 0 0
9 2 -1.0541288797771253 7.312584799404134 5.128852267829029 0 0 0
2 2 7.312855651269108 0.219274648693943 5.017495444993717 0 0 0
83 2 2.2605442504963893 5.642066863406601 0.9441139832764323 0 0 0
84 2 3.1658519845286244 6.715635640279618 0.4740920594593403 0 0 0
20 2 0.4062554348203584 3.3883522176984706 0.39183549917599875 0 0 0
154 1 12.981822275102521 0.14595984125545508 1.9140641102906053 0 0 0
667 1 12.775385856034115 1.4386682150004986 9.651715882031093 0 0 0
612 2 12.14635744976658 2.9573901980996427 0.5235769888843568 0 0 0
401 2 1.924077744422795 0.05922990242752347 7.7622915193293265 0 0 0
19 1 1.117161443876797 2.7456197254461583 0.6455341586095832 0 0 0
584 2 3.1538017172582262 0.6123220879642288 9.081162953685014 0 0 0
134 2 15.270922317276272 3.9356390189988604 5.829299974864933 0 0 0
209 2 3.7783161100729012 10.838452907444307 7.074349722556669 0 0 0
145 1 17.335169362237473 7.105888389737131 1.9944359347086056 0 0 0
696 2 4.196961717145551 11.087863488962144 0.6794091404400511 0 0 1
110 2 14.013122120767113 6.265164683568166 8.170790538002873 0 0 0
146 2 17.405874708014174 6.13744328658156 1.7747240058978124 0 0 0
17 2 4.993749493922735 4.0546390881521965 0.4853372977028498 0 0 0
528 2 2.770712726746944 2.8367878669951443 0.46642634624854884 0 0 0
518 2 7.755877977535173 4.614866451152927 0.6308003358862205 0 0 0
602 2 16.421356882544696 4.305808837307732 0.5062048392682083 0 0 0
85 1 15.412345058251878 0.7424410099447721 4.977435543927478 0 0 0
235 1 -2.1440344239253277 8.009524018214446 8.453714523506052 0 0 0
236 2 -2.2718923046746577 8.86544954867221 8.981598603169951 0 0 0
125 2 14.157775427598947 2.8446389905161467 7.195591367982896 0 0 0
587 2 -1.7536021962006245 6.8884329997400116 9.459600263746703 0 0 0
16 1 5.774087907698078 4.6258148905606555 0.7142734749847781 0 0 0
526 1 3.7182174458191044 2.697989462592321 0.35306785075804625 0 0 1
311 2 10.969217595508454 11.062487229208056 6.062458449197587 0 0 0
521 2 1.886829930932438 5.537255964267257 9.417898769551787 0 0 0
114 2 15.781743267012711 7.034515750072349 2.815551003244165 0 0 0
301 1 15.640414273898049 10.889184628698647 6.4135990156730935 0 0 0
293 2 12.534783389045321 10.710423453899491 7.450231827136794 0 0 0
87 2 15.412826767818096 1.0819596471953477 4.071341743364673 0 0 0
253 1 16.03943332078973 8.46999216566103 4.990381307724114 0 0 0
220 1 3.906246879637298 10.735099570676914 3.788111914577916 0 0 0
483 2 -0.06387862742057893 0.22075343068259473 2.1978963688095776 1 1 0
305 2 12.396726804189969 10.923823278805292 2.703157278053745 0 0 0
780 2 13.064401184301323 9.640142690408371 0.6311547613803781 0 0 0
694 1 3.674240304971442 10.28300785372299 0.6645210879709325 0 0 1
135 2 16.04586236976888 2.6348057398723155 5.887679344562798 0 0 0
70 1 3.548494984671881 0.4824322493072073 1.8704867781615868 0 0 0
485 2 10.604570403315229 0.20850624284544847 7.810810923926458 0 0 0
777 2 6.134244336938636 10.858126726683546 9.530050338838544 0 0 0
290 2 16.07500791871358 10.662850160486078 2.8680779920168518 0 0 0
97 1 14.108282220684318 5.147084950645652 9.617479895192673 0 0 0
165 2 16.447230822743514 0.8096251812876367 0.7066701356201917 0 0 0
255 2 15.966388612110359 8.772471307798506 4.0597132826159505 0 0 0
221 2 4.712463050594839 10.543497567621126 3.2733738608302123 0 0 0
237 2 15.262109660448994 7.953480162173612 7.710366710168754 0 0 0
102 2 14.168417078178772 3.8925484755358353 0.8015928861860764 0 0 0
133 1 15.71287659347766 3.336094289015533 6.501287596989143 0 0 0
254 2 15.981396866214187 9.241725416551478 5.562707388526626 0 0 0
122 2 16.08277950034775 2.880844487343081 2.7852860021581276 0 0 0
147 2 17.088505590860162 7.370745514446515 1.109850679773143 0 0 0
517 1 8.646373280463456 4.85210373139446 0.3488191207499142 0 0 1
100 1 14.573340962220891 4.76433977231312 0.8433830012503342 0 0 0
103 1 10.216391988607631 2.4617145877118025 0.6190496725560588 0 0 0
486 2 11.787306037851407 0.30947387981262614 8.700825297568283 0 0 0
104 2 9.491972987632163 3.1405513870005803 0.6224818986542566 0 0 1
99 2 13.186216542387045 4.802863050930912 9.666079615817258 0 0 0
583 1 3.4820714198003038 1.4074039398381617 9.567709400760174 0 0 0
274 1 9.453656024698933 10.36565917191311 9.279728430344614 0 0 0
166 1 11.792585481620069 6.148790650346916 0.5389446076908092 0 0 1
776 2 7.715450835956808 10.507108099760377 9.741952728525458 0 0 0
98 2 14.043939757214353 5.803642738206192 10.333391456492343 0 0 0
749 2 -1.7593146273405726 10.576756132858106 14.818007401474691 0 0 0
669 2 12.51944834261218 1.9958968368634427 10.45601254953964 0 0 0
752 2 3.437867220071829 9.418295172283162 10.264406902784664 0 0 0
740 2 -5.043317163626815 7.112320174836836 18.09380760692598 0 0 0
658 1 9.294245565828264 0.34906718317248486 11.251367999770256 0 0 0
332 2 9.708696861549303 9.301939210703976 18.555045390135877 0 0 0
728 2 -3.258067525215953 10.932394668254162 13.400165929322627 0 0 0
808 1 9.565926031840453 10.927065830443356 13.088245959666764 0 0 0
816 2 7.692006958993208 11.271827703724773 15.144845994512654 0 0 0
271 1 3.530967108884356 9.91848827166178 19.00892888151548 0 0 -1
249 2 0.29878108261237896 9.379909516353848 18.47322964743158 0 0 0
275 2 9.395743902270729 9.592497170576543 9.874124067405942 0 0 0
692 2 -2.843723180876857 10.95446504357056 9.849501143938877 0 0 0
188 2 -5.716727934983757 9.338759076833798 18.564046066672354 0 0 0
507 2 4.0799356355525935 0.3397466922423067 14.192078990539379 0 0 0
23 2 1.0680114006589323 3.7069907531994875 10.178423334376097 0 0 0
655 1 3.688754216244786 0.20437168879192277 17.656035629624036 0 0 0
505 1 3.3513865642424694 1.0731566210376342 14.132201404979613 0 0 0
506 2 3.3998600981974407 1.6756694352265211 14.899416623867333 0 0 0
105 2 3.477051354010153 1.8039151113155996 18.901197080418246 0 0 0
508 1 0.7574550070808366 0.8318340669395818 14.649577517168826 0 0 0
22 1 0.4621068695314458 2.9173330754038984 10.100078322941764 0 0 0
510 2 1.7071731899467135 0.7249073478539243 14.423561150376011 0 0 0
511 1 -3.8301840672137435 6.685102934460672 14.466782217587827 0 0 0
512 2 -3.8934453574678116 6.096509050612347 13.731504166658182 0 0 0
513 2 -3.8319673883940006 6.164135813822411 15.31498699000528 0 0 0
514 1 -0.951203841233533 6.676032448850811 14.610638072563079 0 0 0
515 2 -0.8915649909307356 5.931735990744299 15.21228447136252 0 0 0
516 2 -1.9373048971032643 6.725881510100508 14.50605534759407 0 0 0
164 2 8.770554323997882 0.8647846526429125 18.64260835575934 0 0 0
519 2 2.0160872304960162 5.281391251466014 18.431696023231872 0 0 0
828 2 8.722040124203819 8.23051777470098 11.685460830760894 0 0 0
522 2 2.3010655549851924 5.2633287242608375 11.001850042477157 0 0 0
986 2 13.535814510093486 0.18467896812359993 10.540238608917774 0 0 0
693 2 -1.3901944538637072 10.43486165076091 9.883701575710022 0 0 0
571 1 -5.294868608938824 0.6128429771679147 17.857983808138133 0 0 0
798 2 10.083221775870943 9.40259495618107 16.17997419624267 0 0 0
779 2 6.6550649925273975 10.156722277069147 18.12172363095196 0 0 0
529 1 1.5342771966562925 6.55131660367454 17.087511455251274 0 0 0
530 2 1.5711218072047108 6.110938280011327 16.196327953168993 0 0 0
531 2 0.6233618272018908 6.742491831291608 17.33850219762257 0 0 0
532 1 2.411822266271083 6.405723374174515 12.416916904961964 0 0 0
533 2 3.2283101466266095 6.893945137523487 12.246492256353594 0 0 0
534 2 2.3735317549828445 6.006213793089385 13.301060393453664 0 0 0
535 1 -2.171897018309607 0.9480555341982642 12.294737880067915 0 0 0
190 1 0.5029369825521253 10.337632213452574 9.807809315351697 0 0 0
588 2 -1.3990592069131838 6.167332930187657 10.77579432945909 0 0 0
538 1 -2.8404309468192572 1.3300171177982838 17.047309277853735 0 0 0
797 2 10.99992884662147 10.55070086552413 16.69357468835678 0 0 0
540 2 -2.6423553445257846 1.623965216576611 16.155724730328583 0 0 0
541 1 3.107687337174024 2.8626654393883073 12.098513545153281 0 0 0
542 2 3.2818993434442625 2.125097638869939 12.729658530745935 0 0 0
543 2 3.286058295262591 2.5604162373148704 11.18565378774408 0 0 0
544 1 1.1142725446526156 2.492544433864738 16.768646229101726 0 0 0
545 2 0.9128183716854085 2.322212549768219 17.734553633389414 0 0 0
546 2 0.909289975934954 1.7168366175418828 16.2141143504385 0 0 0
547 1 -3.386410953315037 4.828561475318547 16.52516379954942 0 0 0
548 2 -3.9371240133556817 4.033065198267775 16.463233053329635 0 0 0
549 2 -3.4961732664913088 5.173086197373588 17.45644692389518 0 0 0
550 1 -1.3135829921669608 5.057540088664447 12.381330361821592 0 0 0
551 2 -0.9105704524468842 4.21323031026206 12.247729614050588 0 0 0
552 2 -0.7654587710494332 5.5411312243996464 13.03717811889345 0 0 0
553 1 3.5943321786901175 3.319321607204591 15.647906491332968 0 0 0
554 2 2.84620423068417 3.125406807891745 16.293186715020592 0 0 0
555 2 4.359479086440288 3.591250484149074 16.16187422134692 0 0 0
556 1 0.7207410654780306 3.310019739289769 13.162036491932426 0 0 0
557 2 1.518796359339765 3.230345641761029 12.614347762543245 0 0 0
558 2 0.5990391615179188 2.3724444092905133 13.415806677662564 0 0 0
559 1 -3.764859482838832 4.5604210081258865 13.067347489578795 0 0 0
560 2 -2.865993095004031 4.830980828952198 12.684922925973643 0 0 0
561 2 -3.4841549438318267 4.06434397673625 13.832534846817639 0 0 0
562 1 -0.7274144021167666 4.219475849068429 15.889434940281882 0 0 0
563 2 -0.11307625221551071 3.5675304326898454 16.28095388727896 0 0 0
564 2 -1.6495020091851442 4.238411440882685 16.294709244501504 0 0 0
565 1 4.830570510138084 7.1177487033034135 11.275292962567747 0 0 0
566 2 4.333615866726532 7.675514783016769 10.62484773124114 0 0 0
621 2 7.538115049701434 0.9828411979877558 12.062021614971645 0 0 0
568 1 -1.0746038318974849 6.920635168717704 17.995410685082316 0 0 0
603 2 10.703149016609617 4.936678150372481 18.3355692894095 0 0 0
570 2 -0.8381957115286826 7.686718924820267 18.523695575061787 0 0 0
606 2 10.687120119315196 4.1319895196390535 9.79703231397438 0 0 0
572 2 -5.628156719685659 1.3896265048927807 18.371893544872496 0 0 0
827 2 10.201232056497533 7.702076090610604 11.534986120714745 0 0 0
714 2 1.8678759273155223 10.068059313705598 16.90756905172406 0 0 0
576 2 0.584185628071084 1.534293463734298 10.877831138605506 0 0 0
577 1 1.7397979416823617 5.183265763660279 14.686736072170895 0 0 0
578 2 1.0472418430535555 4.60571896570989 14.25591773696051 0 0 0
579 2 2.443053435719419 4.501048782280951 14.818949395870629 0 0 0
580 1 -2.2757549191813053 2.3581949502474973 14.678857225111786 0 0 0
581 2 -2.2323475167270823 1.920247026181688 13.839188711556469 0 0 0
582 2 -1.516510612591449 2.945682015143379 14.684212713348987 0 0 0
536 2 -2.5415305507267147 0.10457853254091423 12.102793904542976 0 0 0
187 1 -5.638841179322206 10.187577674250452 19.053628681578605 0 0 -1
589 1 12.946706215573197 0.9192237081548177 14.057837538379074 0 0 0
569 2 -1.136970889254104 6.155917356330424 18.585331626032367 0 0 0
591 2 12.856341280098237 1.7085073418105976 14.650113408921007 0 0 0
592 1 10.138750927255604 0.9935774213062443 14.139773738610273 0 0 0
826 1 9.410401264614425 7.910598787064059 11.009967562430885 0 0 0
594 2 9.901287811582977 1.9232450770735154 13.96351633727646 0 0 0
595 1 5.154675859106304 6.270699035359792 14.77139276036154 0 0 0
596 2 5.285138987595983 5.563638503457455 15.425343628601544 0 0 0
597 2 4.938053665427864 5.613657287902953 14.028711280028778 0 0 0
598 1 7.976056285389711 6.222847561388191 14.477819206274374 0 0 0
599 2 7.012667587350192 6.448873323122103 14.627988407126944 0 0 0
600 2 8.017526723192013 5.832846164692189 13.559792709447764 0 0 0
79 1 0.7490205144951074 1.5235245266629054 19.12855089905498 0 0 0
15 2 3.88483509322172 4.705806570697286 9.92147555712238 0 0 0
834 2 5.98717490614784 10.784942864655772 13.956934279853193 0 0 0
605 2 11.334977552230734 5.241757604218754 10.641818211666 0 0 0
832 1 6.592978898356146 10.109322076545187 14.383380858585635 0 0 0
743 2 0.045879311231522585 7.54231531677511 10.652116931480634 0 0 0
825 2 3.552451755756504 8.41941607907944 18.468736655609156 0 0 0
815 2 8.674031387724478 11.26061502011173 16.279644204236792 0 0 0
672 2 8.312769679731629 6.774034291173421 9.899477512653515 0 0 0
611 2 6.369061672586922 2.120724857424002 18.366372569743962 0 0 0
613 1 10.486399337016785 5.978121614479098 16.985209256448954 0 0 0
614 2 11.182078324938983 6.628967982619037 17.08682348033927 0 0 0
615 2 9.566604445971072 6.289541642585476 17.235728954062445 0 0 0
616 1 11.53014333092594 6.174347653902627 12.173324694855737 0 0 0
617 2 11.485109003541485 5.854661295836444 13.0983616079993 0 0 0
618 2 12.406782920616797 6.55583722326865 11.982801167452653 0 0 0
619 1 6.651556061008785 1.2292367421171868 12.336385792081037 0 0 0
609 2 6.551400332067497 2.5277354183183802 11.117492834022674 0 0 0
809 2 10.332130881771123 10.73985827771284 12.476047953657426 0 0 0
622 1 5.882586012459935 1.183062614585727 17.06036604723423 0 0 0
711 2 2.4290629498673044 10.482008312792633 12.124682029096874 0 0 0
624 2 6.046558226557481 1.6173026596551066 16.186257299730116 0 0 0
625 1 12.465792421529564 2.751891654000534 12.056449687773245 0 0 0
626 2 12.881688843830622 2.003674783773775 12.49656342410663 0 0 0
627 2 13.061058802700481 3.498837529628303 12.100894047384404 0 0 0
628 1 10.313133077034438 2.2951869104611053 16.713516969936656 0 0 0
629 2 10.117257757451075 1.847853153212526 17.546384544385326 0 0 0
630 2 10.28353276253371 1.69998228437952 15.972345989299736 0 0 0
631 1 5.690346656180686 4.431376922887213 16.80075060383543 0 0 0
632 2 5.585372243508704 4.756253456166641 17.717861685561484 0 0 0
633 2 6.6623986483376765 4.4324041940368355 16.584537833434343 0 0 0
634 1 7.914450743165779 5.037210503906452 12.2410221084674 0 0 0
635 2 7.058316246268002 4.543769419986688 12.375114130729903 0 0 0
636 2 7.777571630369345 5.3953218973355765 11.28936698754165 0 0 0
637 1 -5.131781941634293 2.9469239569242203 15.758150351553953 1 0 0
638 2 12.403801206820422 3.619318710398426 15.336692534038276 0 0 0
639 2 12.387420124264423 2.5759610623763898 16.43152266814272 0 0 0
640 1 9.986797948517468 3.381748782949816 12.882644422011866 0 0 0
641 2 9.261973871337297 3.75865258019994 12.34876964615193 0 0 0
642 2 10.80860584093347 3.290053907036355 12.32862080002525 0 0 0
643 1 5.246062032462099 4.265130065130858 12.989893664281674 0 0 0
644 2 4.3777049258971505 3.824351017862871 12.642461252891989 0 0 0
645 2 5.510253787753126 3.6383218435767946 13.744406190824261 0 0 0
646 1 8.316139693989966 3.942004603390266 15.933587610852994 0 0 0
647 2 9.187369409072623 3.586393542995825 16.218387493251253 0 0 0
648 2 8.348356598021947 4.78023919731804 15.39632969002495 0 0 0
649 1 14.052583403363625 7.068061424421496 11.50519457770968 0 0 0
650 2 13.653563723723053 7.736590294507129 10.883882064063352 0 0 0
651 2 -3.239025692976664 7.431608694970381 11.86606577178266 0 0 0
652 1 8.093235679913022 6.723561168341394 17.83994181516411 0 0 0
653 2 7.384483200423016 7.293995217486529 17.4488001863004 0 0 0
654 2 7.600734016986158 6.128099109367745 18.397953495417358 0 0 0
590 2 12.06279884993431 0.5078359293724604 14.049905294519709 0 0 0
333 2 8.801722290154316 8.123132088745276 18.720180962156583 0 0 0
661 1 11.435176579100778 4.890918469270183 14.659454638089692 0 0 0
662 2 11.000188047565052 5.297186432995939 15.550121435707236 0 0 0
663 2 10.768979180682573 4.44172987346957 14.18695584096061 0 0 0
664 1 6.534141337558781 2.4413486560761193 14.66248224985252 0 0 0
665 2 7.3439421871287145 2.9418915806991044 14.847626598163636 0 0 0
666 2 6.797704548925674 1.8708229480274947 13.922637696245273 0 0 0
835 1 12.664928338569997 8.71600799890543 10.007258764356058 0 0 0
796 1 10.066490902260771 10.18628150807919 16.741679920454636 0 0 0
623 2 5.006876846474164 0.8038882633799541 17.11815093849218 0 0 0
673 1 3.272322896514186 8.772695698471706 14.282784699681491 0 0 0
674 2 3.9419521530093427 8.078612481164667 14.46106399671552 0 0 0
675 2 3.59964235491439 9.54827995885761 14.822284471788391 0 0 0
676 1 0.645630700294254 8.907270284258011 14.347226009335401 0 0 0
677 2 1.4796540935710945 8.506486726127278 14.382981738885972 0 0 0
678 2 0.05461282057261785 8.081448332428694 14.428626272811757 0 0 0
525 2 -2.5156444812824725 2.467112214974879 10.952058130074091 0 0 0
604 1 11.339458946500987 4.8116386569947815 9.793503221270637 0 0 0
539 2 -3.7324875128317565 0.8479557394623628 17.13603953715995 0 0 0
807 2 12.802689311034895 10.165018775102606 15.499848539240505 0 0 0
695 2 -2.532228268337398 9.79130764152302 18.841806172034232 0 0 0
106 1 9.500134666734677 2.799569139960741 9.77902466061167 0 0 0
703 1 -1.9693271651788251 8.596622810453624 12.35820663091995 0 0 0
704 2 -2.051862961375698 9.227017278685274 11.577051640666475 0 0 0
705 2 -1.0490294386394359 8.275269316951096 12.287606138664408 0 0 0
706 1 -2.9446175514715867 8.856286148351161 16.843010331534884 0 0 0
707 2 -2.767593499460529 9.095489674804352 15.885698443995793 0 0 0
708 2 -2.361700347490219 8.091423598739935 17.019382347119947 0 0 0
709 1 3.356361619431678 10.313825964811974 11.909401737581245 0 0 0
710 2 3.6028983225998976 9.653811080338068 12.62764139541373 0 0 0
795 2 12.385668922113146 9.556487188881349 12.688679006626622 0 0 0
712 1 0.9029658357726389 10.206704058898062 16.81897297468054 0 0 0
713 2 0.7067782010185653 9.620726779568148 16.01794130312024 0 0 0
805 1 12.667423353893302 10.963382957663518 16.021679306147657 0 0 0