LAMMPS data file via write_data, version 15 Apr 2020, timestep = 2329000

1920 atoms
2 atom types

6.7814026982118136e-02 2.4656590973023174e+01 xlo xhi
9.5835483989928250e-02 2.4628569516011190e+01 ylo yhi
-1.4371243902646214e-02 2.2806743243902481e+01 zlo zhi
-5.0892431556441120e-01 1.7370624524819020e-01 7.2988589045453467e-02 xy xz yz

Masses

1 16
2 2

Atoms # atomic

1 1 4.4224486050708425e+00 1.8543086086417886e+00 4.1455930728136865e+00 0 0 0
2 2 5.1429618790542690e+00 1.7336219455272823e+00 3.4863487683937278e+00 0 0 0
3 2 4.6315835909628147e+00 1.1971528982387747e+00 4.8544011300670959e+00 0 0 0
4 1 2.6299143568788987e+00 1.6017218891885143e+00 2.1122658582075382e+00 0 0 0
5 2 3.3045525079248135e+00 1.0080001404889569e+00 1.7264482265001078e+00 0 0 0
6 2 2.9400710985646139e+00 1.8216930652744161e+00 2.9706108616635363e+00 0 0 0
7 1 6.0116208684540489e+00 4.5346199831028109e+00 3.5350631647310653e+00 0 0 0
8 2 5.0371752597718960e+00 4.2987393068844373e+00 3.5395813186928931e+00 0 0 0
9 2 6.4552869684706433e+00 3.7117483997975036e+00 3.7754539947666532e+00 0 0 0
10 1 3.1661635608109973e+00 4.7055889308928220e+00 3.6798033909529169e+00 0 0 0
11 2 2.7998466049237147e+00 3.8785142322237145e+00 4.0835620161064057e+00 0 0 0
12 2 2.7926757120083501e+00 5.4309555427658740e+00 4.2046781583829409e+00 0 0 0
13 1 1.5750447447695923e+00 2.9325015645514547e+00 4.7890168214214190e+00 0 0 0
14 2 1.4827791638975265e+00 1.9740072448183525e+00 5.0505422750020692e+00 0 0 0
15 2 1.4515098804196851e+00 3.5023611307649505e+00 5.6113100377375984e+00 0 0 0
997 1 1.2153828059136879e+01 4.6498672551493883e+00 1.5082449979269471e+01 0 0 0
17 2 9.6392249349242864e-01 1.8895289840866765e+00 2.2105031417012211e+00 0 0 0
19 1 4.8118748741314388e+00 3.2090953318674353e+00 9.4756173793553844e-01 0 0 0
20 2 4.0435335783789110e+00 3.0130065456758879e+00 1.4833533223591444e+00 0 0 0
21 2 4.8307731554073596e+00 4.1926166796374700e+00 9.2789472031143971e-01 0 0 0
22 1 1.7563983422180149e+00 4.8714736837599490e+00 1.5011877702503365e+00 0 0 0
23 2 2.3805174676309599e+00 4.7691680725188874e+00 2.2567331273988285e+00 0 0 0
24 2 1.7986063806575898e+00 3.9414043541595043e+00 1.1622340773925199e+00 0 0 0
25 1 4.6454762312671249e+00 6.1547687778462628e+00 7.9483851047987431e-01 0 0 0
26 2 3.9007728489923088e+00 6.2600515971593440e+00 1.4030112038995335e+00 0 0 0
27 2 4.5185355184809355e+00 6.7603865457657628e+00 3.3971310855488268e-02 0 0 1
1611 2 1.1389267299940666e+01 8.9899144452751703e+00 1.7975322059094324e+01 0 0 0
31 1 1.0909202996489398e+01 1.5832654424936450e+00 4.1392720604031785e+00 0 0 0
32 2 1.1083769682416465e+01 2.2269598484395008e+00 4.8404328867023239e+00 0 0 0
1518 2 1.2310474049148278e+01 1.0294590042962473e+00 1.9055645361601357e+01 0 0 0
34 1 9.2908104043212330e+00 1.5621045731599978e+00 2.1964527027652028e+00 0 0 0
35 2 9.6827862431903959e+00 1.6037186571384667e+00 3.0537302807606639e+00 0 0 0
36 2 9.6845422934861887e+00 2.2621508174647822e+00 1.6809096860947164e+00 0 0 0
1158 2 1.2250165989430792e+01 8.5509323102497454e+00 1.3060144710702822e+01 0 0 0
39 2 1.1172392465534253e+01 5.1021826884061854e+00 3.4026203889547024e+00 0 0 0
40 1 9.2814137960844061e+00 4.6950677658732136e+00 3.6677607552653582e+00 0 0 0
41 2 9.0435807218691568e+00 4.6114792441475503e+00 2.7201503361658994e+00 0 0 0
42 2 9.0108198541175906e+00 3.7814953984359074e+00 4.0110221963365786e+00 0 0 0
43 1 7.8576753460315709e+00 2.8469725152017995e+00 4.9027719751849164e+00 0 0 0
44 2 7.8704642021714708e+00 3.2587498825895631e+00 5.7448714525929105e+00 0 0 0
45 2 7.9693262530276572e+00 1.8885267120036771e+00 4.9899943926699111e+00 0 0 0
46 1 6.4195238603174971e+00 1.7869240582564632e+00 2.3191483547435565e+00 0 0 0
47 2 7.4381117392384724e+00 1.7165985797552550e+00 2.3382651325819883e+00 0 0 0
48 2 6.2222940488142040e+00 2.6947726223446633e+00 2.1750854899429659e+00 0 0 0
49 1 1.0741532070430559e+01 3.4459639661650847e+00 9.7762925100509546e-01 0 0 0
50 2 1.1475186960279876e+01 3.0931066092243951e+00 1.5036188821714251e+00 0 0 0
51 2 1.0860005191499514e+01 3.0833082120119459e+00 8.8770775595066770e-02 0 0 1
52 1 7.6108705215243093e+00 4.7892143224272417e+00 1.3721601666324941e+00 0 0 0
53 2 7.6249137006294170e+00 5.6451190833802665e+00 8.4788401975293048e-01 0 0 0
54 2 6.9002713773914897e+00 4.8241734063406039e+00 2.0680282808026269e+00 0 0 0
55 1 1.0961528412595207e+01 6.1315521523966563e+00 8.6135699656417686e-01 0 0 0
56 2 1.0038135919116661e+01 6.4755261232980512e+00 1.0686481668778387e+00 0 0 0
57 2 1.0973897820991986e+01 5.2016180933295582e+00 1.1107699454302202e+00 0 0 0
699 2 2.3193325480921889e-01 1.1717366600150431e+01 9.5344494971528082e+00 0 0 0
1615 1 1.0532041958541079e+01 1.2239990790818712e+01 1.7976395415357558e+01 0 0 0
1608 2 7.2990508542615284e+00 7.8302810033093699e+00 1.9394456882259242e+01 0 0 0
531 2 1.0654138783752325e+01 4.1551623756860581e+00 6.3048714187098769e+00 0 0 0
121 1 4.4477654837172222e+00 7.9441573899567990e+00 4.4092794917297855e+00 0 0 0
122 2 5.3383038593271657e+00 7.8982042569013089e+00 4.0452309990660984e+00 0 0 0
123 2 3.8825230807565760e+00 7.7791317805125599e+00 3.6491751181300969e+00 0 0 0
124 1 2.8763240605275531e+00 7.8071297999110563e+00 2.2599095778476297e+00 0 0 0
125 2 3.1646902362055003e+00 8.5289323197492397e+00 1.6506586637648799e+00 0 0 0
126 2 1.9015696325507851e+00 7.8690718225896878e+00 2.4214776651091907e+00 0 0 0
127 1 5.8437767784619057e+00 1.0924992568478096e+01 3.4040487762614533e+00 0 0 0
128 2 6.1233729863686825e+00 1.0241674951171888e+01 4.0165602659934532e+00 0 0 0
129 2 4.8718183363498646e+00 1.0940050197695468e+01 3.4406903125542074e+00 0 0 0
130 1 3.1584756136324659e+00 1.1139585705266093e+01 3.6286923708077756e+00 0 0 0
131 2 2.9321654091228155e+00 1.0348718809304227e+01 4.0687824643788444e+00 0 0 0
132 2 2.7620100888560719e+00 1.1152298193077526e+01 2.7207183805880257e+00 0 0 0
133 1 1.4600716106019842e+00 9.1365551404594267e+00 5.0161670288006519e+00 0 0 0
134 2 1.4146528739636703e+00 9.4995420724288682e+00 5.9314288864168132e+00 0 0 0
135 2 6.8524346845061246e-01 9.3814580927851523e+00 4.5460066653423832e+00 0 0 0
269 2 2.2885483333465495e+00 1.2361003792743292e+01 4.7408647429827138e+00 0 0 0
139 1 4.4579678662032070e+00 9.4819328564476351e+00 7.2182913377050706e-01 0 0 0
140 2 4.7896660448997581e+00 1.0371735772577589e+01 7.3971308749260956e-01 0 0 0
141 2 5.1902543035982092e+00 8.9037793476749432e+00 1.1366991639583581e+00 0 0 0
142 1 1.3646213837498389e+00 1.1069514894500657e+01 1.6425962666429974e+00 0 0 0
143 2 1.3360572904192414e+00 1.0197163818233914e+01 1.2269467674788623e+00 0 0 0
144 2 1.1858505621996522e+00 1.1607163285621235e+01 8.4805911117274257e-01 0 0 0
517 1 1.2332972389199945e+01 4.6567592388447219e+00 9.3502734942228969e+00 0 0 0
148 1 1.5915282421043537e+00 6.4927927620570847e+00 5.1188581755358369e+00 0 0 0
149 2 7.1748411498474529e-01 6.2085245125381778e+00 4.7294172961786218e+00 0 0 0
150 2 1.7053822906448060e+00 7.3871510491748822e+00 4.8890278448342848e+00 0 0 0
151 1 1.0616799362354284e+01 7.5228341519304864e+00 4.1022055514560289e+00 0 0 0
152 2 1.1304447672018883e+01 7.6769774253314456e+00 3.4464894300923619e+00 0 0 0
153 2 1.0700495481177065e+01 8.1914788795002327e+00 4.7377148967286073e+00 0 0 0
154 1 8.9545710406099754e+00 7.6036898612717625e+00 1.9137133314306658e+00 0 0 0
155 2 9.4388112204190993e+00 8.3615370698512770e+00 1.4293084808725378e+00 0 0 0
156 2 9.4455851370893331e+00 7.5323967828331817e+00 2.7473832646617704e+00 0 0 0
557 2 1.1971474953039621e+01 2.0401284760059628e+00 8.4732287947291276e+00 0 0 0
158 2 1.0852426937037674e+01 1.0890449053882644e+01 3.2965878676246696e+00 0 0 0
160 1 9.1436785476373661e+00 1.0783764024445256e+01 3.2263045487822506e+00 0 0 0
161 2 8.6415321159609491e+00 1.0814027713602519e+01 2.3317389567732256e+00 0 0 0
162 2 8.6018412202461612e+00 1.1433891070190201e+01 3.6916686475270879e+00 0 0 0
163 1 7.6333701174143638e+00 9.2014016607442493e+00 4.9112685378370156e+00 0 0 0
164 2 7.7457183352416745e+00 8.2508254555657796e+00 4.8707235601252279e+00 0 0 0
165 2 8.2156745335640498e+00 9.5705925027807446e+00 4.2284867690128918e+00 0 0 0
166 1 6.2199129892398908e+00 7.7120056689819716e+00 2.1707660866554064e+00 0 0 0
167 2 5.8161750890370945e+00 7.0011394498899548e+00 1.6436522769345245e+00 0 0 0
168 2 7.1969614074175210e+00 7.7133954987754887e+00 1.9813755717540305e+00 0 0 0
169 1 1.0573834015979886e+01 9.2601023606856412e+00 8.2216823184870091e-01 0 0 0
170 2 1.0413564024606607e+01 1.0208719586213441e+01 6.7413762721093207e-01 0 0 0
171 2 1.0753014581780695e+01 8.9633465074728171e+00 2.2740994319779972e+01 0 0 0
172 1 7.3979104357249748e+00 1.0892200247175618e+01 1.2557915172725154e+00 0 0 0
173 2 6.7410836440678414e+00 1.0800207534728807e+01 1.9346943854570766e+00 0 0 0
174 2 7.5003396470305184e+00 1.0027550732688963e+01 7.4944372321556696e-01 0 0 0
538 1 7.9406197261133764e+00 3.4084835326580176e-01 1.0625803527376732e+01 0 0 0
178 1 7.7311348176070682e+00 6.3163583323482522e+00 5.0435064453428078e+00 0 0 0
179 2 6.8665868350927166e+00 5.9631268162173088e+00 4.8824290462983599e+00 0 0 0
180 2 8.3812976701111808e+00 5.9308842286319168e+00 4.4384883464338039e+00 0 0 0
558 2 1.2056516810044331e+01 2.4417943445166128e+00 7.0571956204426565e+00 0 0 0
678 2 1.1523243697656522e+01 6.9783661857755268e+00 7.4974649722238960e+00 0 0 0
16 1 5.7153216164845297e-02 2.2498779518020267e+00 2.3908926674945841e+00 0 0 0
1576 1 1.6475389863050721e-01 7.7854461821695056e+00 1.9553156179162514e+01 0 0 0
1619 2 7.5714864708294307e+00 7.5468100152890898e+00 2.1952013885113743e+01 0 0 0
98 2 3.2846238167054082e-01 5.1272205997425679e+00 2.7871905881663510e+00 0 0 0
1618 1 7.6949652049335961e+00 6.5708215643296688e+00 2.2053681696847320e+01 0 0 0
510 2 2.1584066302610849e+00 1.7970582578203331e-01 1.1512320267471562e+01 0 1 0
1260 2 6.8448471654072796e+00 1.1936499462288449e+01 1.5729756566413737e+01 0 0 0
481 1 4.8681771336822948e+00 1.8855009844918160e+00 1.0233927780032841e+01 0 0 0
482 2 4.9972233567400766e+00 1.1349616477842073e+00 1.0817682566286905e+01 0 0 0
483 2 5.1935755125904128e+00 1.5113391362525936e+00 9.4070414860656228e+00 0 0 0
484 1 2.8482922781293607e+00 1.6323271259263992e+00 7.8837084337908303e+00 0 0 0
485 2 3.0314180935924111e+00 1.6240840329620960e+00 8.8384655047754386e+00 0 0 0
486 2 1.8852911139379516e+00 1.9932586409164728e+00 7.7708709034914181e+00 0 0 0
487 1 6.1594003857194224e+00 4.7603492700309333e+00 9.2922552994406242e+00 0 0 0
488 2 5.2115071102788546e+00 4.6777402931065222e+00 9.3252873881976548e+00 0 0 0
489 2 6.6150187541933008e+00 3.8742226060052745e+00 9.5901087378466592e+00 0 0 0
490 1 3.3872541595683185e+00 4.8916354713687946e+00 9.2208439148980226e+00 0 0 0
491 2 2.7584574657178758e+00 4.1945823740032155e+00 9.6675420002117978e+00 0 0 0
492 2 2.9972092917555115e+00 5.6963624574763649e+00 9.6462669896288240e+00 0 0 0
493 1 1.7810875069516012e+00 3.2136178606336951e+00 1.0545166017434342e+01 0 0 0
494 2 1.7432507314521617e+00 3.3941285464991946e+00 1.1496256371037363e+01 0 0 0
495 2 8.3694469183968367e-01 3.2579101032400080e+00 1.0138472782909229e+01 0 0 0
1613 2 7.4521445016643453e+00 1.1439671834064153e+01 1.7866163998914182e+01 0 0 0
499 1 4.1011333821596114e+00 3.6078715225532019e+00 6.6172420720397680e+00 0 0 0
500 2 3.6279284347199181e+00 2.9700540012919259e+00 7.2180878843980567e+00 0 0 0
501 2 4.1454811045520268e+00 3.1900969837949611e+00 5.7812468030095010e+00 0 0 0
502 1 1.3815146920431685e+00 4.6476050686173034e+00 7.0773425561624652e+00 0 0 0
503 2 2.2771721868878547e+00 4.4636237889089889e+00 7.3771863594263785e+00 0 0 0
504 2 1.2918493813752696e+00 5.5278835594090525e+00 6.6788892835709861e+00 0 0 0
505 1 4.9987377539335087e+00 6.1265443560474031e+00 6.5662040770305223e+00 0 0 0
506 2 4.8626297538673837e+00 5.1498822655701826e+00 6.4844120704423220e+00 0 0 0
507 2 4.6282846950616392e+00 6.5898332824209307e+00 5.8107038914989992e+00 0 0 0
625 1 4.2395733563363542e+00 1.2333477080765917e+01 6.3358189791949542e+00 0 0 0
509 2 1.9820361877973096e+00 1.5688939382625966e+00 1.0653858478458860e+01 0 0 0
511 1 1.0813670318879838e+01 1.7362710037400029e+00 9.9567047614668454e+00 0 0 0
512 2 1.0915684916937382e+01 9.4889137309574334e-01 1.0509730547176368e+01 0 0 0
513 2 1.0043126997393575e+01 1.5661204348108053e+00 9.3984014532584705e+00 0 0 0
514 1 9.2085009559519460e+00 1.4201877127520315e+00 7.9420813572641134e+00 0 0 0
515 2 8.2521487204256729e+00 1.5749863998528690e+00 7.9194400857557641e+00 0 0 0
865 1 4.5213356931390107e+00 2.6802502127704475e-01 6.3350864397908051e+00 0 1 0
897 2 1.1820391888080994e+01 3.7890687622572500e-01 6.9844973699920851e+00 0 0 0
520 1 9.6614595176782085e+00 4.4107559110973513e+00 9.3352216207119323e+00 0 0 0
521 2 1.0638781499865848e+01 4.2780739423209795e+00 9.2133917503045986e+00 0 0 0
522 2 9.2941013532654040e+00 4.3916163143067193e+00 8.4399245676001975e+00 0 0 0
523 1 7.8835403768780967e+00 3.0742032487906918e+00 1.0559369146640737e+01 0 0 0
524 2 7.9489168523184484e+00 2.1244622280310099e+00 1.0705956701867700e+01 0 0 0
525 2 8.6973964282635254e+00 3.3548148212619262e+00 1.0009046048807118e+01 0 0 0
526 1 6.3173850570215819e+00 1.7480452739851782e+00 7.5305351071082844e+00 0 0 0
527 2 5.7260300161342679e+00 2.5219446935770944e+00 7.5420783709307369e+00 0 0 0
528 2 5.7238784201580746e+00 1.0839567218600477e+00 7.0820703856548750e+00 0 0 0
529 1 1.0731702989991318e+01 3.1978831707266888e+00 6.2769243915695991e+00 0 0 0
530 2 9.9355718846995664e+00 2.8969697850450049e+00 6.6949534561556883e+00 0 0 0
1597 1 1.1967270317093250e+01 1.0596145533581224e+01 2.0819497691049150e+01 0 0 0
532 1 7.8379615284644268e+00 4.5636825493572974e+00 7.0899867603190403e+00 0 0 0
533 2 7.7790135221684524e+00 5.2467450366973729e+00 6.3501044842813315e+00 0 0 0
534 2 6.9823433866589362e+00 4.5775234906043680e+00 7.7019629858549141e+00 0 0 0
535 1 1.0561770768189781e+01 6.0556279159546396e+00 6.3546900687191652e+00 0 0 0
536 2 9.8986604254199761e+00 6.6214997568678156e+00 6.8318670226228635e+00 0 0 0
537 2 1.0517022137559742e+01 6.3892111976565804e+00 5.4540181429864534e+00 0 0 0
1607 2 5.9327867761521285e+00 7.5746539139740303e+00 2.0117316156713514e+01 0 0 0
749 2 1.2246634807342152e+00 1.2125001039689428e+01 1.1758121487397169e+01 0 0 0
779 2 8.1337460974249041e+00 1.2323186410568734e+01 1.0059200264490153e+01 0 0 0
780 2 6.6546327937471554e+00 1.2232144797209850e+01 1.0195554947816230e+01 0 0 0
1612 1 7.6054503672627476e+00 1.0823111346224200e+01 1.8678800832443322e+01 0 0 0
601 1 4.6545095913760806e+00 7.7396216219700422e+00 9.9330099473284079e+00 0 0 0
602 2 5.2261656544024939e+00 7.8326599246493194e+00 9.2033381926905573e+00 0 0 0
603 2 4.8487602266382970e+00 8.4465735199640317e+00 1.0602012478921576e+01 0 0 0
604 1 2.6209231328303648e+00 7.5588179486151699e+00 7.9076280439820081e+00 0 0 0
605 2 3.0924153309325586e+00 7.7255894943104826e+00 8.7467006977117965e+00 0 0 0
606 2 3.0970606212253888e+00 6.9015450918761951e+00 7.4490405146811609e+00 0 0 0
607 1 5.8953069516073322e+00 1.0880449237123273e+01 9.1035539764962330e+00 0 0 0
608 2 6.1409946515122051e+00 1.1037916547432175e+01 8.2054708513061652e+00 0 0 0
609 2 6.3886906313887541e+00 1.0116061563213245e+01 9.4710832338443716e+00 0 0 0
610 1 3.0297822959523990e+00 1.0524717409222211e+01 9.5977998327731733e+00 0 0 0
611 2 2.7718753013952373e+00 1.0594506673854809e+01 8.7096544828152851e+00 0 0 0
612 2 3.9897172364370683e+00 1.0261238317474676e+01 9.5945088259832580e+00 0 0 0
613 1 1.2518652740877472e+00 9.0539353763840289e+00 1.0778034961848034e+01 0 0 0
614 2 5.6189685570846160e-01 9.4033271346385376e+00 1.0268089897126474e+01 0 0 0
615 2 2.0004488407667003e+00 9.5287392648861875e+00 1.0337541626195350e+01 0 0 0
1537 1 1.8969237416765064e-01 4.6937892139271140e+00 2.0440171745718423e+01 1 0 0
618 2 9.0402275731928960e-01 7.9438273585932375e+00 7.8973705716467020e+00 0 0 0
619 1 4.3886383902887385e+00 9.5917804228048471e+00 6.3575552788147958e+00 0 0 0
620 2 4.3091512923149855e+00 8.9796386303214977e+00 5.6402432687435473e+00 0 0 0
621 2 3.8087062021190743e+00 9.1543423088090279e+00 7.0357965243558587e+00 0 0 0
622 1 1.3740237542105138e+00 1.0907327610472388e+01 7.1172349837403575e+00 0 0 0
623 2 5.2200777623562256e-01 1.0827074345184242e+01 7.5525664028056863e+00 0 0 0
624 2 1.5392247585249983e+00 1.1691479986720994e+01 6.5770647134813416e+00 0 0 0
1539 2 5.5192317930816670e-01 3.9891320595380515e+00 2.1015163313371048e+01 0 0 0
626 2 4.2844799242548604e+00 1.1382274877069227e+01 6.0443134614405141e+00 0 0 0
628 1 1.2123585804252544e+00 6.3511413606751432e+00 1.0508071034501702e+01 0 0 0
629 2 1.6197458926891362e+00 5.9165344510861564e+00 1.1360560399458864e+01 0 0 0
630 2 1.2188826535220949e+00 7.3243536466880492e+00 1.0596078296278192e+01 0 0 0
631 1 1.0778881838088777e+01 7.7419762350904593e+00 1.0196995219039330e+01 0 0 0
632 2 1.0829284590418403e+01 6.9540514132221505e+00 1.0834734841620305e+01 0 0 0
633 2 1.1410736919002144e+01 7.6080819528268746e+00 9.4648873410913303e+00 0 0 0
634 1 8.9943193049547681e+00 8.0197151457832661e+00 7.8124150979699669e+00 0 0 0
635 2 9.3657885147771687e+00 7.9433144036417689e+00 8.7249154268032072e+00 0 0 0
636 2 8.0017547493053058e+00 7.9495852829331977e+00 7.9245499340001446e+00 0 0 0
750 2 1.9966898184959603e+00 1.2074949610513958e+01 1.0380421572375406e+01 0 0 0
639 2 1.1195332280812751e+01 1.1167192463033416e+01 9.0769481732682493e+00 0 0 0
640 1 9.2705591163761429e+00 1.1278341966243520e+01 9.2274840248295824e+00 0 0 0
641 2 8.8523556624511190e+00 1.1255210389407202e+01 8.3282951557469715e+00 0 0 0
642 2 8.9206344129257680e+00 1.0606601863755497e+01 9.7994718208938583e+00 0 0 0
643 1 7.5159225344572134e+00 9.3453192873828836e+00 1.0530006925718077e+01 0 0 0
644 2 7.9367414019623688e+00 8.4634790414915866e+00 1.0571771795202199e+01 0 0 0
645 2 7.6374577961853483e+00 9.6899708690137203e+00 1.1438229166591244e+01 0 0 0
646 1 6.3294198703537035e+00 8.3275958673413282e+00 7.8761489750636127e+00 0 0 0
647 2 6.0792096698348770e+00 7.5236594333213640e+00 7.4750974323082691e+00 0 0 0
648 2 5.8239126546539106e+00 8.9680356412311859e+00 7.2759842308984757e+00 0 0 0
649 1 1.0676708288296151e+01 9.3271005407743157e+00 6.1381738586374475e+00 0 0 0
650 2 1.0726693520814539e+01 1.0375245362682390e+01 6.1044949316633401e+00 0 0 0
651 2 1.0004372046982528e+01 9.1924660857256750e+00 6.8221521983498823e+00 0 0 0
652 1 7.9368929445048195e+00 1.1010962301526158e+01 6.7818634213441813e+00 0 0 0
653 2 7.7602449429715419e+00 1.0168612439450916e+01 6.2430435218074276e+00 0 0 0
1857 2 1.0358008083272333e+01 4.0805986074602113e-01 1.8455558051570399e+01 0 0 0
657 2 9.9207708444177634e+00 1.2157214265133495e+01 6.6027058617315530e+00 0 0 0
658 1 7.9125399172530564e+00 6.4640258724265260e+00 1.0623847015725955e+01 0 0 0
659 2 7.0123978207492259e+00 6.1112269547228601e+00 1.0322547404181579e+01 0 0 0
660 2 8.5599563561541796e+00 5.9518955327968524e+00 1.0183220064112852e+01 0 0 0
1610 2 1.0476487874467711e+01 9.0022380500631680e+00 1.6783919059665941e+01 0 0 0
496 1 1.1303193502322340e-01 1.6680554903550888e+00 7.7524994665096978e+00 0 0 0
508 1 1.9862564637498912e+00 5.8046294753921646e-01 1.0635769887751836e+01 0 0 0
136 1 1.2922857964301204e-01 8.1817530683916733e+00 2.2951991616912508e+00 0 0 0
1614 2 8.3995804929170212e+00 1.1166238630384374e+01 1.9114977735160878e+01 0 0 0
1105 1 4.5625220931299761e+00 1.2394652850558845e+01 1.2078339065257573e+01 0 0 0
976 1 3.3000383481646112e-01 1.8444633061272815e+00 1.3517057316518811e+01 0 0 0
1616 2 1.0599933928385742e+01 1.1284333924104397e+01 1.7999169927109222e+01 0 0 0
1135 1 1.0534247332172624e+01 1.2054676076318385e+01 1.2087630300564721e+01 0 0 0
1464 2 9.8088793826782328e-01 4.6134444400700545e+00 1.8746772758541113e+01 0 0 0
961 1 4.7165428249336880e+00 1.6978425329540281e+00 1.5635129693681650e+01 0 0 0
962 2 4.5425797199777955e+00 2.4018627963901191e+00 1.6241131204926148e+01 0 0 0
1710 2 5.9008396118116790e-01 1.1990367586978541e+01 2.1658976683492625e+01 0 0 0
964 1 3.0179544035190902e+00 1.6442647506049213e+00 1.3274714627820808e+01 0 0 0
965 2 3.2832499329672520e+00 1.4198293129003794e+00 1.4183047262181635e+01 0 0 0
966 2 3.5522596815725116e+00 2.4466281030272383e+00 1.3081545071164019e+01 0 0 0
967 1 6.1681358773295596e+00 4.8108651421207700e+00 1.4765028408892125e+01 0 0 0
968 2 6.6064069869297395e+00 5.4325555699565928e+00 1.5377035646151121e+01 0 0 0
969 2 6.7609491598445555e+00 4.6954649746181101e+00 1.4016723416844629e+01 0 0 0
970 1 3.3073537513362239e+00 4.9284935366217955e+00 1.4877743731988563e+01 0 0 0
971 2 4.2875905841898305e+00 4.9409080681839423e+00 1.4868099520844130e+01 0 0 0
972 2 3.0094411211163981e+00 5.4540666498832575e+00 1.5590249065852428e+01 0 0 0
973 1 1.7005621048794040e+00 3.0039703282719445e+00 1.6039211419060393e+01 0 0 0
974 2 2.3135098915299408e+00 3.2913530073584334e+00 1.5370220159826223e+01 0 0 0
975 2 1.8721258918206236e+00 3.4960150703334563e+00 1.6857793130513535e+01 0 0 0
677 2 1.1920496667753749e+01 8.3258827388561230e+00 7.1226579110563222e+00 0 0 0
977 2 1.2675274044518698e+00 2.0906428285507266e+00 1.3544194253227872e+01 0 0 0
979 1 4.7478342954945090e+00 3.5486642729554414e+00 1.2499321702806803e+01 0 0 0
980 2 4.7779745935601330e+00 3.1557088844150019e+00 1.1567952416603829e+01 0 0 0
981 2 5.4925387151362948e+00 3.0692607859238046e+00 1.2909088445478412e+01 0 0 0
982 1 1.6911758678629754e+00 4.6115626511028225e+00 1.2586847418982451e+01 0 0 0
983 2 2.4655494582088444e+00 4.7498710825002011e+00 1.3149874389668486e+01 0 0 0
984 2 9.9902459601595439e-01 4.6464300288931186e+00 1.3268065971838517e+01 0 0 0
985 1 4.4699721867053803e+00 6.1053916033381803e+00 1.2036947378502381e+01 0 0 0
986 2 4.7515372537747265e+00 6.4836635594020056e+00 1.1151399868934686e+01 0 0 0
987 2 4.6166414957997954e+00 5.1719302805743927e+00 1.2104911315690664e+01 0 0 0
988 1 1.4820057273704161e+00 3.8237626473821840e-01 1.6577043763573400e+01 0 0 0
989 2 1.4816731956394456e+00 1.3377921831060939e+00 1.6327314839358976e+01 0 0 0
991 1 1.1021648240886339e+01 1.6888307977912045e+00 1.5716481423220806e+01 0 0 0
992 2 1.0704345672888616e+01 2.3746218191968551e+00 1.6367339218428896e+01 0 0 0
993 2 1.0429123126463457e+01 1.7266962722406769e+00 1.4932956835255185e+01 0 0 0
994 1 9.4438665629403058e+00 1.6888436819323831e+00 1.3562708828137687e+01 0 0 0
995 2 9.7560956536353078e+00 9.6858591948307105e-01 1.3055473990868459e+01 0 0 0
996 2 9.6007299401261292e+00 2.5050187726133180e+00 1.3128888893996448e+01 0 0 0
1602 2 8.9892392521476481e+00 1.1650212072502296e+01 2.1239140162353713e+01 0 0 0
998 2 1.1162428413771938e+01 4.5851968288517586e+00 1.4992203258733060e+01 0 0 0
1000 1 9.5382888563644048e+00 4.6135502089327938e+00 1.4851084748386976e+01 0 0 0
1001 2 8.8878815228814876e+00 3.9790128385302808e+00 1.5260034362679354e+01 0 0 0
1002 2 9.2442932966551794e+00 4.7852158104260543e+00 1.3939458854749470e+01 0 0 0
1003 1 7.8225140557525688e+00 2.9564948194787211e+00 1.6237071221967113e+01 0 0 0
1004 2 7.0293503332056888e+00 3.3890254913213735e+00 1.5910381174915999e+01 0 0 0
1005 2 7.8138147473882098e+00 2.9246531735309951e+00 1.7220162362447667e+01 0 0 0
1006 1 6.4918542418834528e+00 1.8660024180717962e+00 1.3565784616325821e+01 0 0 0
1007 2 5.9421825296306396e+00 1.7828492656961321e+00 1.4383820272486203e+01 0 0 0
1008 2 7.4532009501273375e+00 1.9007420204352283e+00 1.3769629460456310e+01 0 0 0
1009 1 1.1276577488559433e+01 3.3449881832300115e+00 1.2026316312704932e+01 0 0 0
1010 2 1.1929869207503636e+01 2.8074878117277922e+00 1.2501696970749803e+01 0 0 0
1011 2 1.1061848874924598e+01 2.8016691172355443e+00 1.1299655798267910e+01 0 0 0
1012 1 7.9178563361992662e+00 4.7870993505701653e+00 1.2564764453958844e+01 0 0 0
1013 2 7.8608379675596112e+00 4.0155619446504227e+00 1.1920499279927547e+01 0 0 0
1014 2 8.0075670387013531e+00 5.5303441159635094e+00 1.1897308779806073e+01 0 0 0
1015 1 1.0723992367990306e+01 5.9067562330907881e+00 1.2351392449285447e+01 0 0 0
1016 2 1.1016513774500392e+01 5.0034997604281770e+00 1.2114034590514642e+01 0 0 0
1017 2 1.1436789938228021e+01 6.3177513991009828e+00 1.2943036475838086e+01 0 0 0
1058 2 3.0835328799972384e-01 3.9068216421206206e+00 1.5194193695079900e+01 1 0 0
1019 2 7.6606115829268751e+00 1.1707623872611348e+00 1.6225198957671701e+01 0 0 0
654 2 7.8378889544987125e+00 1.1731642622758796e+01 6.0936429871570814e+00 0 0 0
28 1 1.2330725273863274e+00 3.1203393872685609e-01 4.9178209173943825e+00 0 0 0
1081 1 4.2892563656924629e+00 7.9088715067520816e+00 1.5386390562424332e+01 0 0 0
1082 2 5.1728120748784852e+00 7.6651428042921017e+00 1.4977856989275212e+01 0 0 0
1083 2 4.2139413986764822e+00 7.1831790542881331e+00 1.6016985024043244e+01 0 0 0
1084 1 2.7090990805820425e+00 7.9144918183492550e+00 1.3206678817940267e+01 0 0 0
1085 2 3.1662117179908851e+00 7.9920158238258292e+00 1.4043346101914745e+01 0 0 0
1086 2 3.0632792432861033e+00 7.1489816973228466e+00 1.2770964744350604e+01 0 0 0
1087 1 5.9157152932370920e+00 1.0806673040320439e+01 1.4905238298303304e+01 0 0 0
1088 2 6.4410066910593500e+00 1.0149915955843138e+01 1.5384096061849219e+01 0 0 0
1498 1 8.1118289566063844e+00 3.8721997087629101e-01 2.2393665577938961e+01 0 0 0
1090 1 3.1124802747296112e+00 1.0947912874517021e+01 1.4871065819804850e+01 0 0 0
1091 2 2.6349460523636945e+00 1.0157225018627450e+01 1.5244169663104669e+01 0 0 0
1092 2 2.6153628082387996e+00 1.1046022206060913e+01 1.4043156238971287e+01 0 0 0
1093 1 1.5277353105123432e+00 9.1329164145877755e+00 1.6605365887489313e+01 0 0 0
1094 2 1.7945018821568290e+00 8.2324609113540426e+00 1.6445168694705792e+01 0 0 0
1095 2 5.5564014740561973e-01 9.1146832802584914e+00 1.6497814290572492e+01 0 0 0
655 1 1.0749619863343721e+01 1.2039384398165492e+01 6.1210247449652302e+00 0 0 0
1097 2 9.1577813012306464e-01 7.8610822427391200e+00 1.3562186661744777e+01 0 0 0
1099 1 4.7391249451466102e+00 9.6710765520508382e+00 1.2020966687777854e+01 0 0 0
1100 2 3.9240606204539028e+00 9.2734819381886719e+00 1.2316845083311986e+01 0 0 0
1101 2 4.5839882651235326e+00 1.0571272136518836e+01 1.1714014147945791e+01 0 0 0
1102 1 1.1880001020616544e+00 1.0831912804673776e+01 1.2824698901858932e+01 0 0 0
1103 2 1.1621845776986697e+00 1.0143471746619602e+01 1.2108791118434500e+01 0 0 0
1104 2 4.0075059853372436e-01 1.0815445157668870e+01 1.3367847325894262e+01 0 0 0
1089 2 4.9742448789289169e+00 1.0580755358773548e+01 1.4903351524702433e+01 0 0 0
1108 1 1.6118282503408949e+00 6.4788214409681775e+00 1.6210766629522560e+01 0 0 0
1109 2 1.0015853049274432e+00 6.0437730352283108e+00 1.5583316884716927e+01 0 0 0
1110 2 1.6345620697171470e+00 6.0033185784667706e+00 1.7080003857039181e+01 0 0 0
1111 1 1.0549882322469690e+01 7.8411190806950213e+00 1.5497351769396394e+01 0 0 0
1112 2 1.1355125090813935e+01 7.7781912918486569e+00 1.4933350708928193e+01 0 0 0
1113 2 9.7987262174920602e+00 7.8057897797311666e+00 1.4879428798973811e+01 0 0 0
1114 1 8.9251544861421959e+00 7.7992992433225057e+00 1.3352525633663282e+01 0 0 0
1115 2 9.1507890269800285e+00 6.9584651199789098e+00 1.2998218252446049e+01 0 0 0
1116 2 7.9483445982642360e+00 7.9575851664724890e+00 1.3300252519619375e+01 0 0 0
33 2 1.1729607319428272e+01 1.5942597050968159e+00 3.5387952893909964e+00 0 0 0
1120 1 9.2387133540596391e+00 1.0720272793002581e+01 1.5025667066195602e+01 0 0 0
1121 2 8.8317374616270286e+00 1.0928956371032127e+01 1.4134918202023533e+01 0 0 0
1122 2 1.0173218563962486e+01 1.0751182714094764e+01 1.5166593427799970e+01 0 0 0
1123 1 7.6221810810460484e+00 9.0429430384591853e+00 1.6486374881835296e+01 0 0 0
1124 2 8.3682930212959494e+00 9.3972327604661778e+00 1.5919408424892039e+01 0 0 0
1125 2 7.7169273808420709e+00 9.5588594448873767e+00 1.7316355495833598e+01 0 0 0
1126 1 6.0418103598299577e+00 7.9213400374551721e+00 1.3567835112460701e+01 0 0 0
1127 2 5.6400582300409123e+00 7.1568635630548778e+00 1.3127255148944620e+01 0 0 0
1128 2 5.8708999232541679e+00 8.6585167844240800e+00 1.2957136160140063e+01 0 0 0
1129 1 1.0595628949298165e+01 9.3948190746706750e+00 1.2276528844413436e+01 0 0 0
1130 2 9.9810135815114176e+00 8.8535245049129276e+00 1.2776789377790145e+01 0 0 0
1131 2 1.0576885131273096e+01 8.9769743560531516e+00 1.1393630237133014e+01 0 0 0
1132 1 7.6605302622856533e+00 1.0962317569061433e+01 1.2967548839052505e+01 0 0 0
1585 1 4.2967782304158764e+00 1.2206838269889548e+01 1.7985238763180604e+01 0 0 0
1134 2 6.8074305739071868e+00 1.0991419318272220e+01 1.3466474417209234e+01 0 0 0
516 2 9.4679838142916637e+00 7.2435218110077193e-01 7.3552419446557042e+00 0 0 0
1137 2 1.0609122593728785e+01 1.1065160861197638e+01 1.1994358082260266e+01 0 0 0
1138 1 7.6870629067646705e+00 6.2603590580383113e+00 1.6491709661716712e+01 0 0 0
1139 2 7.7022467838294819e+00 7.2464540368768029e+00 1.6416023962896297e+01 0 0 0
1140 2 8.4308908560417493e+00 5.9128275282505705e+00 1.6028507612297872e+01 0 0 0
1117 1 1.1971139452322952e+01 1.0800302095893999e+01 1.4711589100820694e+01 0 0 0
1133 2 7.4727242595389605e+00 1.1711538219001957e+01 1.2350372691862063e+01 0 0 0
416 2 1.1197449705161915e+01 4.4782695393373673e-01 2.2673202367448098e+01 0 0 0
1258 1 7.5190315030234967e+00 1.2289188438193248e+01 1.6316680203199056e+01 0 0 0
385 1 4.7191764545149653e+00 4.0554526161435073e-01 6.8977885205051470e-01 0 1 0
1230 2 2.3568644860683676e+00 1.2297984416955487e+01 1.5935851888247614e+01 0 0 0
637 1 1.1956020600757718e+01 1.0503251170889945e+01 9.1361792961189821e+00 0 0 0
219 2 -1.4563054618630125e-02 1.1458050851729736e+01 4.5037489634421162e+00 0 0 0
1376 2 1.1709632951476392e+01 4.4035914188937259e-01 1.2727529658392099e+01 0 0 0
1441 1 4.6500013374363727e+00 2.1533022792778906e+00 2.1349618318269002e+01 0 0 0
1442 2 4.8211907912335930e+00 1.5457527150242705e+00 2.2076101856084072e+01 0 0 0
1443 2 4.7245598660193489e+00 3.0232840065858797e+00 2.1786199060155120e+01 0 0 0