LAMMPS data file via write_data, version 3 Mar 2020, timestep = 0

2016 atoms
2 atom types

0.0000000000000000e+00 1.7942716075181817e+01 xlo xhi
-1.6643394352065108e+00 4.6660499412121538e+01 ylo yhi
0.0000000000000000e+00 1.9082370664202283e+01 zlo zhi
4.5031023015440763e-02 -6.6588604432408225e+00 -2.2632266268409751e-02 xy xz yz

Masses

1 16
2 2

Atoms # atomic

579 2 4.7060985140414253e+00 1.9642734411437588e+00 1.8838555407070061e+01 0 0 0
223 1 -2.7048029736524271e+00 6.8354277491618571e+00 1.5167911414903504e+01 -2 0 -2
995 2 7.6210359526831066e+00 8.7014060358919991e+00 1.2615082865927778e+01 3 0 1
890 2 1.0426102123163579e+01 -3.2077597391118395e-01 6.9963103559068687e+00 -1 0 0
394 1 6.7281403001963209e+00 5.5879641556684305e+00 3.2147660951372585e+00 -3 0 -3
578 2 5.4904615846345592e+00 3.1345647728154953e+00 1.8635476796200045e+01 0 0 0
929 2 1.5624827232543153e+01 1.3633624357121010e+00 2.3473991377018875e+00 0 0 0
513 2 7.8084519620360675e+00 -1.1906792809190248e+00 1.5678043676524302e+01 1 0 0
705 2 -3.2329030895721256e+00 2.6397925835875373e+00 1.7792290137894550e+01 -2 0 -1
302 2 6.1964081961188446e+00 7.1592361191734266e+00 2.7182387833002877e+00 0 0 0
299 2 1.1819068103656560e+01 1.4324971120057999e+00 1.6755640793913997e+01 -3 0 -2
1994 2 -2.0291960633209345e+00 7.9674635729087377e+00 1.6953385976003908e+01 -2 0 -3
846 2 6.5353533665061496e+00 -1.3333460035648508e+00 1.2748063014087270e+01 1 0 1
406 1 2.0600001959354510e+00 1.3819528294118815e+00 1.0693328294333062e+01 -2 0 -2
335 2 6.7624204027574324e+00 8.3200025945902940e+00 5.8854220294828927e+00 -2 0 -2
596 2 5.7582995681503868e-01 6.9779620192369993e+00 1.5870833383832417e+00 3 0 -2
905 2 3.5387948105731759e-01 7.8703818689180540e+00 1.8752900420723897e+01 -3 0 1
433 1 4.2367616906455874e+00 8.4351296523322628e+00 1.8345162065869438e+01 -2 0 0
881 2 1.1738558500618314e+01 2.2737589943581575e+00 1.0185721482965132e+01 -3 0 2
319 1 1.0799025791389099e+01 -3.1754697251270181e-01 1.4861305845854297e+01 -4 0 -3
53 2 8.9805731512564151e+00 2.5259681067747328e+00 2.8424554562408226e+00 2 0 0
547 1 5.8387712189324361e+00 8.0323503075211384e+00 1.6233083899138403e+01 -3 0 -4
609 2 5.0725635784026419e+00 1.1953597756327099e+00 2.1417634813043653e+00 -3 0 0
1583 2 -1.7038120232243732e+00 1.9421860685473971e+00 1.5376694146736066e+01 0 1 1
122 2 4.4936702968673030e+00 3.2619350744325448e+00 1.4053840118596746e+01 -2 0 -1
714 2 -9.6276144635499072e-01 -6.4920096409177330e-01 1.0136993210767715e+01 0 0 3
407 2 1.5882326977105983e+00 1.7619300373813491e+00 1.1456565993619801e+01 -2 0 -2
707 2 3.7928929912940852e+00 3.1558100015902282e+00 1.6224715846303781e+01 -1 0 -1
972 2 -3.2126875471949630e+00 5.7105986675495393e+00 1.8741984981864633e+01 0 0 0
448 1 6.6468375832343085e+00 7.2478875377778866e+00 9.5712262594317163e+00 -1 0 1
86 2 1.6741622364643163e+01 -6.5156393007251268e-01 3.1493822117361521e-02 1 0 -2
921 2 1.0088573980881916e+01 -1.2711198256711509e+00 1.0021380485010670e+01 0 0 -2
687 2 2.1100649597354217e+00 -2.5484342704383267e-01 9.7381213352263405e+00 -3 0 0
977 2 5.3446056401223832e+00 -7.7767165301864827e-01 1.8308711866854974e+01 -3 0 -1
634 1 2.9912785479050141e-01 4.4596919459035460e+00 9.9296570082695617e+00 1 0 -2
301 1 6.3374661013201354e+00 8.1536982219365637e+00 2.8250613490219361e+00 0 0 0
276 2 8.1485575547580709e+00 -4.2433227241510374e-01 1.8811129753236987e+01 2 0 -1
270 2 -1.2500924113084131e+00 5.5779969819624844e+00 1.3069878725144321e+01 2 0 -1
463 1 4.1348047247217981e+00 3.9246613601224043e+00 3.9038729901417808e+00 2 0 0
449 2 7.4898519918366651e+00 7.7708328509485920e+00 9.4073892961108943e+00 -1 0 1
524 2 1.0991928539497913e+00 2.8533644524420296e+00 1.3737944830285747e+01 -2 0 -4
585 2 -3.8028486001978434e+00 6.5595350472727088e+00 1.1999678895169561e+01 -4 0 -4
523 1 1.0304653353314794e+00 2.1037227396508031e+00 1.3063264264283106e+01 -2 0 -4
658 1 7.2312608223267745e+00 4.8528495332144930e+00 1.0948622355750135e+01 -1 0 -2
206 2 5.1315726110544801e+00 1.7909969334861078e+00 1.1071963200130920e+01 3 0 0
96 2 1.5563684910711821e+01 4.0042376409857754e+00 5.3698164544593592e+00 -2 0 -1
441 2 1.8521942369144462e-01 4.4747676226372404e+00 1.5111236516238073e+01 -2 0 -1
151 1 8.0278573544331291e+00 1.1381903282163806e+00 3.1652324600306403e+00 3 0 0
781 1 3.6041508651727971e-01 3.9372254194099376e+00 3.0508663669751206e+00 -2 0 -2
880 1 1.0963207445641874e+01 2.1366258920401768e+00 9.6008890569282102e+00 -3 0 2
626 2 9.4135245169713002e+00 6.1606067883343600e+00 5.4911363633618182e-01 0 0 0
434 2 3.4890921138926609e+00 7.8815391726074271e+00 1.8641213283750055e+01 -2 0 0
703 1 -2.5199201966942164e+00 2.5381496004657036e+00 1.7129677559025676e+01 -2 0 -1
382 1 5.6285147065801286e+00 5.0402665490673453e+00 1.7744824668740701e+01 -2 0 0
21 2 8.8866126144791604e+00 7.9004307873188164e+00 5.1959590653743852e+00 -3 0 -3
920 2 9.0046739091319701e+00 -2.1810630832388744e-01 1.0287299329504489e+01 0 0 -2
54 2 1.0471718602599427e+01 2.7620754618445469e+00 2.6871330470749712e+00 2 0 0
191 2 4.6898801666201049e+00 7.0605916448934707e+00 1.5309563817618811e+01 -2 0 -3
689 2 1.9279590909200337e+00 2.8493758082071894e+00 5.6690556945151220e+00 -2 0 0
591 2 3.5443176443052433e+00 5.5848765736401118e+00 1.2105600543223762e+01 -4 0 -1
392 2 -2.7009113229328614e+00 4.2045390847509774e+00 1.3018085607509436e+01 -1 0 -1
669 2 4.2545319207174357e+00 9.6389082271679083e+00 1.4343216629144749e+01 -3 0 -3
52 1 9.6249455374020805e+00 3.2199564630247188e+00 2.8387924731372571e+00 2 0 0
356 2 -4.8002195722673449e+00 3.9774627357457293e+00 1.8595253759963985e+01 -4 0 -3
477 2 6.3387903759981601e+00 3.3999157626240057e+00 1.0491331664300439e+01 -1 0 2
500 2 1.3915307234181434e+01 2.9949352249191881e+00 8.3189638852051804e+00 0 0 0
428 2 9.6547016415841291e+00 9.5090018906340710e+00 1.6968604509905106e+01 -1 0 -1
841 1 -6.6849148303496619e-01 -1.5192653618852396e+00 1.6270059698215277e+01 -5 0 -5
789 2 1.1884407706843952e+01 7.8374992604602109e+00 1.4291215563875488e+01 -3 0 -1
810 2 7.9303852355626647e+00 2.8627205080064808e+00 6.5224495741152433e+00 -4 0 -1
930 2 1.6785156582175794e+01 4.2744427172529953e-01 2.5148743635623356e+00 0 0 0
702 2 5.1656354479825444e+00 8.2359503339765316e-01 1.6700685906765848e+01 -3 0 -3
501 2 -2.8744162542783021e+00 2.2154540080651652e+00 9.0845140940088065e+00 1 0 0
625 1 2.9474865818274294e+00 6.1750891961431789e+00 1.8672112661843592e+01 0 0 -1
549 2 6.2073710796670927e+00 8.8896664233147860e+00 1.5952572134933309e+01 -3 0 -4
101 2 -1.0999684337062656e+00 5.4214039807284999e+00 9.7694791020811014e+00 -1 0 -1
384 2 4.6594027351695031e+00 5.2088299512758525e+00 1.7865946242584254e+01 -2 0 0
1664 2 1.1009860108311385e+01 8.8868229112311248e+00 4.6752672431711968e+00 -3 1 0
622 1 -4.7424429812577058e+00 1.5960362674532886e+00 1.5628681000108022e+01 -2 0 -2
624 2 -4.0113981844634523e+00 1.4050788944826338e+00 1.6203355815810998e+01 -2 0 -2
179 2 1.3702882786380304e+01 7.8375956537294833e+00 2.0378508994492114e-02 -3 0 0
760 1 8.7098624861975633e+00 -1.0363179725306595e+00 8.4823522175256363e-02 -3 0 2
246 2 1.3376135105906432e+01 8.7250381126434959e+00 1.2118927518367583e+01 -4 0 -4
635 2 7.1297879894922467e-01 5.2107514448937318e+00 9.3983827086445775e+00 1 0 -2
268 1 -1.0332815482949300e+00 6.4798264832403714e+00 1.3311920788103125e+01 2 0 -2
600 2 -8.1090050373072398e-01 8.5124425566036201e+00 1.0337683131946985e+01 -3 0 1
49 1 9.0652482381548722e+00 3.9369886626487416e+00 9.2728832676418005e+00 -1 0 0
183 2 1.1226072496256846e+01 4.2296804079123831e+00 5.3366061298381275e+00 -1 0 0
464 2 3.9948732414477131e+00 4.8783129088400914e+00 3.6953900941773297e+00 2 0 0
393 2 -1.6627793359842822e+00 3.1430814181397704e+00 1.3396010935558365e+01 -1 0 -1
192 2 4.2670423091116501e+00 6.2089677624400439e+00 1.4028584942569932e+01 -2 0 -3
1914 2 1.1015109115835733e+00 9.2200486997160809e+00 1.8965986160585132e+01 -3 0 1
135 2 1.5058638499878418e+01 1.8335452573126001e+00 5.5485833974728749e+00 0 0 -1
778 1 5.4888084568868418e+00 7.6739651369745037e+00 6.9273511663887195e+00 1 0 0
244 1 -3.6930445660569085e+00 8.3835329655107262e+00 1.2378346210123615e+01 -3 0 -4
598 1 -1.3576459958656590e+00 8.1379617606606089e+00 1.1018748133646909e+01 -3 0 1
120 2 3.6774659193875614e+00 2.9968089756336616e+00 2.5154296959986726e+00 -2 0 -2
858 2 -1.4611477816730492e+00 6.2088023814559978e+00 4.8948167923508699e+00 -1 0 -3
640 1 2.1426039107285586e+00 8.9978814555816449e+00 1.1763484322502954e+01 4 0 -1
753 2 1.1883193059229281e+01 6.0476385926456038e+00 1.5318267904030566e+01 -1 0 2
987 2 -2.0394938017746114e+00 7.5137673094638036e+00 1.8405153758989545e+01 -2 0 -3
119 2 3.0287638441459523e+00 2.8375331566565860e+00 1.1421655553564687e+00 -2 0 -2
525 2 3.9404636831948814e-01 1.4388967808675406e+00 1.3295238610414430e+01 -2 0 -4
495 2 8.5709868947555434e-01 6.7371771306222730e+00 5.4396108215618701e+00 -3 0 -2
971 2 4.8891075932596344e+00 5.4401911413978690e+00 3.2222775777788615e-01 0 0 1
559 1 8.8129131279806927e+00 -5.0619914375901720e-01 7.2136847639210773e+00 -2 0 1
212 2 9.6633499351256980e+00 4.2652457524864555e+00 4.1281287121220371e+00 -5 0 -2
701 2 4.8353770955038318e+00 1.3254393700301237e+00 1.5372148353711150e+01 -3 0 -3
5 2 3.8817008791995686e+00 6.4147344009220433e+00 1.8075579694293959e+00 1 0 0
470 2 1.0522050552637520e+01 3.0940697773065704e+00 1.8721167629275357e+01 -7 0 -3
471 2 9.7763832209329458e+00 4.4813299584143973e+00 1.8647751724080962e+01 -6 0 -3
708 2 3.7941163851059363e+00 4.6639663780477409e+00 1.5915156207721262e+01 -1 0 -1
976 1 5.3784970888934733e+00 -8.2806418770579793e-01 1.7336824300391825e+01 -3 0 -1
46 1 1.1273807621706011e+01 7.0187710506111927e+00 7.1725793698077966e+00 -3 0 0
670 1 -1.6371537970517624e+00 -8.6158426383243714e-01 8.5090447469781356e+00 -3 0 -1
856 1 -8.3759702910092249e-01 6.9804831037633353e+00 4.8445792471364149e+00 -1 0 -3
627 2 2.0800326523197734e+00 6.1538678722568827e+00 1.8195362113635532e+01 0 0 -1
111 2 2.6995534587316579e+00 1.5389447888409991e+00 1.7457188007500328e+01 1 0 -4
869 2 1.2449332383670827e+01 4.7591569372712259e+00 8.7212532483469598e+00 1 0 0
16 1 -1.3613077146398176e+00 4.7072797048317430e+00 1.6288991179533991e+01 0 0 1
178 1 6.9388211663212660e+00 6.8759591558956235e+00 1.9032723807861782e+01 -3 0 -1
974 2 7.9487857033984337e+00 8.8103804698421850e-01 1.6212558690286052e+01 -4 0 -2
118 1 3.7043688074233021e+00 2.3695564716829836e+00 1.7592854113447483e+00 -2 0 -2
160 1 1.4354933268609198e+00 6.0544941205880214e+00 1.2170395262444925e+01 1 0 -5
623 2 -4.6067004249363777e+00 9.1077813137370400e-01 1.4999192482833134e+01 -2 0 -2
1668 2 8.0124467039674414e+00 4.5069293171159011e+00 1.0436922843143758e+01 -1 1 -2
644 2 1.0812584644166417e+01 5.4964552627751573e-02 1.1904767781974011e+01 -4 0 -3
190 1 4.0598262163847050e+00 6.3790338344424686e+00 1.4994974121595828e+01 -2 0 -3
83 2 1.3589003923105961e+01 9.1782019472505159e+00 6.4844863488515037e+00 -1 0 -3
239 2 7.2047789096942703e+00 4.9684480465201233e+00 1.4403122178147360e+01 0 0 0
716 2 5.2349548749747052e+00 3.3061140755279554e+00 1.0980736906281170e+00 1 0 2
717 2 6.7523839509312316e+00 3.6839641811987498e+00 7.0993036927240916e-01 1 0 2
240 2 6.8914457661838791e+00 6.2299181475885117e+00 1.3514220832573123e+01 0 0 0
904 1 7.3392789636692273e+00 8.5424699707884209e+00 3.1139073171529402e-01 -3 0 2
17 2 -2.0619529042694529e+00 5.2598881707762679e+00 1.5869475927761970e+01 0 0 1
779 2 4.5538676819538146e+00 8.0209177777765532e+00 6.9773000903746247e+00 1 0 0
979 1 1.0820331138297561e+01 7.4782123320772662e+00 1.2851138529158623e+01 -2 0 0
645 2 1.2084701989177024e+01 1.0052279278013092e+00 1.2256842805163082e+01 -4 0 -3
613 1 -3.9553066406253024e-01 1.4214343930176594e+00 1.8414798471511236e+01 -2 0 -1
590 2 4.7897811560125980e+00 5.9995216878866611e+00 1.1447068621640918e+01 -4 0 -1
238 1 7.5969457170940888e+00 5.6778821997860254e+00 1.3863106878038893e+01 0 0 0
522 2 7.0266251503787167e+00 -1.3509287262272540e-01 9.6065520400093831e+00 -5 0 -2
715 1 5.8944776223397835e+00 4.0027066707389531e+00 9.9292388167791756e-01 1 0 2
115 1 -4.3925339278698523e+00 3.9365646062399193e+00 1.3861629826569468e+01 -4 0 -5
426 2 1.2890949044681827e+01 4.0931172687113238e+00 4.2769097008252546e+00 -2 0 1
494 2 2.2000162595268411e+00 5.8632251044749930e+00 5.3016497956019304e+00 -3 0 -2
87 2 -6.4210758495912135e+00 -1.2069159070914837e+00 1.9018481269946953e+01 2 0 -3
980 2 9.8328803776973093e+00 7.5787702091065157e+00 1.2931911013246708e+01 -2 0 0
933 2 1.2176394572354381e+00 2.6554314724273711e+00 1.6169816211295956e+01 -2 0 -1
857 2 -4.6289385953469497e-01 6.8254465284577108e+00 3.9397185694723729e+00 -1 0 -3
868 1 1.3142325332544422e+01 4.4777356450193277e+00 8.0887189752087352e+00 1 0 0
236 2 1.4461394532142284e+00 9.6479201470979863e+00 5.4418918414852921e+00 -1 0 1
18 2 -1.8306866785087048e+00 3.8770546249511550e+00 1.6494892000859071e+01 0 0 1
950 2 -3.4236759507096193e+00 -3.8705745004084147e-01 1.8075055648465202e+01 -1 0 1
320 2 9.8189963526542492e+00 -1.4149525649560468e-01 1.5114991283076685e+01 -4 0 -3
785 2 9.1228696443872037e-01 7.0520254759011181e-01 1.4699735147450277e+00 -3 0 -2
870 2 1.3827642187378297e+01 5.1990134682677276e+00 8.0025550697587509e+00 1 0 0
211 1 9.8220404833240540e+00 4.7917272669432949e+00 4.9023010558062046e+00 -5 0 -2
387 2 1.4788912288867337e+01 3.4628910209324983e+00 2.8033651674943036e+00 -1 0 -2
275 2 1.4967497329593000e+01 -7.4888001373905744e-01 1.2267306248376126e+00 2 0 0
643 1 1.1159007578520487e+01 7.2195490210858138e-01 1.2544176029258290e+01 -4 0 -3
279 2 5.4622963685607697e+00 8.4355464439329904e+00 1.2529197702626504e+01 -4 0 -1
985 1 -1.9969659509152020e+00 8.3386625233838565e+00 1.7834578759995257e+01 -2 0 -3
642 2 1.3861295380560446e+00 9.3394580094894017e+00 1.2311538938477950e+01 4 0 -1
116 2 1.2831870315875953e+01 4.5009302014136905e+00 1.4129501554179626e+01 -5 0 -5
224 2 -2.1389853813171542e+00 6.9462444771822813e+00 1.4396490124272990e+01 -2 0 -2
845 2 7.3877496692173823e+00 -3.5262876687075062e-02 1.2526197420832508e+01 1 0 1
48 2 1.0559618860523933e+01 6.9455551938540303e+00 6.5122694921649185e+00 -3 0 0
117 2 -4.2421240841557815e+00 3.4167365179803451e+00 1.4645218573954363e+01 -4 0 -5
931 1 1.3360879143844988e+00 1.6959981027070983e+00 1.6423810983502261e+01 -2 0 -1
429 2 9.5525046560124025e+00 8.1875375086306370e+00 1.6057409591133048e+01 -1 0 -1
385 1 1.5589613565309088e+01 3.0761523624212099e+00 2.3383266003638026e+00 -1 0 -2
502 1 5.0044914834914378e+00 -7.7171460396483382e-01 9.5011358432840751e+00 0 0 -1
961 1 1.5498673759033510e+00 -3.0378888203072885e-01 1.4675435364331760e+01 -3 0 -1
42 2 4.4264964157862847e+00 4.8702932678808848e+00 8.7331380401576499e+00 -2 0 3
726 2 1.3524175428359293e+01 7.1226307574706027e-01 8.6224760659833901e+00 1 0 1
78 2 3.2636654276829393e+00 9.2602339196601253e+00 1.0237520656111053e+01 -2 0 -3
769 1 1.4789769722752046e+01 6.3178583706870333e+00 7.2405974606517374e+00 0 0 -3
1002 2 1.1981737052121698e+01 1.3951407778774834e+00 3.4905238814059882e+00 -1 0 1
4 1 3.6302659388330074e+00 6.4061150313712911e+00 2.7556522202939360e+00 1 0 0
978 2 6.1708666594177002e+00 -1.3934092570517072e+00 1.7204181920491145e+01 -3 0 -1
41 2 5.0717583592404472e+00 3.4828671893568108e+00 8.7828902869930765e+00 -2 0 3
636 2 6.8657674630028342e-01 4.5388156486752065e+00 1.0809374241095158e+01 1 0 -2
812 2 1.0830565984373465e+01 4.3667699453601374e+00 1.1913112536859352e+01 -2 0 -1
932 2 1.4311181068245018e+00 1.2004151237279688e+00 1.5614711858189604e+01 -2 0 -1
334 1 7.4636292155797843e+00 8.6527248821595464e+00 5.3040034697848659e+00 -2 0 -1
213 2 9.1293502399915401e+00 4.4547283597486125e+00 5.4625623592321881e+00 -5 0 -2
962 2 1.3010658658712195e+00 -8.6795355236133176e-01 1.3953732606472258e+01 -3 0 -1
697 1 1.4902965304972478e+00 9.6809460937984895e+00 1.7070632694822113e+01 2 0 3
338 2 -5.2644554562718504e+00 6.0438125808711547e+00 1.8171944591411663e+01 -1 0 -2
938 2 1.1457745026405163e+01 6.5024856931232087e+00 2.2462142940449152e+00 1 0 1
969 2 1.4294009035864885e+00 3.5149778374152163e+00 8.6924641233678024e+00 -1 0 1
545 2 4.3333778354459556e+00 1.0566903170374076e+00 1.3040163619800532e+01 2 0 1
386 2 1.5727522040013554e+01 3.4747678577617460e+00 1.4715868317035921e+00 -1 0 -2
937 1 1.2338165001544855e+01 6.1992457675508321e+00 2.1699918149653614e+00 1 0 2
40 1 4.3967573500382091e+00 4.0053090627594772e+00 8.3501662072498206e+00 -2 0 3
786 2 8.1145414908468649e-01 2.1276034941598163e+00 2.2334828520347467e+00 -3 0 -2
235 1 6.8949494032024372e-01 1.0238035601664224e+01 5.2697009196873923e+00 -1 0 1
724 1 1.3530389233538475e+01 -3.3637369757332358e-01 8.5041777620638221e+00 1 0 1
784 1 5.4608605578203062e-01 1.1806354018854721e+00 2.2267048048408142e+00 -3 0 -2
967 1 2.1352354486568790e+00 2.7942858264900519e+00 8.5245366215019978e+00 -1 0 1
553 1 9.8400959468533635e+00 3.6265822294737236e+00 1.5636647400222140e+01 -5 0 -2
681 2 6.7548357781125397e+00 4.4111221365831295e+00 1.6656541679286249e+01 -3 0 -3
649 1 7.7383696413395393e+00 1.3113762942324154e+00 5.6790323021908069e+00 -4 0 0
650 2 6.8160975923859120e+00 1.3005124918543882e+00 6.0358377026795695e+00 -4 0 0
51 2 8.6288667806740023e+00 3.8416490241961476e+00 8.3823267522543397e+00 -1 0 0
36 2 1.3985355652381809e+01 1.0480605519139785e-01 4.9585315647852726e+00 -2 0 0
945 2 4.7154198713865014e-01 5.3265277530816579e-01 6.4099557446511763e+00 0 0 3
77 2 3.7102585526666747e+00 9.9266295155110171e+00 8.8959204747581921e+00 -2 0 -3
939 2 1.2968224976183912e+01 6.8374193410670525e+00 2.6148944688508298e+00 1 0 1
397 1 -6.0230551903053797e+00 7.2983991294960138e+00 1.8951690431026474e+01 3 0 -1
127 1 9.1100782989689790e+00 6.5393991681224541e+00 2.1236703022596166e+00 -2 0 -1
128 2 9.1557322515673363e+00 7.5264676157328338e+00 2.2094293580152109e+00 -2 0 -1
1407 2 1.1003370746608560e+01 7.0059636061072670e+00 1.8789510518400593e+01 2 0 -1
34 1 1.4913214749730582e+01 -1.0205012507042377e-01 4.9701836981822849e+00 -2 0 0
928 1 1.5788549275994024e+01 4.2714010441575034e-01 2.6821164060647606e+00 0 0 0
777 2 2.3140587913369099e+00 4.3765290491995597e+00 1.8890090543029025e+01 -2 0 1
152 2 7.1795425344277950e+00 7.7446076391652330e-01 2.7831037650153947e+00 3 0 0
439 1 9.5195656527577999e-01 4.3870972690561416e+00 1.4512831357656044e+01 -2 0 -2
350 2 7.0862073982483880e+00 1.5826065294660245e+00 1.8509310157691363e+01 2 0 3
1582 1 1.1808524433167076e+01 9.9318085667721121e+00 1.1447941877400517e+01 0 0 0
176 2 4.6722824867438106e+00 -9.0746186980766952e-01 1.3840045933045205e+01 -5 0 1
783 2 -5.8886900592444835e-01 3.8615393192294505e+00 3.0023435569928503e+00 -2 0 -2
829 1 2.8477421766657054e+00 1.0289430393781899e+01 1.2720766005389921e+00 -3 0 0
994 1 8.5719399237318434e+00 8.9841334874031826e+00 1.2487841012747182e+01 3 0 1
725 2 1.2892382433068100e+01 -4.6042599911399118e-01 7.7742666549669526e+00 1 0 1
229 1 2.7154814843617396e+00 -1.6000371348357636e+00 6.3524674333159012e+00 0 0 -2
129 2 8.2516169860452671e+00 6.3782861300109222e+00 2.5593734964452981e+00 -2 0 -1
926 2 -3.5708376391451075e+00 -3.9324957233462765e-01 1.2631544662857118e+01 2 0 2
173 2 1.0366347423444669e+01 2.2767715501479056e+00 1.2778272342271059e+01 -1 0 -2
805 1 1.0536478906316628e+01 9.7291326655675370e+00 7.6575428997196884e+00 -4 0 1
516 2 1.6399123426940223e+00 6.4951232486289427e+00 7.5438674309575777e+00 0 0 -1
589 1 4.4860947113211873e+00 5.7388962597850934e+00 1.2296359501397321e+01 -4 0 -1
462 2 1.0328857237811166e+01 5.0127653322928980e+00 9.1931113275008105e+00 -4 0 -2
651 2 7.7329626327503682e+00 1.3542324126329173e+00 4.6588217527175262e+00 -5 0 0
529 1 9.7441207653057447e+00 -1.4287483267150760e+00 2.8932814736514540e+00 -1 0 0
611 2 1.3164729545613877e+01 2.6833818008314978e+00 1.2449300533240933e+01 -1 0 2
26 2 -2.3747792782215509e+00 8.9886269431400301e+00 1.4150631687538706e+01 -2 0 -4
953 2 1.3491800421130122e+01 8.0503523283133056e+00 4.4947734820601584e+00 -1 0 1
843 2 -1.0937462264802189e-01 -8.3857568186164366e-01 1.5841706582772284e+01 -5 0 -5
102 2 -2.6010353532131818e+00 5.4593651390414353e+00 1.0275916406521819e+01 -1 0 -1
497 2 2.5917000244342039e+00 6.7593407481819989e-01 6.5917031120141303e+00 0 0 1
498 2 1.8565922807141795e+00 1.8194549330238594e+00 7.3365388296989300e+00 0 0 1
395 2 6.4710929906775956e+00 5.4803457466424446e+00 4.2439917769009678e+00 -3 0 -3
245 2 -3.0333670278917584e+00 8.7469293290591779e+00 1.1769118128330792e+01 -3 0 -4
349 1 7.8683167391996163e+00 1.1803079647829415e+00 1.8029306907531943e+01 2 0 3
679 1 7.1168694483433539e+00 3.8919692166479232e+00 1.5843240712162128e+01 -3 0 -3
398 2 -5.8261396094395268e+00 8.1349517388272616e+00 1.8515165897260339e+01 3 0 -1
668 2 3.5614062126965198e+00 9.1581040580956437e+00 1.3014565253897356e+01 -3 0 -3
925 1 -3.3765797492891467e+00 -1.2054123006975015e-01 1.3523937425264467e+01 2 0 2
321 2 1.0938882976098160e+01 3.0801114353165016e-02 1.3971547316336013e+01 -4 0 -3
943 1 -4.2896701824789285e-01 1.2168947412467745e-01 6.2266655717608588e+00 0 0 3
164 2 3.0707364894621398e+00 6.4507587744064487e+00 9.0048584982765973e+00 2 0 1
527 2 4.8271308886393953e+00 -4.7311733999553551e-01 5.4558962428956885e+00 -2 0 0
220 1 1.6178483209839793e+00 7.6604037815220316e+00 1.5314640711977612e+01 -2 0 -3
172 1 9.7758864946381507e+00 3.0744505507842295e+00 1.2809702477412507e+01 -1 0 -2
298 1 1.1284547725040444e+01 1.7498345692061621e+00 1.7535289866491560e+01 -3 0 -2
680 2 6.6770932775616130e+00 3.0111774591785787e+00 1.5889209419496273e+01 -3 0 -3
685 1 2.3968075981525319e+00 -1.0511216743761200e+00 9.2749963264769875e+00 -3 0 1
291 2 3.3492399031071276e+00 9.4726257110438947e+00 2.8937133924364504e+00 0 0 3
944 2 -9.6670805200577226e-01 8.9906542892809460e-01 5.8499701889188422e+00 0 0 3
100 1 -1.9776190610533346e+00 5.8819107353228990e+00 9.6341907153399866e+00 -1 0 -1
1667 2 7.5532400514668252e+00 4.8606214356186657e+00 1.1877093464692971e+01 -1 1 -2
352 1 8.6617396572503047e+00 9.1563072547534201e+00 9.5948633446017109e+00 -1 0 0
174 2 9.9732575200959346e+00 3.4058918351047813e+00 1.3703366409098731e+01 -1 0 -2
919 1 9.9593002253012646e+00 -4.4432369742292699e-01 1.0458279691100564e+01 0 0 -2
465 2 3.2186025025216640e+00 3.6715794834308122e+00 4.3582349941017311e+00 2 0 0
84 2 1.4045314438272362e+01 7.6780217155631441e+00 6.5532269224349999e+00 -1 0 -3
460 1 1.0976722982025786e+01 5.7335433703709109e+00 9.2755284340383959e+00 -4 0 -2
607 1 5.6209023314123270e+00 5.0354304458569255e-01 2.5831314687351044e+00 -3 0 0
503 2 4.0051532469480779e+00 -9.8604218848402647e-01 9.4364472369724535e+00 0 0 0
548 2 5.2795907855022302e+00 8.1929041823549937e+00 1.7034205294632120e+01 -3 0 -4
76 1 3.9516961042627594e+00 9.2240370165008230e+00 9.5486690297590506e+00 -2 0 -3
595 1 8.5185582751135414e-01 6.5803447245597440e+00 2.4437246709708482e+00 3 0 -2
528 2 5.4028235441920414e+00 -3.9973505895602224e-01 3.9904288151638481e+00 -2 0 -1
109 1 3.0711650816976075e+00 1.3219298235345280e+00 1.8360841550214463e+01 1 0 -4
615 2 -6.8744818616700787e-01 5.0006835226483481e-01 1.8610148063737995e+01 -2 0 -1
616 1 3.0616481712048853e+00 8.8142789306253029e+00 5.8983736861270435e+00 -2 0 -1
461 2 1.1003923574852479e+01 6.2682437155004367e+00 8.4530213901132250e+00 -4 0 -2
599 2 -1.8845551710434705e+00 7.4749095717906684e+00 1.0545291057892381e+01 -3 0 1
408 2 1.9834247002816108e+00 1.9196523311139431e+00 9.8265101154812271e+00 -2 0 -2
20 2 9.5147122585023975e+00 6.5060928967788598e+00 4.6991655445858704e+00 -3 0 -3
182 2 1.2173325422083353e+01 4.1204192840888094e+00 6.5250672068318609e+00 -1 0 0
35 2 1.5303944537913193e+01 8.8457225368593573e-02 4.1200320256319607e+00 -2 0 0
163 1 4.0078498426730755e+00 6.4009233175539162e+00 9.3448216350319644e+00 2 0 0
289 1 3.8199752924531003e+00 8.9631207589905308e+00 3.5274899438193974e+00 0 0 3
475 1 6.0033570336996807e+00 2.6659359731479135e+00 9.9092458166897064e+00 -1 0 2
68 2 8.2366667404568652e+00 6.5744684704911212e+00 1.5166039945125577e+01 -4 0 -3
526 1 5.1466283844166298e+00 -1.0435737719094957e+00 4.6995128646285336e+00 -2 0 0
133 1 1.5695931489431539e+01 2.4074164281763712e+00 5.9660249082688930e+00 0 0 -1
610 1 1.3157777981032512e+01 1.9863384776860462e+00 1.1804121651416015e+01 -1 0 2
344 2 1.1939125169999329e+01 -1.1620590130952038e+00 1.5666442282422411e+01 -2 0 1
82 1 1.3383529206865031e+01 8.3253394481408414e+00 6.1392365873121220e+00 -1 0 -2
300 2 1.0901461831080518e+01 9.7065861986234747e-01 1.8000439705198470e+01 -3 0 -2
981 2 1.1115439285650442e+01 6.6279836056441788e+00 1.2478926864107294e+01 -2 0 0
782 2 4.8293945640069480e-01 4.7706358672140929e+00 2.5223981857284734e+00 -2 0 -2
690 2 1.3413944405528695e+00 3.5005976510588797e+00 4.3776007619857689e+00 -2 0 0
561 2 8.4797260934847785e+00 2.5440394501589947e-01 6.7012695859529439e+00 -2 0 1
290 2 4.7378802466760748e+00 8.9748949252205463e+00 3.2575851028145739e+00 0 0 3
113 2 6.6593793666458261e+00 2.3984288747403841e+00 1.3164271110282238e+01 -2 0 -1
277 1 6.2996183882674970e+00 7.9028887070687226e+00 1.2348042277759872e+01 -4 0 -1
709 1 5.5563030080610698e-01 9.5912132654078217e+00 1.3751441802665989e+01 -3 0 -2
150 2 1.4501378570847475e+01 9.5678124999864966e+00 1.1791108171148317e+00 -4 0 0
458 2 6.5260210548966291e-01 -8.7156589141637697e-01 3.3504211073111141e+00 -2 0 -2
67 1 8.4465996683474351e+00 7.1672027226682502e+00 1.5943265071338995e+01 -4 0 -3
216 2 3.6070667973010173e-01 1.0285431375885828e+01 3.4902371264818286e+00 0 0 -2
114 2 8.1868683459359666e+00 2.2450789279481689e+00 1.2911684393812878e+01 -2 0 -1
425 2 1.2878640808302604e+01 4.7545718548663034e+00 2.8488038030130363e+00 -2 0 1
544 1 3.9980134316277249e+00 1.0417644260237795e+00 1.3969906901239950e+01 2 0 1
442 1 9.4615572388647173e+00 9.5110592195581773e+00 2.3716962689075243e+00 3 0 2
1001 2 1.2250841212673661e+01 2.0416916838730730e+00 2.0823422963481226e+00 -1 0 1
496 1 1.8571443990982286e+00 1.2680865778172983e+00 6.5002048294640371e+00 0 0 1
1007 2 -1.6474970347550331e+00 8.3225346200531067e+00 5.7769372306382332e+00 -2 0 -2
337 1 -4.5863509827223314e+00 5.3995342624810760e+00 1.7833168411549359e+01 -1 0 -2
949 1 -3.2416232996792482e+00 -7.3823873436446608e-01 1.7162029588435530e+01 -1 0 1
875 2 1.0465867898412419e+01 1.0184004990542634e+01 1.4733811613706997e+01 -3 0 1
844 1 7.4375821782176406e+00 -1.0387380039433367e+00 1.2587848349812068e+01 1 0 1
583 1 -3.8273158916907630e+00 5.7573972189454148e+00 1.1413671816291203e+01 -4 0 -4
584 2 1.3284041528594717e+01 5.3553189690155039e+00 1.1746884104050741e+01 -5 0 -4
641 2 1.8864164686875249e+00 8.0349220044799754e+00 1.1689826699292892e+01 4 0 -1
110 2 2.6668949202845935e+00 1.9997046710471218e+00 1.8892091616258853e+01 1 0 -4
617 2 3.4485132019362239e+00 8.8622461141453535e+00 4.9923879846404740e+00 -2 0 -1
47 2 1.2102273294076081e+01 7.3781519301637282e+00 6.7591848941333179e+00 -3 0 0
207 2 3.6678537070525103e+00 1.2933140880602330e+00 1.1037289205410751e+01 3 0 0
808 1 7.9593850405118722e+00 3.7943679509652712e+00 6.7830331682163818e+00 -4 0 -1
1008 2 -7.8121695883352515e-01 9.5854065458202040e+00 5.9346447245910152e+00 -2 0 -2
577 1 1.2204649824018205e+01 2.3384034253882167e+00 2.6016191940229534e-03 0 0 1
19 1 9.7331357047893619e+00 7.4480155385416555e+00 4.9501782648298995e+00 -3 0 -3
1000 1 1.1641479269536539e+01 1.4869203171991865e+00 2.5884713725300674e+00 -1 0 1
294 2 -1.8387972720058388e+00 2.6627289373563627e+00 1.1347283543833830e+01 1 0 -3
895 1 1.5251042554100358e+01 9.6989293467032844e+00 2.7913876992480926e+00 -2 0 0
539 2 3.1770301676217025e+00 8.3090839373392900e-01 1.1406241553784195e+00 -4 0 -3
521 2 8.2607296969656279e+00 2.9635945413763065e-01 8.7515846979088607e+00 -5 0 -2
813 2 1.1420605535175916e+01 5.3227490826922699e+00 1.0761701386525298e+01 -2 0 -1
912 2 1.2023750880127771e+01 6.6202292375256677e-01 5.8666786806177704e+00 -2 0 1
618 2 2.4843102413370097e+00 8.0183254546741587e+00 5.8974278550316273e+00 -2 0 -1
992 2 1.3589170029685995e+01 -8.6453417905867302e-01 1.0139646829143382e+01 1 0 1
771 2 -2.5974542589503882e+00 6.3464332048040539e+00 8.0871791559410298e+00 1 0 -3
806 2 1.0071662757604978e+01 1.0171461892689351e+01 6.9221053276179303e+00 -4 0 1
809 2 7.2178596077771999e+00 4.2196021054052135e+00 6.3400545289967631e+00 -4 0 -1
866 2 6.3969843898202150e-01 6.8246968339377752e+00 1.6863676306115050e+01 -3 0 -1
94 1 1.5396865250799062e+01 4.9851637244175970e+00 5.0718126646168606e+00 -2 0 -1
225 2 -3.6648987850162760e+00 7.0095885216922103e+00 1.4933147870945312e+01 -2 0 -2
770 2 1.5239822988136167e+01 5.6722853953277310e+00 6.6288181487752347e+00 0 0 -3
123 2 5.0554312501792609e+00 4.0769359509886565e+00 1.2987026881714874e+01 -2 0 -1
440 2 1.7662112920142707e+00 4.4231819081800436e+00 1.5103188477319238e+01 -2 0 -2
383 2 6.1136039165672642e+00 5.7774805145502039e+00 1.8174569511069311e+01 -2 0 0
6 2 3.8485404789645621e+00 7.3227511144072857e+00 3.1038011322000729e+00 1 0 0
499 1 1.4545607418286842e+01 2.2207854558062743e+00 8.2687287485058647e+00 0 0 1
910 1 1.2517287438593124e+01 1.2768462409728869e+00 5.2075171696043920e+00 -2 0 1
546 2 3.1242996253841993e+00 6.1774608112570117e-01 1.3982481960831620e+01 2 0 1
889 1 1.1430725298975080e+01 -4.7107290250031109e-01 6.8388382902300870e+00 -1 0 0
655 1 1.1021855209133722e+01 9.8722565561290327e+00 4.5210863498603571e+00 -3 0 0
612 2 -3.8415567510361397e+00 1.9113721217120285e+00 1.1461193267401638e+01 0 0 1
388 1 1.1888402440114392e+01 -6.8749682776130094e-01 1.0854156400461767e+00 -1 0 0
121 1 5.2907724783828911e+00 3.3369828986217680e+00 1.3524206475742817e+01 -2 0 -1
911 2 1.2216614424642451e+01 2.2037993949838044e+00 5.4228262972229695e+00 -2 0 1
424 1 1.3389085072903624e+01 4.1141765541029445e+00 3.4331466676257114e+00 -2 0 1
811 1 1.1459917435348872e+01 5.1181813028801848e+00 1.1719197927037737e+01 -2 0 -1