LAMMPS data file via write_data, version 3 Mar 2020, timestep = 1000000

1008 atoms
2 atom types

1.9703165821071877e-01 1.8202523341779298e+01 xlo xhi
1.4987896268998213e-02 2.2555401103723568e+01 ylo yhi
2.1066596277991856e-01 1.9295050037216043e+01 zlo zhi
4.9443426132473219e-02 -6.6222694759949130e+00 -8.2207447516237653e-02 xy xz yz

Masses

1 16
2 2

Atoms # atomic

1 1 6.9191396941437473e+00 1.1545317892981448e+00 4.5995976829246858e+00 0 0 0
99 2 1.2990636595678112e+01 4.8632293260975077e+00 9.6186018607774901e+00 0 0 0
3 2 6.8947447842292569e+00 1.5802114589777982e+00 3.7163153116185281e+00 0 0 0
4 1 4.1794022500275059e+00 6.9656908905517134e-01 5.1517573772409389e+00 0 0 0
5 2 5.1716949770344307e+00 7.2532590326483803e-01 4.9803525869700023e+00 0 0 0
6 2 4.0725782444326644e+00 1.1445335068940470e+00 6.0027936597407274e+00 0 0 0
7 1 -5.4099991851034934e-01 6.4643822582868689e+00 4.9635413532270851e+00 0 0 0
8 2 -5.2424899126878799e-01 5.8797079188910297e+00 5.6885449587865535e+00 0 0 0
9 2 -1.1602774949350629e+00 7.1944389378347946e+00 5.1932165663782026e+00 0 0 0
10 1 2.3060633347491546e+00 6.4779577074840402e+00 4.4851040194109082e+00 0 0 0
11 2 1.4965894775648358e+00 6.7306400667083013e+00 4.9971249869792063e+00 0 0 0
12 2 2.8768913640603859e+00 7.2640130373078033e+00 4.7942014317108530e+00 0 0 0
668 2 1.2859469792854075e+01 1.8864440614476341e+00 9.1897297461266518e+00 0 0 0
14 2 5.3584365668140919e+00 5.0911687117784057e+00 8.7960842017790348e+00 0 0 0
19 1 7.8262809027179558e-01 2.8029008149521450e+00 4.8324176738316665e-01 0 0 0
22 1 7.5377313721184036e-01 2.8195586186518891e+00 9.7025879999041127e+00 0 0 0
586 1 -6.7608118820694996e-01 6.1298217054838871e+00 9.4331526819989087e+00 0 0 0
778 1 1.3166070795215150e+01 1.0412728677661717e+01 2.1576469880749050e-01 0 0 1
154 1 1.2432090548339486e+01 5.2718682563489183e-01 1.6717709902053959e+00 0 0 0
21 2 7.5106350063421634e-01 2.1994911231454122e+00 1.2776941922696190e+00 0 0 0
399 2 8.0134218754065678e+00 7.4541809602342246e-02 1.0662724692095584e+00 0 0 0
305 2 1.2163559734840016e+01 1.1031518947165216e+01 2.9606075913697447e+00 0 0 0
25 1 4.7788618745290989e+00 6.2530498113508193e+00 7.3041942066253540e+00 0 0 0
26 2 5.3391030672586091e+00 6.9490048595088041e+00 7.5997311813674466e+00 0 0 0
27 2 3.8795605165153164e+00 6.3807777705401714e+00 7.5151039461950413e+00 0 0 0
28 1 6.0360608799083533e+00 6.2415547516207397e+00 2.5659957165694403e+00 0 0 0
29 2 5.9208336592417332e+00 5.8480747044428441e+00 3.4551331864318962e+00 0 0 0
30 2 5.3351085130736626e+00 6.9177703789502205e+00 2.4416562987982173e+00 0 0 0
31 1 1.1139875526080343e+00 1.1497019949496794e+00 2.7307544797902019e+00 0 0 0
32 2 1.9021260747675375e+00 7.0880169567376605e-01 2.4787335466112688e+00 0 0 0
33 2 1.1920766585223355e+00 1.5887472186072220e+00 3.6206140352433942e+00 0 0 0
34 1 4.6879850201660389e-01 1.3350916919680222e+00 7.3835110049552002e+00 0 0 0
35 2 -4.3692536152648698e-01 9.8779371004730909e-01 7.3677400102527804e+00 0 0 0
36 2 4.1236685981614274e-01 1.9986156999438072e+00 8.1081208412594457e+00 0 0 0
37 1 6.5392281121747589e+00 2.6058210519641767e+00 2.3633337077234358e+00 0 0 0
38 2 5.7037710445121155e+00 3.0723299673452118e+00 2.5169381878330395e+00 0 0 0
39 2 7.2598821707051115e+00 3.1671855759868142e+00 2.5800375944789211e+00 0 0 0
40 1 4.1894017744380161e+00 2.5904183737873319e+00 7.3307459710341956e+00 0 0 0
41 2 5.1102748544559411e+00 2.7595960979479104e+00 7.0402108477562733e+00 0 0 0
42 2 3.6235215951804998e+00 3.3137571828959018e+00 6.9976095740233664e+00 0 0 0
43 1 -2.9808130180006898e-01 4.5746900162806350e+00 7.2274597189544760e+00 0 0 0
44 2 -1.1573681084382952e+00 4.0521234292632693e+00 7.1720756878728702e+00 0 0 0
45 2 -4.8842049810641219e-01 5.1389658423608022e+00 8.0583936499843265e+00 0 0 0
46 1 1.8811740148833156e+00 4.9856263424112921e+00 2.4014853271094174e+00 0 0 0
47 2 1.0790897047139660e+00 4.5413249202721397e+00 2.5598725938213054e+00 0 0 0
48 2 2.0863438903072389e+00 5.5173954239696794e+00 3.1712886714421100e+00 0 0 0
49 1 6.6228986131592080e+00 3.1602740012903130e+00 6.4418499873989985e+00 0 0 0
50 2 6.4666094222824491e+00 3.9182901673036472e+00 5.8703724852319921e+00 0 0 0
51 2 6.9482733792783939e+00 2.3916133714541767e+00 5.8639916474583469e+00 0 0 0
52 1 3.9025632218243569e+00 3.0987628134921872e+00 3.6156163548436346e+00 0 0 0
53 2 3.1654339090880033e+00 3.1268759413177523e+00 3.0065228839939473e+00 0 0 0
54 2 4.1184975998855586e+00 2.1910513973000336e+00 3.8610162344081602e+00 0 0 0
55 1 -7.6717363846068287e-01 4.1127020099160294e+00 3.2173576966377002e+00 0 0 0
56 2 -8.6899378507451153e-01 4.9580027878323376e+00 3.6954896289478407e+00 0 0 0
57 2 -3.2558536657713388e-01 3.4905247084250961e+00 3.8616753233974568e+00 0 0 0
58 1 2.3267877935046259e+00 4.0738822378439359e+00 6.3835564101435338e+00 0 0 0
59 2 2.3517462600379151e+00 5.0039671808372574e+00 5.9874754041911364e+00 0 0 0
60 2 1.5298159935970204e+00 4.2116018858078750e+00 6.9462777808053309e+00 0 0 0
61 1 8.8440167121804087e+00 7.0107984081947459e+00 1.9383547890493857e+00 0 0 0
62 2 8.1283411443676989e+00 6.9439649084901429e+00 2.5693257737458741e+00 0 0 0
63 2 8.7659744836536131e+00 6.1464664201689105e+00 1.4168007222225303e+00 0 0 0
64 1 2.2570702153952724e+00 7.2744971379268240e+00 8.5480525548918038e+00 0 0 0
65 2 1.3606674145481255e+00 7.6310876871946069e+00 8.3606871107978655e+00 0 0 0
66 2 2.8183747639393699e+00 8.0211462865958421e+00 8.9337308718721662e+00 0 0 0
486 2 1.1256301659203642e+01 1.5290507593927913e-01 8.9307408934964450e+00 0 0 0
68 2 -2.5058529992127347e+00 1.2969926850105660e+00 8.2256442966687580e+00 0 0 0
156 2 1.1677628145162972e+01 8.1335820917190116e-01 2.2128635768050691e+00 0 0 0
72 2 3.9323726231403895e+00 1.2747173855861540e+00 1.5062713208640590e+00 0 0 0
73 1 5.4972439746317185e+00 4.9799638172110043e+00 4.8376728270724829e+00 0 0 0
74 2 5.0671340129690758e+00 5.4498774140037325e+00 5.6080235411713080e+00 0 0 0
75 2 4.6750846381235309e+00 4.5258468322249366e+00 4.4781654512611784e+00 0 0 0
76 1 9.8707665201975758e-01 2.4570340643498962e+00 4.9606198633711953e+00 0 0 0
77 2 6.4972545183284458e-01 2.0644212919411364e+00 5.8052994930656094e+00 0 0 0
78 2 1.6895917378731597e+00 3.0575629898463665e+00 5.2444409569002763e+00 0 0 0
83 2 2.1353890447571389e+00 5.5150049850630696e+00 7.8240095555668177e-01 0 0 0
189 2 2.1509482022780286e+00 1.0569439705650797e+01 4.1451774729507651e-01 0 0 0
248 2 7.9850337339747277e+00 8.0630535243316022e+00 5.4865044515604344e-01 0 0 0
85 1 1.5546682608934955e+01 1.1165353290243596e+00 4.8410616755605229e+00 0 0 0
87 2 1.5542009354118914e+01 1.4522453023198880e+00 3.9010586898411113e+00 0 0 0
88 1 1.2604912096989445e+01 1.2113713323663224e+00 5.0544799258290753e+00 0 0 0
89 2 1.2584894615130725e+01 2.0829175586680519e+00 4.5803819893596724e+00 0 0 0
90 2 1.3544393419352517e+01 1.0391423695361495e+00 5.0826012120311850e+00 0 0 0
91 1 8.5559068486202126e+00 6.3948430781323058e+00 4.8335409454906433e+00 0 0 0
92 2 8.4402810063146507e+00 5.6950734842228492e+00 4.1513878051858164e+00 0 0 0
93 2 9.4830619756311627e+00 6.8618939951883924e+00 4.7428413183848042e+00 0 0 0
94 1 1.1293639837631117e+01 6.5222584486522894e+00 4.4154254484033117e+00 0 0 0
95 2 1.1743526032026255e+01 7.3458404700661406e+00 4.6533342672943654e+00 0 0 0
96 2 1.1446329529187208e+01 5.7608829374624113e+00 4.9774186110687557e+00 0 0 0
218 2 7.1521575284955921e+00 1.0845682536329042e+01 7.2568900770875446e+00 0 0 0
301 1 1.5695294102694529e+01 1.0856260685104308e+01 6.4347566891454315e+00 0 0 0
836 2 1.3172652330111111e+01 9.5912293265763324e+00 9.1546030279736783e+00 0 0 0
101 2 1.4373598860677307e+01 5.2985171094740684e+00 9.9282356996399079e-01 0 0 0
133 1 1.5475168484930062e+01 3.3994723354141581e+00 6.5320417483914248e+00 0 0 0
302 2 1.4930269638815187e+01 1.0516284519685492e+01 7.0218366527594203e+00 0 0 0
13 1 5.2518843662385750e+00 4.8260301898440510e+00 9.7025344986111133e+00 0 0 0
521 2 2.1175091890408639e+00 5.8689582659593329e+00 9.4040374687471679e+00 0 0 0
109 1 1.3838610440815469e+01 6.8419559892966291e+00 7.3171948661220076e+00 0 0 0
110 2 1.3917372646177984e+01 6.0609351932031261e+00 7.8288450075094538e+00 0 0 0
111 2 1.2926340318654237e+01 7.0623212035283123e+00 7.3537759621815590e+00 0 0 0
112 1 1.4808095745984025e+01 6.2466944295059958e+00 2.6645434814579589e+00 0 0 0
113 2 1.4298371791571361e+01 7.1117666182080157e+00 2.5186013214107650e+00 0 0 0
114 2 1.5718290088645542e+01 6.5622503833348995e+00 2.4645150465198729e+00 0 0 0
115 1 1.0188932576585014e+01 1.4095632100734883e+00 2.7677491233694895e+00 0 0 0
116 2 1.0044003113628623e+01 2.0742826809715571e+00 2.0490797262899942e+00 0 0 0
103 1 1.0263190111482807e+01 3.0226354401680120e+00 5.2754787636618339e-01 0 0 0
118 1 8.9053237174370476e+00 1.2060718639218488e+00 7.1516871604334833e+00 0 0 0
119 2 9.3294766441943757e+00 1.8911558815869483e+00 7.7095940272924626e+00 0 0 0
120 2 9.1414065643425317e+00 1.4431742835589150e+00 6.2261028854055942e+00 0 0 0
121 1 1.5169521422713339e+01 2.6203479787582320e+00 2.6096811666433086e+00 0 0 0
122 2 1.5862026952744149e+01 3.2475526670979327e+00 2.7892921225487126e+00 0 0 0
123 2 1.5294619262563280e+01 2.1197383330014610e+00 1.7688275237241433e+00 0 0 0
124 1 1.3002935436321602e+01 2.6010086300909960e+00 7.3699731609757109e+00 0 0 0
125 2 1.3910288178428861e+01 2.9409525354268355e+00 7.2486107485113953e+00 0 0 0
126 2 1.2676368800732531e+01 2.0777218304501015e+00 6.6279526299423157e+00 0 0 0
127 1 8.6808018218084229e+00 4.9714997461082628e+00 7.4251905998652736e+00 0 0 0
128 2 8.0650415491160903e+00 4.2224751323787517e+00 7.1825119364826282e+00 0 0 0
129 2 8.6302056986653231e+00 5.5673010297193333e+00 6.6583324084282003e+00 0 0 0
130 1 1.1068383020597867e+01 5.0738126993712269e+00 2.1389712153897666e+00 0 0 0
131 2 1.1841033381787334e+01 4.5438925257185367e+00 2.4247249290913624e+00 0 0 0
132 2 1.1073528847894863e+01 5.7555294807026343e+00 2.8937032456770599e+00 0 0 0
134 2 1.5156702379520990e+01 4.1508784735641608e+00 5.9448756281038415e+00 0 0 0
136 1 1.2907064728738975e+01 3.5524125622140947e+00 3.4817144575375796e+00 0 0 0
137 2 1.3235396022924235e+01 4.2717566794059270e+00 4.0064907041297566e+00 0 0 0
138 2 1.3730306770156359e+01 3.3076613620070674e+00 3.0260337764435818e+00 0 0 0
139 1 8.5205596740492737e+00 4.2823940899428674e+00 3.2679869772919936e+00 0 0 0
140 2 9.2381950537639472e+00 4.4295039404446488e+00 2.5850404958201483e+00 0 0 0
141 2 9.0246364828280523e+00 3.7036504139066575e+00 3.9126991461390266e+00 0 0 0
142 1 1.1315874800589967e+01 4.5406747372867731e+00 6.3953602918536960e+00 0 0 0
143 2 1.1977830035776833e+01 3.9720017616269740e+00 6.7717426466105541e+00 0 0 0
144 2 1.0534177664078596e+01 4.4542180971037713e+00 6.9848344940713440e+00 0 0 0
147 2 1.7189478922373453e+01 7.8000486221251384e+00 1.1503279804619782e+00 0 0 0
148 1 1.1166289652627896e+01 7.3013414457892560e+00 8.1451336384670228e+00 0 0 0
149 2 1.1113816810989709e+01 6.4513129335076140e+00 8.6229130628605013e+00 0 0 0
150 2 1.1704478844637752e+01 7.8946766148503595e+00 8.7822110879360142e+00 0 0 0
584 2 2.9822777681335566e+00 6.8861861590384721e-01 9.2623939273542533e+00 0 0 0
306 2 1.3650787887301529e+01 1.0390339679032794e+01 3.0129514803544075e+00 0 0 0
153 2 6.5262057455725939e+00 1.0444536295584630e+00 9.0975056592937928e+00 0 0 0
97 1 1.3988808649780804e+01 5.0130744494538826e+00 9.6070082247683111e+00 0 0 0
155 2 1.2697573470151820e+01 1.3921297153126531e+00 1.2621830417079758e+00 0 0 0
753 2 4.1791033049570370e+00 9.6842431600452485e+00 9.1808790596054184e+00 0 0 0
157 1 1.4273417328824628e+01 5.2007674315416077e+00 5.2145358663624197e+00 0 0 0
158 2 1.4664529951411758e+01 5.7483758976908517e+00 4.4461987985270177e+00 0 0 0
159 2 1.4109116733425013e+01 5.8477526454990167e+00 5.9805174394438376e+00 0 0 0
160 1 9.7691670039749852e+00 2.7668709419254123e+00 4.9528982848813605e+00 0 0 0
161 2 1.0440700250134958e+01 3.2921246928494003e+00 5.4009480353188914e+00 0 0 0
162 2 1.0208601416139667e+01 2.1808295685273813e+00 4.2878404364777341e+00 0 0 0
311 2 1.0955910373152244e+01 1.1202620074827985e+01 5.9363562740373617e+00 0 0 0
221 2 4.8634573705993303e+00 1.0540057994989617e+01 3.0747615247499560e+00 0 0 0
169 1 6.6536030338263332e+00 8.5006286912693358e+00 5.0054723009083490e+00 0 0 0
170 2 7.2641830548835165e+00 7.7353359521499128e+00 5.1147909347816451e+00 0 0 0
171 2 6.8257193904090991e+00 9.2858604717168074e+00 5.5412808277652461e+00 0 0 0
172 1 3.9235233536638976e+00 8.6709539529095618e+00 5.2807012839641949e+00 0 0 0
173 2 3.6803285955036911e+00 9.2812875436501816e+00 4.6147890890253116e+00 0 0 0
174 2 4.8706149417931570e+00 8.4806466303047259e+00 5.0935695293982048e+00 0 0 0
780 2 1.3455275567768565e+01 9.5720928388995450e+00 6.2129334442140649e-01 0 0 0
80 2 6.6836860990652092e+00 1.9209619999817380e+00 8.6459686398886049e-01 0 0 0
18 2 5.7987630225285365e+00 5.2202184171654968e+00 1.1558774631705580e+00 0 0 0
192 2 4.2279221816281432e-01 9.9206117608047641e+00 9.0498022146167241e+00 0 0 0
199 1 1.4325520960620421e+00 8.9363956978211903e+00 2.5856498789920890e+00 0 0 0
200 2 1.2113055364264946e+00 9.5950292767323440e+00 1.9144770294696327e+00 0 0 0
201 2 7.8727094340209414e-01 8.2155299414023411e+00 2.4509521097551956e+00 0 0 0
202 1 5.8418679014787145e-02 8.9093606074435492e+00 7.5179054366886806e+00 0 0 0
203 2 -8.5817429909635323e-01 8.6164293876887807e+00 7.5593959425067174e+00 0 0 0
204 2 1.7830173206165512e-01 9.2254306768542094e+00 6.5454574586821348e+00 0 0 0
205 1 6.4960602494844482e+00 1.0044135257492202e+01 2.6540695609165352e+00 0 0 0
206 2 6.6837299194460131e+00 9.3240695860853098e+00 3.2472257005823337e+00 0 0 0
207 2 6.7466816235222664e+00 9.6310495491032739e+00 1.8100073436787143e+00 0 0 0
208 1 4.0596307769387856e+00 1.0465893880558038e+01 7.6249880881467931e+00 0 0 0
2 2 7.4314848994600080e+00 3.3095651941597237e-01 4.5622595132415160e+00 0 0 0
210 2 3.9156471009989340e+00 9.7758569978105818e+00 6.9788311736231607e+00 0 0 0
331 1 1.6337005361465085e+01 8.8083196329078177e+00 2.6256751345830726e-01 0 0 0
209 2 3.3917060211520975e+00 1.1123234159619731e+01 7.2346745497743408e+00 0 0 0
16 1 5.8163157974433988e+00 4.5880423102945977e+00 3.4802118811462973e-01 0 0 0
70 1 3.9691366263364491e+00 3.6315698833490739e-01 1.7597786542286493e+00 0 0 0
671 2 8.3767645242201993e+00 5.7465659982453134e+00 8.9833499562356689e+00 0 0 0
235 1 -2.1906488909808481e+00 8.1913092221457848e+00 8.6413895352400729e+00 0 0 0
236 2 -2.3500256123137877e+00 8.9676213788002048e+00 9.2326043689931154e+00 0 0 0
238 1 3.7990379585511556e+00 7.8860705543857774e+00 1.6135351457633045e+00 0 0 0
239 2 3.0666862714210472e+00 8.2604177187697552e+00 2.1334783552685206e+00 0 0 0
240 2 3.9919864604292590e+00 8.5450113713769760e+00 9.3792635701978677e-01 0 0 0
244 1 6.8169404067924888e-01 9.8408598073580489e+00 5.1872633953890341e+00 0 0 0
245 2 1.0121317612811429e+00 9.2756625499037142e+00 4.4220595105457789e+00 0 0 0
246 2 1.4479258377005426e+00 1.0496840763868631e+01 5.5627574450195238e+00 0 0 0
145 1 1.7624835519285195e+01 7.1490234092524556e+00 1.8047187928719575e+00 0 0 0
20 2 1.7996538426673126e+01 3.3890286124267672e+00 5.4448360172422050e-01 -1 0 0
253 1 1.5758359336874824e+01 8.5985200216974995e+00 4.9912504692289241e+00 0 0 0
255 2 1.5777983606244819e+01 8.9442757773105335e+00 4.0645643659682298e+00 0 0 0
256 1 1.2853687255920971e+01 8.5369081510109837e+00 5.3439066995418809e+00 0 0 0
257 2 1.3793505091920728e+01 8.2683923049768975e+00 5.2488096314294452e+00 0 0 0
258 2 1.2762934549288754e+01 9.2495007432660028e+00 4.6813208315042978e+00 0 0 0
86 2 1.6195795802487069e+01 3.8834703321327868e-01 4.8923023404455455e+00 0 0 0
272 2 1.0357900326146316e+01 1.0025360771620669e+01 1.1897738242565046e+00 0 0 0
220 1 4.1160507256838947e+00 1.0997203618482395e+01 3.5433385129627171e+00 0 0 0
276 2 9.6649142990328549e+00 9.7496380478949316e+00 9.0563033058345983e+00 0 0 0
283 1 1.0474431713942446e+01 9.1810246342446860e+00 2.4910099867989395e+00 0 0 0
284 2 1.0388774367447329e+01 9.3123410707147833e+00 3.4238827045023541e+00 0 0 0
285 2 9.9537063313547769e+00 8.3803368796919031e+00 2.3386082296460144e+00 0 0 0
286 1 9.1393259234100679e+00 8.9913293560092775e+00 7.4200935949876472e+00 0 0 0
287 2 9.7898985687740936e+00 8.2337309345141083e+00 7.5409762001369076e+00 0 0 0
288 2 8.2437623748599389e+00 8.5485990085412222e+00 7.4640250281193170e+00 0 0 0
289 1 1.5467487981958630e+01 9.9503937517439489e+00 2.4675595783035003e+00 0 0 0
151 1 6.6509964075212142e+00 3.1670784412004421e-01 8.4595955769665689e+00 0 0 0
291 2 1.5935248618823714e+01 9.6565769382708844e+00 1.6545535665598112e+00 0 0 0
292 1 1.3430700571994825e+01 1.0150667493530296e+01 7.4565685925210881e+00 0 0 0
247 1 7.1663967070226962e+00 8.5450194307978133e+00 2.9273223561438366e-01 0 0 0
294 2 1.3213463669501897e+01 9.4584429776174161e+00 6.7273470730714608e+00 0 0 0
237 2 1.4949590730741111e+01 7.8086707321932716e+00 8.4083888677520520e+00 0 0 0
23 2 1.2979484274665345e+00 3.5973410392944580e+00 9.6711121320173348e+00 0 0 0
293 2 1.2847626070507950e+01 1.0852172742368801e+01 7.2094977338624071e+00 0 0 0
135 2 1.5681523930015834e+01 2.5369833140224980e+00 6.1610095474714761e+00 0 0 0
319 1 6.6859030390328584e+00 7.9783416626620021e+00 8.1802645327577199e+00 0 0 0
320 2 6.5049583157515762e+00 8.7761699715289776e+00 8.7097160543186956e+00 0 0 0
321 2 7.2204666888762015e+00 7.3987270412721067e+00 8.7842869392820582e+00 0 0 0
322 1 1.3023076811622810e+01 8.1202191371660177e+00 1.8871578486250018e+00 0 0 0
323 2 1.2247966053280118e+01 8.5258345668808779e+00 2.2763786511822475e+00 0 0 0
324 2 1.2621201027940828e+01 7.4771864982118945e+00 1.2735365621142696e+00 0 0 0
328 1 1.0186206790853353e+01 9.8597289630685960e+00 5.0878748142735715e+00 0 0 0
329 2 9.7898397050550887e+00 9.4637233163484282e+00 5.9074741074440702e+00 0 0 0
330 2 9.5057484008168949e+00 1.0445434836384857e+01 4.6299114771468890e+00 0 0 0
152 2 7.1842527111716130e+00 6.7777743385469280e-01 7.7501197010833192e+00 0 0 0
117 2 9.4884128513280093e+00 7.3683602674665416e-01 2.6231846696424825e+00 0 0 0
219 2 5.6423602472512195e+00 1.0581184513678968e+01 6.9725836945509334e+00 0 0 0
146 2 1.7581392727650268e+01 6.3463648161122901e+00 1.2811873269809013e+00 0 0 0
222 2 3.3298197518074728e+00 1.1178892078138734e+01 2.9774084274942196e+00 0 0 0
254 2 1.5909187597892249e+01 9.3907038967690752e+00 5.5716769482915200e+00 0 0 0
524 2 -2.4820681995543028e+00 3.6717599700868626e+00 9.3815972525358138e+00 0 0 0
167 2 1.1320994197341353e+01 5.8556838369749054e+00 7.5771601900149121e-01 0 0 0
15 2 4.2476076782265455e+00 4.7929319140097100e+00 9.6913058346623746e+00 0 0 0
290 2 1.5942095759249348e+01 1.0744613424711776e+01 2.7979319658170101e+00 0 0 0
304 1 1.2803206730933182e+01 1.0552771209918857e+01 3.5615044212315325e+00 0 0 0
84 2 3.0697955151174332e+00 6.6840531654498827e+00 5.9094644048169254e-01 0 0 0
224 2 -2.1386471389689199e-01 1.1167011808035181e+01 4.1572543110782565e+00 0 0 0
24 2 -8.8200668659535353e-02 3.1148388735305961e+00 9.3423369592059373e+00 0 0 0
585 2 3.9236452849686394e+00 1.7437166064246967e+00 8.9733393320516939e+00 0 0 0
165 2 1.6390329052313593e+01 6.2371512184576805e-01 7.0184980044609657e-01 0 0 0
67 1 -2.1354072131586199e+00 4.0199148226111842e-01 8.0009059758680650e+00 0 0 0
217 1 6.4870668255290660e+00 1.0727035235055753e+01 6.5597479037830606e+00 0 0 0
587 2 -1.3664738514323280e+00 6.7701226210027441e+00 9.2787593411972118e+00 0 0 0
528 2 2.6437558774254519e+00 2.9789088323563746e+00 4.6411597516627018e-01 0 0 0
526 1 3.5215139754379039e+00 2.5951982022898763e+00 3.2668312578723258e-01 0 0 1
106 1 9.5995490442045153e+00 2.5829100009657204e+00 9.6456612823488488e+00 0 0 0
523 1 -1.9137170471673537e+00 2.9164834862720559e+00 9.3758733533914409e+00 0 0 0
187 1 1.1837667946737664e+00 1.0586751378761587e+01 3.2145741576751102e-01 0 0 0
17 2 4.9659751532725256e+00 4.1733837232993860e+00 3.4474943104056588e-01 0 0 0
163 1 1.5725581175013360e+01 1.2897809544939467e+00 3.3417192521476136e-01 0 0 0
610 1 1.2857093784972541e+01 2.6500879089863827e+00 2.3028287415852192e-01 0 0 1
104 2 9.6298215497834949e+00 3.7996792039393625e+00 3.6420994850216193e-01 0 0 1
612 2 1.1982349094811527e+01 3.0770847376125436e+00 3.5372503018849555e-01 0 0 0
604 1 1.1245490781316533e+01 4.6693699249834451e+00 9.6503927942782504e+00 0 0 0
271 1 1.0281093522500155e+01 1.0330306112846973e+01 2.4690364274194654e-01 0 0 0
601 1 1.7237399372342200e+01 4.9689041936564982e+00 2.4359308991527884e-01 0 0 1
751 1 4.0084718592154998e+00 8.8745982443345781e+00 9.7486007968263912e+00 0 0 0
606 2 1.0640571028098751e+01 3.8925455630370465e+00 9.7275613094086495e+00 0 0 0
573 2 1.1375842048887419e+01 3.7084065790490972e-01 1.7794888806321431e+01 0 0 0
517 1 1.8278201674731935e+00 4.8170114667270232e+00 1.9146079433789360e+01 0 0 0
273 2 4.6031995229966789e+00 1.0372216552022788e+01 1.9179520072600248e+01 0 0 0
832 1 6.5891265273617616e+00 1.0305902115378093e+01 1.4543618419469508e+01 0 0 0
672 2 8.8493502508106729e+00 6.5023838251580095e+00 1.0288276033291281e+01 0 0 0
659 2 1.0131896593483560e+01 -1.1481812115061586e-02 1.1715056419689921e+01 0 1 0
776 2 7.9675553290361236e+00 1.0452075060484582e+01 9.8436405362905592e+00 0 0 0
749 2 -1.8723127804103705e+00 1.0684431756602580e+01 1.4865403216716862e+01 0 0 0
164 2 8.3668555204119102e+00 7.7269194011210129e-01 1.8964164295043894e+01 0 0 0
837 2 1.2393223146555915e+01 9.3572270658001528e+00 1.0512431555276569e+01 0 0 0
794 2 1.2770800308870609e+01 1.0629837500309721e+01 1.2387745638435787e+01 0 0 0
692 2 -2.7036034353832612e+00 1.1227013003216705e+01 9.8448967957977178e+00 0 0 0
191 2 6.5374792778528823e-01 9.6101718394773847e+00 1.0563720645048413e+01 0 0 0
723 2 3.9787890834306712e+00 1.1127174348232273e+01 1.6547041780364722e+01 0 0 0
691 1 -2.1889604452265750e+00 1.0424579165637713e+01 1.0111074939850518e+01 0 0 0
520 1 2.3731710579903278e+00 4.9868980003967378e+00 9.8701482625749506e+00 0 0 0
815 2 8.6029248762293911e+00 1.1053820056802481e+01 1.6583940691556379e+01 0 0 0
333 2 8.9578346350779405e+00 8.1481618196764174e+00 1.8992259026294775e+01 0 0 0
505 1 3.1859925471868662e+00 9.1864010725301526e-01 1.4357557468141296e+01 0 0 0
506 2 3.3491454977500075e+00 1.7466787911296187e+00 1.4842358075944235e+01 0 0 0
775 1 7.0225258734480702e+00 1.0186346721270533e+01 9.8151898690709825e+00 0 0 0
508 1 3.7408263470422209e-01 1.2731554268576046e+00 1.4231673810789799e+01 0 0 0
752 2 3.4855654806783178e+00 9.2983937761926292e+00 1.0522598967125797e+01 0 0 0
694 1 -2.7275544751255545e+00 1.0031021052105006e+01 1.9134482225682177e+01 0 0 0
511 1 -3.8375873841004484e+00 6.5257062529485328e+00 1.4241475382224387e+01 0 0 0
512 2 -3.8809809172352283e+00 5.7177992035134002e+00 1.3675263771956983e+01 0 0 0
513 2 -3.7717520097511184e+00 6.1596079963083827e+00 1.5151164443709286e+01 0 0 0
514 1 -1.0900557375068267e+00 6.4968924068805478e+00 1.3847566966272181e+01 0 0 0
515 2 -8.1496956284845679e-01 5.7970286370323958e+00 1.4490468097321564e+01 0 0 0
516 2 -2.0560716380428783e+00 6.6000316626963640e+00 1.4129294183742140e+01 0 0 0
809 2 1.0570064761091157e+01 1.0558745536791260e+01 1.2661984205375200e+01 0 0 0
519 2 1.9133090031345885e+00 5.3415453578475427e+00 1.8310123175168691e+01 0 0 0
805 1 1.2485667593320336e+01 1.1008860510344308e+01 1.5951032475220771e+01 0 0 0
522 2 2.5230050982200680e+00 5.1046257601944527e+00 1.0824445806586230e+01 0 0 0
828 2 9.1537886525898013e+00 8.1116840785732318e+00 1.1940534186625777e+01 0 0 0
588 2 -1.0010443966874973e+00 5.4722363103140932e+00 1.0086293646044652e+01 0 0 0
525 2 -1.9417818217763534e+00 2.5606063146429037e+00 1.0295012523543468e+01 0 0 0
808 1 9.7753523856409892e+00 1.0553885537977543e+01 1.3256039146647979e+01 0 0 0
527 2 -3.1701237033117624e+00 2.0438087178647706e+00 1.8546544003900962e+01 0 0 0
529 1 1.6767307320112703e+00 6.4601907217502932e+00 1.6955827130540079e+01 0 0 0
530 2 1.9545798455001897e+00 6.0670900653149706e+00 1.6109414613817272e+01 0 0 0
531 2 6.9243762211378623e-01 6.6320651760567921e+00 1.6929459139156009e+01 0 0 0
532 1 2.7549295291497451e+00 6.2768273066497269e+00 1.2107799852425384e+01 0 0 0
533 2 3.5656799793815450e+00 6.7788560123764148e+00 1.2078435965398580e+01 0 0 0
534 2 2.5945007733051959e+00 6.0046199331694856e+00 1.3066911876558638e+01 0 0 0
535 1 -1.8845585883017657e+00 1.4536060188751496e+00 1.1783607999560372e+01 0 0 0
105 2 3.2862539296088462e+00 2.2408233748186288e+00 1.9012040865857898e+01 0 0 0
537 2 -9.4717359903190834e-01 1.2403366903560236e+00 1.1758455199525731e+01 0 0 0
538 1 -3.4496341817134604e+00 1.0231843373346687e+00 1.6725660443597789e+01 0 0 0
539 2 -4.3653622277027493e+00 9.0292138233243535e-01 1.6985843226612594e+01 0 0 0
540 2 -3.4182807911928892e+00 1.3858352002311112e+00 1.5837085204774839e+01 0 0 0
541 1 3.0817996029267576e+00 2.7112965682896197e+00 1.1975747296507963e+01 0 0 0
542 2 3.0683999013376999e+00 2.1001335944162456e+00 1.2742574360437887e+01 0 0 0
543 2 3.3290321937998271e+00 2.1848000699654060e+00 1.1178134648439380e+01 0 0 0
544 1 9.9045602245994413e-01 2.3276225196019928e+00 1.6651395856358903e+01 0 0 0
545 2 7.3669425273227329e-01 2.1294305144831682e+00 1.7607782762862684e+01 0 0 0
546 2 5.9457306792382614e-01 1.7196938110256457e+00 1.6031846701928551e+01 0 0 0
547 1 -3.5916144172949656e+00 5.1036870034823849e+00 1.6819047848686466e+01 0 0 0
548 2 -4.2148719897722220e+00 4.3423684847952631e+00 1.6794421170877079e+01 0 0 0
549 2 -3.8149914743304567e+00 5.4463928022428760e+00 1.7667344954493224e+01 0 0 0
550 1 -1.5983654756578569e+00 4.7244819068687436e+00 1.1606178377189520e+01 0 0 0
551 2 -7.7470593697437362e-01 4.2811790297659975e+00 1.1943154224735022e+01 0 0 0
552 2 -1.5873908838652784e+00 5.4467070852889403e+00 1.2306839173295549e+01 0 0 0
553 1 3.3660121064937112e+00 3.1145362745901948e+00 1.5919926528130611e+01 0 0 0
554 2 2.5348337438537341e+00 2.9674027899538240e+00 1.6415443117681683e+01 0 0 0
555 2 3.9137235440720533e+00 3.6625779227324009e+00 1.6510122089720049e+01 0 0 0
556 1 5.4225460241378087e-01 3.5881332126687706e+00 1.2815907648355877e+01 0 0 0
557 2 1.3044944840395853e+00 3.2323569398566780e+00 1.2365763067031866e+01 0 0 0
558 2 2.5703244196973873e-01 2.8620177049496300e+00 1.3427967950031290e+01 0 0 0
559 1 -3.9605947788340687e+00 4.3195095945898636e+00 1.2754681952965081e+01 0 0 0
560 2 -3.2282415046894446e+00 4.3894923224487643e+00 1.2103284857941199e+01 0 0 0
561 2 -3.6835799299525327e+00 3.5552956450541133e+00 1.3345276946173428e+01 0 0 0
562 1 -1.3794803623947636e+00 4.1621060403194790e+00 1.5539201278608644e+01 0 0 0
563 2 -7.8491637921507440e-01 3.6849144044477544e+00 1.6128810461462553e+01 0 0 0
564 2 -2.0265378526391151e+00 4.6400661160118020e+00 1.6042766484038800e+01 0 0 0
565 1 5.2647505665189707e+00 7.1068656498013381e+00 1.1351349888250967e+01 0 0 0
566 2 4.8701611516285155e+00 7.8277195142791225e+00 1.0762758360524190e+01 0 0 0
567 2 5.5987321788378352e+00 6.4043545966338273e+00 1.0747304079898887e+01 0 0 0
568 1 -9.1025084751400165e-01 7.1416417181583425e+00 1.7673887246482003e+01 0 0 0
569 2 -1.4430947964705494e+00 6.3656485474391236e+00 1.7900247849779483e+01 0 0 0
570 2 -3.8388702909273675e-01 7.4299439493656507e+00 1.8481305480159939e+01 0 0 0
571 1 -5.7891335270529929e+00 6.2195001439359887e-01 1.8226943730351572e+01 0 0 0
572 2 -5.8057166688717023e+00 1.5084361065562208e+00 1.8614618133283543e+01 0 0 0
807 2 1.2777962906967105e+01 1.0187083045603929e+01 1.5538377823566407e+01 0 0 0
670 1 8.0442388441444610e+00 6.2046351090395886e+00 9.8006415702686240e+00 0 0 0
576 2 9.9737509883540243e-01 1.2673773857619430e+00 1.0691381387529367e+01 0 0 0
577 1 1.9862338459915767e+00 4.9954368755677212e+00 1.4498598698246189e+01 0 0 0
578 2 1.3796867128487031e+00 4.4532459334964747e+00 1.3960432182551081e+01 0 0 0
579 2 2.5454376888840509e+00 4.3710898139336916e+00 1.4938500974742128e+01 0 0 0
580 1 -2.8529179575260990e+00 2.4394181544353790e+00 1.4154483500089924e+01 0 0 0
581 2 -2.4915101708522558e+00 1.9822133941053386e+00 1.3389835811782048e+01 0 0 0
582 2 -2.0459301313390643e+00 2.9802508728944646e+00 1.4537562295269515e+01 0 0 0
825 2 3.6316195170165653e+00 8.9794417881552935e+00 1.8333224561084968e+01 0 0 0
696 2 -2.1096690444099684e+00 1.0773053303669448e+01 1.9210000599682793e+01 0 0 0
589 1 1.2134172789366950e+01 7.5304998657015221e-01 1.4177979919192998e+01 0 0 0
590 2 1.1353228409243002e+01 2.8573032385617358e-01 1.4434089585923498e+01 0 0 0
591 2 1.2318052344113333e+01 1.3576381937217969e+00 1.4926822731488723e+01 0 0 0
592 1 9.2783959307635122e+00 9.4140273939988162e-01 1.5195919918688791e+01 0 0 0
98 2 1.4163979304926091e+01 5.6735246625782416e+00 1.0323978262459933e+01 0 0 0
594 2 9.1949773113579045e+00 1.5952745125385968e+00 1.4456565327025183e+01 0 0 0
595 1 5.3237832548253401e+00 6.6595914363380970e+00 1.4904122201487079e+01 0 0 0
596 2 5.2334620878830620e+00 6.1489686280764229e+00 1.5767681586977622e+01 0 0 0
597 2 5.2924895365168192e+00 5.9927873605903059e+00 1.4152419217881219e+01 0 0 0
598 1 8.0998904771619706e+00 6.2054882138912024e+00 1.4319865081088453e+01 0 0 0
599 2 7.3107420124234697e+00 6.8032609559109707e+00 1.4449984826728532e+01 0 0 0
600 2 7.9224654782264459e+00 5.7001714409704807e+00 1.3446818113595151e+01 0 0 0
823 1 3.8495312477052446e+00 8.1336247595834923e+00 1.7830953542529471e+01 0 0 0
603 2 1.0889489934301334e+01 5.4025769210313292e+00 1.8566414431752349e+01 0 0 0
827 2 1.0483192112651350e+01 7.2775223141540852e+00 1.1648043627889962e+01 0 0 0
605 2 1.1473935665527742e+01 4.9027848407233021e+00 1.0597246224493144e+01 0 0 0
510 2 1.2586616479154049e+00 8.9749368165264631e-01 1.4352117408226961e+01 0 0 0
574 1 7.2671685216715787e-01 5.3141159989950371e-01 1.1240715682171881e+01 0 0 0
168 2 4.6054516483276791e+00 7.0212350649414983e+00 1.8689421548357110e+01 0 0 0