LAMMPS data file via write_data, version 3 Mar 2020, timestep = 12750000

2016 atoms
2 atom types

0.0000000000000000e+00 1.7942716075181817e+01 xlo xhi
-2.1470792999772428e+00 4.7143239276897958e+01 ylo yhi
0.0000000000000000e+00 1.9082370664202283e+01 zlo zhi
4.5930695750183756e-02 -6.6588604432408225e+00 -2.2632266268409751e-02 xy xz yz

Masses

1 16
2 2

Atoms # atomic

1405 1 6.0210467461482526e+00 4.9712745390790580e+00 4.7809093813549977e+00 1 1 0
1636 1 1.3996474392536884e-01 8.2379845446156121e+00 1.1401619569373983e+01 1 0 0
389 2 1.2619059308246148e+00 5.7410489090588799e+00 8.3202836018408739e+00 -1 0 -2
1400 2 1.1476943962815508e+01 -4.7972976154683877e-02 8.8447112290143668e+00 0 1 0
1124 2 1.6726937446202911e+01 -6.0492469880687683e-01 6.2787052834259269e-02 -1 0 -1
1053 2 9.3565474342645416e+00 2.0617880683667069e+00 1.6668901400967698e+01 -1 0 0
728 2 1.9410687695545765e+00 -1.2151590003774406e+00 6.6695863954464123e+00 1 0 0
190 1 5.2376994288493677e+00 5.8724318825819832e+00 8.2186299140578711e+00 0 0 -2
1125 2 -1.1233704448754267e-02 -3.1235456487459268e-01 1.1473851712141458e+00 0 0 -1
380 2 1.1788089562513255e+01 7.2507966813422708e+00 7.5526256079588112e+00 -1 0 1
534 2 1.1167834935215176e+01 9.7260771606404788e+00 9.1696550082107420e-01 -3 0 -1
5 2 8.3636300059639712e-01 8.8897638596760444e+00 3.2811056722316043e+00 1 0 -2
1023 2 -7.8077061886506649e-01 -1.7943750480178735e+00 7.3502593785841004e+00 2 0 1
11 2 -9.2421765061441796e-01 3.9657010211421175e+00 1.2603649230381606e+01 -1 0 1
694 1 1.0435195301523514e+01 5.4846390049029656e+00 1.1664957172879083e+01 -3 0 -2
1014 2 4.5214710570768863e+00 -4.7018049955708774e-01 1.5926838494096318e+00 0 0 1
697 1 7.9922206164885692e+00 3.6584323084645138e+00 1.0554032840275783e+01 2 0 4
401 2 7.1732461213676837e+00 9.9728966353987190e+00 1.7683285182300381e+01 0 0 0
490 1 7.2780760085198830e+00 -2.8072914782098857e-01 9.1210925162610899e+00 3 0 2
491 2 6.4046726227201507e+00 -3.0565303844925795e-01 9.5281564564954930e+00 3 0 2
228 2 2.0559511930985215e+00 2.6990730983962230e+00 1.8532116928120764e+01 -1 0 -1
171 2 9.7303113522704479e+00 2.4924493246138395e+00 1.8470301646526902e+01 -3 0 1
1458 2 1.5900436359632977e+01 8.9391091338016579e+00 3.3826065759906889e+00 1 1 1
957 2 4.7179669880336803e+00 2.7686107243935734e+00 1.4882397416716303e+01 -2 0 -4
1354 1 1.0593681348520173e+01 -4.8946814150003815e-01 6.0283610983623461e+00 -1 1 0
1435 1 1.5643146692402812e+01 4.5888758966828922e+00 5.9932400437957840e+00 -2 1 -2
947 2 4.7961678168624342e+00 7.2447096375142959e+00 1.6119592437021524e+01 0 0 3
533 2 3.8084441417272936e+00 9.4053718013752334e+00 1.8692195211391173e+01 -3 0 -2
1144 1 5.5786247870719547e+00 4.9297748106923764e+00 1.8088019733315164e+01 1 0 -2
285 2 -1.6613911719586076e+00 6.4348918987954349e+00 1.0270976821671661e+01 -3 0 2
1873 1 -2.2051360696876658e+00 9.9366776377427524e+00 1.7824187706277041e+01 0 1 0
682 1 -3.1813435675447601e+00 7.5006362323749514e+00 1.5886054119153131e+01 2 0 1
88 1 9.0123488445014033e+00 8.9448955133471308e+00 1.3415344598573071e+01 -3 0 -1
379 1 1.0955920022613585e+01 6.8433646392903604e+00 8.0032643948867257e+00 -1 0 1
302 2 1.3613115553123762e+01 3.3271288258728884e+00 1.1190541925473408e+01 -2 0 0
1406 2 6.1216582921528282e+00 5.0935434454435846e+00 3.8395843863904338e+00 1 1 0
678 2 1.3346866202066130e+01 6.9543040685141833e-01 4.8467219676682776e+00 -2 0 0
1395 2 1.0922047327329395e+01 8.9176074518053428e-01 1.3366206499522470e+01 0 1 1
615 2 1.2165547172917790e+01 8.2321863524103698e+00 1.3170627548149803e+01 -3 0 -1
460 1 -4.2085986573599996e+00 3.2679609456883290e+00 1.4760158706133113e+01 -3 0 -2
664 1 1.1227035412561674e+01 9.1258634809574737e+00 1.0395395869248588e+01 0 0 3
1437 2 1.4763863778276400e+01 4.9970033820945297e+00 5.7697258571419692e+00 -2 1 -2
85 1 -5.2911147939809777e-01 8.8998050364846648e+00 4.3308778028699617e+00 2 0 -3
798 2 1.3459856180388435e+01 5.4773314804509816e+00 4.0898880515654259e+00 -4 0 1
250 1 1.1234743225583314e+01 4.5355874540940686e+00 9.2399272517066624e+00 -4 0 1
1629 2 -2.5529319718211654e+00 -2.0183630193240960e+00 1.6854270740629396e+01 -1 0 -2
686 2 -1.3018186591621017e+00 -6.7367931620954846e-01 9.4521222304978068e+00 -3 0 -1
1123 1 1.7670212692941906e+01 -8.5620243779839789e-01 3.1800833124583533e-01 -1 0 -1
700 1 3.3347990089851010e-01 4.7774043275193492e+00 1.4510323206176814e+01 -2 0 -2
1369 1 -1.6289480007569468e+00 3.0549034308250080e+00 1.5394419427989087e+01 2 1 1
820 1 1.3684714681026463e+01 4.5427273168874507e+00 9.8942218656176948e+00 -4 0 1
268 1 3.2631002352327694e+00 9.6163626863033080e+00 5.9269183796618394e+00 2 0 0
1052 2 1.0101990920977652e+01 3.5354394591313092e+00 1.6620515847794334e+01 -1 0 0
208 1 1.7617436144490872e+00 1.6103797683047318e+00 1.1837162104497931e+01 4 0 0
124 1 2.5008231684678792e+00 4.7277008830885423e+00 1.6315730338959618e+01 -2 0 1
887 2 -1.4382339171955709e+00 9.3891555478026181e+00 1.1760721759780166e+01 -3 0 -1
381 2 1.1088402550172844e+01 5.9177811062862542e+00 8.1225067113332727e+00 -1 0 1
758 2 6.3671305950632382e+00 8.5615855254495923e+00 6.8515691813988744e-01 -2 0 0
946 1 4.3032059883743203e+00 6.9309338496501685e+00 1.6921676158237940e+01 0 0 3
850 1 8.7801949605817953e+00 7.2701204144418412e+00 1.0566398197003034e+01 0 0 1
819 2 -3.6594536344312849e+00 3.6023462490836815e+00 1.8605915019849412e+01 1 0 3
503 2 1.3354672325163945e+01 5.3528991781158863e-01 1.0020551228472170e+01 -2 0 -1
191 2 4.9452161157598375e+00 6.3852318986104937e+00 9.0009110665376131e+00 0 0 -2
126 2 1.7416577874644146e+00 4.6875159612423429e+00 1.5737500230738672e+01 -2 0 1
1922 2 -2.5801478326042804e+00 3.7448020137783429e+00 7.4988300719351413e+00 -1 1 1
421 1 3.3806067812636762e+00 8.1514503121918160e+00 1.3423549413272729e+01 0 0 -1
906 2 5.6401542204558206e+00 6.8689929421477594e+00 1.8960313974313459e+00 0 0 2
1465 1 5.9279063260508780e+00 2.9062297276286913e+00 1.3622349109055568e+01 1 1 0
10 1 -1.1270851374687081e+00 3.1135541166693921e+00 1.2228867416752903e+01 -1 0 1
140 2 -1.4786436193720762e+00 2.5665185832579658e+00 1.8924069537585197e+01 -1 0 -2
1466 2 6.5674132352009558e+00 2.1033691721230809e+00 1.3683447271341739e+01 1 1 0
64 1 1.0956789356405476e+01 9.6019501403199552e+00 1.7732081358756368e+01 -3 0 -4
303 2 -4.0581555895895969e+00 1.8305288814260434e+00 1.1647664702839245e+01 -1 0 0
1407 2 6.6052918506333782e+00 2.8521732953473347e+00 1.0659907246735353e+01 1 0 0
492 2 7.8053261612987654e+00 -9.4370145056231203e-01 9.5705732134169281e+00 3 0 2
1041 2 5.0807114995973812e+00 9.5866302744031611e+00 1.5450154325320701e+01 -2 0 -1
547 1 1.6154903001411572e+01 5.5405800557204392e+00 3.9542319550960453e-01 -5 0 -3
118 1 -5.1049654840600356e+00 5.7145177920015033e+00 1.5520352517948574e+01 -2 0 -3
179 2 6.6180540437081712e+00 3.9101303007410060e+00 1.4967212694829524e+01 -4 0 -2
726 2 2.4968469289508892e+00 4.9429879714656257e+00 1.1642273619170437e+01 3 0 1
902 2 5.1757942268689767e+00 5.7980940455894281e-01 1.8833514926330096e+01 -2 0 -1
261 2 1.6766599161868703e+00 4.5703965816116066e-01 1.8843946084928376e+01 -1 0 0
1054 1 1.0395491150684252e+01 2.0351084236315806e+00 1.1208897322043619e+01 -2 0 -1
133 1 1.2433541376497486e+01 6.6486509560793330e+00 1.3173717953053373e+01 -1 0 -2
1593 2 1.4193909078958306e+01 7.7175394503942787e+00 1.0647629072787076e+01 -2 0 -1
425 2 -2.3038656610857799e-02 7.5134343152056147e+00 1.5099401340059222e+01 -4 0 1
625 1 2.4840326398042860e+00 5.3054585918064445e-01 1.4255408909623485e+01 -1 0 -1
557 2 4.1193478731340099e+00 3.5949311056627700e+00 2.9810890947484392e+00 0 0 0
1513 1 5.1489499740874773e+00 8.9612315269873655e+00 4.1163481873449870e+00 -2 0 0
388 1 1.3242127613162080e+00 6.6237557913778797e+00 7.9901709280902038e+00 -1 0 -2
1912 1 4.7786415337145645e+00 6.4067631403314085e+00 1.8915474965177526e+00 0 1 2
696 2 9.8339467676165420e+00 6.2130958568246548e+00 1.1341502609216086e+01 -3 0 -2
769 1 8.1386521742442248e+00 2.2696059385966043e+00 8.1013920430503603e+00 1 0 -3
1121 2 1.5156810243094629e+01 6.8319735172708231e+00 3.8633339604824740e-01 0 0 0
556 1 4.5013454112326325e+00 3.8536348455342679e+00 2.1176740136740650e+00 0 0 0
1994 2 8.3910599718144834e+00 1.6629059631973311e+00 4.3794624855071556e+00 0 0 -4
180 2 7.6613050972835168e+00 4.8550632358548622e+00 1.5768797189615395e+01 -4 0 -2
687 2 -8.8067184819020472e-01 6.9713336905336609e-01 1.0010346301564148e+01 -3 0 -1
1621 1 6.9378202128589672e+00 5.6739668201517421e+00 1.1889844286484959e+01 0 0 0
1514 2 5.3952307401681034e+00 8.8626988324295528e+00 3.1402856361987399e+00 -2 0 0
889 1 -5.0879371371280504e+00 1.5700804754556605e+00 1.6511140883886867e+01 0 0 -1
871 1 -2.0817558774719496e+00 3.8931892832239603e+00 1.7878711199763814e+01 -2 0 -2
1391 2 1.3323611553862284e+01 2.2860782108864441e+00 1.1533892741494571e+00 0 1 0
548 2 1.0369072076873131e+01 5.5239637560138943e+00 1.8904321754108242e+01 -5 0 -4
1051 1 1.0159609233545853e+01 2.6071540761988468e+00 1.6942733857645958e+01 -1 0 0
1512 2 1.5163522706647907e+01 1.6444605478350582e+00 7.6382058014616616e+00 0 1 1
1995 2 2.8480035255959906e+00 6.7109316268978514e+00 7.0027027689522603e+00 0 1 -1
666 2 1.1070995045970925e+01 8.3364411742740394e+00 9.8816915253506874e+00 0 0 3
651 2 9.7627764637810905e+00 -1.0061975717542506e+00 1.1663253294464552e+01 -6 0 -1
1637 2 -1.1362360780758518e-01 7.3406559310549842e+00 1.1025467281107888e+01 1 0 0
843 2 9.2183131180361073e+00 9.8653588062437478e+00 6.7698120386829501e+00 -6 0 -4
1877 2 1.4999782507128970e+01 1.3597060649135124e+00 8.6154994000387386e-01 0 1 1
813 2 -1.1369543825204818e+00 1.3290073222268401e+00 5.0670061579074215e+00 -1 0 -1
172 1 -4.4658994271497088e-01 2.4555578404687406e+00 9.7442314076212693e+00 -2 0 -3
999 2 6.3960919608588558e+00 -1.5754588029343348e+00 3.8082305687238636e+00 -2 0 2
805 1 7.9628789421841240e-01 5.0242473205082936e+00 3.5545658370124689e+00 -7 0 2
539 2 -1.3776184782067600e+00 7.4575180780881993e+00 6.6314325377023478e+00 -6 0 -6
128 2 2.4156326734286719e+00 2.7768293952703100e+00 1.1024333079849306e+01 -3 0 -1
192 2 4.8243428059266353e+00 6.3459965725797645e+00 7.4282144789286182e+00 0 0 -2
540 2 -1.1266028048285204e+00 6.0265400927303059e+00 6.1971890174103690e+00 -6 0 -6
1957 1 -4.6561992341122194e+00 -3.6777644815756405e-01 1.8145632564112656e+01 2 1 1
630 2 -4.2297815141873691e+00 7.7863013878083986e+00 1.9081549432623753e+01 -1 0 0
1410 2 5.9082682540938265e+00 9.1880884856518659e+00 1.8216811455452504e+01 0 1 0
310 1 1.5112399360569626e+01 8.2750652797400122e+00 7.4703288208065040e+00 -1 0 -2
733 1 7.9431231703854062e+00 1.7789609954895234e+00 2.7321757597800649e+00 -4 0 0
558 2 4.8496725236608285e+00 3.0841527119249186e+00 1.6709929580618965e+00 0 0 0
529 1 6.9257275872657251e+00 -1.1981648309478743e-01 6.3324514021738700e+00 0 0 1
119 2 1.2158381330761589e+01 5.7975589526498919e+00 1.6189622544885498e+01 -3 0 -3
1644 2 4.1479897936213082e+00 2.3502488051563768e+00 5.0966730018815500e+00 1 0 1
928 1 6.7759797367144268e+00 7.4220272782287253e+00 5.5878892818807078e+00 0 0 0
727 1 2.9119054343267736e+00 -1.0827001423005491e+00 6.9196245718726574e+00 1 0 0
1993 1 3.7093748914712417e+00 6.9701177112481822e+00 6.5816788859047985e+00 0 1 -1
212 2 1.2673262187795032e+01 -6.2042969799347469e-01 1.1677097826137269e+01 -4 0 -2
971 2 1.0953334509726801e+01 7.7745506346604554e+00 1.4653846777381017e+00 0 0 2
90 2 9.9192734553423705e+00 9.0062430009648793e+00 1.3086094859881609e+01 -3 0 -1
424 1 -5.3763171555045020e-01 6.8689020270311332e+00 1.5628911544182632e+01 -4 0 1
1044 2 7.4257879796982378e+00 8.6809392317779057e+00 1.2630349648280186e+01 -1 0 0
193 1 2.2740428301905173e+00 8.5596461261616721e+00 9.8553568974374119e+00 -5 0 -2
1627 1 -3.1339323950775535e+00 -1.5416790457324114e+00 1.6295857914035881e+01 -1 0 -2
1012 1 4.2589830783922755e+00 -4.5436928041349178e-01 6.5775217203235492e-01 0 0 1
127 1 2.9472756634213564e+00 3.4338690326648234e+00 1.0450845086867824e+01 -3 0 -1
1911 2 4.6316157928826769e+00 -8.2423421912650907e-01 1.8377215904592742e+01 -2 0 -1
1628 2 -3.6306833145443429e+00 -1.0159772509661349e+00 1.6973612976645690e+01 -1 0 -2
1623 2 6.2027456586287908e+00 5.7268506997219157e+00 1.2562491021624650e+01 0 0 0
50 2 9.9673851540034377e+00 8.2882339863276489e+00 1.6917580869724709e+01 -1 0 1
323 2 1.3813091867573611e+01 8.0802529707528024e+00 6.5007443026234455e+00 1 0 -3
1441 1 3.7372935853598221e-01 -1.2903791354260754e+00 6.0743638185032696e+00 1 1 1
900 2 2.8365858257010563e+00 9.6588736580006742e+00 1.6581827231061293e+01 -1 0 2
873 2 -1.4867839392101736e+00 4.6301071856179457e+00 1.8020292909097734e+01 -2 0 -2
1632 2 5.0973287007116674e+00 1.3605767935606394e-01 3.9044703934497829e+00 0 0 0
322 1 1.2824205225023139e+01 7.8508619157255364e+00 6.2020082825928222e+00 1 0 -3
685 1 -1.4045848878160951e+00 -6.2541530678990487e-02 1.0156501848024085e+01 -3 0 0
4 1 1.6389894422482334e+00 8.8724799751402461e+00 2.7038457325263319e+00 1 0 -2
663 2 -5.8957110947029605e+00 6.5599777040645986e+00 1.8312733388880627e+01 -2 0 2
108 2 5.2964163894962226e+00 5.8037027514600332e+00 1.4591318582775544e+01 -2 0 -1
898 1 2.8177953183983204e+00 9.0657811955634102e+00 1.7361983708633318e+01 -1 0 2
757 1 6.0527793506687591e+00 8.9571743476866210e+00 1.4630817398916698e+00 -2 0 0
135 2 1.1612137512215408e+01 6.2807394120498916e+00 1.2740393061458484e+01 -1 0 -2
434 2 5.4006191847888134e+00 5.4478851723497090e-01 5.8197596947371855e+00 -2 0 2
549 2 1.5948929543405436e+01 4.6235229106996263e+00 5.9675743257052105e-01 -5 0 -3
461 2 -4.4049276477971224e+00 3.0201569456543895e+00 1.3864928543023099e+01 -3 0 -2
590 2 1.6560014706464003e+01 6.2345536636442738e+00 2.1125777056627113e+00 -4 0 -2
1546 1 8.5032186422399703e-01 2.8687628656044595e+00 1.7973373023333883e+00 -1 0 -1
454 1 2.2542545901881841e+00 -9.4285961115842376e-01 1.0676291523518124e+01 0 0 0
852 2 8.6537912536494410e+00 8.2507575154728823e+00 1.0498809374517505e+01 0 0 1
811 1 -2.0406759744334546e-01 1.0284085988991545e+00 5.1555052649565916e+00 -1 0 -1
886 1 -2.1585941094481722e+00 1.0054799095898673e+01 1.1934026638775009e+01 -3 0 -1
390 2 7.2048522061412879e-01 6.6639135065883082e+00 7.2150983266861211e+00 -1 0 -2
233 2 1.5362444270204113e+01 -8.2585324587404618e-01 2.1942248252808656e+00 -2 0 -1
25 1 9.3819356881665374e+00 5.3462772132590963e+00 1.5998048954664450e+01 -2 0 -4
1888 1 6.7097827967626413e+00 -9.3650140384648006e-01 1.2396204987233503e+01 -1 1 1
1043 2 6.0227865279773267e+00 8.5987873314780678e+00 1.3308629749328546e+01 -1 0 0
734 2 8.0698859589985279e+00 2.6584267034789377e+00 2.4046751992513702e+00 -4 0 0
1913 2 4.8234175749250134e+00 5.3925098899122466e+00 1.8870346934618498e+00 0 1 2
151 1 7.6336092041333146e+00 1.0057560737988145e+00 1.3995102034086974e+01 3 0 0
375 2 1.0375390049940339e+01 -1.6431062192306434e+00 1.5426569846958605e+01 1 0 1
956 2 3.4797672581040660e+00 3.4406413156976754e+00 1.5675961912284874e+01 -2 0 -4
1046 2 1.3130197439497161e+01 9.1777411395855193e+00 1.0292676497264255e+01 0 0 0
211 1 1.1816672443989837e+01 -8.7109926430521867e-01 1.2024807661543548e+01 -4 0 -2
751 1 6.7545540845564922e-01 -2.6294606816976795e-01 1.6033950905534997e+01 -3 0 1
51 2 8.4873639250597357e+00 8.1158688531500314e+00 1.6575168274199182e+01 -1 0 1
872 2 -1.8166483433388620e+00 3.4636983247977637e+00 1.7043784212119959e+01 -2 0 -2
283 1 -7.4549733040211041e-01 6.0703972008800626e+00 1.0285207682208922e+01 -3 0 2
49 1 9.3503616306310917e+00 8.0870644825132256e+00 1.6194482396005657e+01 -1 0 1
531 2 7.6783461277437715e+00 3.9779759697801431e-01 5.9731868225456939e+00 0 0 1
912 2 7.4208850363501000e+00 1.0006613059546041e+01 1.0694367235273212e+01 -1 0 0
804 2 8.5145332154522944e+00 -1.0215252887690913e+00 1.7485251890200775e+00 -4 0 -1
637 1 8.3527280099757188e+00 4.3309051799025378e+00 5.9625927086634558e+00 -1 0 -2
569 2 4.8146972405026744e+00 2.0035283084606332e+00 1.6993921987268294e+01 -1 0 2
1547 2 8.7199562223423188e-01 3.6450785669917209e+00 2.3573197923437061e+00 -1 0 -1
1436 2 1.5812811967349115e+01 4.0975397808687948e+00 5.0940212796014315e+00 -2 1 -2
173 2 1.8002626339839090e-01 3.1551168949536246e+00 9.3885804578764311e+00 -2 0 -3
399 2 6.9513108405805824e+00 4.6384334421874387e+00 5.1013195155159901e+00 1 0 0
1631 2 6.3750382647837505e+00 6.7865714162111379e-01 3.0999113420776667e+00 0 0 0
27 2 9.4529043682034271e+00 4.9718866406780915e+00 1.5077935274368304e+01 -2 0 -4
1643 2 4.4174692026968216e+00 3.9210970154819407e+00 4.9031929898088924e+00 1 0 1
1013 2 4.7671626502243587e+00 3.7269035101685466e-01 4.9592264049691659e-01 0 0 1
134 2 1.2575568572489821e+01 6.1591549504317555e+00 1.3973246539233369e+01 -1 0 -2
48 2 1.2566734347920553e+01 8.5523917653002322e+00 4.7702907834173454e+00 -5 0 -2
2016 2 1.8109881491021262e-01 3.1983526276918850e-01 3.3264247966912945e+00 0 1 1
433 1 4.4755153284094149e+00 5.9651476028946293e-01 5.4130318105474426e+00 -2 0 2
511 1 1.1720501661023105e+01 3.1731971299449864e+00 4.9320187858784061e+00 1 0 0
75 2 7.0264365893897898e+00 1.5588913396327988e+00 1.6902295876282807e+01 -6 0 -1
120 2 -4.8413683652195392e+00 4.7790459461556303e+00 1.5564293365711871e+01 -2 0 -3
106 1 4.8651479638592345e+00 6.0217967524427749e+00 1.3733121994297683e+01 -2 0 -1
1510 1 1.5044572017756275e+01 8.1841278994728750e-01 7.1029330976423051e+00 0 1 1
87 2 -5.3092234196762456e-01 9.6282436668770384e+00 4.9817125017463901e+00 2 0 -3
1976 2 9.6509879084958676e+00 8.8824144680092569e+00 3.3622327755492454e+00 1 1 0
301 1 -4.0864558406934579e+00 2.7237541708049617e+00 1.1967822197696627e+01 -1 0 0
822 2 1.4354431935231077e+01 4.0643664209922585e+00 9.3308415667357476e+00 -4 0 1
892 1 9.3823552226032518e+00 3.9925338049551717e+00 1.3627676591107372e+01 -4 0 -5
738 2 5.4956080471329170e+00 -5.3243316516725603e-01 1.1280332703237679e+01 0 0 1
107 2 4.0830294889180356e+00 5.4861209784756646e+00 1.3740948253064985e+01 -2 0 -1
965 2 1.0070184493336942e+01 3.3461598272850983e+00 1.0575779239141727e+00 -2 0 1
781 1 5.2378625073394263e+00 8.0310370411200349e+00 1.0016483191775803e+01 -3 0 -2
265 1 1.2487900490493775e+00 3.9095077778825784e+00 8.4211630928861716e+00 0 0 -2
1392 2 1.2282408941547043e+01 3.2700214331212054e+00 1.5238278806093486e+00 0 1 0
930 2 6.5200533715770836e+00 6.4814300319110103e+00 5.5248194016013787e+00 0 0 0
426 2 -1.4602475763494884e+00 7.1685842022619806e+00 1.5556948535262658e+01 -4 0 1
891 2 -4.8979326367706975e+00 8.4668293172777975e-01 1.7144382704448830e+01 0 0 -1
724 1 2.4135104583312383e+00 5.6519320241116340e+00 1.2402442193501338e+01 3 0 1
591 2 1.5787141562716908e+01 6.2319178591139419e+00 3.4401933628984134e+00 -4 0 -2
897 2 1.3818352190244797e+01 6.4546953693790066e+00 1.9848834614844562e+00 -4 0 -2
419 2 8.0414223678761587e+00 4.8622075334388146e+00 8.9084318419672517e+00 -3 0 2
512 2 1.0964096015072029e+01 3.0819996868671060e+00 4.3417646293815215e+00 1 0 0
972 2 1.1869522958070061e+01 8.0335161153515671e+00 2.7022951070571501e+00 0 0 2
1622 2 7.4169146795419918e+00 6.5375610324336488e+00 1.1948979025379932e+01 0 0 0
2015 2 1.0143157426103546e+00 1.2433891326892397e+00 2.3706455448585402e+00 0 1 1
1878 2 1.4058139668833983e+01 7.4229213387042137e-02 7.3322920101782085e-01 0 1 1
821 2 1.3931495536414996e+01 5.4130242356540696e+00 1.0311888136191255e+01 -4 0 1
536 2 1.3808762482166864e+01 -2.0982123009235165e-01 6.3768553882302772e+00 -2 0 1
420 2 6.9222217813733771e+00 5.8268342662250712e+00 8.3164869972339162e+00 -3 0 2
422 2 4.0373850557975679e+00 7.4626970530242058e+00 1.3735524010177642e+01 0 0 -1
807 2 1.6262607341384254e+00 5.5892021636545328e+00 3.8098585967233602e+00 -7 0 2
218 2 5.1004261275908291e-02 7.4478429526917722e+00 1.7423950470040378e+01 0 0 -3
17 2 6.0215544860539314e+00 8.5516503920156612e+00 8.6372769534647418e+00 -1 0 2
1356 2 1.0139157570380318e+01 3.6789411162021723e-01 5.8680989225600175e+00 -1 1 0
141 2 6.5212912806841663e+00 1.6845003298725763e+00 3.1152880281793582e-01 -1 0 -1
270 2 3.2739727140562684e+00 8.6448819600582301e+00 6.1280588341855129e+00 2 0 1
992 2 5.1850820727664342e+00 4.1683881362300976e+00 8.1720308330515721e+00 0 0 -1
137 2 3.4402250670263106e+00 1.2982133559796911e+00 9.0328523853375433e+00 -3 0 -1
324 2 1.2881308070982387e+01 6.9049955041202278e+00 5.8955699247005651e+00 1 0 -3
227 2 2.7893130434671800e+00 4.0433460426127548e+00 1.7991192814841593e+01 -1 0 -1
983 2 8.1865234838290135e+00 -6.4769033013332145e-02 1.7630229911374123e+01 0 0 -1
12 2 -1.9943626429205525e+00 2.8975739650793937e+00 1.2630348518972607e+01 -1 0 1
178 1 6.7233748496442995e+00 4.5583721139129052e+00 1.5695687003730891e+01 -4 0 -2
701 2 -2.1605927792110169e-01 4.0109298381349046e+00 1.4800203338455173e+01 -2 0 -2
291 2 3.6654445735876688e+00 6.6821712908857442e+00 3.3855906046153330e+00 -1 0 1
695 2 1.0706417632226755e+01 5.0872677779556525e+00 1.0809498703977091e+01 -3 0 -2
1566 2 9.6071750041756427e+00 7.1393534593926500e+00 5.1926650442287592e+00 -3 0 0
1131 2 1.0965062695451085e+01 2.9156721207246905e+00 6.5656347568700957e+00 -1 0 -1
585 2 8.5028593533071977e+00 4.9846174830450227e+00 2.7935686794804258e+00 -3 0 -5
1630 1 5.7021500288378100e+00 -3.5632799558200645e-02 3.1570149915874133e+00 0 0 0
613 1 1.1776035655127016e+01 9.1246262607937751e+00 1.3215445315211086e+01 -3 0 -1
899 2 3.4571297612750698e+00 8.3805369370915717e+00 1.7133975054750042e+01 -1 0 2
26 2 9.4424338873491251e+00 6.2916443223910647e+00 1.5876180108240286e+01 -2 0 -4
783 2 5.6475126975276346e+00 8.1637941037255874e+00 1.0914662980974164e+01 -3 0 -2
455 2 2.0344886340866095e+00 -7.2770811760753951e-03 1.0878793255651656e+01 0 0 0
584 2 7.5095378095116265e+00 5.0938390569886778e+00 1.6017535553061584e+00 -3 0 -5
960 2 1.1055107493793637e+00 4.6325155722692362e+00 1.8714906932365363e+01 1 0 -1
638 2 8.2635103497483406e+00 4.8079603630491450e+00 6.8323469527284084e+00 -1 0 -2
1591 1 -3.6657470892003516e+00 6.7829646476116796e+00 1.1045794350867023e+01 -1 0 -1
749 2 4.3774609814810663e+00 -9.2685934199444442e-01 1.5998994196181522e+01 -4 0 0
725 2 1.6591580436938180e+00 5.3662590179414114e+00 1.2971937572706022e+01 3 0 1
269 2 4.0711870807711161e+00 9.7362900210600145e+00 5.3721848663540870e+00 2 0 1
418 1 7.8882791040689302e+00 5.5832185304293596e+00 8.2235039799493492e+00 -3 0 1
840 2 3.8763406768159392e+00 9.6929233814779447e+00 1.3380249198606444e+01 0 0 -2
1564 1 9.5422093239737862e+00 7.9710592340482957e+00 5.6960742422365236e+00 -3 0 0
174 2 -6.7314884017217835e-01 2.7931338931406744e+00 1.0626121994848551e+01 -2 0 -3
1355 2 1.1589861714008013e+01 -3.8220420757476914e-01 5.8835523792720501e+00 -1 1 0
985 1 8.8171132465620232e+00 1.5001379222565401e+00 5.2525404619973530e+00 0 0 -4
1565 2 9.9172945403049777e+00 7.7921562755414797e+00 6.5366265558990273e+00 -3 0 0
626 2 1.8702114362292406e+00 1.5330466859129954e-01 1.5002434190083013e+01 -1 0 -1
602 2 1.6342938324951440e+01 3.0848186009985001e+00 2.9698373435683649e+00 -2 0 -1
796 1 1.2971162016216073e+01 5.4477887918917460e+00 5.0145552301526921e+00 -4 0 1
895 1 1.3720569869822926e+01 5.7145006138243097e+00 2.6065111510109142e+00 -4 0 -2
661 1 -6.2641152823042150e+00 5.6945479005238147e+00 1.8106347857601733e+01 -2 0 2
568 1 5.4620972001670625e+00 1.9414255304632775e+00 1.7715625875914697e+01 -1 0 2
676 1 1.3522794273826813e+01 1.3876913249479323e+00 4.2050759986142827e+00 -2 0 0
583 1 7.7019579450543274e+00 4.6285644884772585e+00 2.4315615487482374e+00 -3 0 -5
1056 2 1.0899312525252133e+01 1.6277971243376155e+00 1.0441911587188370e+01 -2 0 -1
958 1 3.8312521384656684e-01 5.2210257151107591e+00 1.8988514811791486e+01 1 0 -1
38 2 9.7551959454243486e-01 4.0525129224591261e+00 5.1327862312789136e+00 -2 0 -3
628 1 1.4495882642675280e+00 7.9117043282827133e+00 1.4071059149514661e-01 -1 0 1
1370 2 -2.6123935898794111e+00 3.0733564620263634e+00 1.5135251794517727e+01 2 1 1
2014 1 7.5239032075089685e-01 2.5017088840817481e-01 2.5251758847775121e+00 0 1 1
298 1 5.3610753808174838e-01 8.8063256096415365e+00 1.3937245658189338e+01 -4 0 -2
1394 2 1.0548122428718298e+01 4.6178331720391474e-01 1.4869764037605217e+01 0 1 1
818 2 -4.8810922863454795e+00 2.9814412573099203e+00 1.7860445606685051e+01 1 0 3
232 1 1.5125345057647042e+01 -1.5222849584819644e+00 2.8122589856797937e+00 -2 0 -1
782 2 4.3111563441700751e+00 8.3714288647629544e+00 1.0012861824481483e+01 -3 0 -2
683 2 -2.9984650847098098e+00 7.3502844863815007e+00 1.6809306873368936e+01 2 0 1
194 2 1.8887384825823013e+00 7.9544777239592239e+00 9.1901730225731129e+00 -5 0 -2
570 2 5.4823392641426825e+00 2.8449112989042611e+00 1.8060846693640467e+01 -1 0 2
888 2 -2.3708709651820876e+00 9.8224236510525706e+00 1.2912527892233147e+01 -3 0 -1
170 2 1.7036122726618249e+01 2.3166077274235635e+00 7.8872650992947002e-01 -3 0 2
530 2 7.0871949665118290e+00 -2.3220201776013272e-01 7.2933129534549499e+00 0 0 1
219 2 1.2537393861485606e+00 8.3664634104054301e+00 1.7726206973598710e+01 0 0 -3
1146 2 6.1421750236069386e+00 4.7387292868526423e+00 1.7292370601973737e+01 1 0 -2
1039 1 5.6590215915045308e+00 8.8568677358230428e+00 1.5221160716196474e+01 -2 0 -1
86 2 -6.6790516339010031e-01 8.1211719056541405e+00 4.9390152816231430e+00 2 0 -3
627 2 3.0834219020977889e+00 1.2003955934975439e+00 1.4719224318669825e+01 -1 0 -1
991 1 5.4684690665658238e+00 3.2710744155300810e+00 8.0301435867602891e+00 0 0 -1
266 2 2.0697262010375814e+00 3.7461481665052094e+00 8.9547214264700958e+00 0 0 -2
1152 2 -9.5846620950371797e-01 -1.9619277167717706e+00 1.2428465758155994e+01 1 0 0
893 2 9.9269932265890901e+00 3.2107581441121749e+00 1.3961979032768406e+01 -4 0 -5
217 1 4.7658583394042164e-01 7.9132500271037554e+00 1.8111794514388809e+01 0 0 -3
966 2 1.0622319285881177e+01 4.2132750222848250e+00 2.1992880127912189e+00 -2 0 1
894 2 9.8508752449470940e+00 4.4616183107232104e+00 1.2916908366377919e+01 -4 0 -5
970 1 1.1173676931490510e+01 7.4471257608641679e+00 2.3439260390372576e+00 0 0 2
729 2 2.9218752980951321e+00 -3.4527924285999645e-01 7.5945687591841056e+00 1 0 0
47 2 1.3513257403926502e+01 8.8790648278984179e+00 3.5479431397145218e+00 -5 0 -2
16 1 6.5732915666947429e+00 8.7995952741580119e+00 7.8572232634838777e+00 -1 0 2
1998 2 8.6070100881538565e+00 -1.8777787138548567e+00 6.3781384381400406e+00 0 1 1
276 2 -2.0543243107748723e+00 -1.2726176524884192e-01 1.5315214582723451e+01 3 0 -1
125 2 3.0747806145289642e+00 5.4826044343664142e+00 1.6183471624498981e+01 -2 0 1
812 2 3.4365569393199458e-01 1.8745522377695174e+00 5.4204645238868325e+00 -1 0 -1
903 2 1.4948760428046652e+00 -1.5657275093433736e+00 3.2354139692100228e+00 0 0 -1
1025 2 4.3818233950948722e+00 6.9686508724572942e+00 3.5551375603551105e-01 0 0 1
890 2 1.1899033015633941e+01 1.5435998739711896e+00 1.6445881674338210e+01 -1 0 -1
31 1 1.1157315136771638e+01 -1.8311413705025577e+00 8.4874561330752254e+00 -5 0 -4
603 2 1.5066141570645694e+01 2.4256787172451322e+00 3.7112995512798066e+00 -2 0 0
802 1 8.8816405290607658e+00 -1.8323802718183391e-01 1.3241734388890216e+00 -4 0 -1
397 1 5.6822566321386550e+00 2.5777075868166381e+00 1.0801732824039021e+01 1 0 0
1143 2 1.3291152454929286e+01 -1.2107158808179923e+00 2.8037875825245808e+00 -1 0 0
1977 2 8.8053529741992271e+00 1.0138830235656302e+01 3.7957802907251770e+00 1 1 0
73 1 7.8611865878935072e+00 1.1762457416818011e+00 1.6563526258853980e+01 -6 0 -1
1457 2 1.5200806457711863e+01 8.5563005936494161e+00 2.1303407719929570e+00 1 1 1
37 1 1.3428216200696741e+00 3.3105482881461201e+00 5.6710489744782562e+00 -2 0 -3
129 2 3.8630470416651645e+00 3.3285767673302260e+00 1.0765363062385632e+01 -3 0 -1
829 1 2.4267488149853742e+00 -2.0256240299472545e+00 1.2976478421238472e+01 -5 0 0
830 2 2.5600812033956677e+00 -1.2181353401323389e+00 1.3523422674725525e+01 -5 0 0
252 2 1.0923524048124605e+01 3.8813751194734261e+00 8.5517637481182245e+00 -4 0 0
650 2 9.4319365615876727e+00 6.0778088833999178e-01 1.1441590230381024e+01 -5 0 -1
1024 1 -2.5861708797697478e+00 7.3020633471547907e+00 1.8556169848129219e+01 0 0 0
1142 2 1.2065662576677026e+01 -8.3099579784270095e-01 1.7621534984772578e+00 -1 0 0
66 2 -6.2685882076836190e+00 9.1287240509794376e+00 1.8249780919346922e+01 -2 0 -4
1122 2 7.5753933717940507e+00 8.0118107985395302e+00 1.8973024156455434e+01 0 0 -1
138 2 4.0302499561202909e+00 2.0825704811682559e+00 7.8078014850470678e+00 -3 0 -1
759 2 6.6151494958060066e+00 9.7709326883651535e+00 1.4603268866503605e+00 -2 0 0
267 2 1.3296118269752246e+00 3.6739076717613468e+00 7.4737656266946670e+00 0 0 -2
984 2 8.0171615655392721e+00 -1.5742615456689140e+00 1.7994175074139697e+01 0 0 -1
614 2 1.1932410971723126e+01 9.4655759583917245e+00 1.2338349138735238e+01 -3 0 -1
1548 2 1.5337236969543031e+00 2.9836713172119866e+00 1.0740484658129255e+00 -1 0 -1
851 2 8.8055725203751596e+00 6.8455373526265078e+00 9.6567915655132612e+00 0 0 1
677 2 1.3440460189970567e+01 9.9145603304995245e-01 3.2345362180948256e+00 -2 0 0
743 2 -3.3464881172621306e+00 9.0470643983605878e+00 1.5143502844024530e+01 1 0 0
39 2 2.2456655131678671e+00 3.1950043992921504e+00 5.3786989487127945e+00 -2 0 -3
46 1 1.2649852971392656e+01 9.0877559451956831e+00 3.9695206565613388e+00 -5 0 -2
662 2 -5.6552447772311680e+00 4.9714643429094920e+00 1.8541575679491068e+01 -2 0 2
1141 1 1.2304069487281632e+01 -1.1837396262225020e+00 2.6494283285885878e+00 -1 0 0
251 2 1.2203775638088294e+01 4.4184851394413576e+00 9.3490315362413945e+00 -4 0 0
311 2 1.5398921770350618e+01 9.1507045742752879e+00 7.0833215992249023e+00 -1 0 -2
982 1 8.3363168333376816e+00 -7.6449368675487217e-01 1.8315612161197354e+01 0 0 -1
896 2 1.3732002991766928e+01 4.9450817285446167e+00 2.1170106780344398e+00 -3 0 -2
1393 1 1.0444581209605168e+01 1.1924354507544930e+00 1.4167303697684764e+01 0 1 1
817 1 -4.6333622055041213e+00 3.4571892680798690e+00 1.8632940086104988e+01 1 0 3
398 2 5.5213975407458129e+00 1.5968250227529746e+00 1.0813973460832457e+01 1 0 0