LAMMPS data file via write_data, version 8 Apr 2021, timestep = 1630000

972 atoms
2 atom types

0.19872200587097555 20.27092886847727 xlo xhi
0.19872200587097555 20.27092886847727 ylo yhi
0.19872200587097555 20.27092886847727 zlo zhi
0 0 0 xy xz yz

Masses

1 16
2 2

Atoms # atomic

639 2 12.622827845899842 5.675970075927146 7.40689672535267 -3 2 1
456 2 11.337537955068408 7.816547752433607 7.683604012828436 1 -3 1
220 1 8.276807219593591 0.4459256036174677 7.942864929997673 -3 1 1
488 2 0.8567522913646249 9.378307429945254 8.482758654861792 -1 -1 0
293 2 19.516085200530352 7.193488137899238 2.2193786473108896 0 -1 -2
573 2 15.01294666122118 4.480439378135696 4.926843638966757 0 1 -1
934 1 12.228007887078483 4.294975834002649 4.783111808637554 5 2 0
519 2 11.389965793158275 2.2619500835370596 1.9770688631371538 0 -1 -1
273 2 15.174949251305744 7.063603807067943 2.148467590425725 1 2 -1
922 1 2.793962724623854 7.532115909443779 0.38756600732027685 0 2 0
408 2 9.05372359761342 7.447311965250949 5.134559634271643 5 -1 -2
301 1 3.0995572546741146 8.84200343708869 6.407261003404797 3 -3 0
773 2 13.813622689747868 9.200757838760774 3.222167961735645 0 -4 -2
143 2 7.623954804242699 4.631610478059297 8.633517441550593 1 -3 -1
329 2 3.1249609039171657 4.723149412375929 4.6864075196094355 1 0 -3
333 2 7.520899215169717 8.411694229915156 3.3705752219856393 -1 0 2
494 2 2.6870611870924703 5.914955925004262 6.906259010751794 1 0 -1
302 2 3.127787566913187 7.8603368092941 6.680250188665394 3 -3 0
803 2 1.194637756097336 6.798058225561771 9.379291129694437 0 3 0
126 2 9.458564471002601 3.188624246492176 5.794172472343301 1 0 1
533 2 12.577840581860961 0.4597453423712593 8.387524052278211 1 3 -4
320 2 6.2525051987943305 6.270709513012115 5.782028141720312 4 3 0
254 2 9.480710490229674 7.063231518967809 8.875353942830406 -4 0 0
498 2 15.262640316156958 5.398895225426215 7.750416518624045 2 -1 1
655 1 16.83230481555229 7.979253962111104 6.909017034366704 1 1 -4
746 2 4.894158816396058 4.749964675541049 1.2836206056805892 0 -5 -1
579 2 16.716765907742598 8.269152878955678 3.6290964752066226 3 1 2
910 1 11.194867955351434 3.8611543304348155 9.053030211979316 -2 5 3
280 1 10.762315750114183 7.359436708643513 0.27340572021011555 -1 0 0
454 1 11.745413467832254 7.2018301653714465 7.0279908766899934 1 -3 1
55 1 6.524695639354225 2.346364330510978 6.887919846310895 2 -4 -2
935 2 11.993807111534917 5.196101475385294 4.609176226574862 5 2 0
77 2 18.57523481441958 9.469688058046382 0.5264623693110829 0 -1 -2
145 1 19.160577528566293 1.837799893668016 2.9018853346720253 5 3 1
169 1 15.463810990414276 2.76670267919416 1.8185953558437173 -4 0 0
390 2 0.7049415473298579 9.555874631813985 4.923991277152413 3 2 -1
271 1 15.487062923945668 7.976601816582911 2.3143959263545164 1 2 -1
263 2 15.367257081204412 2.6461969167664767 6.523375638700312 -1 0 1
262 1 15.243216142534818 2.7226417191238843 5.51970265768233 -1 0 1
660 2 7.943681759728927 9.83497952816524 6.201546998184192 -3 -5 2
649 1 9.072494450590085 5.36710672616442 8.212100433123748 -4 -1 3
648 2 3.694160519245897 2.0131651151537624 5.827816223342989 -2 1 3
917 2 17.94311192247912 4.473201871376791 4.851044319454357 3 2 1
547 1 14.26419865456204 3.5738118115329023 9.962977190657318 3 -2 1
911 2 11.90642497474406 4.062396322145806 8.393596077160694 -2 5 3
637 1 13.165388513530024 4.8608018936457285 7.425774232753166 -3 2 1
464 2 14.908625134366131 8.507359821988437 9.74175092373358 -2 0 2
638 2 13.04207684928633 4.572834161334602 6.516081007865689 -3 2 1
112 1 18.75594617607473 7.55900591624638 0.6994975727152996 1 1 -3
294 2 19.559035613715466 6.305687843003842 3.511768714420493 0 -1 -2
525 2 1.9340546806276084 4.216151219047774 8.841469938120209 4 4 -1
571 1 15.053967270368029 5.369330559861418 4.556594995985191 0 1 -1
864 2 7.988789287460281 3.003986765073714 3.9290344648976534 0 -3 2
107 2 3.2974251953592137 1.1994067469609693 9.358159304047227 4 1 0
177 2 9.402680712561336 5.035375959554544 1.7422900281597138 4 -3 1
563 2 19.427321024380035 6.588471679818175 7.764402620891186 -1 1 2
569 2 18.437529643507446 1.1951031530121754 9.305999449065387 -3 4 4
491 2 14.415967568681651 10.136610980058311 6.164248338357011 -2 -2 0
747 2 4.82500855161463 4.724129641135732 2.8170777029380383 0 -5 -2
970 1 15.435287877988523 2.092698186600562 7.977615298207165 -4 1 2
362 2 8.436251300699444 9.974082286991283 2.0160148852607813 -1 4 5
578 2 18.133329139153002 8.074876434750495 3.8724183051773156 3 1 2
106 1 2.655750602617452 1.078410926664464 8.637151292612817 4 1 -1
159 2 5.801011602378578 8.098846167840684 1.082985046913119 1 1 1
303 2 2.2410006990201747 8.975259371500256 6.0223360802404 3 -3 0
833 2 1.6491366489753696 4.2485039678145595 6.574679942231005 3 -1 2
239 2 17.904206004331545 5.06449095162604 1.4272275626369044 0 -1 2
146 2 18.80028990753252 1.7270491836699167 1.9904563510998101 5 3 2
253 1 10.02321645591541 7.866738213868815 9.093319465907454 -4 0 0
745 1 5.433177893087751 4.457810222599001 2.068058779741111 0 -5 -1
656 2 16.773583796944614 7.076222255197243 7.216963085559598 1 1 -4
361 1 7.707777843703879 9.99178341510347 2.6821262740237692 -1 4 5
724 1 19.57806172496892 6.91801569653557 6.1126380342891995 2 -1 2
695 2 3.957198141551781 8.036052979656864 2.2435343861268753 1 1 2
700 1 11.922725405548432 10.167167403632535 7.456286312880641 1 -1 2
42 2 2.2451489584883344 7.532811775694906 1.9304615968872152 1 0 0
402 2 12.539457841074897 0.5265871681552141 4.898485196359745 -1 3 -1
175 1 10.410364636507357 5.032495339444286 1.6255659917458796 4 -3 1
725 2 18.85004238045422 6.636273532352346 5.478734714797068 2 -1 2
971 2 14.782599427125385 1.3423750775850263 8.055255553756258 -4 1 2
142 1 6.696233419317026 4.318024735724837 8.71330605130892 1 -3 -1
66 2 10.611441468433032 0.8154736298082834 9.773967180409242 0 1 3
564 2 19.04759134952149 6.885222637839586 9.148975731841611 -1 1 2
395 2 16.979344237170448 2.6104120901912884 5.0584771780453694 -2 -1 -4
272 2 15.590485262039788 8.392369428794035 1.4378244272070562 1 1 -1
85 1 11.397128714879681 9.407350478491775 5.029775928094082 1 4 -3
331 1 7.7624065064870615 7.497149432465521 3.628149907894178 -1 0 2
650 2 9.094327961033397 5.626938443024975 7.287017348558011 -4 -1 3
87 2 11.723747047474331 9.774666007970431 5.928056039250052 1 4 -3
593 2 7.90362679495669 6.48863927003153 2.473712730558945 1 2 2
269 2 19.77293700932769 1.705325948186019 7.143524016149837 1 4 -2
158 2 6.991862940086165 7.239998039397534 0.6203965321621704 1 1 1
526 1 1.7046471665307785 2.0052889450327243 0.5918956278489731 0 3 -1
832 1 1.659514634871234 4.830332854578841 5.8388399581969415 3 -1 2
465 2 15.539807529614254 7.076416981373985 9.504512458780466 -2 0 2
93 2 6.32505970360755 5.768749405149612 7.709744654932452 -2 -4 0
518 2 9.890266172247998 2.2460383551962773 1.70566770352778 0 -1 -1
270 2 19.081789872663737 2.636845819769582 6.262173209546638 1 4 -2
332 2 6.944758689741404 7.149103125011648 4.1986637922205725 -1 0 2
620 2 13.175271030484943 6.360971546863121 2.252695978621053 0 -2 -3
353 2 16.041454044262736 1.4869828271716954 2.653876956385655 1 -3 3
755 2 2.764299165444376 9.15895962937002 3.663293729634866 1 -1 -2
400 1 13.45598337629741 0.7486976639385241 4.598449708910642 -1 3 -1
328 1 3.619775149116993 5.201716550730077 4.012665272975092 1 0 -3
779 2 7.3369071749505865 8.837877754544948 9.64447932929683 0 -5 3
594 2 7.07718628102554 5.501989316806908 1.7291572389965693 1 2 2
646 1 4.046775049077303 1.3193131704951242 6.320521263425949 -2 1 3
562 1 19.80776625025605 6.605917494633188 8.670776864902576 -1 1 2
766 1 2.2626733668848944 2.3084916932222503 3.602198727083777 2 1 0
767 2 1.6984673481257127 3.0140215366874887 3.9293232778514944 2 1 0
790 1 8.35878897818963 2.0441480329084056 2.638911851292946 -2 2 2
352 1 16.392233783204315 0.5414455686955373 2.9881346607610246 1 -3 3
659 2 8.176524724317574 8.435112171934053 6.765572408821578 -3 -5 2
394 1 17.971855139312762 2.880125883201142 4.997913589941734 -2 -1 -4
698 2 18.87921449203249 4.464846808143221 9.206095285492925 0 3 2
40 1 2.205088731297475 7.468524986422657 2.887433146341173 1 0 0
577 1 17.384811462331555 8.631355493737638 4.273803613952255 3 1 2
558 2 4.444595628747663 8.837068887678017 5.426960737992847 -4 1 1
240 2 17.27106795091956 5.1708410383627985 2.814242403523138 0 -1 2
56 2 6.964470126642098 2.7038441103326845 6.101507406295342 2 -4 -2
170 2 15.986348020963849 3.566427686573074 2.0377201784613517 -4 0 0
647 2 3.603306701692021 1.2213191130657717 7.141481527192181 -2 1 3
238 1 17.230531625951098 4.684610543847063 1.9544328214496154 0 -1 2
481 1 13.740751366193763 9.707737937274912 9.284190207119398 4 2 0
791 2 7.7346052908762655 2.293288399384812 1.9339960001423204 -2 2 2
155 2 6.522127950767761 6.9056590386058 9.427414692269256 0 -2 4
642 2 4.110167930017337 1.599599739951058 2.9994835289768176 2 1 3
268 1 19.705423519128082 2.6471809277599023 6.966937869343074 1 4 -2
455 2 12.419465527618733 7.742676359001929 6.539633708992937 1 -3 1
309 2 5.411196831448833 0.3153241655417336 1.7698073019816674 0 3 -1
678 2 14.982189542136782 8.21956528789659 6.478869803370293 1 -3 3
918 2 16.818660395790033 5.4173313480918175 4.79596059989797 3 2 1
480 2 12.963363689805893 2.0170734544215128 3.5016552119235933 -2 -1 0
517 1 10.734804520207112 2.337930659012521 1.2682058241447172 0 -1 -1
86 2 12.120991196511842 9.666421921100888 4.404915111750656 1 4 -3
65 2 11.073082386334885 2.0718824081581557 9.003101958379922 0 2 3
396 2 18.32257604408066 2.2817061838523287 4.225731093046221 -2 -1 -4
406 1 9.224786533186073 7.219937794626998 6.0871940470807315 5 -1 -2
792 2 8.159718953949076 1.1472155534947892 2.9855631264361695 -2 2 2
524 2 2.2877005070211016 2.8013978609198418 8.471358639162702 4 4 -1
255 2 9.516082203898188 8.554540435479318 9.52853273961946 -4 0 0
651 2 9.83725225031768 4.802456814992152 8.512151134267373 -4 -1 3
478 1 12.833137725704281 2.748525297429798 2.8791124473666274 -2 -1 0
479 2 12.530137063622464 3.4677656242177317 3.6093858840559405 -2 -1 0
619 1 13.957328690794643 5.800506929868266 1.9616797022653079 0 -2 -3
221 2 9.261343909594752 0.6888641537193902 8.044184921925932 -3 1 1
57 2 5.693623787629618 1.9684709996144942 6.700674256896514 2 -4 -2
92 2 5.218883894069249 6.703367346615012 7.527168125769031 -2 -4 0
407 2 10.208544041287102 7.172632971777063 6.05068891920892 5 -1 -2
418 1 11.71225872377303 6.8079776712478175 3.506081734972616 5 -1 -1
321 2 5.087147753482638 5.767085124062407 4.844527199814497 4 3 0
556 1 5.401995607876864 8.912788713877081 5.116300900915996 -4 1 1
495 2 2.9432665135963676 6.50978068239277 8.358661971637808 1 0 -1
282 2 10.415725560809129 8.19125161096473 0.6815224056768349 -1 0 0
549 2 13.840785093560008 4.171816971272951 9.294586684906667 3 -2 1
493 1 3.331276124382253 6.433477500719676 7.457050778590944 1 0 -1
697 1 18.223915789926636 3.9501370682861427 8.713036951733752 0 3 2
420 2 10.960163228949616 6.290547697139038 3.0810980974687054 5 -1 -1
570 2 17.019904399406336 1.4111612877337465 8.720061108679365 -3 4 4
222 2 7.804273820813127 1.229881543996123 7.656576881608728 -3 1 1
702 2 12.671567222105239 9.908031877507534 8.145508479792033 1 -1 2
41 2 1.2441173013857887 7.457252003341973 3.1026420827537873 1 0 0
807 2 0.272140521256352 4.621924099832432 2.092304614728404 3 -2 -2
912 2 11.461792468736038 3.77431061927932 10.015408916017382 -2 5 3
657 2 17.405478585155215 8.025112323939073 6.142107216358696 1 1 -4
281 2 10.549047857730189 6.559694522027651 0.8060775789782751 -1 0 0
834 2 0.7747384862572239 5.222298504341753 5.727442569324188 3 -1 2
354 2 17.360593480615716 0.5052598109885817 2.9322272759881476 1 -2 3
568 1 17.798026753757075 0.8858285141177665 8.651677909954502 -3 4 4
124 1 10.304828754608485 2.7250134921882934 5.76534905842168 1 0 1
726 2 19.746743217379777 7.84831998599031 5.870982970830033 2 -1 2
778 1 7.506638346373003 9.787731695837888 9.457813765878775 0 -5 3
862 1 7.872140580341201 3.4587555440850624 4.802613077255366 0 -3 2
171 2 14.52802836496815 3.0010654414832096 2.1085166930836534 -4 0 0
139 1 9.85181448513073 9.799407857458615 1.1261323194030997 0 1 0
641 2 5.054150768076933 2.724646465575411 2.3916115350204676 2 1 3
972 2 15.192080479853857 2.7405049026441395 8.686990543126763 -4 1 2
863 2 7.491830925569597 4.3367675327578405 4.709740329020686 0 -3 2
144 2 6.638262711251729 3.486467880035348 8.183113991999745 1 -3 0
658 1 7.5986624377876755 9.187774667375951 6.8765675416454295 -3 -5 2
780 2 7.756085231090443 9.816947343910785 8.543092826773664 0 -5 3
805 1 0.34587278735093335 4.39810739682481 3.0421731419313107 3 -2 -2
699 2 18.75778645266596 3.556214882121864 7.978189146273252 0 3 2
936 2 11.41657059353045 3.8220239396209985 5.069074391407012 5 2 0
677 2 14.441524851041079 7.188805033646001 5.439485034128138 1 -3 3
487 1 1.3714235103221812 9.935869822595663 9.037912956632661 -1 -1 0
419 2 11.45817842400297 7.664454581325587 3.936943647201858 5 0 -1
483 2 13.205742400471767 9.258967171760446 10.076774136642468 4 2 0
64 1 11.019030946572812 1.090824350049557 8.96364383057723 0 1 3
916 1 17.750524704172687 5.456325322253044 4.756369613710595 3 2 1
91 1 6.178715585662153 6.684768186469566 7.688794242729512 -2 -4 0
592 1 7.9372373666589215 5.939080986960397 1.6399112465863517 1 2 2
696 2 4.987480628175398 8.468511063898099 3.3782728498791266 1 1 2
264 2 14.579496605048712 2.0776505033365034 5.224057755532709 -1 0 1
319 1 6.0047121040603315 5.948993835926382 4.914879882204943 4 3 0
360 2 16.78388004944222 9.316024687785806 7.723961203997212 -1 0 2
497 2 16.58123896795892 5.0144477474131435 8.534165576124527 2 -1 1
388 1 0.445541049301294 9.365266128836538 5.841361058432217 3 2 -1
802 1 2.03935312070568 6.8558527898170105 9.86224200076541 0 3 0
125 2 10.197083116099357 1.7924501289438508 5.619102210626481 1 0 1
523 1 2.5320576261583847 3.7350245763873104 8.223426958140253 4 4 -1
330 2 3.0310673420035696 5.842356217547781 3.598136607367501 1 0 -3
806 2 19.911515111494822 3.5071387271195613 3.1903253854546967 2 -2 -2
496 1 15.959922015202189 5.725104632429243 8.31807868887248 2 -1 1
621 2 13.631950290864784 5.095241085300039 1.3574618834719194 0 -2 -3
768 2 1.8815662028789215 1.5296140634070785 4.1093334771014 2 1 0
176 2 10.63704562058927 4.034946717339448 1.5618204608357744 4 -3 1
527 2 1.8325585250413463 2.1133832933676686 1.555294730396874 0 3 -1
676 1 14.214756821693259 7.998004341889143 5.970988661920242 1 -3 3
572 2 14.640240859615075 5.2312448769472475 3.689208831977839 0 1 -1
108 2 1.9637227824884198 0.47084127554663135 8.907225875065233 4 1 0
292 1 19.691307068525667 7.18604624972598 3.1908570504797686 0 -1 -2
640 1 4.871996930701716 1.7294155632685826 2.359232229696857 2 1 3
694 1 4.854341266686113 8.400796482396611 2.3760067576093666 1 1 2
147 2 19.720312246711828 1.0562889282299595 3.1665053753605705 5 3 1
528 2 1.0859524466863708 1.2383046911060018 0.51067702068912 0 3 -1
557 2 5.932464938424051 8.746297720420234 5.893198909449534 -4 1 1
505 1 10.82183117923787 0.20294999083011694 5.656294805848461 -2 4 -4
772 1 13.442484584349288 10.078028595751022 3.337702503010392 0 -4 -2
157 1 6.191851764806752 7.696583660860961 0.2867101447254255 1 1 1
324 2 4.697840817630103 10.049992564443905 10.059092946925235 1 -4 2
858 2 10.229759622836907 0.8698301156371795 0.31942619606488326 1 3 3
844 1 7.098600549764451 2.780998467177197 0.2649311596431357 0 0 0
754 1 2.2862771256064143 9.978180812761519 3.738470280345142 1 -1 -2
96 2 17.576892983683 10.201756170023403 4.33517953769992 0 -1 0
154 1 7.107775786688688 7.221743478271235 10.182999980552607 0 -2 4
358 1 16.87590169842378 10.173851895584118 8.16803967728766 -1 0 2
389 2 19.963796062347583 10.14512616615324 6.16927780063445 2 2 -1
744 2 16.259685755009485 6.187288709748878 0.27353826554112487 2 -1 5
213 2 15.81479684232253 10.119463620736296 0.42037693943026744 -1 -3 0
463 1 15.447012692610251 7.785031711340655 10.157300912846015 -2 0 2
8 2 19.27784023896176 3.616501243558975 0.29033956312894843 -2 3 0
851 2 0.29091992197218364 1.7632399839276858 17.831112483261432 -2 0 0
413 2 17.884121488994843 2.0295099461392008 13.248042086928804 2 -1 -2
484 1 16.620265753092728 4.064438314696914 11.559691690144207 -1 3 0
628 1 14.47592446168304 9.752768409112937 16.036202871502 -4 2 -3
669 2 11.386681760977883 2.749553845822849 13.08995818512727 1 0 1
127 1 7.9652959947711 4.811030753109741 18.9264290003935 -4 2 -1
847 1 9.504007170156859 9.908589176348663 11.180969256680319 -1 -2 -3
817 1 4.658521038134466 4.148031170638327 17.41448406320783 0 1 3
351 2 2.176184357672486 4.3041596940329105 13.11590466578308 1 2 -1
470 2 4.181202093884982 4.199237142548437 10.576304528038994 0 -3 -1
923 2 3.2228223518869754 8.321949963568539 20.063023345278634 0 2 -1
48 2 9.686942173337838 6.489383917134663 10.826040884110158 3 -2 0
304 1 12.969452175187445 1.9284404246362803 16.692204078481367 3 3 -1
615 2 3.523813872718293 1.8539724444092887 19.976865719974903 -1 0 0
36 2 17.936733914972507 8.890080081058931 14.51637548467463 2 1 0
751 1 7.011735511792452 10.044978040345574 15.961990226420527 1 -1 0
952 1 8.914479492083231 7.258559650633276 18.475378233023104 3 0 4
59 2 0.7238149598775379 10.012524385067875 18.01686704667633 3 0 0
786 2 12.38732369056587 4.522009744670664 11.919885185663755 -1 -1 1
683 2 6.251309541817863 3.075723949809868 13.609445689607954 -1 3 1
15 2 12.349162351991234 4.567367973049468 17.732569024947473 -4 0 1
3 2 13.039840736735334 5.0600947181487586 15.320702441154847 -1 0 -2
738 2 18.765727640014212 1.7192016964344825 19.512542145837156 -1 1 -3
385 1 5.712690242746024 9.199599636119078 13.569749238319655 -1 0 1
857 2 9.25064783735499 0.2846933893684811 19.385067771890053 2 3 2
550 1 7.208403977702585 0.5184955976674102 15.277437036387857 -2 -2 3
930 2 0.9697748893703987 9.427949547799727 14.255518720117319 1 0 1
545 2 8.101646638244471 5.105233130778976 13.877083342773751 -2 1 -1
1 1 12.956918390527774 4.935674633655494 14.297918695796167 -1 0 -2
11 2 15.964279896262898 4.124031619646964 13.3819349170715 -2 -5 -2
387 2 6.516908256432983 8.699293038438585 13.375789124314316 -1 0 1
687 2 5.3217028280971865 6.213239415848731 19.9904958575551 -2 0 0
919 1 1.7853207494325183 4.600156961974521 19.02515130823585 -1 -1 -1
386 2 4.976163209652787 8.583308562496349 13.740260206417123 -1 0 1
343 1 3.625693678759357 7.645617235720503 14.353906553442432 0 5 -3
932 2 14.930365928651648 8.111381276183504 17.173631050869506 0 -1 -1
750 2 1.4726863505506986 2.2320336218653107 14.266225700269139 1 0 -1
193 1 0.4463537680200532 6.421047715302164 15.983264077058278 -1 0 2
207 2 19.599427012001716 8.229354928567549 13.57662864294677 -1 1 -1
258 2 14.857649846129306 0.3946066343779957 14.280581955683806 -1 1 1
742 1 16.765541582083806 6.177005137982172 19.498466178243728 2 -1 4
46 1 9.886088185866306 6.029012450361483 11.715206714678231 3 -2 0
690 2 5.901953806054661 7.916741957946959 17.002860039169462 0 -1 3
357 2 12.684936868656676 7.330571100864146 11.108308605189112 -2 3 1
689 2 4.369062168090617 7.584732162955165 16.798162141552933 0 -1 3
305 2 13.296132856245665 1.7177210178980815 17.568003133904963 3 3 -1
841 1 18.2828157582337 2.91007772627802 14.659906642388915 -1 5 1
872 2 9.74153170715788 7.103138769159437 17.05620422306506 0 3 -1
871 1 10.18785841434837 6.529061151541694 16.359163273453635 0 3 -1
184 1 18.794168276835595 4.738494678676408 17.303823724300404 -2 -1 1
306 2 13.626200827991738 1.5124746985741115 16.11107622253844 3 3 -1
349 1 2.2684343675684806 3.3507431956860065 12.920497242038675 1 2 -1
749 2 1.0325059306089437 0.9076789619652178 14.854938869839359 0 0 -1
672 2 2.2856107342826677 3.020383728436663 17.36134082122408 0 -1 1
512 2 16.245373221130095 0.8919645854172773 19.54269934899036 -4 1 -1
206 2 20.19567032949443 8.9040556997451 12.320029763031535 -1 1 -1
865 1 16.6105958348683 3.5493978088148754 18.718087852155687 -5 2 -4
842 2 19.09472911716956 2.425009764692917 14.901033064647937 -1 5 1
180 2 11.853355797271666 6.32690337084163 14.083982816442642 -1 3 1
256 1 13.932028475741221 0.5532972600048245 14.465394206294208 -1 1 1
377 2 8.967044613309623 8.344702716769795 13.903174363296875 2 4 -3
243 2 0.31379498572933096 7.60339878972543 18.108990512976572 1 0 -1
873 2 10.301909061339947 7.00277714901254 15.496596598692873 0 3 -1
668 2 11.020077312096003 2.16205508104618 14.504241871830871 1 0 1
133 1 4.806259568869743 0.8694648461010392 16.907930397172194 0 4 0
584 2 8.003694681647978 1.71877898307226 18.941710337404178 0 3 -5
606 2 7.947547895316845 6.763180356934461 15.908421324731789 -1 -3 -2
135 2 4.033930958610559 1.3892822978113069 16.767293513975236 0 4 0
29 2 5.024275628308469 6.583580479297417 13.049101002526335 4 1 6
643 1 3.8629962750532325 8.830985339363485 10.894900679751416 0 1 2
409 1 13.667618980195133 8.29106696839705 13.906609000016005 -3 0 1
583 1 8.319188460226545 1.023008906036778 18.345742247360782 0 3 -5
731 2 1.5016723291726322 3.784464283531232 11.073390065200174 2 2 1
685 1 4.596051732235944 5.5702790202270025 19.818134626756603 -2 0 0
58 1 0.2275707318972326 9.435456849451828 17.454665724591862 3 0 0
819 2 5.591297097567727 3.808646158094665 17.356208775809716 0 1 3
818 2 4.626254464210442 4.646893202644065 18.249398649351026 0 1 2
605 2 6.575859953582282 6.0926511678162525 15.751976278718322 -1 -3 -2
730 1 0.8022045994922017 3.9580770426848204 10.399068979800605 2 2 1
411 2 12.755439927688986 7.938415704018198 13.846897847553233 -3 0 1
376 1 8.291292344600521 8.471813528015646 13.250052302888474 2 4 -3
867 2 16.732130908799387 4.500015772414513 18.82660914426995 -5 2 -4
35 2 17.94400690274225 7.518528645042376 15.38034663053131 2 1 -1
412 1 17.76550355980072 1.5548487596796943 12.354702884895607 2 -1 -2
47 2 9.345951667051429 5.274551745832396 11.551278822219954 3 -2 0
713 2 11.387371643733886 10.092163851315513 18.48660675058816 0 1 1
440 2 13.801800878415678 4.406580955602797 18.996369868398453 -3 2 -3
325 1 16.463128727698017 9.211979521962187 12.811930282944653 3 -3 2
671 2 1.6298339416191971 2.042722043083364 16.228667027214573 0 -1 1
241 1 0.514597468086532 7.134801277051749 18.922303599190176 1 0 -1
414 2 17.067003826663605 0.8621545239934183 12.527546646710599 2 -1 -2
34 1 18.48878178756632 8.26773052403676 15.056519222736226 2 1 -1
350 2 3.210118471324134 3.334287846658996 12.576520779385715 1 2 -1
789 2 9.827762229425673 4.416308514780702 18.652544200317056 -3 3 0
955 1 2.973567795956927 6.408410588445809 16.874273825815894 3 4 2
684 2 5.666783581933593 2.892447076255552 15.028834803400002 -1 3 1
39 2 7.203932558138963 4.325151635441403 11.928629378101888 7 2 4
178 1 11.313408119551301 7.173125220027478 13.985901656938928 -1 3 1
714 2 10.199596349963407 9.915397907961637 17.434995923587266 0 1 1
613 1 4.348820492854975 1.8144996541055192 19.551379291030425 -1 0 0
202 1 13.338302601903813 9.41428818601198 18.604425430698864 2 -1 -1
850 1 19.417024315541255 1.5932922108598824 17.77524821692254 -3 0 0
156 2 6.595479751820268 7.136760465822072 11.003923145949642 0 -2 4
115 1 10.38502426537773 1.6332694065259317 16.405747933718885 1 -3 3
30 2 5.067708834121927 5.918208733275378 11.692297486357267 4 2 6
509 2 16.083269464729558 6.303587085906327 16.407354588644104 -2 0 0
242 2 1.0081115484453667 6.320368707798107 18.746063939044582 1 0 -1
365 2 18.845334450353235 6.423496003196264 11.122052671504107 2 -1 -3
933 2 14.127545065132106 6.922096558406166 17.74597423984855 0 -1 -1
195 2 20.032689238550052 7.188940551689768 15.776218903217732 -2 0 2
544 1 7.3129164587738265 5.513368593145831 13.394508366527644 -2 1 -1
688 1 4.986596791764201 8.245075368254845 17.160096417939513 0 -1 3
14 2 13.313904781336738 3.586889082229992 16.9324560706756 -4 0 1
937 1 6.994986515294136 3.347108617920881 16.62792389636618 3 -1 -2
957 2 1.9873687570580034 6.548798745712447 16.66356476048537 3 4 2
356 2 11.425810158531428 8.083073046328975 10.615038304342994 -2 3 1
410 2 13.82863878465431 8.567370490144391 14.766818172725609 -3 0 1
920 2 2.598137163720291 4.133989471926638 19.33340590177364 -1 -2 -1
670 1 2.2043399958940855 2.0649066546431483 17.123954764714366 0 -1 1
743 2 16.150946923886256 6.559424467958157 18.861572865124078 2 -1 4
185 2 18.805866569194485 3.763051144528652 17.316647182623708 -2 -1 1
12 2 14.606138767464492 4.364258511999328 14.083388276917905 -2 -5 -2
150 2 20.16152090972806 2.382218099730098 10.332443841089695 2 2 1
116 2 9.92845523667181 2.2664675056655694 16.945934750015734 1 -3 3
445 1 16.155755137682977 2.4369494927543833 16.39725536820407 -3 0 3
129 2 8.22801764506433 5.730273844883801 18.77175951979221 -4 2 -1
732 2 20.25734015752632 4.654624102919131 10.774095669496246 1 2 1
128 2 7.517267197772903 4.529807181774941 18.127782843531495 -4 2 -1
232 1 9.591339418109076 9.596965216262179 15.706248912638149 0 0 4
875 2 9.70604568543602 3.9648598274345037 14.593059951286165 -3 -1 -1
748 1 0.844130979424925 1.8721706724231129 14.903298167766698 1 0 -1
614 2 4.293132608746972 1.5916947768015983 18.58727009433253 -1 0 0
13 1 13.161184053160344 4.544273169771696 17.186853743555975 -4 0 1
378 2 8.761347082551557 8.821158045825738 12.430986147573442 2 4 -3
437 2 9.293831161963041 0.8526841871150038 12.126780423049594 1 3 -4
604 1 7.1357184944040615 6.529144602685043 16.430695028015457 -1 -3 -2
953 2 9.593411307902008 7.3061320417582705 19.266966403377324 3 0 4
645 2 3.254895082969842 8.307464432023778 10.294786333074658 0 1 2
345 2 3.8395018287536553 6.828947745937211 14.791527045518404 0 5 -3
9 2 19.1371839055445 4.762307195657813 19.269590826241128 -2 3 -1
436 1 10.042015859025577 0.35866256546486336 11.777379241337124 1 3 -4
788 2 10.799194148883041 3.62902041560917 19.491202654197103 -2 3 0
469 1 4.497577294962586 4.20833625662925 11.454168051183105 0 -3 -1
186 2 18.076622208155033 5.153734086837523 16.806055102228086 -2 -1 1
432 2 11.758521073376869 6.740375104204747 17.20331653887295 0 -3 -2
458 2 4.695158202450194 4.947943800237038 16.062152845323332 -1 4 -1
736 1 18.177470896059624 2.036590862320459 20.237000165917514 -1 1 -3
211 1 15.60127336240726 9.32357285422133 19.985867541531825 -1 -3 -1
366 2 19.2414438182659 5.524837719873468 12.294037047890784 2 -1 -3
205 1 0.3247899336159509 8.342237032622364 13.092035077667472 0 1 -1
546 2 7.724708450034086 6.3543606283122145 13.00225769047691 -2 1 -1
117 2 11.343453338725096 1.764267987873022 16.632596452004268 1 -3 3
446 2 15.86342679117125 3.191745458114423 15.863026103448485 -3 0 3
364 1 19.07381452213496 5.460003106404831 11.318929931973294 2 -1 -3
200 2 4.050930658275144 1.0466885017447798 11.523157345255948 -1 -1 -1
846 2 7.273006410810831 3.6831364135542897 19.98237592202521 0 0 -1
485 2 17.473574274298915 4.5275495395081 11.561488064421162 -1 3 0
764 2 14.119059569069105 0.7304892055349098 19.875951901144326 0 1 -2
925 1 19.769061367463973 9.943698632090106 11.219774310379387 2 2 -2
813 2 14.462106661026654 6.9434142700458725 11.30904479193807 2 -3 1
752 2 6.657254770768045 9.750489475604153 15.122939650684113 1 -1 0
804 2 1.9479652979345579 6.1872727694791285 10.5579853598231 0 3 0
530 2 1.132755101824272 6.5808147564610024 12.891474593109734 -1 -2 -2
194 2 19.94419439504171 5.801020611158214 16.528105466432443 -2 0 2
204 2 13.080642892982866 8.553126030545272 18.427277897864666 2 -1 -1
812 2 13.819000099699307 6.701147051214873 12.720958436699508 2 -3 1
234 2 8.630401580738981 9.822171024697454 15.824123095648439 0 0 4
37 1 7.2042755707906885 3.427827833178556 11.439712899625022 7 2 3
787 1 10.669540999292902 3.8945641501294954 18.575012496197797 -3 3 0
233 2 9.899768419202992 10.176890818151502 14.938269081505048 0 0 4
6 2 17.001534000266037 9.124907225217173 18.5416072409604 2 -2 -4
212 2 14.739776101537243 9.576169586611968 19.53840405393875 -1 -3 -1
874 1 9.01359403541576 4.349396182070082 15.206742511829562 -3 -1 -1
924 2 1.9946381599773821 7.428678489175428 19.88295886247896 0 2 -1
931 1 15.008663031958923 7.229488981789987 17.585486297046533 0 -1 -1
459 2 4.989644112390553 4.545087871589382 14.6414197005379 -1 4 -1
296 2 3.9459064286409404 10.082746506556221 17.003134390700225 1 0 1
843 2 17.73825689923216 2.7216583112717547 15.453022252660848 -1 5 1
136 1 19.418756020704546 5.166696656982519 13.82673693732712 -2 2 -1
785 2 12.963057526452783 3.291039870260332 11.240167718366925 -1 -1 1
921 2 1.0530183053030828 4.3501863762134985 19.623913131451506 -1 -1 -1
4 1 16.964635386155273 9.492170748464504 17.630653685479945 2 -2 -4
38 2 6.968626207323431 3.6749537136782564 10.544217754050937 7 2 3
165 2 4.726239593174087 8.988848911353509 18.569226859558096 -1 -3 0
811 1 13.858995726599531 6.314625101482397 11.806716775988322 2 -3 1
149 2 19.044212083907105 1.5804194509523422 11.19096404798245 2 2 1
486 2 16.880733933268584 3.1584892381599987 11.78590537226915 -1 3 0
529 1 1.9735453139827086 6.1222955141857245 12.642063651435036 -1 -2 -2
23 2 7.330320362829191 1.948957354429967 12.097152805771575 -2 -2 -2
131 2 4.379376453687379 0.6400857331390752 13.73482444942243 -4 4 1
630 2 15.360597115685346 10.154536755992046 15.757097175897664 -4 2 -3
137 2 20.090120405588326 5.510828896451592 14.446094146322979 -2 2 -1
179 2 10.933250662519438 6.964938998182819 13.084866897269038 -1 3 2
784 1 12.12273732432392 3.6098251561321932 11.617897195349515 -1 -1 1
711 2 6.922865990157128 9.338175011065069 19.477020463743834 0 1 1
355 1 12.348474202914856 8.210906142246264 10.85229235921654 -2 3 1
431 2 11.703002023918074 7.158743189245109 18.68739238072624 0 -3 -2
954 2 8.392427781536819 8.119153183956884 18.53947370743164 3 0 4
644 2 4.273031167371369 8.102516103599664 11.391128967125681 0 1 2
138 2 18.8987114308689 4.500524705538547 14.298647291309281 -2 2 -1
956 2 3.060029757474318 5.682066501632422 17.575863883891465 3 4 2
710 2 7.134605271660438 9.701414304856877 17.850110905011967 0 1 2
2 2 12.35716492909919 4.188664231688506 14.107082646519142 -1 0 -2