LAMMPS data file via write_data, version 8 Apr 2021, timestep = 916000

1008 atoms
2 atom types

-0.4820000107421535 21.154526667978953 xlo xhi
-0.4820000107421535 21.154526667978953 ylo yhi
-0.4820000107421535 21.154526667978953 zlo zhi
0 0 0 xy xz yz

Masses

1 16
2 2

Atoms # atomic

999 2 18.351524950084073 7.4500855314393455 8.872284795745694 -1 2 1
100 1 15.117717523681764 6.414672132493936 3.7250235898155575 -3 -2 0
487 1 19.173226810176942 6.019608078477821 9.062326184341064 0 -1 -1
105 2 17.99266113084124 6.853382721013491 3.269824481105059 0 -1 -1
369 2 6.424814329948592 1.9224199336363483 5.6986660790001755 1 1 -1
553 1 4.523776542760248 0.01324680351088503 0.9202275416224547 0 -1 0
119 2 20.571220612196157 1.163152257792266 6.429420883807804 0 0 -2
82 1 13.925809657173431 0.274857059722613 2.807659179682482 -1 0 0
563 2 3.241711161056182 7.813651948087802 8.807265549220116 0 1 -1
831 2 12.921001097909906 4.801163761086136 5.440903523046547 -2 -1 0
830 2 13.243560697608503 6.019972129404118 6.389910505791131 -2 -1 0
962 2 2.805059031874727 0.22094304873897952 5.318612333031913 3 -1 0
975 2 6.893191010598885 8.79969830275335 4.65688062683441 -1 -1 0
745 1 20.69159051703279 4.37289833488857 2.0329533207552033 0 -1 1
714 2 17.55740770905851 2.5033187411919795 -0.2372098797675821 1 0 1
545 2 5.468975749023732 3.4018046704352605 4.26528227088168 -1 -1 0
815 2 16.928881677092892 3.464523271585903 3.6505147980160118 -1 -1 0
694 1 5.209776292255377 9.449463828908252 7.057394190294923 1 -1 0
630 2 10.119473408927819 3.233397422830738 1.3707332969073527 0 3 0
175 1 5.297629194876544 1.0811419580522714 6.83323270994104 1 0 2
112 1 0.5228239982924613 3.519872952598377 5.63154304405419 1 0 -1
483 2 4.621403736022889 5.673600491713806 1.530567521822735 2 -1 -1
746 2 20.648880193033055 5.0030899131140565 2.808367579806312 0 -1 1
879 2 8.358303409575807 2.005348377273672 1.9899653038379392 2 1 2
829 1 13.118121937119112 5.739605004860294 5.41668777694914 -2 -1 0
93 2 0.6825903376563923 8.803146898208915 5.7388513255936235 -3 -2 -2
973 1 6.613293353698281 8.064479162480941 5.219710600798688 0 -1 0
744 2 12.687614240092463 10.240059270616388 4.376000985810062 2 -1 -1
171 2 3.219298294347089 5.214837430231959 6.277355561487863 2 3 -1
257 2 19.649420402763084 0.4953450851241771 3.3379886461841677 -1 2 -1
958 1 14.950797634157714 9.101969756447577 2.182535934471168 2 1 2
579 2 0.5763142058750291 4.1327353812452845 1.2930707515281885 0 -1 1
884 2 8.508128743844146 5.102128919598945 6.3081800388788265 -1 2 4
961 1 3.1807886962784755 -0.4297426767711237 5.976492313612361 3 -1 0
843 2 13.007885651419166 0.551556454146973 9.493354143247624 -2 1 -2
92 2 0.6705742279901309 9.636730393564955 7.149875939379757 -3 -2 -2
544 1 4.859312334638646 3.9163382274051055 3.6609788311896363 -1 -1 0
584 2 20.27394401627538 8.357079869259156 0.2945549955892647 1 0 2
528 2 11.196534899449253 6.680011151791099 2.8233695527250573 1 1 1
546 2 4.637658219776929 4.742887984453814 4.145693274001248 -1 -1 0
103 1 17.920449562533058 6.601362051292072 2.294992945836053 0 -1 -1
417 2 -0.36483876619924593 6.435164413816096 4.325855643440662 2 1 0
877 1 8.717715828100618 2.3387055329144126 1.143140747729734 2 1 2
841 1 12.728111234150001 1.1471901043594475 10.226848513088623 -2 1 -2
605 2 19.077072888675236 5.7303793536778205 7.2692898257474745 0 -1 2
461 2 1.3447222900938307 2.240982571065994 4.832030621876382 0 0 1
885 2 7.619858869751422 3.68696481885943 6.0086558543202955 -1 2 4
663 2 19.93138293774545 2.8142893919049934 2.751140961552805 -2 0 0
756 2 6.361177137681269 6.88591601864244 1.0522255724843197 1 1 2
933 2 1.4645740935012501 0.7406465826061913 -0.03611271066211624 -1 1 0
606 2 18.239109584205433 6.142036864686355 6.024954227317727 0 -1 2
668 2 18.79655958053999 2.5601212579685257 6.904403732510418 -1 1 1
237 2 1.17560412944336 7.721754353689452 4.066768283632954 -2 0 -3
833 2 19.664095322750242 1.0740025548416314 10.059408269809548 1 1 2
144 2 14.104212194744319 3.5827414730849783 9.162847164645562 0 -1 0
825 2 6.468901822431999 4.551374676647117 0.6362948986667594 -1 0 0
974 2 7.465159116644008 7.746704324922094 5.594650460765266 0 -1 0
554 2 5.089287561329709 0.6672506449418069 0.37298032639711687 0 -1 0
705 2 7.134016037036699 4.31505997405268 8.097609103060973 0 0 -1
953 2 9.620090125220424 3.471188961248633 7.1989765848443925 1 2 0
101 2 15.328823325834598 5.647817248027203 3.080286727553947 -3 -2 0
214 1 12.820156035754145 -0.335157121742077 8.12169733255846 1 -1 -2
585 2 20.253045811075317 9.04320203104498 1.7060747308555582 1 0 2
231 2 3.67062351637277 6.783824375186604 4.709192814128323 2 1 0
612 2 11.476965959912437 9.64361758579344 8.042772979210858 -2 3 0
568 1 20.994185157504614 2.005386456153503 9.546157232097874 -1 0 2
367 1 6.707915101491175 2.5552379289655547 5.004843507227537 1 1 -1
368 2 7.115694317537731 1.963700722235918 4.331574139220733 1 1 -1
155 2 18.17666317875685 9.553162533410005 0.9601038371250475 -1 1 -1
747 2 20.155574295623598 4.722892278078059 1.3024840000524527 0 -1 1
168 2 11.468010627331566 3.5190469826013264 -0.11688949014446544 -1 -1 -1
463 1 9.480322117659757 7.093680157882363 8.652034614396173 1 2 -3
169 1 2.551914810458275 4.787216315108007 6.853988486912522 2 3 -1
68 2 5.190648157445757 6.94115344952525 9.844835948715986 -2 1 1
246 2 4.068286497078939 9.954044989069786 2.134513596321229 -1 1 0
792 2 12.361394825918412 7.701705168715025 9.281504419276489 0 0 0
481 1 5.587958732516971 5.543642466817638 1.7384067716017169 2 -1 -1
878 2 7.996942302256201 2.8525783758190806 0.7271716078128645 2 1 2
235 1 0.24763325516597434 7.891928438297279 4.4104228858310215 -2 0 -3
869 2 10.122089590943839 0.034797831611332763 5.356716412213991 -2 1 0
628 1 11.064841490835782 3.5371661039973454 1.433658088364964 0 3 0
802 1 10.590222185827963 10.120815315328896 1.2917806842508213 -1 1 -1
318 2 9.151815289135806 6.887210102363652 6.92254546240421 1 1 0
754 1 6.583099709601357 7.720215200213204 0.5703222018546904 1 1 2
104 2 18.542302322263584 7.165409020255924 1.8212715537924342 0 -1 -1
979 1 14.92831112784539 0.6537757411509638 0.39516702574750673 -1 3 2
346 1 15.609337590548625 0.690641673882202 4.805311086292824 -2 1 -1
460 1 1.7565726565906479 1.4809327883895782 4.37336677704535 0 0 1
229 1 4.274959294194112 6.188910947881199 5.139292729809316 2 1 0
91 1 1.1903622495694406 9.099300913591753 6.522816817056706 -3 -2 -2
883 1 8.115109164233223 4.260992555315253 6.677004873555582 -1 2 4
416 2 20.10866643773688 5.540519672584147 4.874621158230163 1 1 0
708 2 1.3316577547734751 6.84515430892932 8.708153875206024 0 1 0
47 2 3.871766002073198 3.0184107198295087 2.624502524954674 3 -1 2
176 2 4.817572354345304 1.754184508502186 7.341726365496039 2 0 2
48 2 3.767135363740764 1.6589161895019515 1.987427903828147 3 -1 2
316 1 8.895514525623597 6.635118283632785 6.002748319546275 1 1 0
743 2 11.948717942750768 9.884266291366652 5.811729416401221 2 -1 -1
526 1 11.14779227373978 6.255830234734065 1.9185068610362845 1 1 1
230 2 5.077585542337693 6.724484177482789 5.258127084308578 2 1 0
751 1 17.59088211066966 9.988390905592082 5.317200788607148 -2 -1 2
170 2 2.2900124576493264 5.577571321206377 7.4301939493981255 2 3 -1
669 2 18.27380550247812 3.9789727457533286 6.791720062409327 -1 1 1
215 2 13.299919356356767 0.31373726626453924 7.611828740618767 1 -1 -2
966 2 13.313872589476054 5.5300217249218315 8.52394346450886 0 1 2
699 2 15.807616946931079 1.8741188183377093 8.930117878756613 -1 1 0
755 2 7.536829772504415 7.756471389312949 0.5282109783939629 1 1 2
84 2 14.349836990029496 0.533386482467073 1.938599995102695 -1 0 0
142 1 13.193889777826795 3.8849282634610103 9.234925719321204 0 -1 0
46 1 3.196060180040785 2.3910094600195615 2.2729711350163284 3 -1 2
177 2 4.611921949013468 0.44458919482626924 6.5845178994736235 1 0 2
790 1 11.672900351534071 8.290368811671106 9.629870559266312 0 0 0
730 1 15.952957728942545 0.552140349547061 9.825195419645953 1 1 0
997 1 17.937229434799114 8.315302403174256 8.991150025418289 -1 2 1
495 2 9.753775777648427 8.521930977925395 0.9073959717436589 1 1 1
981 2 15.441707331090821 1.4941696235998507 0.4066263635877453 -1 3 2
113 2 0.14295109583392385 4.31192369589977 5.143232077912529 1 0 -1
759 2 3.0255133769653733 8.340625120859407 3.1645755848288286 -3 2 0
382 1 13.115486367693114 6.7344291237743565 0.0947178111104762 -1 -1 1
383 2 12.580639705345792 6.384224564891948 0.848438464749111 -1 -1 1
570 2 20.80127542456667 1.9659193185395942 8.58057852233936 -1 0 2
286 1 4.169922375570344 3.0032248168658024 8.289494195824021 1 1 0
279 2 6.283238268526587 0.07091302930486032 7.821718464011942 1 2 -1
696 2 5.753163637275686 8.865969893525676 6.47209916872152 1 -1 0
83 2 13.13812485058456 0.8806138237379945 2.8015346322959127 -1 0 0
14 2 12.225153069915574 2.692058344006754 4.866568677560828 2 0 3
771 2 19.417752158178462 1.7189321934494224 0.8267613746220948 1 1 0
69 2 6.020260558327884 5.615325316340187 9.770456752932983 -2 1 1
56 2 10.14690323581399 1.1501642114839123 7.40102236675529 -2 1 1
690 2 17.436705818528942 8.218124461120482 5.022707168437712 1 0 0
238 1 15.09028570677942 8.207376981587538 9.06070506810104 -1 0 1
464 2 10.21185219876369 7.667806075839577 8.960973737265105 1 2 -3
866 2 17.23762214425012 5.1736315375756545 2.168867560667115 1 3 4
341 2 9.036358710988646 0.818805973636544 0.3707791210476551 -2 0 -2
629 2 11.026112315037683 4.519891004425745 1.6958912033599096 0 3 0
707 2 1.6250539065339873 7.8386849268851915 7.404493228665147 0 1 -1
583 1 19.70971383031713 8.548916607543621 1.0658254751123202 1 0 2
348 2 15.007143769709252 0.5781096604649657 4.006707184028061 -2 1 -1
697 1 15.73087052534999 2.756621291954588 8.472950572119816 -1 1 0
660 2 14.756994000266246 1.1614208888530047 6.033989740883561 -1 1 2
952 1 10.401131290740242 2.9876458001864985 7.469189427646074 1 2 0
577 1 1.5078279463341056 3.9773588907608413 0.9902327265466766 0 -1 1
817 1 12.887536673041504 9.478665189866744 0.19098103395521662 -3 2 1
236 2 -0.041195538981557145 8.662583183914522 3.8684583916429887 -2 0 -3
816 2 17.659903188078044 2.806556833956146 5.070764334518498 -1 -1 0
659 2 14.77805250196181 2.075506699950084 7.329221567994022 -1 1 2
527 2 10.359919126091567 6.6941426601815 1.4740755285410756 1 2 1
340 1 9.334220030599141 0.08050767365879663 -0.22374888736840923 -2 0 -2
244 1 3.404218245987364 9.997824008016932 2.8295250381498245 -1 1 -1
634 1 19.727269817532903 5.3651193419334335 -0.41775267828681234 -1 0 1
555 2 5.203522201566406 -0.41695579273537065 1.4998430508821892 0 -1 0
360 2 16.422821209144345 6.820622386593599 0.9517188264852504 -1 0 0
106 1 9.96500633459352 4.725227898534666 9.753636852198737 3 1 3
964 1 13.364877347290676 6.356787619751621 7.964688728288836 0 1 2
239 2 14.774576955489467 9.067233525032666 8.76855509581151 -1 0 1
120 2 21.013785348795015 2.6021844007814847 6.443351704045069 0 0 -2
689 2 16.470735174386622 7.0013646241493745 4.406370725082317 1 0 0
852 2 3.9241306884422715 1.9330614670937298 9.611896016307785 0 1 0
688 1 17.364192646573205 7.276340647622943 4.752132137166283 1 0 0
13 1 12.47972623894164 3.08943620905649 5.7345451964709095 2 0 3
698 2 16.55462745980361 2.886122391372813 7.927261372341654 0 1 0
45 2 1.0074884761307281 0.27495660365631525 3.3396616959308543 2 1 0
32 2 2.325695991956086 10.092237769996947 5.725739336355534 0 1 -1
15 2 13.098271552463272 2.3557631041872105 6.114978058882599 2 0 4
1008 2 2.360535761336248 5.490549618055846 1.1132996063172154 1 -2 1
384 2 14.057521205118334 6.765139398490861 0.36702029664024394 -1 -1 1
867 2 16.46344140604479 3.9876955452803338 1.377611045494455 0 3 4
465 2 9.70509426899229 6.160836657733087 9.012950315875216 1 2 -3
742 1 11.840970079228166 9.811469214609524 4.8134538854300635 2 -1 -1
960 2 14.362533055484242 9.0817793511827 1.4052012424588913 2 1 2
823 1 6.946710498246337 3.917124716914668 0.07431528253094792 0 0 0
564 2 4.51074212171855 8.69880689753772 8.450765090333913 0 1 -1
957 2 11.952089316538935 6.695159102609265 4.7012113784561675 0 0 1
814 1 17.23668100891619 2.704926431501618 4.1702373207127765 -1 -1 0
662 2 18.478577711257337 2.328484760618436 3.173922258179963 -2 0 0
216 2 11.927783058556793 -0.20315829758052895 7.796801766652221 1 -1 -2
865 1 16.580920144683883 4.431684463076969 2.2688633634476547 0 3 4
718 1 7.950910383120622 1.0207965018476215 3.2595179693301035 -3 1 -1
256 1 19.918689951844435 -0.4213438289096612 3.6701627597072193 -1 2 -1
955 1 11.210727347772396 7.242312849643513 4.338208647543953 0 0 1
604 1 18.94985990966225 5.52737551339746 6.338664477727381 0 -1 2
760 1 20.951052622097748 9.825116995396735 2.9281487795844834 0 -1 -2
489 2 18.881847457368494 5.37313648677029 9.758036442635866 -1 -1 -1
240 2 16.08217002838373 8.153760343341718 8.921421921410445 -1 0 1
494 2 9.415360337537747 7.724966245820392 -0.3684473257026381 1 1 1
706 1 1.9825864807495028 7.04205612754044 7.966956917736672 0 1 0
114 2 1.2324789128588454 3.906281986529548 6.252614178438641 1 0 -1
959 2 14.897189196210107 8.25452616770035 2.6850765247808788 2 1 1
55 1 10.33520379246729 0.20192868561106203 7.209183979327255 -2 1 1
965 2 14.119191790174161 6.920939245471645 8.310475694135445 0 1 2
488 2 20.024987778306492 6.322418809103471 9.462718749579345 0 -1 -1
732 2 16.863646003591306 0.6770529060796991 10.046728648737524 1 1 0
288 2 3.4425805912103877 3.5843370897430256 7.910608014982179 1 1 0
534 2 1.4697182365066248 2.875591264636518 -0.40334980605253457 -2 1 2
704 2 7.0205329369911915 3.8211542591730336 9.573929412901693 0 0 -1
1006 1 3.026638587112127 6.217602566651319 1.181739193315414 1 -2 1
347 2 16.1872075106833 1.525255487321623 4.625014900353461 -2 1 -1
578 2 1.962807432583435 3.3621242226379575 1.5697355015384769 0 -1 1
102 2 14.441746585797869 6.044046346454611 4.340210998917484 -3 -2 0
569 2 0.10590930746482907 1.4142553948557257 9.72022644512498 0 0 2
757 1 2.714185236754448 7.4482565560765694 3.4209670687163642 -3 2 0
462 2 2.3384986313895944 1.8437522399655726 3.6496461941925133 0 0 1
358 1 15.722013322899135 6.996629692945568 0.3430188452073515 -1 0 0
720 2 8.534024952800335 0.5890245340237016 3.884748166841935 -3 1 -1
712 1 16.715343469396593 2.9287815427016284 -0.12819110912798867 1 0 1
482 2 5.544815567711902 4.890313825658807 2.508465988919976 2 -1 -1
758 2 2.850808181411882 6.922006918570253 2.553668535721809 -3 2 0
954 2 11.060519738845878 3.154181807856015 6.7088952661504715 1 2 0
493 1 9.30882452136093 7.712973246236578 0.5823674653232508 1 1 1
562 1 4.016390972714537 8.26386004619482 9.208129559004343 0 1 -1
287 2 4.950983511675359 3.555771602705183 8.395857486613973 1 1 0
351 2 11.597730295394474 2.4414331976064556 2.638754285084498 1 1 0
350 2 11.204093417763632 1.2034286862080945 3.6517767888601815 1 1 -1
703 1 6.499053203322027 4.214214086821778 8.835018249022601 0 0 -1
847 1 1.214359751794845 0.40624812940056454 10.080941812733979 -1 0 -1
842 2 12.460152815506728 1.990622899994059 9.912521050529403 -2 1 -2
107 2 10.42309792666451 4.091587760291161 9.139618564070934 3 2 3
415 1 20.877410603604982 5.537414375537169 4.299048479405207 1 1 0
956 2 11.446600699620877 8.219475341411522 4.462281377647035 0 0 1
658 1 14.152193970334753 1.5374079720783427 6.7817303952344625 -1 1 2
848 2 1.1702927936416954 0.024689839248486112 9.20230114327215 0 0 -1
667 1 17.946051292045347 3.0842611938374276 6.796379755967429 -1 1 1
1007 2 2.814577165947743 6.973371089161159 0.5142905722371538 1 -2 1
661 1 19.26151687525969 2.103579655367994 2.6367687737523724 -2 0 0
317 2 9.666419833078132 6.767312644615977 5.427769002631721 1 1 0
932 2 0.7829043848729086 -0.1494619598488947 1.090219035349984 -1 1 0
719 2 7.38747060598895 0.30740726738824575 2.9637583389379585 -3 1 -1
118 1 20.340729552849588 2.031607001706758 6.823572971415022 0 0 -2
800 2 5.849929748968517 9.31148804114258 0.784964325274274 -2 1 -2
349 1 11.914138982845857 1.8235910897695278 3.3442803675764514 1 1 -1
752 2 18.03326392621043 10.20165217009019 6.154318555868956 -2 -1 2
849 2 2.1812017258344607 0.6878886887140175 10.262395778377275 -1 0 -1
819 2 12.889733532622042 8.491210821607229 -0.05578385082035085 -3 2 1
998 2 18.280735956785474 9.006920627493988 8.350092845966445 -1 2 1
431 2 6.331216635645557 -0.4272560329108223 9.998338451951277 -1 0 0
931 1 1.2171400474503762 -0.1723761462567554 0.20203606660838602 -1 1 0
156 2 16.636156633138928 9.56049877396244 1.2355483228368729 -1 1 -1
57 2 9.667043151897 -0.32668860377774145 7.6674215605247475 -2 1 1
887 2 8.462921834592537 7.910395770201248 9.9961661961076 -1 0 -1
799 1 5.2855519383933585 10.079699179412378 1.029083470333174 -2 1 -2
154 1 17.336096498201684 10.02347182362201 0.7754616036695732 -1 1 -1
868 1 10.237355840062516 0.012889592060509436 4.342125044583791 -2 1 0
143 2 13.11346303317281 4.270145144290381 10.169212938665623 0 -1 0
803 2 11.527027001964315 9.91446157779046 1.073100134783808 -1 1 -1
832 1 18.969177693454824 0.3751425797248231 10.270595775016892 1 1 2
610 1 11.744340036390486 10.271965785822072 7.3691146804593615 -2 3 0
695 2 4.426196681144217 9.689941049381936 6.519275489391444 1 -1 0
769 1 19.09834587503359 1.5132468127599155 -0.09810807472139177 1 1 0
635 2 20.359439573948666 6.140839940297731 -0.45390320939931234 -1 0 1
43 1 0.7227213188432412 -0.4477155367459641 2.7587532574968283 2 1 0
19 1 0.19678060419868237 6.343593557575877 10.025906079819888 -2 0 -1
20 2 -0.08000400137338104 5.427977202186383 10.254037947115648 -2 0 -1
980 2 14.355106178991056 0.6179801138888469 -0.4152309782904618 -1 3 1
281 2 4.995928727819147 9.973588792798179 11.512689788307021 2 2 -1
764 2 8.436015327606317 0.6777475397849088 20.19096357919639 3 0 1
150 2 20.152981883135354 7.802164374250431 15.789495782086915 1 -1 -1
90 2 9.694419962659836 3.100269888590852 17.81733659524255 0 0 -2
645 2 7.028787783808317 2.435011394586144 15.043369042477275 2 1 2
432 2 6.559654779649996 0.3734030527912511 11.303435535195057 -1 0 0
208 1 4.87899914257008 2.3353856888715314 15.010442772105776 -1 1 -3
533 2 2.229802506623588 2.3625569069004437 20.057432213899645 -2 1 1
807 2 0.6073419598043227 -0.444576432554395 11.513516528793659 1 0 1
836 2 12.426341328094644 4.355285323917502 12.197729532935451 1 -2 -2
750 2 17.738892415544452 4.01578522218606 11.447646673440072 1 2 3
571 1 18.476548492892352 8.904025230121219 11.478268082535312 0 -1 1
774 2 4.80974964766041 2.203578559960842 20.118843521363477 0 0 -1
896 2 19.30567344158251 0.8273433867171293 16.479642505478814 0 0 0
359 2 16.21548419800921 6.8452221878698545 21.15078935545215 -1 0 -1
35 2 3.4361150190116945 8.476776162310147 12.915636270226509 0 2 -1
433 1 20.993432569054608 1.308900737690804 13.755883674801789 -1 0 0
452 2 0.24374061161198657 3.8470087624457308 12.848152104342967 -5 2 -2
478 1 3.3549468303851513 3.2461421095333467 12.814652561481385 -1 1 -2
923 2 17.081733841901183 5.444245978630603 19.36137726836143 -1 0 1
451 1 0.8094581136210824 3.393802927566177 13.513978589960836 -5 2 -2
36 2 3.814030884114674 6.96542250844213 13.23490831965569 0 2 -1
851 2 4.355681303313305 0.74005749890789 10.56340317654438 0 1 0
917 2 13.265572249742846 5.545583425739332 20.464722970563727 1 0 0
138 2 3.8465877444123353 4.914434482459318 16.616988606738264 2 0 -1
942 2 -0.2630422663073675 8.066756104843197 19.8379836418424 1 1 0
631 1 9.778463430748745 7.615178520574881 19.403371052671968 0 0 1
471 2 11.098291595266755 2.194628636155692 15.919373328172073 -3 1 -3
983 2 5.685677263592348 5.323581233696565 17.7619473823476 2 2 0
311 2 8.008241487612644 2.826288253757795 11.476122296421048 1 1 0
337 1 2.405820659196272 8.130868582244846 21.00225489406476 -1 0 0
982 1 6.132087637498638 6.05133849839179 18.191146816596227 2 2 0
147 2 2.6153205158661073 6.765929369239553 16.74525248103224 3 -2 0
40 1 10.027067071127721 3.313006741010472 16.282393531168587 -1 1 2
290 2 18.823034059908544 -0.07054034254165414 21.08957394328677 2 1 1
149 2 19.94164459286748 9.336190166790395 15.98191329769807 1 -1 -1
3 2 7.994723866372359 1.6066686473366616 13.182013082515063 0 0 -1
280 1 4.075373399556629 9.575578109262988 11.553460586217085 2 2 -1
137 2 4.5641953896343335 3.6035028168728434 16.10285643147007 2 0 -1
984 2 5.58985889319577 6.566667361400927 18.839445025312486 2 2 0
145 1 2.5138058365322933 6.061783588581488 16.065394979655192 3 -2 0
338 2 2.336022599208975 9.089832737872602 20.874988677936575 -1 0 0
197 2 -0.11800408354954028 10.02958088205268 18.643754909819187 -1 0 0
864 2 3.8093728185158677 3.3135445088644553 18.216487657052955 1 1 0
924 2 17.58104644797985 6.928142999774186 19.241018347428323 -1 0 1
897 2 20.910366254367915 0.8196193191150428 16.783451247088408 0 0 1
636 2 18.886384149872413 5.675930339397437 20.713117613254763 -1 0 0
52 1 4.542923302845656 5.4564891280616346 12.904705084021565 1 1 2
427 1 4.962043080821921 -0.1982199325114995 15.931046869898834 2 0 1
37 1 17.78250007716754 0.2751928978019412 16.681381665005947 0 0 0
42 2 10.466600923965087 4.132149181705933 16.025318510231973 -1 1 2
655 1 10.15891306613296 0.09849446007884266 11.613206988483615 2 0 1
763 1 8.004142346970001 1.1660054510734543 19.473991447206924 3 0 1
788 2 7.519607264616559 5.384179071066417 19.180683582258744 0 0 -3
904 1 0.09673693409203099 4.8064934231338645 15.489244386953088 -1 1 -1
906 2 0.9878496787489782 5.229463550591143 15.69570222923337 -1 0 -1
453 2 0.6850294891512169 3.91165949526595 14.439512840577699 -5 2 -2
312 2 8.753612239961617 3.912380414648165 10.660085937930338 1 1 0
111 2 10.51599403838803 5.763807575032525 15.24838211273564 -1 0 -4
41 2 9.196228563711248 3.3073842514412672 15.754077930795747 -1 1 2
53 2 4.816207468593958 5.755098132997703 11.977001617228956 1 1 2
203 2 8.323866958577232 6.966201555553997 15.523005311350088 -1 -1 -2
480 2 3.4021126560009205 2.657495081068811 12.046205394712022 -1 1 -2
210 2 4.246103564306366 2.612214497683935 14.299181677392053 -1 1 -3
193 1 7.225489844978815 5.093963792454117 13.250236373968349 0 1 -1
643 1 7.870838469921287 2.8695357403265014 14.697476910916716 2 1 2
194 2 7.464561619385899 4.6744622992120926 12.400775330739137 1 1 -1
789 2 8.903714533455993 4.578024597116304 19.374701403973894 0 0 -3
398 2 17.235704584380727 6.8363309842743165 13.212922969417042 1 0 1
435 2 -0.04910408591261051 2.1009635456757945 13.750594665474626 0 0 1
209 2 4.682702168966617 1.3915516457880992 15.223875295308705 -1 1 -3
195 2 6.2136412304697535 5.203753805992609 13.204443466183776 0 1 -1
523 1 7.222851985910322 8.135923430374458 16.516689426847915 -1 -1 -1
644 2 7.517742942653144 3.6809348897560077 14.231620338175446 2 1 1
589 1 0.7696000492866247 7.386960936552449 12.584199243623235 2 -1 1
1 1 7.986531924315969 1.2905974051394322 12.25740547320787 0 0 -1
202 1 8.892481490898755 6.453588142129271 14.96449098939847 -1 -1 -2
835 1 11.934628549755452 4.913347078205202 11.53362523727776 1 -2 -2
204 2 8.335634584867764 5.851822578682809 14.424919081342876 -1 -1 -2
34 1 3.2350840355817567 7.724632172904725 13.518817204282092 0 2 -1
548 2 7.615702701675241 -0.27224253190558856 18.279815273117467 -2 1 -1
479 2 2.3231212523241367 3.2806089538990317 12.981007374665722 -1 1 -2
136 1 4.582450651430172 4.2766287573665736 16.80606593526491 2 0 -1
656 2 10.73620865890832 0.5313616160445881 10.93990760201054 2 0 1
88 1 9.629911896605474 3.217624645006496 18.803406095994056 0 0 -2
477 2 14.491082648856686 9.714654706207492 11.62628463180595 -1 0 -1
9 2 15.897242395766673 8.050830038424765 14.740374981052875 0 -1 2
633 2 9.59110367389492 8.359125877840267 18.731136896067813 0 0 1
437 2 9.980876510060083 9.894219959754448 13.628098307820226 0 0 1
532 1 1.3921567600016984 2.19506951474177 20.53355093996034 -2 1 1
38 2 17.468948517655186 -0.16897832753288633 15.845537325814599 0 0 0
905 2 -0.3281757466595173 4.299598656207753 16.243911763761798 -1 1 -1
1003 1 15.963170536343041 4.059464909765858 19.220004305873303 3 0 0
664 1 2.5228261394069094 8.000868120863842 18.244768249376886 0 0 -1
784 1 5.25693400684078 9.46226313531775 15.06451587127181 0 -1 -1
785 2 4.713653273087905 8.760153980704988 14.635731090418687 0 -1 -1
525 2 6.783521120705052 7.543626765651355 17.120407650890662 -1 -1 -1
640 1 15.961703230015447 9.12642460770255 16.141918892323016 1 1 -2
270 2 10.027716098745662 9.903594036803819 17.23696916518211 1 0 -3
642 2 16.557869086657487 8.673576720545523 16.739439099300427 1 1 -2
618 2 11.292607655119701 7.774010748472335 12.694519291427026 -1 -1 1
895 1 20.185414413168044 1.259386588974023 16.25029526098799 0 0 1
423 2 17.628094430231613 -0.24757344316017943 13.70467458595379 1 0 0
971 2 12.768176297433342 9.515447997799459 16.700701751237506 1 0 -1
161 2 -0.4731385715685136 10.180919436428455 11.785920174184092 2 -1 1
772 1 5.471686270076539 1.8990877107988386 20.79248259279549 0 0 -1
590 2 0.11782225246629652 7.042406601744956 13.24904380342206 2 -1 1
986 2 5.79352396751446 7.694117105310953 20.710326905197427 0 0 -2
765 2 7.148841024354917 1.4630902817439062 19.872247977416055 3 0 1
109 1 11.479147804769715 5.5208147228641735 15.482717180910115 -1 0 -4
572 2 18.335281159526275 8.580401281694316 10.587432800175112 0 -1 1
248 2 20.03638645967867 4.255160694591877 11.60737530143511 0 -1 0
987 2 5.641705487950919 8.785807244562228 19.633033368529794 0 0 -2
146 2 2.8378919178399458 6.377075890909691 15.1796356868365 3 -2 0
198 2 21.05851928035343 8.72841463007336 17.831920792016195 -2 0 0
713 2 16.383981471920645 3.1433235571662084 20.602083543506954 1 0 0
89 2 9.028389604036333 2.4869946404367984 19.099726945495167 0 0 -2
787 1 8.34735547712931 5.307187942051049 19.759373508988052 0 0 -3
591 2 1.6894131272214685 7.430171489724027 12.995002850750275 2 -1 1
356 2 11.579623311443003 0.4644759864533208 14.372655743345465 -3 3 -2
941 2 0.5362669413699094 7.701234673569754 21.08263235799624 1 1 0
21 2 0.5246092038020839 6.69401939029195 10.853896153513318 -2 0 -1
665 2 1.6743058959083417 8.57176100535514 18.289539703781493 0 0 -1
470 2 12.19103595712684 2.436259391743037 14.850952462907902 -2 1 -3
249 2 20.960173843798334 3.3368651116782675 10.826712624171343 0 -1 0
196 1 0.03880014895424777 9.050164445059178 18.51160359038043 -1 0 0
541 1 20.160695154102207 3.6296671997690386 17.32950307283679 -3 0 0
916 1 13.333544575031492 4.907035588549909 19.753137142230063 1 0 0
181 1 11.882247948767768 6.5316442508419055 18.087726032202347 -2 1 0
219 2 3.6103652885125688 -0.008263808574223819 16.975586568404307 -1 2 -1
172 1 18.403945261686854 5.4144717786409835 16.536458681328465 0 1 -1
134 2 13.384104356738089 4.064171286733842 13.866047962723947 -1 -2 0
520 1 16.453824157314738 4.075598268302324 15.128986522647617 -1 -3 0
397 1 18.120549486477806 6.594036911912276 12.89930110716945 1 0 1
899 2 16.241633399451683 2.81146455006453 16.492549693718725 0 2 1
632 2 9.164302855636711 6.844150668039809 19.280833596286673 0 0 1
343 1 16.662273433545007 2.8217767400177736 12.682521856871466 0 1 0
344 2 16.59674148825927 3.247218450650407 13.597974429122363 1 1 0
162 2 -0.13444993728073273 8.824012160364816 12.439055630161008 2 -1 2
182 2 12.348134434113275 5.894558527782727 18.69538448963284 -2 1 0
95 2 9.03272831624507 8.339331722566122 12.04435267887313 3 -1 0
748 1 18.442766069995354 4.662226564282248 11.28883649602466 1 2 3
148 1 19.984875623750867 8.47708517222672 16.454848190905636 1 -1 -1
837 2 12.00412650114331 5.8626364671527 11.761573398611954 1 -2 -2
405 2 18.53124552876922 8.334590668247994 17.534010343992424 -3 -1 0
268 1 9.29340913549704 9.546175277807519 17.763874338012435 1 0 -3
399 2 18.390222428303574 7.385066281700275 12.329623207597468 1 0 1
217 1 3.053229322722773 0.17136846371925007 17.78507697337667 -1 2 -1
434 2 20.79092363134204 1.2036594824226197 14.720494180673056 -1 0 0
967 1 18.40836909158024 0.8982939992106115 12.863569170393767 0 1 2
404 2 17.441579163112166 8.866796055232044 18.598702809092288 -3 -1 0
985 1 5.33210025113507 7.872055097715805 19.859492995912348 0 0 -2
580 1 14.137979421500308 5.462281813057904 14.722175835547624 -1 0 -1
972 2 13.006225697223202 8.061065381785097 17.303047259509768 1 0 -1
429 2 5.741028229079781 -0.3858412451855274 16.493470014865604 2 0 1
199 1 20.53772397756842 3.1921095768508274 19.982601815512748 0 1 0
357 2 10.939977407779605 -0.16518796191471097 13.128336730241362 -3 3 -2
133 1 12.873362296860787 3.3307761938529694 13.45712358983598 -1 -2 0
919 1 13.348157843716063 1.169772319547418 19.884826327750538 1 0 -3
582 2 14.592804720323715 6.261967081516196 14.387406405278915 -1 0 -1
339 2 2.883374951912353 7.861706092402374 20.205317877685065 -1 0 0
135 2 13.512251407552068 2.5971707483474473 13.150109140064444 -2 -2 0
863 2 3.499184622422531 1.695975248054315 18.283418359091115 1 1 0
458 2 19.41344833161549 6.685943573758533 13.953002382000836 -3 0 0
173 2 19.000294451070904 4.796626620577015 17.036055696903833 0 1 -1
511 1 13.557474591334357 0.8061942102725551 17.157612846318564 2 3 -1
408 2 1.3493351862473313 0.15623244006216053 17.874615318246825 1 3 -1
8 2 15.43531570164648 7.782266541442347 13.199380878682526 1 -1 2
969 2 19.35464766721941 1.0867141497589055 13.182972465779715 0 1 2
174 2 18.150169890162967 6.222569614104594 17.08852299298581 0 1 -1
459 2 20.583382162430787 5.936842646571298 14.637310564831877 -3 0 0
918 2 12.813789257704384 4.115298115191114 20.092805683280176 1 0 0
201 2 -0.19625006840429748 3.0360597681190606 20.20371656062251 1 1 0
67 1 5.79225012551304 6.3569298527886 10.3596022982439 -2 1 1
419 2 13.753094574186548 1.237330166209242 11.477127645986778 -1 2 0
39 2 17.79891637428463 -0.42928822972378566 17.45926273380916 0 0 0
183 2 11.13802243478501 6.968630450535755 18.546513336086857 -2 1 1
469 1 11.8736478109682 1.7485781283900628 15.49242575010659 -2 1 -3
269 2 8.63622042875722 9.18373344175888 17.073339151499386 1 0 -3
581 2 13.33392672998135 5.698484617199442 15.236964481584518 -1 0 -1
345 2 15.851510953926221 2.338471065708313 12.478392957100109 0 1 0