LAMMPS data file via write_data, version 8 Apr 2021, timestep = 1828000

972 atoms
2 atom types

-0.1259050346247372 20.595555908989898 xlo xhi
-0.1259050346247372 20.595555908989898 ylo yhi
-0.1259050346247372 20.595555908989898 zlo zhi
0 0 0 xy xz yz

Masses

1 16
2 2

Atoms # atomic

315 2 1.2694176049825447 6.127616985265248 5.823739662977551 2 0 0
885 2 7.2978165467752 3.595465061238101 9.794139633642244 -2 -2 0
886 1 17.330492323426743 7.667411375838315 7.260023481651436 1 -1 -2
702 2 13.159668531142946 5.885882290034774 0.6705232073230643 0 2 1
104 2 11.095531334181496 4.595377162824271 3.631201095249864 -2 4 -4
400 1 15.563044206436297 0.48948692819512607 3.8956788908071145 -1 -2 2
928 1 7.6675092996369 0.3988235608264904 4.242871006808506 0 0 1
687 2 0.47098030424256754 5.177501772553473 9.297124601132417 -2 2 0
734 2 4.971077542613677 2.6143581957106865 0.6689682379190272 0 -2 -1
341 2 3.1244312192714405 6.7753822895329865 7.976267714276337 -1 0 1
509 2 7.3660276208557285 9.616293469787387 2.459009201192454 0 1 1
426 2 19.614350862493502 9.717170776136486 3.993913995187214 1 -1 -1
661 1 0.9217137105667694 8.280967217976983 2.014418158165299 0 1 -1
840 2 13.817912991980323 7.110009087481158 2.1385772692398843 2 2 2
913 1 11.104434090895069 4.619055529498935 8.46561609233318 0 1 2
884 2 8.541345650030195 2.711665738478907 9.861338033520905 -2 -2 0
681 2 2.470349606212898 8.64168422152396 9.012395537769272 -1 -2 -1
477 2 16.465487728299717 8.479253657636537 3.977919297235438 2 -3 2
745 1 17.067845221572508 6.841833304661514 4.2170434238813055 2 -2 1
651 2 -0.05896230757294482 1.5052162606235036 9.097446352989088 0 0 2
326 2 6.150772083599845 5.312765866465112 8.538414480440004 1 -1 4
208 1 2.3072490050265757 2.553323595994175 9.80798261783197 2 3 -4
887 2 17.414911777338702 7.023836650410837 8.014385393090851 1 -1 -2
515 2 8.827402362830577 4.755566992720343 6.770414367075738 -2 1 0
15 2 3.73649335107124 0.7122639692765904 2.3834054421966315 -1 -1 1
686 2 0.04399622883965218 5.369167490199227 7.851808615320083 -2 2 0
449 2 3.226710043289839 8.778989692472017 6.264969920308888 -2 1 0
685 1 20.41064267363154 5.291351013259183 8.778040291736907 -3 2 0
413 2 17.967733543050596 6.000527943839336 0.4492239434951321 0 1 2
663 2 0.15805149984855496 8.57845166157589 2.5076829466037136 0 1 -1
88 1 1.786934846805781 6.110659884937261 3.0421151255465175 1 1 2
223 1 6.688321270062995 9.20372017838439 0.8160759872500803 -2 -1 3
530 2 1.2749873358227335 0.36191126693877373 3.9344704540186672 -1 0 1
391 1 10.705136243667093 3.085592402546027 0.7357696815113539 -3 -1 2
862 1 6.530879066037037 10.20605786928181 5.788655541075701 -1 1 -1
476 2 15.500474982243984 9.611136907561633 3.492753152882878 2 -3 2
225 2 7.290797408191153 9.220145680570814 0.08442261851081566 -2 -1 3
314 2 2.0699070146044454 4.986869483220965 6.53895676340828 2 0 0
514 1 8.941262784776017 3.7786246523368447 7.076459819576219 -2 1 0
722 2 14.319600492824938 1.034350971990857 6.8217925220218545 5 -2 2
932 2 17.497678918322006 6.085017224759304 10.091607259420245 -3 0 -1
90 2 1.5178826878093552 6.853171593332678 2.4433760363617294 1 1 2
510 2 8.314803434947365 8.933818102719593 3.463431931091748 0 1 1
584 2 16.921433701241142 9.401836857447588 8.11068450150474 -2 0 -1
186 2 3.778957622757162 3.021149518100735 5.890784166430334 -1 -1 -1
203 2 7.685755961422699 7.226495075977821 0.4384737126438321 0 1 0
927 2 14.893600082838717 9.378459361303754 0.690330849607308 -1 1 0
925 1 14.081775305583404 9.840527487087005 1.096360437183904 -1 1 1
375 2 18.54679269149779 1.568274603951291 8.91819963819269 1 4 3
480 2 16.4377540100711 7.862557018217882 0.5828875295045483 -4 1 3
147 2 10.629960913107293 9.093674456561743 3.1300720776546145 2 1 2
566 2 13.994994394690492 3.3147442588825418 4.3570949803431445 -3 2 0
512 2 19.52648260143688 2.064458662883224 2.081281943441139 -1 -2 -1
854 2 9.638701473840738 0.09991601297260783 0.20149985894853334 0 2 1
374 2 18.996619675665084 3.071516657719733 9.36950529886683 1 4 3
508 1 7.764603987705818 9.774879139916266 3.312285465606314 0 1 1
336 2 13.989294400404152 5.243907379071714 7.614885999813016 -1 1 1
248 2 15.824943815351762 5.813878431426812 1.6113250043264022 -1 2 -1
346 1 10.933864642744194 7.631074253324492 6.501091462430002 -1 0 -1
202 1 8.062921997776067 6.544284024658214 1.0025628478961661 0 1 0
620 2 0.9757080624218397 3.1329858314619625 1.065262729447524 -2 1 1
740 2 0.6153371914442046 0.11081226828714763 1.734899624030891 3 0 3
915 2 10.365280691822708 4.282593592139611 7.953737139007655 0 1 2
80 2 19.357824677925446 9.118907621587422 6.684488283307832 1 0 2
247 1 16.71301848311549 6.219817820109917 1.6283048459905336 -1 2 -1
342 2 3.901848051037436 7.144088126694087 9.28914962530864 -1 0 1
190 1 5.734595285079126 0.38177251347946406 6.171406647730014 0 -1 -2
350 2 16.990666553123358 3.600853071013329 4.724007611696233 0 -1 -3
473 2 20.123521877137588 3.9030555831792997 5.366401928189026 -1 -1 0
653 2 11.68892978007659 3.263837804584004 8.98361717908904 2 1 0
519 2 12.494690821637981 6.818690608207218 9.305555532037067 3 -2 -1
145 1 10.23749693659084 8.258259777288657 2.8580189381548875 2 1 2
105 2 11.281309153882606 3.0002305787812693 3.5302696001878715 -2 4 -4
334 1 13.27762307969873 5.252275442684901 6.973927411722778 -1 1 1
721 1 15.118177967599172 1.4218850371726999 6.45385628472995 5 -2 2
924 2 4.515333417679071 2.912909271834189 2.6950790813038803 5 4 1
174 2 14.951173469370936 7.365715175248933 9.406056435433129 -3 -2 -1
347 2 11.15779958119843 7.5267394458473245 7.45127542129461 -1 0 -1
930 2 7.217010117189104 0.07460499003814311 3.4536617536924803 0 0 1
577 1 11.897179338175638 6.350307334115087 3.9385526834469826 0 0 2
747 2 17.98189144230395 6.705914796870892 4.2086137371485455 2 -2 0
81 2 18.325593112205585 8.40603283322196 5.832974863790947 1 0 2
516 2 8.33573757969879 3.6304953773275597 7.810878371697029 -2 1 0
583 1 16.525590419267193 10.195805443048725 8.501498136959691 -2 0 -1
523 1 8.274447008582124 3.154374847510638 4.403387922832612 3 1 -2
166 1 7.559587270295489 6.486311653239572 3.8182178360621615 -2 0 2
422 2 19.86569109201702 7.389148224410657 4.905902708730619 0 0 3
209 2 3.20863596368511 2.1811804485287754 9.954589776960853 2 3 -4
295 1 5.9986128222147395 3.927238592149261 3.5798159575315687 -1 3 3
475 1 16.42595648453634 9.334580244750882 3.5694952431100666 2 -3 2
486 2 18.863821749693855 1.754569715260038 4.685006222431763 -1 1 0
662 2 1.4686136868662532 9.088021600236479 2.090044846370173 0 1 -1
495 2 5.173196022132245 1.341107813569111 9.793754490373356 0 -2 -4
348 2 10.588189247251966 8.540654896829533 6.3120741684273245 -1 0 -1
816 2 4.4512646913849405 4.491544444360662 7.643379973419295 -2 0 1
103 1 10.620268805381285 3.7355463705507224 3.4331691396911133 -2 4 -4
372 2 14.090316204419839 7.393328675129396 6.915605878948009 -2 1 -1
723 2 15.762550939581919 1.1616154929307447 7.140821650904853 5 -2 2
34 1 8.8234456017768 6.307298739654253 6.130114281984816 0 0 1
838 1 14.059597009145408 7.373532866441686 3.0677381135293627 2 2 2
416 2 12.155807190564044 0.05028370014047889 5.927845070673361 1 0 2
863 2 6.768702484180004 10.019262780413742 4.8289341137429 -1 1 -1
474 2 18.644986717364205 4.0568277537498805 5.701955087309781 -1 -1 0
588 2 14.420118814010443 9.739776853849971 6.465439577613109 -2 0 1
524 2 9.172264567684856 3.477499648043816 4.021686268263267 3 1 -2
300 2 17.432356905613293 2.7216453304474792 2.7332804080698714 0 0 1
879 2 11.490226179844 7.121122641936929 0.43132136492270684 4 -2 2
890 2 15.635057883965866 3.519885568294732 9.163162779278178 -2 1 3
79 1 19.066276773279036 9.00014670170567 5.770748800793303 1 0 2
210 2 1.8147091139692628 1.809620058555048 9.347031880158145 1 3 -4
478 1 16.252415336764745 8.73970098755926 0.22120750405255013 -4 1 3
184 1 4.084300768207036 2.61040810405683 5.075328879456354 -1 -1 -1
472 1 19.313337263425094 3.3670906795713864 5.458068487418941 -1 -1 0
139 1 7.901879715747257 8.143603327837502 10.105270276358715 1 2 3
900 2 6.763523664194157 1.4048927211240647 8.835625435106103 -2 -2 1
191 2 6.4494312012877755 0.5325776820395867 5.517005806874534 0 -1 -2
853 1 10.561503291173906 0.4232571302101058 0.455275031246732 0 2 1
579 2 11.958984100315448 6.553697759925623 4.89120313032657 0 0 2
704 2 4.928960256815626 8.200821335906015 0.9325662882809774 0 0 1
370 1 14.289631930826754 8.051159221632027 6.252462177150644 -2 1 -1
392 2 10.439554637372265 2.119178539779047 0.610983229152708 -3 -1 2
621 2 0.816747064982878 2.4132250084542295 2.4977436340463597 -2 1 1
916 1 4.274139101592846 6.781509901815305 3.543130535635099 2 3 1
335 2 13.512238269637042 4.54287833220345 6.355041362504553 -1 1 1
299 2 16.06901261618193 3.6028318049803496 2.6325022883313407 0 0 1
35 2 9.702074675488909 6.758936739044092 6.18181710451097 0 0 1
172 1 14.300661460724793 6.62905639486304 9.16967843471044 -3 -2 -1
940 1 12.68880098172536 2.1299243074128933 3.504222022661345 -1 1 3
424 1 19.86268940567237 10.130804782707564 3.1389062617771235 2 -1 -1
264 2 6.928195341514372 8.677310569958781 6.837022764541053 0 0 -1
36 2 8.451178895763704 6.429333547824804 5.221191298283204 0 0 2
401 2 15.471789198284359 0.6420543902425947 4.867731470702538 -1 -2 2
614 2 12.717962805126966 2.572781783573883 0.2602183137979282 2 1 2
898 1 6.373036607305463 0.5594895481077973 8.664776181228179 -2 -2 1
296 2 6.839813578860125 3.5639505241465095 3.7835522553331655 -1 3 3
371 2 14.249048511134145 7.591443910281487 5.377260456629709 -2 1 -1
888 2 16.435141531528792 7.52523868884317 6.859357799951821 1 -1 -2
448 1 2.9539669087252114 7.817255739163202 6.100926411725459 -2 1 0
839 2 14.133290888781282 8.345941961026686 2.886069308689309 2 2 2
325 1 5.788600407040735 5.344797803654714 7.614027514518713 1 -1 4
263 2 7.652873350903129 7.199621929873791 7.104674954032352 0 0 -1
262 1 7.138391249111627 7.951926025570445 7.5013580811758525 0 0 -1
923 2 3.016831700971792 2.9369131627730005 1.9438891568220091 5 4 1
398 2 15.647753324375637 9.368399937748295 9.73492016011732 -1 2 2
89 2 1.5275614114448863 5.219492072298494 2.734157424159221 1 1 2
815 2 3.1540573667743232 3.665835093440652 8.073555742131488 -2 0 1
351 2 16.521444248097566 3.903566863868173 6.240645765676483 0 -1 -3
297 2 5.413840986461497 3.6991668128171145 4.336002795998925 -1 3 3
313 1 1.1124183293635868 5.302124789056968 6.376909975961538 2 0 0
395 2 14.202933090905361 3.6199455543781602 1.4643373661334944 -1 4 -2
814 1 3.6219457690182626 4.118477008824353 7.313574633581527 -2 0 1
899 2 6.246249469750448 0.5139471647454439 7.667953522491027 -2 -2 1
220 1 20.10449889233541 9.854838326284433 8.311488366496947 -3 2 1
649 1 0.6352756668954668 0.8556656894558725 8.776635893462942 0 0 2
933 2 18.641605497902642 5.709053336528918 9.02839138663773 -3 0 -1
484 1 18.605517861969915 0.90522074654298 4.364557611402805 -1 1 0
883 1 7.700076017692512 2.827316250304514 9.317393231881091 -2 -2 0
173 2 14.740047766656074 5.7263268889665415 9.10629721713033 -3 -2 -1
146 2 10.727239257511865 7.5553893661429266 3.284556062512813 2 1 3
941 2 12.662047476864094 1.9729786994740879 2.5087619917077384 -1 1 3
746 2 16.645128659148938 6.094845539700632 4.603603990696753 2 -2 1
396 2 14.228695450446493 4.532513313748039 2.7257344016896705 -1 4 -2
757 1 12.680376246239808 0.4043543899393568 7.68649789276089 2 1 2
517 1 11.56859780877781 7.090529327729437 9.139678056794613 3 -2 -1
615 2 13.903121010538323 1.6108116533761478 0.48215877233690224 2 1 2
298 1 16.529022485327612 2.948226453679358 3.1668129916045227 0 0 1
394 1 14.655842360781971 4.449992106288785 1.8784630985094626 -1 4 -2
565 1 14.228627805713158 4.158893715256563 4.711913429951168 -3 2 0
373 1 19.119944112092675 2.1331372547879464 9.468763242093974 1 4 3
192 2 5.114323897888216 1.1698790976608047 6.041944135494203 0 -1 -2
914 2 11.876040228860528 4.750876209444755 7.870685019949008 0 1 2
619 1 1.2816808781748947 3.1822894698336586 2.0256687527467356 -2 1 1
525 2 8.331030797026107 3.313657858265964 5.359305815066053 3 1 -2
167 2 7.874333437245872 6.6075851531132725 2.9437772688200465 -2 0 2
942 2 12.470813673175345 1.3548384472174568 4.065583493000112 -1 1 3
141 2 7.786860255163847 8.131120138550424 9.139615232178127 1 2 3
402 2 15.711602188069769 1.3954764481602286 3.5703859382989553 -1 -2 2
931 1 17.699379692080637 5.783884481914617 9.15651725672491 -3 0 -1
650 2 0.7903838992516662 0.25967585279589955 9.529705624059579 0 0 2
423 2 0.12387094886395394 6.517129494052183 4.100216944936801 1 0 3
841 1 4.000482286571218 10.22519825357532 6.742532383806884 1 2 3
679 1 1.9329037104667948 9.463189671600135 9.212908765753971 -1 -2 -1
759 2 12.664341718066538 1.2009512541614789 8.236078626728297 2 1 2
155 2 17.611892809727824 9.940685179499265 0.8198751903506476 -1 1 2
891 2 16.44312048758033 4.842852175363792 8.834484030169483 -2 1 2
410 2 2.249230175407784 6.0688508189014065 9.931379631947525 -1 1 3
652 1 12.184345629456539 2.529363901316388 9.411909782375053 2 1 0
327 2 5.798733032764366 6.303064725718659 7.405698223993701 1 -1 4
613 1 13.454729311944503 2.370433949480356 0.8930472043680604 2 1 2
513 2 18.77253239106782 2.5698047898483933 0.7334747625823885 -2 -2 -1
567 2 15.139916661318574 4.00492513572468 4.950696126247742 -3 2 0
705 2 4.241343033644856 7.351742748383015 1.9385805846535986 0 0 1
889 1 15.65802042084383 4.318713122948658 8.583564754693045 -2 1 3
185 2 3.3840739442065173 1.9952875525684752 4.819734397760701 -1 -1 -1
222 2 19.60650115041905 9.752287755511015 9.166683705158581 -3 2 1
700 1 13.05911943163904 6.830298784809369 0.48806931448183394 0 2 1
511 1 18.76671297987117 2.5604256530632328 1.75176425750497 -1 -2 -1
578 2 12.851304954809569 6.583525764315178 3.644981141864656 0 0 2
168 2 6.950128296292313 5.719146378786917 3.739245956047317 -2 0 2
393 2 10.513567447961194 3.183448686790631 1.6866942059850145 -3 -1 2
529 1 1.9761268512052275 0.20150110442570732 4.580197252009191 -1 0 1
485 2 17.672070093400546 0.9280154029610725 4.143311172426399 -1 1 0
654 2 13.087434964315248 2.7682630183684838 9.763675813904518 2 1 0
917 2 3.4181228719276526 6.40737254226071 3.5104895966697875 2 3 1
878 2 10.450731070858827 7.947246719319447 1.1123383160788702 4 -1 2
739 1 0.15527881856796896 0.4819522438418935 2.5125495648534497 3 0 3
421 1 19.956934921012607 6.903176025821243 4.042587559145275 0 0 3
204 2 9.079387785252521 6.567097180838245 0.8750486769032658 0 1 0
910 1 13.622714899101185 10.228881296464976 3.6560784522172485 -1 3 1
918 2 4.855964059185562 6.070516759408119 3.8630167336808423 2 3 1
703 1 4.194962581390343 7.563546040033471 0.9748545453497907 0 0 1
249 2 16.853410792641725 6.618638570641319 2.52132164902287 -1 2 -1
487 1 17.049834180235163 0.5153545978890367 7.905673055634777 -3 -2 0
488 2 16.411762676430662 -0.06650416532412043 8.400878042278505 -3 -2 0
922 1 3.9295485810531705 2.470464922210503 2.0552257167449075 5 4 1
349 1 16.751252794814775 4.324160456430259 5.365275308585315 0 -1 -3
929 2 7.816752617115839 1.3698859494235232 4.224799336872114 0 0 1
340 1 3.0309295732509467 6.921227073701838 8.917912309997957 -1 0 1
450 2 3.5996211449133364 7.55897372180987 5.3707122888113314 -2 1 0
877 1 10.52551153406086 7.329588348464761 0.34935877524062514 4 -1 2
435 2 17.97434618597199 0.5158213691859432 1.728843105736443 -2 3 -2
177 2 0.33191152792051093 7.345439094420925 0.45916070085353483 -1 -2 -3
518 2 11.039707063365501 6.286219564298795 9.187404346095054 3 -2 -1
871 1 14.225887379521904 0.21911088658160996 -0.01011941047542242 2 0 -2
224 2 6.01347673782236 9.892757015083632 0.6066924077533418 -2 -1 3
869 2 4.481822584498421 6.153770388091527 0.1265758605459503 2 -2 0
221 2 0.34768165590692524 9.848845839445717 8.576344924512387 -2 2 1
179 2 11.995651508919968 0.749589952182732 10.201571638887954 0 4 2
489 2 17.36277948128617 -0.0716030305164328 7.124479653990733 -3 -2 0
912 2 13.650429762480929 10.230570691187458 2.6524169384449956 -1 3 1
680 2 2.26606896381086 10.104184421556544 8.564463489199655 -1 -2 -1
415 1 11.855280484238872 -0.10079237210103939 5.0203834825730285 1 0 2
897 2 8.447617660753982 5.0398162702672105 -0.09434987296613959 3 2 3
968 2 19.860292062037924 3.1164127147862595 19.67859767239014 -2 2 -3
10 1 16.79463521625571 6.010884849340998 18.157193288142178 1 -3 1
832 1 15.459944130517353 4.160582542045387 16.711189136496955 0 -1 -2
606 2 6.168272198027342 10.073211687564525 12.998426459205913 -2 -3 -3
387 2 15.956846832138417 2.008197852497734 13.700095309941302 0 0 4
819 2 13.95767991125215 9.621053822951351 11.36160466306795 1 -4 3
952 1 20.167315804152786 7.3601860103861005 11.243082327478064 -1 2 -1
65 2 1.2367678699970837 3.679747712791314 19.62714056659504 -2 2 1
64 1 0.7606936472549395 2.8529227521165343 19.901820863268746 -2 1 1
605 2 6.533509811075561 9.099258812854046 14.24969304554836 -2 -3 -3
611 2 2.2396292601315038 3.269279381054783 13.041221763806412 1 3 -3
447 2 7.595464375108949 2.775307853307451 15.160180935640076 -2 -1 1
544 1 9.722401610287696 3.330835653589724 11.018715807965783 -6 -1 1
849 2 8.984808717519506 6.811412938379897 10.668142963196548 1 0 -1
6 2 7.55491568346949 1.699516563473441 18.430027407817164 2 -1 -3
707 2 8.115940400457875 8.214686087109225 16.49952884586287 4 3 4
234 2 13.736549233530143 2.001523387831509 18.55088534072539 4 0 1
553 1 11.483962992565184 -0.07152510762478116 18.644262695986942 2 -3 -1
397 1 15.237650116190299 8.825277841734856 10.464371524794027 -1 2 2
622 1 20.008855053198204 8.889374065947662 19.042349612622235 0 -1 0
597 2 18.05956178136409 1.970263556224284 14.003006846377573 0 1 0
409 1 1.8161193497653927 5.377606883240333 10.510382376102234 -1 1 3
623 2 20.490733463758506 8.169798878413832 19.49512631066974 0 -1 0
556 1 2.603039735833635 -0.10408340825941508 15.099713788789666 -3 3 0
503 2 18.623432878303507 7.563358919580727 16.538609997337566 1 1 -3
969 2 18.59831322362586 4.163792637026472 19.95428270730376 -2 2 -3
836 2 14.42895577545184 1.4670316663962806 14.962196743926931 -2 -2 -2
748 1 17.12400496971229 6.018932990127564 11.731988508128012 -3 -2 1
180 2 11.884147684259402 0.8467489708451851 11.729299261342991 0 4 1
442 1 5.894077585186065 5.400601795899288 16.849605704654827 0 3 -1
39 2 0.9898098262644976 5.225287242921917 14.45793189465688 1 3 -2
962 2 15.75853638430659 4.933509398361402 12.195232080767806 -2 1 0
742 1 2.667580021111622 7.078585664110376 17.453345424732593 1 3 1
945 2 10.984881683674606 9.227361935658555 15.75325858734749 1 1 -2
647 2 4.013605359005941 1.2771016746836548 13.143029538444594 1 3 -1
954 2 20.45495292879253 6.9264858297146 10.474211536841633 -1 2 -1
664 1 11.736284806027994 2.229223837497406 12.774734187057737 -2 0 -1
766 1 4.540410223161925 1.8020738130185163 16.1775133397302 0 -3 4
268 1 14.202045594327203 7.273760189481437 18.85554076399207 2 3 -2
467 2 19.628152350236697 1.8591667334709876 15.629657636989325 1 1 0
468 2 18.194809229253394 1.9602644211429472 16.276530788585685 1 1 0
125 2 6.36792369733318 5.624063566290995 15.205773019621088 0 0 1
825 2 9.119175511046913 4.394973470870362 16.542181080011968 -1 1 2
419 2 10.543736350331102 2.7674420981257586 15.295296133958331 2 0 -1
903 2 7.269275125356123 7.107810246481537 14.420332805690641 -1 -1 1
768 2 4.149250658028399 0.9933054020523586 15.814970913227924 0 -3 4
254 2 6.915022032708589 2.7498414643443625 13.166580291036508 -1 1 -3
464 2 4.134474575261631 4.807948806413965 16.35822170746789 -1 -3 -2
399 2 15.92811787595878 8.782277375476488 11.15893158406662 -1 2 2
176 2 20.004280691241384 6.410349127214494 20.423377908922305 -2 -2 -4
386 2 14.803542323239656 3.040459643243687 13.552830993095904 0 0 4
837 2 13.125407915333572 1.1462412420349042 16.015459812523588 -1 -2 -2
227 2 13.112649664809979 7.787889494204689 15.899796972438857 0 1 1
846 2 1.3267517037055758 1.8298503776367692 15.244516032762723 2 0 1
441 2 7.595404995974204 0.41254143201797344 20.211440962663737 0 2 0
701 2 13.64767189331758 7.041208292125403 20.459707366125667 0 2 0
183 2 5.061197002509953 1.747213462129123 19.28414229853355 0 -1 -1
901 1 7.609266667648856 7.990471928907028 14.779987329440225 -1 -1 1
830 2 6.01465750880653 4.768794270750533 11.013667155635048 1 2 2
639 2 2.15858683618195 6.836796247734513 13.656262476363857 -1 -1 0
228 2 14.431787713311895 8.415243475561484 15.378197895786878 0 1 1
822 2 0.6704540999355197 8.642788056424633 15.49418218109018 1 1 -1
743 2 2.9417833571624867 7.697718528255836 18.245889975136595 1 3 1
418 1 11.253102986635882 2.091077931413935 15.396861805225099 2 -1 -1
833 2 14.474771223986101 4.294931018358945 16.595814101622903 0 -1 -2
970 1 13.54023261755116 6.811652199328202 12.777337147638388 0 1 1
610 1 3.1975373686742836 3.1713969126049153 13.292284088851959 1 3 -3
77 2 3.004123684229003 4.9814561213599005 19.46313585350165 3 -1 -3
708 2 9.457396252234924 8.755825040945645 17.07392656860066 4 3 4
226 1 13.554220409432393 8.090533154350366 15.086551760782202 0 1 1
253 1 6.857197238683646 2.904256200728767 12.23678307402265 -1 1 -3
811 1 2.048427984417263 0.5796292456607732 19.0116283579374 0 -1 0
934 1 18.95193460585124 4.943509630278247 15.12676005953731 4 0 -1
761 2 16.021417019186238 1.0091377807705302 18.185917942803073 -3 4 0
479 2 16.706242088653422 8.770993696998072 20.103529618270752 -4 1 2
892 1 16.870174941182338 8.791219850997146 12.510053130841705 -4 -2 -1
751 1 4.340297346272489 4.930159819759091 11.662172160156006 1 -1 -1
493 1 4.743302001325214 1.7264010759592097 10.616047586191044 0 -2 -4
414 2 17.68200214366091 6.057526832922109 19.546411386159882 0 1 1
844 1 0.5124542654715807 2.242027518931124 14.825944187620179 2 0 1
834 2 15.788575861677094 3.974806840455421 15.860664157154565 0 -1 -2
689 2 4.372484897573753 7.748565612355907 14.318701339528475 0 -2 2
269 2 14.119656847557271 8.238172874726164 18.695949768440038 2 3 -2
845 2 0.4623141730516912 3.23335482168289 15.088843635044018 2 0 1
494 2 5.434944833247054 2.2931022245309864 11.069268163252115 0 -2 -4
868 1 4.531950990464124 5.4238897882554555 20.154459941883864 2 -2 -1
953 2 20.583272450972295 6.917794555554135 11.995729058853902 -1 2 -1
114 2 10.295032211714519 10.227288021056559 10.774882776647292 -1 0 -3
118 1 20.374779822441614 7.317134443105778 16.92008208738074 1 -1 1
496 1 9.718443279296565 5.7310719434830135 17.686788906595936 -4 -3 1
443 2 6.183025777297852 6.0895441791591765 17.447098200754105 0 3 -1
831 2 7.477818440474686 5.2596218353729185 10.918063669013161 1 2 2
412 1 18.447113614728867 5.948521470620775 20.27075930682584 0 1 1
333 2 1.3585855346621778 2.9934008525852636 11.226556174945724 0 -2 1
682 1 14.876902359868197 0.0065172410433476935 11.693732700924919 -2 0 -1
4 1 7.669813827580615 1.9907092309171945 19.354566243536198 2 -1 -3
794 2 11.250135911611899 6.382772799500294 17.64432414758198 3 -2 0
895 1 8.966556790754439 4.478524261287951 19.968455343981425 3 2 2
502 1 17.79050280687946 7.242591351245165 16.153838145154452 1 1 -3
444 2 6.2838739544276425 4.603260790985182 17.212819884077785 0 3 -1
672 2 6.3221631743009885 8.00771610980277 18.941388867963727 -3 -1 -1
121 1 10.94712380891591 8.654278657930726 11.197708659268441 2 -1 -2
936 2 18.614941032071496 5.7674585237669005 15.441179380363385 4 0 -1
848 2 9.34474725973174 6.18693424210234 11.97604207005018 1 0 -1
270 2 15.065717655631648 6.8842713627558005 18.59568010100274 2 3 -2
718 1 13.908659306299617 9.973819334106786 18.252662201803748 -4 -3 1
636 2 0.2913338379739322 0.8854154617293652 13.471866281435794 1 2 -1
144 2 19.175854116039524 4.524577816853774 13.603415410547843 0 0 -2
943 1 10.990780200239783 9.227010883646638 16.685362058678233 1 1 -2
255 2 7.783642492464507 3.004928643808853 11.926125087222974 -1 1 -3
793 1 12.138224567264494 6.636277399936961 17.301753932248285 3 -2 0
821 2 1.747924459648489 9.577361441530318 14.977949050698323 1 1 -1
142 1 19.101770374630007 4.305282971568158 12.621483729671889 0 0 -3
122 2 11.06101069361334 8.171430239275097 10.339178371141124 2 -1 -2
265 1 15.755140513346424 9.250668281758278 16.032476183410637 -2 3 -4
670 1 6.537461238842484 7.05666188004468 19.02696149093548 -3 -1 -1
896 2 9.752059406234304 4.218473950183175 20.47521764991651 3 2 2
169 1 17.4144230641513 8.758276826688798 18.72199150973998 0 0 2
543 2 14.939734145200708 1.8234529790409681 11.169755036540511 -2 2 2
312 2 8.619028469086834 0.12846262424046986 16.712590576151673 0 0 -1
194 2 19.248795081317652 8.819920953537034 11.11998277528334 0 -2 2
37 1 0.8076053350052853 4.851363228080342 15.33066436480801 1 3 -3
902 2 8.468245902392145 8.245676413731239 14.468416985245401 -1 -1 1
665 2 11.029270771703414 2.91913333724109 12.657914108498044 -2 0 -1
817 1 13.206975121688808 10.183833829999926 11.62843580938162 1 -4 3
59 2 11.319023052301981 6.732833513942696 12.905426245406069 3 1 2
445 1 6.93400826359905 2.127928796753666 14.786593885193609 -2 -1 1
820 1 1.0587300753880111 9.022122058340415 14.702123495184834 1 1 -1
770 2 17.91753348590507 2.5446533561469327 18.592245175062235 -1 0 -2
245 2 12.385028327269685 5.081629900977906 16.36046544612507 -4 -4 0
706 1 8.665277494190343 8.119060743012794 17.299271901145577 4 3 4
749 2 17.977260967130302 5.554798212751034 11.886558593157293 -4 -2 1
760 1 15.32842211342017 0.29138266058028983 17.974199244128457 -3 4 0
671 2 5.815972065245465 6.60152213947459 19.52657068529459 -3 -1 -1
532 1 2.4591585634116906 9.079790571860991 11.943119896608016 2 1 1
497 2 9.323515055675195 5.537311599177499 18.619480079828083 -4 -3 1
824 2 8.285833132190708 4.607678062815632 15.127093318667631 -1 1 2
310 1 7.762449668785217 0.41395966967777587 17.13932524060304 0 0 -1
893 2 16.678953068071795 9.304121633308819 13.3364024579969 -4 -2 -1
267 2 15.29271221402382 9.778182984420555 16.695425011981573 -2 3 -4
331 1 0.6558614424619735 3.1015360991065015 11.95805882887904 0 -2 1
120 2 20.46646572212035 7.926503992266233 17.646364157518292 1 -1 1
795 2 12.958237523012468 6.698293486021306 17.834561442549877 3 -2 0
58 1 10.674243121357614 6.183695066330734 13.337413284600663 3 1 2
638 2 1.7991494308063234 5.909119557930232 12.409902522337742 -1 -1 0
181 1 4.819668334474986 1.0219099389284543 18.707072962055225 0 -1 -2
753 2 3.8784966834522843 4.151447088832685 12.143577259049529 1 -1 -1
835 1 14.074742105368172 0.9512135351604691 15.865845388209708 -1 -2 -2
541 1 14.7825691223369 2.6497195722576112 10.634919770773465 -2 2 2
555 2 12.120857496080152 0.6687140577916307 18.45653653492695 2 -3 -1
232 1 12.817046309048502 2.327252965929255 18.467576925391214 4 0 1
498 2 9.163631491721487 6.510952137309047 17.46745124509805 -4 -3 1
771 2 16.72567666602678 2.9917263015336637 17.689869319718476 -1 0 -2
944 2 11.471467379835142 8.386217637827835 16.913963889903904 1 1 -2
504 2 17.2053406841993 8.028995927852991 16.190252877710083 1 1 -3
725 2 10.132176929224821 8.98243428782017 13.090635284203083 2 1 1
133 1 5.690486965461785 9.582074897981498 18.202680117906326 1 -1 -2
119 2 0.4499397935251337 6.7520439827934355 16.829439189319615 2 -1 1
637 1 1.4427572153702235 6.325041880472697 13.25623161701184 -1 -1 0
233 2 12.888437606455478 3.0472831453399842 17.753822661572567 4 0 1
750 2 17.008621003704704 6.785343046866903 12.299949210862268 -3 -2 1
784 1 8.758068454192845 8.972046925937278 19.8289647414493 -1 3 -1
545 2 9.911027496106332 4.242957903151941 10.868474801135102 -6 -1 1
870 2 4.901697332497957 4.538968084223745 20.47717611725023 2 -2 -1
589 1 5.190731456750934 7.803545052950143 10.420573839579935 -1 1 0
76 1 2.1102612742583227 4.98672901101509 19.078173621838722 3 -1 -3
463 1 3.454451244426384 4.201236000612562 15.956409573608163 -1 -3 -2
465 2 3.7822203011174715 3.331637327646129 16.056167964405066 -1 -3 -2
801 2 10.261291247612272 10.165379929410069 19.87192300427224 3 0 -2
724 1 9.90540104218423 9.283466297796922 14.010710677760763 2 1 1
744 2 2.672385713512651 6.207463704294152 17.849971111492227 1 3 1
534 2 1.5279573427893915 9.011047832814095 12.165222944363208 2 1 1
894 2 17.527478678068693 9.308672043885998 11.968610858317037 -4 -2 -1
178 1 11.903433267539443 0.19790002515453406 10.964868743020011 0 4 1
246 2 12.285340603550381 3.5600452304077987 15.88323532053679 -4 -4 0
823 1 8.759979030771108 3.9602289820525343 15.731610082737385 -1 1 2
624 2 20.489055477954814 9.725327070435608 19.090420140365005 0 -1 0
244 1 12.890646233935339 4.318161232827661 16.12544640817164 -4 -4 0
12 2 17.328447786768653 6.4152740061774 17.406806021717212 1 -3 1
829 1 6.711656173685824 5.047501576723681 10.39707201502686 1 2 2
666 2 11.892931896526397 2.0456381205246412 13.738750121436412 -2 0 -1
785 2 8.498759335755135 8.797880822408242 18.93233354235119 -1 3 -1
618 2 4.3990376645820675 8.868005356692457 19.145791599436045 2 2 -3
690 2 4.128763260528437 7.9178282516086425 12.82784950775983 0 -2 2
961 1 15.017088380550554 4.6208215532941965 12.707148594768242 -2 1 1
935 2 19.73773115760352 4.92035357126513 15.706024522707759 4 0 -1
126 2 6.234755800669154 5.21786484084817 13.683553424775086 0 0 1
182 2 4.842055807848579 1.3357145917947082 17.797774999443337 0 -1 -2
752 2 4.253863832587163 5.659400541068233 12.301697927716733 1 -1 -1
170 2 18.412107148004857 8.697096309432217 18.78901465467955 0 0 2
971 2 13.84565289537646 7.373409776327206 13.51947848008087 0 1 1
612 2 3.212814654431224 3.5724938281917367 14.163680722937407 1 3 -3
735 2 6.31217663652127 2.7086533515455358 20.518820791839044 0 -2 -2
533 2 2.421152820494497 9.138993701650294 10.912905067721715 1 1 1
767 2 5.432763639823416 1.8842645341447342 15.660976716606166 0 -3 4
11 2 16.297075911496094 5.1833974247388905 17.811147867586538 1 -3 1
143 2 19.984337549307625 4.121288563312936 12.255699556693475 0 0 -3
60 2 10.921233975715065 6.186194112375374 14.26042811175574 3 1 2
542 2 14.861406245355932 3.437591342039791 11.159018789438178 -2 2 2
596 2 18.059841707863683 2.62698488316259 12.581664969036172 0 0 0
762 2 14.76886448426468 0.6704108064265377 17.272436221427608 -3 4 0