LAMMPS data file via write_data, version 8 Apr 2021, timestep = 4396000

1008 atoms
2 atom types

0.08787720870473867 18.395522791282236 xlo xhi
0.22405501073450562 22.193144989272838 ylo yhi
0.22612839333613372 19.164053606657813 zlo zhi
0.07203071365008072 -6.71402097585607 -0.06598919270290225 xy xz yz

Masses

1 16
2 2

Atoms # atomic

1 1 1.7468303808135655 4.57477994659515 2.5818745826704217 0 0 0
2 2 2.460147855860345 5.068643475292709 3.0360543905800768 0 0 0
3 2 1.2456460296463172 4.119179083056709 3.2593094921927794 0 0 0
4 1 3.1948464410721935 6.277098075944461 4.082354258708373 0 0 0
5 2 4.042981809405694 5.869793027771004 4.348123791180642 0 0 0
6 2 3.3853048596993527 7.026573394052475 3.604448696872878 0 0 0
10 1 0.8446609203718122 3.2983791275312804 4.843461466308093 0 0 0
11 2 1.0032076588250158 3.8599299144934047 5.625956331108557 0 0 0
12 2 -0.07135593072138804 2.981746479853985 4.994447316157375 0 0 0
14 2 2.0286491727729583 3.4739810210780693 1.0805137129039015 0 0 0
16 1 3.172097315360484 1.04973079224369 2.517328293862202 0 0 0
19 1 0.3010707813072037 1.0902747592314797 2.8228343926653077 0 0 0
24 2 -0.7249480523125099 1.2163070844120487 6.996684694360577 0 0 0
28 1 1.0491118153944503 2.6069729099771135 8.713152856205909 0 0 0
30 2 0.7525645030415586 1.907178285301242 8.097920643387623 0 0 0
31 1 0.5482605581821429 6.949864612564571 4.898875750052695 0 0 0
32 2 1.438428420616047 6.5291574393276415 4.902489607720101 0 0 0
33 2 0.4727705732166062 7.413373813645917 4.058086086683134 0 0 0
36 2 -0.7546576781438815 7.001270658030711 8.841457794927607 0 0 0
38 2 -0.7270381278103051 5.092955275747415 7.286283481506796 0 0 0
39 2 -1.738481409396252 4.352817146574655 8.1909885536864 0 0 0
40 1 1.1435436943128434 4.7252634113389576 7.252464884793891 0 0 0
41 2 1.667349925178776 5.4652733781921645 7.611347074300894 0 0 0
42 2 1.228043993941908 4.075573250361554 7.9747832665085525 0 0 0
43 1 4.516195352085941 3.766799379097597 7.223695670207794 0 0 0
44 2 4.937366972501783 4.206127783944282 6.4898287742887035 0 0 0
45 2 3.6804155038860507 3.4131810428362246 6.837641104803832 0 0 0
46 1 2.8048324067775816 1.7289969538093475 5.734864465434716 0 0 0
48 2 2.0821500872151764 2.024884325820917 5.144309216064175 0 0 0
49 1 5.9497273255270855 1.929381074064041 8.56133618063981 0 0 0
50 2 5.462128919212024 2.6036172299516775 7.982692112917549 0 0 0
52 1 5.343393285134667 4.844171019267513 4.756907952000792 0 0 0
53 2 6.201284588892532 5.268506322709255 4.667504868015285 0 0 0
54 2 5.413091476927119 3.9985329656835744 4.2094322014460825 0 0 0
57 2 4.410454782502006 4.545054105025848 8.837350890317555 0 0 0
58 1 3.1226418091840364 6.609781288304767 7.501902097136074 0 0 0
59 2 4.045538012915353 6.382429391255476 7.334043091030602 0 0 0
60 2 3.0473516281330886 7.084185795255716 8.340491535820322 0 0 0
61 1 5.85347292347491 6.585538479508982 7.054951254838768 0 0 0
62 2 6.056988239621375 7.234337158255012 7.774819081541887 0 0 0
63 2 6.608629412238408 5.944368682103346 7.201145306660874 0 0 0
64 1 6.479892276658478 7.0747579563444605 2.485478574418962 0 0 0
65 2 7.075062968715092 6.374002007977386 2.9257537356138448 0 0 0
66 2 6.002563054862297 7.4613466335112335 3.293883956264269 0 0 0
67 1 7.997556808877507 5.316936672161444 4.148347212443541 0 0 0
68 2 8.084113130080587 4.4394197190698375 3.7826287163483507 0 0 0
69 2 8.802222378491761 5.85522763041779 4.308773081035594 0 0 0
70 1 4.960335710886756 5.433493340744148 1.0766516794618506 0 0 0
71 2 5.460140764989196 5.995512769104681 1.7632753617870491 0 0 0
75 2 4.254729829655422 1.3939425974345991 5.001603090218984 0 0 0
79 1 7.7194785931156815 3.1509507873837648 2.3491413818935247 0 0 0
80 2 7.814767078856582 3.41916830495667 1.3845524764357748 0 0 0
81 2 6.734043191936138 2.8610487221060326 2.459624819548303 0 0 0
82 1 5.0708026019521055 3.085003891004288 2.563083526290889 0 0 0
83 2 4.94895499884166 3.8304506493744883 1.9062030463748043 0 0 0
84 2 4.316827918705855 2.4368422429781953 2.45887989379214 0 0 0
91 1 9.694546345936006 6.2096406634745644 0.9713417010057122 0 0 0
104 2 8.939852248989435 1.8829282514569492 2.5127541806116285 0 0 0
109 1 7.405548800883748 2.3773729424111103 5.599495373674601 0 0 0
110 2 6.538151469065184 1.9973193963087736 5.257412875873009 0 0 0
111 2 7.108801657768256 3.2291551425269804 5.949326814523253 0 0 0
121 1 7.681493688464711 4.661670522585078 7.159930401432821 0 0 0
123 2 7.7296449538064795 4.214447900644773 8.08697319796441 0 0 0
153 2 -0.7929732891416654 6.013269501401361 4.44939353593231 0 0 0
180 2 -0.006840792266471815 9.922930310921963 5.165394454874077 0 0 0
184 1 3.052833706686474 8.682362146337187 2.4077229146924535 0 0 0
185 2 3.067026545359575 8.272469088382998 1.5405670160592595 0 0 0
186 2 2.1325784942280217 8.88712722761969 2.6744384108999375 0 0 0
187 1 0.2862815742290536 8.446516121782793 2.7295501816166494 0 0 0
189 2 0.3305016904650262 7.7588835841378865 2.0451815710720544 0 0 0
190 1 -0.3955991730280569 7.733096772568579 7.3585116820670615 0 0 0
191 2 0.0587668233782469 7.372452962335026 6.558543044455567 0 0 0
192 2 -0.8931376653487129 8.523163516047912 6.982361427647118 0 0 0
198 2 0.7618024577798336 9.039227285593906 8.510339242240684 0 0 0
214 1 2.923733637577827 8.86752205281175 5.8622837235091705 0 0 0
215 2 2.6855539684065266 7.980477030531061 6.182064270008496 0 0 0
216 2 2.155031938357307 9.254293076259266 5.397300436095753 0 0 0
217 1 5.851787178228199 8.642079119493111 8.856679577679262 0 0 0
218 2 5.500980393872919 9.396614113645239 8.311966389148656 0 0 0
241 1 5.4086038430715835 8.196757757930264 4.683367256667236 0 0 0
242 2 5.452113973467164 7.568353892212836 5.454454771917534 0 0 0
243 2 4.468121358359968 8.530741931931892 4.806202716370233 0 0 0
245 2 6.674289723110692 7.732233445902655 0.9793153859964806 0 0 0
247 1 7.4933236908747505 10.357437204679115 2.5372856273733624 0 0 0
249 2 6.529791635492487 10.457910573941135 2.7663954225620633 0 0 0
252 2 4.353441048836636 9.896687836308267 2.64955052314183 0 0 0
272 2 8.76099855098129 8.964211389492561 2.632521456477752 0 0 0
273 2 9.382186308052317 7.732841895684953 1.7347194488970936 0 0 0
277 1 7.165620881716718 9.699662586342928 6.064594283506942 0 0 0
278 2 6.325044720234899 9.366693806366928 5.736182065741286 0 0 0
271 1 9.559051042548028 8.393942311632411 2.4406049994399193 0 0 0
213 2 3.9034458880225884 10.152507120913707 6.7842192071549965 0 0 0
93 2 10.051978383757332 5.542306300328374 1.7155405007988938 0 0 0
196 1 1.0586724628769963 9.813906950810384 8.98872515052464 0 0 0
9 2 0.9508406895682946 5.617147010830276 1.7166705760887413 0 0 0
18 2 2.2262153167854044 0.9531411673770559 2.7337194495263812 0 0 0
108 2 8.113664165111913 1.2764593369566537 6.675694192603153 0 0 0
276 2 8.135559434373762 8.417570772152764 6.646239731100692 0 0 0
103 1 9.615506529628098 1.2018458779530892 2.5885787402793863 0 0 0
96 2 9.273690121611237 2.5206942412618805 4.930514720041502 0 0 0
122 2 8.621507608356245 4.947683018641635 7.015333782055491 0 0 0
117 2 9.874191837530265 7.611455339246966 3.86204889838445 0 0 0
250 1 4.846143388079729 10.741199902165643 2.8766654195011494 0 0 0
264 2 8.819270752675012 10.080501052896754 5.288009462550955 0 0 0
98 2 10.973873380721251 3.404550929134866 1.0404854203884752 0 0 0
37 1 -1.682888364450155 4.866859738214437 7.297228068696055 0 0 0
279 2 7.062591485064604 10.502377559018804 6.683716322200546 0 0 0
87 2 10.3477478592652 3.6612288872652723 3.131185173160627 0 0 0
120 2 8.419097767781192 7.084974099270606 8.577037944535022 0 0 0
94 1 10.117539813892456 2.9300129160668207 4.753341622674215 0 0 0
85 1 10.726257632674306 4.262763433840674 2.4492664759101865 0 0 0
274 1 8.860660245590703 7.972262682003373 7.108271042604111 0 0 0
115 1 9.91525474679303 7.097730832870375 4.721780370338506 0 0 0
275 2 9.240738189351353 7.546893011433025 6.3136673272250485 0 0 0
95 2 10.317162096117318 3.5481216670257023 5.49829298275488 0 0 0
47 2 2.5538658686333435 0.89435861819322 6.1251136868053715 0 0 0
116 2 10.798361792763576 6.636392344049332 4.7062212851400975 0 0 0
102 2 11.528926528728736 1.3317113342917595 2.8561366751857222 0 0 0
86 2 11.498101882291689 4.760742281036515 2.861338349725411 0 0 0
270 2 11.36072347429251 8.443810023332656 2.2506057876500587 0 0 0
178 1 0.7994223015519237 10.267619739304429 4.932710305678254 0 0 0
20 2 -0.33501701628551905 1.8419740860374532 2.8581535086901915 0 0 0
262 1 9.705201003285131 10.432316214632785 4.9580320043125345 0 0 0
188 2 -0.5323467497953847 8.919753277199497 2.6759674654986476 0 0 0
124 1 10.461932479462936 4.428988501616934 6.816816442303678 0 0 0
114 2 9.98603331618727 1.917414358761566 8.024060450663196 0 0 0
282 2 10.01923514719608 8.879811002332652 8.15973325708155 0 0 0
269 2 12.520190386205993 7.868625457810814 1.4964278779606508 0 0 0
100 1 12.351929060113122 0.9258339860892043 2.591959236499466 0 0 0
126 2 10.585244552096958 3.7380221113124796 7.497625190364582 0 0 0
132 2 11.349436197645256 1.775801732226801 5.3910034219984215 0 0 0
268 1 12.27254936266492 8.227019149459686 2.377417622522779 0 0 0
300 2 10.85192926731346 9.381919237086155 5.546546332800054 0 0 0
125 2 11.092967521430296 5.173140900694336 6.962837148844373 0 0 0
280 1 10.276881774382963 9.62773471261653 8.717833141485213 0 0 0
112 1 10.520680497631277 2.398472748950154 8.681656794917654 0 0 0
88 1 12.16888993651942 5.936393901320981 3.9635492677019033 0 0 0
90 2 12.54840032477388 6.637240789563767 3.3910497213696553 0 0 0
299 2 11.760320908809225 8.198247749353094 6.232931574036622 0 0 0
298 1 11.768954434733862 9.133045609614236 5.894456682016019 0 0 0
131 2 11.965162473938893 0.7330426933091483 6.536016473550945 0 0 0
130 1 12.12473098077721 1.531453631358982 5.9030146689119425 0 0 0
73 1 5.200093392761825 1.1637207979542077 4.7616638123620305 0 0 0
25 1 -1.708576039931148 2.558038809669821 5.8839558533523215 0 0 0
179 2 0.968004881317334 10.958039087448874 5.54920243539309 0 0 0
113 2 11.249507552268252 1.8227003393033165 9.069443264467411 0 0 0
263 2 10.003656363615962 11.114627308214406 5.584678085824775 0 0 0
22 1 0.03667422042474641 0.7303712745310817 7.364757632251473 0 0 0
150 2 15.052041866453841 7.6760550374725085 3.389039172895177 0 0 0
301 1 14.915412666659543 8.943146850622796 8.867982943401824 0 0 0
139 1 13.273589623123604 4.468580979628485 9.51560977110144 0 0 0
666 2 13.471960397419839 1.088003285739505 9.52119796083646 0 0 0
136 1 14.417363550032851 4.5968686768855225 4.900145974632349 0 0 0
101 2 12.116828760521095 0.5436021883954044 1.7241429631306444 0 0 0
168 2 13.559699591153498 2.2603849532780314 2.532176127751625 0 0 0
336 2 13.622009620118172 9.536721708574053 2.7614621628057168 0 0 0
167 2 13.985518747095423 3.698374192718035 2.0396558398835856 0 0 0
154 1 14.11049105950168 5.284620394837864 1.0298142818938496 0 0 0
89 2 12.853937401270672 5.479266162607288 4.487775649233044 0 0 0
142 1 12.077742107181457 6.612173404520108 7.335830166476997 0 0 0
155 2 14.484836787766946 5.955537972843732 1.6073351944327352 0 0 0
297 2 12.62609791836203 10.165010918182954 6.881776461573069 0 0 0
144 2 12.015263769448396 6.975113617556942 8.21786622957131 0 0 0
166 1 14.027322978806055 3.054229778293884 2.79514594460012 0 0 0
143 2 13.10062886347702 6.5282829807571074 7.304771176844295 0 0 0
329 2 15.843608326021887 7.82621535773698 1.0478672737459884 0 0 0
138 2 14.137707033174049 4.022778285831066 4.106046169479344 0 0 0
334 1 14.112539978907362 10.299362413553872 3.032028559212799 0 0 0
129 2 12.848139810363943 2.79803562858505 6.764994336553438 0 0 0
159 2 13.509949333864165 1.2127953579695516 5.138582887599006 0 0 0
327 2 13.471175276710502 8.606798812808421 5.115872365987599 0 0 0
519 2 -0.5852413465636377 2.7531796641221344 9.30203990190577 0 0 0
182 2 1.7240541742264888 10.825131170803473 1.247295281535549 0 0 0
72 2 4.220586926863644 6.009972890694143 0.7841934509797542 0 0 0
517 1 -1.3709513935225757 3.192323882078793 9.626185506699873 0 0 0
118 1 8.567090240147209 6.720257889705473 9.503397312176762 0 0 0
77 2 6.391543645599109 0.7846710543228678 1.109607655668912 0 0 0
193 1 -1.6567851144395795 9.627723406560328 5.85012917897922 0 0 0
92 2 8.959962390866183 5.834845546817652 0.4527852645334966 0 0 0
106 1 8.865088197706136 0.8150736314542762 7.104522590169853 0 0 0
7 1 0.5304400527048665 6.352000538806502 1.103532395636282 0 0 0
402 2 5.717636690121348 0.25829346619987464 3.26966539056812 0 0 0
295 1 13.372050648164056 10.62506222394223 7.437703267662737 0 0 0
325 1 14.369409228387045 8.321336975668014 4.869211669419843 0 0 0
128 2 13.817657251044503 3.978972135172407 6.357354291507233 0 0 0
141 2 13.455508909855416 4.087713169673918 8.601834633543257 0 0 0
127 1 13.55619231098149 3.387210896837554 7.155017341857343 0 0 0
157 1 14.472587462106725 1.0697176498491774 5.0329585636787755 0 0 0
134 2 14.447095473929117 2.2716485544761857 8.161063257416288 0 0 0
156 2 13.533313766021699 5.889760728655014 0.45063754027341985 0 0 0
326 2 14.492348951312426 7.682851838641246 5.566011131652733 0 0 0
140 2 12.30578211613866 4.500018497810294 9.669348906293262 0 0 0
281 2 11.074550010472581 9.201387694965305 9.10231066313787 0 0 0
197 2 1.9002727048201598 9.430990602579389 9.348006070482725 0 0 0
603 2 9.058529154585214 2.781667333540528 9.226324655666131 0 0 0
158 2 14.607569292754293 0.386542895335938 5.7683456582337085 0 0 0
151 1 16.71072007567128 5.495506639004942 4.164902759446901 0 0 0
160 1 15.592104059384658 0.9048348918957979 0.40105750114267935 0 0 0
51 2 6.667864306869095 2.3863592413936785 9.016637757271571 0 0 0
644 2 15.663538259685915 4.847020043184941 0.557782485790464 0 0 0
152 2 17.00950566304648 4.642358485149194 3.752951236828233 0 0 0
398 2 5.930507715125232 0.34904892975423585 7.769868385327827 0 1 0
27 2 -1.8695049383005142 3.3519041471545137 6.390917414988955 0 0 0
148 1 15.379084213162752 7.108242138847028 2.635800873269208 0 0 0
149 2 16.012521999490772 6.525937047796333 3.1544869445371386 0 0 0
303 2 -2.692297757560951 9.446368990309406 9.398027092677916 0 0 0
332 2 16.679752386473155 10.58616919363988 1.5446943212619562 0 0 0
266 2 11.031677884231458 10.689778339328555 1.010865643857849 0 0 0
135 2 -2.686911912565117 2.1134355924735324 9.293046975455823 0 0 0
582 2 4.290344721099002 1.2220630161500476 9.4522952637981 0 0 0
453 2 9.597924641397567 0.3117193010715382 4.1100787978177475 0 1 0
601 1 8.152924736524968 3.233565263550918 9.40324047188851 0 0 0
74 2 5.297852863569223 0.3917303385924885 5.3573782749671714 0 0 0
539 2 1.9953240803504222 6.96391726400299 0.57301289232113 0 0 0
248 2 7.618598486815032 10.711406851134964 1.661875782293727 0 0 0
17 2 3.2857334231922746 0.8640785216897917 1.554615380565955 0 0 0
105 2 9.606160920123072 0.5015127856812681 1.9031123544342443 0 0 0
161 2 15.625600176755581 0.4946686570409081 1.3082707008944912 0 0 0
219 2 6.534726741494642 9.09719993526478 9.374269139892315 0 0 0
29 2 1.7344063312652984 2.1186232041367523 9.188243061920128 0 0 0
133 1 14.892161754919243 1.615314604143067 8.824347502232856 0 0 0
211 1 4.428571158424814 10.757815102286582 7.296831785023986 0 0 0
771 2 8.88313778719961 10.028868296062377 9.668960652149762 0 0 0
486 2 14.684302569001769 0.4401336924373205 3.5382892871735554 0 0 0
538 1 2.917837519875186 7.119458763709445 0.2965029935065701 0 0 1
163 1 16.81456370536051 3.2464801232980895 2.6633872622013084 0 0 0
643 1 16.579033891403473 4.689100644536615 0.28900061668022853 0 0 1
306 2 14.063460280535041 11.152458855990723 4.650614520298997 0 0 0
335 2 13.806358140022752 11.03452532964804 2.458994180487465 0 0 0
580 1 3.322896087505232 1.2630360141532722 9.578253090869953 0 0 0
195 2 -1.812252405040057 10.489276702421115 6.321362735274018 0 0 0
302 2 14.314374326193104 9.548432532493347 8.441547282678632 0 0 0
8 2 18.261778401471958 5.852522844133256 0.5040581271134615 0 0 0
145 1 14.643417523654698 6.959641703689678 7.214551004006973 0 0 0
146 2 15.06388014877792 7.644850195407961 7.870309768125652 0 0 0
164 2 16.87939778716234 3.682141264598297 1.7811314694487317 0 0 0
26 2 15.717112178102829 2.3497031818305856 5.391563504212545 0 0 0
165 2 15.924902050485855 2.8624669394512785 2.58540369660027 0 0 0
137 2 15.35158144245961 4.8196785422734445 4.712800378817597 0 0 0
333 2 15.755496830780299 10.190925592768721 2.7713673887710013 0 0 0
194 2 15.718493546474585 9.33292949727301 5.5903092129960195 0 0 0
331 1 16.674780553827677 10.335258839520389 2.45104281532204 0 0 0
147 2 15.287664634665825 6.241008092109094 7.1646787947144235 0 0 0
171 2 0.8250498288061227 10.990266866743571 3.4715325522277327 0 0 0
181 1 1.8706469369135528 10.644045532667384 0.3423123547824994 0 0 0
255 2 10.133288212289848 11.121477940791944 3.505354788248096 0 0 0
21 2 -0.048137709318697125 0.4399630507633834 2.1877791337843413 0 0 0
687 2 -0.40397382720234387 10.417135618914063 9.588840557800772 0 0 0
162 2 16.506748251049423 1.103943150844895 0.2390099516588133 0 0 1
810 2 11.123266788917784 11.132642062262025 13.320149192528511 0 0 0
805 1 11.559021841552733 8.961485438230604 18.07947276058953 0 0 0
799 1 9.9207031399923 11.064780077197511 16.45781974221326 0 0 0
520 1 -0.05330829189587258 1.0212548116756648 11.878345572036492 0 0 0
551 2 -0.5250695596056502 0.7034583726429464 15.468972081383685 0 0 0
618 2 6.7136890169685195 1.7973272279426087 17.49215560246743 0 0 0
831 2 10.567166021557133 8.655818459201623 14.49594004255671 0 0 0
701 2 -1.5722132488638598 9.329918273380926 18.689989712170206 0 0 0
906 2 2.542561453744346 0.42179997578174033 12.675980622349195 0 0 0
622 1 5.542967224254936 6.742362188688413 18.942391927723286 0 0 0
617 2 7.820331116843533 1.9252037601942342 18.702174563671242 0 0 0
682 1 -2.6022344911262336 10.644506769942652 14.655689703507454 0 0 0
533 2 -1.5502346086149192 2.074458986072464 18.567575102034898 0 0 0
780 2 4.868548596489161 8.279600829248007 16.098464331450195 0 0 0
597 2 6.770378179222105 5.019733658582827 11.200406244316097 0 0 0
635 2 8.455463130916034 0.5847393932402485 16.048083081837643 0 0 0
832 1 12.223704524061265 8.154354371923542 9.762367595962504 0 0 0
717 2 0.3084379129745308 10.312468650911562 16.536319809032435 0 0 0
521 2 -0.08765917404364604 0.5386106041917573 11.01706135242223 0 0 0
802 1 8.734792820199887 8.843805948601933 15.446297072735508 0 0 0
702 2 -2.7450222498680557 9.109599563134466 17.712038596269206 0 0 0
686 2 -1.4477983272304475 10.738526392154604 10.718694694528663 0 0 0
246 2 0.7170882275946422 8.386791239795304 18.72128563732575 0 0 0
806 2 11.261684804629821 9.750581636653504 17.474616384068085 0 0 0
723 2 3.2448312823031245 9.271637971429602 18.4031159494365 0 0 0
836 2 14.099256741385071 10.83629927504142 10.882201610116118 0 0 0
97 1 4.473843245019901 2.8695449134445052 19.1403564591604 0 0 -1
555 2 3.004091374186696 1.9511921604052747 18.571959508647872 0 0 0
804 2 7.811174934214834 9.133152091925897 15.171121286865416 0 0 0
505 1 -1.8683924505852267 4.233072782211625 12.224068715430935 0 0 0
506 2 -1.4346312795502953 4.911394803816948 12.754479527071375 0 0 0
507 2 -2.48698490835707 3.73142768464951 12.866875538621827 0 0 0
508 1 -0.19205892117521076 6.035960664899338 13.53827102833578 0 0 0
509 2 0.6463094708783373 5.717730836859207 14.007450409670346 0 0 0
510 2 -0.05576444951914136 6.986332507837852 13.251837666683564 0 0 0
15 2 -3.88199740314638 2.597616711480115 18.87164961864649 0 0 0
801 2 9.555779060400575 10.229653582332581 16.101578835233543 0 0 0
513 2 -2.790379470863358 5.392314613959727 11.18598466951828 0 0 0
514 1 -2.745437801541893 2.852581812188904 14.090370155786582 0 0 0
515 2 -2.3370107374154268 3.6140332693127264 14.630154082143385 0 0 0
516 2 -3.6394454489567045 2.67727126842009 14.427584773517319 0 0 0
779 2 6.03688650949485 7.318349577421203 15.767999506424834 0 0 0
518 2 -1.2978853387201392 3.5412145161660127 10.549978198775975 0 0 0
715 1 1.020973056843672 10.844809877702716 16.89283654816654 0 0 0
661 1 11.004144223223133 0.6761886583775555 14.425084490956989 0 0 0
522 2 -0.9793155448605183 1.3114934130730254 12.023356684529679 0 0 0
511 1 -3.209741305656616 6.124206069687323 10.638134353139813 0 0 0
524 2 -3.5855819005339344 1.6252259844658048 11.939684447493693 0 0 0
829 1 11.489656012077155 8.477933505360557 14.603455866075189 0 0 0
783 2 4.055431996976373 10.4576683504372 15.851028748672089 0 0 0
529 1 -5.229989932730566 2.3150577754235937 15.476991208658857 0 0 0
530 2 12.249714586550933 2.283858278781418 15.00314754816199 0 0 0
531 2 -5.215394788702022 3.216434020974217 15.924666484071356 0 0 0
532 1 -2.433689940676662 2.3039248458552155 18.135924000050405 0 0 0
699 2 -5.138095914323987 10.956607036151663 16.077338412890544 0 0 0
534 2 -2.6285406383054175 1.5266208580289307 17.579433124364254 0 0 0
535 1 -2.8696823623105834 6.478754931558761 14.584340678969555 0 0 0
536 2 -1.9078519115569916 6.262465641950646 14.601330202906167 0 0 0
537 2 -2.9487049481088663 7.060029129650934 13.820528540313271 0 0 0
623 2 4.599903612155653 6.443477059415311 19.053746884371844 0 0 -1
637 1 11.457154993304005 1.5539091825134372 18.421815366467378 0 0 0
540 2 -3.8875900660601928 7.307657505158401 18.276237452097718 0 0 0
541 1 -4.8838677417005725 4.711206973669495 16.884090322714922 0 0 0
542 2 -4.027560893541649 5.048118894925954 16.600327808857912 0 0 0
543 2 -4.798977234743862 4.370943494706912 17.81703195679151 0 0 0
544 1 -2.1697516895216458 4.5719794209216476 16.356170507284304 0 0 0
545 2 -1.563584696770016 5.298166498180066 16.613318452546874 0 0 0
546 2 -2.201581718174739 3.9266630842419556 17.083011351094914 0 0 0
547 1 1.1567632463586641 3.329122063808696 16.56017673215043 0 0 0
548 2 1.5315707248287977 3.971646968759443 15.859735603235835 0 0 0
549 2 0.5009075195897785 2.76601390221759 16.073308787383414 0 0 0
550 1 -0.48214691079080063 1.5588685995509437 15.051596684292688 0 0 0
782 2 3.22112494713766 9.214708822312282 15.289872543151667 0 0 0
552 2 -1.358156543040015 1.762412626295289 14.675523215529843 0 0 0
553 1 2.335986117130604 1.5436557226527603 18.02982416637336 0 0 0
798 2 7.018417719164235 11.080982772750147 17.479116369959055 0 0 0
755 2 1.0926383541216982 10.930604637577293 11.66096900579409 0 0 0
556 1 1.8912084826672795 4.740258435137379 14.503016865330743 0 0 0
557 2 2.8128824565376362 5.080160583717778 14.459199111956917 0 0 0
558 2 1.9903126950647934 4.039543416151412 13.824238375976055 0 0 0
561 2 0.8075539156383276 4.101771342612689 18.057312679437885 0 0 0
562 1 -0.6983085887145004 6.781928742267359 16.638412691133627 0 0 0
563 2 0.25122621806735146 6.6970067829999484 16.56373569943426 0 0 0
564 2 -0.6965915876496237 7.138081207668025 17.54725125335168 0 0 0
565 1 2.4040220579428 6.466560246541812 16.79464060097173 0 0 0
566 2 2.6029523983869187 7.181882236904718 17.41272130357655 0 0 0
567 2 3.1463515026555147 5.788604973586011 16.791913830600084 0 0 0
568 1 2.8350827901287916 7.087573347249564 12.369816270318795 0 0 0
569 2 3.561392145790394 6.528915210136427 12.715513979211122 0 0 0
570 2 2.3818106354224677 7.565257294306621 13.09584808550424 0 0 0
571 1 4.523440893679007 5.401254391178956 13.811794254610271 0 0 0
572 2 4.75117538875643 4.650157000614929 13.273914620082682 0 0 0
573 2 5.356687957223591 5.821737281029525 14.04851544861402 0 0 0
574 1 1.5630591866495251 5.403236154501279 10.20302322696979 0 0 0
575 2 1.8659643830175692 6.035005664817293 10.88359243569979 0 0 0
605 2 8.969730307738375 0.6307170807127249 10.733403146983322 0 0 0
675 2 -2.2719486366854764 11.052741891895305 12.989340097360857 0 0 0
752 2 4.259705320685156 10.639070796607498 11.354540818781617 0 0 0
579 2 1.0970643211161024 1.099894952322356 14.335787439320375 0 0 0
578 2 2.3352338166273547 0.37333857130926545 14.934204441317211 0 0 0
583 1 4.421091508164754 3.0620335427930003 12.028363330551574 0 0 0
584 2 4.405085246604798 3.5131774374048 11.13797665097936 0 0 0
585 2 3.4847154419523885 2.847372224060648 12.174867140464906 0 0 0
586 1 1.636924513163046 3.223758997166153 12.251428455138218 0 0 0
587 2 1.4042719394312941 3.832566535715705 11.554841391918627 0 0 0
588 2 0.9381756271002726 2.514058796534102 12.210072971096935 0 0 0
589 1 7.807279152751209 4.108018309217783 11.919986652247792 0 0 0
590 2 8.387345202658699 4.8212339451054405 12.303150269648139 0 0 0
591 2 7.341685807776262 3.6316055448512037 12.645431349202836 0 0 0
592 1 9.094247418031083 5.958142895807103 13.245216912018398 0 0 0
593 2 9.76226912723704 5.489965729000602 13.671453221104848 0 0 0
594 2 9.452550816750728 6.755796716589241 12.839583949135438 0 0 0
595 1 6.225907499284714 5.807851783976431 10.958679080466714 0 0 0
581 2 3.2303044967949273 0.7846816927362422 10.454545932165411 0 0 0
807 2 -6.126130974414999 9.284953642887807 18.754937963620783 0 0 0
598 1 6.733821842308731 2.9643467625847997 14.141912598858758 0 0 0
599 2 6.985392686381063 3.546577463947501 14.851216648907712 0 0 0
600 2 5.852679814408865 2.5560943288661018 14.262150675231567 0 0 0
244 1 -0.1537508771401192 7.957159533606673 18.969632436292088 0 0 -1
602 2 8.053590695214867 3.572969633546225 10.324154542114925 0 0 0
604 1 8.93017563622761 1.1107828352989313 11.57029516217181 0 0 0
766 1 6.650991539902043 10.285637482149706 14.592123238069208 0 0 0
606 2 8.061994128256275 1.4732850589853206 11.711640829495176 0 0 0
596 2 5.4352102693534965 5.466885567481561 10.502899786615888 0 0 0
608 2 5.458591198711021 1.8014940779795796 12.005621061270254 0 0 0
624 2 5.622353413819122 6.91059354261412 17.99669248538682 0 0 0
830 2 11.507198571777664 7.761550588005878 15.335913746398504 0 0 0
612 2 5.1114701757384555 1.2833111364367302 16.313179957670407 0 0 0
613 1 4.180303261786651 2.384435771240939 15.241512873610109 0 0 0
614 2 3.30934146734534 2.2552666193017132 14.843288782071474 0 0 0
615 2 4.148137680193195 3.183520297121813 15.738199155928214 0 0 0
616 1 7.110161880157383 2.4014174970675577 18.18141164809891 0 0 0
803 2 8.697005707202884 8.006654016900402 15.945933644342137 0 0 0
577 1 2.0108286423646855 0.9166644633251289 14.12762621607474 0 0 0
619 1 6.631555366114728 6.804213782466338 14.234107152073273 0 0 0
620 2 7.480400392252278 6.477401126094504 13.979007307369566 0 0 0
621 2 6.439672564195052 7.402382919311919 13.483966095435177 0 0 0
748 1 3.222138761442722 8.309430396533191 9.84279962663182 0 0 0
625 1 4.323976757694 4.41131571036955 16.905659582928145 0 0 0
626 2 5.238391280763693 4.782273941794643 16.802280328950022 0 0 0
627 2 4.331320076979061 4.002759463295245 17.805956491667576 0 0 0
628 1 6.999604123276294 4.549923211168233 16.21572079262725 0 0 0
629 2 7.807325529491926 5.218010512225999 16.38345989385541 0 0 0
630 2 7.194881935203513 3.8505451639836004 16.892089864319797 0 0 0
631 1 9.984018917078705 3.301476988575161 16.835450505040033 0 0 0
632 2 10.403596873156864 3.6657768768019214 16.068637092856115 0 0 0
633 2 9.388171787996981 2.604791532080361 16.60237995869621 0 0 0
634 1 8.578628945595543 1.3953240769221045 15.473765654168346 0 0 0
523 1 -2.9529945712889765 0.8943479370912691 12.003957140047643 0 0 0
636 2 7.867107037377515 1.5351341179523996 14.81863955385566 0 0 0
554 2 1.97272968355279 2.256777169446073 17.438052246856678 0 0 0
638 2 11.241518382240168 2.0595323507612875 17.6454479855382 0 0 0
267 2 5.4363327210370676 9.978530268903622 19.051760416081816 0 0 0
640 1 10.90678502118097 4.184420102950812 14.201514502233719 0 0 0
641 2 11.82931306897674 4.575478435022318 14.068369230410223 0 0 0
642 2 10.887847155720735 3.454336990178144 13.552809062538955 0 0 0
645 2 9.843320383939073 4.1962605413191465 18.346203042422058 0 0 0
646 1 8.853956228957587 6.475001572449342 16.908857551843347 0 0 0
647 2 9.84278445850517 6.391398993548187 16.899300155199132 0 0 0
648 2 8.84022589216301 6.8482514494603075 17.784043972122824 0 0 0
649 1 11.674876536896203 6.7356783782904115 16.650255405527428 0 0 0
650 2 11.780782277520055 7.540852376689745 17.17746140193889 0 0 0
651 2 12.362508522478802 6.06399680600147 16.82159236058198 0 0 0
652 1 12.018853929518627 6.940441646294018 12.275991520012802 0 0 0
653 2 12.58660547675081 6.185186459119508 12.611577572455806 0 0 0
654 2 11.91575199777637 7.63837969718767 12.938359371491897 0 0 0
655 1 13.448263752113679 4.9906516661378575 13.650603005561093 0 0 0
656 2 13.599649286743913 4.190598834982568 13.03800766057131 0 0 0
657 2 -3.948342593735533 5.340624990563111 13.875571778546657 0 0 0
658 1 10.559334533754877 5.1069064099124715 10.494811513815465 0 0 0
56 2 3.1686729054709635 5.051257098191127 9.750824400989039 0 0 0
528 2 -4.314706048225346 1.1492569432752946 16.324992144015287 0 0 0
660 2 9.957241539198316 5.3554924463564655 9.777851657453645 0 0 0
838 1 10.9533271985319 10.516973874429848 11.783236353399287 0 0 0
663 2 10.084855930334562 0.957192720197227 14.66055779916031 0 0 0
835 1 13.786425022208741 10.346124085407176 11.69853767382194 0 0 0
667 1 13.604541126795935 2.9254883240365213 11.78502797971739 0 0 0
668 2 13.585542825858253 3.1725214381134763 10.80691897110652 0 0 0
669 2 12.660606922647688 2.675121578917171 11.922602962798816 0 0 0
670 1 10.954784388332264 2.7509711132723638 11.972577989459403 0 0 0
671 2 10.675831218320392 3.5776666050212698 11.592129516554742 0 0 0
672 2 10.186286774400537 2.1563161772178443 11.767152313490387 0 0 0
659 2 10.541527063705427 5.891021934927028 11.127159832274074 0 0 0
837 2 12.811633875516245 10.30415917834764 11.518287293654897 0 0 0
684 2 -3.543703578198765 10.343276355345616 14.82819759353285 0 0 0
688 1 -0.47539437538072893 8.414234617131129 11.983027408225087 0 0 0
689 2 -0.5829100687794683 7.8931211926555545 11.142214015746523 0 0 0
690 2 -1.3800098038041333 8.480664782657328 12.30639810708736 0 0 0
691 1 -3.1207950227676773 8.062350363587687 12.179096260008999 0 0 0
692 2 -3.6284158142868304 8.843291901843244 11.981588054998927 0 0 0
693 2 -3.2673580430490543 7.379254411310722 11.436230919847787 0 0 0