LAMMPS data file via write_data, version 15 Apr 2020, timestep = 3291000

576 atoms
2 atom types

4.8224712233611200e-01 1.7437753877652838e+01 xlo xhi
2.7724612233623702e-01 1.7232752877652963e+01 ylo yhi
6.2724712233612934e-01 1.7582753877653907e+01 zlo zhi

Masses

1 16
2 2

Atoms # atomic

265 1 1.3082859063955645e+00 3.3651405266269188e+00 2.3750791145256214e+00 -4 -1 2
267 2 1.3701269716663125e+00 2.5503574978244248e+00 2.8503799596769750e+00 -4 -1 2
266 2 1.8527319047781128e+00 3.3404812567147966e+00 1.5553993278979044e+00 -4 -1 2
507 2 6.3674962642813215e-01 4.4081566317425652e-01 3.2974853736759249e+00 -2 -2 4
143 2 4.6158358918004678e+00 3.2588345851634157e+00 1.7091649474627135e+00 1 0 2
118 1 2.1596055048543743e+00 3.0189011017314629e+00 4.7249901486737409e+00 0 0 -1
458 2 3.9143434203069103e+00 5.1877679322208858e-01 4.7727496272398273e+00 5 4 -4
461 2 5.1080367731647458e+00 2.7627802611110344e+00 3.8141557208507435e+00 -2 6 -2
142 1 5.2213863873938466e+00 3.7068784975103299e+00 2.3165920131183397e+00 1 0 2
460 1 5.1452093715829053e+00 1.9257284976205744e+00 4.3792801230971339e+00 -2 6 -2
195 2 7.8018706311979855e+00 1.5952960386054957e+00 1.1830539909008209e+00 0 2 -1
68 2 5.2249860194406645e+00 6.5293498251232895e-01 2.7828751179071602e+00 -3 -1 -3
218 2 8.5749332900441857e+00 2.7917955561813468e+00 2.8754305706739975e+00 1 2 -3
217 1 8.8265211895104088e+00 1.8652827488845425e+00 2.5485522097803388e+00 1 2 -3
219 2 8.6826683219354273e+00 1.2059886257563652e+00 3.2804244425847155e+00 1 2 -3
57 2 6.8511308437746719e+00 4.2764067754052100e+00 1.3127767697338935e+00 0 -1 1
223 1 8.2103733514084958e+00 4.4194033821389471e+00 3.4402461998061211e+00 2 2 -1
69 2 6.0108357007288333e+00 4.9033044006663584e-01 1.5175349903329731e+00 -3 -1 -3
189 2 1.0369395510858494e+01 1.8122377827212000e+00 1.8485691362981713e+00 3 6 1
417 2 1.2784802289132124e+01 1.4769775872238959e+00 2.1095412092871948e+00 2 1 -1
20 2 1.1935861563158515e+01 3.5273143091987542e+00 4.8614183797076622e+00 -2 2 6
187 1 1.1202384953275534e+01 1.7550100389721164e+00 1.3366587580302907e+00 3 6 1
188 2 1.0988672895541328e+01 9.8872681644278038e-01 7.2505053509465989e-01 3 6 1
357 2 1.6684397019211985e+01 3.5674877762222383e+00 2.1598163741104814e+00 3 -2 -2
355 1 1.5783907148239038e+01 3.7578444385288554e+00 1.9164285480382783e+00 3 -2 -2
554 2 1.3669913908724398e+01 2.5702341459251756e+00 3.7530904677843102e+00 -4 6 6
553 1 1.3439105003622998e+01 2.9030793158993640e+00 4.6489665384245882e+00 -4 6 6
415 1 1.3741925219437361e+01 1.4274968051940127e+00 2.1200966667272119e+00 2 1 -1
465 2 1.6540193816016362e+01 4.2577863573428205e+00 3.7941967421892557e+00 -1 1 3
464 2 1.5186113794648039e+01 3.6450105236171257e+00 4.0908467746772050e+00 -1 1 3
463 1 1.6008410996695183e+01 3.8585010978803638e+00 4.5192884643868414e+00 -1 1 3
416 2 1.4023246717122230e+01 2.1019313585813277e+00 1.4349425206809741e+00 2 1 -1
341 2 1.9832086335175521e+00 7.2924933069616653e+00 7.9163964585391744e-01 1 -1 1
525 2 3.3024037948474527e+00 6.2214142370616612e+00 3.3805385628950271e+00 1 0 0
437 2 9.9982174457065531e-01 6.2033154917841218e+00 2.3926126081853916e+00 3 -1 1
148 1 1.6326778131101634e+00 5.5576757399905246e+00 3.7888714651024684e+00 -1 -5 -1
523 1 4.2431972537834914e+00 6.3781915583304833e+00 3.0812416295918181e+00 1 0 0
436 1 7.5400906894425357e-01 6.2951353824965901e+00 1.4778789553836971e+00 3 -1 1
105 2 2.9946903590066833e+00 8.6414593504013073e+00 1.9995733973015877e+00 0 -1 4
149 2 1.8656948653074410e+00 4.6147605691331650e+00 3.9301249470830113e+00 -1 -5 -1
150 2 1.2737759286940591e+00 5.8655583402161522e+00 4.6615309093293247e+00 -1 -5 -1
524 2 4.8669343059021788e+00 6.0573087065488869e+00 3.7776046263498588e+00 1 0 0
274 1 5.5767658702351364e+00 8.2723250443839724e+00 1.4123216670470611e+00 -5 -2 -2
144 2 4.8395980682509023e+00 4.6765424921644652e+00 2.3941453564507906e+00 1 0 2
224 2 7.4903236190480991e+00 4.8236867029989963e+00 3.9259269024661552e+00 2 2 -1
276 2 4.8792155877377335e+00 8.7451480136891142e+00 9.4712296393690654e-01 -5 -2 -2
275 2 5.1602410514057198e+00 7.5614487629452407e+00 1.9314891411943338e+00 -5 -2 -2
66 2 8.7889632913776854e+00 6.7869815615812064e+00 7.0581018460584066e-01 0 -2 -2
472 1 1.0875241576369360e+01 8.3036420800964805e+00 3.2654077687534127e+00 -1 -4 -3
64 1 9.4989738744276995e+00 6.1121382967205715e+00 1.0867007308601615e+00 0 -2 -2
65 2 8.9827189783595092e+00 5.3909970170477273e+00 1.3264444558752997e+00 0 -2 -2
566 2 1.1218142809417314e+01 5.9900549683254187e+00 1.3286109313339347e+00 -2 4 1
162 2 1.0666080389275852e+01 6.6038107261246566e+00 3.8252251784355411e+00 2 2 4
565 1 1.2123353474271502e+01 5.6649326133521800e+00 1.1759641971913881e+00 -2 4 1
225 2 8.9809786520872628e+00 4.9587340543586809e+00 3.7348518222404126e+00 2 2 -1
567 2 1.2367255823341768e+01 5.4751438626030717e+00 2.1164686385532940e+00 -2 4 1
209 2 1.2872389039368622e+01 7.4864334163526154e+00 1.1132196661865181e+00 -1 0 1
473 2 1.1016313870766567e+01 8.6188800895504887e+00 2.3409488435949610e+00 -1 -4 -3
160 1 1.0142077466904411e+01 5.8924720278866962e+00 4.3244016410143225e+00 2 2 4
356 2 1.5835911598649654e+01 4.6588197190393732e+00 1.5271483339642276e+00 3 -2 -2
397 1 1.6131272331145052e+01 8.3679025229568165e+00 1.1954000708806287e+00 2 4 0
398 2 1.5181041806753040e+01 8.2383640813558134e+00 1.2096094805753268e+00 2 4 0
208 1 1.3488657663265538e+01 8.1949854464688432e+00 1.0416513636311524e+00 -1 0 1
264 2 1.3559103169220020e+01 5.3997308449770784e+00 4.5942771957818644e+00 -5 2 -2
263 2 1.3740883954805039e+01 6.5604121361449401e+00 3.7042948738790722e+00 -5 2 -2
262 1 1.3400363446373214e+01 5.6719168056453357e+00 3.6737627934230930e+00 -5 2 -2
438 2 1.7041829660428007e+01 6.9280788686248798e+00 1.5148638966587669e+00 2 -1 1
346 1 1.4303106309825122e+01 8.3409159783239843e+00 3.8467306923935802e+00 -6 -1 -3
348 2 1.5270226765644649e+01 8.3117276368987518e+00 3.6350312665680420e+00 -6 -1 -3
347 2 1.4300792012107250e+01 8.6441710720331777e+00 4.7623295570035422e+00 -6 -1 -3
43 1 4.4640634079995483e+00 3.3318884748056785e+00 8.6992963386871374e+00 4 -4 5
45 2 4.2490136778804413e+00 4.0779548193662185e+00 8.1351659270195000e+00 4 -4 5
432 2 1.8625535473538204e+00 6.5553345073126912e-01 7.3929812762133453e+00 -2 -1 2
119 2 1.9925987097089140e+00 3.3588736976203450e+00 5.5997727124974785e+00 0 0 -1
493 1 9.2635673281134689e-01 4.4834939818363120e+00 7.1795660756529616e+00 -1 0 1
431 2 8.2778235208617512e-01 4.3715277755778004e-01 6.3858930985446491e+00 -2 -1 2
32 2 3.4414677857692317e+00 2.1664419207407350e+00 8.3197657456328340e+00 -8 6 5
120 2 2.8041424436316764e+00 2.3386580003949557e+00 4.9665240381261411e+00 0 0 -1
31 1 2.9826633333724240e+00 1.2261032907206506e+00 8.4759171423278534e+00 -8 6 5
33 2 3.7259848120582166e+00 7.5037110512216287e-01 8.9408263247865083e+00 -8 6 5
462 2 5.8967633039796343e+00 2.0294082861367917e+00 5.0283772408643461e+00 -2 6 -2
9 2 6.4060506954367860e+00 7.4548722248902632e-01 8.8734804291535809e+00 6 3 2
44 2 5.4257272827667986e+00 3.2870962646492710e+00 8.6474522855833964e+00 4 -4 5
354 2 7.2465459506205212e+00 2.8495345704310537e+00 6.4437103257403674e+00 -1 3 4
352 1 7.7647284625508570e+00 2.3140945611012316e+00 5.7669338916740758e+00 -1 3 4
353 2 8.0440880610195009e+00 3.0332917567881355e+00 5.1513312760534014e+00 -1 3 4
559 1 7.0435194255787366e+00 3.4661423729229877e+00 8.1740539857866725e+00 0 -2 -2
561 2 6.9524984577772555e+00 4.4312618167093678e+00 8.2002698466463819e+00 0 -2 -2
560 2 7.4230779144366474e+00 3.1868080293000305e+00 9.0078463939054014e+00 0 -2 -2
124 1 1.0987907276152521e+01 2.6279947600257110e+00 8.8329166637364143e+00 3 -3 3
21 2 1.0682942886096589e+01 4.4166718724584975e+00 5.0101842181057989e+00 -2 2 6
203 2 1.2754030248582925e+01 1.6221443542609173e+00 8.7713290023184740e+00 -3 2 1
501 2 9.2203465322859941e+00 1.6111313040365327e+00 6.3068398545601347e+00 0 -2 0
499 1 1.0156151784795965e+01 1.4459744594963242e+00 6.5825095811031709e+00 0 -2 0
19 1 1.1155780092555748e+01 3.7206838512632743e+00 5.4295067144852895e+00 -2 2 6
500 2 1.0577305421018263e+01 2.1741020713257484e+00 6.0759151403389788e+00 0 -2 0
126 2 1.0693819973361675e+01 2.0888980209023478e+00 8.0646235839400493e+00 3 -3 3
572 2 1.2174294503477061e+01 4.2404288035204294e+00 6.9474771377452029e+00 -3 1 -2
573 2 1.2676116749458680e+01 4.1324099798727394e+00 8.4548742797523673e+00 -3 1 -2
125 2 1.0467202161082655e+01 3.5081522827535325e+00 8.8929591435219795e+00 3 -3 3
555 2 1.3617308882784803e+01 2.2154331621548939e+00 5.2829943910993959e+00 -4 6 6
544 1 1.6523806292887127e+01 1.1726023715370486e+00 5.1124697278790228e+00 -1 3 2
546 2 1.6529450278136984e+01 2.1344761851067897e+00 4.9963097351970367e+00 -1 3 2
494 2 1.7301595740353150e+01 4.1167252857663872e+00 7.8475481214337259e+00 -2 0 1
204 2 1.4258274122981911e+01 1.1811555005201648e+00 8.7437416706131348e+00 -3 2 1
95 2 1.6860108150809985e+01 5.7417430828434646e-01 8.2339576446684575e+00 1 3 -6
202 1 1.3361808283678828e+01 9.3245859125644259e-01 8.5635157958506554e+00 -3 2 1
545 2 1.5599011938344116e+01 9.8151627218580528e-01 5.2751677933269798e+00 -1 3 2
61 1 1.3931610678799968e+01 4.2130177273997466e-01 6.0151140706909674e+00 3 -1 1
94 1 1.6137650685114075e+01 8.1099421754031387e-01 8.9225801091696990e+00 1 3 -6
63 2 1.3513843807275299e+01 5.4676259793902260e-01 6.8757704445619474e+00 3 -1 1
240 2 2.3641898392841787e+00 4.8012045422141378e+00 7.0227143908380114e+00 0 -3 1
239 2 3.5238319623315246e+00 5.7337563449164266e+00 6.5296867858381056e+00 0 -3 1
229 1 3.8092117556627985e+00 7.4452317432384545e+00 6.6912851990199487e+00 2 2 3
230 2 2.9140544046837018e+00 7.7158704263326916e+00 6.9657068493459544e+00 2 2 3
231 2 4.3628614818757985e+00 7.7017094995995246e+00 7.4233286705632215e+00 2 2 3
238 1 3.3342386621349984e+00 4.8179774188556603e+00 6.6600806255355245e+00 0 -3 1
156 2 4.6894845123245661e+00 8.5156192354243867e+00 4.9290773716318625e+00 -3 -2 1
502 1 6.1408127105107955e+00 5.2193341992219695e+00 5.1182857508102506e+00 -1 3 3
564 2 6.1560302635577582e+00 6.7862542923220195e+00 8.2964660563524504e+00 -3 -2 4
496 1 6.9494478802821398e+00 7.7334297945331860e+00 6.0619657893402330e+00 -1 2 0
503 2 5.2360092212421314e+00 4.9673275499343506e+00 5.3030098084742345e+00 -1 3 3
504 2 6.3089627873205059e+00 6.0174085811319449e+00 5.6066526049398098e+00 -1 3 3
488 2 8.6275862680924931e+00 6.7569372721007293e+00 6.6911145384334594e+00 -1 -4 -4
498 2 7.5428073516469212e+00 8.3389295935237087e+00 5.5925130180994769e+00 -1 2 0
562 1 6.1377764202130223e+00 5.8519428065129624e+00 8.4631704942630392e+00 -3 -2 4
497 2 6.4411715568197270e+00 8.2621651742430053e+00 6.7063243600786411e+00 -1 2 0
17 2 9.5949607154281917e+00 5.4657551665720980e+00 8.2978318017761534e+00 2 -1 -4
205 1 1.0104085506788335e+01 8.6953304714247537e+00 8.4283531153439437e+00 -4 2 0
489 2 9.7673830373929906e+00 7.3306896745131267e+00 7.5961877506153801e+00 -1 -4 -4
425 2 1.1641569964993828e+01 8.0946032427429593e+00 7.7383558458646808e+00 1 0 5
487 1 9.5044976540550898e+00 6.5446712692705873e+00 7.0349001063578642e+00 -1 -4 -4
161 2 9.9606930277045294e+00 6.2639518140457184e+00 5.2000790188595092e+00 2 2 4
424 1 1.2272468405546801e+01 7.6009701567919654e+00 7.2337435182829175e+00 1 0 5
571 1 1.2726522507551300e+01 4.6495722591712942e+00 7.6436731427908633e+00 -3 1 -2
426 2 1.2204111467234773e+01 6.6452514194492034e+00 7.3868291394562684e+00 1 0 5
16 1 9.9119604992606618e+00 4.9774936268662007e+00 9.0944905338301822e+00 2 -1 -4
178 1 1.4605319157763560e+01 5.5404231043018477e+00 6.0309155688842404e+00 -3 3 2
180 2 1.5141486658433971e+01 4.8886255071970686e+00 5.5612008296256468e+00 -3 3 2
325 1 1.6813466229345213e+01 6.7157974577131601e+00 6.5426643779701301e+00 -3 1 4
280 1 1.6869088466387154e+01 8.7308015700018498e+00 4.8970735913807246e+00 -1 0 -2
179 2 1.3963718656181163e+01 5.0881862053005129e+00 6.6391607258371481e+00 -3 3 2
101 2 1.3599999262052872e+01 8.4213555311257373e+00 8.6196381618266678e+00 0 1 4
327 2 1.5915467265354566e+01 6.4616744105331039e+00 6.3030562907449879e+00 -3 1 4
326 2 1.6942166904355396e+01 7.5671806818282707e+00 6.0182898260118654e+00 -3 1 4
495 2 1.7428850651968055e+01 5.2964824838542066e+00 6.9289316799387901e+00 -2 0 1
84 2 1.5689820806148012e+01 7.0536264072632111e+00 8.7959006229659664e+00 -2 -1 2
97 1 1.5095607576700307e+00 2.1727374452317818e+00 1.0585020405319568e+01 -2 2 -1
99 2 8.3156687871422896e-01 2.6700610396199043e+00 1.0180934072836383e+01 -2 2 -1
485 2 4.4080413301747861e+00 2.0701042573193318e+00 1.2168623793622942e+01 -3 1 1
98 2 2.0999209983506715e+00 1.8850266622589169e+00 9.8698066918335456e+00 -2 2 -1
251 2 3.0430029525355349e+00 3.6405798567083525e+00 1.3108954595079519e+01 5 2 1
252 2 2.4797710963375663e+00 3.3569139822012497e+00 1.1671891095326355e+01 5 2 1
250 1 3.3553106888198529e+00 3.4392065578731730e+00 1.2194171064588049e+01 5 2 1
484 1 4.7703793261840310e+00 1.1766358956583394e+00 1.2095507075183168e+01 -3 1 1
557 2 8.8982394633855009e+00 4.0655761947741027e+00 1.1657833803028062e+01 1 1 -3
556 1 8.2124715530193733e+00 3.6966197761543991e+00 1.1023948529867329e+01 1 1 -3
558 2 7.5710233168010541e+00 3.5387616161850932e+00 1.1727530422940964e+01 1 1 -3
486 2 5.2696422953945898e+00 1.2348437070026117e+00 1.1286892442885502e+01 -3 1 1
285 2 5.4539539334432074e+00 3.3687305567375767e+00 1.2873338295624022e+01 5 -1 -2
283 1 6.2655804843902665e+00 3.7914891367286572e+00 1.3154184579943152e+01 5 -1 -2
7 1 6.4060667327377470e+00 9.8717272536317890e-01 9.8142694042166241e+00 6 3 2
8 2 7.0165713269646277e+00 3.6347084441857269e-01 1.0222376760290548e+01 6 3 2
359 2 1.0420816076774456e+01 1.2889711887593696e+00 9.8731077022649281e+00 1 3 3
360 2 1.0413161317744345e+01 4.3934584819274369e-01 1.1384016243200190e+01 1 3 3
358 1 1.0363767096581345e+01 4.4410699455810276e-01 1.0399186145686937e+01 1 3 3
316 1 1.6478122436837754e+01 3.6035950618551360e+00 9.4375028073102989e+00 0 -1 4
539 2 1.4390981401868061e+01 2.8015765567203066e-01 1.1542644586757604e+01 3 1 0
221 2 1.7367981960615900e+01 1.8647236228455841e+00 1.2221667631460759e+01 -1 2 4
301 1 1.3663725579594425e+01 3.4565869927760224e+00 1.0324054645403720e+01 -1 -4 4
220 1 1.6828931732139417e+01 1.7221554178059053e+00 1.3045069271002985e+01 -1 2 4
303 2 1.3720016287640819e+01 2.5691366157539348e+00 1.0768184060946274e+01 -1 -4 4
222 2 1.5942495458738540e+01 1.3988032543813496e+00 1.2758874041411213e+01 -1 2 4
317 2 1.6786062699889435e+01 4.4320946683940754e+00 9.8758129983652339e+00 0 -1 4
538 1 1.4065864152018388e+01 1.1190593654602370e+00 1.1927133045023803e+01 3 1 0
318 2 1.5462344248958749e+01 3.6579268318959501e+00 9.5987725036764431e+00 0 -1 4
540 2 1.3272034861734362e+01 8.1011913691489967e-01 1.2356085296590374e+01 3 1 0
96 2 1.6340437710957893e+01 1.7104036231693638e+00 9.1986277798050722e+00 1 3 -6
302 2 1.3842606969918435e+01 4.0878853431883160e+00 1.1059450372260459e+01 -1 -4 4
80 2 1.0175235909446503e+00 5.7214297716308202e+00 1.1788884828416631e+01 -3 1 0
79 1 1.0491400577965337e+00 5.6097688890569639e+00 1.0832828190373998e+01 -3 1 0
439 1 2.3893201193640228e+00 8.0183775752063084e+00 1.0416136854035456e+01 2 0 2
441 2 1.9393339977244961e+00 7.2355710455483679e+00 1.0550512892307427e+01 2 0 2
440 2 2.1046093004815796e+00 8.3513865969523309e+00 9.5497521335789948e+00 2 0 2
443 2 3.8582260805347284e+00 6.8102032227629712e+00 1.0732389475864940e+01 -1 -1 -1
442 1 4.5653984240022423e+00 6.1030870676470457e+00 1.0845301263861833e+01 -1 -1 -1
444 2 4.1270431050825476e+00 5.3633973221140661e+00 1.1269660792354513e+01 -1 -1 -1
59 2 8.0170345585494185e-01 7.4930891532698976e+00 1.3200338965705461e+01 -1 -1 0
435 2 7.2734268640633202e+00 7.3104893398108857e+00 1.1279655152026725e+01 -3 6 -2
433 1 7.8749581153909682e+00 6.6161485998796090e+00 1.1554363877014426e+01 -3 6 -2
563 2 5.4470602088935642e+00 5.8859533136569979e+00 9.1572448239051312e+00 -3 -2 4
482 2 5.2955897993504202e+00 7.9481439205346094e+00 1.1548864858079551e+01 -6 -3 9
377 2 8.6675010412065507e+00 6.3979026079537871e+00 1.3181706656790533e+01 -4 -1 2
481 1 6.0591850063510941e+00 8.4629575225290452e+00 1.1172161324418491e+01 -6 -3 9
434 2 7.4373838150080660e+00 5.8200507463906392e+00 1.1273450359749784e+01 -3 6 -2
18 2 9.1061402080301512e+00 4.6359860895107516e+00 9.5664316803427916e+00 2 -1 -4
405 2 1.1617938615250068e+01 5.2707941201046546e+00 1.1684047678731092e+01 0 5 0
404 2 1.0591320551959463e+01 5.1215273681367561e+00 1.2842992001723131e+01 0 5 0
403 1 1.1187583238210561e+01 4.6210325991751358e+00 1.2267474813058488e+01 0 5 0
418 1 1.1926544954577603e+01 6.5313303227027548e+00 1.0402805310633141e+01 3 3 2
420 2 1.2866239625839508e+01 6.1752743895065816e+00 1.0533356686447979e+01 3 3 2
419 2 1.1363414115354553e+01 5.8221042166640604e+00 1.0013885273793001e+01 3 3 2
113 2 1.1723673257718929e+01 7.8899573230027809e+00 1.1803363068379314e+01 0 -2 -7
112 1 1.1778747752817095e+01 8.6346214797503809e+00 1.2413041553779584e+01 0 -2 -7
248 2 8.9699312859939226e+00 8.0608270726092037e+00 1.1019062844723567e+01 -2 3 2
81 2 1.7178528617577079e+01 5.9996540189120617e+00 1.0527127550960154e+01 -4 1 0
82 1 1.5715232193046804e+01 6.4128883445613667e+00 9.5706349796934056e+00 -2 -1 2
83 2 1.5110365063697746e+01 6.7512180612233292e+00 1.0221290086460137e+01 -2 -1 2
406 1 1.4271725238442048e+01 5.6068709545483246e+00 1.2008849275884012e+01 1 2 -1
408 2 1.4909479143743058e+01 4.9572400831751349e+00 1.2333379123822521e+01 1 2 -1
407 2 1.3872000893799646e+01 5.8024676101928643e+00 1.2925875175578895e+01 1 2 -1
532 1 2.2615593863376771e+00 5.2734918930276331e-01 1.4671646150496397e+01 1 4 6
115 1 1.7944917517892456e+00 3.3855483868090448e+00 1.4406968941028456e+01 3 -4 -1
116 2 8.8582646795828768e-01 3.4432358730583568e+00 1.4014657105913527e+01 3 -4 -1
534 2 2.1248822464606252e+00 1.5175962926817683e+00 1.4622223825124472e+01 1 4 6
117 2 1.6981018419645999e+00 3.8878844827061800e+00 1.5244410388391831e+01 3 -4 -1
131 2 3.6444606846759862e+00 7.2708434965564184e-01 1.5880989621731095e+01 3 1 -6
260 2 3.4922886639604003e+00 3.8471013198906312e+00 1.7163474344638029e+01 -1 1 0
261 2 3.4534474506118453e+00 2.2646055459779122e+00 1.6941858307362672e+01 -1 1 0
130 1 4.3546939632844133e+00 1.0178820660037902e+00 1.6398340394634971e+01 3 1 -6
259 1 3.0827002711769143e+00 3.0134090247553385e+00 1.7405383372339198e+01 -1 1 0
533 2 2.5662337455832214e+00 3.6539010085607976e-01 1.3746779411425553e+01 1 4 6
193 1 7.0806308601272132e+00 1.2957545589669455e+00 1.7510466135723469e+01 0 2 -2
391 1 7.7612995634369684e+00 1.7415564290124375e+00 1.3933060144251700e+01 1 -5 2
393 2 7.1104134818354945e+00 1.1058954011528139e+00 1.4303319193339609e+01 1 -5 2
392 2 8.2626763133852386e+00 2.1688593878619935e+00 1.4702875636927873e+01 1 -5 2
295 1 8.8631080873908630e+00 3.9002828121987840e+00 1.5248126184293247e+01 2 -4 0
132 2 5.0805443779077102e+00 6.3503724638636183e-01 1.5902215073636613e+01 3 1 -6
284 2 6.8125784048664153e+00 3.0464120672500239e+00 1.3468213944720866e+01 5 -1 -2
194 2 6.7830039491053133e+00 2.0951808392981945e+00 1.7090077173277795e+01 0 2 -2
296 2 8.2212116705152436e+00 4.1001730152793412e+00 1.5930639566548283e+01 2 -4 0
56 2 6.2830807453577862e+00 4.4907519125560720e+00 1.6769651730879659e+01 0 -1 0
55 1 7.0449892888411947e+00 4.3338569612155498e+00 1.7304395915217171e+01 0 -1 0
191 2 9.1555670769726660e+00 8.0014490969265339e-01 1.3485170421955003e+01 1 0 -4
350 2 1.2097447584103895e+01 3.6892284414845000e+00 1.3473745964906582e+01 0 -4 -2
297 2 9.6805869547934691e+00 3.7253779549412132e+00 1.5696334597497243e+01 2 -4 0
228 2 1.2420882269781911e+01 1.3675717508463301e+00 1.4358206356575124e+01 0 2 0
349 1 1.2753572864398253e+01 3.1237296518615767e+00 1.4066078315205191e+01 0 -4 -2
351 2 1.2469736744723150e+01 3.4164909468802089e+00 1.4950449812798817e+01 0 -4 -2
78 2 1.1277536625506626e+01 2.9022736014119332e+00 1.6995298960682753e+01 1 -2 -2
76 1 1.1379365830348432e+01 3.6394449173893872e+00 1.6353213580970522e+01 1 -2 -2
226 1 1.2162566389809355e+01 3.9473257794874927e-01 1.4320194104616728e+01 0 2 0
77 2 1.1443924529150182e+01 4.4503454636655952e+00 1.6890046889891011e+01 1 -2 -2
279 2 1.4979848418900977e+01 2.9157768930710977e+00 1.6451887776797669e+01 -2 0 4
6 2 1.5820269900263606e+01 3.0142265632737923e+00 1.3567164088531735e+01 -1 3 -1
4 1 1.5357252508968740e+01 3.8683258535487171e+00 1.3732737263228167e+01 -1 3 -1
278 2 1.5959090677821649e+01 2.0036670198621875e+00 1.7199728352555194e+01 -2 0 4
277 1 1.5151458384796026e+01 1.9560751430502108e+00 1.6650303853354835e+01 -2 0 4
5 2 1.4429020685831642e+01 3.6523250403211125e+00 1.3958981009744102e+01 -1 3 -1
340 1 2.8476720584585733e+00 7.6800692828577359e+00 1.7395359462416788e+01 1 -1 0
342 2 2.5091711694118208e+00 8.0475538883927413e+00 1.6539738229788462e+01 1 -1 0
383 2 4.4783397115477683e+00 7.3265250278307770e+00 1.3766778829175490e+01 2 -2 -2
58 1 1.1623087614315026e+00 6.6034203072971822e+00 1.3425517215848776e+01 -1 -1 0
382 1 3.6694133972509051e+00 7.7659851865432366e+00 1.3542266567604736e+01 2 -2 -2
319 1 4.1707393579053971e+00 5.4221596493375159e+00 1.6761618616328519e+01 -5 3 -3
321 2 3.7798954629438928e+00 6.2530637958262476e+00 1.7071515778008170e+01 -5 3 -3
384 2 2.8966256372547914e+00 7.1103443111585083e+00 1.3509608753119144e+01 2 -2 -2
60 2 6.0144701022516522e-01 6.1291592580164904e+00 1.4079932011171573e+01 -1 -1 0
320 2 4.5832971590702174e+00 5.6071547928573695e+00 1.5847775920696908e+01 -5 3 -3
159 2 5.8907360277431131e+00 5.2195300239037365e+00 1.3994792440770180e+01 -2 6 -5
373 1 6.7368362165879390e+00 8.4589324058196329e+00 1.4432148338811420e+01 1 0 3
157 1 5.5619975124614864e+00 5.9704232833459967e+00 1.4580731343301460e+01 -2 6 -5
375 2 7.6049807766293398e+00 8.5792824753493218e+00 1.3970186470839822e+01 1 0 3
158 2 6.0955708560036079e+00 6.7810656414867836e+00 1.4536222600245178e+01 -2 6 -5
28 1 7.5549733988730576e+00 7.3930150481019448e+00 1.7118554173854001e+01 1 -1 2
30 2 7.2567934925022133e+00 7.3065115407561585e+00 1.6244886340391680e+01 1 -1 2
29 2 6.7164023132596196e+00 7.5739324999048714e+00 1.7536527877377384e+01 1 -1 2
376 1 9.3250857109766674e+00 6.2449104801002848e+00 1.3880645595596295e+01 -4 -1 2
378 2 9.1218439600824617e+00 5.5045834316253179e+00 1.4504173542002002e+01 -4 -1 2
456 2 1.0552698492881079e+01 7.3962173864342686e+00 1.4778300022857460e+01 -2 0 0
455 2 1.1586750071130510e+01 8.3657159508003964e+00 1.4081169735773795e+01 -2 0 0
454 1 1.1280687778563410e+01 8.0245418956753802e+00 1.5021349704073607e+01 -2 0 0
72 2 1.2710630145385043e+01 6.8298228639658660e+00 1.4843742188489141e+01 3 0 -2
53 2 1.7343176156045477e+01 5.7909619165667703e+00 1.6677753365648744e+01 2 0 2
479 2 1.6973626466117750e+01 8.6727189585316129e+00 1.5324650236714572e+01 -2 -2 -4
54 2 1.6180881162026679e+01 5.3813869123180771e+00 1.5745531157510497e+01 2 0 2
514 1 1.5444902771774407e+01 8.1703867140468969e+00 1.4735945958538345e+01 1 2 -4
480 2 1.7242140801242133e+01 8.6815846002282040e+00 1.6856154565216990e+01 -2 -2 -4
386 2 1.3822182507955498e+01 4.9880458790412066e+00 1.7373969913712237e+01 3 -2 -2
70 1 1.3543066721737006e+01 6.3330136809229272e+00 1.4518815601603624e+01 3 0 -2
385 1 1.4400336723859878e+01 4.7885345979980709e+00 1.6593116844252656e+01 3 -2 -2
387 2 1.3985973232291435e+01 5.1664849734781866e+00 1.5778353438961600e+01 3 -2 -2
52 1 1.7109099268851779e+01 5.5976055893739005e+00 1.5740934163043105e+01 2 0 2
515 2 1.5264253128102734e+01 8.5858896683651551e+00 1.3843443767159915e+01 1 2 -4
71 2 1.4301701260211120e+01 7.0211489468049235e+00 1.4685858837039019e+01 3 0 -2
257 2 1.2040589930326369e+00 9.9484533070401664e+00 2.6292611562625687e+00 -2 2 2
103 1 2.5853334841437228e+00 8.9866719379938047e+00 2.7988912985325687e+00 0 -1 4
258 2 8.6600995402998016e-01 1.1252647577767727e+01 1.7931710931636478e+00 -2 2 2
154 1 4.4898827642502814e+00 9.4251176956869394e+00 4.6436828378382682e+00 -3 -2 1
146 2 4.4849117837409285e+00 1.1376080812179806e+01 9.8545637982867174e-01 2 4 4
104 2 3.4014955010047352e+00 9.1602665373499903e+00 3.3949847272480453e+00 0 -1 4
155 2 5.3259075013233472e+00 9.6962430164773252e+00 4.1450319628054384e+00 -3 -2 1
269 2 6.7613924166904003e+00 1.1142289509060749e+01 2.6715234573752493e+00 6 4 5
511 1 7.9542900164093879e+00 1.2623007024207126e+01 2.4120985186554655e+00 -2 1 -3
513 2 8.8471352462824626e+00 1.2248917441442753e+01 2.5781348106052135e+00 -2 1 -3
512 2 7.7922904685690684e+00 1.2503181997210397e+01 1.4512753704421286e+00 -2 1 -3
122 2 7.4019436962451914e+00 1.2915896047127397e+01 4.2959998128308232e+00 -1 1 2
268 1 6.4955413990781601e+00 1.0335777654467243e+01 3.1364793840819147e+00 6 4 5
451 1 8.6707340178458185e+00 9.0953591149313979e+00 4.3790267379533310e+00 -4 6 1
270 2 6.3783741591713552e+00 9.6185619137133500e+00 2.4499619383171529e+00 6 4 5
452 2 8.2064833124554646e+00 9.7980970576358111e+00 3.9025521399651169e+00 -4 6 1
1 1 1.0560143787264499e+01 1.1935408608504895e+01 3.4373863889343026e+00 1 3 2
2 2 1.1482633161833151e+01 1.1641613018158029e+01 3.4007267215488413e+00 1 3 2
309 2 1.0584827260711144e+01 1.1682553292482812e+01 9.0227693460143721e-01 5 -5 2
3 2 1.0523595597597760e+01 1.2366839829826352e+01 4.3240932362387028e+00 1 3 2
181 1 1.2949150239545613e+01 1.0391381778092587e+01 2.6871360557939545e+00 -7 -5 2
453 2 9.3814486426190253e+00 8.7993533723682553e+00 3.8050493731804305e+00 -4 6 1
474 2 1.1265366164094907e+01 9.0016680496048469e+00 3.8701553367145940e+00 -1 -4 -3
210 2 1.3104667810068744e+01 8.9155799685112562e+00 1.6008139759018376e+00 -1 0 1
182 2 1.3458665292620752e+01 9.8121217712107285e+00 3.3163854191834781e+00 -7 -5 2
183 2 1.3578522118496362e+01 1.1076452141353871e+01 2.3556449850230639e+00 -7 -5 2
256 1 1.7375164691436261e+01 1.0514675708773250e+01 2.2682169640856849e+00 -3 2 2
399 2 1.6280477734712598e+01 9.2774526229085073e+00 1.5251840058387149e+00 2 4 0
245 2 1.6330734220458368e+01 1.1411132694378423e+01 3.2622759225413183e+00 0 0 -1
244 1 1.5643519425416045e+01 1.2069325488635288e+01 3.7056065437681567e+00 0 0 -1
246 2 1.5889408293174975e+01 1.2961495666046781e+01 3.5381734270872385e+00 0 0 -1
86 2 1.7401275331061040e+01 1.2829509025270987e+01 4.8514593814270182e+00 0 2 -1
290 2 1.4834762841343739e+01 1.2436821832574834e+01 1.8738936445990670e+00 1 -4 -1
289 1 1.4725663892064730e+01 1.2122741350341370e+01 9.6064321090416249e-01 1 -4 -1
273 2 1.0521545275383559e+00 1.7182315164324475e+01 6.5521722709855623e-01 -2 1 1
467 2 1.0425878510108073e+00 1.4425399734631876e+01 8.1634560793659416e-01 3 -1 -2
73 1 3.4918533103096006e+00 1.3107569191416816e+01 2.1087940105110783e+00 1 -2 -1
166 1 4.4605778685495254e+00 1.3927258495960389e+01 4.5661570617780862e+00 -3 2 -1
468 2 2.0203273316023620e+00 1.3366085040162233e+01 1.5804135068296801e+00 3 -1 -2
506 2 2.0917787390006017e+00 1.6969446700245513e+01 3.5512524878750793e+00 -2 -3 4
74 2 3.7162136782430415e+00 1.3835030120493693e+01 1.4692581392302166e+00 1 -2 -1
505 1 1.3427243589338875e+00 1.6890882789061610e+01 2.8642761804757373e+00 -2 -3 4
75 2 3.8127381999956564e+00 1.3331836130010752e+01 2.9785902304303429e+00 1 -2 -1
466 1 1.2100604643241160e+00 1.3461814511723059e+01 1.0087122236154833e+00 3 -1 -2
168 2 5.3880721304766652e+00 1.3771404299344063e+01 4.7291970704906801e+00 -3 2 -1
551 2 6.8732703178693777e+00 1.5628251183133317e+01 1.7294357788836610e+00 3 -6 3
422 2 8.8439259770745533e+00 1.6014222093988565e+01 3.2044992400934631e+00 -2 2 -1
550 1 7.7839238499932293e+00 1.5321326944461005e+01 1.7301298159056893e+00 3 -6 3
67 1 5.6221414960869804e+00 1.6919865479855559e+01 2.2087488738006646e+00 -3 -2 -3
552 2 7.6353191167537906e+00 1.4408720617795559e+01 1.9488401420018997e+00 3 -6 3
421 1 9.1377698729713828e+00 1.6455824044599890e+01 4.0594558667874505e+00 -2 2 -1
42 2 1.1196826727363682e+01 1.3797449561238910e+01 1.4586015055952517e+00 -2 -1 0
423 2 1.0150588971326034e+01 1.6272988740968046e+01 4.0099327771140505e+00 -2 2 -1
492 2 1.1733137592292959e+01 1.5453879880525685e+01 3.2827843264063352e+00 0 0 -5
490 1 1.1610700678340200e+01 1.5882716041215815e+01 4.1199497899237674e+00 0 0 -5
491 2 1.1792912246349344e+01 1.5235162553717640e+01 4.7897438387560429e+00 0 0 -5
40 1 1.1411090956457961e+01 1.4699139302042195e+01 1.7292041861537515e+00 -2 -1 0
41 2 1.2353154097856667e+01 1.4480703349647246e+01 2.0127064932699632e+00 -2 -1 0
369 2 1.7349989885431714e+01 1.5349820600775365e+01 3.6927997965583095e+00 -1 -5 -2
367 1 1.6683107931636950e+01 1.4858155362379289e+01 4.1688164460030386e+00 -1 -5 -2
368 2 1.5794664117548033e+01 1.5078874611361295e+01 3.8415766961704660e+00 -1 -5 -2
527 2 1.4311454764621095e+01 1.5013087681111399e+01 2.2104599263561244e+00 -1 -4 -4
528 2 1.3775426951672287e+01 1.4400035698016437e+01 3.5850453735125640e+00 -1 -4 -4
526 1 1.3965625197795301e+01 1.4227257351586736e+01 2.6391945760685829e+00 -1 -4 -4
547 1 1.4906642413374559e+01 1.6049798140046541e+01 1.2320929814923698e+00 1 4 1
549 2 1.5772736241911613e+01 1.6215559149849884e+01 8.1206766778470041e-01 1 4 1
548 2 1.4575545365013104e+01 1.6969064884119220e+01 1.3876499752347176e+00 1 4 1
85 1 7.8524784729693720e-01 1.2702332517665413e+01 5.7561852593959211e+00 1 2 -1
380 2 2.1320349743679512e+00 9.6756992481837933e+00 7.5517167150388165e+00 4 -6 2
543 2 2.9596567013892479e+00 1.0301961280808509e+01 5.1840196135927652e+00 -1 -1 3
314 2 3.6629816544229818e+00 1.1619427127936449e+01 7.8709429210603794e+00 -1 1 2
542 2 1.5750769460107303e+00 1.0943946784823538e+01 5.3776355026283555e+00 -1 -1 3
541 1 2.0269188082265459e+00 1.0118769998862957e+01 5.4271586597535144e+00 -1 -1 3
313 1 3.9667452863287878e+00 1.1002818073475263e+01 8.5234606875020820e+00 -1 1 2
379 1 1.5523493823605916e+00 9.0806275668881860e+00 8.0842120787652938e+00 4 -6 2
200 2 2.3247304610777739e+00 1.2937019324947073e+01 6.4369940770788148e+00 3 -4 -3