LAMMPS data file via write_data, version 15 Apr 2020, timestep = 3293000

576 atoms
2 atom types

5.8270336046760463e-01 1.7337297639521765e+01 xlo xhi
3.7770236046773142e-01 1.7132296639521890e+01 ylo yhi
7.2770336046771966e-01 1.7482297639521846e+01 zlo zhi

Masses

1 16
2 2

Atoms # atomic

405 2 2.1431266226703927e+00 1.8598849322519413e+00 3.1204775822472302e+00 1 2 -1
403 1 1.6770232080904699e+00 2.0337169939333237e+00 2.3193585075341963e+00 1 2 -1
362 2 3.6346826803212577e+00 3.6357197798422662e+00 4.6591294651032733e+00 -4 -2 1
46 1 3.1193525268775186e+00 7.8688143791072152e-01 4.5613610284569095e+00 0 1 1
311 2 3.2183462080498733e+00 4.3499830830118729e+00 1.3656165410575376e+00 -1 1 3
448 1 4.3414563949380689e+00 3.9467998507933664e+00 2.8278660686144348e+00 2 0 1
396 2 1.2885597085726406e+00 3.9679603662271692e+00 2.5818868001013415e+00 3 0 1
327 2 4.2455504602947958e+00 1.0730950284730050e+00 1.9690340826544470e+00 1 2 2
450 2 4.4801132630911571e+00 3.0509125088157334e+00 2.4416055449883221e+00 2 0 1
404 2 7.6048748758762352e-01 1.6970235821822035e+00 2.5633957183438474e+00 1 2 -1
47 2 2.2854797388893577e+00 4.3798507489547450e-01 4.8441840319760745e+00 0 1 1
325 1 4.8861895206911239e+00 1.6617398377434449e+00 1.5937409277346666e+00 1 2 2
546 2 6.7206251434888982e+00 1.6324284345628606e+00 2.1728881474449042e+00 -1 1 4
544 1 7.6434001592838365e+00 2.0034294202484131e+00 2.0490415978547230e+00 -1 1 4
545 2 7.6201512215694986e+00 2.3785412328789630e+00 1.1867357202672959e+00 -1 1 4
449 2 5.1065817082928042e+00 4.4593138682706082e+00 2.5062236639346196e+00 2 0 1
498 2 8.4809606087752272e+00 3.1156405277682806e+00 3.4049957716272479e+00 -1 1 2
83 2 8.8756336525970791e+00 6.2953354202916312e-01 1.4177261555802647e+00 -2 1 1
394 1 8.0088334966737695e-01 4.7930123100605160e+00 2.7635516207339177e+00 3 0 1
267 2 2.7891981194301732e+00 7.1932070499328500e+00 1.9791261106226721e+00 -1 1 1
28 1 2.8082855203034764e+00 7.0753028966836222e+00 3.6879730767818808e+00 1 0 -1
29 2 2.1346604030986791e+00 6.4267364130273821e+00 3.8874733560736168e+00 1 0 -1
265 1 2.5281273800581543e+00 7.3639497565856145e+00 1.0878791297082648e+00 -1 1 1
8 2 1.1382792790477505e+00 8.1291118670492146e+00 4.0610029861223342e+00 3 1 2
30 2 3.5887913394283713e+00 6.9101585597092106e+00 4.3202044172750398e+00 1 0 -1
260 2 6.0464846212979619e+00 6.2493322814809584e+00 2.6091558775585684e+00 1 3 2
259 1 6.4529990811177553e+00 5.3746188779833517e+00 2.7248212974046391e+00 1 3 2
261 2 7.0088937946320486e+00 5.4418337913358696e+00 3.5629320195313823e+00 1 3 2
402 2 7.7248829617688886e+00 4.9344878757968038e+00 1.6111871061129559e+00 -1 0 -1
126 2 8.2197919707493377e+00 4.7118046141459899e+00 4.8532995693213321e+00 2 0 2
53 2 5.8161717124167103e+00 8.7027956366695065e+00 2.5702195610280025e+00 2 -1 3
52 1 6.5545590613795612e+00 8.1941219933263003e+00 2.9554064676980114e+00 2 -1 3
211 1 8.3028214009253318e+00 8.3489289816075924e+00 8.5183326251383074e-01 0 -2 2
212 2 7.6454956389084430e+00 8.3711448427111073e+00 1.5805791242297103e+00 0 -2 2
400 1 8.5199415372784095e+00 4.6183547349132530e+00 1.0681482176984609e+00 -1 0 -1
135 2 3.7834881458672962e+00 9.1602766201805021e+00 1.5755494561324963e+00 2 -1 -1
133 1 4.5133384687654736e+00 9.6582069788201945e+00 1.9411168382545883e+00 2 -1 -1
134 2 4.1639614618552336e+00 1.0531696969128719e+01 2.2498471235370836e+00 2 -1 -1
493 1 4.2000594728083884e+00 1.1908034198598642e+01 3.0277829182032483e+00 0 2 4
494 2 3.7099668728884607e+00 1.1809645179200713e+01 3.8767295585918156e+00 0 2 4
470 2 1.7448277989933687e+00 1.2248827889670228e+01 1.1893104161783881e+00 -1 -1 2
54 2 6.9252736871276088e+00 8.8198413917745366e+00 3.5768245935516911e+00 2 -1 3
495 2 5.0131668467331911e+00 1.2247562775798034e+01 3.3724243686133635e+00 0 2 4
166 1 7.3989066213477042e+00 9.8794329176586544e+00 4.8739108540055645e+00 -4 3 -2
226 1 6.4971624560812575e+00 1.2761672696347997e+01 4.0594351954693435e+00 0 1 1
79 1 8.7685254569622550e+00 1.1974710392902658e+01 7.7029441558080858e-01 -1 4 1
13 1 5.9765318811583334e-01 1.3124634595433673e+01 2.1252214845612754e+00 -1 -1 1
105 2 4.4076384817210030e+00 1.3099485258793157e+01 1.7206895792481520e+00 -1 -1 3
179 2 2.7770297329675477e+00 1.6022820414654213e+01 1.1970219609753598e+00 1 2 1
178 1 3.3676203170039085e+00 1.5817094807965148e+01 1.9823555791805090e+00 1 2 1
257 2 2.5411795238073935e+00 1.4035630121363019e+01 4.7592280248449308e+00 0 0 -1
256 1 2.1038307528204134e+00 1.4474331498498634e+01 3.9789381556596424e+00 0 0 -1
258 2 2.6887249973318550e+00 1.5040718630021122e+01 3.3975478885562329e+00 0 0 -1
14 2 1.0851696313578048e+00 1.3536960437558243e+01 2.8460496498097290e+00 -1 -1 1
180 2 3.9103937691743780e+00 1.5043292142765527e+01 1.7117398618402802e+00 1 2 1
555 2 4.6576225776771842e+00 1.6520346689624127e+01 4.3738473830304638e+00 2 2 2
208 1 8.7392748657186203e+00 1.5455797817248962e+01 3.7635950323294125e+00 -3 -2 2
103 1 4.9291271634186788e+00 1.3686543831447255e+01 1.1939122553868009e+00 -1 -1 3
210 2 8.1277631479203194e+00 1.5139068275056617e+01 3.0688209176618844e+00 -3 -2 2
541 1 7.5377433248389929e+00 1.4205953789416743e+01 1.5972803110201563e+00 -2 0 1
227 2 7.3023706995220099e+00 1.2995861716778315e+01 3.4984490130702253e+00 0 1 1
553 1 5.4903772424846098e+00 1.5969158433949827e+01 4.5448515243529464e+00 2 2 2
554 2 5.3967967424805066e+00 1.5413168835077336e+01 3.7239680924450904e+00 2 2 2
542 2 6.5658180128230592e+00 1.4058612705092541e+01 1.4450806416299411e+00 -2 0 1
543 2 8.0239687558565880e+00 1.3501103228035522e+01 1.1654262730225171e+00 -2 0 1
209 2 8.1723383931889391e+00 1.5599193344127643e+01 4.5584468753976406e+00 -3 -2 2
64 1 8.3936528729350612e-01 3.0308389920929830e+00 6.2536943155831564e+00 2 -2 1
48 2 3.6602464231422074e+00 9.2546980285965641e-01 5.3607476691984628e+00 0 1 1
66 2 1.7434710139388301e+00 3.0937532154627170e+00 5.9029042309558317e+00 2 -2 1
153 2 1.9870025789250536e+00 2.8288453818215529e+00 7.8242521570952999e+00 1 1 1
384 2 3.9580461212020146e+00 1.8594171258348953e+00 7.4997418147017791e+00 1 -1 0
382 1 4.3943928518627526e+00 1.0824826212651861e+00 7.0113490136067309e+00 1 -1 0
361 1 3.3065849552986197e+00 3.8283449540181600e+00 5.5731197256722291e+00 -4 -2 1
363 2 4.2178083081357354e+00 3.8566949343734152e+00 5.9603118224803699e+00 -4 -2 1
151 1 2.7594385113663686e+00 2.6493873205571097e+00 8.4181710704598167e+00 1 1 1
65 2 7.0265878222929401e-01 2.1241413136904272e+00 6.1749163425207616e+00 2 -2 1
34 1 8.8685154147183578e+00 3.2946421215044568e+00 8.4918945677595623e+00 0 1 0
383 2 5.2985066844994408e+00 1.3665324261966456e+00 6.8407079805000990e+00 1 -1 0
242 2 7.5963600897086554e+00 6.7524297079520457e-01 6.9058667558257927e+00 0 2 -2
241 1 7.1165779094774146e+00 1.4171097324535695e+00 7.4244773693589750e+00 0 2 -2
243 2 7.6733024736186310e+00 2.2119585881560622e+00 7.6259895746787221e+00 0 2 -2
172 1 5.6623627060671708e+00 3.9145082030662608e+00 6.7498710294079114e+00 -3 -2 2
173 2 5.8174305597798561e+00 3.9986802747784753e+00 7.6853356108300792e+00 -3 -2 2
99 2 5.6384641233157984e+00 1.1338649210283118e+00 8.9185555707333712e+00 -2 2 -1
36 2 8.8370428329603534e+00 4.1749820351392195e+00 8.1453320441429415e+00 0 1 0
24 2 1.8025849040264175e+00 7.6375993146540573e+00 6.6990784980604499e+00 3 -1 0
295 1 3.5676621248754312e+00 5.8111192853294282e+00 8.0468518021484901e+00 -1 0 -2
364 1 4.6438092067459795e+00 6.8060740448824157e+00 5.7442925960423379e+00 -1 2 -4
365 2 4.2918316934381737e+00 6.4428292800534352e+00 6.5592303687340650e+00 -1 2 -4
296 2 3.6109601761006012e+00 4.8837559699577087e+00 7.6939127253615958e+00 -1 0 -2
22 1 2.0072536211527097e+00 8.4922772045446528e+00 7.1181698244575236e+00 3 -1 0
297 2 2.6483299104912015e+00 5.8389222443463042e+00 8.5361098977720520e+00 -1 0 -2
488 2 8.9188975831853021e+00 6.9605415929807437e+00 7.5070706618615306e+00 -1 -1 -1
506 2 5.1150690378192563e+00 7.4446510368276488e+00 8.5023242558633463e+00 -3 -1 2
124 1 7.5732018707150202e+00 5.4986793929259337e+00 5.1644541522657690e+00 2 0 2
125 2 8.1468777076916652e+00 6.3564980668576210e+00 5.2265636919853158e+00 2 0 2
366 2 5.4796700820596618e+00 6.4182932324245332e+00 5.6315160561751458e+00 -1 2 -4
174 2 6.1225188236052146e+00 4.6174427148288011e+00 6.3566847858774143e+00 -3 -2 2
40 1 7.8297268307257770e+00 8.4089593763470294e+00 7.1611201821143755e+00 1 0 1
41 2 7.3522886582706759e+00 8.1977881056234487e+00 7.9870219530440316e+00 1 0 1
505 1 6.0138128032197864e+00 7.3328583459264882e+00 8.8968951512185352e+00 -3 -1 2
537 2 4.8887332458132438e+00 8.6393415924471064e+00 6.1527312865614112e+00 1 -1 0
59 2 9.6934872338139766e-01 1.2836727746577280e+01 7.3711993658078878e+00 2 0 -1
23 2 2.1433905467284724e+00 9.0192515730062688e+00 6.2774093853150648e+00 3 -1 0
421 1 3.6541909706989082e+00 1.0166860089832568e+01 8.9159068129420298e+00 0 1 -1
423 2 2.9647360462059615e+00 9.7864782853268970e+00 8.3811393575122040e+00 0 1 -1
557 2 3.5531866587270606e+00 1.0345285350264623e+01 5.5104248283543695e+00 1 0 -3
556 1 2.8263357217009277e+00 1.0952130863806136e+01 5.2488681106372006e+00 1 0 -3
558 2 3.1022524382920778e+00 1.1688858715065090e+01 5.7994723940086086e+00 1 0 -3
149 2 1.0975834786104173e+00 1.0973046294588112e+01 5.5475807524758665e+00 2 -2 -1
87 2 7.2059698659644111e-01 9.4539245752222563e+00 8.2100426626890055e+00 -2 0 -3
168 2 7.6796534278642694e+00 9.3232418681894185e+00 5.6282909048815064e+00 -4 3 -2
228 2 6.8530218352451122e+00 1.2829806295360417e+01 4.9528856333678828e+00 0 1 1
521 2 5.7360527418033582e+00 1.2236739190750800e+01 9.0608686778276635e+00 4 2 1
16 1 7.9192581527666928e+00 1.2359587487665351e+01 6.4166689696104893e+00 -1 -1 -2
42 2 8.4825120313266602e+00 9.0997850368872975e+00 7.4891769389454952e+00 1 0 1
535 1 4.8412584398592378e+00 9.5088827298007423e+00 5.7598920200318107e+00 1 -1 0
522 2 5.4599328228377413e+00 1.1027829781315354e+01 8.1458082171412194e+00 4 2 1
167 2 7.4699935909085973e+00 1.0755437454873388e+01 5.3241805813248693e+00 -4 3 -2
536 2 5.6178516641071239e+00 9.5869686848657985e+00 5.1689648887226074e+00 1 -1 0
520 1 6.1970691795655206e+00 1.1476161325560781e+01 8.5460709792052185e+00 4 2 1
18 2 8.6615806689379653e+00 1.1800590194695678e+01 6.7560323115670524e+00 -1 -1 -2
17 2 7.3142607354590714e+00 1.2218120624710888e+01 7.1301431119025489e+00 -1 -1 -2
188 2 3.7351539832474892e+00 1.6281832772778461e+01 7.5304927940655535e+00 2 2 1
187 1 3.2817959207221263e+00 1.5603776002328287e+01 8.1229244321915459e+00 2 2 1
410 2 3.1625574815491007e+00 1.3803308498293003e+01 7.3567682974249911e+00 -2 3 1
424 1 6.9574488981634852e-01 1.6615358311468768e+01 5.7704650358209761e+00 1 -3 1
409 1 3.4597569677885440e+00 1.3386168228814709e+01 6.5068287238774198e+00 -2 3 1
411 2 4.4205971293108330e+00 1.3552601699695398e+01 6.6059430713268279e+00 -2 3 1
189 2 2.3216167533197076e+00 1.5585168583682957e+01 8.1195686887972300e+00 2 2 1
425 2 7.5869354420816937e-01 1.6327132625047195e+01 6.6892915353167428e+00 1 -3 1
352 1 6.2451683728319851e-01 1.6266111908033107e+01 8.5159900331439395e+00 -1 0 3
426 2 6.0144635129665502e-01 1.5810473461913263e+01 5.2593486960396580e+00 1 -3 1
442 1 5.8301294537288992e+00 1.4181010685019771e+01 6.6282053118388706e+00 0 -2 -2
444 2 5.5369319687925325e+00 1.4847684179614658e+01 6.0070297147064586e+00 0 -2 -2
509 2 8.4094154016597926e+00 1.4823908677186289e+01 7.0388341921937458e+00 1 1 1
508 1 8.8305945858928627e+00 1.5708019002603713e+01 6.9434706022475625e+00 1 1 1
443 2 5.8940862777754326e+00 1.4602422955958712e+01 7.4844864952277064e+00 0 -2 -2
510 2 8.9560130850925930e+00 1.5912008317524375e+01 7.9103221267518107e+00 1 1 1
107 2 3.9650455562795557e+00 3.0469171732226714e+00 1.1397930968943529e+01 -1 2 2
219 2 2.9452517348276239e+00 1.3776673896633835e+00 1.2859175807321884e+01 -1 0 -1
270 2 1.3584830186797752e+00 2.4843172932291253e+00 1.1113265125714161e+01 3 -1 2
268 1 1.0404041993193913e+00 1.7511449633914922e+00 1.0578547413493858e+01 3 -1 2
385 1 9.8548245853950778e-01 4.3859049152851366e+00 1.2149701493667651e+01 2 -2 -1
106 1 3.9922404067033961e+00 2.0154752743491740e+00 1.1524761127775161e+01 -1 2 2
108 2 4.6586555838846175e+00 1.6495032613881502e+00 1.0914464809181752e+01 -1 2 2
386 2 1.7656726089587198e+00 4.4377699835357829e+00 1.2736604998200074e+01 2 -2 -1
152 2 2.3726791769634517e+00 2.2586177826625438e+00 9.2014020649813038e+00 1 1 1
439 1 8.1852602589714962e+00 1.6516185631586668e+00 1.1076676923928325e+01 1 2 2
72 2 5.0278500516309848e+00 1.9863776216126725e+00 1.2929841892123282e+01 1 0 -2
477 2 6.9642484702654617e+00 4.0771244265913467e+00 1.2710447681612131e+01 2 1 -3
97 1 5.8219382224496394e+00 1.0208535737383020e+00 9.8604298713711582e+00 -2 2 -1
98 2 6.7377101382744371e+00 1.1064008175398050e+00 9.9411520540429716e+00 -2 2 -1
440 2 7.9792084324363861e+00 2.5177841408313077e+00 1.0581191142307512e+01 1 2 2
446 2 7.0570500670027565e+00 4.3277428897602821e+00 9.8910315095300270e+00 2 1 2
441 2 8.8801272692574535e+00 1.1759837427215385e+00 1.0488096926887467e+01 1 2 2
523 1 8.2947465757359833e+00 4.3939716643571414e+00 1.1589779547877839e+01 0 3 1
445 1 6.3241941854118551e+00 4.5657811491117695e+00 9.2920210221387922e+00 2 1 2
290 2 8.7787379243470873e+00 1.9831030958241223e+00 1.2752607764078581e+01 1 -1 0
387 2 1.1280684865081358e+00 4.9231881365379477e+00 1.1367894488022365e+01 2 -2 -1
331 1 3.8784361831828527e+00 4.9958311141636615e+00 1.0921050984594043e+01 -1 -1 -3
333 2 3.1622118585948824e+00 5.3299007715593749e+00 1.0309573707690120e+01 -1 -1 -3
27 2 4.2918822347117267e+00 5.9500129751071933e+00 1.2470074857907658e+01 0 -4 -2
142 1 1.5032267310501983e+00 5.7946111716063271e+00 9.5425517709669307e+00 0 0 0
143 2 1.4853245162082982e+00 6.7345645705604502e+00 9.9414232167138863e+00 0 0 0
345 2 3.4288907798182526e+00 8.2932462729314906e+00 1.1284645110363648e+01 1 -3 0
313 1 1.6263165752226467e+00 8.3387324787198196e+00 1.0832127787793521e+01 0 0 2
343 1 4.3579840034878217e+00 8.2516131849355610e+00 1.1006994616932946e+01 1 -3 0
332 2 4.5458842467315623e+00 5.1322933572474589e+00 1.0267906922390528e+01 -1 -1 -3
314 2 1.0784754258931333e+00 8.1419737208112188e+00 1.1652193466906587e+01 0 0 2
144 2 6.6219423394064958e-01 5.4734424528981318e+00 9.2146087016626339e+00 0 0 0
507 2 5.9500495207744581e+00 7.7717299742143764e+00 9.7871732990052518e+00 -3 -1 2
299 2 7.1411549177751263e+00 7.0605773504312710e+00 1.2148614972519221e+01 -2 0 2
298 1 7.6653833963196183e+00 6.8536481431284582e+00 1.1318992733569580e+01 -2 0 2
300 2 8.3862790023458729e+00 7.5359114961154381e+00 1.1189549121018363e+01 -2 0 2
525 2 8.1937616003844198e+00 5.4103454643225897e+00 1.1418508322362143e+01 0 3 1
447 2 6.3662157102348740e+00 5.5603195207587897e+00 9.2383216489644742e+00 2 1 2
422 2 3.8765358180655602e+00 9.4108663910026280e+00 9.5718353464319144e+00 0 1 -1
315 2 1.1849515078958872e+00 9.1449535072494008e+00 1.0378217384262689e+01 0 0 2
238 1 3.1244685390579550e+00 1.1969551494535919e+01 1.0883225843854715e+01 0 -2 0
93 2 2.9880106937474307e+00 1.0982343504487957e+01 1.2675207400870166e+01 -3 0 -4
240 2 3.8126512301348332e+00 1.2581308682235271e+01 1.0640810542521333e+01 0 -2 0
239 2 3.1244787725578886e+00 1.1455805248719530e+01 1.0057839064357061e+01 0 -2 0
233 2 1.3491322650510424e+00 1.1578854042085940e+01 1.1336232721429349e+01 1 1 1
534 2 6.9298463338607261e+00 1.0717861436908258e+01 9.9389672591238138e+00 2 0 2
344 2 4.8302629826560102e+00 8.8152170505635166e+00 1.1608871362810298e+01 1 -3 0
285 2 8.3938392936292026e+00 1.2899578564782697e+01 1.2287105068246033e+01 1 -1 -1
533 2 7.9614655777441756e+00 1.1101571780612906e+01 1.1036375868796414e+01 2 0 2
378 2 6.3517778557564686e+00 1.0197167279670557e+01 1.2020183556258921e+01 -2 -2 3
532 1 7.3821347175459042e+00 1.0387985400673896e+01 1.0756534353504376e+01 2 0 2
376 1 5.8259728193518523e+00 9.6431224247195146e+00 1.2745034126229775e+01 -2 -2 3
330 2 8.8158130075058523e+00 9.3224018253208687e+00 1.0084179097044855e+01 0 4 -1
377 2 5.2779293358740782e+00 1.0197953819218748e+01 1.3266127859939466e+01 -2 -2 3
283 1 8.8981688137269774e+00 1.2287270061490636e+01 1.1690898093262648e+01 1 -1 -1
5 2 8.0631533941858713e-01 1.3663794372886400e+01 9.6444701810165530e+00 1 1 1
281 2 2.1946362828415111e+00 1.7023146817015075e+01 1.1057937809377428e+01 0 2 1
6 2 1.3339489631373316e+00 1.4558403973518351e+01 1.0850142845922825e+01 1 1 1
278 2 1.6537496602912918e+00 1.5687034853381439e+01 1.3191150486878341e+01 0 3 -1
280 1 2.8252012881867445e+00 1.6284573346904281e+01 1.0904238174289533e+01 0 2 1
282 2 2.9512688145141244e+00 1.5997489344805855e+01 1.0004313930589795e+01 0 2 1
479 2 4.1838134374490092e+00 1.5944222781746319e+01 1.2035176432592559e+01 1 -3 -1
451 1 5.4773861475278887e+00 1.3174914996468358e+01 1.0767448219377668e+01 -1 1 1
452 2 5.5227649824624718e+00 1.3369412774559059e+01 1.1723827434274551e+01 -1 1 1
215 2 6.2469928692648740e+00 1.5995357282114401e+01 9.5275229554849403e+00 2 -3 0
478 1 5.0040740884901806e+00 1.5840377485920145e+01 1.2585684124045127e+01 1 -3 -1
453 2 5.9002365147156626e+00 1.3987306066569131e+01 1.0435869359665215e+01 -1 1 1
204 2 8.1273213378920222e+00 1.6667962467169893e+01 1.1799203753804832e+01 -1 -1 0
202 1 8.0043134074623410e+00 1.5751108315163636e+01 1.1713338923637412e+01 -1 -1 0
203 2 7.6020506160561734e+00 1.5465321344924286e+01 1.2476861320743346e+01 -1 -1 0
480 2 5.3023507813914046e+00 1.6720793744417357e+01 1.2839793010536537e+01 1 -3 -1
216 2 7.3075799605694680e+00 1.4862131448661966e+01 9.2872131121733350e+00 2 -3 0
214 1 6.4083195607871204e+00 1.5102553542393395e+01 9.1393576879655161e+00 2 -3 0
57 2 7.2404490153600876e-01 2.8092219915491423e+00 1.5989152207370326e+01 -4 -1 -1
312 2 2.4028472905897824e+00 3.8534411124122747e+00 1.6926516587267805e+01 -1 1 2
427 1 2.8052421779142538e+00 4.2844453099683708e+00 1.4239713980084570e+01 0 -1 -1
429 2 3.2279122646439102e+00 3.7626787955611403e+00 1.4936394382895886e+01 0 -1 -1
206 2 3.2126913433147175e+00 1.9165306086615048e+00 1.5657606485132053e+01 -3 4 -1
205 1 4.1769387412498045e+00 1.9220481894594410e+00 1.5770994580241180e+01 -3 4 -1
55 1 1.5552065121869512e+00 2.4645861950416998e+00 1.6366838983339026e+01 -4 -1 -1
218 2 1.3271063898357531e+00 1.1195154072894336e+00 1.3372708024584179e+01 -1 0 -1
217 1 2.3074005395090236e+00 7.8905353675225576e-01 1.3371697387947066e+01 -1 0 -1
207 2 4.6991320863747355e+00 1.7333239267889271e+00 1.5030916019796244e+01 -3 4 -1
569 2 1.2481686736145834e+00 4.4826369492230356e-01 1.6142785390292055e+01 -3 -1 -2
326 2 4.6329163318338722e+00 1.8388304927601131e+00 1.7409895941083015e+01 1 2 1
56 2 1.3673438631669055e+00 2.0792171553650780e+00 1.7236410842834140e+01 -4 -1 -1
475 1 6.2711633646819065e+00 4.0169388241006683e+00 1.3392045909513342e+01 2 1 -3
71 2 6.3736841342109516e+00 1.9348877991656777e+00 1.3632242749232734e+01 1 0 -2
70 1 5.6034721511790178e+00 1.3757420090398398e+00 1.3519627908613034e+01 1 0 -2
347 2 7.7947477615205711e+00 2.2744383215850101e+00 1.5632163616230027e+01 -3 1 0
368 2 5.8420069532489247e+00 4.1283196292645608e+00 1.6234322257506928e+01 0 -1 -3
346 1 7.0329178622319795e+00 1.9434618539740318e+00 1.6128132474040555e+01 -3 1 0
348 2 6.8729618025544044e+00 9.8756207339520952e-01 1.6069474027892824e+01 -3 1 0
310 1 2.9469607264177142e+00 4.6025954453835585e+00 1.7227164143871946e+01 -1 1 2
138 2 1.6339833588292096e+00 8.5704952356449091e+00 1.7415167219533686e+01 3 -2 -1
428 2 3.4931803144972826e+00 4.8338360749455083e+00 1.3931725555855092e+01 0 -1 -1
369 2 4.3899577682320601e+00 4.7137467904119079e+00 1.6528727167982829e+01 0 -1 -3
25 1 4.5106142165724901e+00 6.0029989261228858e+00 1.3370504815548580e+01 0 -4 -2
26 2 4.5036328878027891e+00 6.9456950340856132e+00 1.3637477766462455e+01 0 -4 -2
111 2 1.5733514446669901e+00 5.8974242750442150e+00 1.4772561780117105e+01 -2 -1 -3
276 2 4.0966984550711718e+00 8.1806421736406563e+00 1.5374884395596261e+01 -4 -1 1
274 1 3.4127486899417701e+00 8.1933564479897978e+00 1.4656952754632240e+01 -4 -1 1
109 1 1.2428709945976306e+00 6.7898513308806159e+00 1.4919683597155739e+01 -2 -1 -3
110 2 2.1189471720026885e+00 7.2662105940443364e+00 1.4842928424489569e+01 -2 -1 -3
266 2 2.4270042235511609e+00 6.5788506044349342e+00 1.7356541995667762e+01 -1 1 0
193 1 8.5894120724901750e+00 4.7822714267520778e+00 1.4925555202833040e+01 1 -1 -1
195 2 8.4111774338332275e+00 4.5696352636750142e+00 1.5856725658529026e+01 1 -1 -1
304 1 7.3433204830056420e+00 7.9191689622843953e+00 1.4029335634898427e+01 -1 1 0
306 2 6.6328314503162913e+00 8.3570736848484586e+00 1.3537210711806150e+01 -1 1 0
476 2 5.6071917920167920e+00 4.7509377890297930e+00 1.3361094313456999e+01 2 1 -3
367 1 5.2919994226241469e+00 4.8867582154299996e+00 1.6190248550620609e+01 0 -1 -3
194 2 7.7295865913743462e+00 4.6843451658281419e+00 1.4520474317762682e+01 1 -1 -1
305 2 6.9222733211045071e+00 7.5620566183664097e+00 1.4864922882752390e+01 -1 1 0
374 2 5.9057012850471775e+00 6.2411207631784889e+00 1.6203484300133574e+01 2 0 1
373 1 6.2320207240014156e+00 7.1673070829138812e+00 1.6222702315656342e+01 2 0 1
375 2 7.0879250495007584e+00 7.0876503893439722e+00 1.6695292224253656e+01 2 0 1
275 2 3.2015601029313183e+00 9.1609826461187414e+00 1.4343981908160577e+01 -4 -1 1
471 2 2.2866809618481447e+00 1.0941218509601484e+01 1.7281922234025537e+01 -1 -1 1
137 2 8.5455796862233513e-01 9.3521402087964969e+00 1.6268090657600215e+01 3 -2 -1
482 2 1.2829291140595223e+00 1.0457344416823783e+01 1.4206914213234592e+01 -3 -1 3
91 1 3.1115615120094877e+00 1.0627751825033185e+01 1.3563329740097375e+01 -3 0 -4
92 2 2.9832112203303347e+00 1.1521237687148234e+01 1.4068615028379190e+01 -3 0 -4
322 1 2.7559332300503492e+00 1.2904615393635423e+01 1.4787160597219041e+01 -1 0 0
136 1 1.0801516668861539e+00 9.3576175576431737e+00 1.7231638401365231e+01 3 -2 -1
324 2 2.4821161730949681e+00 1.2695720444904573e+01 1.5699771500568682e+01 -1 0 0
161 2 4.4334896895796820e+00 1.2825523015333800e+01 1.4993159432433835e+01 2 1 2
469 1 2.3898618513709486e+00 1.1934565658788014e+01 1.7249982928570475e+01 -1 -1 1
81 2 8.5701981114742587e+00 1.1372839948333406e+01 1.6800754567705830e+01 -1 4 0
213 2 8.4480120961065115e+00 9.1363537303647604e+00 1.7095331422718488e+01 0 -2 1
264 2 6.1050502016920456e+00 9.0272020799600519e+00 1.6458307590432742e+01 -1 4 -1
262 1 5.9159258221903253e+00 9.9870166943104337e+00 1.6285498071648085e+01 -1 4 -1
263 2 5.3103572648141348e+00 1.0075452267627920e+01 1.7076279740036327e+01 -1 4 -1
162 2 5.6947179365898997e+00 1.1819268202341703e+01 1.5584567215546226e+01 2 1 2
355 1 8.5905561800441923e+00 1.0271145931319277e+01 1.5439430087096367e+01 1 -1 -2
357 2 7.8188472332381105e+00 9.6815011610207691e+00 1.5207542216058521e+01 1 -1 -2
160 1 5.3413981428597319e+00 1.2703364123984970e+01 1.5351403893672853e+01 2 1 2
104 2 4.6745547774958682e+00 1.3479491491712245e+01 1.7058260659420455e+01 -1 -1 2
491 2 4.2779423528832332e+00 1.5670721750609120e+01 1.4409650782139629e+01 3 1 -2
492 2 4.7203322494614763e+00 1.5814262551218127e+01 1.5812935052876746e+01 3 1 -2
490 1 3.9294535019194803e+00 1.5499715585496565e+01 1.5314101811922727e+01 3 1 -2
279 2 1.0268060464845312e+00 1.5056254470065378e+01 1.4517687534346173e+01 0 3 -1
277 1 1.2113878288815756e+00 1.4879006696745508e+01 1.3533693052242814e+01 0 3 -1
570 2 2.4321304132976178e+00 1.6187898720461735e+01 1.5721983516524240e+01 -3 -2 -2
323 2 2.4150721176655123e+00 1.3736598077447876e+01 1.4500442482571836e+01 -1 0 0
568 1 1.6082140092594179e+00 1.6276250958480972e+01 1.6253108573082962e+01 -3 -2 -2
192 2 6.4739758084936199e+00 1.3281498711065067e+01 1.4194289940118194e+01 2 0 -2
467 2 6.6463596900557249e+00 1.5155951283983740e+01 1.5131651217205508e+01 0 -2 -3
468 2 7.4637627762751038e+00 1.5362007231626743e+01 1.6421434685273162e+01 0 -2 -3
190 1 7.1486093493708607e+00 1.3702539818017435e+01 1.3638704936590075e+01 2 0 -2
466 1 6.6790447634019845e+00 1.5752535756655034e+01 1.5893676868544329e+01 0 -2 -3
191 2 7.9423431200067194e+00 1.3870919871092179e+01 1.4114678407962941e+01 2 0 -2
199 1 1.1668763628069426e+01 4.0101908780927698e+00 3.5763668951608771e+00 2 -1 -2
223 1 1.0611270310607287e+01 6.2837825804368763e-01 3.4340976928925651e+00 0 1 -2
224 2 1.0433194156576075e+01 1.0035732408106726e+00 4.3078396619873711e+00 0 1 -2
200 2 1.2229762320944607e+01 3.3523640130255576e+00 4.1412596723386645e+00 2 -1 -2
455 2 1.1458208264827437e+01 1.1736126161581621e+00 2.1347868556069507e+00 0 0 1
497 2 9.9742610788770687e+00 3.7262974468482977e+00 3.5296299005919907e+00 -1 1 2
454 1 1.2113554261166554e+01 1.3969712831128238e+00 1.4064843691881557e+00 0 0 1
496 1 9.1238483503937147e+00 3.4887532253587166e+00 4.0032045821368705e+00 -1 1 2
456 2 1.2765173582040928e+01 6.8348318504589312e-01 1.1848251442704640e+00 0 0 1
408 2 1.3558055172156294e+01 1.2204941566423593e+00 4.3359889438706531e+00 -1 -1 -1
406 1 1.3575678411514248e+01 2.1854652557622698e+00 4.6418731427793958e+00 -1 -1 -1
407 2 1.4199040468508988e+01 2.5425775303411164e+00 3.9962112809833736e+00 -1 -1 -1
461 2 1.4538007060625405e+01 4.2650541982562560e+00 2.1123909476025600e+00 -2 0 -1
460 1 1.4816379124783241e+01 4.4477283822094256e+00 3.0384407616108335e+00 -2 0 -1
88 1 1.6026056622205179e+01 1.1551745033819709e+00 2.8483226423857841e+00 -2 -1 0
90 2 1.5712700341455047e+01 1.1038850649531238e+00 1.9506139567208429e+00 -2 -1 0
145 1 1.3772885727658759e+01 3.7530524960194693e+00 8.4623146614605360e-01 1 1 -2
146 2 1.3301573068654287e+01 3.0467321768351594e+00 1.2854140717892664e+00 1 1 -2
201 2 1.2265689930896185e+01 4.6367396926134239e+00 3.0740981210333880e+00 2 -1 -2
19 1 1.0090143727524078e+01 6.8647143427540973e+00 2.2311538885596729e+00 1 1 6
20 2 1.1021119573518865e+01 7.0214422976103616e+00 2.0789668152701362e+00 1 1 6
21 2 9.6581804851174873e+00 7.5087577534072523e+00 1.6188890162923162e+00 1 1 6
67 1 1.2985323979023926e+01 6.6611558134810220e+00 2.8184113004581648e+00 -1 0 -1
69 2 1.2966870878958707e+01 6.5496415233284297e+00 3.8000157229784719e+00 -1 0 -1
401 2 9.2697990331879367e+00 5.1762395528181129e+00 1.4354037923956378e+00 -1 0 -1
44 2 9.7911814091305072e+00 7.1783803512152833e+00 4.0087897093048390e+00 2 -2 0
43 1 9.2799005446742537e+00 7.5994188619022562e+00 4.7748962740867595e+00 2 -2 0
395 2 1.6575236458296011e+01 4.6401312287051093e+00 2.9952312006240942e+00 2 0 1
462 2 1.4308034052655607e+01 5.2471155826739420e+00 3.2203367039772859e+00 -2 0 -1
68 2 1.3864122152444432e+01 7.1262066368102763e+00 2.6597566697733743e+00 -1 0 -1
547 1 1.5261010801903462e+01 7.7150726431244703e+00 2.2998133247521269e+00 1 4 1
549 2 1.5854803898536364e+01 7.8984695655397346e+00 3.0621430565836310e+00 1 4 1
548 2 1.5725987631541718e+01 7.3346742927103650e+00 1.5024083997970354e+00 1 4 1
7 1 1.7002164553461938e+01 8.4019299054641738e+00 4.3285895026345136e+00 2 1 2
567 2 1.7050762741983210e+01 5.6142962680014037e+00 1.0821177983585017e+00 1 4 1
248 2 1.0079329696583772e+01 1.1459842387613415e+01 3.6809516814204644e+00 1 4 1
33 2 1.2321206798970533e+01 9.3776999969315220e+00 3.4433516366829702e+00 -1 2 3
529 1 1.1893430803017234e+01 1.0071364947619765e+01 1.3965130312651977e+00 0 0 3
531 2 1.1098790148271721e+01 1.0195948455267063e+01 1.9666870529734444e+00 0 0 3
10 1 1.3042927578963647e+01 1.2323132734262627e+01 4.5699150885330164e+00 3 1 2
32 2 1.2663037190943363e+01 1.0758056546143923e+01 4.3141047106528099e+00 -1 2 3
31 1 1.2606140969744676e+01 9.7608467190156833e+00 4.2836115221143487e+00 -1 2 3
247 1 9.8054127116501206e+00 1.0776477532852653e+01 3.1219419934355730e+00 1 4 1
80 2 9.0589279068031239e+00 1.1570105738743536e+01 1.5638599718264412e+00 -1 4 1
249 2 9.0471833821288126e+00 1.0340499579196637e+01 3.5605071156794303e+00 1 4 1
413 2 1.7211937679902789e+01 1.0221063754459792e+01 1.8127627481468036e+00 -1 0 2
412 1 1.6839194297845218e+01 1.0681470130861529e+01 2.5502565113584179e+00 -1 0 2
516 2 1.3505600397432431e+01 1.0507436166908910e+01 1.7261781045216738e+00 0 0 -1
515 2 1.5135119238873443e+01 1.0325931710804138e+01 1.7399274347568612e+00 0 0 -1
12 2 1.3336207737690964e+01 1.2848145958893078e+01 3.8299511112950717e+00 3 1 2
514 1 1.4349143310425251e+01 1.0743583804766942e+01 1.3020048561280251e+00 0 0 -1
512 2 1.4314907996345761e+01 1.2652504047488943e+01 1.8160383123739769e+00 0 0 -1
414 2 1.7033754348516325e+01 1.0067415761522117e+01 3.2504081721981630e+00 -1 0 2
15 2 1.7113667845999693e+01 1.2149245858977102e+01 2.3451185229373426e+00 -2 -1 1
102 2 1.2519160961573581e+01 1.5356610299974861e+01 8.6612671900261284e-01 1 0 4
464 2 1.1406883913517365e+01 1.3171374149700165e+01 4.7240443673291885e+00 0 3 1
463 1 1.0491099604827202e+01 1.3059088452860358e+01 4.4019831929700572e+00 0 3 1
84 2 9.7348801497650186e+00 1.6131104725338375e+01 1.2794230447852528e+00 -2 0 1
398 2 1.0824857126154205e+01 1.4249386779114721e+01 1.1483049270062731e+00 0 0 -1
225 2 9.9026142293956809e+00 1.6723443483298979e+01 3.2415557354590612e+00 0 0 -2
397 1 1.0923106281536537e+01 1.4871619054027811e+01 1.9690391139184640e+00 0 0 -1
308 2 1.3115251816619175e+01 1.6036428121147885e+01 3.3357127536250095e+00 3 -1 2
399 2 1.0485907395604297e+01 1.4331230004823853e+01 2.6301016071879291e+00 0 0 -1
309 2 1.2886117037989051e+01 1.5873612020217177e+01 4.9131409518355174e+00 3 -1 2
89 2 1.5972072190861214e+01 1.7017975248319168e+01 3.2114479264985292e+00 -2 -2 0
307 1 1.3570553352514469e+01 1.6024947900008343e+01 4.2285182076965739e+00 3 -1 2
513 2 1.3985630759486961e+01 1.4093824592713302e+01 1.8782012837834647e+00 0 0 -1
486 2 1.6595835052525537e+01 1.3719966869885022e+01 7.4578869023685268e-01 0 1 0
511 1 1.4342342171815682e+01 1.3377472886913484e+01 2.4725767566224590e+00 0 0 -1
159 2 1.5040466698917156e+01 1.5275214224343205e+01 3.7019138522198189e+00 1 0 -2
157 1 1.5962802554693040e+01 1.5389425332632511e+01 3.4763516391596152e+00 1 0 -2
158 2 1.6084219928582225e+01 1.4809603358548712e+01 2.7039850821703277e+00 1 0 -2