LAMMPS data file via write_data, version 8 Apr 2021, timestep = 86067000

576 atoms
2 atom types

-0.05967520178893961 17.979676201801436 xlo xhi
-0.26467620179101015 17.774675201800335 ylo yhi
0.08532479821027125 18.124676201801645 zlo zhi

Masses

1 16
2 2

Atoms # atomic

296 2 0.7963529267440025 2.8932301424194997 1.9428414985891527 1 0 -1
295 1 1.173053990854282 2.5959022610168305 1.0993737005980933 1 0 -1
297 2 2.1148459283576813 2.447838175460083 1.1572763149128762 1 0 -1
247 1 3.970716809977695 2.32596730929075 1.1165845510669332 3 -1 0
223 1 0.0851394592651771 3.2452690444903 3.7084691289419798 1 1 -4
446 2 0.48238550603306374 1.9993592877024797 4.537054690645072 2 2 -1
224 2 0.7278725020975296 3.830235162820335 4.14309335321739 1 1 -4
447 2 0.6928626807913222 0.47184629733303074 4.269292437224006 2 2 -1
557 2 4.026209753098241 3.5787717690647205 2.3369650321010083 0 -1 -2
556 1 4.111444010375123 4.212922524249767 3.0651562521717053 0 -1 -2
513 2 1.1023729236148199 1.3147955656977608 0.1973463630223498 3 0 0
249 2 4.3156291935725255 2.6215118189948092 0.2605424376937737 3 -1 0
248 2 4.5602246597439 1.6373360988911712 1.482376464207642 3 -1 0
148 1 5.326717284303029 0.4572380040857579 2.479808021548336 2 1 1
69 2 5.460716442037999 0.6228757151225054 4.014767001573675 3 2 1
467 2 7.706439030957533 1.3744138373362702 1.0756376497616018 1 -2 0
149 2 6.179978165996131 0.3342420313645804 1.9449608605443895 2 1 1
466 1 7.589644238252603 0.39774232839478263 1.0400269157997486 1 -2 0
116 2 7.8934612399032416 3.7901650599890795 0.49433338481781985 0 -2 -2
117 2 8.071479330666508 3.466723044443968 2.016948078814211 0 -2 -2
115 1 8.35379546336119 3.148107883918422 1.127807804185982 0 -2 -2
509 2 5.118667313099624 3.813028654648554 4.390855190087031 0 3 3
488 2 7.248601950166636 3.8567163603405055 4.211458605328652 -3 -1 -1
487 1 8.040146514334884 3.8948201842372736 3.679667831586571 -3 -1 -1
489 2 8.770887945453962 3.354449518500499 4.13559960639991 -3 -1 -1
468 2 7.304073225600354 0.2240214645055873 0.08545665944450788 1 -2 0
273 2 2.6831245725511104 4.554119879691864 3.886627063656618 0 -1 -1
429 2 0.6550999742557828 8.411172616289617 0.33148795172947454 1 0 1
271 1 2.034272458445247 4.592480663019612 4.589218556533459 0 -1 -1
264 2 2.9690852052207313 8.562026429058069 0.748394052543171 2 -1 0
558 2 4.482758279182779 5.029712493180954 2.645808087322677 0 -1 -2
431 2 4.842386543531521 7.305232156720132 2.1003836961473437 5 1 1
432 2 6.159933773329742 6.7916291707110235 1.4720354023099844 5 1 1
430 1 5.627253982948699 6.770453681471447 2.2930415670882773 5 1 1
452 2 6.831918902378606 8.04268394178834 2.9191256148868363 0 1 2
453 2 8.253441399515424 7.824927821049359 2.9042609921422016 0 1 2
474 2 8.840663846173905 5.643908606693495 3.6680522465126506 1 -1 0
342 2 5.8510528045238654 6.4682573149350855 4.265098357912659 -1 1 -1
451 1 7.63449656106577 8.54581120524375 2.7680988424387074 0 1 2
71 2 3.4285972304264787 0.38097451862231746 7.610371538353632 3 -2 2
445 1 0.6843357137955707 1.131522094677575 4.992922087761812 2 2 -1
142 1 3.2732649920430767 1.2803098543482276 6.269864999091183 -2 1 3
86 2 2.8936605475661716 2.8251155133754215 6.758572182261399 1 1 2
144 2 2.5083466654371946 0.9021349781923901 5.818453674268859 -2 1 3
143 2 4.138178298465534 1.1602966220435569 5.746338790906653 -2 1 3
85 1 2.707857883557494 3.7538522910850345 7.0562193720741595 1 1 2
543 2 1.5456844048427845 4.153651678975519 8.3382861358555 0 -3 -1
70 1 3.6775493258578007 -0.09012326337948215 8.435015621919174 3 -2 2
508 1 5.80800342328422 3.6564068046028133 5.08912790130857 0 3 3
510 2 5.781616533506966 2.6480084126031795 5.210872841248278 0 3 3
67 1 5.460198375042681 0.8298834645547856 4.996930131691237 3 2 1
68 2 5.9380598307165195 0.09489346414243188 5.456625682290997 3 2 1
63 2 5.218293909845032 0.39545874980956697 8.55536150486525 1 0 1
173 2 7.487379642494139 3.4076344240525716 8.90263591341868 1 0 5
174 2 6.208729657654951 2.4651377992332417 8.790823859886828 1 0 5
61 1 6.158993409898487 0.5953873327647401 8.821042557068335 1 0 1
62 2 6.676457928229051 0.11060424328538854 8.180480227937228 1 0 1
172 1 6.472935430412911 3.3821710323683782 8.848196889771897 1 0 5
87 2 2.369433595118471 4.265340587357673 6.219832040292456 1 1 2
323 2 4.006174480705787 4.9159425541492965 7.48126305353594 -1 0 0
272 2 1.7184586084745654 5.524862803497429 4.642591347682805 0 -1 -1
5 2 0.9134353123813155 7.848101463540855 5.192217423328333 -2 0 0
4 1 1.5419946356678622 7.158754712632463 5.496204445739215 -2 0 0
6 2 1.3531405089220379 7.069891538174406 6.4601498802589665 -2 0 0
165 2 2.8493885800936827 7.748955491251433 5.805974750155327 1 3 2
217 1 0.8861062119084763 6.999783547797834 8.131320112869115 -1 -1 -1
218 2 0.9972482026338142 6.050342549536786 8.450697245074654 -1 -1 -1
163 1 3.6885659295981448 8.21813882905344 5.799509606497527 1 3 2
164 2 4.419348864085105 7.554614825561047 5.788041368674024 1 3 2
541 1 0.9679224647307015 4.427885177558639 9.076967030027575 0 -3 -1
324 2 5.446127688123403 4.781471702624636 7.791429547414766 -1 0 0
322 1 4.804734684679159 5.473152193690791 7.588280063006372 -1 0 0
549 2 7.4701271534114095 7.48711966010902 8.180018313359627 0 0 -2
341 2 5.862320086618413 5.743533525467392 5.624105782374947 -1 1 -1
340 1 5.9706970563684125 6.603736455692389 5.236887077783763 -1 1 -1
548 2 7.043121965465077 7.187621803070127 6.799845324724956 0 0 -2
547 1 7.675996099113164 7.740670023022901 7.226883994610585 0 0 -2
560 2 4.588358335123378 6.243924340331384 8.96648897821717 0 1 2
484 1 0.8037128807054116 0.025930395347159296 13.303940680673438 3 0 1
72 2 3.272218490287966 0.3840514490102591 9.191465468693965 3 -2 2
159 2 2.5212918354221485 0.050485198161813516 11.07350526450698 2 -1 -2
157 1 2.8940255734297016 0.9465958733517844 10.70036950176741 2 -1 -2
44 2 2.06622316191646 2.4330763969103986 11.1976428737263 0 2 1
43 1 1.8306898056709755 3.3707359983922176 11.606371181092717 0 2 1
158 2 3.595509768741891 1.233885974881836 11.396120148111873 2 -1 -2
45 2 1.0524039600393595 3.110738574147737 12.272942895091292 0 2 1
542 2 1.352538798281773 4.202406991420762 9.925539682703025 0 -3 -1
443 2 0.07192060445093929 1.5766049487035545 13.146580964328352 -2 -5 0
469 1 4.859068360722012 1.4407249521427974 12.69555084459838 0 2 0
471 2 5.284530441174756 2.2999507634249934 12.450388801964003 0 2 0
123 2 6.2290147656947275 3.803203035405213 10.66978559015379 0 4 0
121 1 5.8186632821221815 3.7528616729892947 11.581878283568436 0 4 0
470 2 5.390265754246467 0.7365745627664048 12.241634570489325 0 2 0
126 2 6.9458414928397865 4.22402484191178 12.658003416033178 -4 2 1
522 2 8.286343655074106 -0.0412999725140899 11.847427500199736 0 1 0
31 1 6.572360400458896 -0.06781795766678494 11.503651436494541 1 2 -2
33 2 6.301057259558373 0.20250037650480812 10.566213654172671 1 2 -2
275 2 3.065128645432418 4.556773327239262 11.791314343390317 -1 1 1
299 2 1.825796834007365 8.077698418586332 9.240328230572318 1 2 -3
298 1 2.406254004734481 8.59082792980963 9.860675746027322 1 2 -3
561 2 3.8975440658392353 7.490807781149814 9.818299335445406 0 1 2
274 1 3.7847118168435014 5.1930928172630555 11.867276016885782 -1 1 1
276 2 3.81017545695625 5.776873332501417 11.028275522165192 -1 1 1
122 2 4.9892944541158295 4.388921453414935 11.658081891431085 0 4 0
294 2 8.570367818384005 5.39765048467765 11.548413811750123 0 -1 -4
559 1 4.569219929088913 6.790673794733797 9.788235995693775 0 1 2
125 2 7.434617078441055 5.57351090902881 13.365518428943087 -4 2 1
182 2 6.331981100051485 7.460119316612769 9.757986285430148 -1 3 1
181 1 7.3117265894765175 7.66318885392127 9.72233305997427 -1 3 1
183 2 7.791411375888172 6.871864014387228 10.143372551186502 -1 3 1
124 1 7.673214818349093 4.653792340621233 13.159922845154734 -4 2 1
419 2 7.086895109250653 8.000658402281502 13.101756467155809 -4 1 -4
512 2 0.34472728803656444 0.16713596233439365 17.34312958979481 3 0 -1
317 2 2.006120831877645 -0.13228592931589164 14.643332871352015 -1 0 -2
42 2 4.036907777941234 0.6922353082060241 15.409438032646914 1 1 1
111 2 0.3745599414468991 3.756816497269008 17.759933861281866 0 -2 -2
511 1 1.2384351727584542 0.4533261471570891 17.67323863641336 3 0 -1
318 2 2.047047993206871 -0.004107906723456234 16.135373714924043 -1 0 -2
13 1 8.87791619253092 3.4809638247174153 15.158019926750173 -3 0 -2
34 1 6.831809907978571 0.3941316011499223 16.45346824739356 1 1 -1
107 2 6.228904617500423 4.078575497423464 16.810209814920274 2 2 2
36 2 6.100642235672322 0.7760904307976705 15.987302090996337 1 1 -1
396 2 4.740159548999394 2.735958879711156 15.972194469923949 -1 1 0
394 1 4.705488868668245 3.606557785559146 16.480077496186365 -1 1 0
40 1 4.748538669807851 1.3779941868027534 15.2335864880859 1 1 1
35 2 7.574736863661918 0.4589687257971282 15.819753041652067 1 1 -1
41 2 4.820568403475279 1.4490376735927724 14.218803828578753 1 1 1
14 2 8.35239060409429 3.8782130161899824 14.41466024613981 -3 0 -2
108 2 7.762901609844575 4.099078809701834 16.39951442655417 2 2 2
327 2 8.841022280776128 0.2982720296345429 14.10776177793057 -2 0 -1
427 1 1.4572848531991385 8.46027925560365 17.69125207164307 1 0 0
395 2 4.158102085543992 4.263249287471335 15.971716946145639 -1 1 0
109 1 0.07457866646972275 4.652533981906477 17.371417599749254 0 -2 -2
110 2 0.6957733122063349 5.049547244864293 16.7639998572543 0 -2 -2
53 2 0.6168049559702874 7.0615456690163505 15.068189635012605 1 1 1
54 2 2.055302648949717 6.433045223597346 15.182443100948415 1 1 1
52 1 1.172068451147452 6.512536146296081 15.644460619000531 1 1 1
422 2 3.77988923992237 5.5059126154520435 13.793585884019697 -1 0 -2
428 2 1.432022866510505 7.868616051346079 16.946291143508436 1 0 0
421 1 3.630344457393716 5.757840656505148 14.722077798091473 -1 0 -2
423 2 4.159973090474935 6.5067961062691495 15.046891585819065 -1 0 -2
420 2 6.320857021977221 7.6321362130958255 14.39637740379386 -4 1 -4
418 1 7.0419684492216374 7.344851064098901 13.784904517585229 -4 1 -4
106 1 7.126978407969436 4.390643959604596 17.1214643866047 2 2 2
358 1 5.271387322218768 7.739697913846307 15.636838631041627 0 4 -2
399 2 8.698098450161417 7.127961961336741 14.656005406098107 0 -1 0
357 2 6.916835589482391 5.973158332484517 17.69914467259222 3 2 -6
359 2 4.831023655227702 8.575779220657708 15.830470747917783 0 4 -2
356 2 7.647374145467992 7.250224469150892 17.828363707620923 3 2 -6
355 1 6.7434001255492415 6.912528537886931 17.798997596118838 3 2 -6
360 2 5.630512431471338 7.374353349454327 16.494237244659796 0 4 -2
529 1 3.390160882326693 10.084224948852658 3.8458121449624794 1 -1 0
531 2 2.445129316892865 10.33583616335193 4.005410871670463 1 -1 0
241 1 0.7804874685163112 10.911013496360917 4.1611852071716475 1 2 -1
242 2 0.5049846158555847 11.594901752293879 3.5245037546212283 1 2 -1
263 2 3.3984394431981286 9.026209740551524 2.256269860863624 2 -1 0
413 2 0.4324863370513576 12.967692059761998 1.7330302392194799 -1 1 2
262 1 3.6877230320758416 8.768247218736112 1.361068206506505 2 -1 0
230 2 4.554146696984514 11.281967706254633 3.4560964982502855 -6 0 1
339 2 4.898520217764561 12.571291004559866 1.6495151206074032 -1 0 0
229 1 5.016398044316708 12.119837263295837 3.313159534406151 -6 0 1
320 2 7.773100389375987 10.002094899722074 3.659441832598003 0 -1 1
337 1 5.090312474244421 12.628884117610093 0.6891702996467197 -1 0 0
231 2 5.9186661723661995 11.836678943696587 3.465917228638263 -6 0 1
314 2 5.045803511724169 9.603749777914297 0.831907171092233 4 -2 -2
313 1 5.955353842406986 9.913192756574302 0.5455951681656308 4 -2 -2
319 1 7.622532586764892 10.890523416335682 4.069893123936182 0 -1 1
315 2 6.519044115971376 9.373240677203064 1.1375190212646633 4 -2 -2
338 2 5.695549255364297 11.908891270775893 0.5274730284088512 -1 0 0
48 2 2.705158391637608 16.452257644311885 1.4736829520727641 2 -1 1
46 1 1.7522926967400974 16.464782485104255 1.2524399174227934 2 -1 1
57 2 1.4563918108087637 14.948219807816368 0.4598925295447462 -1 0 0
55 1 1.172697290861402 14.054861455846861 0.18495355601621868 -1 0 0
255 2 0.8335362791303137 16.849578177091495 2.600610401008384 -1 -3 -2
47 2 1.514243809330026 17.32192484520151 0.7058061909104202 2 -1 1
460 1 4.412319285433236 16.14250496855095 2.115901192224721 -2 0 2
462 2 4.3997761387781695 15.599797923496347 2.936583664921753 -2 0 2
253 1 0.22294464739671402 17.13873962857625 3.3414213024029507 -1 -3 -2
305 2 4.663153652250153 13.656777022870138 4.110867559638565 -1 2 1
461 2 5.179297439315589 15.80645987468687 1.6292961869130902 -2 0 2
459 2 7.332873373223359 14.71712212216784 0.8044728417826547 -1 -1 1
458 2 5.970847932588827 14.127191093767618 0.3353541337787898 -1 -1 1
457 1 6.449375060773376 14.95234415080983 0.5176332692157831 -1 -1 1
441 2 8.55367585566929 17.40328806750178 2.043585807329221 -1 -1 0
304 1 4.718446988059985 14.623507177619196 4.196237874643297 -1 2 1
439 1 8.902244446957896 16.860084596508834 2.768296579320476 -1 -1 0
150 2 4.885963638088031 17.643725336819916 2.2985218890629233 2 0 1
565 1 8.819707644206192 14.421450109460299 1.4724937463200705 -2 1 -1
567 2 8.924267052424401 13.758970804014883 2.2090205216239087 -2 1 -1
530 2 3.626045300488408 9.516239476070645 4.641213208572028 1 -1 0
238 1 3.510732838980411 10.239410360728456 7.812735347154374 3 -5 -4
374 2 2.392731823167739 11.420776536274296 7.041100121112171 0 1 1
373 1 1.6732019386558135 11.982318762137432 6.671179112817978 0 1 1
375 2 1.0045262789732825 12.161049740913521 7.352368221881927 0 1 1
239 2 3.8078958177858393 9.625048831908805 7.178492027673367 3 -5 -4
243 2 1.0166202930161488 11.293499988240821 5.012898682319616 1 2 -1
240 2 3.17522313119512 9.640081419980202 8.505242669164282 3 -5 -4
281 2 4.840434458765013 10.95883013929196 8.244155159929257 4 -1 -1
279 2 7.543715303903756 9.343185124363389 7.052247915659216 2 2 1
321 2 7.506875491560023 10.698662094464465 5.002050774034424 0 -1 1
278 2 7.044777969446904 10.69743985272164 7.64280268145787 2 2 1
277 1 7.5285832170667675 10.297667532432573 6.923084390500645 2 2 1
282 2 5.827609851375708 12.237784996579887 8.051436337214822 4 -1 -1
280 1 5.739589354549198 11.377058343459202 8.479470876947804 4 -1 -1
88 1 0.44299781908955504 15.651416653030873 5.483213993663273 -1 0 1
90 2 0.4270542046740278 16.34139225093586 4.784727276513507 -1 0 1
537 2 2.4903009624585164 13.620069141925951 6.545667845798082 0 -3 1
536 2 3.228345804524661 14.891984109014167 7.240532591087311 0 -3 1
535 1 2.789749616411331 14.540376517424864 6.421293875349665 0 -3 1
89 2 1.3515435858476719 15.409870405989668 5.660176685547973 -1 0 1
480 2 3.8326020356629495 16.420198678763647 8.66192343609615 1 -4 -1
478 1 3.9882135585225535 15.465406505022822 8.724451008465634 1 -4 -1
306 2 4.195769950131607 14.722033899046712 5.029391801295609 -1 2 1
482 2 -0.015204484926109763 13.40076217898202 8.86652314249191 4 1 3
267 2 -0.042326906618015414 16.56164836270305 7.008961412880816 1 -1 3
310 1 7.147229282485021 17.266029141028948 6.451794696077902 -1 1 -1
312 2 7.968323740305301 17.548593391563756 6.068118136558791 -1 1 -1
551 2 6.808248563687375 14.749857874051804 5.168538475989335 1 0 2
550 1 7.486052422238165 14.57658968578795 5.822281724417862 1 0 2
97 1 6.148340205727948 14.093695231615358 8.120402875244874 4 -1 1
311 2 7.150284060571888 16.317558705447354 6.286568865220695 -1 1 -1
552 2 7.010031940305814 14.297478515391255 6.664046251933161 1 0 2
98 2 5.347884704807159 14.700956657207659 8.213923739150966 4 -1 1
99 2 6.861807268107257 14.102381831328673 8.815637539607922 4 -1 1
105 2 0.369587321262024 9.008814250789232 12.72283710245674 1 0 1
104 2 1.5335359371569046 9.920632167125408 12.478671636109652 1 0 1
259 1 3.1298439626804595 10.906271457619786 12.512612372123241 -1 0 1
103 1 0.750729058261713 9.56194589426627 12.026571290545029 1 0 1
261 2 2.940116551481042 11.84762799521723 12.938706416490565 -1 0 1
260 2 3.8697025680345254 11.085161516943591 11.849464072681645 -1 0 1
544 1 2.6826399112225587 13.239182693816392 13.559698348986226 1 0 0
300 2 1.853219979214717 9.061148724600505 10.548809717474063 1 2 -3
516 2 8.410150215823093 10.277372747331716 12.35856277899104 -1 -1 0
28 1 7.09485645870311 9.517665731152317 11.717951183527916 1 -2 -1
227 2 5.760123906851453 12.508267632609916 11.428216071509487 -1 -1 -3
226 1 5.480510937816809 11.625027489220932 11.17032419674188 -1 -1 -3
228 2 5.56772767709469 11.707639809108894 10.15829022727964 -1 -1 -3
30 2 6.5035419709065545 10.190642255422215 11.381946282187808 1 -2 -1
29 2 7.2285189954874065 8.930626997341395 10.945438779533749 1 -2 -1
250 1 0.24523286243215534 15.152529515926853 9.899260435509275 2 1 1
479 2 3.6043348130519686 15.115694059822594 9.527755689460903 1 -4 -1
59 2 2.7202059525643207 16.03415350891541 11.552031570265681 1 3 1
60 2 1.354646264285683 16.11397403215285 10.880403973227901 1 3 1
58 1 1.8948719752141905 16.636949369515776 11.52197221549344 1 3 1
26 2 3.4275123544519803 14.295718619258494 12.155321714804371 2 -5 -4
25 1 3.8894090510504693 14.756162703374612 11.43617564058514 2 -5 -4
486 2 1.2615839443668173 17.46612893563745 12.654155727600115 3 -1 1
252 2 0.16720081892456776 15.787233459694386 9.123619667475074 2 1 1
155 2 8.599352327312412 13.354839826709348 10.118253611133383 -1 1 -1
156 2 8.727855966384578 14.756733734818141 9.525112908151605 -1 1 -1
27 2 4.86604288531719 14.9477104334005 11.665752995775998 2 -5 -4
32 2 6.48421612694045 17.019679286655023 11.59268862428007 1 1 -2
118 1 6.751296335208734 15.331050266525102 11.953535531733591 -2 0 -2
119 2 7.2383544823997665 15.12701742030367 12.764315578599016 -2 0 -2
154 1 8.036595210126135 14.186952526149454 9.945921271388599 -1 1 -1
120 2 7.2885640279462915 14.896379874851894 11.263163610372564 -2 0 -2
167 2 3.881962835814503 12.752955083745617 17.546650955684797 0 1 -1
189 2 1.696182304064067 9.948898654524877 17.154695560255487 1 0 -1
188 2 2.2081470281898627 11.457331596729697 16.9072642421843 1 0 -1
187 1 1.7840215026009443 10.68254658090755 16.47203873618524 1 0 -1
383 2 3.1554500057380297 10.232844444161941 15.455355504749301 -1 -3 2
384 2 3.9490057481757184 10.21321350427164 14.11434294362295 -1 -3 2
382 1 4.032183866012532 10.089680450448594 15.087486242150161 -1 -3 2
166 1 3.087360228573411 12.872532894045555 16.900598230781927 0 1 -1
362 2 0.26471578439548343 10.989613755998707 15.900129053247586 0 2 1
410 2 8.619314307706784 11.770401741622717 14.077154738377072 0 -3 3
409 1 8.310163726228065 12.261125103093857 14.877565771933797 0 -3 3
128 2 5.414238914522561 11.057451155385321 15.772895793979865 -2 4 -1
411 2 7.503257800482202 11.832788566046146 15.28716294584885 0 -3 3
127 1 6.24418627751492 11.309619546277297 16.165446075913223 -2 4 -1
129 2 6.334810670718981 10.643828693670406 16.85825190828766 -2 4 -1
546 2 3.202265399171952 13.853083499834312 14.13097565536696 1 0 0
56 2 1.9706676529627383 13.71665459569701 17.744709753267685 -1 0 -1
494 2 3.083208715797664 15.890299624547518 15.3632436932584 -1 2 1
493 1 3.6919070264121476 15.101832432577979 15.254907049713129 -1 2 1
316 1 2.589240978701185 17.629661914063607 15.353760044484456 -1 -1 -2
168 2 3.2964815054329906 13.633341201065216 16.327587684067865 0 1 -1
545 2 1.7869989702370441 13.377851075286593 14.025070747882012 1 0 0
64 1 0.10091101288897159 13.476283045206026 14.296118398494752 -1 1 -2
366 2 0.08026806744926612 14.571327624837878 17.206284560358167 4 0 -1
38 2 6.483495459087418 16.765859646122838 16.1843598389409 1 -2 0
392 2 8.06788267599149 13.797285384388731 14.692935789454431 -3 0 -2
393 2 7.413707813609237 15.244667793441062 15.048896667329407 -3 0 -2
39 2 6.274721457112301 15.462556377701755 16.921021181309555 1 -2 0
37 1 6.088843015049981 15.847979953586206 16.059330454133782 1 -2 0
391 1 8.057382578146019 14.81625469378619 14.454440995406438 -3 0 -2
495 2 4.595193340597132 15.435202110156409 15.512963846445892 -1 2 1
538 1 12.088587044502779 2.0872470269428005 2.8752163241317974 2 0 2
539 2 11.847474175889788 1.1516107952807855 2.5525607482190895 2 0 2
210 2 11.556837061951196 3.0501179956351883 1.3583122731165804 2 -3 1
191 2 10.899842712046095 2.4491429054745675 4.263158680784938 2 0 1
540 2 13.048048683278195 2.065685459888229 2.873470069645056 2 0 2
209 2 10.150692681708128 3.5421471296369913 1.0142547573440701 2 -3 1
208 1 11.096083762262138 3.757840146383278 0.919704322887034 2 -3 1
406 1 14.863886838306156 2.0311303986049793 3.269358606124464 2 -1 1
3 2 15.476161954176732 3.6108150541916415 2.8748520231714276 -1 2 2
407 2 15.278493875128826 1.1794451111335351 2.840016889600244 2 -1 1
408 2 14.883347461828057 1.956172779578579 4.276116854103458 2 -1 1
225 2 17.305683197461043 3.7969340093035235 3.5375511077621904 0 1 -4
177 2 10.192247956528584 6.584678359213951 1.9942553695443155 2 2 -1
464 2 12.152011058415203 7.421234071968764 2.4494854043457357 3 2 2
175 1 10.795986871825368 6.468615116246895 1.2427959587727604 2 2 -1
176 2 11.055479427683867 5.546579793487166 1.3162292787483625 2 2 -1
9 2 10.062657909280288 7.254408260619082 0.13571922994564647 2 -1 0
463 1 13.122704225794845 7.419210826628779 2.5543861924748996 3 2 2
465 2 13.441499242211965 7.1644778148902635 1.6749520413943124 3 2 2
473 2 9.659046715509149 6.7234374097142835 4.329647343068633 1 -1 0
472 1 9.240455531578185 6.470615306557009 3.480508860710573 1 -1 0
372 2 17.49674540271636 8.252246174494404 3.3854685595859957 -3 -2 -3
370 1 17.382831881217342 8.533400296835444 4.355268670793556 -3 -2 -3
1 1 15.840265569369606 4.518304525074386 2.9349913900538107 -1 2 2
415 1 13.885068579783608 6.705528167024066 0.2585490854223529 1 2 0
386 2 17.023693114158757 5.335149495463004 0.3446928319729154 -2 0 1
207 2 13.751971561896008 6.352727723515384 4.152002904487849 -2 1 0
2 2 15.381098036485621 4.998371372453082 3.658329217762508 -1 2 2
387 2 16.103315253066857 5.360634416268558 1.6702313693694575 -2 0 1
385 1 16.345643288696003 5.866069737957181 0.8087209940668484 -2 0 1
437 2 17.02462212353164 7.473644405739665 1.2554750182010124 -1 2 1
417 2 14.8975303287776 6.534260130257906 0.3041950869977503 1 2 0
436 1 17.538864282606514 8.278386174933688 1.4658561717629457 -1 2 1
190 1 10.052474690452971 2.6856520971976487 4.757921935020166 2 0 1
192 2 10.321069292535368 3.25352642515418 5.517191870018043 2 0 1
220 1 9.172789750425231 3.52531074215366 9.084699484261522 -1 1 1
222 2 9.665362662508594 3.909887125868826 8.324166653619091 -1 1 1
141 2 9.249862054321904 0.9448161043275812 5.133340658699892 4 -1 -2
193 1 11.055244855033234 -0.01632779830446779 7.331579726105336 -3 -1 2
139 1 9.223246986661767 -0.03056900138822813 5.089099265626508 4 -1 -2
195 2 10.289612884965997 0.0035002987817727704 6.618527664375159 -3 -1 2
527 2 13.913560343721594 1.035049317051532 6.05266437993332 -2 -1 1
246 2 17.437850020609464 1.2323251431735338 6.356552699687735 2 0 4
93 2 13.760501687065508 3.3699629830772664 6.513616122895866 2 1 0
526 1 14.442317164489866 1.9015195241398106 6.044617517919622 -2 -1 1
244 1 16.801263175576054 1.2251331151843137 7.091114288918666 2 0 4
528 2 15.246818967505552 1.735864805005129 6.585845205970411 -2 -1 1
270 2 16.711323404836918 2.468784989234692 8.35283855103672 0 0 -2
245 2 16.90730487389872 0.3930453076501369 7.5682547780683285 2 0 4
268 1 16.721967246828388 3.1458449813245264 9.03158425125926 0 0 -2
269 2 17.614631149519706 3.584646986639749 8.949942481128417 0 0 -2
179 2 9.198670588570335 7.351564535042007 6.476432930944376 2 -1 -1
169 1 10.661283278321347 4.46714432028028 6.832232279683077 -1 1 2
171 2 11.64051868433135 4.458142735225475 6.733077345575011 -1 1 2
178 1 10.1263571360084 7.184117092776721 6.206656064858099 2 -1 -1
170 2 10.391060111678101 5.409696520772517 6.875048374080617 -1 1 2
180 2 10.647326263197012 8.009709313086608 6.343574762509547 2 -1 -1
91 1 13.288311354117708 4.249848339318984 6.5332758085695115 2 1 0
205 1 14.311732703286753 5.999006907168257 4.86732482051412 -2 1 0
206 2 14.728088583915317 6.780987276715987 5.343192404807275 -2 1 0
20 2 15.66171160023729 4.3646935315354565 8.606763104913197 3 1 1
92 2 13.659379709719406 4.802421938755432 5.792564613473851 2 1 0
21 2 14.458072122096947 5.0034932449779 7.80922900235215 3 1 1
571 1 15.410437705439895 8.135117093121472 5.9294513518921725 -1 1 2
288 2 15.905546144158729 7.768568047305932 7.377356826103818 -1 0 -3
286 1 16.319167883504463 7.447729691231459 8.259711933040911 -1 0 -3
287 2 15.789416202608944 6.675659433834489 8.46021633960087 -1 0 -3
19 1 15.07107005822997 5.140747884426118 8.551902999158353 3 1 1
572 2 16.240233201863163 8.354294102079946 5.446722695767804 -1 1 2
219 2 17.936653360067822 7.052185500474546 8.068181739684558 -2 -1 -1
575 2 10.684944188032318 0.9814516985289389 9.521238400324798 1 5 5
221 2 9.670438217325088 2.7603728550324704 9.440693789063056 -1 1 1
520 1 9.21866167012323 0.1353895145831246 12.078801871530196 0 1 0
434 2 10.549540270725513 2.1960701113698233 13.293197387499257 1 0 -1
574 1 10.682768640712432 1.5171065282937422 10.33160815528909 1 5 5
576 2 10.094292053609065 0.9582830485398287 10.92777791505523 1 5 5
433 1 11.391744259599335 1.7943942450114845 13.548663439883706 1 0 -1
504 2 12.49111046121622 1.541951604871553 11.284523314523394 2 -2 0
456 2 12.551371057634539 3.8262911083046394 9.692264326368983 3 1 0
502 1 13.448975777517635 1.5431124896915054 11.404748305318032 2 -2 0
184 1 12.940979025460793 4.04794402060233 12.870476811341167 -2 -1 -1
435 2 11.977191371659163 2.611595168526058 13.572333959309537 1 0 -1
503 2 13.602245961849881 1.3652166039155142 12.371964118476336 2 -2 0
345 2 16.106292662739904 3.154786385783928 10.663613822423498 1 1 0
343 1 15.667752863639256 3.126448058501765 11.54326233939802 1 1 0
344 2 14.886981778066657 2.539494158585823 11.500631606104017 1 1 0
444 2 17.027106235261144 2.562031979116496 12.534576214770796 -3 -5 0
186 2 13.828722808848948 4.2390138361574 13.12363825969488 -2 -1 -1
442 1 17.725059038327302 2.520464207689777 13.218735274132264 -3 -5 0
198 2 13.555318519939474 -0.21399348459974188 10.623507032429945 -1 3 -1
293 2 9.09650874909328 4.890681985072873 10.15002121507687 0 -1 -4
308 2 12.04952975124564 8.192475010487085 10.176040656512995 -3 0 4
185 2 12.919696691965717 4.259768606893096 11.947244075424269 -2 -1 -1
454 1 12.73890005804142 4.679831150982319 10.13530689388163 3 1 0
301 1 11.101740887899531 6.997831705011049 11.141598587601036 1 -1 -1
302 2 11.713977266086852 6.256202655000722 11.017869565865965 1 -1 -1
303 2 10.194256496666792 6.509548875666717 10.982072851047807 1 -1 -1
378 2 11.027575873928384 8.341139656814125 12.373017836546536 1 2 1
292 1 8.965730371930432 5.677369552449809 10.69220406364003 0 -1 -4
203 2 15.712518711207103 4.7678949368654004 12.513044234805948 0 3 -2
455 2 13.593521645904055 4.933199858310577 9.758578441235558 3 1 0
477 2 15.725311346143982 8.26141617202967 9.6431638159514 0 -2 -1
130 1 15.235221776251946 8.102623849674792 12.845518499291511 -1 0 -3
131 2 15.38620340574967 7.123356915659588 12.839136336818711 -1 0 -3
132 2 15.442990240595728 8.464532558522734 11.94938227793096 -1 0 -3
202 1 15.734299978612947 5.4722778747427565 13.197855684786354 0 3 -2
326 2 9.05156311528921 1.5450981443510416 15.009050060236996 -2 0 -1
518 2 11.08783438750157 0.14873342759302433 14.475034446188454 1 0 -2
138 2 13.202321658650517 0.22184617146852587 14.305187430397625 1 3 -1
15 2 9.726013720598274 4.006805563706868 15.146393025409724 -3 0 -2
162 2 11.915083376074728 4.133152626108957 17.59148468492658 -1 -4 -1
325 1 8.986594179152645 0.559956940000996 15.022878302280613 -2 0 -1
133 1 14.686717935131432 -0.09097289764600255 17.638416388096953 0 0 1
136 1 14.043698860674706 0.7040681141233848 14.196905048513324 1 3 -1
332 2 13.627342997177582 3.1467573151607966 16.650815475724265 0 -3 0
331 1 14.255604107331756 2.472756491876483 16.398841512936006 0 -3 0
448 1 16.455302182878544 3.620006122435048 15.383936723262646 0 -2 -3
450 2 17.013084937635153 3.9651405364464747 16.10185657065697 0 -2 -3
137 2 14.15003363485419 1.213874142397596 15.032861238883873 1 3 -1
449 2 17.059904938512528 3.1094302707854857 14.740219571431592 0 -2 -3
333 2 15.040588555875134 2.9292932552916233 16.062139439606803 0 -3 0
135 2 14.41866570825905 0.839718624871956 17.468946327443614 0 0 1
161 2 12.227415008669398 4.871182070148951 16.232656645173282 -1 -4 -1
153 2 10.605500358391707 5.867204549531625 14.751354453493283 -2 -1 3
152 2 11.63480367363632 4.956992702368475 14.042524356497525 -2 -1 3
398 2 9.97404578429342 8.020133342344478 14.267095211837661 0 -1 0
160 1 12.6556390039685 4.494581960008655 17.057955296513256 -1 -4 -1
7 1 9.582861858528123 7.915929092363736 17.624934936111977 2 -1 -1
397 1 9.650736694758008 7.339405996142732 14.900883101971056 0 -1 0
8 2 9.852481921531394 7.66041108585012 16.656946040307076 2 -1 -1
151 1 11.08975729568899 5.0191454359601275 14.819546547352386 -2 -1 3
204 2 16.15236184510161 5.024294934432732 13.993946630657861 0 3 -2
416 2 13.478833730544054 5.869977061913089 17.879608244634177 1 2 -1
283 1 17.633657229850005 8.613655502147992 14.24336782444743 -1 0 3
285 2 16.719221491728256 8.629489082961356 13.858255601984938 -1 0 3
78 2 13.858470906814793 8.012968726232481 16.98288309548561 0 1 2
77 2 13.470121018874016 8.742063826781719 15.61490230829701 0 1 2
498 2 11.14105676967733 11.695522627365976 2.568294260419101 -3 0 -2
496 1 12.004570520499396 11.448364390669932 2.1421931614832777 -3 0 -2
497 2 11.838554990191858 10.944911992709516 1.2644756086829179 -3 0 -2
353 2 12.93243155311608 12.77702918188857 1.8018577144185906 -1 -2 3
290 2 13.061288272557496 10.440884908746538 2.792660155144402 -1 -3 0
400 1 9.773388839311444 12.343507396413122 3.411925584150566 -1 -1 -1
401 2 9.035081294099793 11.788934003599023 3.7006889966209813 -1 -1 -1
402 2 10.100533708766696 12.847804564728156 4.21151431483054 -1 -1 -1
291 2 13.498149753985482 8.873509064298766 2.911134815666198 -1 -3 0
289 1 13.721123920051099 9.811398448618437 3.136554993812174 -1 -3 0