LAMMPS data file via write_data, version 15 Apr 2020, timestep = 0

1944 atoms
2 atom types

-4.1853593935797662e-01 4.0400640939357487e+01 xlo xhi
0.0000000000000000e+00 1.9786495709418979e+01 ylo yhi
0.0000000000000000e+00 2.0466461251546264e+01 zlo zhi
1.0470298879710072e-02 -1.2472536183999239e-02 1.8109400312454227e-02 xy xz yz

Masses

1 16
2 2

Atoms # atomic

1347 2 4.0455095642561547e+00 8.3743269548093817e+00 8.2135400242368100e+00 0 0 0
306 2 1.6255740041633072e+01 1.5541326528740878e+01 3.0305363274419510e+00 0 0 1
78 2 1.5852594851233420e+01 1.2634072290904306e+00 7.8909186809551715e+00 0 0 0
905 2 1.5269129400134537e+01 1.0063616529321036e+01 7.1741952795852786e+00 0 0 0
283 1 1.5155713579215872e+01 6.3384569358897194e+00 9.6691201878694404e+00 0 0 0
1534 1 1.2059509292508578e+01 1.8148609104794794e+01 8.5723836632801795e+00 0 -2 0
968 2 1.7811089531217501e+01 6.4011396179859281e-01 9.5956542757627137e+00 0 1 0
733 1 1.2868509670615820e+01 1.3746095090255158e+01 5.5645174976620710e+00 0 0 0
714 2 2.9149782134629008e+00 1.8861525397392114e+01 4.3698750640497314e-01 0 0 1
32 2 1.4275992696586857e+00 1.6318960832201366e+01 1.8310379668336121e+00 1 -1 0
93 2 1.9856410661565991e+00 1.1430335575130934e+01 7.3281920697873693e+00 0 0 -1
699 2 6.5572439160076312e+00 1.4380090650693399e+01 2.5509509901826575e+00 0 0 1
953 2 1.6952310728590781e+01 8.6394515916225734e-01 1.2910241116372021e+00 0 1 1
749 2 1.8879174940347554e+01 4.2752872990793946e+00 5.4380689331864858e+00 0 0 1
1345 1 3.6913320809874755e+00 8.4210058035509352e+00 7.3471710088051854e+00 0 0 0
100 1 1.1445194189361535e+01 1.8495730566814800e+01 3.7622499135565155e+00 0 -1 0
1135 1 2.5988280645557200e+00 1.6258893401516112e+01 6.9028710888897153e+00 0 1 0
900 2 7.3631788888521594e+00 3.5147621034195895e+00 7.9332500924184126e+00 0 0 -1
94 1 3.3635619514606412e+00 1.3792377856581917e+01 9.5893990339210884e+00 0 0 0
1787 2 7.1381893744439164e+00 1.0303258269891311e+01 3.5375693273850362e-01 0 0 1
1733 2 5.4402400407100036e+00 4.5081265716263506e+00 8.3750588706889797e+00 0 1 0
696 2 1.9116152519252498e+01 1.3635530055880718e+01 8.8633684041591696e+00 0 -1 0
1101 2 1.8967648364368131e+01 5.9884867351158677e+00 2.7390133864988129e+00 0 1 0
1551 2 1.8998961692980490e+01 9.2607686725092169e+00 8.4360909631538572e+00 0 0 1
1373 2 4.4729653999043935e+00 1.6552346041800220e+01 5.1986874792839979e+00 0 -1 1
1310 2 1.0277167091566652e+01 1.6386428401996891e+01 6.2790315096627776e+00 0 0 0
1323 2 2.7538286359903856e+00 1.9711360013689777e+01 7.1015830744846404e+00 0 0 0
972 2 1.2644491656152685e+01 7.9009183351792052e+00 8.1827313197046756e+00 0 0 0
1591 1 1.4436662126164403e+01 4.1285638707708427e+00 3.3120081479521115e+00 0 0 1
650 2 2.7088845604163851e+00 1.3077826318681600e+01 3.7332405409862397e+00 0 -1 0
82 1 1.2164809150015857e+01 9.0219803191299519e+00 4.9277997527455042e-01 0 0 0
715 1 1.1525244419946876e+01 5.7557441445411806e-02 1.2730908642559735e+00 0 0 1
1810 1 1.9970860315091969e+01 1.6273432858705878e+01 5.9873234428417890e+00 0 0 1
1578 2 1.7956836303328345e+01 8.9870642381411265e+00 4.4286693833662998e+00 0 0 1
505 1 1.2958731927701594e+01 1.7830535427406364e+01 3.3320378667224132e-01 0 -1 1
1100 2 1.7612595864995217e+01 5.9452656378261883e+00 1.9442649715627791e+00 0 0 0
954 2 1.7515871469613725e+01 1.7458303080270816e+00 2.4968240036496536e+00 0 1 1
895 1 1.3567161137922026e+01 1.8123584137019197e+01 6.0669331050127395e+00 0 -1 0
653 2 8.8308456111285660e-01 5.9537049713124359e+00 9.2038362037637111e-01 0 0 0
892 1 7.0600989911899381e+00 1.8137069125315115e+01 5.6143020024625097e+00 0 0 0
1748 2 2.4708495015695142e-01 1.0578714366245466e+01 1.6630672446245198e+00 0 -1 1
709 1 1.8491198750000436e+01 6.0701457073220109e+00 8.0935052222345689e+00 0 0 0
906 2 1.6010314043723717e+01 1.0813974719767529e+01 8.2763765273309193e+00 0 0 0
513 2 2.1640746621595488e+00 1.4906425739939479e+01 1.0191147017889712e+01 0 -1 -1
744 2 1.5148814686605663e+01 6.9429194643545200e+00 3.7073599657715395e+00 0 -1 0
1368 2 1.8741518947804106e+01 1.2674192862708393e+01 1.9434207663393324e+00 0 0 1
9 2 3.0685152634897295e-02 1.3242434335266344e+01 9.2647697717309931e+00 0 -1 0
1092 2 1.4136692756141040e+01 1.0405332025600016e+00 3.4063953576345454e+00 0 0 1
688 1 1.2852427804678324e+01 1.4359418029583411e+00 7.0089207265389399e+00 0 0 0
76 1 1.5754415256081366e+01 2.1145056190003122e+00 8.2865230922749316e+00 0 0 0
314 2 5.1058083264806120e+00 1.2445566281999399e+01 6.2279498118924073e+00 0 0 0
1749 2 1.7132366667156185e-01 1.0895754590039896e+01 3.1408666081477952e+00 0 0 1
1133 2 1.1364753840001631e+01 1.2783827696167995e+01 4.6337052978979315e-01 0 0 0
1544 2 3.2363619985222258e-01 6.2829054215586062e+00 8.0151108118166672e+00 0 0 0
1572 2 1.0459345943219823e+01 4.8647323419728812e+00 1.0043083285220126e+01 0 0 0
1091 2 1.3057231541695456e+01 8.8778034100263292e-01 2.1985742893841471e+00 0 0 1
751 1 8.6119621491472156e+00 1.9918513476981276e-01 3.2458381261324476e+00 0 1 0
1561 1 4.3585140698933671e+00 1.9144097521772142e+01 7.2914450577098089e+00 0 0 0
276 2 1.1292147403526085e+01 1.0926268028491339e+01 6.1924335519055971e+00 0 0 0
465 2 9.8509518835597998e+00 5.8613368735372866e+00 5.8633859465083016e-01 0 0 -1
915 2 1.8845815810190707e+01 1.7185807215385964e+01 7.4130304009059316e+00 0 0 0
711 2 1.8437366285141778e+01 5.5200592837663045e+00 8.8999277085576267e+00 0 0 0
10 1 3.3930361108771101e-01 1.8849809260071179e+01 2.0871367367299136e+00 0 -1 0
1548 2 9.7497328529161749e+00 1.4275677293205396e+01 6.4956433734789618e+00 0 0 1
913 1 1.8729750646870421e+01 1.7236385633494617e+01 8.3600562269538123e+00 0 0 0
498 2 1.1754083805792929e+01 1.3046798282730952e+01 1.0147819635455399e+01 0 0 -1
218 2 7.9988767133128160e+00 1.5818890514599955e+00 8.9447319411313071e+00 0 0 0
470 2 1.4630949541564082e+01 1.3382683218160976e+01 3.4796569143712652e+00 0 0 -1
476 2 6.3999161302110146e+00 9.5341836343640605e+00 8.3309943025255144e+00 0 0 0
652 1 1.6749697683324243e+00 6.0449364585567613e+00 3.8104525029808894e-01 0 0 0
1153 1 1.9383996032574078e+01 8.1201797467437977e+00 5.3733130258658992e+00 0 1 0
949 1 6.1311041072144290e-01 1.1284710568713129e+01 4.7031445123692643e+00 0 0 0
1828 1 1.8400950607497052e+01 1.9105491498519157e+01 6.2795012372907237e+00 0 -1 0
964 1 1.3547852122564526e+01 7.3294684559516767e+00 2.8726509228711583e+00 0 1 0
1155 2 1.9431797819670464e+01 7.1796188526024798e+00 5.6625864128146794e+00 0 1 0
1084 1 4.9139034916321442e+00 1.4445330988648493e+01 5.5000122601716654e+00 0 0 0
747 2 1.5956285175824984e+01 8.7192883079823034e+00 1.6769680272051155e+00 0 0 1
49 1 1.3589739078764138e+01 1.6875811875004405e+01 2.7535548535597738e+00 0 -1 0
1081 1 8.6437532238722063e+00 8.9091604456784488e+00 6.1086588188925655e+00 0 0 0
512 2 9.5088357875454044e-01 1.5885139232135051e+01 1.0051934162812282e+01 0 -1 -1
317 2 7.4495082542097526e+00 1.0952428637768133e+01 9.1814188428275134e+00 0 0 0
1137 2 3.2066073666077881e+00 1.6263573184143766e+01 7.6528978993786554e+00 0 1 0
1099 1 1.8002239355462695e+01 5.7318301167496433e+00 2.8285461005064301e+00 0 1 0
62 2 1.7115919519172056e+01 1.6224159424276387e+01 8.3589248923937394e+00 0 0 0
881 2 3.2824384822889088e+00 8.6156178766615721e+00 4.2270774531066868e+00 0 0 -1
927 2 1.5311308256140130e+01 3.7424606481753302e+00 1.9405431323421454e+00 0 0 1
1769 2 1.1897343921896795e+01 1.1977243547227014e+00 5.4201849551149088e+00 0 1 0
460 1 2.7237366798107989e+00 1.2021304666825058e+01 2.3771581826080133e+00 0 1 0
1339 1 1.4680825508004771e+01 1.4529786117186106e+01 1.0214824656472178e+01 0 0 1
16 1 7.3778483637591847e+00 7.1051285100575567e+00 9.4633514096819393e+00 0 0 -1
56 2 1.3282214888628863e+01 5.0872939822275134e+00 6.9100251584755246e-01 0 1 0
61 1 1.6358727526681236e+01 1.5585892876875837e+01 8.3419009257454420e+00 0 0 0
1322 2 1.6632422226324515e+00 1.0345031371771802e+00 6.8173037761905269e+00 0 1 1
492 2 1.2007989773003954e+01 3.1296154567340508e+00 2.3935664701468684e+00 0 1 0
1126 1 1.1140457605791765e+01 7.6337151113760990e+00 4.4035419164304326e+00 0 1 1
63 2 1.6800774435915979e+01 1.4818997801548733e+01 8.0245610276862802e+00 0 0 0
1520 2 1.9156631169393808e+01 3.7805491570383913e+00 1.1427397369921792e+00 0 0 2
896 2 1.3048650234870545e+01 1.8281892447663452e+01 6.8630845840838166e+00 0 -1 0
1771 1 1.9901206092379393e+01 1.1924346514620828e+01 6.1626848566659120e+00 0 0 0
1086 2 5.4488582256179736e+00 1.4402725412854295e+01 4.6843987929193185e+00 0 0 0
897 2 1.3932463965361245e+01 1.7237227675088565e+01 6.1740326756142005e+00 1 -1 0
1574 2 7.8362502500289164e+00 1.6733836218265168e+01 5.0685736242695860e+00 0 0 1
941 2 6.9583287771814106e+00 6.8175937585402755e+00 3.1915326355942288e+00 0 1 1
275 2 1.2696909747600790e+01 1.0648895821414067e+01 6.0838382903288037e+00 0 0 0
932 2 1.5179105213563174e+01 1.2926885275585819e+01 6.0338519152739822e+00 0 0 0
1535 2 1.2814933319288357e+01 1.8188338635994580e+01 9.1270617638925522e+00 0 -2 0
694 1 1.8162791190955158e+01 1.3781542211822126e+01 8.9112251086020553e+00 0 -1 0
120 2 1.8814765683704554e+01 1.9685056544707757e+00 4.6675320003891754e+00 0 0 0
251 2 1.4655523798166912e+00 1.4958106016740880e+01 6.8343224643482001e+00 0 -1 0
471 2 1.6116987258733424e+01 1.2899031167102702e+01 3.2354514799779492e+00 0 0 -1
84 2 1.1807971467447095e+01 9.4711648406709941e+00 1.2484046302719960e+00 0 0 0
1346 2 4.1033995638775416e+00 7.7986245796397702e+00 6.8005040994561607e+00 0 0 0
1761 2 9.0768934922778897e+00 5.4715544408710644e+00 3.2447554262066780e+00 1 0 1
1108 1 7.8991497054354305e+00 1.7944076516543909e+01 1.6943197109414470e+00 0 0 1
89 2 1.1703700442548199e+01 4.3275394815412227e+00 8.0356361498165576e+00 0 0 0
1611 2 7.9634073969086820e+00 1.5712659192295391e+01 8.5986251653130150e+00 0 0 0
305 2 1.5875898242791603e+01 1.5862546787106966e+01 4.5160440173114065e+00 0 0 1
11 2 5.0876014307234119e-01 1.8747727843828631e+01 3.0508893927208880e+00 0 -1 0
668 2 1.4469349182290718e+00 1.9117253027059753e+01 5.4829322581262918e+00 0 0 0
1394 2 9.0168478211002938e+00 1.0971988638810256e+01 4.5420702918278293e+00 0 0 0
742 1 1.5841159987136322e+01 6.5203066714978100e+00 4.2672089496946617e+00 0 -1 0
101 2 1.1503975698181954e+01 1.9387556627768490e+01 4.2141252091399251e+00 0 -1 0
1620 2 1.7520963638555113e+01 1.4453864575104806e+01 4.7826303645174137e+00 0 -1 0
1562 2 4.5843854591740776e+00 1.8671129410256157e+01 6.4421366998511322e+00 0 0 0
919 1 1.3263133491673504e+00 1.8029471156025803e+00 1.1327787149836501e+00 0 1 0
1301 2 -3.8978238719928038e-01 8.0341648273553030e+00 4.6998652250180220e+00 0 0 0
64 1 1.6042892929979455e+01 7.0763993611135909e+00 7.2787228463363656e+00 0 0 -1
931 1 1.5586681274996547e+01 1.2835030724188670e+01 6.8888720559849705e+00 0 0 0
1786 1 8.0489481808384600e+00 1.0277996063186849e+01 6.7547218476694804e-01 0 0 1
1751 2 1.5498581196186652e+01 9.2877631281711039e+00 9.6082243461813324e+00 0 1 0
245 2 1.0983505821802849e+01 1.1142007577244341e+01 8.3576387073616178e+00 0 0 0
649 1 2.6287667290273116e+00 1.3912130721579462e+01 4.2418372986283712e+00 0 -1 0
920 2 1.2531432655661634e+00 2.0188298491432142e+00 1.5530447302649117e-01 0 1 0
1389 2 9.1016546847455579e+00 1.9366214310708387e+00 7.8326474742430940e-01 0 0 1
921 2 1.1179535799313505e+00 8.7083637704305961e-01 1.2081258129821344e+00 0 1 0
58 1 -1.7608012431966796e-01 2.5209336368236062e+00 9.1664016335384488e+00 0 0 -1
228 2 -1.8615833677725119e-01 1.4405443505609856e+01 1.2540465238061804e+00 0 0 0
91 1 2.6244761807908792e+00 1.2145895410643767e+01 7.6056691311099511e+00 0 0 -1
257 2 1.3098180862894571e+01 1.0906298057828845e+01 9.7430690492271612e+00 0 0 0
244 1 1.0110901913443548e+01 1.1525893321974685e+01 8.5183583231099078e+00 0 0 0
718 1 4.8184403269171838e+00 6.5490044695303435e+00 5.8842761239648276e+00 0 0 -1
1131 2 9.4307839799178339e+00 7.8585835992201414e+00 1.8431097396951721e+00 0 1 0
695 2 1.7938742606625731e+01 1.3115516442608655e+01 9.5650773434941208e+00 0 -1 0
712 1 3.6643936457833473e+00 1.9196222227675200e+01 1.0120870119992025e+00 0 -1 1
1300 1 3.8454302346422176e-01 7.5992282430107618e+00 4.1894030122041421e+00 0 0 0
1311 2 1.0594187793688173e+01 1.7742087151363645e+01 5.5170060010666928e+00 0 0 0
743 2 1.6611321601826308e+01 6.2569648891890459e+00 3.7242155906856014e+00 0 -1 0
899 2 8.7511558657901798e+00 3.8671467665410613e+00 8.6100525012217197e+00 0 0 -1
1618 1 1.7889124832302439e+01 1.4069948540473010e+01 5.6169167958113713e+00 0 -1 0
1104 2 2.3926453075578205e+00 3.2023495806982059e+00 1.6410711223306960e+00 0 1 1
1124 2 1.9183748939598456e+01 2.9471005287137939e+00 8.3430908031982547e+00 0 1 0
315 2 4.1518581381945667e+00 1.1737067576232450e+01 7.1704670017608798e+00 0 0 0
1318 1 3.9002160369382688e+00 3.3903849245638660e+00 8.6969932139809938e+00 0 1 0
716 2 1.0768998040486244e+01 1.0726587496306052e-01 6.5153973099214424e-01 0 0 1
517 1 1.0809472264188145e+01 1.4252123180507864e+01 1.2066439409110912e+00 0 0 0
55 1 1.3628517309926472e+01 5.9923264642454095e+00 6.5434362195648710e-01 0 1 0
296 2 1.5805459551689527e+01 1.8670104921821743e+01 6.0078213387041368e-01 0 0 1
893 2 7.3899192767261619e+00 1.9037774805665091e+01 5.8435543321684333e+00 0 0 0
19 1 6.2198731687824242e+00 9.8966740944125728e+00 3.0798131071779071e+00 0 0 0
1575 2 8.7661351702641550e+00 1.6217459942987983e+01 4.0382197562001849e+00 0 0 1
468 2 1.7135724141633460e+01 1.4055855065065400e+01 1.3081914894638007e+00 0 0 1
250 1 9.9874216412926464e-01 1.4191411315207406e+01 6.4464014385554531e+00 0 -1 0
748 1 1.9161135246350877e+01 5.1338036021173501e+00 5.7527046412977292e+00 0 0 1
669 2 1.9544238515989065e-01 1.8312486778414780e+01 5.0654962864025173e+00 0 0 0
965 2 1.2619502898141628e+01 7.4963981865949574e+00 3.1668008267073171e+00 0 1 0
4 1 4.8422850430878288e+00 2.0236461008122597e+00 7.5223605331012822e-01 0 1 0
1403 2 2.0553069874405248e+00 7.1424712053827646e+00 7.0383129533992452e+00 0 -1 0
1340 2 1.5218481803154473e+01 1.4977863131685254e+01 9.5434950003295764e+00 0 0 1
1783 1 1.7175582210686309e+00 2.6742786876149269e+00 7.2723596657426315e+00 0 1 0
664 1 6.3916696779633364e+00 3.9323574416947134e+00 2.3941323921479531e+00 0 0 0
1147 1 1.3013145815715221e+01 1.4090614064102077e+01 2.9672718455905356e+00 0 0 0
940 1 7.3977072348275055e+00 6.2356353058835436e+00 2.4894653918035625e+00 0 1 1
934 1 1.8707919856442398e+01 1.6718061588860866e+01 1.1957073398277753e+00 0 1 1
1559 2 1.3365155468263277e+01 6.2022116356545540e+00 6.7075780367448754e+00 0 0 1
1569 2 6.7662632108718190e+00 5.4392767965556132e-01 3.6201917573761273e+00 0 0 1
95 2 3.9835366672234747e+00 1.4286008974435550e+01 9.0319116504919776e+00 0 0 0
1593 2 1.4974208817203328e+01 4.9319168425410549e+00 3.5495469142553544e+00 0 0 1
478 1 8.3303202133580232e+00 3.4463965834188111e+00 5.3677977002420976e+00 0 1 -1
970 1 1.1989872224382268e+01 8.1320509296970496e+00 8.9269653336657928e+00 0 0 0
1788 2 8.2160015005281704e+00 9.5010441654369711e+00 1.2125804602137882e+00 0 0 1
720 2 5.1857575369744007e+00 5.9975929515056770e+00 6.5272785776541573e+00 0 0 -1
1601 2 1.6876550006370387e+01 2.7756107516861328e+00 4.4330470461900910e+00 0 1 1
1148 2 1.3148038553026939e+01 1.5041847253881210e+01 2.7622335857334037e+00 0 0 0
693 2 1.7929750579255714e+01 9.0851528574212725e+00 5.8669767529963035e-01 0 0 1
667 1 1.0817525904757619e+00 1.8542194634413292e+01 4.6788333376596452e+00 0 0 0
926 2 1.5475277752933684e+01 4.7565665988939623e+00 8.6265941791259748e-01 0 0 1
1309 1 1.0168618835510166e+01 1.7380303732478691e+01 6.3252257200053537e+00 0 0 0
1127 2 1.0523736198755667e+01 6.8555346516270372e+00 4.2853601729376134e+00 0 1 1
654 2 2.3379338056751884e+00 5.2892445618627013e+00 6.5121246117269949e-01 0 0 0
560 2 1.9450927475700418e+01 6.7601290051016394e-01 2.4146868568178759e+00 0 1 0
1082 2 9.0657419196520923e+00 9.6083676154865572e+00 5.5302190066026586e+00 0 0 0
1790 2 4.3472784154660493e+00 9.0272218012998664e+00 2.8487729628960473e-01 0 1 2
1085 2 4.0244015435050002e+00 1.4323786925001288e+01 5.1241610367328283e+00 0 0 0
966 2 1.3473962778169250e+01 7.0507277149201020e+00 1.9399154597254784e+00 0 1 0
1083 2 8.1174871065642407e+00 9.4456921285742173e+00 6.7342000170670993e+00 0 0 0
1564 1 8.4863103091492089e+00 1.2989889721366936e+01 6.9550396100278800e+00 0 0 0
971 2 1.2318788876906881e+01 8.9980513236186521e+00 9.3922772894611750e+00 0 0 0
1402 1 1.3587509608568966e+00 6.5356188820812990e+00 6.7284483375694144e+00 0 -1 0
1221 2 1.9906128746598750e+01 1.6529290077407644e+01 9.3279945377863420e+00 0 0 0
1361 2 1.1240924471029862e+01 1.5431736621892435e+01 9.9807061986000480e+00 0 -1 0
85 1 4.3384688016882587e+00 9.9578583102762046e+00 4.7718404155963476e+00 0 0 0
1729 1 1.4809381557300325e+01 1.0565462560863818e-01 4.6645888503489568e+00 0 1 0
963 2 5.8523430187191785e+00 1.4733106439404827e+01 8.0983392892904114e+00 0 0 0
463 1 1.0343168962243812e+01 6.5552907723431169e+00 1.0097548236168823e+00 0 0 -1
662 2 1.6184672058698335e-03 3.2875165947588050e+00 3.2421988952345733e+00 0 0 1
268 1 1.5952546175541595e+01 1.9387154246737833e+01 7.5355586908868775e+00 0 0 0
1354 1 3.1815930460111095e+00 3.1816580416820633e-01 3.4565463135341687e+00 0 0 2
1580 2 3.4255166090399336e-01 1.9331890942879788e+01 8.0647428002940114e+00 0 -1 0
910 1 4.4931622806766711e+00 1.5449085569703335e+01 3.0531784007518276e-01 0 -1 1
267 2 1.7427157743654657e+01 1.9202910501758463e+01 2.7851839233653775e+00 0 0 1
1130 2 8.3909897228776043e+00 8.3314985190069688e+00 2.9316567079008973e+00 0 1 0
710 2 1.7771569935355103e+01 6.6675335066505905e+00 7.9626943583993883e+00 0 0 0
1357 1 1.4374366910342154e+01 3.7868337365500206e+00 9.6902722238423795e+00 0 1 0
436 1 1.3401065152224922e+01 1.2443294911490517e+01 8.9424011566868948e+00 0 0 0
1174 1 7.3156203933501107e+00 1.1849421045632454e+01 4.6681784372559134e+00 0 0 0
1770 2 1.1456207419908491e+01 2.0029445833954553e+00 4.2611744008142658e+00 0 1 0
1577 2 1.8464112325304999e+01 1.0330111143268862e+01 4.1060802784193848e+00 0 0 1
66 2 1.5845528469400914e+01 8.0300630941159348e+00 7.4208088565314076e+00 0 0 -1
462 2 3.1048692223256524e+00 1.2380695090544917e+01 1.5408937192763337e+00 0 1 0
656 2 4.8311606491341896e+00 1.8110050070751175e+01 1.9012688115695267e+00 0 0 0
1359 2 1.4915750263947288e+01 3.1273762758954078e+00 9.1902780049738730e+00 0 1 0
1326 2 1.2376788849512813e+01 1.0507081611687143e+01 3.2471613928484695e+00 0 0 0
20 2 6.8432745458412469e+00 1.0619416826260876e+01 3.1090728932980505e+00 1 0 0
651 2 1.8443260993542472e+00 1.3731554357769598e+01 4.7522424625950164e+00 0 -1 0
745 1 1.5989467828624893e+01 9.6248688173494212e+00 1.9355495784629522e+00 0 0 1
882 2 1.8566821004596781e+00 7.9890769358648157e+00 3.6310113293291626e+00 0 0 -1
698 2 7.1264075872336461e+00 1.4922524820486787e+01 3.9426840107642476e+00 0 0 1
1360 1 1.0812985749612002e+01 1.5972739293058543e+01 9.2852110292836247e+00 0 -1 0
452 2 1.5675062122127796e+00 1.6593685614615212e+00 3.3892933552513900e+00 0 0 -1
51 2 1.3394870437530258e+01 1.7132321390920008e+01 1.8161756943344736e+00 0 -1 0
1154 2 1.9090211381783011e+01 8.6272950963584680e+00 6.2045345513632686e+00 0 1 0
1811 2 1.9128199588772961e+01 1.5890406750909202e+01 5.7802982530229832e+00 0 0 1
1404 2 9.3762579302854654e-01 7.0573676743319922e+00 6.0330072424138192e+00 0 -1 0
666 2 6.2228740107522125e+00 3.6225728556664509e+00 3.2905799604407973e+00 0 0 0
1579 1 -2.3252519352297929e-01 1.9354552795684214e+01 8.8871879299757612e+00 0 -1 0
740 2 9.2682436554864243e+00 2.2990243116782655e-01 6.7567318835174035e+00 0 0 1
475 1 6.7700830281207471e+00 1.0241526422154463e+01 7.8147434898845010e+00 0 0 0
1102 1 2.8937988241057742e+00 4.0643168441416817e+00 1.6314985863313007e+00 0 1 1
506 2 1.2577073314463210e+01 1.8694991286578759e+01 4.0674648988973583e-01 0 -1 1
1388 2 9.3430919318065548e+00 3.3507025989768393e+00 1.2430009229064394e+00 0 0 1
87 2 4.5617012054758774e+00 1.0393221338311875e+01 5.6814466528727143e+00 0 0 0
313 1 4.9952042947696489e+00 1.1648557330258734e+01 6.7480654495367123e+00 0 0 0
1829 2 1.8619789615673891e+01 2.2864849696601378e-01 6.1158107682217855e+00 0 0 0
92 2 2.3316735530957673e+00 1.2879218258399487e+01 7.0844324823733178e+00 0 0 -1
96 2 3.1550218872443287e+00 1.3032634531681792e+01 8.9554667668580183e+00 0 0 0
88 1 1.2550508006490027e+01 4.1775388228032710e+00 7.5334968328125047e+00 0 0 0
1768 1 1.1472050720217752e+01 1.1141444406558039e+00 4.6234571292641018e+00 0 1 0
1570 1 1.0359988989049493e+01 4.7872881699705765e+00 9.1146386681201559e+00 0 0 0
1128 2 1.0537619984620999e+01 8.3780414521307112e+00 4.1116664760220676e+00 0 1 1
1571 2 1.0355025413692468e+01 5.6663797805790557e+00 8.7330127766271612e+00 0 0 0
231 2 2.3050072991950272e+00 1.5627339554151073e+01 3.5839848391259963e+00 0 0 0
746 2 1.6687916729908448e+01 9.7526236897815686e+00 2.6973750844528235e+00 0 0 1
1110 2 8.2226404746039954e+00 1.8606737877311925e+01 2.3689087080770355e+00 0 0 1
284 2 1.5573546322248118e+01 6.4586265198834365e+00 8.8165602813486714e+00 0 0 0
1576 1 1.7614266908957109e+01 9.8750482926138314e+00 4.1482415123173082e+00 0 0 1
933 2 1.6564820134585268e+01 1.3037447412009293e+01 6.7182850331985131e+00 0 0 0
225 2 4.8648177241762847e+00 3.5793908672232875e+00 5.3081300017181254e+00 0 1 0
1521 2 1.7599208436406741e+01 3.7124822665406882e+00 8.7617963476296612e-01 0 0 2
12 2 3.6802673251142037e-01 1.7997095626114518e+01 1.6595317778358389e+00 0 -1 0
908 2 4.9171126418270177e+00 1.7409956346806318e+01 9.9642873487928814e+00 0 0 0
951 2 1.0458162573926757e+00 1.0728604021113700e+01 5.3659582999098232e+00 0 0 0
70 1 7.2267870959031848e+00 1.4825564177808388e+01 7.9617430366056985e-01 0 -1 0
700 1 6.7649078241123943e+00 7.9275036515637991e+00 4.7133053285432940e+00 0 0 -1
466 1 1.6570734499962292e+01 1.4907599947007858e+01 1.2332773399353325e+00 0 0 0
1319 2 3.9491287588627584e+00 2.6259332672448679e+00 9.2761943250389525e+00 0 1 0
102 2 1.2371973959370369e+01 1.8152070210067357e+01 3.6810600209048037e+00 0 0 0
282 2 1.4371183083511983e+01 1.4795404708795040e+01 6.0934217556793779e+00 0 -1 0
894 2 6.1210712902982785e+00 1.8054936099591814e+01 5.3373904983712821e+00 0 0 0
1804 1 9.0657423360639200e+00 1.2329794244249557e+01 2.3429243170077703e+00 0 0 1
898 1 8.2247020953551786e+00 3.2047594138690476e+00 8.1632153135496903e+00 0 0 -1
1823 2 9.6143870527167383e+00 1.6821427183733526e+01 1.8848095022901137e+00 0 0 1
451 1 1.2591277771144118e+00 2.2301726152415928e+00 4.1208920004011951e+00 0 0 -1
1566 2 9.1410568188127517e+00 1.2433580620010019e+01 7.4291809130482900e+00 0 0 0
39 2 6.7608857463205325e+00 6.5523986274483450e+00 9.1147864305876036e-01 0 0 0
885 2 4.0031608390545914e+00 5.4684380979858824e+00 4.9379479064075706e+00 1 0 0
304 1 1.6600931139078309e+01 1.5996811126626429e+01 3.8778581770715945e+00 0 0 1
1320 2 3.1303586091611457e+00 3.1164245951982958e+00 8.1161851685413904e+00 0 1 0
229 1 2.2922460406546947e+00 1.6572167624231515e+01 3.3426994338490452e+00 0 0 0
1149 2 1.2316893615360906e+01 1.3787839395316432e+01 2.2810956733573797e+00 0 0 0
1385 2 9.1305639418211335e+00 1.7772394172062633e+01 7.8580612328726103e+00 0 -1 1
1321 1 1.7767889129750714e+00 6.7227340950826775e-02 6.8511811212737488e+00 0 1 1
5 2 4.2938926243243412e+00 1.2392367994204891e+00 9.6499984557612395e-01 0 1 0
1386 2 7.6093168892346377e+00 1.7850197422990338e+01 7.8767747208284105e+00 0 -1 1
224 2 6.4858391755455500e+00 3.5115122574469710e+00 5.3546594309602753e+00 0 1 0
1619 2 1.8424648309147873e+01 1.3334998304056164e+01 5.2340121021708201e+00 0 -1 0
967 1 1.8477681826477379e+01 1.9694236357699211e+01 9.4368116498476589e+00 0 0 0
1818 2 1.5248663272731649e+01 1.6943677554773200e+00 5.2661459905967991e+00 0 2 1
713 2 3.3140488468947216e+00 1.9383527479321415e+01 1.8717389339263295e+00 0 -1 1
437 2 1.3777020317099478e+01 1.3196980655664255e+01 9.3918409902634554e+00 0 0 0
689 2 1.2251262396403012e+01 9.3427982525814846e-01 7.6168302292433063e+00 0 0 0
490 1 1.1796467657529730e+01 3.5782473899826832e+00 3.1981244883998814e+00 0 1 0
6 2 5.3142720231009735e+00 2.2365562666366263e+00 1.5350856827667414e+00 0 1 0
1797 2 9.0935148759451749e+00 1.7787003130014327e+01 1.0216290241129732e+01 0 1 0
90 2 1.3150986674027195e+01 4.2024426216935469e+00 8.3149207145615698e+00 0 0 0
1773 2 1.9762334809293602e+01 1.1229453896130819e+01 6.8168108954345259e+00 0 0 0
1547 2 1.1427752714685392e+01 1.4418170965039959e+01 6.2147778946429417e+00 0 0 1
1543 1 -3.8491751730172524e-01 6.2992554000038359e+00 8.7441932380820084e+00 0 0 0
217 1 7.8751618668453158e+00 9.4552273027754030e-01 9.6151701795324946e+00 0 0 -1
947 2 1.5107945843240003e+01 1.8814460656515365e+01 8.9431311410333194e+00 0 0 -1
486 2 9.5921289702283925e+00 7.4628069489113935e+00 7.0624944287230518e+00 0 0 0
1175 2 7.0250331108051007e+00 1.2697200484942286e+01 4.1884100612793533e+00 0 0 0
1325 2 1.1406404690286079e+01 1.1504967100456234e+01 2.5628731857619291e+00 0 -1 0
230 2 1.9581188949199295e+00 1.7158588613645637e+01 4.0527243388921237e+00 0 0 0
657 2 4.8720128915092049e+00 1.6554730231609973e+01 1.9300373684450258e+00 0 0 0
1367 2 1.7703192465872124e+01 1.1452118170937650e+01 1.7236307155914463e+00 0 0 1
252 2 5.4390463651215504e-01 1.3759817241722224e+01 7.1889491358476869e+00 0 -1 0
1592 2 1.4633506451249980e+01 3.4506358331226008e+00 3.9733052635217825e+00 0 0 1
281 2 1.5309962512147679e+01 1.5667512503459154e+01 6.9555040480318002e+00 0 -1 0
17 2 8.2008499393594079e+00 7.4258156288361716e+00 9.0010472217757354e+00 0 0 -1
1600 1 1.7574368772766537e+01 2.8827556539374908e+00 3.7464775214916921e+00 0 1 1
25 1 7.5131047085694092e-01 4.2996991200576327e+00 5.6321300073749612e+00 0 0 0
952 1 1.7708060477636433e+01 1.0172850871839372e+00 1.8878470350370669e+00 0 1 1
1393 1 9.8480917931905037e+00 1.0579154245162467e+01 4.6698877443687294e+00 0 0 0
1362 2 1.0567847600573161e+01 1.5445209095717864e+01 8.4776336997834800e+00 0 -1 0
690 2 1.2762429581887318e+01 2.3309916743334460e+00 7.3471606803930047e+00 0 0 0
904 1 1.5877199244849283e+01 9.9606977806118504e+00 7.8895158667491154e+00 0 0 0
118 1 1.9346487326975183e+01 1.6743801215920893e+00 5.4383537672583975e+00 0 0 0
1730 2 1.4202610478949710e+01 1.9251883234186561e+01 5.0462676107068214e+00 0 0 0
27 2 1.4341998214477263e+00 4.2785760082645456e+00 4.9649902838833793e+00 0 0 0
1568 2 5.8540313792909462e+00 1.5090533580932097e+00 4.3078993845299332e+00 0 0 1
697 1 6.5446357041019088e+00 1.4224179145993185e+01 3.4885905931776864e+00 0 0 1
1759 1 9.7679636478489176e+00 5.3463315172167398e+00 3.9349747907306032e+00 0 0 1
1103 2 3.7631583677894680e+00 3.7363406082335890e+00 1.2963551524928696e+00 0 1 1
1136 2 2.7230344748850217e+00 1.7077212808776245e+01 6.3503407910928553e+00 0 1 0
1355 2 2.8472763114735806e+00 1.9490367231429868e+01 4.0821173032790306e+00 0 -1 2
942 2 7.0661733738536627e+00 5.3178020200687222e+00 2.5437935432592584e+00 0 1 1
750 2 1.8790723575804041e+01 5.1701480948838210e+00 6.6896972559945560e+00 0 0 1
209 2 -3.8450272048280709e-01 1.6679072916772841e+00 4.8136257037828232e+00 1 0 0
1558 1 1.3068109638224312e+01 7.0312411775273844e+00 6.3878968860610366e+00 0 0 1
1784 2 1.4341198786924385e+00 3.4085666727860597e+00 6.6467074439299791e+00 0 1 0
1549 1 1.8653929399372483e+01 9.4407814630720743e+00 7.5317548618966521e+00 0 0 1
655 1 5.2996790272990717e+00 1.7353517438418404e+01 2.3619369842692368e+00 0 0 0
484 1 9.7700294890003061e+00 7.1422078577762154e+00 7.9660672535271617e+00 0 0 0
480 2 8.4161482660334368e+00 3.6175092593749048e+00 6.3143250316475292e+00 0 1 -1
1087 1 -2.3718573583357141e-01 1.0064785490898689e+01 8.9410568835487165e+00 0 1 0
1806 2 8.8432997908373228e+00 1.1595096038540238e+01 1.7244909382958566e+00 0 0 1
925 1 1.5853426832439567e+01 3.9542692373754065e+00 1.1414682255679462e+00 0 0 1
1536 2 1.1509921333199626e+01 1.7336909048317285e+01 8.8087235445733025e+00 0 -2 0
1176 2 7.4984604558917587e+00 1.2285896581270604e+01 5.6145329242625639e+00 0 0 0
1817 2 1.5334123578534584e+01 2.6999674558172257e+00 6.4134516946277449e+00 0 2 1
884 2 3.6356133408350066e+00 4.2123502398040991e+00 3.8207018906027517e+00 0 0 0
1519 1 1.8445677099432910e+01 3.8096141466026827e+00 4.3478002852925085e-01 0 0 2
935 2 1.7731188511987291e+01 1.6543302529996701e+01 1.2096831836262265e+00 0 1 1
946 1 1.4623248010033993e+01 1.8703212346688378e+01 9.7363516918535904e+00 0 0 -1
1573 1 8.0632290126519521e+00 1.5872063680167514e+01 4.5733346559347021e+00 0 0 2
717 2 1.1217363636420291e+01 1.9337733453807463e+01 2.0486593049753927e+00 0 -1 1
491 2 1.2516449861546919e+01 4.1866772904680509e+00 3.4137547294601909e+00 0 1 0
1609 1 7.6290320729390828e+00 1.4812896617808073e+01 8.8003793169300675e+00 0 0 1
1824 2 1.0698835025658630e+01 1.7196786479186638e+01 2.9021582841843458e+00 0 0 1
1540 1 3.0311330561790175e+00 8.4092037216504636e+00 9.3683078831294808e-01 0 0 1
65 2 1.6039773567831233e+01 7.0456895339782042e+00 6.2746625997864998e+00 0 0 -1
1731 2 1.5465256680817749e+01 1.9485062931226611e+01 4.0971078483411603e+00 0 0 0
1109 2 7.0759233071397025e+00 1.7672531898826350e+01 2.1093356228095321e+00 0 0 1
285 2 1.4846023231622871e+01 5.4196420873253892e+00 9.6873546471766119e+00 0 0 0
702 2 6.2309200827007354e+00 8.5832942438722721e+00 4.2507143154057188e+00 0 0 -1
269 2 1.5344789950150192e+01 1.9163773214496548e+01 6.7773387632851785e+00 0 0 0
21 2 6.1501083996366193e+00 9.6997248039658714e+00 2.1095637089987918e+00 0 0 0
1563 2 4.8396693829050808e+00 1.8741344200935306e+01 8.0381127281427869e+00 0 0 0
961 1 4.9095329935582104e+00 1.5031776646664897e+01 7.9391118470356803e+00 0 0 0
270 2 1.6827313044294517e+01 1.9133390068604779e+01 7.2130545026029855e+00 0 0 0
219 2 8.1341455028516219e+00 1.8732584993765636e-01 9.1810827850362813e+00 0 0 0
295 1 1.6069513887634212e+01 1.7709685916399369e+01 7.2531994403018829e-01 0 0 1
1525 1 1.0567319155306864e+01 3.7513729963726078e-01 8.1593055094551712e+00 0 1 1