LAMMPS data file via write_data, version 15 Apr 2020, timestep = 200000

972 atoms
2 atom types

3.8630850076755152e-02 1.9952422149924338e+01 xlo xhi
1.0697711033236779e-01 1.9884075889668246e+01 ylo yhi
3.3292759603780375e-01 2.0467844403962353e+01 zlo zhi
3.1510919673387330e-02 -4.2087593455810962e-01 -5.1643392343927216e-02 xy xz yz

Masses

1 16
2 2

Atoms # atomic

4 1 4.1643300693689813e+00 1.3742620883770356e+00 3.4859148254009398e+00 0 0 0
5 2 4.3706413825020398e+00 2.3452073968353346e+00 3.4343928920232161e+00 0 0 0
6 2 3.3204834820275293e+00 1.3878201799129157e+00 3.9247198620090882e+00 0 0 0
7 1 5.8752896805165502e+00 4.5218370554329033e+00 5.8431408734326036e+00 0 0 0
8 2 6.7000471513114768e+00 4.3667928358195489e+00 5.3428762235655922e+00 0 0 0
9 2 5.0794519732615777e+00 4.4298280026007699e+00 5.1830373447303426e+00 0 0 0
10 1 1.5158185300208658e+00 4.4161481785823709e+00 4.0701254932211910e+00 0 0 0
711 2 8.2889308711753227e+00 5.5897046938715649e+00 8.0853250093221907e-01 0 0 0
12 2 1.1119742179884187e+00 5.0428414937516557e+00 3.4184427059523812e+00 0 0 0
13 1 4.8910657119473262e+00 6.1443267333575280e+00 1.6700668723820127e+00 0 0 0
14 2 4.2801040141300009e+00 6.8300741455369467e+00 2.0218732717052750e+00 0 0 0
15 2 4.4887328351035540e+00 5.6134851134555834e+00 1.0030667380780240e+00 0 0 0
16 1 4.1672491464739583e+00 4.3199167490801162e+00 3.8965662455649990e+00 0 0 0
17 2 4.5470924861650444e+00 4.7961325978638394e+00 3.2001674955776913e+00 0 0 0
18 2 3.1717202642263178e+00 4.4237691321681938e+00 3.7761262703706424e+00 0 0 0
143 2 4.8103278607855620e+00 9.2215674262204441e+00 1.1774264222706339e+00 0 0 0
20 2 5.2400652734055908e-01 6.9612308311486046e+00 2.0421081103940670e+00 0 0 0
22 1 2.0407714265943078e+00 1.1741708751506763e+00 5.0312774519762593e+00 0 0 0
23 2 1.0940935161535859e+00 9.7871346891437982e-01 5.0211431539084490e+00 0 0 0
24 2 2.2598886594715717e+00 1.5906781367900393e+00 5.8849687704892437e+00 0 0 0
25 1 2.1922175464161500e+00 5.3700764123106390e+00 6.8182340808866728e+00 0 0 0
26 2 1.9418525134329911e+00 6.1121853816100247e+00 6.1424668254059318e+00 0 0 0
27 2 3.0446868375094009e+00 5.6751289786951080e+00 7.1983578501308045e+00 0 0 0
28 1 5.6520909407930571e+00 6.9521245079562100e-01 5.5596726025895205e+00 0 0 0
29 2 5.2157926342112173e+00 8.9726736065307011e-01 4.6976622627838251e+00 0 0 0
30 2 5.6525920069241327e+00 1.9471778942629371e+01 5.7000206576626500e+00 0 0 0
31 1 1.0599767974761551e+00 1.7785303474311311e+00 2.5452673953976008e+00 0 0 0
171 2 8.6441415897116016e+00 1.2936760138604738e+01 6.2292975136177962e+00 0 0 0
33 2 1.1262744352405674e+00 2.5403814092078760e+00 3.1338419076160857e+00 0 0 0
361 1 8.8701812002725475e+00 2.9250460005322605e+00 6.9018261806557240e+00 0 0 0
35 2 5.9039245497170789e+00 2.5631296029821349e+00 1.6125463545608760e+00 0 0 0
46 1 8.0719618855085677e+00 4.2586167648054269e+00 3.8948548055239645e+00 0 0 0
47 2 9.0459577960414776e+00 4.0919206404714128e+00 3.9222268583297799e+00 0 0 0
48 2 7.8951122152921878e+00 5.0196527217676019e+00 3.3073083773972569e+00 0 0 0
55 1 7.5524638013837775e+00 6.3291043954054338e+00 2.1492139434220183e+00 0 0 0
56 2 7.6529461840279405e+00 7.2853874659577498e+00 2.3933503588373708e+00 0 0 0
57 2 6.5987959206155313e+00 6.1070381921635306e+00 2.1263455574116454e+00 0 0 0
58 1 8.4995730869774953e+00 1.1306355672224959e+00 5.0605621890555668e+00 0 0 0
343 1 1.9756164726631037e-01 5.8120477615221295e+00 8.9120905801859855e+00 0 0 0
60 2 7.6103706919062635e+00 8.3376892679298198e-01 4.6722149848035848e+00 0 0 0
451 1 5.0874025436350223e-01 1.2729121358891744e+01 8.9690744997514500e+00 0 0 0
127 1 5.8690903447980769e-01 1.2265921542553333e+01 1.5853245580732838e+00 0 0 0
63 2 8.2616544560077472e+00 5.8391086355318880e+00 7.4694648092256966e+00 0 0 0
67 1 7.5552966889848321e+00 2.0820928220345101e+00 2.5689262526954924e+00 0 0 0
68 2 7.7158663049689977e+00 2.7765394046132483e+00 3.2873488209660642e+00 0 0 0
69 2 8.1971717383399891e+00 2.2219573024195691e+00 1.8538086320969842e+00 0 0 0
111 2 2.3308606995970766e+00 8.8466385411281490e+00 7.4941746785802876e-01 0 0 0
609 2 7.2644935985977677e+00 1.6017646930716182e+01 9.6822584629538095e+00 0 0 0
11 2 9.9119461824072297e-01 4.3567483912555680e+00 4.8946765752186829e+00 0 0 0
112 1 3.9478029704784987e+00 7.7909913038202321e+00 3.8109605470937526e+00 0 0 0
113 2 4.6618198852553414e+00 7.6548561039114027e+00 4.4950351866226601e+00 0 0 0
114 2 3.9885493786561499e+00 8.8274592663282849e+00 3.7240536424466084e+00 0 0 0
115 1 5.9870569842511054e+00 1.0805562734559523e+01 5.7149962715142193e+00 0 0 0
116 2 5.7161784097589141e+00 1.1711044516152018e+01 5.8840273763220434e+00 0 0 0
117 2 5.6690811602417677e+00 1.0308038400886000e+01 6.5273537655899325e+00 0 0 0
118 1 1.2999606329395283e+00 1.0855221878780473e+01 3.7549570459239781e+00 0 0 0
119 2 8.2171577408356600e-01 1.1047228240019384e+01 4.6220371753905507e+00 0 0 0
120 2 2.2992601728694169e+00 1.0859360163224826e+01 3.9637033246640661e+00 0 0 0
121 1 4.6085855294551816e+00 1.2623973436797707e+01 1.8101700076036633e+00 0 0 0
122 2 5.5447138251650170e+00 1.2465646647910352e+01 1.7372664169807543e+00 0 0 0
123 2 4.1191296059353153e+00 1.2320784211198827e+01 1.0079843171077776e+00 0 0 0
124 1 4.0961899621193272e+00 1.0729691359175995e+01 3.8330559164611415e+00 0 0 0
125 2 4.2706371058027628e+00 1.1409693907346753e+01 3.1770076595135448e+00 0 0 0
126 2 4.8742073489179711e+00 1.0807963909002719e+01 4.5169444942104349e+00 0 0 0
36 2 5.7173615124004238e+00 3.4398902566890062e+00 3.9388793929881039e-01 0 0 1
558 2 4.1314169144786703e+00 1.8372525774811670e+01 9.9299619353514110e+00 0 0 0
129 2 8.6158731426825597e-01 1.1801187394294686e+01 2.3892628983425168e+00 0 0 0
130 1 1.9301262423731198e+00 7.6401263413245655e+00 5.4012828125212540e+00 0 0 0
131 2 2.6873227757713463e+00 7.6093210015334956e+00 4.7022627549739777e+00 0 0 0
132 2 2.2865808917279153e+00 8.1620900878870231e+00 6.1375202301287182e+00 0 0 0
133 1 2.8138113948377041e+00 1.2213715764114999e+01 6.9057919722109720e+00 0 0 0
134 2 1.8548220819437460e+00 1.2334255989106374e+01 7.1125035159582071e+00 0 0 0
135 2 2.8887420658142715e+00 1.2803787193206832e+01 6.1797722513233708e+00 0 0 0
136 1 5.8733304051387929e+00 7.2244388722799568e+00 5.9052567077164984e+00 0 0 0
137 2 5.8579307455904379e+00 6.2138750219399537e+00 5.9602931118148401e+00 0 0 0
138 2 6.7234582313550142e+00 7.5440480560680445e+00 5.5351681431733608e+00 0 0 0
217 1 3.0138705959002716e+00 1.5797105390946447e+01 3.9778265277328378e-01 0 0 0
140 2 1.0616154224856833e+00 9.1686315962176259e+00 2.6934609153043994e+00 0 0 0
61 1 8.9456503550728286e+00 5.4515388525770305e+00 6.8739964622833432e+00 0 0 0
469 1 9.1355728173902513e+00 9.8184619337788437e+00 7.1540604586612844e+00 0 0 0
142 1 5.7333923029351643e+00 9.1471052354706721e+00 9.6400642321812202e-01 0 0 0
154 1 8.3480903068627388e+00 1.1103856204833891e+01 4.1926959661658039e+00 0 0 0
155 2 7.9375399006960556e+00 1.1047970048167592e+01 5.0988214035632469e+00 0 0 0
156 2 9.2996192868526588e+00 1.0891010069225002e+01 4.1947012258641809e+00 0 0 0
163 1 7.3019115454838142e+00 1.2714900279187560e+01 1.8868343812412973e+00 0 0 0
164 2 7.6519614774245186e+00 1.2210776120995714e+01 2.6621895020717945e+00 0 0 0
165 2 7.8707306426344701e+00 1.2400633595083795e+01 1.1955934234250520e+00 0 0 0
166 1 8.3931969905949533e+00 7.6956289154596380e+00 5.3464016386541866e+00 0 0 0
167 2 8.7689420794434181e+00 8.3996569780248276e+00 5.9797085067431057e+00 0 0 0
168 2 8.6588764769883415e+00 6.8490201663077439e+00 5.8089547850323582e+00 0 0 0
169 1 8.9782680965096464e+00 1.2414029947195298e+01 7.0153358379606878e+00 0 0 0
147 2 9.0148142074424644e+00 9.4097542195594723e+00 1.2907050757286949e+00 0 0 0
175 1 7.6991414762263073e+00 9.0325126388784849e+00 2.6394889370673957e+00 0 0 0
176 2 7.6868655751161050e+00 9.7871998638367401e+00 3.2805473321812646e+00 0 0 0
177 2 6.9980882033053602e+00 9.2396388128912221e+00 2.0052498790844471e+00 0 0 0
2 2 3.7964555347642426e+00 2.4304237766146741e+00 8.8056550625815488e-01 0 0 0
3 2 2.3132442861841982e+00 2.1439405187620761e+00 1.3212959177829489e+00 0 0 0
141 2 7.8940368701567121e-02 9.0018488911303347e+00 1.4803866892538522e+00 0 0 0
572 2 -9.8093786850407344e-02 1.5551415829205874e+01 8.6001922208705821e+00 0 0 0
210 2 1.3225227264580874e-01 7.4499078339274512e+00 5.2544689565083393e+00 0 0 0
220 1 4.3701867722095447e+00 1.4428565808539126e+01 3.5451309059833149e+00 0 0 0
221 2 4.4428281702660755e+00 1.5377780324272228e+01 3.2629029947386714e+00 0 0 0
222 2 4.5412521488694226e+00 1.3885854672919756e+01 2.6669906642800263e+00 0 0 0
223 1 5.7217013445136402e+00 1.7742672279127795e+01 5.6299504884396248e+00 0 0 0
224 2 6.7006517137450023e+00 1.7869725581477987e+01 5.3773320797032911e+00 0 0 0
225 2 5.5892977985535870e+00 1.6941057676727482e+01 6.2354077054723342e+00 0 0 0
226 1 1.6380676070704825e+00 1.7111296061156295e+01 4.0238313342221330e+00 0 0 0
227 2 1.5390630075900815e+00 1.7934201027998469e+01 3.4720141082240761e+00 0 0 0
228 2 1.3852424492549351e+00 1.6387101566353230e+01 3.4037466550488391e+00 0 0 0
229 1 4.5671505679023472e+00 1.9291678809761287e+01 1.5754538933698246e+00 0 0 0
230 2 4.4445125037617315e+00 1.8481932472792380e+01 2.1879470858470635e+00 0 0 0
231 2 4.3716365201199014e+00 3.0318837928844355e-01 2.0871420813084449e+00 0 0 0
232 1 4.3233854208222713e+00 1.7249880088798655e+01 3.3402071532186404e+00 0 0 0
233 2 3.4824459303267452e+00 1.7131171818240773e+01 3.7605059329711370e+00 0 0 0
234 2 4.8666643675052699e+00 1.7397785391171020e+01 4.1546207242427506e+00 0 0 0
235 1 9.7794252715699215e-01 1.8898425656612083e+01 2.0175410870115300e+00 0 0 0
236 2 1.1807249753050586e+00 1.9864998112940803e+01 2.0283003667196358e+00 0 -1 0
237 2 1.4698233493576143e+00 1.8599096503361963e+01 1.2254392992578835e+00 0 0 0
238 1 2.0865757878831368e+00 1.4119470532234569e+01 5.2443363952250781e+00 0 0 0
239 2 2.6232867820910699e+00 1.4488899827868142e+01 4.5679965299737360e+00 0 0 0
240 2 1.1417290853118471e+00 1.4097074134904050e+01 4.9033153936097120e+00 0 0 0
241 1 2.6661888745181326e+00 1.8738130464507883e+01 6.6851894059047972e+00 0 0 0
242 2 2.4615444277430294e+00 1.9326916473582365e+01 5.8668448725577891e+00 0 0 0
243 2 2.5815231651605912e+00 1.7732809371821276e+01 6.5730042694990631e+00 0 0 0
244 1 5.4836969779535307e+00 1.3533326259562104e+01 5.8205390400289785e+00 0 0 0
245 2 5.2007860805679300e+00 1.4159715596044549e+01 6.4962783026648747e+00 0 0 0
246 2 4.9789066168449470e+00 1.3766981512953254e+01 4.9776626647292952e+00 0 0 0
247 1 9.3907671344554688e-01 1.5079293392224791e+01 2.0691167722063133e+00 0 0 0
248 2 7.6469784735237978e-01 1.4149536370446159e+01 1.8285091870536354e+00 0 0 0
249 2 1.6945990326252984e+00 1.5219743313400336e+01 1.5121350472601902e+00 0 0 0
251 2 6.2836336889494300e+00 1.5930202858364115e+01 1.3082284797321462e+00 0 0 0
128 2 1.2718706049139192e+00 1.1976104925061385e+01 9.5153737777215153e-01 0 0 0
262 1 8.0249342281492559e+00 1.7583232163948090e+01 4.0507709171674868e+00 0 0 0
263 2 9.0266578955117787e+00 1.7595884887427275e+01 4.1288638819024417e+00 0 0 0
264 2 7.7724627717895967e+00 1.8065868245704003e+01 3.2319641405080946e+00 0 0 0
271 1 6.9914996221501857e+00 1.9078203256136554e+01 2.1487496297394584e+00 0 0 0
272 2 7.2048521544822401e+00 2.2702093629230230e-01 2.0240187182628180e+00 0 0 0
273 2 5.9899694596012543e+00 1.9156064998733257e+01 2.0321367062362374e+00 0 0 0
274 1 8.0070285794641336e+00 1.4070911432886847e+01 5.0623436386433509e+00 0 0 0
275 2 8.2965998250509436e+00 1.4801552988625726e+01 5.6389296640438049e+00 0 0 0
276 2 7.0271785135619496e+00 1.3974413469545764e+01 5.3212533428243427e+00 0 0 0
277 1 9.0083604224771250e+00 1.9143476409043167e+01 6.9170488903000731e+00 0 0 0
278 2 8.6716300320904924e+00 1.9803100499978868e+01 6.2603296548855258e+00 0 0 0
279 2 8.3783802435961956e+00 1.9324052633867886e+01 7.6488962070292583e+00 0 0 0
283 1 7.2703702994024333e+00 1.5539632751705566e+01 2.5710596402406014e+00 0 0 0
284 2 7.6300737342384313e+00 1.6071723755129170e+01 3.3290051870772577e+00 0 0 0
285 2 7.2979133582911464e+00 1.4633723151639018e+01 2.8699181059887735e+00 0 0 0
437 2 3.5839325788044563e+00 8.6734832955073990e+00 1.0280690102047043e+01 0 0 0
325 1 2.5374308157155352e+00 2.5931116128475593e+00 7.0635905343845025e+00 0 0 0
326 2 2.6079282658085292e+00 3.5385507731985073e+00 6.9372615198018321e+00 0 0 0
327 2 3.4426423420623253e+00 2.4326037951875086e+00 7.4146528161207614e+00 0 0 0
329 2 4.4962780347778937e+00 9.4648864719220704e-01 9.7708040641203695e+00 0 0 0
337 1 4.3471769695635887e+00 5.8726710635105821e+00 8.0857315456334575e+00 0 0 0
338 2 4.1994070765845706e+00 5.1705405461632594e+00 8.7318161433412449e+00 0 0 0
339 2 4.1419244695887016e+00 6.6526385688576184e+00 8.6511904821930159e+00 0 0 0
1 1 2.8614581951854250e+00 2.5305418165195368e+00 6.0442594660038740e-01 0 0 0
344 2 3.9304074165187297e-01 5.0869789210497167e+00 9.5738763166475973e+00 0 0 0
345 2 8.0167598184663813e-01 5.6892130239042418e+00 8.1958612446083663e+00 0 0 0
355 1 8.5129682648051641e-01 1.9480571294075324e+00 9.2086080239294699e+00 0 0 0
59 2 9.1821569829020753e+00 1.0538141421094447e+00 4.3693717853184673e+00 0 0 0
357 2 1.4836476736378115e+00 2.3843881477070381e+00 8.5547849434025984e+00 0 0 0
358 1 5.1019317056213609e+00 2.4809136965755267e+00 7.3298837764060547e+00 0 0 0
359 2 5.5189475528436951e+00 3.2338977435964900e+00 6.8171313672977414e+00 0 0 0
360 2 5.3101069734655919e+00 1.7271114631354243e+00 6.6911043567807713e+00 0 0 0
258 2 9.7373170723231883e+00 1.4425412942455239e+01 3.9082763154904536e+00 0 0 0
362 2 8.6639465892953247e+00 2.3392248102809092e+00 6.0921882600686361e+00 0 0 0
363 2 8.2955239716750420e+00 2.7585578778998365e+00 7.7118847853520380e+00 0 0 0
254 2 8.9207661514689622e+00 1.5829759793097404e+01 1.4187442574845521e+00 0 0 0
379 1 7.3021703258932611e+00 6.1141876272708311e+00 8.6692121909961237e+00 0 0 0
380 2 7.4315489037932068e+00 7.0369452542322222e+00 8.9950145281030860e+00 0 0 0
381 2 6.4168971258431986e+00 6.1173355511731806e+00 8.3664192605150856e+00 0 0 0
391 1 7.3048844888816857e+00 2.3678953484157841e+00 8.9644220324926671e+00 0 0 0
32 2 2.9881654883812142e-01 1.9811472934890435e+00 2.0458572246277962e+00 0 0 0
393 2 6.3821871334150924e+00 2.4511888988150488e+00 8.5686143050910815e+00 0 0 0
19 1 5.2729829473680656e-01 5.9757421171202916e+00 2.0015623336363761e+00 0 0 0
433 1 2.4648979827964537e+00 9.4770491834589450e+00 7.5144985403933502e+00 0 0 0
434 2 2.3743834426777681e+00 1.0427857679379381e+01 7.2611284666340303e+00 0 0 0
435 2 1.8231053740605030e+00 9.2677584006122355e+00 8.2333781023535710e+00 0 0 0
62 2 8.8356826460119766e+00 4.4671789463581000e+00 6.8589722531685489e+00 0 0 0
445 1 4.5447072097181440e+00 1.2453589757802760e+01 8.9899691625036784e+00 0 0 0
446 2 4.1687942199806418e+00 1.3236420389511164e+01 9.4671017940149405e+00 0 0 0
447 2 3.8751801706434006e+00 1.2361930065684987e+01 8.2843449592967673e+00 0 0 0
500 2 7.4674268658518201e+00 9.4571357772948303e+00 9.9062363589562370e+00 0 0 0
577 1 8.9325330451823888e+00 1.6171333229265521e+01 6.7519520378853075e+00 0 0 0
452 2 6.9209056417070292e-01 1.3670493055672708e+01 9.2330321501584720e+00 0 0 0
297 2 1.8429655525450492e-02 1.7401884864061493e+01 5.3536046217536128e+00 1 0 0
465 2 6.7297049358723160e-01 7.5607062127274851e+00 9.3174805141124946e+00 0 0 0
466 1 5.1317106710519802e+00 9.1490110637228028e+00 7.6187525402864837e+00 0 0 0
467 2 5.3073067291912137e+00 8.3222297258975946e+00 7.0568505063976001e+00 0 0 0
468 2 4.1733412100278340e+00 9.3012825424993562e+00 7.7223569188886758e+00 0 0 0
150 2 9.6274963833034963e+00 7.7391576921207523e+00 4.0186851156532146e+00 0 0 0
470 2 9.1627753276635833e+00 1.0759827400388753e+01 6.8462433383925214e+00 0 0 0
471 2 8.5218615001216502e+00 9.8952447151666973e+00 7.9491186145318435e+00 0 0 0
356 2 8.6668526245433852e-01 9.6056803699203275e-01 9.0227579354533329e+00 0 0 0
487 1 7.3371070585520801e+00 1.2690630949380706e+01 9.0787274105391411e+00 0 0 0
488 2 7.8731417730521374e+00 1.2488283160648669e+01 8.2873838545874641e+00 0 0 0
489 2 6.4458283374978835e+00 1.2330391105122779e+01 9.0559586360092563e+00 0 0 0
499 1 7.3551850006233028e+00 9.1108816711748233e+00 9.0522862335084078e+00 0 0 0
573 2 8.4860956761390027e-01 1.6208048271637878e+01 9.7336883987277893e+00 0 0 0
501 2 6.4618044840525206e+00 9.2170997445110476e+00 8.7350837664217256e+00 0 0 0
463 1 6.5796109059190777e-01 8.5312257420050202e+00 9.1991805395863491e+00 0 0 0
34 1 5.3076656238356668e+00 2.7076595985824650e+00 8.8790506102238431e-01 0 0 0
541 1 2.3666668959233301e+00 1.5993974634075380e+01 7.1580025220840149e+00 0 0 0
542 2 1.7835761138392516e+00 1.5621699951128013e+01 7.9277053401808200e+00 0 0 0
543 2 1.9707356788767538e+00 1.5474289913299268e+01 6.4351064896041752e+00 0 0 0
553 1 4.4884187034409688e+00 1.9375027426054729e+01 8.6507130400516417e+00 0 0 0
554 2 5.4223829318352781e+00 1.9256288433638105e+01 8.4117293162724103e+00 0 0 0
555 2 3.9927981059133155e+00 1.9044949869831413e+01 7.8984506647709560e+00 0 0 0
608 2 7.1309126849551010e+00 1.4455780964648236e+01 9.0173964343320332e+00 0 0 0
559 1 6.5197970074661438e-01 1.9140010638788048e+01 8.7376143038814789e+00 0 0 0
560 2 1.3482284744157411e+00 1.8883765915003330e+01 8.1077470521336963e+00 0 0 0
561 2 7.1372971308330235e-01 1.8481380834999456e+01 9.5044961885278827e+00 0 0 0
544 1 3.9834924569129324e+00 1.4954842439354239e+01 1.0217090516847597e+01 0 0 0
574 1 5.0211003772044540e+00 1.5686246318330891e+01 7.2877625215186512e+00 0 0 0
575 2 5.4627372453399623e+00 1.5688153515900190e+01 8.1720606099554907e+00 0 0 0
576 2 4.0567208927660117e+00 1.5504499898476434e+01 7.4465361519100028e+00 0 0 0
443 2 9.9320922916847953e-01 9.8974768604704799e+00 1.0178351664073070e+01 0 0 0
139 1 9.4464700643870625e-01 8.6789298292179176e+00 1.8684541501138261e+00 0 0 0
579 2 8.4098128351880455e+00 1.5974144823152168e+01 7.5369741564647583e+00 0 0 0
571 1 7.3905707512481622e-01 1.5450814155814504e+01 9.0995389910758444e+00 0 0 0
595 1 7.1401878126909741e+00 1.9389163044499007e+01 8.9147395866046963e+00 0 0 0
596 2 7.2823721378120165e+00 5.0991125021469452e-01 9.2080164585270801e+00 0 0 0
597 2 7.2572018152575994e+00 1.8716942347331887e+01 9.5933659017196309e+00 0 0 0
607 1 7.1200731118496794e+00 1.5449072929457254e+01 8.8033250246133452e+00 0 0 0
578 2 9.0825010699827402e+00 1.7081185069831349e+01 6.6830723675085313e+00 0 0 0
927 2 8.0991627333823555e+00 1.8577667021083123e+01 5.3938338190588864e-01 0 0 0
392 2 7.5158906563102503e+00 3.0004347606079773e+00 9.6935708971942791e+00 0 0 0
817 1 9.5085298454460450e+00 1.2192224313208516e+01 6.7068108567218587e-01 0 0 1
372 2 7.5139568878966605e+00 5.0718631221871204e+00 1.0104410587905434e+01 0 0 0
675 2 1.6910644188632498e+00 5.5307254894074225e+00 8.1313828945976940e-01 0 0 0
444 2 1.0130076383697477e+00 1.1461311785635807e+01 1.0107867754442701e+01 0 0 0
436 1 3.7937506239652556e+00 7.7117383143203240e+00 1.0296992691769162e+01 0 0 0
37 1 9.4205321149517314e+00 2.5306900994469537e+00 6.4471928021389091e-01 0 0 0
145 1 9.3561249917807210e+00 9.6152186493224718e+00 4.0200852032049117e-01 0 0 0
218 2 3.9750933351588658e+00 1.5816332567096396e+01 5.3964655023888253e-01 0 0 0
253 1 9.3717930603432666e+00 1.5731387239704510e+01 5.1963999830847696e-01 0 0 0
340 1 3.6969255515575612e+00 4.0803240435204762e+00 1.0207647828671567e+01 0 0 0
709 1 9.1202941533692972e+00 5.2501806279916234e+00 3.4787621803020680e-01 0 0 1
250 1 5.8245362094357809e+00 1.5889778371921127e+01 4.2638551784585021e-01 0 0 0
146 2 9.6075941207934061e+00 1.0579929780528420e+01 3.6827865541841309e-01 0 0 1
450 2 4.0778871363486058e+00 1.1082808559785420e+01 1.0159585926936963e+01 0 0 0
335 2 8.3044562991684789e-01 3.1824964235526454e+00 1.0384615569113404e+01 0 0 0
895 1 7.6945941719525057e-01 1.5291481824157186e+01 1.5626531375440328e+01 0 0 0
550 1 1.1170888030612935e+00 1.7516775395391697e+01 1.0678428621465875e+01 0 0 0
858 2 -1.2460744520553510e-01 7.2867658100402286e+00 1.8620347808391308e+01 0 0 0
674 2 1.9863868467147547e+00 4.3133478278597854e+00 2.0111220729050935e+01 0 0 0
252 2 5.5677161732892158e+00 1.6764518760594051e+01 2.0164473667825405e+01 0 0 0
897 2 6.7728630877478591e-01 1.5808723500191904e+01 1.6455856180958740e+01 0 0 0
331 1 5.3434675888503200e+00 4.7036086407289339e+00 1.2336490746373899e+01 0 0 0
332 2 6.2360307899055458e+00 4.6549056270343483e+00 1.1862565867143056e+01 0 0 0
333 2 4.6865726609611080e+00 4.4971664577556281e+00 1.1660067601797127e+01 0 0 0
679 1 4.8380100884129190e-01 2.2168807452294486e+00 1.5787273558613945e+01 0 0 0
438 2 4.4591422803872316e+00 7.8027064084972029e+00 1.1041630631115545e+01 0 0 0
545 2 3.0729707259379060e+00 1.4767296873983810e+01 1.0551997439821054e+01 0 0 0
346 1 1.8119520244122320e+00 6.3719702332979922e-01 1.2211839129284424e+01 0 0 0
347 2 2.3202930326389155e+00 7.5544437839448242e-01 1.1377961175586067e+01 0 0 0
348 2 2.1641020551827466e+00 1.4995728472125156e+00 1.2679852798591879e+01 0 0 0
349 1 2.0514797046403332e+00 5.4573172181766667e+00 1.3869170067724776e+01 0 0 0
350 2 2.0028410239825032e+00 5.9375682837999983e+00 1.2979935761844388e+01 0 0 0
351 2 2.0741838790061315e+00 4.4929533846604066e+00 1.3595129862333202e+01 0 0 0
352 1 6.0856649945432535e+00 1.0358480320884760e+00 1.2491164028143087e+01 0 0 0
353 2 7.0468231445284149e+00 1.1622934007273831e+00 1.2162221244531619e+01 0 0 0
354 2 5.9129990308126379e+00 1.9812032162130379e+01 1.2545241087076665e+01 0 0 0
681 2 5.3588682339198490e-01 1.2453329585187896e+00 1.5955158000215656e+01 0 0 0
382 1 8.7489535497913486e+00 1.0160439410811650e+00 1.2050197088055166e+01 0 0 0
383 2 8.8954187158682885e+00 1.3756780339862487e-01 1.2447595072938249e+01 0 0 0
449 2 2.9908882961555130e+00 1.0943715711438225e+01 1.1302949765508838e+01 0 0 0
385 1 8.3881248665526265e+00 5.6965317987485253e+00 1.3554490331903404e+01 0 0 0
386 2 8.3959027259298598e+00 4.7211974738875551e+00 1.3417946867014869e+01 0 0 0
387 2 7.8466165270612418e+00 5.9497724182963934e+00 1.4338775025487188e+01 0 0 0
710 2 8.6008549145125883e+00 4.2195492738995988e+00 2.0442224234156981e+01 0 0 0
685 1 9.2027792934429051e+00 3.1170547000723170e+00 1.3760135989172188e+01 0 0 0
439 1 5.5556745544870854e+00 1.1322989414961960e+01 1.2902363129113315e+01 0 0 0
440 2 5.5035415507274763e+00 1.2228587686360914e+01 1.3285441097757431e+01 0 0 0
441 2 4.7859284192264662e+00 1.1143252714786263e+01 1.2353274185401064e+01 0 0 0
781 1 2.3746736621307334e+00 1.1756324253022788e+01 2.0281990175840967e+01 0 0 0
454 1 1.7085224375484271e+00 7.3608853314141038e+00 1.2139305372462919e+01 0 0 0
455 2 2.2003094168623916e+00 7.4378740501673377e+00 1.1286099284366163e+01 0 0 0
456 2 1.9709403799086007e+00 8.0735909894474567e+00 1.2738615460331358e+01 0 0 0
457 1 2.3358305882337298e+00 1.1879026085917801e+01 1.3536240456842634e+01 0 0 0
458 2 3.0998253020485507e+00 1.2178984345825784e+01 1.4040717698184663e+01 0 0 0
459 2 1.5819983760005569e+00 1.2157158947447352e+01 1.4117058516759746e+01 0 0 0
460 1 5.6357511505561941e+00 7.4969275797485739e+00 1.2322144195498336e+01 0 0 0
461 2 5.4947399311550207e+00 6.5401226189761719e+00 1.2505486591921850e+01 0 0 0
462 2 6.5671288137721664e+00 7.5103619665893344e+00 1.2035406573787290e+01 0 0 0
775 1 2.9655871892089086e-01 1.2620996235328208e+01 1.5162765340580643e+01 0 0 0
480 2 7.0184656728996453e+00 1.1084727202112791e+01 1.1589023148513173e+01 0 0 0
749 2 3.4958996227428374e-01 9.0982892020321127e-01 1.8904500014131607e+01 0 0 0
490 1 8.2950451422389850e+00 7.6980954614914854e+00 1.1828896758943712e+01 0 0 0
491 2 8.1684460342877863e+00 6.8210501018921521e+00 1.2266787700189809e+01 0 0 0
492 2 8.3891435185202727e+00 8.3500404232911940e+00 1.2584778688173207e+01 0 0 0
493 1 8.9419728649183323e+00 1.1801352650978886e+01 1.3640694053768508e+01 0 0 0
494 2 8.1734967696646788e+00 1.1992288556044491e+01 1.4237194560953366e+01 0 0 0
495 2 8.8260398809293239e+00 1.2321792201134976e+01 1.2844744433916825e+01 0 0 0
836 2 -1.0265307082601891e-01 1.1258281485195704e+01 1.8385527604457479e+01 0 0 0
442 1 1.2268804395216490e+00 1.0713605334164813e+01 1.0696179874686090e+01 0 0 0
777 2 4.7208705476480639e-01 1.3605555634626773e+01 1.5399522476138456e+01 0 0 0
336 2 8.4430213471211324e-02 4.0137827388456806e+00 1.1470392063993962e+01 0 0 0
602 2 9.6723708451233357e+00 1.8727368689208362e+01 1.4117865833309400e+01 0 0 0
587 2 8.4659367009132680e+00 1.7301153399918526e+01 1.0529515991425024e+01 0 0 0
547 1 5.9869143729084406e+00 1.8040900891880952e+01 1.2679238302434808e+01 0 0 0
548 2 5.2629511423025104e+00 1.7977114223909815e+01 1.1996555793283255e+01 0 0 0
549 2 5.7222501608513596e+00 1.7521291388058678e+01 1.3462139217110030e+01 0 0 0
599 2 8.8362532823416036e+00 1.3837205956661533e+01 1.1187808655057228e+01 0 0 0
562 1 1.7825359297803798e+00 1.3877669079344257e+01 1.1655162361513348e+01 0 0 0
563 2 8.7811967272000491e-01 1.3846914507799246e+01 1.1421775159619438e+01 0 0 0
564 2 1.8692359177499431e+00 1.2984370661101810e+01 1.2045392641276047e+01 0 0 0
565 1 2.3273736306079069e+00 1.8425638665866202e+01 1.3761977498903480e+01 0 0 0
566 2 2.3208645023704952e+00 1.9060248419037343e+01 1.2981619410338112e+01 0 0 0
567 2 3.2588768525897729e+00 1.8417086850859221e+01 1.4163343790973137e+01 0 0 0
568 1 5.4912811990873456e+00 1.4236954887297191e+01 1.2605469371318383e+01 0 0 0
569 2 6.4190098887941591e+00 1.4075212923721930e+01 1.2374291995839917e+01 0 0 0
570 2 5.4152956893144948e+00 1.4904317194827660e+01 1.3315454542324119e+01 0 0 0
901 1 8.8831508802886852e+00 1.5641169643110269e+01 1.3860074926140456e+01 0 0 0
782 2 2.4264765943788875e+00 1.0732349006548905e+01 1.9953315338341973e+01 0 0 0
588 2 7.1382069057076514e+00 1.7311909123499937e+01 1.1533884146393053e+01 0 0 0
598 1 8.2663361557181751e+00 1.3921994514788599e+01 1.1982982795572871e+01 0 0 0
932 2 7.7122334862599073e+00 1.5530022896000228e+01 1.6753309795675335e+01 0 0 0
600 2 8.7254636379176720e+00 1.4555103610789388e+01 1.2635162603268634e+01 0 0 0
601 1 8.8087663243300067e+00 1.8535714688309945e+01 1.3679323502639589e+01 0 0 0
603 2 8.1373196089904969e+00 1.8854339721718759e+01 1.4281117820785154e+01 0 0 0
787 1 3.5925908609212787e-01 8.8993696712178849e+00 1.5974834337337624e+01 0 0 0
474 2 9.7605573665152292e+00 7.6776053892126876e+00 1.0582355208904684e+01 0 0 0
649 1 2.4347226086804237e+00 2.6155154972795560e+00 1.3900006044070986e+01 0 0 0
650 2 3.3391694800037306e+00 2.4869726258773688e+00 1.4200905253620348e+01 0 0 0
651 2 1.8885862111613374e+00 2.1596725366667040e+00 1.4577694499146322e+01 0 0 0
652 1 4.2350789123284320e+00 1.5737184821620871e+00 1.7067311818247944e+01 0 0 0
653 2 4.0417806057092545e+00 2.4964808395185298e+00 1.6957163998192222e+01 0 0 0
654 2 4.7564982279427639e+00 1.4631362878816430e+00 1.7895327409466795e+01 0 0 0
655 1 5.7066398129928348e+00 4.6305750502712018e+00 1.9504065378308539e+01 0 0 0
656 2 5.7638860910822851e+00 5.6526189376466842e+00 1.9512883021638714e+01 0 0 0
657 2 6.3673278919520628e+00 4.3925796862311461e+00 1.8790932829920713e+01 0 0 0
658 1 9.5328609613765780e-01 4.2698560399891319e+00 1.7639260794014312e+01 0 0 0
659 2 8.9084418952241173e-01 3.4082953411549841e+00 1.7111659574499214e+01 0 0 0
660 2 6.6499575964788127e-01 4.8846096812060464e+00 1.6911429402309096e+01 0 0 0
661 1 4.0064708683693997e+00 6.0306266827771715e+00 1.5591935677209754e+01 0 0 0
662 2 4.0069812779395928e+00 5.2055855902204682e+00 1.6065682010612260e+01 0 0 0
663 2 3.2892744828838616e+00 5.8460689444749292e+00 1.4876428115454720e+01 0 0 0
664 1 3.5549665071670375e+00 4.2474748907548792e+00 1.7604066170198593e+01 0 0 0
665 2 2.5939853378060840e+00 4.3172920306663185e+00 1.7854939124562428e+01 0 0 0
666 2 4.1731741420446662e+00 4.4923111364652524e+00 1.8315700935138103e+01 0 0 0
810 2 9.3028811775431350e+00 1.0785107440769771e+01 1.7285399884606342e+01 0 0 0
668 2 8.7257871269256715e-02 6.9220957280170676e+00 1.5856292620013464e+01 0 0 0
669 2 7.2682651374907836e-01 5.8063211702944706e+00 1.4898972366206380e+01 0 0 0
670 1 2.1588922496396017e+00 9.3820891165639864e-01 1.8547157192599386e+01 0 0 0
671 2 2.3938641947138493e+00 1.2793352422305779e+00 1.9452797168529919e+01 0 0 0
672 2 2.8349739806855476e+00 1.2196444319033135e+00 1.7884058530897221e+01 0 0 0
676 1 5.7274259229084468e+00 7.7246588816747574e-01 1.9064838482034155e+01 0 0 0
677 2 5.6349730004030274e+00 1.1563859428493530e+00 1.9982085340115894e+01 0 0 0
678 2 6.6653978784561563e+00 8.8935245076655289e-01 1.8768001729614475e+01 0 0 0
931 1 7.3376458358788987e+00 1.5026545300517919e+01 1.6043682160171059e+01 0 0 0
426 2 1.2659360912606241e-01 7.2585428543523844e-01 1.2044423679066041e+01 0 0 0
551 2 4.0838771639666721e-01 1.7579761000764805e+01 1.1418721667200721e+01 0 0 0
682 1 5.3197796834264643e+00 2.7444852000214053e+00 1.4395409499029745e+01 0 0 0
683 2 5.2759292219002951e+00 3.6108886252281538e+00 1.3916694424452556e+01 0 0 0
684 2 5.5157492260377428e+00 1.9444662166982232e+00 1.3777778980408879e+01 0 0 0
110 2 2.6325194262502354e+00 8.5957735286633383e+00 1.9541218979879261e+01 0 0 0
687 2 8.8300748704451788e+00 2.4110474048107040e+00 1.3271081097257289e+01 0 0 0
694 1 7.5410644711850656e+00 4.3475227243223218e+00 1.7580475637072347e+01 0 0 0
695 2 8.5013713643379969e+00 4.3648885141781992e+00 1.7514857735777476e+01 0 0 0
696 2 7.3780044581888804e+00 3.5335337825874564e+00 1.7019271158217450e+01 0 0 0
703 1 6.7965458137140118e+00 5.9763528048937680e+00 1.5685983699877434e+01 0 0 0
704 2 7.0441355886372490e+00 5.3488788105538969e+00 1.6396263330076565e+01 0 0 0
705 2 6.0015611690442556e+00 5.6026026144130592e+00 1.5309255040511795e+01 0 0 0
706 1 8.5752561381720991e+00 8.1360302848763477e-01 1.8595014318161574e+01 0 0 0
384 2 9.3115699306092043e+00 1.0956772022448054e+00 1.1283108196337571e+01 0 0 0