LAMMPS data file via write_data, version 15 Apr 2020, timestep = 3291000

576 atoms
2 atom types

5.5128868630974104e-01 1.7368712313676411e+01 xlo xhi
3.4628768630986606e-01 1.7163711313676536e+01 ylo yhi
6.9628868630972640e-01 1.7513712313677104e+01 zlo zhi

Masses

1 16
2 2

Atoms # atomic

248 2 2.8256096775637149e+00 3.1176721498503901e+00 3.7219792609348312e+00 -1 4 3
247 1 2.0749366118067956e+00 2.5204799643192199e+00 3.6768857701195135e+00 -1 4 3
249 2 2.4983306152026108e+00 1.7301063936353431e+00 3.9686408082001217e+00 -1 4 3
553 1 4.1185695990242568e+00 4.4024800698829614e+00 3.7140978985774269e+00 -3 5 7
126 2 4.3994122376794067e+00 3.9938168112096112e-01 2.3756458025694678e+00 3 -3 3
554 2 4.7520049407811573e+00 4.3927998123731271e+00 2.9646562840741000e+00 -3 5 7
555 2 4.4530027899252023e+00 4.5341854359630061e+00 4.6185996068233894e+00 -3 5 7
110 2 2.0434506461916202e+00 7.7146805601834600e-01 2.0611047193201464e+00 -1 -2 0
190 1 5.6508816551437286e+00 4.2258508242952910e+00 1.4123059967293277e+00 1 0 -4
124 1 4.8837268390357522e+00 6.5489821141130755e-01 1.5630022889046542e+00 3 -3 3
289 1 7.3118446378677087e+00 1.5822675821759673e+00 3.2664130338077513e+00 3 -1 -3
290 2 8.0597495031086019e+00 1.4807507968932938e+00 2.6092882988430759e+00 3 -1 -3
291 2 6.4899210692605172e+00 1.3725167422654352e+00 2.7680240911488583e+00 3 -1 -3
107 2 7.3815101095396383e+00 4.2443268914910171e+00 1.9123171306290117e+00 -3 -1 5
108 2 8.8912425110102742e+00 3.9623787773081287e+00 1.6950236425709864e+00 -3 -1 5
231 2 7.6536782044025946e+00 2.5129027661580126e+00 4.7693032158449622e+00 2 3 3
192 2 5.7006833821345904e+00 3.5280383107938302e+00 7.1499080956011973e-01 1 0 -4
506 2 9.3888218577038760e+00 4.0506225465809864e+00 3.7832463339143794e+00 -3 -1 3
400 1 9.4062160525529244e+00 1.1553624422833548e+00 1.5288076837824243e+00 -4 7 -2
556 1 1.0774551506184281e+01 3.4016167961774788e+00 1.2961800098699454e+00 1 1 -2
558 2 1.1353704615759288e+01 3.5955466292563432e+00 2.0386845456728793e+00 1 1 -2
402 2 9.9974889107495741e+00 1.9544595590238898e+00 1.6010925819667037e+00 -4 7 -2
275 2 1.1242812023977878e+01 1.8180888073777841e+00 4.3399830491172242e+00 -6 -2 -2
274 1 1.1456324198299493e+01 9.1813174665013819e-01 4.5906778099183159e+00 -6 -2 -2
401 2 9.8627837710323991e+00 4.7006225074842423e-01 1.0628334662817336e+00 -4 7 -2
505 1 1.0218759323464665e+01 3.5768296968939515e+00 4.0650060209209835e+00 -3 -1 3
81 2 1.3186825017729193e+01 4.1199407531258903e+00 3.4392658388784536e+00 -3 0 0
8 2 1.4466965270135400e+01 1.3226208172021918e+00 2.4758493960806467e+00 6 2 3
7 1 1.5166599964635475e+01 1.9864307264349617e+00 2.4985678404007130e+00 6 2 3
9 2 1.5005604464696061e+01 2.5621639972715879e+00 3.3170315113417783e+00 6 2 3
307 1 1.4612515016434447e+01 3.5766181460606288e+00 4.4401580546161465e+00 4 -5 2
309 2 1.5115470694772648e+01 4.3729756843010215e+00 4.2888165692783717e+00 4 -5 2
20 2 1.6176431538528412e+01 2.1925590934534198e+00 1.2279140992623327e+00 -2 1 6
207 2 1.6112746963261678e+01 7.8774988478953878e-01 3.2885323098279549e+00 -5 2 1
450 2 2.9341607027042369e+00 7.2594036707399248e+00 2.0462517479109232e+00 2 1 -4
414 2 2.5585874830318840e+00 5.1894865782273643e+00 2.9561149563318003e+00 1 3 2
412 1 2.1304474371815756e+00 5.7705855712266585e+00 2.3133779315121012e+00 1 3 2
413 2 1.1283516842973571e+00 5.6895937316578937e+00 2.4593016315529299e+00 1 3 2
448 1 3.7166496359377139e+00 7.8059511580728991e+00 1.9638637494252298e+00 2 1 -4
449 2 3.6693655212608283e+00 8.4731252422956125e+00 1.2777251986597666e+00 2 1 -4
304 1 7.5736565846378390e-01 8.3301514738091029e+00 4.4304809692151244e+00 0 2 2
101 2 3.4101314282151054e+00 6.8572462049350094e+00 4.6072540150314598e+00 1 1 3
305 2 1.5750586465100707e+00 7.9563483703041928e+00 4.8035395930455689e+00 0 2 2
255 2 2.5690107027556905e+00 4.6872648106391184e+00 9.0522404178670224e-01 -4 1 -3
191 2 5.9265010084668086e+00 5.1120137149385849e+00 1.0156691807613694e+00 1 0 -4
511 1 7.8415488587236171e+00 6.8990752025739779e+00 3.8272109937421259e+00 -1 1 -2
362 2 6.3408516593126194e+00 8.0756553560833311e+00 3.8362223783369358e+00 -8 -1 -2
435 2 8.0383318956104013e+00 8.1861881091339903e+00 2.0523133572395498e+00 -3 5 0
512 2 8.1153107692023383e+00 6.3283136473055173e+00 3.1342327921663533e+00 -1 1 -2
106 1 8.2714778244139069e+00 4.6111284739721157e+00 1.9730048194495213e+00 -3 -1 5
93 2 4.9079155005873085e+00 6.8558973927406104e+00 1.1919427064543533e+00 3 0 -3
361 1 5.5478074518599954e+00 8.6129612518399785e+00 3.6818803597395675e+00 -8 -1 -2
513 2 8.4804109478913396e+00 6.7999372618375586e+00 4.5602702388670568e+00 -1 1 -2
434 2 6.8908889266973912e+00 7.8437980280907844e+00 1.0563674002182371e+00 -3 5 0
433 1 7.7128249837835199e+00 8.3603555799443665e+00 1.1887543228972421e+00 -3 5 0
363 2 5.0157904468483716e+00 8.1156427554184667e+00 3.0724340063834412e+00 -8 -1 -2
79 1 1.2704311001649137e+01 4.6719120042322073e+00 2.7926467624724762e+00 -3 0 0
210 2 1.0901036337804966e+01 5.9546507658804622e+00 1.8307108833788699e+00 -2 1 2
208 1 1.0343209898195276e+01 6.6990937947686682e+00 2.1873798656861645e+00 -2 1 2
209 2 1.0815294854470947e+01 7.1897257604963709e+00 2.8134413520156314e+00 -2 1 2
381 2 1.1834505529041783e+01 5.3455413228927391e+00 4.8370938539892920e+00 4 -5 4
376 1 1.1448167655703744e+01 8.4716788904632523e+00 4.0838189126313384e+00 -5 -1 2
339 2 1.0409657604352933e+01 8.3375133210704320e+00 1.1116083470702731e+00 5 -1 4
488 2 1.7135206632166351e+01 8.5380152988291087e+00 2.8297971398534383e+00 -3 -3 -3
80 2 1.3305551272323243e+01 5.4122008385333649e+00 2.5961507098630796e+00 -3 0 0
222 2 1.3905754380325684e+01 7.1799790939451817e+00 3.9023009254842562e+00 0 1 4
221 2 1.3785035158565107e+01 7.6957829623185070e+00 2.3915009112735501e+00 0 1 4
220 1 1.4201125034285539e+01 7.0280232264085845e+00 3.0219218829368506e+00 0 1 4
312 2 1.5633442621413655e+01 6.3102056167517500e+00 3.1042029505405115e+00 -5 -1 2
310 1 1.6437256422411579e+01 5.8675178836674542e+00 3.4541364088386537e+00 -5 -1 2
311 2 1.6863257575937745e+01 6.5397995700639822e+00 4.0056542112929936e+00 -5 -1 2
74 2 1.5920412005991192e+01 5.0071270314441279e+00 1.6761944819882812e+00 1 -3 -3
73 1 1.5970264568469871e+01 4.9755716191258950e+00 7.2145419161791624e-01 1 -3 -3
484 1 1.3350307607623865e+01 8.3611666208908986e+00 8.2168343563568857e-01 -4 -1 2
438 2 1.4112719556549562e+00 2.8884356750411615e+00 5.1155921755327043e+00 2 -1 1
437 2 5.9677609631201989e-01 4.0753438028368256e+00 5.9111420892970239e+00 2 -1 1
436 1 1.0008303914135426e+00 3.1852462340496284e+00 6.0456812297401381e+00 2 -1 1
242 2 3.4758830924200437e+00 2.2130690244942897e+00 7.7801733534700501e+00 -2 6 -3
241 1 2.5246590300843379e+00 2.0618775488037979e+00 7.9362884576806305e+00 -2 6 -3
243 2 2.0819915019434934e+00 2.6780965383150726e+00 7.3395097754631289e+00 -2 6 -3
185 2 4.1646046999670183e+00 4.2706883295257345e+00 8.9571748982829025e+00 2 1 1
184 1 5.1473172815941446e+00 4.2726359893477852e+00 8.9767925901713692e+00 2 1 1
133 1 6.4824473347077189e+00 7.6210321092129840e-01 7.0230066210894613e+00 3 -4 0
229 1 7.6529593914007421e+00 3.0529650671781337e+00 5.5877342224421751e+00 2 3 3
230 2 6.9187225788517885e+00 3.6470132220329168e+00 5.4954585251240138e+00 2 3 3
135 2 6.6867887077400940e+00 1.4786467958173577e+00 6.3816901565934954e+00 3 -4 0
342 2 5.9551328576435560e+00 1.2368230303087211e+00 8.5247894849576191e+00 1 0 0
186 2 5.3691567119649140e+00 3.3148782400159780e+00 9.0720674975130482e+00 2 1 1
277 1 1.2059798400231518e+01 1.9184537577214134e+00 8.9177441630942571e+00 -2 1 7
276 2 1.2382058708164395e+01 9.4765685255836118e-01 4.9048430084278607e+00 -6 -2 -2
492 2 8.9912135203207075e+00 1.4334907684508462e+00 6.5371142345808453e+00 0 0 -6
51 2 1.1173478499008141e+01 2.9670775487004928e+00 7.6298304332451865e+00 5 2 -4
507 2 1.0028450556613693e+01 3.3914297627805752e+00 4.9883305565427101e+00 -3 -1 3
49 1 1.0642679902425400e+01 3.5136130865826365e+00 6.9695657672643048e+00 5 2 -4
50 2 9.9827456196668418e+00 3.8783299798218485e+00 7.6090510355941534e+00 5 2 -4
490 1 9.4974473855402373e+00 6.1569479147389161e-01 6.3983910317133974e+00 0 0 -6
491 2 1.0165042951110051e+01 7.6597325952712925e-01 5.6777615697488750e+00 0 0 -6
144 2 1.3621327233334696e+01 1.5108745384766011e+00 6.7046289877238685e+00 0 0 2
308 2 1.4437744761939962e+01 3.5603135918048836e+00 5.4045476494838161e+00 4 -5 2
142 1 1.3778258629998101e+01 8.6809497841970962e-01 6.0228808169185308e+00 0 0 2
498 2 1.6940496064142984e+01 1.5601287265583053e+00 6.0619547261337523e+00 -2 2 0
143 2 1.4759202095452642e+01 7.7954520031403007e-01 5.9897886227926405e+00 0 0 2
479 2 1.3464707910208205e+01 4.1407618312689110e+00 7.6571569770487775e+00 -3 -2 -2
478 1 1.4070058292859215e+01 3.7164366306067502e+00 6.9799002875014127e+00 -3 -2 -2
480 2 1.4989704704214777e+01 3.8784067830905697e+00 7.2396989224129769e+00 -3 -2 -2
496 1 1.6547110814747107e+01 6.6754488990060545e-01 6.1081242999719345e+00 -2 2 0
497 2 1.6528139914849774e+01 4.5706693127103165e-01 7.0733562294091241e+00 -2 2 0
389 2 3.2395159005621261e+00 6.3338135864224636e+00 8.5060286594431993e+00 4 -3 -1
388 1 2.6501880946257961e+00 5.5730383692300167e+00 8.2839328158981225e+00 4 -3 -1
100 1 3.0216278953034905e+00 7.0519795808403156e+00 5.4579632570203866e+00 1 1 3
390 2 2.8068468902484272e+00 5.4434345121087038e+00 7.3473551540337212e+00 4 -3 -1
475 1 8.2443075059028392e-01 7.9515137120500530e+00 7.3597335762839604e+00 2 1 -7
102 2 3.7442743799871243e+00 7.4492723631682169e+00 5.9845700956334653e+00 1 1 3
477 2 1.5576124676737451e+00 7.9815280469546321e+00 7.9368480610384058e+00 2 1 -7
526 1 3.6268430745827045e+00 8.2903533489962733e+00 8.5998893764707525e+00 -3 -4 -3
382 1 8.3597294907292330e+00 5.1679827992429450e+00 8.5474762796014154e+00 1 -1 -1
313 1 6.9961114982574069e+00 7.3779574441399696e+00 8.8211629600201231e+00 0 0 1
504 2 5.3798864259918640e+00 4.5822116042597720e+00 7.2349808255382788e+00 -1 3 3
502 1 5.3583917669069505e+00 4.8483020035782678e+00 6.2536636135137424e+00 -1 3 3
360 2 5.9951058658763596e+00 8.3507453545997965e+00 6.1579031005509695e+00 2 3 5
503 2 5.3998789316440341e+00 5.7975842641448931e+00 6.2677929241744330e+00 -1 3 3
359 2 5.9110089498965381e+00 7.6535400992892066e+00 7.4975203971757898e+00 2 3 5
358 1 5.4592011700906022e+00 7.6607408100465504e+00 6.5825096547358575e+00 2 3 5
162 2 8.8669680654501803e+00 6.0734434495697647e+00 6.7296649798955110e+00 3 3 5
384 2 7.7484708538567553e+00 5.9135661309551928e+00 8.5919585119451458e+00 1 -1 -1
314 2 7.4486415435372360e+00 8.2629174680422892e+00 9.0315569064826384e+00 0 0 1
346 1 1.0966631756137762e+01 8.4875804223794393e+00 7.2064795198105580e+00 -4 -2 -2
383 2 9.0942517598789490e+00 5.6057542453867084e+00 9.0854378933946194e+00 1 -1 -1
377 2 1.1488247426188025e+01 8.4022667949657794e+00 5.0769931647781901e+00 -5 -1 2
160 1 9.4189111921012163e+00 6.6203196360572241e+00 6.1118729450794413e+00 3 3 5
347 2 1.0259393747630366e+01 7.8395494957785363e+00 6.7475334207686188e+00 -4 -2 -2
161 2 1.0316732785865053e+01 6.2339567376235481e+00 5.8615989678436193e+00 3 3 5
379 1 1.1757732282712475e+01 5.5909256244164593e+00 5.7209900396454652e+00 4 -5 4
380 2 1.1486970853703605e+01 4.7641330939825979e+00 6.0903587441437859e+00 4 -5 4
266 2 1.1014223612732614e+01 7.2634374089947595e+00 8.7263612930994210e+00 -5 -1 2
515 2 1.4712959452957918e+01 8.4315669927462231e+00 8.6713950122969532e+00 1 2 -3
55 1 1.6120049704355907e+01 4.6395810359559597e+00 9.0598062606751046e+00 -2 -3 1
421 1 1.4081160452443706e+01 6.6781211582377153e+00 5.6897428238375394e+00 -2 4 0
422 2 1.3371794673317888e+01 6.0782970174223614e+00 5.7515272117757217e+00 -2 4 0
306 2 1.7039562083276060e+01 8.5404167501904542e+00 5.2393906654695774e+00 -1 2 2
408 2 1.7122363591676582e+01 6.4983427116940691e+00 6.8158494353901116e+00 1 1 -2
476 2 1.6847210797697642e+01 8.2335159869207324e+00 7.8302387279125600e+00 1 1 -7
423 2 1.4851898058540963e+01 6.2027843855893403e+00 6.1559525616062709e+00 -2 4 0
407 2 1.6441896472904386e+01 5.4045890754386807e+00 7.6216296341042513e+00 1 1 -2
406 1 1.6590007692632781e+01 5.6638090026970707e+00 6.6750778310443319e+00 1 1 -2
188 2 1.4738388379009024e+01 7.9871663745466330e+00 5.9928515998442355e+00 3 6 -1
514 1 1.5628621774852865e+01 8.2173032589061314e+00 9.0541742729144499e+00 1 2 -3
44 2 1.0523447629957206e+00 2.5119509066181167e+00 1.0803221198143353e+01 5 -2 4
273 2 3.7831326919100094e+00 3.7863331380243501e+00 1.2365870647941541e+01 -1 1 0
43 1 1.3813665769998142e+00 3.3063428253794194e+00 1.0328171222038236e+01 5 -2 4
131 2 4.4659469466136779e+00 1.8146539942676974e+00 1.2558234370737676e+01 3 2 -6
271 1 3.1209203038980080e+00 4.3925052923103349e+00 1.2102723870791666e+01 -1 1 0
272 2 2.5440969506044868e+00 3.8802517677613797e+00 1.1462858380470863e+01 -1 1 0
446 2 1.9509431164074555e+00 9.1456612783245161e-01 1.2456934599597538e+01 -1 2 4
45 2 1.7919143663284949e+00 2.8264465700309152e+00 9.5367017010283170e+00 5 -2 4
445 1 2.8610927506705792e+00 5.1932658102304852e-01 1.2616559406552037e+01 -1 2 4
130 1 4.9685114988972012e+00 2.4022146436560954e+00 1.1953058369303706e+01 3 2 -6
270 2 6.2810110445184719e+00 7.4371511838633997e-01 1.1516740549441716e+01 8 5 6
341 2 4.9199396561056261e+00 1.2885148143790082e+00 9.8386933727846326e+00 1 0 0
327 2 7.4741457533004452e+00 2.4307509676864649e+00 1.0082742059416807e+01 -2 2 5
325 1 8.1461131222449339e+00 2.9293136903381796e+00 1.0539978273533976e+01 -2 2 5
326 2 8.0152552753496842e+00 3.8203815110732853e+00 1.0083196036263409e+01 -2 2 5
340 1 5.7685693772870188e+00 1.5987147916129574e+00 9.4160446898448775e+00 1 0 0
155 2 7.9296398963771884e+00 2.6099359093783758e+00 1.2128638337501583e+01 -4 -3 0
154 1 7.5888413945500552e+00 2.3323113715226889e+00 1.3044996661319564e+01 -4 -3 0
156 2 7.6066191536428720e+00 1.3355823727012197e+00 1.2939613418894750e+01 -4 -3 0
132 2 5.8343763263157280e+00 2.4861950588325636e+00 1.2402134271641710e+01 3 2 -6
564 2 1.0953498225350570e+01 2.3224241095624709e+00 1.1570676009222726e+01 -4 -2 4
562 1 1.1190362877390328e+01 1.4083076362400433e+00 1.1392908422365776e+01 -4 -2 4
119 2 1.2413036017265007e+01 4.0628234094261071e+00 1.2652092435000178e+01 1 -1 -2
37 1 1.1019384867549158e+01 3.9703270947706484e+00 1.1476385233319464e+01 -2 -7 -4
563 2 1.0427943497579449e+01 7.6350362128561056e-01 1.1436084370139918e+01 -4 -2 4
278 2 1.1636460412490502e+01 1.7684819981467665e+00 9.7658411771922324e+00 -2 1 7
501 2 1.2724365732837009e+01 1.4302805685355606e+00 1.2133849257484052e+01 -1 -3 -2
39 2 1.1246224767340633e+01 4.0375257816462309e+00 1.0500224369879350e+01 -2 -7 -4
279 2 1.2964190567625501e+01 2.1319899453907460e+00 9.1267815435568753e+00 -2 1 7
120 2 1.3290562942460440e+01 2.9519851451910362e+00 1.3081980918144099e+01 1 -1 -2
56 2 1.6979913615751684e+01 4.2310117723847824e+00 9.2969539466315450e+00 -2 -3 1
151 1 1.7152609274597388e+01 1.5287695900074900e+00 1.1876916748857209e+01 3 0 0
152 2 1.6797884079576413e+01 2.0903518893493893e+00 1.2693115839210821e+01 3 0 0
499 1 1.3601094931834957e+01 1.4055338740132317e+00 1.2581814205042841e+01 -1 -3 -2
96 2 1.4762468377384421e+01 1.4397364007716609e+00 1.0906166110430698e+01 1 4 -6
94 1 1.4488699099042782e+01 1.2388903297116163e+00 9.9672630371920228e+00 1 4 -6
387 2 1.5184554700531407e+01 4.2167200744768625e+00 1.1903218521354480e+01 1 -1 -3
95 2 1.4157794962881212e+01 3.6409059979741443e-01 1.0103788918206236e+01 1 4 -6
153 2 1.6824766508333255e+01 6.4071868069000448e-01 1.1886774096885743e+01 3 0 0
236 2 1.5910425666880737e+01 4.3715283041525088e-01 9.1245158343051997e+00 2 2 1
521 2 4.6960747753062346e+00 6.7123308465029252e+00 1.1102914668318265e+01 4 3 2
396 2 2.4955803212318854e+00 7.0451920495792733e+00 1.0597201419759770e+01 4 0 -1
394 1 3.2213418095396431e+00 6.9625244871766334e+00 1.1211955424275788e+01 4 0 -1
395 2 3.0500011856682137e+00 6.0723581226187813e+00 1.1599059121332012e+01 4 0 -1
541 1 5.7863552034206256e-01 6.6981110392464203e+00 1.0395823138664996e+01 -1 1 3
527 2 3.8616665922564066e+00 8.6211139121776466e+00 9.4732125414633597e+00 -3 -4 -3
522 2 5.3637798519975206e+00 5.5046915025962502e+00 1.0310009189769481e+01 4 3 2
520 1 5.5496069746370376e+00 6.3301986902687988e+00 1.0805052961798287e+01 4 3 2
227 2 6.5703953929142713e+00 6.4044678172484639e+00 1.2222711917272044e+01 1 1 0
315 2 6.4157871975123513e+00 7.2140248864393541e+00 9.5725893834928737e+00 0 0 1
333 2 8.7577599571460407e+00 6.5944246732212290e+00 1.2510406655071067e+01 -1 2 -6
226 1 7.1080015903870715e+00 6.6738259179829189e+00 1.2984671193171254e+01 1 1 0
38 2 1.0471860597516443e+01 4.8024137384745922e+00 1.1715648233206855e+01 -2 -7 -4
331 1 9.5454083983010900e+00 6.0666078158362708e+00 1.2527394053654197e+01 -1 2 -6
332 2 1.0119538403899105e+01 6.0540170205138271e+00 1.3309107250947994e+01 -1 2 -6
267 2 1.1247267965986824e+01 6.9137728498327560e+00 1.0319470521394518e+01 -5 -1 2
252 2 1.2429420666568879e+01 7.1970411715539555e+00 1.2517148558569991e+01 4 4 3
250 1 1.2809559324354870e+01 7.0798376103348222e+00 1.1591682579356592e+01 4 4 3
265 1 1.0884300520963553e+01 6.5430488607376374e+00 9.4081244926769454e+00 -5 -1 2
532 1 1.2602930615405985e+01 4.7201369748613065e+00 9.2631667434047227e+00 2 3 7
534 2 1.2098946500566832e+01 5.5462314344752057e+00 9.2226565922145021e+00 2 3 7
350 2 1.6413337624569301e+01 8.6429936041037134e+00 1.2988276859375452e+01 -2 -4 -1
533 2 1.3225961587757253e+01 4.7240363083225301e+00 9.9837720915993522e+00 2 3 7
385 1 1.4652388664712532e+01 4.6581249197883432e+00 1.1201425193940315e+01 1 -1 -3
57 2 1.5701955702523707e+01 4.8485171104730673e+00 9.8558613665831842e+00 -2 -3 1
543 2 1.7292622078107101e+01 5.9745497217900336e+00 9.8198008706965965e+00 -2 1 3
542 2 1.6676948526852186e+01 7.3049807510211773e+00 1.0041353391671089e+01 -2 1 3
300 2 1.7031336121075611e+01 6.9404412245801979e+00 1.2024384093981656e+01 0 1 5
251 2 1.3321752055045133e+01 7.8867362679326254e+00 1.1437138616894064e+01 4 4 3
386 2 1.4403884124943096e+01 5.5495605007909186e+00 1.1501193403201084e+01 1 -1 -3
298 1 1.6713064867004910e+01 7.1010966716519368e+00 1.2922797482375564e+01 0 1 5
254 2 3.1061988125960172e+00 3.5037880741396594e+00 1.6768560156845972e+01 -4 1 -4
232 1 1.3807922544305051e+00 1.4927122533183097e+00 1.5227995906203313e+01 1 4 3
234 2 2.3467437328585321e+00 1.5187907448873745e+00 1.5192388335158590e+01 1 4 3
233 2 1.1166101820212089e+00 1.7652347114194171e+00 1.6137565938379669e+01 1 4 3
293 2 2.1235138366652242e+00 4.4483532255684457e+00 1.3777468715563881e+01 0 8 1
253 1 2.6470550696658082e+00 4.4181983160738287e+00 1.6797598489407484e+01 -4 1 -4
264 2 4.7391606108773416e+00 1.5975121653895772e+00 1.5566726555939045e+01 -5 2 -2
262 1 4.1484310302010101e+00 2.0513056742682880e+00 1.6228679675822328e+01 -5 2 -2
263 2 4.1726800067554786e+00 1.3583149515846578e+00 1.6963897909914181e+01 -5 2 -2
86 2 8.0861247017918316e+00 1.7767258897468090e+00 1.7109411813859673e+01 1 4 -1
202 1 5.5248484117079766e+00 5.1026891962118337e-01 1.4468883628552998e+01 -2 3 -1
87 2 6.9045706875710202e+00 2.0498748532855275e+00 1.6097097689409047e+01 1 4 -1
85 1 7.6336292338114680e+00 2.4449797064115306e+00 1.6582776408434931e+01 1 4 -1
443 2 7.0435253788887078e+00 3.6740864551019445e+00 1.3862431258794750e+01 -3 0 -2
442 1 6.5877676569057391e+00 4.4897838735945692e+00 1.4283376053859431e+01 -3 0 -2
557 2 1.1353071025159156e+01 3.2657778376626880e+00 1.7332509439790975e+01 1 1 -3
118 1 1.2961496089895389e+01 3.7997165343947916e+00 1.3437349778193649e+01 1 -1 -2
334 1 1.1660843402576683e+01 4.2299304838306606e-01 1.4922586767500505e+01 0 3 0
336 2 1.1969221362065142e+01 1.2550466819771577e+00 1.5411968972421402e+01 0 3 0
3 2 9.6715447429542483e+00 3.6393067018889393e+00 1.3985207404802107e+01 0 3 1
164 2 1.2564703953415844e+01 3.4763568741932138e+00 1.5264865284491350e+01 4 -1 -4
2 2 9.1591740912294863e+00 3.2541520621529867e+00 1.5454084002839657e+01 0 3 1
1 1 9.9497496453741565e+00 3.5367927486416444e+00 1.4903417578323792e+01 0 3 1
163 1 1.2697382542367992e+01 2.8348511194374533e+00 1.6039598912963065e+01 4 -1 -4
335 2 1.0847201132102075e+01 6.5487571000293676e-01 1.4515263048701815e+01 0 3 0
500 2 1.3485294351763716e+01 9.1340642311402254e-01 1.3399109676377401e+01 -1 -3 -2
165 2 1.3656549634325472e+01 2.6652004401168674e+00 1.6071775889165828e+01 4 -1 -4
451 1 1.5987231351037057e+01 3.5114396531572480e+00 1.3466743163354661e+01 -4 8 1
452 2 1.6745622146217585e+01 3.9169971830138501e+00 1.3896370886071288e+01 -4 8 1
453 2 1.5544887638987722e+01 2.9494975307939151e+00 1.4179923430916624e+01 -4 8 1
72 2 1.4930782139154067e+01 1.0141767472394521e+00 1.4977592176487237e+01 2 1 -2
70 1 1.5035649470188789e+01 1.9161530079116715e+00 1.5354258896623691e+01 2 1 -2
71 2 1.5684583750108603e+01 1.8273312022442956e+00 1.6092404971534094e+01 2 1 -2
21 2 1.6921373758049896e+01 3.1307281282885624e+00 1.7072187449717759e+01 -2 1 5
19 1 1.6863893478732891e+01 2.2319304180539774e+00 1.7357448754936989e+01 -2 1 5
294 2 1.5732788693280411e+00 4.7085537304452103e+00 1.5302378205447592e+01 0 8 1
292 1 1.3766039752242414e+00 4.6256862675921298e+00 1.4334933131128828e+01 0 8 1
285 2 3.7007123762786374e+00 5.2414768496165118e+00 1.5653728372764219e+01 3 -3 -2
283 1 4.2439667721114454e+00 5.8599566125758349e+00 1.5156524713724428e+01 3 -3 -2
559 1 2.4723981477995798e+00 7.9852016591078057e+00 1.4615633582866074e+01 0 -4 -1
561 2 2.9755247792619888e+00 7.1480266164363089e+00 1.4598384304949485e+01 0 -4 -1
560 2 1.7320495518074916e+00 7.7461140073506458e+00 1.5202450508019227e+01 0 -4 -1
397 1 5.5665565954965979e-01 7.1761058112119889e+00 1.6425246506907033e+01 3 3 1
299 2 5.8360941307563063e-01 6.8272062085558520e+00 1.3523252094226571e+01 1 1 5
399 2 5.5477082231461583e-01 7.6110381220461791e+00 1.7303487522095701e+01 3 3 1
367 1 6.7673275556363173e+00 8.6546206769339591e+00 1.5263236792680727e+01 -3 -3 -3
91 1 5.7472302024775628e+00 6.7144905318208519e+00 1.7498604498437714e+01 3 0 -4
444 2 7.2456476228262074e+00 4.6894286517366126e+00 1.4983393893255267e+01 -3 0 -2
284 2 4.9645223319910441e+00 5.3316079112544630e+00 1.4724525806662195e+01 3 -3 -2
92 2 5.3653222199690669e+00 6.5240712567441461e+00 1.6656061800310013e+01 3 0 -4
368 2 6.9157331516258811e+00 7.9920780508643690e+00 1.4578146243900362e+01 -3 -3 -3
228 2 7.0186066742494813e+00 5.8530803498531352e+00 1.3525923890254550e+01 1 1 0
428 2 8.3007432231934875e+00 5.3803280817198891e+00 1.7137507720912886e+01 3 1 -8
429 2 8.0871489541350812e+00 6.7353487222581556e+00 1.6543413297172830e+01 3 1 -8
427 1 8.4011147976687255e+00 5.8815540193708742e+00 1.6300817766099762e+01 3 1 -8
510 2 1.0392051069781157e+01 5.0071281161583636e+00 1.5446852844949339e+01 0 -1 -2
509 2 1.0237815761263230e+01 6.1471471339455928e+00 1.6457335476221033e+01 0 -1 -2
536 2 1.2678048588777115e+01 5.5477095283037325e+00 1.6855915030116272e+01 3 -1 -6
213 2 1.0953250122022204e+01 8.0909763945304931e+00 1.4268875313185257e+01 0 -3 0
212 2 1.1908613062529612e+01 6.9014779180011949e+00 1.4664979994257804e+01 0 -3 0
211 1 1.1919781381382151e+01 7.7654588954329355e+00 1.4207838824129212e+01 0 -3 0
508 1 1.0904934528602574e+01 5.7902444409278200e+00 1.5823421532517120e+01 0 -1 -2
47 2 1.3913951806616049e+01 5.1959923331611284e+00 1.4044531530233391e+01 1 -2 1
549 2 1.6206679964334157e+01 8.3617782795674174e+00 1.6171865832013260e+01 -2 5 -1
486 2 1.3728808163990712e+01 7.5573611301549732e+00 1.7208888708154461e+01 -4 -1 1
48 2 1.5201365199969965e+01 6.0916819794650223e+00 1.3826357162275523e+01 1 -2 1
46 1 1.4286525722223471e+01 6.1483875045478360e+00 1.4246552854705996e+01 1 -2 1
398 2 1.6886951644922128e+01 6.2897868829647265e+00 1.6706752804281358e+01 2 3 1
537 2 1.3721140268811867e+01 6.0237675371944901e+00 1.5761304586933933e+01 3 -1 -6
535 1 1.3615952394012153e+01 5.8084481873470466e+00 1.6729483559167818e+01 3 -1 -6
75 2 1.5032983995204964e+01 5.0777927239689236e+00 1.7258245439531024e+01 1 -3 -4
573 2 1.2827445136881459e+00 1.2302306466439601e+01 2.6517066457404592e+00 -2 2 -3
67 1 2.1197507618334468e+00 1.0818555731471660e+01 2.6955479624573453e+00 -4 0 -5
69 2 2.7598096846868607e+00 1.0344361448651627e+01 3.2954519164316785e+00 -4 0 -5
286 1 3.8603323394805789e+00 1.0116810902911581e+01 4.8418197130040248e+00 4 -1 0
68 2 1.5234309178753285e+00 1.0114331662019461e+01 2.3937614404964025e+00 -4 0 -5
530 2 4.6447715508933305e+00 1.2247091210229653e+01 1.4725790871250219e+00 2 0 4
288 2 4.4112552743723619e+00 9.3882237130794977e+00 4.4906442752524711e+00 4 -1 0
420 2 2.5038977900658050e+00 1.1560287116651278e+01 9.5203772245435059e-01 2 3 2
260 2 4.3978333800129707e+00 1.1908425976759483e+01 4.8174507766946322e+00 -1 -1 2
571 1 5.8950562626359115e-01 1.2951866186481743e+01 2.7097460751852149e+00 -2 2 -3
259 1 4.5317772228959452e+00 1.2808606749995649e+01 4.4710519256738444e+00 -1 -1 2
529 1 5.5560171334300712e+00 1.2336112176944960e+01 1.9025223523824979e+00 2 0 4
570 2 7.1370227699866060e+00 1.1507046154519976e+01 3.5052083134580934e+00 -1 1 -5
568 1 7.6668606568147668e+00 1.0613373833650696e+01 3.6862938151643112e+00 -1 1 -5
569 2 6.9741471553229664e+00 1.0026525785299864e+01 3.4732216056752425e+00 -1 1 -5
261 2 4.9668708406261928e+00 1.2661922085285655e+01 3.5618714776374230e+00 -1 -1 2
576 2 6.5990581824345602e+00 1.1152135374167965e+01 9.9514071669507453e-01 0 2 -1
575 2 7.2894233547902880e+00 9.8100626145602199e+00 8.7180447459925792e-01 0 2 -1
524 2 1.0033197476741249e+01 1.2092316829883833e+01 1.4763936356788092e+00 3 -1 1
150 2 1.0337238784202656e+01 1.1178245883954451e+01 3.6356342155367649e+00 -4 -5 -2
148 1 1.0706287835136418e+01 1.1182775673196574e+01 2.7341395158541033e+00 -4 -5 -2
149 2 1.0778025670813619e+01 1.0269293921598873e+01 2.4665831315447111e+00 -4 -5 -2
26 2 1.2385824923480207e+01 1.2447551289409336e+01 3.6071524306205460e+00 1 -3 -1
378 2 1.2041834501824914e+01 9.2870351285261190e+00 3.9220041282950939e+00 -5 -1 2
523 1 9.4183727478935726e+00 1.2313608246532882e+01 7.0201372194823064e-01 3 -1 1
337 1 1.0777564689531630e+01 9.1910946491549019e+00 7.2002125047040988e-01 5 -1 4
172 1 1.3502207555246702e+01 1.0472120426491129e+01 4.1600771779081516e+00 -2 -3 4
60 2 1.5984962499672660e+01 1.1548481789899395e+01 2.6319197153560987e+00 -1 -3 2
58 1 1.5263915815404101e+01 1.1063737961616827e+01 2.1656707517901554e+00 -1 -3 2
174 2 1.4088148521092366e+01 1.0527898029213123e+01 3.3432199170120458e+00 -2 -3 4
59 2 1.5015188003672378e+01 1.1742737807749384e+01 1.4893758495635456e+00 -1 -3 2
489 2 1.6164643264563793e+01 9.4392630800000905e+00 1.9057713416890028e+00 -3 -3 -3
173 2 1.3974338135716367e+01 9.8244230791650331e+00 4.7463708511932330e+00 -2 -3 4
487 1 1.6966715479114661e+01 8.8729108655773459e+00 1.8752466969652177e+00 -3 -3 -3
572 2 8.3839017963796736e-01 1.3653751589124969e+01 3.2688000232726471e+00 -2 2 -3
424 1 3.6190771555049963e+00 1.6705995204159869e+01 3.9082164896976241e+00 4 -1 5
109 1 1.6484895578809331e+00 1.6715577758692639e+01 1.8125115268354561e+00 -1 -3 0
127 1 2.1203515282588978e+00 1.4475330858751706e+01 4.7131265267460964e+00 1 -2 1
425 2 2.9897581696292286e+00 1.6025522945775371e+01 3.8050764220909534e+00 4 -1 5
128 2 2.9622274141032405e+00 1.3998547382521465e+01 4.7682584317497865e+00 1 -2 1
111 2 9.9500482191985840e-01 1.6707628979209133e+01 2.5957577418748086e+00 -1 -3 0
426 2 3.9628423337473544e+00 1.6401613375633936e+01 4.7947247489975373e+00 4 -1 5
246 2 2.3937723438489793e+00 1.5189887907262728e+01 9.8978581026664347e-01 -1 -2 -1
531 2 5.7576761598687538e+00 1.3302400714997916e+01 2.0720993488209700e+00 2 0 4
481 1 7.2545773664480260e+00 1.3674379133943026e+01 4.4566214021860553e+00 -5 -3 8
281 2 6.0986406619188829e+00 1.4977602721034463e+01 3.3547581727484523e+00 -2 1 -3
280 1 5.9807989272525122e+00 1.5174507243462992e+01 2.4429458950161953e+00 -2 1 -3
282 2 6.8809167437279974e+00 1.5204864456040747e+01 2.1745386137086591e+00 -2 1 -3
519 2 7.5960840667371645e+00 1.7029500892673809e+01 3.9052277503501776e+00 3 0 -6
482 2 7.5279287905837542e+00 1.4564373687081861e+01 4.6736125438598499e+00 -5 -3 8
125 2 5.2692374468491270e+00 1.6619120720076445e+01 1.3395420066825241e+00 3 -4 3
517 1 7.8066324847346742e+00 1.6248388071023172e+01 4.4042662568859416e+00 3 0 -6
393 2 8.5332724517349625e+00 1.3950835129044995e+01 1.4074418526375272e+00 0 -6 5
391 1 8.5192169588185163e+00 1.4879745851111130e+01 1.5860181675791034e+00 0 -6 5
392 2 9.2240084330802841e+00 1.4944374719332474e+01 2.1796159204344869e+00 0 -6 5
365 2 1.0797672822654318e+01 1.6082645058850154e+01 3.3719223880139113e+00 -1 -1 -4
366 2 1.1427346297256246e+01 1.4736662316926624e+01 2.7687444812057196e+00 -1 -1 -4
364 1 1.0645808532815686e+01 1.5118554510778578e+01 3.1776405184079182e+00 -1 -1 -4
25 1 1.2654893407252910e+01 1.3289875993891021e+01 3.2220130568223428e+00 1 -3 -1
83 2 1.0596490208699999e+01 1.4388618929931186e+01 4.8277708878303649e+00 1 -2 3
320 2 1.2985316870635243e+01 1.6326632414458988e+01 1.1056075699294130e+00 -6 2 -1
159 2 1.3288895909416192e+01 1.3301542105297093e+01 1.4222864540835656e+00 -2 6 -5
27 2 1.3456280244667118e+01 1.3552622419642319e+01 3.6694433239921085e+00 1 -3 -1
5 2 1.5421048500122437e+01 1.3753850939994750e+01 4.6509815334618647e+00 1 3 -3
205 1 1.6499677944979680e+01 1.6761764550828822e+01 3.6298355996284308e+00 -5 1 1
6 2 1.5554575804296491e+01 1.5189334879975762e+01 4.0036997057766994e+00 1 3 -3
4 1 1.4898448767945183e+01 1.4437365723656914e+01 4.2440759104894976e+00 1 3 -3
206 2 1.6840773250843938e+01 1.6890915639767250e+01 4.5255649442312675e+00 -5 1 1
319 1 1.3808810739698986e+01 1.6638055770672970e+01 1.5681101148623364e+00 -6 2 -1
321 2 1.4551360878184672e+01 1.6409561958033429e+01 1.0157142614343244e+00 -6 2 -1
417 2 1.6754564988462349e+01 1.3077860573287088e+01 1.1322231880621090e+00 1 -1 -1
287 2 3.9690651777027419e+00 1.0139183199897596e+01 5.8558055751223792e+00 4 -1 0