LAMMPS data file via write_data, version 8 Apr 2021, timestep = 886000

1008 atoms
2 atom types

0.0956412900740552 20.57688536715835 xlo xhi
0.0956412900740552 20.57688536715835 ylo yhi
0.0956412900740552 20.57688536715835 zlo zhi
0 0 0 xy xz yz

Masses

1 16
2 2

Atoms # atomic

443 2 12.509103660280202 3.485676475171739 6.876355881026662 1 -1 2
223 1 17.039953027481275 3.9292187840127735 1.0745859589384072 1 -1 2
180 2 11.069018094947612 6.933075795532809 0.4754937015697506 0 2 1
472 1 3.9418008292447237 5.095374834008173 6.4843268432727195 1 0 -1
74 2 15.840899729323374 3.306790409443746 8.25493778134412 3 -1 0
110 2 3.4989185870808726 5.8690770315484295 3.0730428173045787 2 1 -4
298 1 4.771129724094047 1.593312474854423 6.669858760331272 2 -4 0
818 2 18.4685505691708 7.144749499456056 9.243109646601193 -6 2 2
210 2 13.767268626911223 3.8858416021452666 8.878940412060402 -2 2 0
765 2 7.041481032839033 4.559717780958845 5.624261579017981 5 -1 0
87 2 11.83101856352278 5.1044913654445825 9.674136605379722 1 0 -4
59 2 17.44518552275577 0.19783760780706008 7.4569227524817645 1 0 -1
358 1 4.542754962320077 0.6096883882527775 3.282150743949358 -1 3 -2
939 2 9.095371512162659 10.330942068547927 7.881425594835541 -1 2 1
309 2 15.353159424603815 8.244169525525825 9.579008644422876 1 1 0
359 2 4.259265197910424 1.5157785008219968 3.514217783520997 -1 3 -2
225 2 16.2606961641871 4.5041492377640875 1.1290618797203282 1 -1 2
272 2 8.385227534011827 5.932727077711707 4.750921897677166 0 -1 -2
402 2 5.44734430770764 0.5732120957514968 1.6647669866070762 -2 1 -2
598 1 8.889267891887563 10.151683161708961 1.1536909875669772 -2 -2 -3
62 2 14.973867010061905 7.051364530287413 4.43505544032215 0 -1 3
45 2 1.3763219724250564 3.700654448968512 4.7589239395944345 2 1 2
914 2 15.015690883012539 6.13267935032979 2.4208892022602844 0 1 3
23 2 0.9106208869218225 1.8788601207425892 1.544563212381202 2 0 -2
753 2 16.284621926336857 3.144559697610645 5.890214597212425 -2 -2 2
474 2 4.864173820824544 4.803479599041506 6.368202328375352 1 0 -1
224 2 17.33315828459492 3.987363059923401 0.1136145342434312 1 -1 2
473 2 3.504899546260474 5.327753332851322 5.6463549490059615 1 0 -1
791 2 2.403951992040282 7.2453620779871155 5.081271391187314 0 1 0
86 2 10.247764836159005 4.761351571692908 9.528884655136705 1 0 -4
204 2 0.4969353101733815 8.488584978983388 2.164629740596487 -2 0 -3
73 1 15.074182774470849 3.906285953034667 8.325586139619537 3 -1 0
186 2 19.403780091306185 0.24319740561780948 6.652573113317377 1 -1 -1
684 2 10.229373958577382 8.786064406848414 8.2161766033036 1 1 0
856 1 5.032053239704868 7.890691557889346 6.5987016566667585 -2 -1 2
893 2 3.799072998649907 3.5863391461683842 3.83217067252248 -1 0 -3
7 1 12.951521766514961 8.176785792535387 9.727671338063228 -1 0 -1
280 1 9.483640798100508 6.932064335977202 5.4685289312707095 0 1 1
623 2 5.670663212334349 6.523256698451988 2.0945543757628706 0 2 -3
354 2 19.936561102588705 6.267762981854293 0.5112555928809788 -3 3 0
633 2 9.101995672894546 6.773164383991148 0.7096568011373859 0 -2 1
1001 2 14.239530402890178 4.0503634887511755 5.353443383909786 1 1 -2
631 1 8.28710502162533 7.378439154075555 0.6479155613659839 0 -2 1
50 2 15.325311669323467 6.737536028083172 7.089118538086238 -4 0 2
178 1 10.779830426029957 6.12495689937853 1.0012156977283728 0 2 1
164 2 4.201671312028372 5.755332903315151 9.838952795635526 0 0 1
878 2 14.497061791428678 9.657600148753756 7.863351202368869 2 0 0
111 2 2.057661280159058 5.557664995197984 3.446165236649765 2 1 -4
410 2 2.9729319174003264 1.0566555783983382 6.609039036689961 0 2 -3
658 1 2.758635657872817 3.0026595106998366 9.883158031821061 0 3 2
203 2 0.7162006372205626 7.064633848839678 2.773190790088326 -2 0 -3
706 1 6.881422136130641 3.3605953489141807 2.5808303517695865 1 0 3
70 1 9.712010144747344 9.307011353244025 4.337081421506165 2 -2 0
480 2 10.464876051840022 0.4509030676244891 3.6802053272349506 -1 2 -1
979 1 15.311809270754157 8.474121894844373 5.166604461825279 -1 5 4
763 1 6.476415984838286 4.098257734105692 6.334980536246892 5 -1 0
695 2 19.75523808889154 5.531447729529387 5.801680716378904 -1 -2 0
894 2 5.285452326888105 3.3216890360198335 3.5071313378434437 -1 0 -3
61 1 14.599203798813631 6.309619189896959 3.9299110653303817 0 -1 3
265 1 18.01776766610044 6.153430328351696 5.069140330527964 2 1 2
39 2 13.384705323826976 8.683110303714788 5.128560822377591 2 2 1
504 2 11.199947463811059 1.579881264500854 2.164052860157137 0 0 2
710 2 7.682518090220551 1.2087057438377973 5.232563149559888 1 2 2
334 1 18.09376923577197 9.908846750305937 9.073363789446264 1 2 4
682 1 10.442826094648732 9.722516390305035 8.342150598718977 1 1 0
60 2 15.973163780001975 0.2622230511527408 7.839470499775644 1 0 -1
570 2 0.98208914783073 5.1413070163142205 1.3359441481544563 1 0 2
628 1 9.579510370248036 7.294049983989525 7.99103622275399 1 4 0
51 2 16.892579453200412 6.897714462561143 7.334823701911246 -4 0 2
208 1 12.966660577125495 3.878957736172665 9.498393385289779 -2 2 0
350 2 10.882887235100712 3.712894929419517 3.5797492605738475 0 1 1
940 1 8.163565070403319 0.938222193712489 2.0775729782497945 0 1 0
660 2 2.925716733877771 3.826142837308565 9.340975931976006 0 3 2
17 2 12.844135873548298 7.582562333246427 6.875163892684734 -2 0 0
599 2 8.521746117080966 9.26068415384775 1.083465883821952 -2 -2 -3
901 1 0.792738027400077 1.3670281331316065 8.64880609594638 -2 -1 1
462 2 18.900816404533764 8.080932238339809 6.660901090166418 -4 -2 -2
360 2 3.723492048492921 0.1814798485813753 3.0147917018534853 -1 3 -2
764 2 6.730475487822335 4.535853568761155 7.1812260587360734 5 -1 0
202 1 0.622080507997978 8.007806488268251 3.048536882554075 -2 0 -3
659 2 2.0699293824105642 2.488332440612481 9.425233420529311 0 3 2
568 1 0.6946765364852453 5.303950854473075 2.30684435794762 1 0 2
419 2 12.784621143388264 9.94558772779422 2.6381294962607984 -1 1 -1
156 2 19.935116207189452 3.810707509030964 6.980410570068594 -4 0 -3
399 2 7.7962579974060215 6.438472071642897 8.368005182963374 2 1 0
422 2 4.3601364582180375 2.788556976450537 9.97145346484842 3 2 -1
188 2 3.7219925621510583 9.036161836375877 1.7936808249700054 -2 -1 -1
740 2 18.144785349148787 9.164096090944374 3.9073372687922987 -2 -2 -1
72 2 9.753364571268008 9.553267512252509 3.402928667261544 2 -2 0
103 1 5.525386580494819 9.114039841905367 4.159708548284228 0 -3 2
942 2 8.026055921825447 1.8833351023654865 1.8935581634115923 0 1 0
2 2 20.401224223049354 10.17627945693979 8.901309913513423 0 2 -2
400 1 5.608720878814873 0.4191697061219819 0.7355286201506426 -2 2 -2
694 1 20.57270116098515 5.197478150360559 6.101605548627781 -1 -2 0
286 1 11.692221942678069 6.884121088396952 3.4492682875930716 4 1 2
44 2 1.710290785226003 2.169208753088979 5.119233656632915 2 1 2
902 2 0.4207569237538857 0.5770997295436806 9.076797260262316 -2 -1 1
85 1 10.866814007093298 5.512807079684226 9.592127096173607 1 0 -4
770 2 20.25391036732587 0.7639763929452602 0.2796570379894691 1 2 0
502 1 10.701758209382954 0.7352749022635476 2.1369391236871964 0 0 2
1000 1 15.130465944409108 3.9654814907811873 4.952289689976539 1 1 -2
622 1 6.406649160317881 7.004654336943075 2.6117700974308433 0 2 -2
964 1 11.760432789755923 1.5713074347450107 7.618099797643666 1 1 3
105 2 5.050602955130622 8.818559418392805 4.9470460167139105 0 -3 2
209 2 12.803308479157415 2.93206480987596 9.759303388503549 -2 2 0
420 2 12.185667856831033 9.312603298334848 1.256741196143384 -1 1 -1
38 2 11.843933618531588 8.67125023660705 5.088044023337708 2 2 1
18 2 12.869055036368447 6.0346838008449675 6.994725556386424 -2 0 0
579 2 15.686111742448452 0.412561928777345 0.37550144074786845 -1 -2 1
281 2 9.280125476458537 7.798429433785708 5.00971037862004 0 1 1
985 1 19.874335715289277 8.988638984908693 5.511088184731351 0 2 1
335 2 17.408641205184406 9.369527274599557 9.46504351661641 1 2 4
966 2 11.135583389503603 1.2202193814266504 6.946719943948337 1 1 3
37 1 12.58697691123226 8.750977178451361 5.674188453957839 2 2 1
693 2 4.002198379379357 4.8130489702272845 1.3627845242719965 -2 -2 -1
790 1 2.5496038817821693 7.838448459858306 5.861064750086848 0 1 1
460 1 18.280641590731538 7.97804241843821 7.387996737057701 -4 -2 -2
326 2 18.492476273742472 4.931769789888713 3.7585915377118306 -1 1 0
596 2 7.528825642001298 0.4185771841720811 3.3363476008069997 0 -1 0
829 1 13.020791110157148 4.4997499766330105 0.5670785096449119 -2 -1 0
442 1 12.593940314953716 4.216600976655844 6.286581999332696 1 -1 2
304 1 1.2715580049672877 7.253152944056906 7.999401470536055 1 -1 0
846 2 18.77383605674222 3.3806093332155744 8.762901152043602 0 2 2
987 2 0.12015858167888593 9.192583150616557 6.153848708605621 1 2 1
830 2 13.771077171933655 5.135089522347781 0.8477304530299665 -2 -1 0
741 2 17.310921373147416 8.365136140580558 2.8765105196844014 -2 -2 -1
705 2 2.19569325667314 5.9520860705581375 8.62788795020325 0 1 0
24 2 1.4574106290938489 2.2103177759988557 2.9779440194066686 2 -1 -2
376 1 0.223028988701948 9.954326271217152 0.8991366061868026 1 0 0
963 2 17.51081262947836 1.4073706991697135 2.108341083977469 2 -1 0
732 2 16.996989962406822 8.446298883727472 0.47213027646588224 2 -1 1
401 2 6.593424251360272 0.3758779019506225 0.507015942386744 -2 2 -2
965 2 11.213142730902977 1.7583242072263037 8.382983373335327 1 1 3
597 2 6.080839467476429 0.3245230493738114 3.90336102459575 0 -1 0
418 1 12.74500729191825 9.144058144413329 2.0525037507169146 -1 1 -1
282 2 10.280734646113775 6.563120530764052 5.0534120920906584 0 1 1
629 2 9.558737151203324 7.154462263709774 7.024527786054505 1 4 0
649 1 12.046379129948356 2.832746301570877 2.473254197983089 0 1 0
704 2 3.3874506830867843 5.261626702489678 7.7459474784604305 0 1 0
325 1 18.87775657049956 4.401614267051076 3.0317286272957964 -1 1 0
52 1 7.2722618615167125 1.4133358581912074 8.811825001360855 3 2 1
300 2 5.333595557347716 0.8979471153385963 6.264723317270514 2 -4 0
739 1 17.4988872968174 8.424265073865376 3.8548356791365586 -2 -2 -1
651 2 12.464849936952385 3.3039546056320455 1.7366121830042522 0 1 0
941 2 9.131779486167234 0.7453823034295117 1.9209094058689178 0 1 0
784 1 3.5299347234336507 8.156604842099945 0.21937514914101905 3 0 1
903 2 20.5343352309945 1.8389797566896724 8.14717662827831 -3 -1 1
53 2 7.1683386446365285 1.3541154559716766 7.819730747675665 3 2 1
352 1 19.61271261524702 7.087144547725142 0.17939011763922827 -3 3 0
351 2 9.669817992424901 3.9739405710264646 4.454723501507732 0 1 2
915 2 15.999706857830331 6.603991149519234 1.3446530496541604 0 1 3
845 2 18.03015083806823 4.73125557202849 9.032188163170964 0 2 2
411 2 1.5909073394280187 0.9885773203853799 7.1660108496568515 0 2 -3
316 1 19.083016669027753 1.5130738217836304 2.737892494518235 -1 1 -1
305 2 1.6761161603536956 7.49869753330568 7.141984258621924 1 -1 0
709 1 8.215868316031118 1.638074290385393 6.004111599499835 1 2 2
844 1 17.920286256082523 3.7569484795216073 9.150026187093122 0 2 2
187 1 3.46887533901546 9.690083943673194 2.4656216875047763 -2 -1 -1
752 2 16.85628956265604 1.9376062402630785 6.865640059794149 -2 -2 2
792 2 2.483672002188624 8.768750602604184 5.431251780251243 0 1 1
312 2 8.660017364941558 2.5503971554733385 8.875438661236116 1 2 2
630 2 10.140772021908258 6.577643905711345 8.358167836950843 1 4 0
16 1 13.229257106059245 6.85348981944432 7.379365029361273 -2 0 0
888 2 15.482187400568638 1.7823653850659835 2.6310699778885938 -3 1 1
707 2 6.758112110227293 3.5549861693855584 1.6538044599106745 1 0 2
310 1 9.367450768015901 3.122736919224894 9.232955443527127 1 2 2
751 1 17.026757787463715 2.505313292104787 6.080659177865653 -2 -2 2
75 2 15.350769188530062 4.756068028813632 8.036002682765526 3 -1 0
696 2 0.3430401346855821 5.8080918473144445 6.8089502758263345 0 -2 0
986 2 20.361991357978784 8.773279404103528 4.669484622434592 0 2 1
49 1 16.180326913556744 6.250010373726698 7.221967814788345 -4 0 2
397 1 7.04354392016888 5.855807400708545 8.342373189736607 2 1 0
703 1 3.023998040356357 5.393475703688232 8.68926191442388 0 1 0
683 2 11.269109920556652 9.933373919474315 7.895166511571993 1 1 0
311 2 9.506232107884443 2.786409076383469 10.147385065618979 1 2 2
892 1 4.601534143977177 3.2051048452786977 4.186793151507363 -1 0 -3
731 2 18.064162309574392 7.445144518565909 0.8960338717383146 2 -1 1
131 2 4.49908109999011 2.507922829779352 0.5153258587749249 -1 0 -4
155 2 18.730907635959653 2.82466782131013 6.660206694863402 -4 0 -3
179 2 10.97447952769196 6.3084275593519035 1.9577060652857892 0 2 1
63 2 14.96259286110932 5.523597630124792 4.396545411571997 0 -1 3
409 1 2.0216515313630383 0.8783545264396759 6.296468465526922 0 2 -3
624 2 6.086084472945839 7.815466768344689 3.0900587155538717 0 2 -2
317 2 19.066861035405005 2.3257923359657653 3.3014563832722312 -1 1 -1
54 2 6.489620542700042 1.9503343567753069 9.049911112401508 3 2 1
109 1 2.90413863742341 5.81289021281888 3.9015777721374225 2 1 -4
287 2 12.548783334969356 6.4826141525467955 3.714964981658635 4 1 2
980 2 15.310728665487785 8.611083011185544 6.131050999374546 -1 5 3
887 2 14.994205399850568 1.2675054004441932 4.052268059638323 -3 1 1
22 1 1.703398359355961 1.7589897403089068 2.0936658404591624 2 -1 -2
104 2 4.652512817971924 9.288121334181804 3.622357429377236 0 -3 2
478 1 10.463641180295832 0.44731253220399997 4.685962477392386 -1 2 -1
913 1 15.126200938541462 6.128528053557746 1.4247585735967672 0 1 3
771 2 19.58406356597394 1.6497035293769118 1.4184084140016338 1 2 0
981 2 16.11235218215579 8.801317269881677 4.7491014892968115 -1 5 4
730 1 17.15956174020146 7.740638527541846 1.1405449332532611 2 -1 1
444 2 11.897992532231456 4.173068370212788 5.6113544010193275 1 -1 2
642 2 5.052964235283591 9.435596477779875 8.17766968235718 2 1 -3
306 2 1.221468742928841 8.001870017373424 8.61841546785405 1 -1 0
9 2 13.068255607505078 7.623983699981823 8.935289741899297 -1 0 -1
288 2 12.010341028992547 7.648160311080751 2.9010274846050814 4 1 2
267 2 17.67468238307829 6.932982356637797 4.600206490218977 2 1 3
398 2 6.520395740408481 6.185812301443389 9.040412616794862 2 1 0
938 2 7.886927482725076 10.331216339639154 8.70762549635085 -1 2 1
708 2 7.23330562684203 4.107593515256726 3.0868652779195886 1 0 3
858 2 5.250058851294547 7.037096425692802 7.002186418972906 -2 -1 2
569 2 20.399830119010698 4.791204401509575 2.4889402640247975 0 0 2
273 2 7.163231228227037 6.081919439590183 3.863641691023784 0 -1 -2
692 2 3.5250957042636206 6.23216215620512 0.9685392833170094 -2 -2 -1
154 1 19.587860193899203 2.893630608238124 7.215048819152482 -4 0 -3
43 1 1.6845510025042354 2.813482524468628 4.416005164662455 2 1 2
632 2 7.668485279649009 7.043360004931752 1.3534963924161887 0 -2 1
886 1 14.646443202022187 1.6750438009033188 3.2236615863103797 -3 1 1
831 2 12.227554745062555 5.126403549411926 0.5763354298443896 -2 -1 0
857 2 4.066664831673668 7.860097799440603 6.332333467411062 -2 -1 2
271 1 7.634478909890616 5.410315824990724 4.389442579863358 0 -1 -2
879 2 16.120693173892537 9.687300651067751 7.607003719196982 2 0 0
817 1 18.107143535761036 6.584202695209886 9.962818174341264 -6 2 2
711 2 7.721877992021182 2.5011477135665454 6.208495584034789 1 2 2
130 1 3.9720486399737647 3.075912672225566 1.1265492232900514 -1 0 -4
132 2 3.1832512998453066 2.6807570252375985 1.453455257514165 -1 0 -4
266 2 17.526900410572516 6.144320909480349 5.935286791622475 2 1 2
650 2 12.80699079288085 2.271256305562835 2.7869097180597016 0 1 0
1002 2 14.99470030636612 3.3498115340218537 4.216262063904243 1 1 -2
327 2 18.115961756440754 4.158508324906506 2.4081649035440633 -1 1 0
962 2 16.716406983926106 2.3819624000115196 1.14948555063289 2 -1 0
314 2 14.088365442366813 10.141396892966783 0.9772367068377678 0 1 -2
691 1 4.146546356893085 5.7591207279430146 1.5357280759955465 -2 -2 -1
877 1 15.332351150653501 9.138341804682863 7.810462757628416 2 0 0
318 2 19.24613107873698 0.6774848035427478 3.3517220296835726 -1 1 -1
299 2 4.83394128487969 2.4244761973964635 6.158303578046258 2 -4 0
654 2 17.955556598616276 0.86798042011865 10.257508104893846 1 0 -2
349 1 10.570171185001044 4.126824146095089 4.3824960724265445 0 1 1
479 2 9.785812072867026 1.0745345617789444 4.894522432860476 -1 2 -1
961 1 16.638731693087347 1.4887388388265137 1.6328006791492706 2 -1 0
461 2 18.23525604794708 8.90480229091961 7.720192568849398 -4 -2 -2
71 2 9.719237317858925 10.156397537759288 4.824190950221356 2 -2 0
769 1 20.169314335030244 1.6649111760885336 0.5743062153369592 1 2 0
621 2 13.086952453772833 0.5635666035588065 7.008566641107357 -1 2 -3
197 2 16.29187765297679 0.7184169586790814 5.357303470162345 -3 0 -1
58 1 16.812553833829803 0.8190754631854023 7.975673814400862 1 0 -1
421 1 5.362738261921537 2.9827111088977114 10.018528308740253 3 2 -1
256 1 0.8209117659482817 8.845419427537497 10.255846709764668 0 0 -1
78 2 10.810104715510946 10.306591859311615 9.94933218397948 -1 -2 1
819 2 17.265849640388705 6.999147890417196 10.23237096243896 -6 2 2
165 2 5.340184540593112 4.873934274701947 10.220652949521739 0 0 1
291 2 2.1220179514800663 10.134095017828274 3.897591244443547 1 0 2
595 1 7.034095057446155 0.18727870603456637 4.180899375463409 0 -1 0
735 2 8.604043189693872 8.941313742750852 10.129359622396818 1 1 1
108 2 6.401332236572409 8.874329785977581 10.216638351213545 3 2 3
245 2 8.644979129470306 0.11964156117588626 9.297700442030088 0 1 1
733 1 8.044750368445849 9.694171597786273 10.304026141494539 1 1 1
785 2 2.7339003150812458 8.690001920950198 0.11223674902159742 3 0 1
143 2 9.876830377859166 4.144644623752533 0.14228560181319275 1 0 -1
252 2 11.983383270782932 3.5649229041424295 16.16234854186535 2 2 1
152 2 3.0357064581088657 9.609925712661498 12.389750412274024 0 1 -1
466 1 14.628620314443866 3.970072918906455 11.816716959736913 -1 4 -4
492 2 4.6712938913472195 10.317654734272077 15.917416134425643 1 0 -1
389 2 20.038196310879957 9.49132345900185 11.477254403057453 2 1 -1
898 1 7.475185578064592 0.5847705701470332 14.426114063038323 -1 2 -1
895 1 6.292558875029247 2.128384527378621 18.514903536279903 -2 0 2
348 2 5.878639323260682 8.641263705377494 15.736558458211947 -2 2 -4
121 1 11.360664782794778 8.467821833288605 20.395263534921572 -1 4 -2
242 2 13.682819970076297 8.201370108052446 18.21858585948038 3 1 0
1006 1 12.506311989231248 1.0864563303941202 13.474873800065875 1 -1 1
625 1 9.388350057034167 7.249623176451995 11.099508003725964 3 1 1
500 2 1.3028301377294573 6.597513527710357 17.4554665579286 0 0 -1
194 2 15.936620164188325 1.260788753020429 15.849749780686922 0 1 1
499 1 1.548644191542642 7.05180419328462 18.258305396242527 0 0 -1
453 2 17.624223409321885 9.376448648044665 16.57632421199071 -4 0 0
927 2 1.5542613815539021 0.1849584926842438 16.84886726246567 -2 4 -1
673 1 8.838220960728048 6.2432992574742645 14.847040929127811 1 2 2
539 2 8.774652633785841 2.407867909177372 12.41638712010643 3 -2 -1
869 2 3.8583077215247306 4.215727369790142 17.866466937891094 0 1 -2
912 2 14.167780663538542 1.7513912076072997 19.387639832572276 0 1 1
545 2 9.899452030767408 5.232023005240776 12.188085929968718 -2 0 2
120 2 9.19787589790953 2.196651472308658 17.7515270093527 -1 0 -1
383 2 7.128060540306372 9.27729329788415 13.52967360318182 -1 -1 0
690 2 1.4594699398308495 9.66456662503503 14.51009122490942 0 2 -1
921 2 16.35017331878885 10.036243963976183 14.675223739937186 2 -2 -1
666 2 9.96727930005907 1.952269487487241 19.59121139531655 1 2 -1
664 1 9.897333604671495 1.2246300025580248 18.921096329742262 1 2 -1
783 2 3.838370308416054 3.1715460281728753 13.276255195221225 -3 0 0
978 2 11.779964735439407 8.984716836998885 14.142081295455574 -3 -1 1
841 1 18.53947271556594 7.5636452809402375 13.886140479090576 -4 0 -4
530 2 16.681574748219127 5.015849877028547 13.622806709118485 0 0 3
983 2 7.623117895617392 4.381369782499316 12.145906519253924 4 0 1
560 2 14.135074865340929 4.447937226166473 18.80825528378351 1 -1 1
860 2 5.9085859514109424 6.986765917835023 13.909465894275055 1 0 -1
955 1 2.2267644458303404 1.3398030986148597 17.720505932816163 -1 0 0
897 2 5.524637970627905 2.423918508935344 17.9811924675841 -2 0 2
759 2 8.70756132736988 4.616851251548064 17.81280051030307 -2 2 -1
855 2 1.972814734147979 1.6761881871408293 12.679893660539566 1 1 1
237 2 17.51580524920739 1.355866291150261 18.234349700601765 -2 -1 -6
815 2 12.380512452756467 1.3966186582469549 11.642192493501717 0 0 -3
344 2 19.783398277317005 4.059434408106034 12.51422533520907 0 2 -2
588 2 14.372715748656304 5.486896680176213 16.571064842929356 -3 0 0
412 1 2.117750654898822 6.579083438198768 14.191980774166476 1 -1 0
544 1 10.393953924253873 5.013122235356945 12.988051809211004 -2 0 2
816 2 11.139972654010183 1.7092450603409288 10.885891796959294 0 0 -3
343 1 0.137814373867726 4.415590426951517 12.863988591624654 0 2 -2
977 2 12.939866707225438 9.210487492782553 15.244907233280172 -3 -1 1
468 2 14.285486969820898 3.844690028988107 10.889143595499606 -1 4 -4
514 1 6.264522613022163 6.344167824997265 18.899487052196744 3 4 0
56 2 18.09189610539954 5.735185741238372 18.17454100605369 0 0 1
868 1 3.764291168676114 3.6301885346021865 18.633817864161934 0 1 -2
137 2 9.426153571158226 9.500398355605764 13.383278632494362 0 -2 0
441 2 4.662239652862317 2.439356881009833 15.410976159372407 2 -1 0
469 1 17.373929219682413 4.270638333640747 18.816514875364618 -5 1 -1
969 2 15.813904943660722 7.282924176063266 16.77163601612222 2 1 4
843 2 18.02786490460969 8.37691350873611 13.689218383697883 -4 0 -4
757 1 8.900093415376443 5.5383531345085055 17.883538837116934 -2 2 -1
440 2 4.564066005278084 1.0821195540006823 16.135934078317664 2 -1 0
558 2 10.072468442428546 9.100997671653252 15.554534604597986 0 1 4
175 1 10.11313671954355 2.287457283884631 14.306107719274461 -1 1 2
465 2 7.7246199093298 3.7449417085733256 16.107755031498627 0 0 -3
55 1 18.43909431466357 6.647785385588694 18.13476330692773 0 0 1
531 2 17.375358681001945 6.260791687850475 12.946211243588474 -1 0 3
235 1 17.404824243223914 1.640729679215732 19.172693966037837 -2 -1 -6
477 2 20.304425582720302 2.38931924889195 19.569771366047092 0 0 -4
781 1 4.591707596192015 3.40897616955391 13.773453850583417 -3 0 0
646 1 5.0286686216740275 0.3080388126368332 11.279010210222763 2 0 2
653 2 17.039896908441026 0.2015797471311896 11.275860961859161 1 0 -2
744 2 17.58461647257391 4.06004205835901 12.001163404537824 1 0 1
828 2 3.160079157699142 7.368913434797363 17.988654604939796 2 1 1
778 1 0.16070394067419655 9.337904448202357 18.467562136556673 1 0 -2
387 2 13.98618451373301 7.6701543535106484 13.373806125285581 2 4 -1
276 2 6.5729319603649445 3.314277460771456 19.66782001870355 0 -3 -2
726 2 13.13711357574494 10.28320380423262 17.460898198332234 0 1 -2
728 2 7.443769852474124 3.5530563524125305 13.94906519619091 -1 0 3
675 2 8.239854975497922 5.544734249686021 15.301963502724194 1 2 2
900 2 7.289093533491118 1.4575254084341576 14.008506303543882 -1 2 -1
796 1 19.49675714220846 4.140988486275403 15.355721708352407 1 1 0
896 2 6.0278121058289695 1.257401037995204 18.820747904007693 -2 0 1
919 1 16.650864098016164 9.655054182164433 13.806491042109302 2 -2 -1
529 1 16.662339158390303 5.598569794404324 12.81037396017902 -1 0 3
648 2 4.365954616955721 0.20837860981581102 10.551922802563798 2 0 2
911 2 13.159707996229539 2.8365916926190624 19.747889666279256 0 1 1
102 2 8.21744469984841 0.1280172451725894 19.25335558326322 -3 2 0
956 2 3.014117253168752 1.7370853922365446 17.358773385447176 -1 0 0
470 2 16.43036189649763 4.42837608984281 18.654217219524035 -5 1 -1
688 1 2.34365342426535 9.383138896545658 14.147316868489224 0 2 -1
929 2 2.476526062573101 0.44226161684120074 19.346292848340234 2 0 -2
872 2 11.42808444479269 5.742598910765845 16.862613981722216 1 3 1
386 2 15.286128440575462 6.6817537867205585 13.242750975912871 2 4 -1
476 2 20.206808320066855 2.3392901782499615 18.04348608104118 0 0 -4
275 2 6.292547502972794 4.8012004638123145 19.942427840452822 0 -3 -2
463 1 7.182659301040205 4.277192743860129 15.482261156384062 0 0 -3
345 2 0.7997647947314942 3.70907742693017 12.836558551401847 0 2 -2
776 2 1.0260323878823336 4.3181506906123 19.581624443023028 -2 0 -1
122 2 10.546589793193922 8.755880236385847 19.95870215282999 -1 4 -2
515 2 7.034530863733452 6.012952912703231 18.457363190484404 3 4 0
427 1 19.40549942520901 1.633015388105656 16.645421545830615 0 1 -1
163 1 4.9695228768983855 5.709408798442798 10.496505057141691 0 0 1
524 2 13.441523191380611 5.063468967355188 12.749149050821769 -2 1 -3
748 1 15.53545080279043 0.9441173752739339 11.754091424155186 0 3 2
57 2 19.273906571762282 6.673275633633921 17.609981083573633 0 0 1
520 1 8.851547046577496 8.94998209396921 18.885556847085244 -1 -4 2
307 1 15.939324581531778 8.192031036317278 10.377721784261958 1 1 0
934 1 20.133309987127447 9.876856038637815 14.750679746540825 0 0 0
859 1 6.497558891144482 7.6041506910366925 14.434022369330483 1 0 -1
758 2 9.840722467809396 5.705249257204094 17.69203216564724 -2 2 -1
493 1 20.115164847236873 6.814875799840244 11.615860340327094 2 2 0
842 2 19.246335446124853 7.486574833792643 13.241005044576747 -4 0 -4
984 2 8.187247756709494 4.391682969608813 10.6763328615747 4 0 1
610 1 4.713067629518377 5.391276896050597 16.27643163157904 -1 2 -1
540 2 9.38011579180807 1.0491680492845412 12.03501470355048 3 -2 0
8 2 12.630001751687224 7.542135948919338 10.406066513385412 0 0 -1
241 1 13.409966192159704 7.370333032897811 18.742061242852966 3 1 0
782 2 4.684190797127332 4.415524146004815 13.719388758280013 -3 0 0
471 2 17.44808405728627 3.3068414634591345 18.651221391103395 -6 1 -1
414 2 2.233373085125667 7.530881554773946 14.032832650244632 1 -1 1
429 2 19.680156189881966 2.405142177070365 16.08669427381769 0 1 -1
873 2 10.952808016061272 7.273684380306094 16.782683540145722 1 3 1
881 2 13.174345190557728 2.394695693505592 17.683526226482005 -3 2 -1
592 1 16.906193583220883 4.402364665809416 15.280430378769779 -1 2 1
571 1 20.370122843884864 6.523221157843218 16.16232023656844 0 1 2
346 1 5.716740790361704 9.286426039132909 16.491302974377103 -2 2 -4
561 2 14.282189072586533 5.959324070768456 18.42155549657422 1 -1 2
826 1 4.105489882005613 7.582119429487733 17.74988042223367 2 1 1
827 2 4.6820584090598985 7.002154677540651 18.24418887637328 2 1 1
593 2 16.609038007981795 3.456959659037039 15.464039413318897 -1 2 1
577 1 15.210968880510897 0.3105583221021851 20.023647763960053 -1 -2 0
494 2 19.37709629160279 6.583550732616491 10.945656359371107 2 2 0
451 1 18.266398703462535 10.097673054253661 16.750690346049137 -4 0 0
495 2 20.50077591600471 5.946232427123077 11.920872875167845 2 2 0
775 1 1.3524083492299162 5.031965515517786 20.10490686113402 -2 0 -1
119 2 7.699922223907852 2.4102626034042793 17.678327137185565 -1 0 -1
594 2 16.21190074018784 4.9366945932264334 15.760718135367686 -1 2 1
665 2 10.695803957706023 0.6918248221450699 18.93321577716243 1 2 -1
861 2 7.44057517103678 7.189611269879078 14.57179029686166 1 0 -1
174 2 18.132415202975963 0.22997943351664044 20.29673081192028 2 2 -1
882 2 13.450146382148029 1.7121096145218861 16.391361586844763 -3 2 -1
546 2 10.215840082671118 4.060960752365636 12.976066410130427 -2 0 2
353 2 19.261026495765304 6.826856285135207 19.79641153086802 -3 3 -1
385 1 14.906140883528796 7.58326628561063 13.031247395707107 2 4 -1
521 2 8.933811162295003 8.528769214173025 18.00055636321514 -1 -4 2
127 1 19.16452955670426 1.4779794073369876 13.410307774759366 -1 1 -1
587 2 14.469537782632909 5.816230566034188 15.046721246875078 -3 0 0
920 2 15.968733548362158 9.01582565821846 13.635322803563872 2 -2 -1
193 1 16.584121957341615 1.9735779658106933 16.132239313872702 -1 1 1
97 1 16.170277925568115 9.457828364040129 19.582856811106904 4 -4 0
750 2 15.057253204396599 1.77665142251778 11.83211673950449 0 3 2
428 2 19.99508999304134 0.915664976836484 16.4053224413551 0 1 -1
176 2 9.465272004629174 1.802472305399661 14.78826751308208 0 1 2
123 2 11.951116686687227 8.127842817856008 19.688070042456676 -1 4 -2
742 1 18.25079447326962 3.431655090428331 11.647586221747849 1 0 1
98 2 15.203028634864651 9.6284559787786 19.685121064815437 4 -4 0
501 2 1.0342930154875107 7.8441618220819285 18.1886877366484 0 0 -1
475 1 0.241555139525489 2.7518350036470625 18.772535316297265 1 0 -4
880 1 12.726282458400558 2.2201443317333975 16.848779029696235 -3 2 -1
612 2 4.13958345998105 5.503580630704064 15.497227553036742 -1 2 -1
982 1 7.986851898826851 4.966345665092361 11.438277118028575 4 0 1
779 2 19.813197684554797 9.621069019115891 18.025485623452074 0 0 -2
797 2 18.45948138417638 4.3324194031369085 15.346506210056534 1 1 0
910 1 13.94719290790788 2.7012436224559933 19.184361499140767 0 1 1
523 1 12.936970371812954 5.534635720698008 13.416904643379318 -2 1 -3
153 2 4.0975313890291325 9.311740415127197 11.18963887531523 -1 1 -1
1007 2 11.854983385834242 1.6705848131862733 13.88834987797027 1 -1 1
674 2 9.560131972303179 5.7868824782282235 14.420866107801528 1 2 2
439 1 4.439500594697482 2.047442017780145 16.24268870454203 2 -1 0
586 1 14.785939848642794 6.083213570452895 15.926511141155181 -3 0 0
142 1 9.385932739509776 3.3107300919125295 20.509006804156453 1 0 -2
236 2 16.532678897357677 1.2722054229104245 19.343211119807272 -2 -1 -6
573 2 20.052004654789737 5.651818570185619 15.807289936033811 0 1 2
516 2 6.3796821397344 7.165649679447424 19.33518408762469 3 4 0
138 2 10.132816688667708 8.465781794543917 12.582984133957417 0 -2 0
976 1 12.730610276223217 8.952636214264908 14.32193517348503 -3 -1 1
957 2 1.719288832651014 1.9127788137793407 18.301525462109748 -1 0 0
798 2 19.747714625331017 4.2517772210565665 14.441555826327793 1 1 0
151 1 3.1844394972508137 9.507991155802463 11.452929587703949 0 1 -1
129 2 18.67231238177398 2.0136202181525973 12.751273026703823 -1 1 -1
251 2 12.146870387990987 4.811609570371503 15.299108236727953 2 2 1
689 2 2.971780816245993 9.90435300459813 14.659228623018377 0 2 -1
949 1 4.470416129930347 6.149774953691478 13.17965787098167 -2 1 -1
457 1 14.435462581555614 0.6832211882240617 15.392558408426495 -1 0 0