LAMMPS data file via write_data, version 8 Apr 2021, timestep = 4439000

1008 atoms
2 atom types

0.06207518371944514 18.42132481627404 xlo xhi
0.16694150527891521 22.250258494727312 ylo yhi
0.21644675030603053 19.173735249682714 zlo zhi
-0.000585213677486513 -6.929359981822539 -0.03715594591629377 xy xz yz

Masses

1 16
2 2

Atoms # atomic

1 1 1.812726645948257 3.9604774018846705 2.531271951292914 0 0 0
2 2 2.3669054795460833 4.550232726202006 3.1232728128946903 0 0 0
3 2 1.451602495487789 3.2992773553213945 3.187562590234637 0 0 0
4 1 2.7663455911889385 5.861855207480307 4.192596235870597 0 0 0
5 2 3.6475836586991424 5.474297736309079 4.508229973825499 0 0 0
6 2 3.193568625538733 6.605610114214225 3.7628787298513897 0 0 0
10 1 0.9021611632088513 2.8687713435446165 4.835454400035812 0 0 0
11 2 1.1385008141079869 3.4617929689320444 5.617578638002893 0 0 0
12 2 -0.05931799899774708 2.7436262707655708 4.986441757419814 0 0 0
14 2 1.944126136176674 3.1629471953093304 1.0240086791685779 0 0 0
16 1 3.0296593172126327 0.7286618559010105 2.50753073811902 0 0 0
19 1 0.3005419343810638 0.8952848063451591 2.3959831698938348 0 0 0
24 2 -0.802214513646375 1.3481825734099067 6.615297661789151 0 0 0
28 1 1.2108468879908345 2.313197300873463 8.775013195750878 0 0 0
30 2 0.7967295995506685 1.7616867017627904 8.081834125861185 0 0 0
31 1 0.26466564451957186 6.762649991652138 5.232047759316665 0 0 0
32 2 1.2499882891409255 6.367917812591422 5.056483005622986 0 0 0
33 2 0.13367156767080984 7.298496831357673 4.405690884491882 0 0 0
36 2 -0.6475858534182792 6.8581821346449905 8.960356692335157 0 0 0
37 1 -1.6436940779292244 4.71983066743687 7.1924335620640765 0 0 0
38 2 -0.675427102622706 4.885072980312582 7.1778589573263725 0 0 0
39 2 -1.8410355266387108 4.228163066014267 8.097744614421078 0 0 0
40 1 1.065409102759717 4.3056942632079975 7.097963373272004 0 0 0
41 2 1.6750256631822051 5.0766647646243905 7.198447109131453 0 0 0
42 2 1.3126026709942173 3.6923679749161717 7.822701824903565 0 0 0
43 1 4.27138252132923 3.609858915790356 7.530622240585021 0 0 0
44 2 4.726731381502926 3.968350587334247 6.741390298689418 0 0 0
45 2 3.7785444567306676 2.8672154788365707 7.22706220429339 0 0 0
46 1 3.0131689342553716 1.5443561725585342 6.09930113767767 0 0 0
48 2 2.1316288041731384 1.7880869770187087 5.742828806812355 0 0 0
49 1 5.719085576574606 1.4096706734329578 8.925962965293639 0 0 0
50 2 5.208760013365722 2.1053729420580463 8.472688306350369 0 0 0
52 1 5.066626539969906 4.475036185488359 4.97222833610853 0 0 0
53 2 5.9468931393730315 4.783098028923899 4.769091322660218 0 0 0
54 2 4.950083019318782 3.7283891813146504 4.348736951396899 0 0 0
57 2 4.127552527023427 4.215341683504734 9.25435910669821 0 0 0
58 1 2.6926730311177502 6.707913619659591 7.592677460314936 0 0 0
59 2 3.6515009745920075 6.678922007643593 7.40773558008445 0 0 0
60 2 2.59327622507931 6.854642291523536 8.520792689149191 0 0 0
61 1 5.344221312843767 6.55200733949707 7.568713032012752 0 0 0
62 2 5.599504693414023 7.397450567369394 8.00747769518023 0 0 0
63 2 6.125362381256068 5.986564521822563 7.682148584782595 0 0 0
64 1 5.611901925191024 6.860177939169342 2.765958635230186 0 0 0
65 2 6.036417885005 6.154448744343449 3.2825850973859225 0 0 0
66 2 5.206669141422806 7.471456415203249 3.444423464416188 0 0 0
67 1 7.512627171104756 5.423858811758187 4.206228529960423 0 0 0
68 2 7.808306952119295 4.648515507443337 3.5977987712555333 0 0 0
69 2 8.371945564372604 5.920161751612975 4.46426279962568 0 0 0
70 1 4.735831335865458 4.954341321209868 0.8930030908202681 0 0 0
71 2 4.797171975935228 5.7565171341077175 1.5443265156597716 0 0 0
75 2 4.405060632559659 0.9379121736983003 5.138827326941528 0 0 0
79 1 7.6140311020112925 3.1636621732942927 2.6569755462624536 0 0 0
80 2 7.449224110207787 3.5690898470399204 1.7249166923882806 0 0 0
81 2 6.729525322745309 2.811464361357179 2.845791453155411 0 0 0
82 1 5.045694110777038 2.6445429766933195 2.6022585421559086 0 0 0
83 2 4.639556984095455 3.351673332300669 2.090221891663382 0 0 0
84 2 4.37358749999014 1.9149729120095789 2.5288294501805773 0 0 0
91 1 9.106222134520912 6.069468852738348 1.1911268275597215 0 0 0
104 2 8.767817141474392 1.9853187454767034 2.6092356226878084 0 0 0
109 1 7.34931087015932 2.496965745966737 6.0171491228622624 0 0 0
110 2 6.453462093225566 2.2813353015265587 5.662312858704917 0 0 0
111 2 7.31950451810584 3.3893774264202974 6.3925717347007325 0 0 0
121 1 7.555467182721898 4.765777831371563 7.464954658812011 0 0 0
123 2 7.613772539714669 4.408436703183405 8.38878115287223 0 0 0
153 2 -0.7795070766236445 5.684589151209388 4.520511394803129 0 0 0
180 2 -0.05307073401114485 10.434504730868586 5.1979905855764414 0 0 0
184 1 3.1322376466037833 8.191649602244873 2.464052767705305 0 0 0
185 2 2.909563183166154 7.536765593834449 1.7411567673889299 0 0 0
186 2 2.260190420214111 8.610293029004577 2.6394694159859466 0 0 0
187 1 0.20452917734443635 8.192629040746683 2.9216855852674515 0 0 0
189 2 -0.033888191034360644 7.587015341290247 2.1792489685227983 0 0 0
190 1 -0.46616278834168484 8.027811205157294 7.554624922964047 0 0 0
191 2 -0.09255307927057105 7.655283563403379 6.725437636229426 0 0 0
192 2 -1.10904530723334 8.711585575767902 7.22451658018173 0 0 0
198 2 0.5888539316252694 9.002223020586872 8.37075386639557 0 0 0
214 1 2.644972579971 8.841324301222269 5.826172180179972 0 0 0
215 2 2.450111264710294 8.23708176946259 6.575019086784664 0 0 0
216 2 1.8086859788980525 9.217122603590578 5.522435437848559 0 0 0
217 1 5.43947410583469 8.982864563608905 8.528690820638616 0 0 0
218 2 4.920540958893172 9.630585011023994 8.000875834894577 0 0 0
241 1 5.004952916481506 7.750770496081062 5.160171965308164 0 0 0
242 2 5.23675430323178 7.090134743063709 5.817691589540159 0 0 0
243 2 4.135980329906868 8.112273970853312 5.387579913656215 0 0 0
245 2 6.3336132413469395 8.155170396981923 1.5010385689081298 0 0 0
247 1 7.691379809755807 10.587603677962749 2.549898765777157 0 0 0
249 2 6.730116318887666 10.386026348382268 2.659177287354969 0 0 0
252 2 4.36746150983286 9.430937309325298 2.3917863702329702 0 0 0
272 2 8.692574442407807 8.95612114715476 2.6429195088879824 0 0 0
273 2 9.413622501423584 7.716103056216188 1.941001419970824 0 0 0
277 1 7.378818289479991 9.219085646958105 5.570628277475393 0 0 0
278 2 6.622889133541707 8.830101646914876 5.132012302215187 0 0 0
271 1 9.485084365618512 8.324291698737627 2.6913906122384192 0 0 0
213 2 3.4069217240373466 10.26937157846629 6.568541424513181 0 0 0
93 2 9.459833391001322 5.5956856041098995 1.9530186701312142 0 0 0
196 1 1.029226492473211 9.7303486268668 8.918607619407828 0 0 0
9 2 0.6033750087989284 5.133801680807623 1.62034173073871 0 0 0
18 2 2.1512634635464964 0.9001734558175938 2.8186068246273095 0 0 0
108 2 8.07676177704414 1.274883841123644 6.852297059057872 0 0 0
276 2 8.19610118173721 8.219517540452875 6.925762882451075 0 0 0
103 1 9.374065436847594 1.1905947226464593 2.76597974755276 0 0 0
96 2 8.952392579214589 2.7413818418281193 4.573236742555262 0 0 0
122 2 8.449506158464489 5.105067352370316 7.2475901339501565 0 0 0
117 2 9.756349148595032 7.266201613148859 4.0250366785135565 0 0 0
98 2 10.907981471942508 3.2559246328872753 1.0873041834943258 0 0 0
87 2 10.582857526985789 3.868021744527555 3.3500660803411644 0 0 0
120 2 8.756310743633604 7.0726581082207165 8.82743408958155 0 0 0
178 1 0.8625131563221442 10.676831083069839 4.92850818785233 0 0 0
73 1 5.338434382502237 0.6860049365773657 4.932486327271442 0 0 0
94 1 9.813198284003791 3.183725175583826 4.721287122030199 0 0 0
85 1 10.958611395858021 4.392008621212243 2.6368273940872635 0 0 0
279 2 6.991603821958492 9.846700486466279 6.25731002421718 0 0 0
250 1 4.91942604902573 10.251027084415888 2.538003923657124 0 0 0
47 2 2.8439329989595636 0.7115621166900126 6.647100585003629 0 0 0
264 2 8.781463159616424 10.032795771162073 4.976032628804895 0 0 0
7 1 0.15512871196122063 5.865438956942391 1.161343254816748 0 0 0
20 2 -0.35662695270487366 1.5936216698452208 2.271303245960055 0 0 0
274 1 8.945668930823608 7.776355238217728 7.3795794209857934 0 0 0
115 1 9.784016068461973 6.609112227762515 4.778163207501579 0 0 0
275 2 9.365810919389597 7.216296388599012 6.679238511789919 0 0 0
95 2 9.714145007929648 3.7180572651586705 5.5412267308722605 0 0 0
270 2 11.478934941025964 8.553161120163114 2.7780424947901676 0 0 0
116 2 10.580413526372402 6.102754449483487 4.648133774554915 0 0 0
102 2 11.080538920738045 1.1981133732050704 2.5815929806847446 0 0 0
86 2 11.70212851962794 4.772939585078646 3.0626624664433484 0 0 0
124 1 10.276024669212232 4.41279647756741 7.121225304640262 0 0 0
282 2 9.951841606802532 9.213083200522366 8.071435393076388 0 0 0
114 2 9.992453427695892 1.9184084728876871 8.189728741637445 0 0 0
269 2 12.340962367442856 8.00926173925626 1.6131017056432713 0 0 0
132 2 10.96669267176384 2.215327866488691 5.277928126254749 0 0 0
100 1 12.041982135270375 0.8245393429223151 2.3974519236826195 0 0 0
126 2 10.210805058342402 3.873667028787402 7.924880232042756 0 0 0
268 1 12.377565213104512 8.402449325541225 2.53566945304246 0 0 0
125 2 10.890765753203258 5.14988066226199 7.331987354405359 0 0 0
300 2 11.120746050203618 9.535037930781845 5.419382058447177 0 0 0
112 1 10.058589968231061 2.4861700396228685 8.98757300884331 0 0 0
280 1 10.109228416820763 9.95336253958368 8.657554401796258 0 0 0
262 1 9.650857862900656 10.402530174536738 4.9249034690055336 0 0 0
188 2 -0.4774747929472272 8.950958555743508 2.919174877523377 0 0 0
88 1 12.50247119600435 6.023813417272183 3.9677696384179475 0 0 0
90 2 12.751861570394498 6.848951393745141 3.542587199804435 0 0 0
130 1 11.792964449177154 1.839320264499942 5.742935870822212 0 0 0
299 2 11.826695509860674 8.409043153436382 6.087480629918915 0 0 0
298 1 12.030381177953974 9.157003187401324 5.5639399802124165 0 0 0
131 2 11.55374914666205 1.0731078450997782 6.228860222108001 0 0 0
336 2 13.481130842010092 9.877919830765677 2.5165885092147033 0 0 0
168 2 13.108151987035637 2.22801547120624 2.4767592829331346 0 0 0
99 2 11.885210931692214 2.4295159898260197 0.2366674316406577 0 0 1
113 2 10.840226000754338 2.148534264760684 9.427034067863925 0 0 0
25 1 -1.6892870206493122 2.6165356960951454 5.757176714108073 0 0 0
160 1 15.675717052244245 0.8235832975357191 0.28429891090789405 0 0 0
666 2 13.13786943170557 1.1977771892187683 9.558008709088949 0 0 0
211 1 4.035589470736161 10.849824587687456 7.063685869675606 0 0 0
332 2 16.892688392741036 10.900410074558813 1.6353203347782408 0 0 0
164 2 16.771999012443903 3.3743292878707107 1.3439658614751309 0 0 0
193 1 -1.5698821189250642 10.02175639552916 6.0645886762503 0 0 0
17 2 2.887674404057397 0.3276543250301393 1.6629794616780573 0 0 0
303 2 -2.7784441856800197 9.442962505014528 9.033294626810482 0 0 0
329 2 15.71652623053643 7.51122761600954 1.0942262609355191 0 0 0
158 2 14.498111860276984 0.36791844923198896 5.60790993458496 0 0 0
106 1 8.767604643598421 0.6235923064863831 7.205934125663705 0 0 0
22 1 -0.408439024825396 0.6229268630439115 7.177235052209819 0 0 0
325 1 14.880781855988705 8.37534952060102 4.674277498459213 0 0 0
27 2 -1.7433123259499668 3.528284418393264 6.204041191781026 0 0 0
664 1 12.185372808050387 0.981528054972234 9.63878511706876 0 0 0
266 2 10.938766198720916 10.853115000332897 0.9445474389698153 0 0 0
51 2 6.490393886036035 1.9863602316367095 9.154917524971612 0 0 0
559 1 7.226703941815079 4.380089637830158 0.21908810791062816 0 0 1
135 2 -2.6601676694941805 2.1243844807587737 9.11351802009302 0 0 0
154 1 13.978828626581846 5.045584201866394 1.0438885979681434 0 0 0
142 1 11.775231688552116 6.661640416418587 7.414344370145731 0 0 0
195 2 -1.8663023589427277 10.636728280582535 6.735619897846973 0 0 0
89 2 13.325566907225289 5.6134962717686925 4.3017214301709705 0 0 0
167 2 13.700635226026504 3.610056869105216 1.963839325154992 0 0 0
144 2 12.007752905586521 7.1459976860803325 8.2156427718541 0 0 0
155 2 14.373711527803147 5.679605168537848 1.6656219648039148 0 0 0
334 1 14.14247836714284 10.547601475247214 2.638534974552832 0 0 0
166 1 13.893411374050682 2.869300263033501 2.5634331733605564 0 0 0
159 2 13.435106749848153 1.4081169557540492 5.084984426882082 0 0 0
129 2 12.761580814684509 2.9072468582590902 6.7436419011741 0 0 0
143 2 12.579616732138016 6.253735580079522 7.1047444313063215 0 0 0
297 2 12.888653791982994 10.355026422037886 6.403668196690853 0 0 0
327 2 13.960599836511161 8.68441878527257 4.6246892861939415 0 0 0
219 2 6.249892742188808 9.439098420769398 8.821758932783105 0 0 0
72 2 4.070877615995004 5.305658450965457 0.3062584103736606 0 0 0
281 2 10.818272819288925 9.651042775732767 9.284917490332306 0 0 0
263 2 9.75067389266439 11.139660760391783 5.6055806903563 0 0 0
519 2 -0.2789214548640021 3.1102483452046483 9.605305757835984 0 0 0
182 2 1.7734546979488837 11.037976143280911 1.2070932449730147 0 0 0
97 1 10.92045127387586 2.694786962955112 0.3075783397897179 0 0 0
77 2 6.32423038005371 0.3611999710458015 1.4061787145772406 0 0 0
482 2 14.651829811152545 0.22711708423839483 7.756766528206743 0 1 0
29 2 1.9779452454397388 1.8240806437085375 9.196190345023394 0 0 0
603 2 8.51588035239115 2.769211422072883 9.639151523049575 0 0 0
148 1 15.448378538199378 6.71667177969837 2.525525220306843 0 0 0
92 2 8.460659708069901 5.507289713918803 0.7606090027234897 0 0 0
152 2 -1.0653225812362692 4.398006867241735 3.502692388231706 1 0 0
101 2 11.86436614918901 0.2656988693001112 1.645871621318555 0 0 0
26 2 15.782589728664346 2.3440994749184063 5.355838737621683 0 0 0
560 2 6.317221552323657 4.670377877013949 0.3816035866042685 0 0 0
248 2 7.672901897660823 11.129568676082993 1.7056045602534768 0 0 0
136 1 14.404812276242954 4.404305214472926 4.799487692633937 0 0 0
127 1 13.363323208545802 3.4805261514318726 7.250877805787027 0 0 0
453 2 9.725577435117316 0.17168404339005758 4.0250109649425 0 1 0
622 1 11.839593438963636 6.794093587484498 0.4459971673774805 0 0 1
156 2 13.17082193127423 5.474785775992713 0.7918412820472022 0 0 0
197 2 1.762965867367697 9.302719857499007 9.402400612866096 0 0 0
146 2 14.901192690558933 7.28341241614988 7.454891785551906 0 0 0
76 1 6.342080884826932 0.7232580715876342 0.48311572980479306 0 0 0
157 1 14.381834920092588 1.1512310786312916 5.047373605463264 0 0 0
141 2 13.186153953315294 4.187962992911105 8.836753958238392 0 0 0
333 2 15.975715002316322 10.180399191819536 2.5221025821499166 0 0 0
78 2 7.297638631528586 1.0276957003808742 0.31476055048236956 0 0 1
161 2 15.531818347214053 0.6175274877804411 1.2460563337238915 0 0 0
145 1 14.97423860720788 6.66436358870935 6.659881671188062 0 0 0
138 2 14.187419788001053 3.6604230250853553 4.130134180647204 0 0 0
244 1 6.3846482531492335 8.289509429923271 0.5444108016141178 0 0 0
149 2 16.00704364336498 6.137911921393603 3.1639141684724272 0 0 0
137 2 15.357877772806408 4.651525743784577 4.743271781924099 0 0 0
128 2 13.919535841368189 4.006686312407315 6.680023252107758 0 0 0
165 2 15.855565061855621 2.877614137539026 2.3999592335786617 0 0 0
150 2 15.139825454956826 7.414702018450671 3.160815882071861 0 0 0
302 2 14.408339725343357 9.675364296521385 7.993366720950635 0 0 0
134 2 14.258074161166011 2.325961738780383 8.361080953646484 0 0 0
326 2 15.030003620795934 7.791253665802555 5.467936271773022 0 0 0
771 2 8.570961182220886 10.050438611869017 9.422785146325545 0 0 0
163 1 16.840154568659063 3.030918349267623 2.243630252852858 0 0 0
181 1 1.8922602415245573 10.644197078497466 0.2875138187976903 0 0 0
750 2 4.133534148955413 8.48500254603116 9.394294434194867 0 0 0
486 2 14.798125311429239 0.3429831809995697 3.4489900839781256 0 0 0
328 1 15.948317472932745 8.15149039531055 0.31503299512411276 0 0 0
246 2 7.261802899476815 8.615208853719489 0.3528365245070664 0 0 1
295 1 13.4348612523974 10.935975511176197 7.013781651465131 0 0 0
105 2 8.992373767415028 0.4801185076713925 2.1547504657742977 0 0 0
539 2 1.7359019905921214 6.331036667812337 0.2933654888268675 0 0 0
251 2 4.668696443523271 10.94122426619068 1.9106235903702695 0 0 0
834 2 13.19924532968547 8.628923092432359 9.408947043995315 0 0 0
832 1 12.278714549179174 8.445967162187081 9.618428236020016 0 0 0
623 2 11.096263918995973 6.253982531569083 0.6885296078008208 0 0 0
222 2 4.730809489664863 11.131912457523912 4.187637040495963 0 0 0
162 2 16.592464151218508 0.9995200481704178 0.22243078282783274 0 0 1
769 1 7.629194719593102 10.125662798171469 9.689094290971878 0 0 0
194 2 15.975801982320263 10.063105460405474 5.522009926200576 0 0 0
147 2 15.765396555023695 6.108873431753244 6.796520612483247 0 0 0
151 1 16.97633565638534 5.065122302727437 4.071651322293828 0 0 0
8 2 17.753686848253533 5.469506662456306 0.6919300237300572 0 0 0
133 1 14.824980067019377 1.7225520162954686 8.857903217371543 0 0 0
331 1 16.908323310344784 10.416366048821363 2.461862764289987 0 0 0
301 1 14.814996834399066 9.008876006852203 8.526432578765574 0 0 0
685 1 -1.7347861284902792 10.470247739602014 9.73519466753301 0 0 0
805 1 11.33663917166528 8.919197484663705 18.2074796652736 0 0 0
770 2 7.712803485737574 10.537190963101695 10.561715388573932 0 0 0
520 1 -0.26420260736162365 0.9153890719361166 11.863220180704083 0 0 0
551 2 -0.9663483595679814 0.5401190169465047 16.00200870453457 0 0 0
618 2 6.437292840815332 1.4775445395435418 17.814630308832097 0 0 0
831 2 10.260357406413695 8.801652372662623 14.737270250659522 0 0 0
766 1 6.5905614861368536 10.813334039419988 14.642456972083865 0 0 0
517 1 -1.2857770791436816 3.19038199101318 9.7186134356208 0 0 0
555 2 2.4905440683939806 1.8951824227167962 18.994178846843177 0 0 0
139 1 13.139477793270277 4.610956156369631 9.735544102249534 0 0 0
990 2 11.279874672543539 0.44863411532832836 12.858624824635905 0 0 0
785 2 7.553242693415246 9.287366958095049 18.803369347026177 0 0 0
780 2 4.4625998327163074 8.589538258005112 16.411586043108862 0 0 0
597 2 6.415246802305038 5.45401707420814 11.029426139987734 0 0 0
581 2 2.777480172989971 0.43817743659057845 10.961205104169478 0 0 0
577 1 1.6328290959419747 0.4841021033394895 14.734053944910894 0 0 0
717 2 0.15369743436487257 10.45350636739367 16.43955293211103 0 0 0
683 2 -2.6739212112460424 11.101678061057479 15.454469275842275 0 0 0
802 1 8.563328372703966 8.997791731788173 15.602524382582258 0 0 0
702 2 -2.91400087528174 9.0823871299151 17.87888154655483 0 0 0
538 1 -4.226282906658453 6.584227147149995 19.17309115954147 0 0 0
609 2 6.019215259457137 0.23256025758033225 11.515436084521586 0 0 0
806 2 10.805428706348016 9.566284084812223 17.653017406880945 0 0 0
265 1 4.256265899425826 10.420203431445708 19.09031255064867 0 0 -1
601 1 7.678243789585121 3.2408392823264354 9.828979185558456 0 0 0
715 1 0.7898242358451041 11.102347370063802 16.86352049369734 0 0 0
836 2 13.570303828814339 10.897968730096059 11.023392549765678 0 0 0
804 2 7.695140718540317 9.493371027865745 15.322974564209876 0 0 0
505 1 -1.77414746055902 4.190152212123929 12.293586292557556 0 0 0
506 2 -1.1589961275260932 4.892950967565213 12.726240263691656 0 0 0
507 2 -2.1912418978593386 3.6610551175076 13.049274524470226 0 0 0
508 1 -0.4993083435887072 6.156822828405788 13.466995844545389 0 0 0
509 2 0.32982069322123364 5.917373901458908 13.90013901147124 0 0 0
510 2 -0.3459412695499621 6.998103966392893 12.986149922087161 0 0 0
511 1 -3.4223401536111604 6.049599614266072 11.01704142086991 0 0 0
801 2 9.239126305376505 10.180758459764268 16.327397545492193 0 0 0
513 2 -3.0147500393164046 5.327182815911155 11.5995748577401 0 0 0
514 1 -2.7580112756694204 3.0466510428852094 14.545724522947946 0 0 0
515 2 -2.5424553718107994 3.410623843697108 15.47148012708733 0 0 0
516 2 -3.7446330159506025 2.8121850941166433 14.610396191926194 0 0 0
779 2 5.650014550540762 7.582754639633833 16.082509950359878 0 0 0
518 2 -1.4443620937215076 3.4270617085761184 10.668490899231863 0 0 0
701 2 -1.6904448200687079 9.263950899650775 18.84390840457067 0 0 0
605 2 8.822741073948226 0.886403393137583 10.981180883510591 0 0 0
522 2 -1.208999831371586 0.9706539375732235 11.824993299714722 0 0 0
799 1 9.973976057507299 10.783197478051793 16.76190145442952 0 0 0
524 2 -3.551091551284891 1.649749495210733 11.984439812490827 0 0 0
829 1 10.933723937733246 8.225338137294903 14.275902612328583 0 0 0
748 1 3.227593648585171 8.292285491908428 9.75306196989522 0 0 0
529 1 -5.235381447420716 2.367895741310221 15.220320880723 0 0 0
530 2 12.231349798722094 2.0550991179342035 14.900434721529882 0 0 0
531 2 -5.281992071473033 3.242159800107199 15.633876230988623 0 0 0
532 1 -2.366899421444129 2.4093714795504244 18.536046889867507 0 0 0
525 2 -3.0247580039162356 0.1923058512043485 11.379259506599995 0 0 0
534 2 -2.4286964489535805 1.7729038710528884 17.793476302978966 0 0 0
535 1 -3.0566629441535498 6.698176489772092 14.551210669268773 0 0 0
536 2 -2.1222559394052705 6.506080151923894 14.509904179435908 0 0 0
537 2 -3.2276908376254525 7.371133338422789 13.861020172874364 0 0 0
330 2 9.947027324602567 8.246108114043984 19.111865238861363 0 0 0
637 1 11.257987814342119 1.5081459860815734 18.230975123331163 0 0 0
540 2 -4.314062952965568 7.178310573608166 18.40598126734941 0 0 0
541 1 -5.252356812392181 4.4711641158506605 16.966408128251764 0 0 0
542 2 -4.32596183403233 4.684118296131606 16.91303954479941 0 0 0
543 2 -5.332449652410323 3.948609551107996 17.82146463672092 0 0 0
544 1 -2.49376647479524 4.488121723101144 16.931803995958845 0 0 0
545 2 -1.9521415002569862 5.3539658895526925 17.06493656235526 0 0 0
546 2 -2.395824315973925 3.8470709248974866 17.660782500947704 0 0 0
547 1 0.7199802505002049 3.1874738162768566 16.733480036962373 0 0 0
548 2 0.9558584295389813 3.810360345677288 16.0230108998933 0 0 0
549 2 -0.09311295626518967 2.670912449368943 16.38893179321689 0 0 0
550 1 -0.8137623694555861 1.3849164636167444 15.57231039373127 0 0 0
782 2 3.2344375942818964 9.537912060154438 14.640288174590152 0 0 0
552 2 -1.63429573110708 1.6437406990408505 15.031420972940365 0 0 0
553 1 1.766060030254132 1.423313131541314 18.543507577745384 0 0 0
661 1 10.979849782463733 1.0621680573676262 14.39829280081725 0 0 0
682 1 -2.789636589394669 10.501464073329995 14.647228168539987 0 0 0
556 1 1.5395689913407926 4.816557063488249 14.480396937923372 0 0 0
557 2 2.5032394976573844 5.073232470878065 14.56660813660834 0 0 0
558 2 1.5623492896238256 4.068118765373779 13.817788203851219 0 0 0
561 2 0.38201471220973254 3.896225787830777 18.29387669339524 0 0 0
562 1 -0.9642849319913434 6.745170434712532 17.295928749879057 0 0 0
563 2 -0.05752081409204866 6.5001986326636905 17.04378896012275 0 0 0
564 2 -0.8514160898805707 7.192982860365815 18.14200447428388 0 0 0
565 1 1.9188845168420443 6.650236827287885 16.984641778961088 0 0 0
566 2 2.2719038551420483 7.396701434372873 17.510199102526663 0 0 0
567 2 2.600910377491551 5.959085333212495 17.198136520156094 0 0 0
568 1 2.871746259168141 7.083910240229009 12.285473257640886 0 0 0
569 2 3.422593063607917 6.410967697930242 12.81630798110769 0 0 0
570 2 2.5008600525437363 7.601051464864169 13.04321199437713 0 0 0
571 1 4.230244290103781 5.326304584461202 13.647240402002287 0 0 0
572 2 4.48011174434311 4.455970387600407 13.218731784727314 0 0 0
573 2 5.147084096264788 5.645082128622242 14.031198371295456 0 0 0
574 1 1.5688896727125274 5.417323228196134 10.74098447288319 0 0 0
575 2 1.9039076506301869 6.063824048518694 11.359589721025673 0 0 0
56 2 3.1432735879841043 4.835123042000353 10.096333768583253 0 0 0
140 2 12.224100892930634 4.821503174460822 9.924420633035085 0 0 0
699 2 12.668147615851947 10.385935919269082 15.853088979851167 -1 0 0
579 2 0.773155408680413 0.8559333839749479 14.98432007386506 0 0 0
610 1 5.088659572439983 0.1640660082715061 16.62104254116991 0 0 0
583 1 4.360538242071202 2.7928079229215577 12.119796038488662 0 0 0
584 2 4.34661631446702 3.435979406206157 11.330136323484727 0 0 0
585 2 3.417453004763561 2.57779913894031 12.333387591436013 0 0 0
586 1 1.6631046128812268 2.871505100089384 12.431550923060195 0 0 0
587 2 1.6003530442049154 3.617181203020477 11.793670641842397 0 0 0
588 2 0.8932787217391365 2.299128331043092 12.164969907892733 0 0 0
589 1 6.933485023594886 4.279185064847114 12.109123512111841 0 0 0
590 2 7.604451991044033 4.708949026504256 12.656162805335512 0 0 0
591 2 6.410088631946257 3.625234247288653 12.665858060771727 0 0 0
592 1 8.747208961274355 6.075401680076765 13.54110924172815 0 0 0
593 2 9.40580072303446 5.68550752808554 14.12977175053435 0 0 0
594 2 9.196118122327583 6.723332973117192 12.971037202719565 0 0 0
595 1 6.309939002232096 6.065562475055469 10.277610565237115 0 0 0
635 2 8.27020617138154 0.6687007169570294 15.935124365904553 0 0 0
521 2 -0.1410230511391774 0.5477972769825602 10.96999780575581 0 0 0
598 1 6.228840433429224 2.8907509247626333 14.507027476224646 0 0 0
599 2 6.315897674170771 3.4195851741268175 15.338590517540402 0 0 0
600 2 5.366864085023706 2.518731781459167 14.764003794834377 0 0 0
752 2 4.419734301937912 10.689653486444533 11.21513322779152 0 0 0
602 2 7.4534162814964695 3.483037516170145 10.768473645830786 0 0 0
604 1 8.752955658473658 1.314746115262995 11.831886328115184 0 0 0
639 2 -6.306374216533735 1.7630769166767906 18.788202701484042 0 0 0
606 2 7.7508139421172615 1.3593360535273402 12.057036857478893 0 0 0
660 2 10.05970826834153 5.685084973923393 10.24645629069326 0 0 0
608 2 5.510251590311752 1.6357657430553458 12.093383286767368 0 0 0
624 2 4.782009862019751 7.088915533677436 18.500243777567608 0 0 0
830 2 11.266920043812853 7.69920206131548 15.053437726236274 0 0 0
612 2 4.448881854981153 0.7654108278254019 16.212350268815168 0 0 0
613 1 3.604595536512596 2.02268835368876 15.468902089791136 0 0 0
614 2 2.7477352300018003 1.6792335793137727 15.027106548077354 0 0 0
615 2 3.435658819536548 2.759609955985993 16.06869955844127 0 0 0
616 1 6.5196844258838045 2.1526079310357304 18.56597414649259 0 0 0
803 2 8.250772005654893 8.209834660716869 16.13704982474298 0 0 0
34 1 -0.7761828162690546 6.552645986858053 9.911675031570175 0 0 0
619 1 6.311067843530722 6.866498902477572 14.564777304257905 0 0 0
620 2 7.309383143430552 6.772981974915119 14.554812923572678 0 0 0
621 2 6.1855050577053845 7.427848555376557 13.80175613492355 0 0 0
55 1 4.0514036264764135 4.495783086081187 10.21493455735869 0 0 0
625 1 3.594332400448789 4.423772854487309 17.182755004299572 0 0 0
626 2 4.516446407838993 4.698965733137896 16.926887121347004 0 0 0
627 2 3.7760174478300144 3.821736483560712 17.92978804166376 0 0 0
628 1 6.461832394140727 4.401119762902541 17.077543727374227 0 0 0
629 2 6.987185611227886 5.209097451880055 17.163779394730298 0 0 0
630 2 6.945834926601735 3.8139664608100126 17.736876383637078 0 0 0
631 1 9.960330264974115 3.461040917609692 16.59040709091497 0 0 0
632 2 10.408075307236194 3.8054727694725106 15.74599347027473 0 0 0
633 2 9.41774623751341 2.7097942018509023 16.224309249322115 0 0 0
634 1 8.385525486975162 1.4773069356189972 15.387292607199758 0 0 0
523 1 -2.897547414708514 0.8901550659105228 12.079731173955347 0 0 0
636 2 7.50198765819891 1.8005753257408874 15.048498648676938 0 0 0
675 2 -2.370445501950858 11.039697561521729 12.875606601257088 0 0 0
638 2 10.97769771658186 2.334585450311379 17.77208561771219 0 0 0
35 2 -1.743133952209894 6.27718861763238 9.988829854510755 0 0 0
640 1 10.844341783730442 4.3417589222132875 14.392150920301432 0 0 0
641 2 11.652929750182576 4.851784253655641 14.294488704547994 0 0 0
642 2 10.711256451255888 3.8018783454185416 13.574050556970523 0 0 0
645 2 9.490243864095406 4.326617086283165 18.015697702060752 0 0 0
646 1 8.50674044255448 6.528702579653202 17.13353382982486 0 0 0
647 2 9.379656225888256 6.185437707206147 16.954516297393436 0 0 0
648 2 8.674663025068739 7.091040806130464 17.936803778511052 0 0 0
649 1 11.313149675123634 6.440486244033568 16.506350115042395 0 0 0
650 2 11.537783642149893 7.102048038578208 17.132599710144 0 0 0
651 2 12.029426029594037 5.783777593238814 16.538587516262137 0 0 0
652 1 12.227095381137463 7.209572780701936 12.134896472661111 0 0 0
653 2 12.78536202739023 6.664685777304425 12.72714544343626 0 0 0
654 2 11.735464108487978 7.695412835165038 12.805763215057782 0 0 0
655 1 13.354396937314348 5.193255250762108 13.606684258014981 0 0 0
656 2 13.420334359463181 4.401285154078064 12.969262614795303 0 0 0
657 2 -4.136632046510011 5.475719851749921 13.962609092753668 0 0 0
658 1 10.892632506305151 5.277037475425318 10.722879114124245 0 0 0
659 2 11.352024849082099 6.019231818497208 11.224309103549272 0 0 0
528 2 -4.439183801466906 1.2890338754889918 16.365258172456368 0 0 0
580 1 2.953293108279261 0.78859693352563 10.022066160337735 0 0 0
838 1 10.758070156574096 10.582446220713488 12.147047357570164 0 0 0
663 2 10.01637880799402 1.3189713632797149 14.493311417208943 0 0 0
835 1 13.588203667773815 10.463640395120457 11.878532686788414 0 0 0
667 1 13.629227827848492 3.0570992333598492 12.010175886174679 0 0 0
668 2 13.517174317309676 3.2969286798795583 11.080304585104546 0 0 0
669 2 12.831770621518473 2.590018263317978 12.287572874029511 0 0 0
670 1 10.800875854501344 3.0064824207477736 12.109770006112326 0 0 0
671 2 10.724967078949566 3.864091779392097 11.586144776925712 0 0 0
672 2 9.994817516587572 2.447623503392027 11.939209283872383 0 0 0
665 2 12.026582158719894 0.6745051269416282 10.558513788856903 0 0 0
837 2 12.655331639169917 10.242575884688417 12.094916423987648 0 0 0
684 2 -3.7204048672079786 10.202872400836904 14.7591902384902 0 0 0
688 1 -0.4431359071643665 8.436739517121168 11.992618133436237 0 0 0
689 2 -0.2665739167746103 7.89024188798836 11.215455282979859 0 0 0
690 2 -1.4682566872679734 8.484811403329438 12.079762378113346 0 0 0
691 1 -3.072191245885526 8.298298408257153 12.186618867765933 0 0 0
692 2 -3.714300852677261 8.98341379422065 11.868803742011936 0 0 0
693 2 -3.2826093614118657 7.404760579088153 11.785157422440115 0 0 0
694 1 -3.872779064007103 8.009480512556348 16.97389576724041 0 0 0
695 2 -3.4444414153935554 7.556507541358772 16.21584375572551 0 0 0