LAMMPS data file via write_data, version 15 Apr 2020, timestep = 1151000

1920 atoms
2 atom types

8.9814217114104977e-02 2.4634590782892303e+01 xlo xhi
-1.4767544126147669e-02 2.4739172544126902e+01 ylo yhi
2.4820251340992527e-02 2.2767551748667394e+01 zlo zhi
2.6589979576630961e-03 2.3772229881162807e-01 -1.4258540407949424e-01 xy xz yz

Masses

1 16
2 2

Atoms # atomic

1 1 4.4956335519490986e+00 1.4470176107819963e+00 4.4379367750464471e+00 0 0 0
2 2 5.2792470352046852e+00 1.5352982970544171e+00 3.8940610405022857e+00 0 0 0
3 2 4.5114283998844957e+00 5.1818079976437104e-01 4.9227247728365082e+00 0 0 0
4 1 3.2432240164786865e+00 1.3675691530610941e+00 2.1695633003140506e+00 0 0 0
1136 2 1.0560364933255652e+01 1.2195744339418704e+01 1.2393280743775129e+01 0 0 0
6 2 3.5715602828121154e+00 1.2417660630773328e+00 3.0904873198310350e+00 0 0 0
7 1 6.3150086633600324e+00 4.4797541482423311e+00 4.0869274196735486e+00 0 0 0
8 2 5.3406989944841978e+00 4.2167892762191830e+00 3.9009307272755320e+00 0 0 0
9 2 6.7951392273942623e+00 3.6516815631193276e+00 4.2131039136908255e+00 0 0 0
10 1 3.6245066569180349e+00 4.5064684772876964e+00 3.5587331150592187e+00 0 0 0
11 2 3.1442502080050163e+00 3.7970199741084563e+00 3.9854230717437642e+00 0 0 0
12 2 3.2096713157046000e+00 5.2707514074449184e+00 4.0633439547963830e+00 0 0 0
13 1 2.0169725621133612e+00 2.8550736413591875e+00 4.9546867111945332e+00 0 0 0
14 2 1.6198770100549369e+00 1.9029542813302434e+00 4.9905719813656919e+00 0 0 0
15 2 1.9665754279474821e+00 3.2192430412810160e+00 5.8765996508009302e+00 0 0 0
1638 2 1.2339142736998227e+01 7.7000926344593807e+00 2.0072580658778698e+01 0 0 0
17 2 1.3183707043965776e+00 1.5903842900330210e+00 2.0402995372087429e+00 0 0 0
19 1 4.7845047134551626e+00 2.9942192764284665e+00 8.8416289000911596e-01 0 0 0
20 2 4.0770616876010104e+00 2.5231502231350227e+00 1.4368318730557612e+00 0 0 0
21 2 4.4970905244550439e+00 3.9132815965181478e+00 6.8966735299858317e-01 0 0 0
22 1 1.6527575120556330e+00 4.5730567654717538e+00 1.4719498212815842e+00 0 0 0
23 2 2.4719271500785291e+00 4.4338384786811522e+00 2.0732333505305012e+00 0 0 0
24 2 1.7560383006128624e+00 4.0403806441796952e+00 6.7320724134088183e-01 0 0 0
25 1 4.5240953465459679e+00 5.9122490539432491e+00 3.3744676959169362e-01 0 0 0
26 2 3.9595014577539782e+00 6.3957240687292174e+00 1.0087873929092739e+00 0 0 0
27 2 4.8610429873831178e+00 6.4540831441712223e+00 2.2293213844558487e+01 0 0 0
1611 2 1.1795305656212875e+01 8.9998783853869782e+00 1.8341434083882611e+01 0 0 0
31 1 1.0554108379217260e+01 1.4363298697106495e+00 4.2844545677348878e+00 0 0 0
32 2 1.0652645135487473e+01 2.1426937767120666e+00 4.9686503354459353e+00 0 0 0
997 1 1.2484751567093564e+01 4.6240625828180395e+00 1.5340908228028274e+01 0 0 0
34 1 9.0579305816282307e+00 1.4523030486010680e+00 2.0784748221359961e+00 0 0 0
625 1 4.4297300487878930e+00 1.1858504909639409e+01 6.3971015282845576e+00 0 0 0
36 2 9.4205102274892596e+00 2.1999046369995554e+00 1.5789684810091393e+00 0 0 0
1346 2 3.6522396333539802e+00 -3.3278228955362442e-02 1.2332105461329714e+01 0 0 0
39 2 1.1313395825009350e+01 4.5365657601626959e+00 3.6432305224488823e+00 0 0 0
40 1 9.4204834944765103e+00 4.4479603197124478e+00 3.9370067942466087e+00 0 0 0
41 2 9.0265120182562946e+00 4.4846283191269265e+00 3.0567427507182319e+00 0 0 0
42 2 9.0954895256824564e+00 3.5965368354127283e+00 4.2963217365541464e+00 0 0 0
43 1 7.9057198252964547e+00 2.5853444758041628e+00 5.0605475469186301e+00 0 0 0
44 2 7.6936868229228006e+00 3.1117240173303693e+00 5.8713245262699472e+00 0 0 0
45 2 7.6389123766316116e+00 1.6091665529611690e+00 5.2121625756761523e+00 0 0 0
46 1 6.4872519674505762e+00 1.4862323352113058e+00 2.4061160079612138e+00 0 0 0
47 2 7.4515337258863452e+00 1.5137224794471846e+00 2.2736402217134737e+00 0 0 0
48 2 6.0149136327836379e+00 2.0446546504501879e+00 1.7893150414483985e+00 0 0 0
49 1 1.0904587191598782e+01 3.3125447652928601e+00 7.5114777338153371e-01 0 0 0
50 2 1.1620710357865741e+01 2.9443228653687123e+00 1.3195132938959566e+00 0 0 0
51 2 1.1155242517027252e+01 2.7131694228101906e+00 2.2668295491795661e+01 0 0 0
52 1 8.0831007260109828e+00 4.5546363987513647e+00 1.4383668603898752e+00 0 0 0
53 2 7.9921572208031764e+00 4.0319132040745540e+00 5.7119773813090613e-01 0 0 0
54 2 7.1317730387711507e+00 4.5321715669341973e+00 1.6410346153445512e+00 0 0 0
55 1 1.0600163533103858e+01 6.0769586321420270e+00 5.9060476327425881e-01 0 0 0
56 2 9.7752043133710345e+00 6.2862466007625573e+00 1.1162381743239738e+00 0 0 0
57 2 1.0671290548611573e+01 5.1354176977930370e+00 5.3421231594572838e-01 0 0 0
198 2 1.1924648886922267e+01 6.8495166899239424e+00 1.6374271116223711e+00 0 0 0
157 1 1.2169382309209350e+01 1.0740378001733934e+01 3.4335230904952909e+00 0 0 0
1608 2 7.7272563985948590e+00 7.5161128508690203e+00 1.8996990339630976e+01 0 0 0
531 2 1.0589606850100180e+01 4.1281671405248499e+00 6.2430255829758137e+00 0 0 0
121 1 4.8151743413754344e+00 7.2465819309000912e+00 4.1365035838142594e+00 0 0 0
122 2 5.5641023873782709e+00 7.2898705556636711e+00 3.4874287415172001e+00 0 0 0
123 2 3.9329590374227177e+00 7.4753746601985451e+00 3.7168887919263409e+00 0 0 0
124 1 3.0914286690224690e+00 7.5789228427548414e+00 2.2099037719255281e+00 0 0 0
125 2 3.4127365563939134e+00 8.4169251876075180e+00 1.8801150599020289e+00 0 0 0
126 2 2.1343715874098783e+00 7.4912148249089956e+00 2.0962422166384624e+00 0 0 0
127 1 6.2869068593081394e+00 1.0737555348968183e+01 3.5420748010575847e+00 0 0 0
128 2 6.5956845004778213e+00 9.9114685537757126e+00 4.0178266582335684e+00 0 0 0
129 2 5.3028662809009273e+00 1.0848585058257648e+01 3.6186677379599401e+00 0 0 0
130 1 3.5102163128051997e+00 1.0744266818071242e+01 3.3491969899185219e+00 0 0 0
131 2 3.1000252566004054e+00 1.0298594734686734e+01 4.1119660129689422e+00 0 0 0
132 2 2.8718833407452760e+00 1.0756370224452978e+01 2.5529159477856425e+00 0 0 0
133 1 1.9462770052021570e+00 8.8996593782945563e+00 4.8635763438604087e+00 0 0 0
134 2 2.0132818006060602e+00 9.3123838784280029e+00 5.7412546207311461e+00 0 0 0
135 2 1.3324691721714021e+00 9.4675293391971653e+00 4.3746985442964990e+00 0 0 0
29 2 1.7479416510698436e+00 5.0764444109557216e-02 6.0558407039723674e+00 0 1 0
139 1 4.5638349740103354e+00 9.4439686951405495e+00 9.8016488623747133e-01 0 0 0
140 2 4.5644040751966122e+00 1.0429710971387093e+01 7.8940088217242887e-01 0 0 0
141 2 5.3219130107739137e+00 9.1177939759764399e+00 1.4991231485719179e+00 0 0 0
142 1 1.5994007311600560e+00 1.0977403376475198e+01 1.3687438158181267e+00 0 0 0
143 2 1.6224627992966194e+00 1.0254796093105252e+01 6.1995260406166763e-01 0 0 0
144 2 1.5149638528171960e+00 1.1662996884135330e+01 6.4639605158132662e-01 0 0 0
1018 1 7.4915442415857108e+00 -5.0594452932852668e-03 1.6678318249027029e+01 0 0 0
148 1 1.8204351187612713e+00 6.1353273564330690e+00 5.0484688304377814e+00 0 0 0
1096 1 4.8517380178132902e-01 7.5159770350685395e+00 1.3369836013807372e+01 0 0 0
150 2 1.9338813574730538e+00 7.1031741353503879e+00 4.9805068919095055e+00 0 0 0
151 1 1.0667808051064172e+01 7.7717925080771728e+00 4.3903791230688158e+00 0 0 0
1576 1 6.0997915729838426e-01 7.6902020397595523e+00 1.9316098242695873e+01 0 0 0
153 2 1.0796362663288711e+01 8.3969755961534105e+00 5.1149333240325614e+00 0 0 0
154 1 9.1124884368833303e+00 7.7720285572323577e+00 2.0563099790034998e+00 0 0 0
155 2 9.4519403823774226e+00 8.4994459804571232e+00 1.4499236804739390e+00 0 0 0
156 2 9.6090916274473468e+00 7.8833241278881072e+00 2.8888705721425243e+00 0 0 0
197 2 1.2020360952534505e+01 8.4497218804958383e+00 1.6427341225875258e+00 0 0 0
158 2 1.1215782842601310e+01 1.0706292859598209e+01 3.3639372937043528e+00 0 0 0
160 1 9.5904886851527422e+00 1.0779340208244573e+01 3.5846718366079005e+00 0 0 0
161 2 9.1296883688687984e+00 1.0698813507299606e+01 2.6923102062586932e+00 0 0 0
162 2 8.9945227974779307e+00 1.1386314898720379e+01 4.0196982022040171e+00 0 0 0
163 1 7.8647390913874773e+00 8.9031366057740922e+00 4.8525729458194782e+00 0 0 0
164 2 7.7805662868378604e+00 7.9518475784877989e+00 5.0056105306942280e+00 0 0 0
165 2 8.6771538253665970e+00 9.1199533524990155e+00 4.3550827043389440e+00 0 0 0
166 1 6.5659432518349075e+00 7.7601179019095756e+00 1.9755231100796258e+00 0 0 0
167 2 6.1913315610905020e+00 7.0382491467166899e+00 1.4479236084862193e+00 0 0 0
168 2 7.5086874654310369e+00 7.6733870936887429e+00 1.9231808559724617e+00 0 0 0
169 1 1.0495310417959633e+01 9.5788288264732273e+00 7.5738297748134109e-01 0 0 0
170 2 1.0465958779628693e+01 1.0541264780218164e+01 6.7033635484621112e-01 0 0 0
171 2 1.0782191112176317e+01 9.0691772046856762e+00 2.2544054757311976e+01 0 0 0
172 1 7.6090918523395743e+00 1.1061184307206711e+01 1.3015250664222988e+00 0 0 0
173 2 6.9226632997912407e+00 1.0878975790114159e+01 2.0475346513380939e+00 0 0 0
174 2 7.5891268805562051e+00 1.0287143973689505e+01 6.9916187544184938e-01 0 0 0
1038 2 1.2404628021617228e+01 1.5078121307370105e+00 1.4489139372581413e+01 0 0 0
178 1 7.6174665060807190e+00 6.2841444953403780e+00 5.2978382196800000e+00 0 0 0
179 2 6.9267915918620373e+00 5.6401698488022491e+00 4.8707133322848808e+00 0 0 0
180 2 8.4191101640918529e+00 5.8899923628433237e+00 4.9118398645398846e+00 0 0 0
496 1 3.0095841792589034e-01 1.4508633283191803e+00 7.8076383884395906e+00 0 0 0
1518 2 1.2358961249339478e+01 2.2369996269808103e+00 1.8826401340220002e+01 0 0 0
16 1 3.1956136738630897e-01 1.4249296356516632e+00 2.0979004477094079e+00 0 0 0
895 1 1.0807893647015732e+01 7.5196852796055591e-03 6.7473505156781304e+00 0 1 0
1619 2 7.9070787917324798e+00 6.0918861288164905e+00 3.1446396817667449e-02 0 0 1
1740 2 8.1262422388020301e+00 1.2105321981830194e+01 2.2752983701627073e+01 0 0 -1
1618 1 8.1047796677493036e+00 6.3309139868022291e+00 2.1874513680745196e+01 0 0 0
35 2 9.6083152652359409e+00 1.5273492641564741e+00 2.9138578454768713e+00 0 0 0
1105 1 4.8894699024792203e+00 1.2133508305742298e+01 1.2222768055810436e+01 0 0 0
481 1 4.7212476618109216e+00 1.4367246640765992e+00 1.0025583381335835e+01 0 0 0
482 2 4.5020731452273886e+00 6.6434321792298090e-01 1.0591062494299051e+01 0 0 0
483 2 5.5221720961719809e+00 1.2792803618258322e+00 9.4366155660168900e+00 0 0 0
484 1 2.9386395607884683e+00 1.4379078420227605e+00 7.8530591529504301e+00 0 0 0
485 2 3.4086954281400446e+00 1.5250564423230359e+00 8.7286866770349700e+00 0 0 0
486 2 1.9826456152389544e+00 1.5673566647822885e+00 7.8380700150481779e+00 0 0 0
487 1 6.4013368364881353e+00 4.4341799064066665e+00 9.5035739973411530e+00 0 0 0
488 2 5.4452545149312108e+00 4.4925152949497367e+00 9.4205192485218063e+00 0 0 0
489 2 6.5569225996423626e+00 3.5872604257557139e+00 1.0002995280829037e+01 0 0 0
490 1 3.7335513394850959e+00 4.6664813972324088e+00 9.3232584125030371e+00 0 0 0
491 2 3.2120327538942997e+00 3.9173575522048862e+00 9.6637258611553030e+00 0 0 0
492 2 3.3536791546773217e+00 5.3605414303836110e+00 9.8385296943124292e+00 0 0 0
493 1 1.7982711152722408e+00 2.8360541074258969e+00 1.0504778808577916e+01 0 0 0
494 2 1.7832432202279629e+00 3.1927898811918967e+00 1.1388400052137277e+01 0 0 0
1615 1 1.1050465234203230e+01 1.2200365389724729e+01 1.7853533993162216e+01 0 0 0
1613 2 8.2724132534507238e+00 1.1493172174327841e+01 1.7768098687904562e+01 0 0 0
499 1 4.7945638781517665e+00 3.0483239390337409e+00 6.6892201341375914e+00 0 0 0
500 2 3.9387171846179707e+00 2.7991719342650425e+00 7.2246958490226101e+00 0 0 0
501 2 4.5803524317376665e+00 2.6308669262353859e+00 5.8125073973406982e+00 0 0 0
502 1 1.8913703972643336e+00 4.6272763024322785e+00 7.0754947359151528e+00 0 0 0
503 2 2.5621365210714999e+00 4.8239878642216709e+00 7.7772350872610181e+00 0 0 0
504 2 1.8437057327200514e+00 5.3227762167923345e+00 6.4571618981947445e+00 0 0 0
505 1 4.8018700219498633e+00 5.8615461610426767e+00 6.6710596374574074e+00 0 0 0
506 2 4.9436708989317539e+00 4.8840598796074097e+00 6.6353385770315985e+00 0 0 0
507 2 4.7534890356031356e+00 6.1968080548070610e+00 5.7337338107256191e+00 0 0 0
5 2 3.5648096707255514e+00 5.6492888651170892e-01 1.6828303782442107e+00 0 0 0
509 2 1.7670755253198371e+00 1.2618097029266819e+00 1.0254623068582355e+01 0 0 0
511 1 1.1143622451667607e+01 1.7203313377778198e+00 1.0044757629920110e+01 0 0 0
512 2 1.0831120037924137e+01 9.8306499355456611e-01 1.0644762049711689e+01 0 0 0
513 2 1.0437778274492997e+01 1.9282953877582543e+00 9.4183239776951915e+00 0 0 0
514 1 9.2012790305170888e+00 1.6877372016308279e+00 8.0566678218786993e+00 0 0 0
515 2 8.2632556316353067e+00 1.5623053008727041e+00 8.0506075996944464e+00 0 0 0
1477 1 1.2434369961039453e+01 4.2942928345730946e+00 2.0720851091087212e+01 0 0 0
1585 1 4.4293303760476554e+00 1.2132850839141556e+01 1.7721480224711982e+01 0 0 0
520 1 9.6833089727397557e+00 4.7029562817762898e+00 9.5194484200249292e+00 0 0 0
521 2 1.0607256871545491e+01 4.6810855390195636e+00 9.1771124331785288e+00 0 0 0
522 2 9.1353339342854056e+00 4.7057876606148845e+00 8.7126686252637864e+00 0 0 0
523 1 7.9983915770254566e+00 2.7196052658912087e+00 1.0902108316741034e+01 0 0 0
524 2 7.8608326067904208e+00 1.7320437864487006e+00 1.0720925667369494e+01 0 0 0
525 2 8.4067500133469863e+00 3.0796334811314754e+00 1.0082564845978453e+01 0 0 0
526 1 6.4110559182886320e+00 1.3595467292616443e+00 8.1106011105560949e+00 0 0 0
527 2 6.0028992939028418e+00 2.1316786241279595e+00 7.6999642893904667e+00 0 0 0
1827 2 4.1273108168630941e+00 1.1688958600312255e-01 1.8525118345729055e+01 0 0 0
529 1 1.0845780459151698e+01 3.1789308900449331e+00 6.3070733134158230e+00 0 0 0
530 2 1.0094699866564893e+01 2.8722018769382562e+00 6.8692209511528688e+00 0 0 0
976 1 4.2377034363973992e-01 1.5131189660563780e+00 1.3450867044142131e+01 0 0 0
532 1 7.9513553669097856e+00 4.4289018262775857e+00 7.2802648101481040e+00 0 0 0
533 2 7.6058623486652488e+00 5.1825411600432991e+00 6.7644648589648826e+00 0 0 0
534 2 7.2832475467869839e+00 4.3244883081823531e+00 7.9385355514579246e+00 0 0 0
535 1 1.0837079638875256e+01 5.8288022374473423e+00 6.5543556118160327e+00 0 0 0
536 2 1.0319605400756188e+01 6.3497598014971111e+00 7.1791349223784726e+00 0 0 0
537 2 1.0813849247244082e+01 6.2996047587381856e+00 5.7242692773105475e+00 0 0 0
1607 2 6.4180011808728983e+00 7.4853311739039299e+00 1.9871014488528161e+01 0 0 0
614 2 1.0680725727237039e+00 9.2685757558418373e+00 1.0270737251604583e+01 0 0 0
1472 2 1.1599081912351430e+01 1.4180707605280634e+00 2.0791921011283748e+01 0 0 0
77 2 1.2342306360612808e+01 6.2506868331745791e-01 2.1284594920641351e+00 0 0 0
1612 1 8.1171242755438211e+00 1.0731491903894586e+01 1.8405628142097221e+01 0 0 0
601 1 4.7752153712145269e+00 7.4526924985269263e+00 9.8967530621890223e+00 0 0 0
602 2 5.5928800512459329e+00 7.4731865328849523e+00 9.3340480655869040e+00 0 0 0
603 2 4.8045692826252617e+00 8.2600870860584408e+00 1.0425692278700819e+01 0 0 0
604 1 2.9513935476069428e+00 7.8160825375524610e+00 7.4173491232804132e+00 0 0 0
605 2 3.3996790874109832e+00 8.1011859265549155e+00 8.2000797375547485e+00 0 0 0
606 2 3.5423916042322530e+00 7.0080716738364730e+00 7.2158710549472413e+00 0 0 0
607 1 6.1541967802828825e+00 1.0474550784141424e+01 9.0190523731438077e+00 0 0 0
608 2 6.7642067801188768e+00 1.0674816054918502e+01 8.2839208019697850e+00 0 0 0
609 2 6.6307658143466401e+00 9.8480372336060000e+00 9.6524067144302137e+00 0 0 0
610 1 3.5198905146432793e+00 1.0646540257454085e+01 9.3054104904731574e+00 0 0 0
611 2 3.0933810014915966e+00 1.0535102050788149e+01 8.4253755181701990e+00 0 0 0
612 2 4.5674140439611088e+00 1.0568194822369369e+01 9.2886950313276042e+00 0 0 0
613 1 1.8990863436747942e+00 9.0550657591742478e+00 1.0735517123016445e+01 0 0 0
557 2 1.2198518727084595e+01 1.8745187253242932e+00 8.7029121082098371e+00 0 0 0
615 2 2.5992557830650465e+00 9.5506484370690146e+00 1.0212710571601267e+01 0 0 0
616 1 3.1785723688179635e-01 7.8765740522559735e+00 7.6702261596638666e+00 0 0 0
618 2 1.2805026358123115e+00 7.6799111349295170e+00 7.7886248327939089e+00 0 0 0
619 1 4.9399316964471787e+00 9.2742698277861475e+00 5.9572937977383784e+00 0 0 0
620 2 5.1166603691034460e+00 8.6363270704654465e+00 5.2138399293975439e+00 0 0 0
621 2 4.2393317429383099e+00 8.7400474040676936e+00 6.3715573384097537e+00 0 0 0
622 1 1.7655283967740416e+00 1.0519062632823148e+01 7.0053974009358200e+00 0 0 0
623 2 1.1602568101195281e+00 1.0611624349381968e+01 7.8181379269691336e+00 0 0 0
624 2 1.6281460719202347e+00 1.1366967081417091e+01 6.5616919170505890e+00 0 0 0
528 2 6.1754936486461238e+00 5.9802630649359267e-01 7.5372891926957051e+00 0 0 0
626 2 4.2034273880861281e+00 1.0901101295455533e+01 6.3689367872279439e+00 0 0 0
628 1 1.8621563058154917e+00 6.0800346173984767e+00 1.0585236478896057e+01 0 0 0
629 2 1.8904767651848049e+00 5.6786805742802304e+00 1.1449484980212510e+01 0 0 0
630 2 1.8173147864035726e+00 7.0394664004739020e+00 1.0759374039349526e+01 0 0 0
631 1 1.1179435521036684e+01 7.5809623881986736e+00 1.0151257090326187e+01 0 0 0
632 2 1.1105264558737121e+01 6.8308555527374546e+00 1.0766454473072333e+01 0 0 0
633 2 1.1793372396090504e+01 7.1939810364040460e+00 9.4623513233272796e+00 0 0 0
634 1 9.4178766930042830e+00 7.7106043131278827e+00 8.1577100355145191e+00 0 0 0
635 2 9.7667946364282070e+00 7.3949181213637578e+00 9.0094456036305637e+00 0 0 0
636 2 8.4722248060441654e+00 7.7406105344165184e+00 8.2372623021869256e+00 0 0 0
1259 2 8.6193775578190035e+00 1.2084162807224555e+01 1.6022680673633175e+01 0 0 0
639 2 1.1309442590556651e+01 1.0542352017902056e+01 9.3052660181565283e+00 0 0 0
640 1 9.5511245303017631e+00 1.0670260416168375e+01 9.4300289101181836e+00 0 0 0
641 2 9.2981642212463846e+00 1.0730426061664136e+01 8.4919918216832428e+00 0 0 0
642 2 9.0940700217755701e+00 9.8640872583424457e+00 9.8063261284763499e+00 0 0 0
643 1 7.7259712943574010e+00 9.1594318525764180e+00 1.0751831391667682e+01 0 0 0
644 2 8.0323178350933269e+00 8.2255742590085816e+00 1.0992021812435901e+01 0 0 0
645 2 7.8911739200460449e+00 9.7346746116518670e+00 1.1575699678929753e+01 0 0 0
646 1 6.5910893930343972e+00 7.7537473326348323e+00 7.8142496477695405e+00 0 0 0
647 2 6.2356614923854528e+00 7.0298211255699643e+00 7.2504190397903354e+00 0 0 0
648 2 6.2634419228353675e+00 8.5095213522701911e+00 7.3504184643711250e+00 0 0 0
649 1 1.0932952575480472e+01 9.1016190843113112e+00 6.5045341642337267e+00 0 0 0
650 2 1.0780747413376018e+01 1.0065381077230805e+01 6.4762584376745869e+00 0 0 0
651 2 1.0250419144674538e+01 8.7089420918968514e+00 7.1328540333524222e+00 0 0 0
652 1 8.0184276822239262e+00 1.0721129190380973e+01 7.0673364569432380e+00 0 0 0
653 2 8.2293578880780185e+00 1.0014302264225970e+01 6.3545798007692307e+00 0 0 0
627 2 4.4661958781031466e+00 1.2240917738637430e+01 5.5014103757223740e+00 0 0 0
1089 2 5.2653346365948277e+00 1.0555318671169898e+01 1.4481461758523807e+01 0 0 0
658 1 8.2103254573334397e+00 6.5437375620356999e+00 1.0860518470297663e+01 0 0 0
659 2 7.4249611076103292e+00 6.1485581878684963e+00 1.0401717702012881e+01 0 0 0
660 2 8.9499910599874841e+00 5.9851831013637229e+00 1.0514514019881995e+01 0 0 0
1610 2 1.1132442190180354e+01 9.4229311289699069e+00 1.6957667243106265e+01 0 0 0
1571 2 3.2418620568710148e+00 1.1587797435867808e+01 2.0984181433870440e+01 0 0 0
136 1 4.1511847734064822e-01 7.7322886904160617e+00 1.7923612831839566e+00 0 0 0
218 2 3.0413129331669031e-01 1.0838399525774758e+01 2.7272400695376842e+00 0 0 0
1614 2 8.8344839960879717e+00 1.0800048178965694e+01 1.9067088547471300e+01 0 0 0
1135 1 1.1389992019744104e+01 1.2169235896033797e+01 1.1892388162200737e+01 0 0 0
579 2 6.8541989051173124e-01 4.4581437737017904e+00 8.3867638530221509e+00 0 0 0
1616 2 1.1011130569796817e+01 1.1227825760036987e+01 1.7917307386486542e+01 0 0 0
1597 1 1.2398541791733518e+01 1.0937806572848924e+01 2.0704225909516417e+01 0 0 0
98 2 5.8665195968105621e-01 4.3829547087004750e+00 2.9705405029509317e+00 0 0 0
961 1 4.6719925448300250e+00 1.4419364801301202e+00 1.5881155239667180e+01 0 0 0
962 2 4.9949231456944929e+00 2.1186188462724087e+00 1.6516071251008420e+01 0 0 0
1739 2 7.2671376631708755e+00 1.1939586529616321e+01 2.1497835909316471e+01 0 0 0
964 1 3.0336517217441501e+00 1.2374117701390497e+00 1.3489609953038345e+01 0 0 0
965 2 3.4854911428616870e+00 1.3916653121419005e+00 1.4367087628293827e+01 0 0 0
966 2 3.5205164684376928e+00 1.8936631380765963e+00 1.2975840511765574e+01 0 0 0
967 1 6.1790733363162635e+00 4.3274240787678790e+00 1.4925945525325480e+01 0 0 0
968 2 6.4461142432620893e+00 5.1544398154425846e+00 1.5293851654420878e+01 0 0 0
969 2 6.7027355841563541e+00 4.3681197800324094e+00 1.4072140476096646e+01 0 0 0
970 1 3.2164523070223470e+00 4.2617235671166354e+00 1.4948652484943040e+01 0 0 0
971 2 4.1995777895854589e+00 4.2022237219120644e+00 1.5074199149179787e+01 0 0 0
972 2 2.9400476906297013e+00 5.1484842980008452e+00 1.5359933730196962e+01 0 0 0
973 1 1.5815162983591473e+00 2.5132944650140230e+00 1.6399956674532362e+01 0 0 0
974 2 2.3240235463261949e+00 3.0729575067690629e+00 1.6031861198277326e+01 0 0 0
975 2 1.4536322492264744e+00 2.8795566602496829e+00 1.7272521389676818e+01 0 0 0
1177 1 3.5769015260567522e-01 1.0872067541599439e+01 1.4903548735807256e+01 1 0 0
977 2 1.4065397182446455e+00 1.3117782698026450e+00 1.3372105856381046e+01 0 0 0
979 1 4.8229883504901494e+00 3.0994447012283564e+00 1.2145425338068216e+01 0 0 0
980 2 4.8746932969380694e+00 2.7542782609765077e+00 1.1220607517996187e+01 0 0 0
981 2 5.4727904109910845e+00 2.6302882240320944e+00 1.2639295561032224e+01 0 0 0
982 1 1.7910316120079213e+00 4.1654580005746302e+00 1.2701984006089754e+01 0 0 0
983 2 2.5855345086745767e+00 4.2093152171955639e+00 1.3256768813978995e+01 0 0 0
984 2 1.1466585034531822e+00 3.9588367107611111e+00 1.3461687328657728e+01 0 0 0
985 1 4.6358647933073227e+00 5.8082306621944966e+00 1.2084340851000121e+01 0 0 0
986 2 4.8976231972068920e+00 6.0621791812147761e+00 1.1189623728118880e+01 0 0 0
987 2 4.7940502942353920e+00 4.8101332853222871e+00 1.2112254063340606e+01 0 0 0
145 1 4.6497670389774219e+00 1.2108607774411993e+01 5.9486975975157341e-01 0 0 0
989 2 1.7290822889798365e+00 7.5062497057685085e-01 1.6360593384752008e+01 0 0 0
991 1 1.0664351876070549e+01 1.5627549579851572e+00 1.5839103939200983e+01 0 0 0
992 2 1.0715739277082427e+01 8.5680886483469576e-01 1.6567444471446521e+01 0 0 0
993 2 9.7756230692678905e+00 1.4744025562191756e+00 1.5459741131125309e+01 0 0 0
994 1 8.9538365063776695e+00 1.6597910856536258e+00 1.3580327645204628e+01 0 0 0
995 2 9.4149958912412810e+00 9.0782652623976445e-01 1.3268250556855223e+01 0 0 0
996 2 9.5616737510174570e+00 2.3876710944586819e+00 1.3403216520719921e+01 0 0 0
1602 2 9.2762316202139719e+00 1.1488588563609255e+01 2.1033804444439404e+01 0 0 0
998 2 1.1504487421321315e+01 4.3484938579787720e+00 1.5353893933895218e+01 0 0 0
1000 1 9.7704633210645415e+00 4.0432593171308442e+00 1.5135672378788520e+01 0 0 0
1001 2 9.0448600224180051e+00 3.7229776500739247e+00 1.5721376033465361e+01 0 0 0
1002 2 9.3142202989689356e+00 4.4554583853213945e+00 1.4330608678080344e+01 0 0 0
1003 1 7.7038748656581246e+00 2.7277983839370670e+00 1.6334518207221848e+01 0 0 0
1004 2 7.2133170765706716e+00 3.1881026989498733e+00 1.5637272341201969e+01 0 0 0
1005 2 7.6384276059149467e+00 3.3464901404866065e+00 1.7060711305610546e+01 0 0 0
1006 1 6.2780461755021886e+00 1.3558562505911032e+00 1.3570747219117903e+01 0 0 0
1007 2 5.8950763986028658e+00 1.3602641888557099e+00 1.4471422777348971e+01 0 0 0
1008 2 7.2101784793434742e+00 1.4387976129278517e+00 1.3543295408956558e+01 0 0 0
1009 1 1.0981773331887025e+01 3.4634386689906718e+00 1.2504883896063550e+01 0 0 0
1010 2 1.1686178090155918e+01 2.9303619722974545e+00 1.3005082565518990e+01 0 0 0
1011 2 1.0978585283240687e+01 3.1845025591933691e+00 1.1517360645078222e+01 0 0 0
1012 1 7.9455354754238536e+00 4.3308196740921110e+00 1.2952313575428208e+01 0 0 0
1013 2 8.1656565509966637e+00 3.6508704138391708e+00 1.2282636071966405e+01 0 0 0
1014 2 8.0198873763778131e+00 5.1703591238428546e+00 1.2476829984751724e+01 0 0 0
1015 1 1.0848371678474642e+01 6.1542482758952612e+00 1.2562660337157208e+01 0 0 0
1016 2 1.0912791645289905e+01 5.1764224852878744e+00 1.2487678177579912e+01 0 0 0
1017 2 1.1775559633208188e+01 6.4901273168494642e+00 1.2789999539666606e+01 0 0 0
1117 1 1.2401277341174039e+01 1.0693561603327103e+01 1.4992777197215773e+01 0 0 0
1019 2 7.5419095509931315e+00 9.7548578889364301e-01 1.6626964979706003e+01 0 0 0
654 2 7.9367068621873322e+00 1.1502173611203794e+01 6.4455973939604378e+00 0 0 0
896 2 1.0959392730488226e+01 2.8808766706271183e-01 5.8518330588484453e+00 0 0 0
1081 1 4.6771510834980932e+00 7.5567233309123889e+00 1.5515478348789431e+01 0 0 0
1082 2 5.5540582385354140e+00 7.6285441798793432e+00 1.5048638936161954e+01 0 0 0
1083 2 4.7731236204365546e+00 6.7684108614128524e+00 1.6064918171549721e+01 0 0 0
1084 1 3.1968099134085248e+00 7.8272612480789103e+00 1.3157767043587627e+01 0 0 0
1085 2 3.4564095918637179e+00 7.5678309194448925e+00 1.4068791854032023e+01 0 0 0
1086 2 3.7221327795679207e+00 7.1504758840697535e+00 1.2583010164288327e+01 0 0 0
1087 1 6.2312971596009259e+00 1.0807542603298405e+01 1.4475309193566257e+01 0 0 0
1088 2 6.7313518603927713e+00 1.0058921691957009e+01 1.4911840684510462e+01 0 0 0
1230 2 2.6673695112972613e+00 1.1905090362606359e+01 1.5915791292906290e+01 0 0 0
1090 1 3.5102584306835083e+00 1.0676515353665307e+01 1.4879919620364719e+01 0 0 0
1091 2 3.0234358740930878e+00 9.8953134364346891e+00 1.5143847250290172e+01 0 0 0
1092 2 3.0889993048493349e+00 1.0815706723245130e+01 1.3952701890311374e+01 0 0 0
1093 1 1.8401003028200793e+00 8.9010618235315100e+00 1.6430931754742048e+01 0 0 0
1094 2 1.8063938951703440e+00 7.9915968012055831e+00 1.6106822804109299e+01 0 0 0
1095 2 1.1252001954371154e+00 9.3832105381999984e+00 1.5920728975578559e+01 0 0 0
780 2 6.7993838573663750e+00 1.2089889146145900e+01 1.0174213021866601e+01 0 0 0
1097 2 1.4692053246848187e+00 7.6252448827449104e+00 1.3287677523712921e+01 0 0 0
1099 1 4.8365812873316090e+00 9.4715013631544647e+00 1.1888654306866613e+01 0 0 0
1100 2 4.0562689602417432e+00 9.2173310581797132e+00 1.2454233052425497e+01 0 0 0
1101 2 4.9190551568757144e+00 1.0418978843531448e+01 1.2017977106450790e+01 0 0 0
1102 1 1.7912701704389169e+00 1.0891848406067204e+01 1.2620984457017149e+01 0 0 0
1103 2 1.6587439178182830e+00 1.0075759757478913e+01 1.2074038635883742e+01 0 0 0
1104 2 1.1757318503945053e+00 1.0802462000548823e+01 1.3350930260422285e+01 0 0 0
749 2 1.8670025065790949e+00 1.2031572348556058e+01 1.1241732016731433e+01 0 0 0
1108 1 1.8953639524618566e+00 6.1833658590153799e+00 1.6237580969550791e+01 0 0 0
1109 2 1.0490206354392364e+00 5.8137161630225123e+00 1.5951976403029045e+01 0 0 0
1110 2 1.9422463004455524e+00 5.6103518063029192e+00 1.7018126706064464e+01 0 0 0
1111 1 1.0840437481989188e+01 7.7669185950100692e+00 1.5783341333833269e+01 0 0 0
1112 2 1.1429932343849023e+01 7.8049202714453401e+00 1.4978893902878708e+01 0 0 0
1113 2 9.9790062195284435e+00 7.9770848698449583e+00 1.5463148057210187e+01 0 0 0
1114 1 8.9887376664264025e+00 7.8882827293585498e+00 1.3753653027961152e+01 0 0 0
1115 2 9.5814192175303603e+00 7.2451572476252046e+00 1.3305427717021301e+01 0 0 0
1116 2 8.0644126943504553e+00 7.6713618249623234e+00 1.3477993078262525e+01 0 0 0
33 2 1.1388595030209432e+01 1.5297631771724414e+00 3.8099676355974776e+00 0 0 0
1120 1 9.6831971106637482e+00 1.0515520286269659e+01 1.5008688938594277e+01 0 0 0
1121 2 9.3549269387154457e+00 1.0763187659977888e+01 1.4132415549979182e+01 0 0 0
1122 2 1.0715703576320143e+01 1.0662632924567172e+01 1.4944769475345256e+01 0 0 0
1123 1 7.9077689987555013e+00 8.8461990179360512e+00 1.6158602862898981e+01 0 0 0
1124 2 8.6268588141372629e+00 9.2498278632908875e+00 1.5679962694376780e+01 0 0 0
1125 2 7.7909689123795243e+00 9.5477088347698267e+00 1.6809011454388454e+01 0 0 0
1126 1 6.3517722130706256e+00 7.4895113850478658e+00 1.3267211004331839e+01 0 0 0
1127 2 5.9156805086188715e+00 6.7957219459674265e+00 1.2832041551566109e+01 0 0 0
1128 2 6.0242345747261670e+00 8.3139138239523049e+00 1.2885991742784903e+01 0 0 0
1129 1 1.0890338997948563e+01 9.4125660095760413e+00 1.2138433190516011e+01 0 0 0
1130 2 1.0081898207241512e+01 9.0904373437814225e+00 1.2532642676857671e+01 0 0 0
1131 2 1.1006857860314698e+01 8.9371275848427310e+00 1.1271659728821920e+01 0 0 0
1132 1 8.1220552645294060e+00 1.0874226244947526e+01 1.2640119459140257e+01 0 0 0
867 2 4.0308128243478842e+00 1.4999197306650963e-01 7.0632532182091712e+00 0 0 0
1134 2 7.3916353784045583e+00 1.1145828903290637e+01 1.3252760570142943e+01 0 0 0
516 2 9.6398986285816797e+00 9.7588289343329671e-01 7.5279983936753201e+00 0 0 0
1137 2 1.1406551906103925e+01 1.1240036835283838e+01 1.1664842317242814e+01 0 0 0
1138 1 7.8042877126120160e+00 6.2184781785714618e+00 1.6399631096317279e+01 0 0 0
1139 2 7.8418901650985573e+00 7.1898807661523598e+00 1.6337843042369656e+01 0 0 0
1140 2 8.3944413010162489e+00 5.9685784635368009e+00 1.5684948849864297e+01 0 0 0
1856 2 1.0020301349998267e+01 3.7617763964397877e-01 1.8446309378987252e+01 0 0 0
1826 2 5.6471653705306082e+00 -1.0789632395606283e-01 1.8072593752823281e+01 0 0 0
219 2 3.8321655436150220e-01 1.1386573361640711e+01 4.1175457944851663e+00 0 0 0
495 2 1.0906787045684208e+00 3.2482489903337002e+00 9.9757629791764995e+00 0 0 0
1158 2 1.2392258089145615e+01 8.5497887134997832e+00 1.3000537149056871e+01 0 0 0
37 1 1.2287439407209673e+01 4.6448762418493716e+00 3.5665312485877996e+00 0 0 0
1606 1 6.7272614248869207e+00 7.5460422508224765e+00 1.8966517234360005e+01 0 0 0
779 2 8.3079123328041771e+00 1.1973821360872943e+01 9.8317840928272258e+00 0 0 0
1375 1 1.0709325091873485e+01 1.1007586432052503e-01 1.2141852513865770e+01 0 1 0
1441 1 4.7895282161443040e+00 1.2650792609104671e+00 2.1492392443238295e+01 0 0 0
1442 2 4.7547233958122392e+00 3.8982876190504900e-01 2.1995191144349654e+01 0 0 0
1443 2 4.7516375189601883e+00 1.9078476609649997e+00 2.2241234303277942e+01 0 0 0