LAMMPS data file via write_data, version 15 Apr 2020, timestep = 897000

2016 atoms
2 atom types

0.0000000000000000e+00 1.8252332700000000e+01 xlo xhi
-9.0373278500313958e-01 4.5374666790994823e+01 ylo yhi
0.0000000000000000e+00 1.8953518100000000e+01 zlo zhi
2.0991189352725335e-03 -6.7630458999999998e+00 1.5395361799999999e-03 xy xz yz

Masses

1 16
2 2

Atoms # atomic

357 2 -4.6273907159840286e+00 -2.6425901038854793e-01 1.7744323072745509e+01 -1 0 1
909 2 1.0296015854229868e+01 5.6244310499104100e-01 1.0759227313734570e+01 3 0 5
716 2 -5.8724673460392589e+00 3.8557516476012283e+00 1.7501080200376986e+01 2 0 4
194 2 4.4515342909018241e-01 8.6859411091719512e+00 1.1930825717333081e+01 1 0 5
326 2 8.2143044039363158e+00 5.2089998042917500e+00 3.8075542602252184e+00 1 0 3
151 1 5.0287116899096054e+00 4.5730278070648120e+00 6.1219731359261296e+00 2 0 1
649 1 -1.7643305348602052e+00 -3.0363793546545403e-01 7.0418543951109207e+00 0 0 -3
16 1 7.1067238323047519e+00 -5.5440750504652714e-01 6.9994819143914677e+00 0 0 3
647 2 -2.3511849447946531e-01 3.5335948465223730e+00 1.6866568810561645e+01 -2 0 2
600 2 4.5295183810330286e+00 1.2432312755020063e+00 2.3918621543542939e+00 -1 0 4
595 1 9.9605527458068099e-01 1.0045836262351344e+01 1.2902002037489616e+01 1 0 4
82 1 7.3528882812679877e+00 6.7881392812365382e-02 1.6292823227528064e+01 0 0 -2
403 1 8.4865142547526395e-01 1.3468113923725524e+00 5.4386050608051340e-01 1 0 0
509 2 -1.8801530902456904e+00 -6.9777525756001491e-01 1.4832125887228583e+01 3 0 0
514 1 9.8030368595611748e+00 6.8694330261745140e+00 1.5055012041619067e+01 1 0 2
89 2 1.0715089261250423e+01 9.1033944518113086e-01 1.3106574442710611e+01 -4 0 -1
207 2 1.2797984440040731e+01 8.0443603909982890e+00 4.5928673406555829e+00 -2 0 1
879 2 7.8746920540986105e+00 5.2021450790430190e+00 1.7784939965701945e+01 0 0 2
493 1 6.1916981415071159e-01 -1.3086982437862282e-01 1.8432713487448616e+01 0 0 1
52 1 5.4250124507425834e+00 5.0789470435737627e+00 2.2548023580866174e+00 1 0 4
305 2 8.0130007640460565e+00 1.5026511674707401e+00 2.6216824495064612e+00 1 0 1
949 1 1.0310855724284782e+01 -5.4010967261188148e-02 1.8449425803405465e+01 2 0 3
68 2 9.0878363093265300e+00 2.6653620203678949e+00 1.4974619989884037e+01 0 0 3
33 2 7.9315874990928048e+00 2.6815642375206550e+00 1.2398669585581110e+00 1 0 0
893 2 -1.5693681244558921e+00 -5.6330712220989998e-01 1.2570993878862554e+01 -1 0 -1
280 1 1.3597230470818905e+01 7.9000764232347453e+00 6.0351967573865499e+00 -1 0 1
822 2 6.0054487287472993e+00 9.0180242407574802e+00 1.2853807014574176e+01 0 0 1
792 2 4.3015853270546458e+00 -3.9463390417624289e-01 1.7696779235881078e+01 1 0 3
638 2 7.1642249229697139e+00 3.3128092442755372e+00 1.7994875103708647e+01 2 0 3
950 2 1.0877037602037964e+01 7.0871253282939062e-01 1.8825575644059516e+01 2 0 3
568 1 -1.1111021045012803e+00 9.6564865301032174e+00 8.8206445477448003e+00 -1 0 -2
795 2 2.7783042453200197e+00 9.6724275770062444e+00 5.9344187555060870e+00 1 0 2
17 2 6.4096715779028646e+00 1.8210306555196221e-01 7.1331804962424776e+00 0 0 3
181 1 1.6584807339187169e+01 9.4366047260771193e+00 8.3872607079920303e-01 1 0 4
379 1 1.8904603861880376e+00 8.5712840589423500e-01 9.8709706047213039e+00 2 0 3
327 2 9.3092222449905861e+00 5.9386420193317599e+00 2.9289470224693437e+00 1 0 3
132 2 1.1093834979028347e+01 -8.2100375009236226e-01 1.4889771071243025e+01 -3 0 -2
637 1 6.4881332645180310e+00 2.7125623249089146e+00 1.8312072673723534e+01 2 0 3
960 2 9.5860493337528521e+00 1.0070025876139505e+01 7.3092570969608006e-01 4 0 5
804 2 1.4525470448931081e+01 -7.0445413793227141e-01 5.3332933870437094e+00 -1 0 1
471 2 -4.2815372949442150e+00 -5.8460287972346370e-02 1.2718026223794713e+01 -2 0 1
497 2 1.3279516888402595e+01 1.0301565828907034e+01 1.6933856708749475e+00 -3 0 1
715 1 -6.0562137228666639e+00 4.8080115287881382e+00 1.7637706654431170e+01 2 0 4
321 2 1.1060581057000226e+01 2.4533092168144295e+00 4.1756690090345376e+00 -1 0 1
83 2 7.2805236446450357e+00 -4.3117809862801432e-01 1.5429817454942450e+01 0 0 -2
693 2 -2.2742723662990638e-01 1.6499402173710442e+00 1.3374009293735106e+01 -1 0 1
334 1 2.3638486957959861e+00 2.0601068567215042e-01 1.4190306762907275e+01 -2 0 2
639 2 1.2902540061970637e+01 3.1443510780114847e+00 1.4846080059585851e-01 1 0 4
335 2 3.2470246510859324e+00 4.6823004987689565e-01 1.3854967462592825e+01 -2 0 2
564 2 1.0263955634854238e+01 8.1758347669636979e+00 2.0163301580651334e+00 -2 0 1
954 2 8.4537514678391634e+00 6.1733590313340372e+00 1.4464857511446066e+01 -1 0 4
355 1 -4.5749281987880881e+00 1.8165848892396608e-01 1.6869281660967218e+01 -1 0 1
668 2 1.2541858515672477e+01 1.2065479929329315e-01 9.6360004994232256e+00 -1 0 2
41 2 1.0170455218736777e+01 8.5440912767585537e+00 8.8581278429894095e+00 0 0 5
793 1 3.4410528565298502e+00 8.9622215432308092e+00 5.6599809867927027e+00 1 0 2
220 1 1.4659754246478512e+01 4.7834821836226160e+00 8.4451901475135607e+00 1 0 0
558 2 1.1738593307853925e+01 9.6352443390622202e+00 2.3530768321053644e-01 1 0 8
65 2 7.4162145445314511e+00 6.8437579104806701e-01 1.0482166738991372e+01 -2 0 2
810 2 1.2641399730265363e+01 5.1826218576487113e+00 1.4077143026175372e+01 0 0 1
436 1 1.0103886216034468e+00 8.5571143848923157e+00 9.0543899336195610e-01 0 0 4
91 1 -1.0141088710274122e+00 4.2507810722421127e+00 8.3432348450948766e+00 5 0 1
240 2 -3.7293659324043027e+00 1.0046195160558078e+01 1.0898388186233550e+01 0 0 1
707 2 6.5849567645984344e+00 7.3832046851787254e+00 1.7271267224660985e+01 2 0 3
771 2 9.3304417775072288e+00 1.0314145067467855e+01 3.1092266397466597e+00 2 0 5
440 2 3.0189051934087683e+00 4.0814288077522445e+00 1.4377473732865695e+01 3 0 2
989 2 1.1810783667160621e+01 5.9594689041794702e+00 6.9653921431518473e+00 3 0 2
441 2 4.1130760548658198e+00 4.9696459331582936e+00 1.4825142790868282e+01 3 0 2
1410 2 -1.6469567764036901e+00 9.9724288250521838e+00 1.6870633630314902e+01 3 0 2
646 1 -1.3876566463297557e-01 2.5978186230927123e+00 1.6787354634058236e+01 -2 0 2
414 2 7.5444643436608665e+00 8.2856366744600134e+00 1.9864785707348243e+00 0 0 -1
910 1 1.2993204387006642e+01 8.0021495020695994e+00 8.6577637690561176e+00 0 0 1
88 1 1.0001660271163871e+01 1.2538342279708576e+00 1.2505514776063304e+01 -4 0 -1
120 2 1.7568349336916210e+01 3.9323843708317412e+00 1.1570419932164464e+00 -2 0 1
239 2 -2.5572965827711065e+00 1.0637979392105901e+01 1.1572614603690861e+01 0 0 1
700 1 5.0033298019927201e+00 5.2718120646610558e+00 1.1821883784546161e+01 3 0 2
734 2 2.7919639963008529e+00 5.1244453420741753e-01 2.9064699137572525e+00 1 0 4
862 1 -5.5246850707472408e+00 8.1192250847587975e+00 1.6286524345492815e+01 -4 0 2
272 2 2.3169178882057717e-01 2.7891969906213054e+00 4.7536958778137537e+00 -2 0 1
1674 2 -2.7785940587519753e+00 5.8610867243782181e+00 1.8416442914074896e+01 1 0 0
159 2 1.3702983509048714e+00 8.5082169198672393e+00 1.4243093088614147e+01 1 0 0
69 2 8.7520911679565181e+00 1.4125763119710357e+00 1.5909359689534872e+01 0 0 3
690 2 1.0048489202141599e+01 9.8095426086967183e+00 1.2344515324929818e+01 -4 0 0
219 2 8.2114700692784588e+00 1.3213898961172776e+00 6.3203060777615176e+00 -1 0 3
563 2 1.1305594343679308e+01 7.3142264381953392e+00 2.8869826922145241e+00 -2 0 1
522 2 -3.2213721949087182e+00 4.7370034264238825e+00 1.5672324458431953e+01 1 0 -1
688 1 1.0381615229978916e+01 1.0136032978444547e+01 1.1494059833898554e+01 -4 0 0
110 2 -2.6170375706794440e+00 1.6422693159905299e+00 1.3633865621040730e+01 -3 0 3
864 2 1.1988956758011701e+01 7.8373533643560744e+00 1.6955976714472587e+01 -5 0 2
495 2 1.3461093704848626e+00 5.9272984294152331e-01 1.8561334440488899e+01 0 0 1
281 2 1.3418023070180720e+01 7.8986947867762041e+00 6.9853858216920717e+00 -1 0 1
996 2 9.6747183583970333e+00 2.8785679347068505e-01 7.0787882299809564e+00 2 0 2
119 2 1.6163257571761275e+01 4.1208333227601903e+00 3.5028183658682172e-01 -2 0 1
269 2 1.0683570633577762e+01 6.4202804975439474e+00 1.1043386319668227e+00 2 0 2
282 2 1.4561323518867578e+01 7.6185674552566702e+00 5.9900106310335826e+00 -1 0 1
71 2 8.7216725165998401e+00 4.4994507276158942e+00 6.7478333707693441e+00 3 0 3
351 2 6.4572410221689642e+00 6.7267767971279113e+00 7.5659554163178493e+00 0 0 3
415 1 1.0541274713193763e+01 6.7756003977046690e+00 1.7603286312406798e+01 0 0 1
520 1 -2.7637771091727319e+00 5.5260955826343077e+00 1.5239948031584333e+01 1 0 -1
591 2 -3.2408271870081542e+00 3.5020904569584452e+00 1.8838985653878861e+01 -3 0 -1
489 2 5.7413028432334761e+00 6.2676988314254025e+00 1.4738544347001053e+01 -6 0 -5
833 2 5.9147974770777649e+00 8.3407376184723980e-01 1.6729148345597253e-01 0 0 4
358 1 1.4494034831218222e+01 1.0623623642344254e+01 5.1700191004346863e+00 -1 0 0
743 2 3.9401924515710016e+00 1.7158412562536465e+00 1.1775740299097100e+01 1 0 -1
651 2 -8.4046249139065399e-01 -2.9807668851085178e-01 6.7895458685196228e+00 0 0 -3
683 2 5.5074860083828430e+00 8.8295400796169754e-01 1.3251450859980425e+01 3 0 -1
205 1 1.2595461477117434e+01 7.8980879520977414e+00 3.6521378331614129e+00 -2 0 1
125 2 7.2648474504740257e+00 8.6636723901224553e+00 7.4977660052647170e+00 1 0 4
856 1 -7.0931366851456223e-01 7.1284384535444953e+00 7.9171584416894358e+00 -2 0 3
231 2 1.5632902774511752e+00 8.0330916123306739e+00 1.6704097106732771e+01 2 0 2
216 2 -7.4641291280060462e-01 9.9625318007936929e+00 4.4165234874487433e+00 1 0 -1
912 2 1.2690749655885828e+01 8.8663971906177075e+00 9.0203394702542159e+00 0 0 1
863 2 -4.6034443104480118e+00 7.8771901156776440e+00 1.6631978454260246e+01 -4 0 2
468 2 -3.0119777475375091e+00 2.8959250698105863e+00 1.5346501797282608e+01 4 0 1
660 2 1.3103797638657921e+00 1.0137911274233122e+01 1.6879566260868557e+01 0 0 -1
490 1 2.7199602240048497e+00 4.4382130495674685e+00 1.7605909174722900e+01 1 0 3
252 2 1.6152818692220553e+01 1.5062819383979700e+00 3.0983673552371056e+00 2 0 5
469 1 -4.3370865958101223e+00 8.2463595885033514e-01 1.3126078501903477e+01 -1 0 1
55 1 9.0245267858188889e+00 1.7973380004284154e+00 8.1927972939447944e+00 1 0 1
1082 2 4.9168630976977710e+00 1.0267884152558372e+01 3.6816591442448807e+00 0 0 0
101 2 6.7672733513768222e+00 4.5338610628269320e+00 5.8514512017149931e+00 2 0 2
853 1 -1.8117185853624402e+00 5.2921392054209870e-01 1.6329777551179994e+01 1 0 0
407 2 1.4045337306447943e+00 3.3385847112007694e+00 1.2857835735556103e+01 -1 0 2
892 1 -1.2331025705269694e+00 -2.7943628483647143e-01 1.1679178285787572e+01 -1 0 -1
94 1 1.5350928442110630e+01 7.2936690263782840e+00 4.9624981993749578e-01 5 0 4
546 2 2.4830769278491425e+00 2.1857293280833070e+00 5.7454335257927562e+00 0 0 2
845 2 -3.0131060063945725e+00 3.3660014705218497e+00 1.1414204388466334e+01 0 0 1
109 1 -1.9572059721091342e+00 2.2663260899217605e+00 1.3927097596246709e+01 -3 0 3
12 2 1.0986072768752360e+01 4.6059037268045939e+00 5.0851371081963395e+00 -1 0 -3
581 2 7.4523698485383321e+00 1.3096608590572978e+00 1.8763499443226554e+01 -2 0 2
766 1 1.3126753135357749e+01 2.8737324958696098e+00 1.1407972334438348e+01 -2 0 1
1533 2 1.0145451298437417e+01 8.9578307595438300e+00 6.7960473682894929e+00 -1 0 0
304 1 8.3345276769915095e+00 6.3402647711508764e-01 3.0045631121818381e+00 1 0 1
124 1 7.5873657318748826e+00 9.3901413985861417e+00 8.0643145500778246e+00 1 0 4
22 1 1.4293424810458095e+00 1.0288878418867810e+01 9.2975546402250355e+00 3 0 5
487 1 4.9087245061745879e+00 6.2628728629070265e+00 1.4262034523731652e+01 -5 0 -5
557 2 6.1041371823576478e+00 9.9297096310713897e+00 1.8154609505852108e+01 1 0 7
325 1 8.5623225165272814e+00 5.3150073103687285e+00 2.9009021822773398e+00 1 0 3
968 2 8.3791280085644289e+00 2.0604578535515161e-01 1.2294061178187766e+01 0 0 4
580 1 1.4723335419146636e+01 7.7914552764806921e-01 4.5553772238952389e-01 -2 0 3
31 1 7.5834409559209313e+00 2.9841385616227538e+00 2.1071505792704075e+00 1 0 0
111 2 -1.8398851871457365e+00 2.9194107384336081e+00 1.3238456045658561e+01 -3 0 3
15 2 2.8365794566216413e+00 3.7020074246796772e+00 8.7395554907930144e+00 2 0 1
311 2 -2.2035947107905036e+00 1.7042067923800759e+00 9.1148499022743366e+00 1 0 3
241 1 -9.5288877800591254e-01 3.4939856702893470e+00 5.5716264815661196e+00 2 0 0
736 1 1.2481785918791612e+01 1.8192707408900457e+00 3.1726145897592790e+00 -2 0 1
780 2 3.0373909748081331e+00 1.2665129242838704e+00 1.8042122202302430e+01 -1 0 2
466 1 -3.5409196298223744e+00 3.2405955386845022e+00 1.6074614190508704e+01 4 0 1
1531 1 1.0410977001592304e+01 9.5088314967056782e+00 7.5543863545231922e+00 -1 0 0
439 1 3.6567891005698421e+00 4.1195594207349213e+00 1.5066935151909352e+01 3 0 2
1081 1 4.5067841846267065e+00 1.0468268285144054e+01 2.7647677591820012e+00 0 0 0
259 1 7.2643229957693602e+00 3.4815666836659105e+00 1.1680601607394037e+01 -5 0 1
570 2 -1.7807696830418345e+00 9.8447966144758841e+00 9.6024358728406032e+00 -1 0 -2
93 2 -7.3357988551877984e-01 4.0941972499024537e+00 7.4256258020376942e+00 5 0 1
359 2 1.4303048893789077e+01 9.6808622627774170e+00 5.4861344715881390e+00 -1 0 0
380 2 1.6327172258739795e+00 1.0999988116225334e-01 1.0459339318418625e+01 2 0 3
217 1 8.4833882731091226e+00 1.6117082043425701e+00 5.4103670142344509e+00 -1 0 3
290 2 1.1777518989751451e+01 4.7759303249562803e+00 1.3696229325491203e+00 1 0 1
791 2 4.4110547809817842e+00 8.0178050816639623e-01 1.6560307569986360e+01 1 0 2
680 2 2.4133402042378158e+00 6.2148359075378279e+00 7.2623431940574354e+00 2 0 3
767 2 1.2939608351738872e+01 1.9408219013591599e+00 1.1675924033323264e+01 -2 0 1
1998 2 1.1752651401061421e+01 6.5637257301700522e+00 8.4259729030936175e+00 3 0 2
182 2 1.6029233469564684e+01 8.6427164050648706e+00 8.4367893680120809e-01 1 0 4
592 1 1.2894725658667927e+01 1.0064689284849326e+01 1.0258188486779458e+01 -3 0 -1
803 2 1.4534751443937996e+01 -6.6682097761927561e-01 3.7708172962608364e+00 -1 0 1
886 1 1.8687257808330671e-01 5.4030958205763051e+00 1.7295834052109786e+01 0 0 2
484 1 1.2240725030989271e+01 2.2960468729075560e+00 1.6489659257707771e+01 0 0 2
807 2 -2.3033231510729326e+00 6.7386947212282058e+00 1.2790731015566728e+01 7 0 5
310 1 1.5129935929843246e+01 1.7717666972973616e+00 8.7260428084096837e+00 0 0 3
316 1 9.9731571499336713e+00 4.0944827012630149e+00 1.0920687614329712e+01 1 0 -2
674 2 1.8009199163701983e+00 8.5393410880002580e+00 2.7023670200838090e+00 0 0 2
1031 2 5.4627303153863149e-01 9.8532276726005570e+00 9.4066689358703641e+00 3 1 5
92 2 -6.8397528291267085e-01 3.5027657782243100e+00 8.8900840055722856e+00 5 0 1
411 2 1.2477719581946536e+01 8.0329349951734610e+00 1.4273282838493069e+01 -3 0 3
270 2 3.5779566996357710e+00 5.4541978375020763e+00 1.8777793636691687e+01 2 0 1
150 2 5.3489389965914436e+00 4.1191773078598146e+00 9.0392220045780682e+00 1 0 -2
312 2 1.4386719054750719e+01 1.3423777086911790e+00 9.3270597014899295e+00 0 0 3
137 2 -3.1153760840215661e+00 1.0564762669897330e+01 1.8430047957278468e+01 -2 0 1
349 1 6.9368616876580766e+00 7.2342927021044847e+00 6.8586065319195741e+00 0 0 2
474 2 1.3891158735483778e+01 5.7830807684495307e+00 1.1983274639007359e+01 1 0 4
50 2 1.3147681118883993e+01 1.5071544848502771e+00 6.9450250283018455e+00 1 0 3
762 2 7.0417725621606779e+00 2.7181308527466594e+00 1.3179741145145854e+01 2 0 4
505 1 -3.1656056224445406e+00 8.2334990859626132e+00 1.3428014013228660e+01 0 0 1
503 2 5.7022961083538100e+00 6.3120964695361765e+00 4.1000518523178560e+00 0 0 4
222 2 -2.6340026339314480e+00 4.5037848557999069e+00 8.3178543351050145e+00 2 0 0
406 1 1.8477597016716727e+00 4.1742654597847411e+00 1.3138709711357011e+01 -1 0 2
703 1 1.5063212283679393e+01 2.0012519924048950e+00 6.2343269616942187e+00 -2 0 1
190 1 6.8099870813033814e+00 5.2470954443904452e+00 8.8208155763180933e+00 1 0 -1
165 2 4.2329724304868837e+00 8.7561700372334670e+00 2.0047489595805472e+00 -3 0 0
206 2 1.3106174959331856e+01 8.5234331691374887e+00 3.1493597918085774e+00 -2 0 1
742 1 3.6315967736380195e+00 2.4976510381270103e+00 1.1241692952531361e+01 1 0 -1
673 1 1.8921869606183750e+00 8.2946276834863077e+00 3.6298930551216957e+00 0 0 2
356 2 -3.6314917220441401e+00 4.6163896407179772e-01 1.6652682842731650e+01 -1 0 1
958 1 1.0149400784278571e+01 9.2414224339250328e+00 6.6095945050518701e-01 4 0 5
276 2 3.9758499818728472e+00 6.7976917499205491e+00 9.0542073284756395e+00 -2 0 0
759 2 1.0440620058098560e+01 5.8947989381630670e+00 1.1667823644768614e+01 -5 0 -1
18 2 7.4225352132065732e+00 -6.3954421658521232e-01 7.8980842945277665e+00 0 0 3
164 2 5.1800156171420895e+00 7.6367379921810539e+00 1.3456895642436526e+00 -3 0 0
64 1 6.9597609750157092e+00 1.2814477591175750e+00 9.7964282039436537e+00 -2 0 2
952 1 7.7867543349770845e+00 5.4800855471049790e+00 1.4162522317529312e+01 -1 0 4
318 2 1.0579241370436542e+01 3.8419440716860294e+00 1.1654568661017402e+01 1 0 -2
545 2 2.4041473895378873e+00 2.4938123184377026e+00 7.3235421796637112e+00 0 0 2
96 2 1.5158904749697589e+01 6.7978563897247364e+00 1.3090932525152994e+00 5 0 4
760 1 6.9752961748580002e+00 1.9676202769896336e+00 1.3789536385516175e+01 2 0 4
118 1 1.6586405766644269e+01 4.0231796349520277e+00 1.1945153527362045e+00 -2 0 1
809 2 1.2424828271315535e+01 5.2027963447213965e+00 1.5641723409340896e+01 0 0 1
744 2 3.9371066597102704e+00 3.3050303327303574e+00 1.1788453959220213e+01 1 0 -1
875 2 3.4408567676354744e+00 3.1655182730262066e+00 3.6524182392956650e+00 -2 0 4
195 2 1.0210230149997068e+00 7.3874669513817413e+00 1.1328704113537794e+01 0 0 5
163 1 4.3027145210086086e+00 7.8450823469515765e+00 1.7342989873587833e+00 -3 0 0
438 2 1.2846168157174409e+00 7.5712479037546050e+00 7.7515426225261741e-01 0 0 4
1003 1 3.9355320345120384e+00 6.7562270308574126e+00 7.2662174124497945e+00 3 0 0
738 2 1.2348637536022579e+01 2.7039029375019479e+00 2.6960476612338908e+00 -2 0 1
57 2 9.2865208448630234e+00 2.7432867568329851e+00 8.0387522427542830e+00 1 0 1
492 2 3.0209877804100396e+00 4.4875596962086659e+00 1.6662197973005078e+01 1 0 3
877 1 8.3772195745788736e+00 4.3617757867965343e+00 1.7931011545252833e+01 0 0 2
953 2 7.5808719049651341e+00 5.8622126171905338e+00 1.3286067156014498e+01 -1 0 4
876 2 2.7664146033939065e+00 4.4746927024926366e+00 3.9511423566651755e+00 -2 0 5
1672 1 -2.1730464603431310e+00 5.1273682682942221e+00 1.8668450468416641e+01 1 0 0
242 2 -1.4155750843886905e+00 4.0874733552367033e+00 4.9209254639692350e+00 2 0 0
54 2 4.7182634991462713e+00 4.5742968601580651e+00 2.7753090691014481e+00 1 0 4
203 2 -1.9190792945914215e-01 5.3638706963741640e+00 3.7244023159379149e+00 0 0 5
682 1 4.6736370023135976e+00 5.7931202473716525e-01 1.2895651556916349e+01 3 0 -1
648 2 6.7855490987164213e-01 2.3791363553460712e+00 1.7278864922855558e+01 -2 0 2
679 1 1.5800355797368066e+00 5.7314299361426180e+00 7.0838968806590792e+00 1 0 3
320 2 1.1414162818694345e+01 2.4843340982521775e+00 5.6828495230082643e+00 0 0 1
201 2 8.4371255867429316e+00 6.3665142652461126e+00 1.1338614294960463e+01 -2 0 0
589 1 -3.4241628370451820e+00 2.5526737230254080e+00 1.8720466531629654e+01 -3 0 -1
894 2 -5.1557288122624101e-01 3.6645626993522695e-01 1.1924914496583236e+01 -1 0 -1
818 2 1.6511822397494377e+01 -2.2635959531595473e-02 4.4119408491280234e+00 -1 0 -1
1408 1 1.4574085773062297e+00 5.6725249267462976e+00 4.1273125241421083e+00 0 1 0
319 1 1.0727608209550539e+01 2.8499348273949621e+00 5.0381938963134578e+00 0 0 1
918 2 4.0799365507364751e+00 9.8189609885191995e+00 1.4555602971733123e+01 -3 0 2
1004 2 4.4348080049044460e+00 5.9576383519257474e+00 6.8387924810611151e+00 3 0 0
221 2 1.4139065013128562e+01 4.0232513500112645e+00 8.8138893566320640e+00 1 0 0
404 2 1.4303318719901859e+00 8.8352732439938886e-01 1.1979930111184622e+00 1 0 0
412 1 7.1495694354553132e+00 7.5759567658256461e+00 1.4572555066775459e+00 0 0 -2
491 2 1.7538220362652277e+00 4.8067695592372610e+00 1.7556285790343740e+01 1 0 3
842 2 1.1923304188734303e+01 2.8153304712508671e+00 8.3303127113887054e+00 0 0 1
913 1 1.4340388353655085e+01 4.6473339575651940e+00 5.4562822984755242e+00 -2 0 1
887 2 1.4540921793552286e-01 5.7387806982735734e+00 1.6354515191618560e+01 0 0 2
684 2 4.7568830837227356e+00 -2.4138143437210979e-01 1.2432953865672252e+01 3 0 -1
86 2 7.4949011141052875e+00 9.3864388385872761e+00 4.2566504037800721e+00 3 0 4
878 2 8.7881307020374653e+00 4.0548872640417581e+00 1.7096952600543073e+01 0 0 2
428 2 1.1781101216006036e+00 2.9087485651472829e+00 1.3105102463212417e+00 1 0 4
544 1 2.7524940099505515e+00 1.8582428514593023e+00 6.6244089020086232e+00 0 0 2
896 2 -3.0187284438958484e+00 9.3867097616763200e+00 1.4610518890624542e+01 1 0 2
552 2 1.6541634819707003e+00 5.2983866420770545e+00 1.5004129856866046e+00 -4 0 0
139 1 5.3688015648152128e+00 -4.9554460214919505e-01 4.4895047126011312e+00 -4 0 3
172 1 5.4011399025039477e+00 1.5235542847705763e+00 7.1350049528733761e+00 0 0 3
916 1 4.7012450518489448e+00 9.0763183060994344e+00 1.4287847065343533e+01 -3 0 2
174 2 4.4961735818287929e+00 1.5383854761550446e+00 6.7893848445728695e+00 0 0 3
317 2 1.0574218150385903e+01 3.9556989529069257e+00 1.0151840575296712e+01 1 0 -2
306 2 8.2966383023969854e+00 7.1333578821084442e-01 3.9607732317376394e+00 1 0 1
723 2 -7.8679899961664201e-01 2.3114922844140913e+00 1.0579886892968174e+01 4 0 4
838 1 4.3225225810719703e+00 -2.3299320737259077e-01 9.1482457028324315e+00 1 0 -3
819 2 -7.7535798753352614e-01 -3.4722475425458277e-01 3.2494493851397861e+00 0 0 -1
104 2 1.1454871276825893e+01 2.6868401083135196e-01 2.9202615065282349e+00 0 0 2
547 1 5.8269207241667509e+00 9.8315121390984554e+00 5.0445208940069914e+00 -3 0 0
832 1 5.1487141042127247e+00 1.0600632381735677e+00 7.0701824304118388e-01 0 0 4
502 1 5.4415455690204215e+00 7.1717717652538653e+00 4.4645203925567127e+00 0 0 4
261 2 8.1024953372558990e+00 3.8660693469981311e+00 1.1378589012897130e+01 -5 0 1
1036 1 1.4342804310690415e+01 5.9436841924601520e+00 2.7533672417189639e+00 -1 0 0
1673 2 4.9694341466834446e+00 5.2491720257426113e+00 6.3705442278250157e-01 1 0 1
708 2 5.8147477463620501e+00 6.5231597724446102e+00 1.8362845458768490e+01 2 0 4
148 1 4.6623555616897363e+00 3.4327133688048850e+00 8.8800075773511100e+00 1 0 -2
846 2 -2.0921672340169333e+00 4.6242718132124789e+00 1.1738278579144676e+01 0 0 1
722 2 3.4020346776832699e-01 1.7167531513555523e+00 9.6131559632449317e+00 4 0 4
857 2 -1.2748143119808861e+00 7.1286090433193028e+00 7.0946488390817848e+00 -2 0 3
153 2 4.8562619424694340e+00 4.0430124563315832e+00 6.9437986510375644e+00 1 0 1
274 1 3.9562892553864448e+00 6.8920590205550960e+00 9.9898209561855165e+00 -2 0 0
757 1 1.0615554208542719e+01 6.8651418439655716e+00 1.1752373353178267e+01 -5 0 -1
63 2 3.7483164572349796e+00 1.0038114330915425e+01 1.1230936344643359e+01 1 0 3
951 2 9.3865098252864758e+00 2.3582624241630623e-01 1.8806250590083515e+01 2 0 3
790 1 3.8476708216568056e+00 2.6627087367267244e-01 1.7133135516954468e+01 1 0 3
691 1 6.7418020723505290e-01 1.6837923709962865e+00 1.2951520524093114e+01 -1 0 1
204 2 1.6881396291844048e+01 5.0027848487622011e+00 2.6426396185793348e+00 -1 0 5
289 1 1.2299657849938431e+01 4.1210524478983768e+00 1.9265104314655397e+00 1 0 1
496 1 1.3714917875067426e+01 1.0322330189471550e+01 2.5376771032047731e+00 -3 0 1
733 1 2.2904328404340379e+00 -2.4928469945095433e-01 2.4753506100589280e+00 1 0 4
11 2 1.2332003333558715e+01 5.3147640913977101e+00 4.7896950406309768e+00 -1 0 -3
961 1 9.4696607649196931e+00 7.3075276658781352e+00 5.7661173403426691e+00 1 0 1
704 2 1.5341801125958572e+01 1.7879080328230872e+00 7.1904598530966677e+00 -2 0 1
126 2 8.2611809030986407e+00 9.0391164961895107e+00 8.6394560340605491e+00 1 0 4
569 2 -1.2064595074091324e+00 8.7132261708125558e+00 8.6896803251492614e+00 -1 0 -2
855 2 -1.2107545708120906e+00 1.3578070188355356e+00 1.6379556633280995e+01 1 0 0
291 2 1.3128956658312958e+01 4.5030157198166485e+00 2.2169353425783189e+00 1 0 1
841 1 1.1856410987197131e+01 3.4712192012358702e+00 9.0734757107414499e+00 0 0 1
721 1 -5.4669238656653318e-01 2.1283088440893616e+00 9.6655767668986012e+00 4 0 4
192 2 7.7015248800886980e+00 4.8717917505130863e+00 8.5236598880266410e+00 1 0 -1
229 1 1.5878245976909113e+00 8.3269908715780954e+00 1.7629600059859992e+01 2 0 2
768 2 1.2726502580260096e+01 3.0243841495189003e+00 1.0528694012795281e+01 -2 0 1
260 2 7.0987250970661018e+00 2.7071676290789277e+00 1.1082520853462933e+01 -5 0 1
168 2 1.6258292219224355e+01 6.7287268579239488e+00 4.8681800240590691e+00 1 0 2
200 2 7.2278092621189618e+00 7.3712475341566339e+00 1.1708790415161509e+01 -2 0 0
350 2 6.2900818940558398e+00 7.2155586408604560e+00 6.1618334831565376e+00 0 0 2
463 1 1.1320079681545270e-01 5.6295049954115388e+00 1.4303452821246733e+01 2 0 0
778 1 2.3969864238050986e+00 1.9346564297223199e+00 1.8438022899069331e+01 -1 0 2
51 2 1.1635316077812719e+01 1.0796251498602329e+00 6.9280176280263390e+00 1 0 3
548 2 4.9406259562802664e+00 9.5028164158500044e+00 5.4188158356137599e+00 -3 0 0
604 1 5.2384953881544059e+00 2.1606136710099655e+00 1.5998552948896657e+01 -2 0 2
590 2 -3.1948765294578725e+00 2.5427220913081281e+00 1.7775621759299963e+01 -3 0 -1
183 2 1.7459053465304020e+01 9.0590829179319954e+00 6.8710538883729644e-01 1 0 5
268 1 1.1028008110351495e+01 5.8168077540612542e+00 3.5757271841614674e-01 2 0 2
706 1 6.6646217714605251e+00 6.6679352687114095e+00 1.7948030464543603e+01 2 0 4
464 2 6.1952031678584962e-01 4.9970710122163764e+00 1.3757087491970967e+01 2 0 0
806 2 -9.0867307751029802e-01 6.7781526747207694e+00 1.2214895927123013e+01 8 0 5
914 2 1.4232793941091934e+01 4.8126295920354387e+00 6.3998853226746260e+00 -2 0 1
1005 2 3.9059663016059760e+00 7.4664522487777116e+00 6.6217226615481319e+00 3 0 0
40 1 9.5551540091781124e+00 8.2876518102116457e+00 9.5507973466078546e+00 0 0 5
675 2 1.0394298772979436e+00 8.6389995290464103e+00 4.0876979959219213e+00 0 0 2
287 2 1.7733730658138578e+00 3.6262013800734794e-01 7.1264417308314290e+00 -3 0 2
737 2 1.3425608071766149e+01 1.5697257528971549e+00 3.1575162325727559e+00 -2 0 1
100 1 7.6332122537967155e+00 4.2570274467397713e+00 5.5044482862635764e+00 2 0 2
858 2 -1.0264587467012576e+00 6.4139330687854370e+00 8.5150027402590798e+00 -2 0 3
494 2 7.5847764830907751e+00 -8.7879740010030427e-01 7.6396981332562758e-02 0 0 2
84 2 6.7096595677420936e+00 7.8363874310200532e-01 1.6229655406024285e+01 0 0 -2
874 1 3.6787134038093257e+00 4.0198863365280264e+00 3.9445556089137122e+00 -2 0 5
844 1 -2.1053905080090560e+00 3.5951172571454579e+00 1.1598000525491374e+01 0 0 1
14 2 1.6091469676055175e+00 4.3903596892027252e+00 7.8949169863343585e+00 2 0 0
717 2 -5.4060938934319145e+00 5.2726383434883202e+00 1.8212285652651325e+01 2 0 4
567 2 7.2024022074715566e+00 9.5457803019600806e+00 1.6181036002298558e+01 -2 0 -2
177 2 -2.5686889869170528e+00 7.9496497947248663e+00 1.7572198243007840e+01 -1 0 1
582 2 1.4942631135691572e+01 1.3067229141954986e+00 1.2719796283632201e+00 -2 0 3
339 2 8.5294461178316006e+00 1.0074303903902315e+01 1.4922971488465913e+01 1 0 1
130 1 1.1415704362250313e+01 -4.5754061989039685e-01 1.4012890735325781e+01 -3 0 -2
605 2 4.6392906409720291e+00 2.8346277051116253e+00 1.5635683546856624e+01 -2 0 2
599 2 4.4782978098971409e+00 1.0335779430095642e+00 3.9433806991568048e+00 -1 0 4
839 2 3.4324673192965274e+00 1.8405964212352055e-01 9.2566547027843988e+00 1 0 -3
67 1 9.2853035586669908e+00 2.2421458049911624e+00 1.5881569927441902e+01 0 0 3
1532 2 1.1076192238409492e+01 1.0154949357608011e+01 7.2199262905025501e+00 -1 0 0
140 2 6.3021300016975177e+00 -2.2016840447383212e-01 4.5973819595548964e+00 -4 0 3
528 2 8.9507598223952911e+00 4.3951442171003494e+00 1.3813850886703690e+01 -3 0 3
409 1 1.2444106645571541e+01 8.2929798453708248e+00 1.3345330133248282e+01 -3 0 3
1025 2 2.7350749689817522e+00 6.0864204744109927e+00 1.0522241354849763e+01 0 0 0
965 2 1.4553447525710423e+01 6.0067506045804819e+00 9.7727011687284566e+00 0 0 4
551 2 2.7978832622064806e+00 6.3478097064368555e+00 1.3310422970805851e+00 -4 0 0
854 2 -1.3845890029397543e+00 -1.4699916136360491e-01 1.6878298133449146e+01 1 0 0
273 2 6.1607948345604235e-01 1.3990174235456823e+00 4.0324863205350923e+00 -2 0 1
199 1 7.5133604824387437e+00 6.4539358480072284e+00 1.1420346193989719e+01 -2 0 0
473 2 1.3184141261176851e+01 4.3634133587151736e+00 1.2185270554872941e+01 1 0 4
405 2 -5.2382521150475476e+00 1.4814023682302984e+00 1.8831313951858846e+01 1 0 -1
805 1 -1.7919440589155942e+00 6.3196847421536582e+00 1.2145685710589467e+01 8 0 5
963 2 9.8734141603649821e+00 6.5207748711550355e+00 5.3916053752303155e+00 1 0 1
988 1 1.1477173932570583e+01 5.7866396963341931e+00 7.8301850562214783e+00 3 0 2
488 2 5.1184109195804988e+00 5.7627348954510271e+00 1.3390589442644544e+01 -5 0 -5
250 1 1.5518852748061095e+01 1.9917413434445805e+00 2.5116978740128539e+00 2 0 5
53 2 6.1969357233560665e+00 4.4974726623519636e+00 2.2129088533862409e+00 1 0 4
598 1 3.9718909938258946e+00 1.4555301849886697e+00 3.2337940866526167e+00 -1 0 4
238 1 -2.7996499550687366e+00 9.8434794987139149e+00 1.1102136195880110e+01 0 0 1
962 2 8.6303645357663843e+00 7.0837474717036395e+00 6.2037715930570005e+00 1 0 1
102 2 7.5475615133235738e+00 3.2763694059432815e+00 5.4049119098076712e+00 2 0 2
408 2 2.0569951152733985e+00 4.7619693162656134e+00 1.2346954298790829e+01 -1 0 2
381 2 2.4657299986871446e+00 1.4229953177715489e+00 1.0417083095686881e+01 2 0 3
152 2 4.4329831548450533e+00 4.1504702543995675e+00 5.4538402948633351e+00 2 0 1
515 2 9.7505768609895735e+00 6.8896389899186641e+00 1.6035002163483568e+01 1 0 2
470 2 1.3179236843727564e+01 8.1598112321182281e-01 1.3668387973381426e+01 -2 0 1
275 2 3.7923673416984558e+00 7.8785531041455457e+00 1.0070656851954382e+01 -2 0 0
516 2 1.0643520322021775e+01 6.3284158441789105e+00 1.4879676958350847e+01 1 0 2
251 2 1.5992164022743479e+01 2.7750104657613615e+00 2.0416641167133558e+00 2 0 5
507 2 -2.7570563454168591e+00 8.6700014494861062e+00 1.2643367528709097e+01 0 0 1
521 2 -3.3089474933885308e+00 5.7236260066439097e+00 1.4480800897652655e+01 1 0 -1
191 2 7.0442711931652049e+00 5.6964046188728146e+00 9.6339833567559214e+00 1 0 -1