LAMMPS data file via write_data, version 3 Mar 2020, timestep = 27700000

2016 atoms
2 atom types

0.0000000000000000e+00 1.7931372711906818e+01 xlo xhi
1.1962857512774150e-02 4.4984197119362989e+01 ylo yhi
0.0000000000000000e+00 1.9071991091121205e+01 zlo zhi
4.1147653376562628e-02 -6.6527204978035215e+00 -2.3238063715552926e-02 xy xz yz

Masses

1 16
2 2

Atoms # atomic

498 2 -6.0922662834082102e+00 6.6041969250375923e+00 1.7787609659253931e+01 -1 0 0
897 2 4.7677124927703858e+00 1.0331997584724901e+01 1.2882054739645062e+01 0 0 0
71 2 1.8661359265559367e+00 9.1693126482543672e+00 7.9103666233713463e+00 -1 0 -2
240 2 7.8157317034274332e+00 3.3244012468321853e+00 7.1099374753080067e+00 1 0 0
604 1 -5.4293662498937456e+00 1.6638193894675033e+00 1.8982216053847875e+01 0 0 1
171 2 2.7855973784010080e+00 7.4748908254163906e+00 4.3272822035048346e+00 -2 0 0
795 2 1.3408304055488363e+01 2.8080854804173434e+00 1.2737787820610441e+01 -1 0 1
47 2 1.0328429181112350e+01 2.2034674658125843e+00 8.0130775056758328e+00 -5 0 -1
852 2 1.6500216197374559e+01 9.8378764918747130e+00 4.1260588299986951e+00 1 0 3
800 2 4.0590236555289660e+00 4.2287243603795668e+00 8.0352789357281651e+00 -1 0 -5
975 2 1.3089193978878711e+01 1.8596211484461400e+00 6.3860925955111654e+00 -4 0 0
519 2 1.6532011378908365e+01 9.2020529311875432e+00 1.6053824326483699e+00 -4 0 -1
317 2 1.6767990717324821e-01 3.6714580992633046e+00 1.8656433961452468e+01 0 0 -2
1546 1 7.7295978270318244e+00 3.1201304243867560e+00 2.1570344786578710e+00 -1 0 0
974 2 1.2074715371913790e+01 1.0619243100229447e+00 7.4615727872258875e+00 -3 0 0
790 1 1.6936796503840025e+01 8.7865222656741448e-01 1.0409571429483697e+00 -1 0 1
85 1 8.9937216627839405e+00 7.7053262894097179e+00 1.0194478606946603e+01 2 0 -3
97 1 7.8241691300079665e+00 1.6957247196891654e+00 4.5250207012268451e+00 -2 0 -1
72 2 1.1497988636287214e+01 8.6676429279555745e+00 6.9124848863867774e+00 2 0 4
886 1 1.2305340782472172e+00 1.0876899464156002e+01 1.8077963549455632e+01 -3 0 -1
615 2 7.1390191866299952e+00 9.7251023690696154e+00 1.0028286354345681e+01 1 0 0
153 2 2.1016647034267661e+00 4.1323082182811843e+00 1.4492660122290060e+01 1 0 0
787 1 4.8754481975651691e+00 8.9044657856095952e+00 1.4353826446795956e+01 0 0 2
87 2 8.9560315201142853e+00 6.8922612041396931e+00 1.0754702554946952e+01 2 0 -3
497 2 -5.3545761591621250e+00 7.5653333365789486e+00 1.6699251691846992e+01 -1 0 0
1914 2 7.4535558162621207e-01 2.0323116440879656e+00 1.2841469601327512e+01 -3 0 2
966 2 4.4340619361590958e+00 6.7290285075316190e+00 1.6514156446626593e+01 -2 0 -2
300 2 1.2480846014953308e+01 7.9682671521767316e+00 1.6862567238093664e+00 -2 0 0
718 1 -3.5405472509083511e+00 7.0368998393549429e+00 1.6395168131513678e+01 -2 0 -4
686 2 6.3850205843367247e+00 4.1308339934241181e+00 1.8337945800513211e+01 -1 0 2
309 2 7.3478872378261419e+00 1.0321608468243040e+01 1.5683113144459652e+01 3 0 1
1001 2 1.1669940855239025e+01 6.9571216481127407e-01 2.5864892787647881e-01 -1 0 1
249 2 -4.4055575613245743e+00 9.6149676136159439e+00 1.5202569463808151e+01 1 0 0
674 2 2.2256008744968137e+00 8.7144482748549077e+00 1.2363896898610905e+01 -1 0 -5
973 1 1.2969138606980700e+01 1.4526086966426839e+00 7.2727979938836844e+00 -3 0 0
769 1 3.6770169772675887e+00 1.5962048525762216e+00 1.8747177890184606e+01 0 0 -4
594 2 6.8270911983610771e+00 2.0941295944201959e+00 8.5750785512930729e+00 -3 0 0
177 2 9.5732866249791542e+00 4.3587527050686603e+00 8.5809479615468547e+00 -3 0 4
872 2 3.6114641625492028e+00 8.0032286771757377e+00 1.4721912333253393e+00 -3 0 -1
774 2 1.0880253102469581e+01 4.6363762970139737e+00 1.4756310448673005e+01 0 0 -2
1592 2 1.5048094783832951e+01 3.7379303143135059e+00 6.3490927889905686e+00 0 0 -1
210 2 6.7448031408219258e+00 9.2902733944423732e-01 1.6671781411077308e+01 2 0 -2
765 2 1.6026560786274171e+00 2.4472952285220693e+00 1.0435125654892980e+01 -5 0 -4
513 2 1.0863870600479011e+01 7.2403261357995579e+00 9.1932634561272000e+00 3 0 0
728 2 9.5466891745047828e+00 5.6425733500810233e+00 9.0252461013837815e-01 1 0 1
19 1 1.0332192442747719e+01 2.9210534420728127e+00 2.1514841308773294e+00 -3 0 -2
808 1 -3.5838918341185533e-01 5.3014618968792204e+00 1.6566533026757639e+01 -2 0 -2
1079 2 1.0834301534285904e+01 9.5042122309787835e+00 7.9620331102749491e+00 2 1 4
779 2 5.1950987195008729e+00 4.4185322984498683e+00 5.0370780052792004e+00 0 0 1
205 1 3.0556968513224807e+00 5.5486190520972158e+00 7.1467572941381068e+00 5 0 0
963 2 1.6038270882995803e+01 3.7366035189884377e+00 2.4124385036851295e+00 -3 0 -1
712 1 1.3193648590779652e+00 9.4286656516967877e+00 1.6817881563836823e-01 -1 0 3
885 2 1.1849008818604247e+01 2.6175214208434489e-01 5.0573328378664515e+00 1 0 0
720 2 -3.5199333629941223e+00 6.2577770196823659e+00 1.6996337300709897e+01 -2 0 -4
647 2 1.2425063829232107e+01 5.9195841506366120e+00 3.8264734126635394e+00 -2 0 -1
48 2 1.0164844134188669e+01 2.2944686201573647e+00 6.5280667482422166e+00 -5 0 -1
186 2 8.1266624695324818e-01 2.4145570245969412e+00 1.5115702723679329e+01 -5 0 -9
806 2 5.9752483785086241e-02 1.2555000750794740e+00 1.6853657370437332e+01 -3 0 0
719 2 -3.6206564883429229e+00 6.6558792240134803e+00 1.5480013798885748e+01 -2 0 -4
22 1 7.2230010576182746e+00 8.8117927982089164e+00 1.6683931016824875e+01 -2 0 -2
18 2 1.4083661826439924e+01 8.4737830416009068e+00 7.0927405863880075e+00 -1 0 2
888 2 4.5612362605916879e-01 1.0722210923212854e+01 1.8596072415067880e+01 -3 0 -1
407 2 -2.0282220483805355e+00 3.0248014868812456e+00 1.5435279449233462e+01 -2 0 0
873 2 2.4279923665180609e+00 6.9860855710727225e+00 1.3661764085108470e+00 -3 0 -1
446 2 -4.4637503535539824e-01 7.1900101012179203e+00 2.0789600482684834e+00 1 0 0
139 1 1.0500265030091469e+01 9.4174653046680064e+00 1.1631432200746264e+01 -2 0 -1
199 1 -4.7771607205712190e+00 3.2136929939161138e+00 1.6760471022483642e+01 1 0 -6
1517 2 -2.2482632102113493e+00 7.6042785204606922e+00 1.2764790193365998e+01 0 0 -1
638 2 7.2488660843178376e+00 6.9956655844680204e+00 6.8880833421325587e+00 0 0 1
685 1 5.5654259739260965e+00 4.4488433145597135e+00 1.8026362193101395e+01 -1 0 3
224 2 1.3702859818592636e+01 9.6245882874202344e+00 1.6706792548664444e+00 -5 0 0
770 2 2.8185351205679989e+00 1.1698739608718749e+00 1.8922928023777537e+01 0 0 -4
20 2 9.3765024446181702e+00 3.2296504902309868e+00 2.1108157480121781e+00 -3 0 -2
364 1 5.9367695560054772e+00 6.7519454183368959e+00 1.1681065694286151e+01 1 0 0
337 1 4.7071425346722267e+00 1.4227620962593912e+00 1.4162420364224714e+01 0 0 0
185 2 -1.3312961129119927e-01 3.1496573458836892e+00 1.4346041865385432e+01 -5 0 -10
319 1 3.3303640704349391e+00 1.6031101550647830e-01 6.8924837316640464e-01 -4 0 -2
722 2 4.1349904581816395e+00 4.9019047987616053e+00 2.3786645438411398e+00 -6 0 -2
1536 2 7.1504671052224138e+00 2.9617473965876595e-01 3.2386089220543535e-01 0 0 0
365 2 6.2311693745468837e+00 6.1813358999230408e+00 1.0908781359760042e+01 1 0 0
1088 2 1.9630985250637085e+00 3.8632599959292940e-02 1.6642137936498745e+01 0 0 -2
819 2 5.4780448200628873e-01 3.4052213867268080e+00 2.2292718494847934e+00 1 0 4
663 2 8.4239527327930368e+00 6.1500704144849143e+00 1.7553219921791552e+01 -2 0 0
447 2 -1.2798373185144230e-01 6.0551284285064995e+00 3.0887302353150123e+00 1 0 0
156 2 5.4445407352398361e+00 5.8565864690762428e+00 1.3267281240450629e+01 2 0 -4
900 2 -1.6289010291939654e+00 9.0982143144841157e+00 1.7773288934731301e+01 -2 0 2
206 2 3.2948831644855279e+00 6.1289049326309541e+00 6.3998327746867103e+00 5 0 0
549 2 1.2883533336752084e+01 1.3904254724281404e+00 1.4271658132311243e+01 -5 0 -4
207 2 2.9336659735570598e+00 6.1892493147604126e+00 7.8640676964017668e+00 5 0 0
293 2 1.5190322082288112e+01 1.0194170861313172e+01 6.8035736978603475e-02 0 0 -3
614 2 7.4326898323189274e+00 8.3311345829316679e+00 9.5828770964464649e+00 1 0 0
483 2 5.2006819469187686e+00 8.2617900527876245e+00 7.0314450120969507e+00 -2 0 0
294 2 7.2678004611007054e+00 1.0891399699936640e+01 1.8838884185720225e+01 0 0 -4
444 2 5.2031038334102124e+00 1.5284133442849019e+00 2.7524999942409987e+00 4 0 3
63 2 4.2063197051676067e+00 1.9920621557841043e+00 6.0381816328206730e+00 -2 0 -3
96 2 6.5557290534045620e+00 5.9244352760448162e+00 8.6700972882980221e+00 0 0 -1
151 1 2.9322773174848402e+00 4.4279934880590126e+00 1.4907370183361394e+01 1 0 0
775 1 1.1712441644462675e+01 7.7682607250913884e+00 1.3142004552231054e+01 -2 0 3
77 2 -3.8222858154400785e+00 4.0905965208761081e+00 1.7629727410682094e+01 -1 0 -2
1911 2 1.3974346174949620e+01 6.9289846985749275e+00 4.3562041575027582e-01 -1 0 0
167 2 1.8173881128754030e+00 5.1158625332191541e+00 1.1431800121255712e+01 -4 0 -5
379 1 -3.1505752913586127e+00 6.7509732077888787e+00 1.1874900865582914e+01 -2 0 -1
94 1 6.5574168559392430e+00 5.2755551492580457e+00 9.4319951695002828e+00 0 0 -1
21 2 1.0538442181572259e+01 2.7938423969385489e+00 1.2377484981293303e+00 -3 0 -2
1041 2 1.4599641440133260e+00 2.8257540448945289e+00 6.4381596684427862e+00 0 0 -1
635 2 -1.9184318923631150e-02 6.0153610809771259e+00 1.1146536875578725e+01 0 0 -3
318 2 1.5747717275525419e+00 4.3218142580257757e+00 1.8724776751640420e+01 0 0 -2
547 1 -4.3485390606085614e+00 2.0770381876613970e+00 1.4341076339359386e+01 -4 0 -4
1518 2 -1.2411189160125393e+00 8.8177200278180532e+00 1.2826309183525272e+01 0 0 -1
783 2 1.3112137175450011e+01 1.4427061233515441e+00 1.1121178062060833e+01 -2 0 -2
629 2 7.3600866832403371e+00 2.5012751320005728e+00 1.2322895518859719e+01 1 0 2
445 1 2.5829005921697368e-01 6.5331187443786334e+00 2.3183830719542478e+00 1 0 0
789 2 5.8091430115030942e+00 8.7790872969743674e+00 1.4049721474255827e+01 0 0 2
1581 2 -3.1123922294761277e+00 4.6199688093084932e+00 1.4073993050689699e+01 2 0 -1
154 1 5.2213803651847508e+00 5.5180601476996980e+00 1.4144439234293410e+01 2 0 -4
621 2 1.2095638920166763e+01 6.0366354802063178e+00 6.1154387545865339e+00 -4 0 0
1124 2 -1.2199465925600137e+00 2.2766534965933336e+00 4.3727830929618703e+00 -1 0 0
562 1 7.6266975201820681e+00 1.0309694979772836e+01 6.8935785111709844e+00 -1 0 1
1490 2 3.7206556036207923e+00 8.7643339879563449e+00 7.0678008630024509e+00 -3 0 0
597 2 -2.0888595949063249e+00 2.3113173920718069e+00 1.0290101045190781e+01 5 0 -1
508 1 -1.2879883213270320e+00 1.0345352276945798e+01 1.8841980135526146e+01 0 0 -1
989 2 4.1185275721938046e+00 1.0167478307843556e+01 2.8719467415552762e+00 -1 0 0
938 2 3.6235612725452282e+00 8.3619979644494311e+00 9.7996966922735336e+00 3 0 1
403 1 2.8616639780399451e+00 7.3652657728531485e+00 1.3542821523016700e+01 4 0 1
381 2 -2.7886933762430655e+00 6.0826810290799136e+00 1.1292739303690009e+01 -2 0 -1
118 1 4.4443752019327416e+00 3.1537994381255943e+00 1.2103163233048225e+01 -3 0 -3
492 2 -2.6654241340965803e+00 5.9795642144053076e+00 8.7798962787265697e+00 3 0 1
425 2 1.3162003553122204e+01 8.2447561875421052e+00 9.4732898911265568e+00 -4 0 2
1598 2 5.3113172645505173e+00 7.4955356476567525e+00 4.3817634931804328e+00 2 0 0
1493 2 3.9718814327667111e+00 3.4293302264120200e+00 1.5965110980389680e+01 4 0 3
613 1 6.9197034802883897e+00 9.0862957914091407e+00 9.3024661340998414e+00 1 0 0
634 1 1.6913260138402197e-01 5.2585231598598385e+00 1.1759080850141300e+01 0 0 -3
235 1 -5.9917011425504914e+00 5.4985376445345091e+00 1.8982259785365290e+01 -3 0 0
443 2 3.8667948630685567e+00 1.2874835215260370e+00 2.1084406722972271e+00 4 0 3
9 2 9.5498613351274209e+00 1.8164708217025849e+00 1.1300998897253534e+01 -2 0 -2
433 1 2.7065519681182790e+00 6.4336725855846009e+00 1.6643686154160150e+01 1 0 1
33 2 7.5945266918987411e+00 2.3684575585630823e+00 1.8291145326465248e+01 -6 0 -6
899 2 -2.2753747897356944e+00 8.0322508944654469e+00 1.6776676478930106e+01 -2 0 2
531 2 1.3825429594704701e+01 1.0773918222288732e+01 8.2254447732424829e+00 -2 0 1
223 1 1.3521616586538185e+01 9.0237221337268743e+00 2.4021910744953647e+00 -5 0 0
961 1 1.6748516312770580e+01 3.1290988086294766e+00 2.7716118198618442e+00 -3 0 -1
32 2 8.4564788527876011e+00 3.3331392094269834e+00 1.9056633450026961e+01 -6 0 -6
258 2 1.1458194703117890e+01 4.2119032519879713e+00 2.4689396556438430e+00 -1 0 0
408 2 -1.3712909740778656e+00 4.4303911733354049e+00 1.5577850429435067e+01 -2 0 0
637 1 6.2622138860604180e+00 6.8971881445759919e+00 7.1623507062068192e+00 0 0 1
606 2 -6.3363612256260522e+00 1.3819791934298375e+00 1.9053398905988470e+01 0 0 1
802 1 1.6748761057032939e+00 1.0620010295497078e+00 7.2874960154120059e+00 -2 0 -2
99 2 8.7620401460730584e+00 1.6141091357675392e+00 4.6787268161943656e+00 -2 0 -1
257 2 1.3016848950111839e+01 4.4372920994241349e+00 2.5645371499100325e+00 -1 0 0
1547 2 7.6658095714868013e+00 2.7653565567398619e+00 3.0427243668318864e+00 -1 0 0
209 2 7.1383995665060853e+00 2.3007370914886414e+00 1.5932618885709912e+01 2 0 -2
569 2 -2.2188801595140863e+00 1.0650015319761710e+01 1.1718138372385978e+01 -1 0 2
348 2 -2.2980097650816491e+00 3.7853453296145834e-01 1.2427668249010132e+01 -1 0 -2
1553 2 1.0575060363966001e+01 9.2146955943326905e+00 3.2118328646104803e+00 -1 0 1
939 2 5.1583823329732912e+00 8.6426258943179928e+00 9.6777482352650956e+00 3 0 1
351 2 3.4670238865937009e-03 8.4783351103426625e+00 1.6575854300828158e+01 2 0 2
276 2 5.9845854662570535e+00 7.3715172728066891e+00 1.5079312309422416e-01 2 0 1
36 2 3.8108389014276769e+00 9.6276155936583478e+00 1.8144594439271504e+01 -2 0 -2
170 2 3.3684625473322463e+00 6.0647655154135425e+00 4.0067664738955902e+00 -2 0 0
781 1 1.3246323585581885e+01 6.4196942025932380e-01 1.0624864989820534e+01 -2 0 -2
595 1 -2.2707103067374783e+00 1.5935203576503221e+00 9.6379966767916976e+00 5 0 -1
810 2 2.6556314155339855e-01 4.7911558310730262e+00 1.7134075475773265e+01 -2 0 -2
1408 1 -5.1414851704215558e-01 5.3381981615245220e+00 4.7994755069965809e+00 0 1 -1
76 1 -3.4045394793177413e+00 4.8431274899107990e+00 1.8220344489964504e+01 -1 0 -2
128 2 1.0028545438768965e+01 2.9649860026047961e+00 1.7595235069276747e+01 -3 0 -3
527 2 2.9653879849519882e+00 3.4438398154629000e+00 5.1255245240348604e+00 -2 0 0
1127 2 -3.9791206275174640e-01 1.0890379705395894e+01 2.7520161748861076e+00 2 0 1
121 1 9.3351774134949839e+00 7.1346377385095208e+00 1.4460144645091960e+01 -2 0 -1
729 2 3.9855701384530215e+00 4.9921484909688827e+00 1.8937430479968310e+01 1 0 0
772 1 1.1715718247244098e+01 4.9414515529669583e+00 1.5196361041891958e+01 0 0 -2
1516 1 -1.5682746967136425e+00 8.0599733150799509e+00 1.3397930172241955e+01 0 0 -1
780 2 6.7442004450429565e+00 4.8428291582537781e+00 4.9314549702393400e+00 0 0 0
755 2 1.2293221575232106e+01 1.0812690739661690e+01 1.6188368152145600e+01 0 0 2
788 2 4.2885997432126022e+00 8.1634456086604104e+00 1.4059469762933968e+01 0 0 2
823 1 7.0426688768486247e+00 8.8989961965332354e-01 1.3142666696326199e+01 0 0 0
865 1 1.1765543960975997e+01 5.4595700943611840e+00 1.1614349750691087e+01 -1 0 -1
1096 1 -2.0265102649011579e-01 4.5874541660084738e+00 8.5806749453861517e+00 1 0 -1
915 2 -2.0500628828053062e+00 7.2787717342218290e+00 6.9768143257886708e+00 1 0 2
405 2 1.8841851959607645e+00 7.2476055164170354e+00 1.3800587891735278e+01 4 0 1
31 1 1.4256369521633250e+01 2.8748965929107042e+00 6.8097472716019805e-02 -6 0 -5
676 1 8.3561937143254941e+00 5.0397871881082068e+00 4.4780338186793758e+00 -3 0 0
208 1 7.4577674690508502e+00 1.5382500052842965e+00 1.6449064529676559e+01 2 0 -2
978 2 1.0432499648972410e+01 1.0198348166559443e+01 1.3662305713125558e+00 -4 0 0
608 2 1.0737266676463557e+01 1.0525803924568807e+01 6.0026424906417706e+00 -3 0 -1
700 1 -1.6521401858415650e+00 1.1067024735288605e+01 1.5280713707332874e+01 -1 0 -4
581 2 1.5797924901341913e+01 7.8555349310692506e+00 4.1590797980860570e+00 -2 0 1
1126 1 1.6601205013800698e+01 1.0666343762369742e+01 2.7580395278922514e+00 1 0 1
798 2 8.9951927947812322e+00 8.7567373664517216e+00 1.6371971263380455e+01 -4 0 -1
131 2 9.7510097452448097e-02 6.5979374542034752e-01 1.1196555294370881e+01 2 0 2
5 2 7.5248661340161913e+00 9.0139661644717997e+00 1.4711840020760347e+00 1 0 1
313 1 9.0205364723862456e+00 6.3497655902321526e+00 2.3321104473807450e+00 -5 0 -3
274 1 5.4669570179549734e+00 6.5930147483314752e+00 1.0672840972367176e-02 2 0 1
541 1 -1.6768898453347301e+00 9.5864680293826350e+00 9.1655811587190641e+00 0 0 2
995 2 1.1995071209437112e+01 2.9941314371600649e+00 5.0615653773664366e+00 2 0 2
7 1 1.0185895051018058e+01 2.3746525824650546e+00 1.1729228736579817e+01 -2 0 -2
835 1 2.4900127795093279e+00 7.0734844629856397e+00 9.4676001527424347e+00 -3 0 2
1028 2 -2.9150171008272086e-01 7.1298419712478536e+00 1.3952553536809255e+01 0 0 -1
690 2 5.3507233735700122e-01 1.0455967235277883e+00 4.2425178000336379e+00 0 0 2
490 1 -2.4892983752407289e+00 5.3275809891275019e+00 9.5142904378461903e+00 3 0 1
836 2 2.6600546849011080e+00 6.3303741441433470e+00 1.0102090876740073e+01 -3 0 2
910 1 1.4773131644827444e+01 2.8087101171225842e-01 4.0318077621760420e+00 -1 0 2
129 2 9.4389480687342466e+00 4.3379241200650069e+00 1.7526273420379933e+01 -3 0 -3
593 2 6.7783393037720279e+00 2.5414198474801339e+00 1.0088378053376498e+01 -3 0 0
548 2 -3.5708629948685351e+00 1.5710855752977082e+00 1.4221918003609550e+01 -4 0 -4
986 2 1.0451732502794140e+01 1.7273439816675040e+00 3.5361744123740868e+00 1 0 0
237 2 1.1197536793110245e+01 4.9469225226535958e+00 1.8796803567854830e+01 -3 0 0
27 2 -1.8969383691711670e+00 2.0269322114372579e+00 1.7708106093997113e+01 -2 0 -5
275 2 4.5077879980572710e+00 6.9355028725073513e+00 7.7821004442905836e-02 2 0 1
955 1 5.9740778022243051e+00 5.3077097230199071e+00 2.4275377043471811e+00 -3 0 -1
809 2 -8.8824467687678776e-01 5.7780189321470390e+00 1.7251603346563201e+01 -2 0 -2
964 1 5.4123597506628354e+00 6.6678172180350463e+00 1.6401479025116011e+01 -2 0 -2
804 2 8.6900703860639483e-01 5.9259375577109830e-01 6.9511391106112486e+00 -2 0 -2
503 2 6.6737038245195857e+00 4.5438615795544148e+00 1.4732960263177576e+01 0 0 -1
721 1 3.2472756621327425e+00 5.1426504104776756e+00 2.3919936032122506e+00 -6 0 -2
801 2 4.3031761967712026e+00 2.7058543689408037e+00 7.9202742470801315e+00 -1 0 -5
236 2 4.5405775174814300e-01 5.8878927004024346e+00 7.5716169433835889e-01 -3 0 1
491 2 -3.2255070627164368e+00 4.6860418686687062e+00 9.3181504232402528e+00 3 0 1
733 1 -1.4612297241800309e+00 3.1154030741264673e+00 1.8980929023948683e+01 -3 0 -1
1039 1 1.3710470660069212e+00 3.7364770060806265e+00 5.9842595272756913e+00 0 0 -1
60 2 7.6417389810649512e+00 9.3171530889498957e+00 1.2854931985097231e+01 -2 0 0
580 1 1.5161693871753105e+01 7.2399927716228287e+00 3.6999048791211466e+00 -2 0 1
155 2 4.3712039015750115e+00 5.0528840296484230e+00 1.4209935876544142e+01 2 0 -4
255 2 1.1616034197007442e+01 3.4490304525796667e+00 9.3105728247978448e+00 -3 0 -3
225 2 1.3417600997052491e+01 9.7089240607674725e+00 3.1314080424348392e+00 -5 0 0
673 1 1.4811333320877331e+00 9.1162439139145590e+00 1.1872122266029585e+01 -1 0 -5
366 2 5.1154650274284439e+00 7.1478327678872855e+00 1.1347946040908560e+01 1 0 0
140 2 1.0035464177068128e+01 9.9241475967203936e+00 1.2347143814024081e+01 -2 0 -1
1583 2 6.6602241811882648e+00 3.0803124326039699e-01 4.2092934121653141e+00 0 1 2
1494 2 4.9620484956570508e+00 3.2754152793356965e+00 1.7049555835395534e+01 4 0 3
402 2 9.7277258264799134e+00 2.6113953916289212e+00 1.4897643532235422e+01 1 0 0
380 2 -3.5205695143132001e+00 6.1541549987305446e+00 1.2605130102357993e+01 -2 0 -1
901 1 1.4836992748768951e+01 6.5406671709887672e+00 2.4409368200092668e-01 -1 0 0
176 2 8.0688940464815282e+00 4.7983392777618352e+00 8.8218604018458784e+00 -3 0 4
184 1 7.7734705784407065e-01 2.9153778234935630e+00 1.4325713524735136e+01 -5 0 -10
1996 1 9.9982520012534923e+00 1.6089485499603011e+00 1.6519449531857042e+01 0 1 0
620 2 1.1752259970387726e+01 6.0423670456024761e+00 7.6731725453302673e+00 -4 0 0
777 2 1.2484589266356018e+01 8.1002885621460212e+00 1.3592303588191193e+01 -2 0 3
1554 2 1.1309254477993226e+01 8.0988469578951499e+00 4.0523108856303995e+00 -1 0 1
805 1 1.0148356133996934e+00 1.4233889603138952e+00 1.6832666380739006e+01 -3 0 0
496 1 1.1694048207392731e+01 7.2733053448203995e+00 1.7037392767308486e+01 -2 0 0
17 2 1.3642247988926160e+01 9.6066303954678620e+00 6.0697526648874058e+00 -1 0 2
292 1 7.6270611759252338e+00 9.9876545478962999e+00 1.9038801107832523e+01 0 0 -4
678 2 8.5177691438401375e+00 5.4107291196229941e+00 3.5868816751654404e+00 -3 0 0
688 1 1.4240472635237467e+00 9.6624915901665787e-01 3.8576446759109975e+00 0 0 2
424 1 1.3856190567905816e+01 8.6487898698444727e+00 1.0078589629593550e+01 -4 0 2
715 1 1.1392554476435787e+01 5.4792300395029991e-01 1.3378544553155681e+01 -1 0 1
262 1 1.0358985713160905e+01 3.6898495681246080e+00 5.5666062637732816e+00 -1 0 1
323 2 3.7371525293579122e+00 1.0810572718522302e+01 1.6392622793334098e+01 -1 0 -3
687 2 5.7194886482424545e+00 5.3371290521001811e+00 1.7701102698638419e+01 -1 0 2
247 1 -4.1598117810479245e+00 9.1714635644251903e+00 1.4362822540928192e+01 1 0 -1
605 2 -5.3700956611471469e+00 2.1320520200472632e+00 1.8148757152165331e+01 0 0 1
83 2 1.4869478101304789e-02 6.4764573073668696e+00 5.9924452840490501e+00 1 0 -3
526 1 3.8137055222254106e+00 3.0585010423713492e+00 4.9139328672741076e+00 -2 0 0
95 2 5.7760135298734276e+00 4.7264860116190635e+00 9.2132244716796770e+00 0 0 -1
702 2 -1.7805641230984084e+00 1.0289266358975091e+01 1.5874024407670353e+01 -1 0 -4
956 2 5.7873760246876236e+00 5.7640905011473640e+00 1.5956929419963446e+00 -3 0 -1
401 2 -1.3018750916380488e+00 4.9008894275874351e+00 4.9506780774537331e+00 0 0 -1
1582 1 1.4901485848143221e+01 4.9824944169053618e+00 2.3780002480153946e+00 0 0 2
511 1 1.1787063549068028e+01 7.0201992889536982e+00 9.2442334848705094e+00 3 0 0
86 2 9.4685794452965872e+00 8.2224135555221416e+00 1.0844782621535764e+01 2 0 -3
1580 2 -4.7042270598648894e+00 5.0390068406726209e+00 1.4182002449726756e+01 1 0 -1
1409 2 8.7131165208043715e+00 3.4174738013285793e+00 1.4120122046897553e+01 1 0 0
375 2 1.2872490515914134e+01 4.3932817265914714e+00 7.8325964461370363e+00 0 0 1
163 1 -9.5053617888833530e-01 1.0549611191741382e+01 6.8796610409899648e+00 3 0 0
628 1 7.2874961719353140e+00 3.4431468081347996e+00 1.2058293010670180e+01 1 0 2
937 1 4.4274526583075824e+00 8.5988445266331102e+00 1.0285574588033418e+01 3 0 2
373 1 1.3143370371092278e+01 3.9587443281870178e+00 8.6728881551392245e+00 0 0 1
1098 2 -9.2014967756377608e-01 4.7400652823942648e+00 9.1489213953762114e+00 1 0 -1
778 1 5.9660709422932037e+00 4.6819213554336869e+00 5.5179336946330748e+00 0 0 1
263 2 9.6721010219716561e+00 4.1978601847741546e+00 5.0660920627702675e+00 -1 0 1
234 2 5.5739211468585017e+00 1.1222748359288582e+01 1.7607959264668118e+01 -1 0 1
677 2 8.5975560522540757e+00 5.7833406237220695e+00 5.0615969451041680e+00 -3 0 0
299 2 1.2046439169457450e+01 6.4769420990000537e+00 1.3602758997046085e+00 -2 0 0
4 1 7.7743862212682382e+00 8.2569026677020876e+00 8.8927710189633014e-01 1 0 1
1410 2 1.2863138155994491e-01 4.6538664039345390e+00 5.0764633015533711e+00 0 1 -1
62 2 3.3560885122618997e+00 1.0981440845493646e+00 7.0088589285818443e+00 -2 0 -3
316 1 1.0362798685913868e+00 3.7007373399262735e+00 1.8219867459291699e+01 0 0 -2
950 2 4.7521182487527280e-01 8.7945772700913594e+00 4.3950782885821038e+00 1 0 5
927 2 -6.8820229947735445e-01 7.9531519403714057e+00 9.6139583561360933e+00 2 0 3
46 1 1.0266492372389177e+01 1.6680302274860070e+00 7.2318600597218596e+00 -5 0 -1
799 1 4.1927615823805304e+00 3.4803024104095441e+00 8.6134363980240884e+00 -1 0 -5
152 2 2.6060774041191586e+00 5.2020088344820534e+00 1.5395130529346842e+01 1 0 0
1454 2 1.3801648986928047e+01 2.1517714757434714e+00 1.7243893627560953e+00 0 1 1
509 2 -1.8857897943695043e+00 1.1111527855260714e+01 1.8652767262201806e+01 0 0 -1
793 1 1.3437734555403747e+01 3.1885288592913894e+00 1.1849654305235569e+01 -1 0 1
751 1 1.3394307103401522e+01 1.0606266359271222e+01 4.4350359466474076e+00 -2 0 3
727 1 9.6630909271738386e+00 5.2105763836708281e+00 1.3471030082224193e-02 1 0 1
25 1 -1.8970730761334882e+00 1.6557767628606030e+00 1.6803297959826470e+01 -2 0 -5
434 2 2.2685739469439206e+00 7.3235106723849226e+00 1.6607025515581139e+01 1 0 1
1000 1 1.2280481831113960e+01 1.4049673135114255e-01 7.6869425417546777e-01 -1 0 1
127 1 9.9063946673058325e+00 3.7526735117375924e+00 1.8161388486090026e+01 -3 0 -3
347 2 -1.1647360444733614e+00 5.0728704214031284e-01 1.3521096559123716e+01 -1 0 -2
1080 2 1.3192124214478231e+00 8.3924218120774849e+00 6.7330204295997440e+00 -1 0 -2
543 2 -2.6372755469783233e+00 9.3119205558122360e+00 9.3220051599284783e+00 0 0 2
844 1 7.4803151180704459e+00 1.0790184079182314e+01 1.1585258925619241e+01 0 0 1
821 2 9.0276063997795024e+00 6.1382617804750312e+00 7.1038111636818524e+00 -2 0 1
58 1 7.3536412181828261e+00 8.4869907413883503e+00 1.3207944436142556e+01 -2 0 0
256 1 1.2142162166190335e+01 4.8947123065509111e+00 2.6060326970342822e+00 -1 0 0
216 2 8.4019620953736336e+00 4.9885619639251937e+00 1.2095111809175606e+01 1 0 -1
825 2 6.2491078687373500e+00 9.8009029726300412e-01 1.3794632676563284e+01 0 0 0
667 1 -1.9427079382493613e+00 3.2575947174827959e+00 1.1642943860376747e+01 -2 0 -2
119 2 4.3497343260921548e+00 2.7188590663188110e+00 1.2950797255520291e+01 -3 0 -3
820 1 8.9324038285944276e+00 6.8603779991813143e+00 6.4250554427416828e+00 -2 0 1
735 2 4.9978109539740734e+00 2.7761585540163085e+00 8.2902299251288480e-01 -3 0 0
504 2 7.8027554048149597e+00 4.7280695429639996e+00 1.5858350213150734e+01 0 0 -2
866 2 1.0808993494853436e+01 5.3872224533221944e+00 1.1635847674588844e+01 -1 0 -1
954 2 1.6920847171650648e+00 1.0261080014328416e+01 3.0189679113276826e+00 0 0 3
859 1 9.7044932454045316e+00 1.0485754414817107e+01 1.3974964384974021e+01 -2 0 4
98 2 7.4007432579335202e+00 2.0307982553014741e+00 5.3494497842521094e+00 -2 0 -1
532 1 -1.5792870197903064e+00 2.6814650869544407e+00 7.4199609644723017e+00 -2 0 0
773 2 1.1551963324494935e+01 5.8435126011756351e+00 1.5415780612657759e+01 0 0 -2
668 2 -1.2998246820048367e+00 3.9936263168842547e+00 1.1705239985803059e+01 -2 0 -2
713 2 1.9905224486255548e+00 8.7835772941218373e+00 3.3864678852404684e-01 -1 0 3
596 2 -3.1130376966977056e+00 1.1684250087221033e+00 9.9947664091613664e+00 5 0 -1
1599 2 6.8898690283563360e+00 8.0270615016786628e+00 4.3064477909557750e+00 2 0 0
1123 1 -1.0197251850776172e+00 1.5859546458262321e+00 5.0193267333972384e+00 -1 0 0
662 2 8.9111891410509507e+00 6.4195701821385418e+00 1.6050466491188487e+01 -2 0 0
298 1 1.2101122761335398e+01 7.3964377375349848e+00 1.0034455162774640e+00 -2 0 0
764 2 2.5200794634178627e+00 3.1386257639115063e+00 9.3823637239169173e+00 -5 0 -4
818 2 1.5279924627500561e+00 2.6442957084451790e+00 1.2628977801605699e+00 1 0 4
122 2 1.0110287236980694e+01 7.4991681613017782e+00 1.4022214914047789e+01 -2 0 -1
648 2 1.3517903073834995e+01 6.9559366347199916e+00 4.4546760426031362e+00 -2 0 -1
794 2 -3.5761876921422857e+00 3.1346077342110132e+00 1.1546094890739363e+01 0 0 1
238 1 7.0589009530466820e+00 2.7229811265268551e+00 6.9709634771415727e+00 1 0 0
675 2 1.8435094106744803e+00 9.5221255551871700e+00 1.1084490645235258e+01 -1 0 -5
175 1 8.8204673398454521e+00 4.8399468850931511e+00 8.1333226800828271e+00 -3 0 4
630 2 6.3196005801415449e+00 3.5511066117993320e+00 1.2268900429870772e+01 1 0 2
533 2 -1.9720526889561825e+00 2.2585341945157906e+00 8.1871185405257805e+00 -2 0 0
1591 1 1.4878104639106080e+01 4.5187818847413102e+00 5.8015909162796095e+00 0 0 -1
619 1 1.1930809337321865e+01 5.4519613686857538e+00 6.9563301741330896e+00 -4 0 0
26 2 -2.6573826067270589e+00 1.1115447619715793e+00 1.6721890294994122e+01 -2 0 -5
867 2 1.2131121001923511e+01 4.5145193987687202e+00 1.1764059265742905e+01 -1 0 -1
84 2 2.7728770048217743e-01 6.1245845626577156e+00 7.4645345076408658e+00 1 0 -3
756 2 -5.1862810926879810e+00 1.0001574726025572e+01 1.7440906261811861e+01 1 0 2
1593 2 1.4082414343859552e+01 4.3569571033406138e+00 5.2320139830805505e+00 0 0 -1
264 2 1.0678533164279395e+01 4.2992076097133429e+00 6.2968372189183457e+00 -1 0 1
734 2 -2.1543827779129110e+00 3.7619343583429363e+00 1.8788186435551825e+01 -3 0 -1
1552 1 1.0446741719053762e+01 8.3893821902260530e+00 3.7189902076644401e+00 -1 0 1
851 2 -1.2051169817798362e+00 9.5537295807419067e+00 5.6627583865655682e+00 2 0 3
169 1 3.4422663421171280e+00 6.7958308011682869e+00 4.6394299239645971e+00 -2 0 0
1455 2 1.2796819692076213e+01 1.0704346153863247e+00 1.9033528172988605e+00 0 1 1
914 2 1.4827372506097943e+01 6.1528737935908984e+00 6.8007699072863996e+00 0 0 2
1029 2 2.1781052960047997e-01 6.1681733461803283e+00 1.5090266353922731e+01 0 0 -1
239 2 6.5024507901429276e+00 3.4614364252725656e+00 6.6043478076476001e+00 1 0 0
976 1 1.0301016931788009e+01 1.0500568935205342e+01 2.2921338017030068e+00 -4 0 0
214 1 9.0924469966474213e+00 5.6917024586606049e+00 1.2064317730525559e+01 1 0 -1
338 2 4.5845725036349458e+00 1.7135153201221021e+00 1.5090926786418139e+01 0 0 0
315 2 9.7455376758851848e+00 6.8801039799619383e+00 2.5737032754613502e+00 -6 0 -3
669 2 -1.7092212545965082e+00 2.6500316902519465e+00 1.2347272833987297e+01 -2 0 -2
82 1 1.2635141562431551e-01 6.8596191152594432e+00 6.8644944431601598e+00 1 0 -2
314 2 8.4160136753625761e+00 7.0354658577515332e+00 2.2589617280122662e+00 -5 0 -3
904 1 1.1740644701772567e+00 1.6153225188801825e+00 1.2045685745369868e+01 -3 0 2
902 2 1.5405478082365995e+01 7.3078133552701567e+00 5.0969964569242088e-01 -1 0 0
1997 2 1.0572672577696807e+01 8.1910128226794898e-01 1.6543010933951578e+01 0 1 0
61 1 4.2838906825112293e+00 1.4480087590539570e+00 6.8790650947082428e+00 -2 0 -3
1453 1 1.3327975482073374e+01 1.6891239412173282e+00 2.4777566308802927e+00 0 1 1
926 2 1.5354578004478014e-01 8.2017629276639461e+00 1.0929029706261007e+01 2 0 3
807 2 1.0880856688913401e+00 2.1375937122116810e+00 1.7532306127267471e+01 -3 0 0
949 1 1.3386242996251190e+00 8.6432360367619108e+00 3.8829384088862744e+00 1 0 5
141 2 1.1189660793685224e+01 8.8113552947466705e+00 1.2122464963987690e+01 -2 0 -1