LAMMPS data file via write_data, version 3 Mar 2020, timestep = 1000000

1008 atoms
2 atom types

2.1155888172105541e-01 1.8187996118271535e+01 xlo xhi
5.6156070456612639e-02 2.2514232929535389e+01 ylo yhi
2.1996408434524284e-01 1.9285751915645623e+01 zlo zhi
-1.5596066409779750e-03 -6.5799684158346281e+00 -3.3742327100736991e-02 xy xz yz

Masses

1 16
2 2

Atoms # atomic

1 1 6.7629172234291461e+00 1.1632556896562780e+00 4.5250620392368877e+00 0 0 0
311 2 1.1131694907461771e+01 1.1035664352033265e+01 5.9695766791632492e+00 0 0 0
3 2 6.6920716031476912e+00 1.6350851292313882e+00 3.6723159685924558e+00 0 0 0
4 1 3.7781133884823141e+00 1.1853029863031124e+00 4.9818949590111457e+00 0 0 0
5 2 4.7072983344247223e+00 1.0265856449086663e+00 4.8730246592907296e+00 0 0 0
6 2 3.7318573212842976e+00 1.5942193304771495e+00 5.8604906241136838e+00 0 0 0
7 1 -5.3311767413038003e-01 6.4620300138699234e+00 4.9168724715226180e+00 0 0 0
8 2 -3.2201658332994820e-01 6.2444966045427091e+00 5.8560729204781978e+00 0 0 0
10 1 2.3419618727044540e+00 6.4945521059413505e+00 5.1143216577342177e+00 0 0 0
11 2 1.4524136002610968e+00 6.9226693899742768e+00 5.0772164399029327e+00 0 0 0
12 2 3.0332417073168236e+00 7.1962356679922568e+00 5.0584893741552168e+00 0 0 0
293 2 1.2830723899644921e+01 1.0542481774962241e+01 7.1252195580517164e+00 0 0 0
14 2 5.0052022537122927e+00 5.1910943856634590e+00 8.5823201623574903e+00 0 0 0
152 2 7.4883335952589762e+00 6.8063002516667082e-01 7.8108993862004876e+00 0 0 0
309 2 7.8481139311007988e+00 1.1167874458772593e+01 3.1719349839949222e+00 0 0 0
18 2 5.5835706945430701e+00 4.9556061415373298e+00 8.2556365293405709e-01 0 0 0
163 1 1.5811189946487662e+01 1.2015884995480735e+00 3.3997485027578289e-01 0 0 0
145 1 1.7285866832983984e+01 7.0462083797110955e+00 1.6372595147574087e+00 0 0 0
21 2 1.1240397226860375e+00 2.0313040912602265e+00 1.0973178552617961e+00 0 0 0
222 2 3.2265108682804700e+00 1.1153805806820221e+01 3.0759262962606546e+00 0 0 0
9 2 -1.2266263107292856e+00 7.1475636117429948e+00 5.0252194923277722e+00 0 0 0
217 1 6.7554186175902871e+00 1.0545237638082313e+01 6.3343856938602157e+00 0 0 0
25 1 4.6380143868591981e+00 6.0102526193485373e+00 7.0721706886436504e+00 0 0 0
26 2 5.1111317397515146e+00 6.8221496146812699e+00 7.4489795899430353e+00 0 0 0
27 2 3.7109378040423024e+00 6.1166051969698509e+00 7.2464133655825815e+00 0 0 0
28 1 5.9619886064210554e+00 6.0732036090775976e+00 2.2934473368636712e+00 0 0 0
29 2 5.8926328459738118e+00 5.6682704542796820e+00 3.1645392007924902e+00 0 0 0
30 2 5.3057137637173213e+00 6.8651799482811890e+00 2.2760408384890538e+00 0 0 0
31 1 1.1719156141850835e+00 9.9397938961409893e-01 2.5658449993670192e+00 0 0 0
32 2 2.1010893976058345e+00 6.2118260767705535e-01 2.5738220875000830e+00 0 0 0
33 2 9.5477294279299563e-01 1.2803069486554364e+00 3.5076365353044237e+00 0 0 0
34 1 3.0015487116739159e-01 1.1296806462590889e+00 7.2827709728629637e+00 0 0 0
521 2 2.2113183717484097e+00 5.3710290770485329e+00 9.4654935939721643e+00 0 0 0
36 2 4.4511240078169623e-01 1.6854487200072301e+00 8.0650308558134540e+00 0 0 0
37 1 6.5226904411617204e+00 2.5595564810352887e+00 2.2367838840495287e+00 0 0 0
38 2 5.6183855914114700e+00 2.8695921428116353e+00 2.2990227311373146e+00 0 0 0
39 2 7.0577237351846804e+00 3.2739558501918502e+00 2.6854280792326999e+00 0 0 0
40 1 4.0915605238499317e+00 2.5938742664549377e+00 7.1774781892825201e+00 0 0 0
41 2 5.0245113975734839e+00 2.7515582727456023e+00 6.8732210535511387e+00 0 0 0
42 2 3.5224902530947184e+00 3.3997353629458922e+00 7.0558949001506743e+00 0 0 0
43 1 -1.8060512728704703e-01 4.9489888356647311e+00 7.3027351805857865e+00 0 0 0
44 2 -8.7465849094101755e-01 4.3965293521959081e+00 6.8568022018269499e+00 0 0 0
45 2 -3.4740178615400508e-01 5.0502324096128133e+00 8.2433689307275753e+00 0 0 0
46 1 1.8094070127941364e+00 5.2050227797151116e+00 2.6884290648849114e+00 0 0 0
47 2 8.2422294998732348e-01 5.0420010732852480e+00 2.8529292952154091e+00 0 0 0
48 2 2.0170678168837402e+00 5.7515035044075438e+00 3.4667547862227348e+00 0 0 0
49 1 6.6100077272960718e+00 3.2713934676894807e+00 6.2099262920351528e+00 0 0 0
50 2 6.1374469159888658e+00 3.7066782634077065e+00 5.4678438633922530e+00 0 0 0
51 2 6.8790950771346209e+00 2.4372435795129497e+00 5.7685259612526023e+00 0 0 0
52 1 3.9878240763505630e+00 3.3228900082237440e+00 3.2239249151214917e+00 0 0 0
53 2 3.1833427113886730e+00 3.8918931447087992e+00 3.1729350129886353e+00 0 0 0
54 2 3.7202221564277140e+00 2.5197632798057796e+00 3.7055638820435912e+00 0 0 0
55 1 -5.9221332952543881e-01 4.2602401787497053e+00 3.2810743253692141e+00 0 0 0
56 2 -8.0555095511029995e-01 4.8711919936091101e+00 4.0444575044674922e+00 0 0 0
57 2 8.3066271385168200e-02 3.6641268238898976e+00 3.7256415278815269e+00 0 0 0
58 1 2.2974177483798979e+00 4.2205474630479589e+00 6.4418055563172807e+00 0 0 0
59 2 2.2897537978172355e+00 5.1129242127680623e+00 6.0139833592223839e+00 0 0 0
60 2 1.4466057943946775e+00 4.2059639944334153e+00 6.9254330270045843e+00 0 0 0
61 1 8.4724115491760728e+00 6.9824464149760646e+00 1.9040379666552603e+00 0 0 0
62 2 7.6301180172446772e+00 6.5894109450089786e+00 2.2372504177072177e+00 0 0 0
63 2 8.7974958703759611e+00 6.2252955777483070e+00 1.3619181686449224e+00 0 0 0
64 1 2.4936700708139901e+00 6.6879928419163397e+00 8.4294975884693688e+00 0 0 0
65 2 1.7283939507938424e+00 7.1304205112607661e+00 8.0659782410458085e+00 0 0 0
66 2 2.8267005727482188e+00 7.3822812547407928e+00 9.0693924868710596e+00 0 0 0
156 2 1.2241215755668287e+01 7.4009680192633509e-01 2.0433213629248677e+00 0 0 0
68 2 -2.2993657014393896e+00 1.2019019163291582e+00 8.9782763332857254e+00 0 0 0
248 2 7.8683745884239888e+00 8.2001430844250685e+00 4.6849691297554374e-01 0 0 0
72 2 3.8533126409810849e+00 1.2927676911331849e+00 1.3146729861895885e+00 0 0 0
73 1 5.2781398864227782e+00 4.9802273134417838e+00 4.7700074822647354e+00 0 0 0
74 2 4.7991024222131218e+00 5.5080221781483960e+00 5.5110058666087856e+00 0 0 0
75 2 4.6700122945470195e+00 4.3867865999217193e+00 4.3137489723708589e+00 0 0 0
76 1 7.7434188317186226e-01 2.4144787484804584e+00 5.0248140741829621e+00 0 0 0
77 2 5.1300078488901213e-01 2.0486615003798816e+00 5.9217985132436679e+00 0 0 0
78 2 1.4360623218291246e+00 3.0888115958431275e+00 5.0526575441031119e+00 0 0 0
306 2 1.3808172840442060e+01 1.0472006949807810e+01 2.9867710858128791e+00 0 0 0
154 1 1.2999410601242497e+01 5.2740853835912582e-01 1.4689465069723577e+00 0 0 0
836 2 1.3053367241854691e+01 9.4369595486728013e+00 9.2254664150347701e+00 0 0 0
85 1 1.5713571930426074e+01 8.7441832349611359e-01 5.3325231270142623e+00 0 0 0
87 2 1.5865205375165774e+01 1.0904722195111880e+00 4.4078481101810887e+00 0 0 0
88 1 1.2965689702559811e+01 9.0542038194662133e-01 5.2977496383049738e+00 0 0 0
89 2 1.2865811701795074e+01 1.7136123359917605e+00 4.7440043126987330e+00 0 0 0
90 2 1.3940660898746662e+01 7.9513154930384844e-01 5.4531611120552324e+00 0 0 0
91 1 8.1860223914504520e+00 6.4533234835351889e+00 5.2908447209571756e+00 0 0 0
92 2 7.8440702771234667e+00 5.6598312344874424e+00 4.8447130878727576e+00 0 0 0
93 2 9.0175966538342731e+00 6.7255160971785237e+00 4.9405628291511370e+00 0 0 0
94 1 1.1148724841808347e+01 6.0894733199857853e+00 4.9310401195880278e+00 0 0 0
95 2 1.1861924727363213e+01 6.7328392364547422e+00 4.8592571194285643e+00 0 0 0
96 2 1.1316009087825053e+01 5.5944856088198165e+00 5.7514010401282407e+00 0 0 0
271 1 1.0165147569695959e+01 1.0136486394309507e+01 5.2710830078854798e-01 0 0 0
671 2 8.2558229197752571e+00 5.8449580238912784e+00 9.4809894000703920e+00 0 0 0
696 2 4.6472168577678277e+00 1.0866397139640913e+01 4.6320307111103048e-01 0 0 1
101 2 1.4459265930558592e+01 5.2712224423401830e+00 1.3588502012490409e+00 0 0 0
290 2 1.6263311405118728e+01 1.0909114453895370e+01 2.9517100614887117e+00 0 0 0
35 2 -5.2345040939394960e-01 6.3852532270906048e-01 7.4797609453907414e+00 0 0 0
274 1 9.3741456704181747e+00 1.0375577018886144e+01 9.5623342230858697e+00 0 0 0
668 2 1.2879339721339994e+01 1.5721371042705055e+00 8.9641332740542996e+00 0 0 0
109 1 1.3289812849233291e+01 5.9834539049088713e+00 7.6301728146859613e+00 0 0 0
110 2 1.3540724458506068e+01 5.4248350229935189e+00 8.3353736657654185e+00 0 0 0
111 2 1.2645707507938054e+01 6.6438895643865568e+00 7.9081555211360053e+00 0 0 0
112 1 1.4802573187933829e+01 6.3353551377085360e+00 2.7164130248729745e+00 0 0 0
113 2 1.4445661135132653e+01 7.1775799192125227e+00 2.3316479097079377e+00 0 0 0
114 2 1.5775342681680735e+01 6.4572851941490033e+00 2.8946661146609745e+00 0 0 0
115 1 1.0728137693810739e+01 1.4628720482528177e+00 2.6544262211090244e+00 0 0 0
116 2 1.0594954519387462e+01 2.1221362288109669e+00 1.9560708862328682e+00 0 0 0
165 2 1.6373673973478745e+01 5.3450303696049906e-01 7.9804260685582429e-01 0 0 0
118 1 9.1922679229452910e+00 1.3033709277097349e+00 7.4682432932534031e+00 0 0 0
119 2 9.5888051801495049e+00 1.9012395427997615e+00 8.1385447704117997e+00 0 0 0
120 2 9.5356632446102729e+00 1.4820358444358106e+00 6.5773804788188892e+00 0 0 0
121 1 1.5839706484392721e+01 1.9436346233575974e+00 2.8241311901573773e+00 0 0 0
122 2 1.6284751751260728e+01 2.7938810602570783e+00 2.9998330048362427e+00 0 0 0
123 2 1.5609398983817387e+01 1.9161082665689910e+00 1.8801865051597697e+00 0 0 0
124 1 1.3394721659715938e+01 2.6455925962263676e+00 7.6240920557875951e+00 0 0 0
125 2 1.4302234710068328e+01 2.9927433497615596e+00 7.4578981051087965e+00 0 0 0
126 2 1.3306235248731907e+01 2.0165080640763051e+00 6.8412278749077666e+00 0 0 0
127 1 8.5092375220023051e+00 5.0268307739918603e+00 7.6218943846829807e+00 0 0 0
128 2 7.7805344506264866e+00 4.4326686005873883e+00 7.2582916664056603e+00 0 0 0
129 2 8.3172051404950871e+00 5.8136531121852890e+00 7.0769503583506639e+00 0 0 0
130 1 1.0988084487434151e+01 4.4600701879089604e+00 2.8391135803014897e+00 0 0 0
131 2 1.1659010568117937e+01 3.7751840598597100e+00 2.9769782512959067e+00 0 0 0
132 2 1.1125743320513502e+01 5.0339714661202244e+00 3.6376548342624515e+00 0 0 0
134 2 1.5442963880899136e+01 3.8952990126013840e+00 5.7433822918897857e+00 0 0 0
136 1 1.3247755836597722e+01 2.9698335134469245e+00 3.6590261733075886e+00 0 0 0
137 2 1.3390771704357046e+01 3.7965099753794709e+00 4.1526921994917494e+00 0 0 0
138 2 1.4053771560586812e+01 2.5193753368409952e+00 3.3864833850552150e+00 0 0 0
139 1 8.3125403631122730e+00 4.1284424313972528e+00 3.7588787890780382e+00 0 0 0
140 2 8.9816504683965945e+00 4.1541911392762838e+00 3.1042114827017753e+00 0 0 0
141 2 8.6200809477229878e+00 3.4880021901368550e+00 4.4646041278700608e+00 0 0 0
142 1 1.0880137582379755e+01 4.1781687632446891e+00 6.7427379142714168e+00 0 0 0
143 2 1.1479383595323798e+01 3.8336382739226540e+00 7.3853089670698608e+00 0 0 0
144 2 1.0111750439471145e+01 4.5842398875929113e+00 7.1448224489449208e+00 0 0 0
147 2 1.6881857788914417e+01 7.7553628177536673e+00 1.1132324798232784e+00 0 0 0
148 1 1.0908212978864631e+01 7.0618559846020181e+00 8.5864501002486229e+00 0 0 0
149 2 1.0764332873439107e+01 6.2130334208409392e+00 9.0872394552883602e+00 0 0 0
150 2 1.1189344471515119e+01 7.7937723624335176e+00 9.1219403034109696e+00 0 0 0
301 1 1.5772574371870434e+01 1.0695915946842490e+01 6.3861277730429693e+00 0 0 0
83 2 1.8605535507732884e+00 5.5962697038521210e+00 9.4873291689759043e-01 0 0 0
153 2 6.4032170737387251e+00 1.2722675336653326e+00 8.6339027290167429e+00 0 0 0
70 1 3.6311632591142979e+00 4.5141143955146845e-01 1.8354913459116045e+00 0 0 0
155 2 1.3314063200517827e+01 1.3779588931331239e+00 1.0704138538492662e+00 0 0 0
167 2 1.1260238515423037e+01 5.4537626250168438e+00 1.5002231420250391e+00 0 0 0
157 1 1.4236818899943238e+01 5.0000362706470938e+00 5.1371252415739805e+00 0 0 0
158 2 1.4320562223018479e+01 5.6731261887077755e+00 4.4469634158218412e+00 0 0 0
159 2 1.3879050436166503e+01 5.3511796469177568e+00 5.9511522987138745e+00 0 0 0
160 1 9.7677663426635153e+00 2.4359116289579705e+00 5.0990915672266492e+00 0 0 0
161 2 1.0380005607749196e+01 3.0080154033454232e+00 5.5975146172277341e+00 0 0 0
162 2 1.0204236022422760e+01 1.9313757595324614e+00 4.3838418899958569e+00 0 0 0
694 1 3.9631401798721009e+00 1.0231939044286001e+01 2.4748794218528045e-01 0 0 1
80 2 6.9887009852361697e+00 1.8617742683861793e+00 7.2919734623353938e-01 0 0 0
209 2 3.4859566428566864e+00 1.0859139381100197e+01 7.1024051511173623e+00 0 0 0
169 1 6.6189776145228105e+00 8.4795897072906250e+00 4.6670926578885927e+00 0 0 0
170 2 7.2945181719990186e+00 7.8032796985331183e+00 4.8060774910835757e+00 0 0 0
171 2 6.7344412846701562e+00 9.1741502209022663e+00 5.3677868159022024e+00 0 0 0
172 1 4.0440587704152628e+00 8.6063974161778720e+00 5.2485297571684981e+00 0 0 0
173 2 3.9082353224597783e+00 9.3620316303247009e+00 4.6987785349258875e+00 0 0 0
174 2 4.9284005384973426e+00 8.2702338430690165e+00 5.1379990498330876e+00 0 0 0
69 2 1.5205770725777016e+01 7.7487126557100022e-02 8.0077414589204157e+00 0 0 0
67 1 -2.0368874107043888e+00 3.7729209661970226e-01 8.5055669744184392e+00 0 0 0
224 2 -1.1708906136219666e-01 1.0951022147486393e+01 4.1597557378541028e+00 0 0 0
192 2 4.3906184495325773e-01 9.7200016660854445e+00 8.8632619813722311e+00 0 0 0
199 1 1.3530762699152143e+00 8.5352026854275209e+00 2.8816647073687300e+00 0 0 0
200 2 1.3687114418217599e+00 9.2186338084645900e+00 2.2117447206713976e+00 0 0 0
201 2 6.3744123139572839e-01 7.9398597105655053e+00 2.6683908390194673e+00 0 0 0
202 1 2.8490993189533276e-01 8.0797142101511010e+00 7.3575556756619243e+00 0 0 0
203 2 -6.5790610760720236e-01 7.9324728242156910e+00 7.6476020832577465e+00 0 0 0
204 2 2.4492567209605109e-01 8.7500551775969697e+00 6.6405924106769403e+00 0 0 0
205 1 6.2141981171782881e+00 9.7350111818516325e+00 2.4737274281270136e+00 0 0 0
206 2 6.5888346391794812e+00 9.1485339367914360e+00 3.2638790936550097e+00 0 0 0
207 2 6.5503153995530310e+00 9.4399391039259459e+00 1.5727820875601353e+00 0 0 0
208 1 4.1898116854730256e+00 1.0273132032887837e+01 7.4884255020570505e+00 0 0 0
254 2 1.5714177706822944e+01 9.2234924315772719e+00 5.2995746191191282e+00 0 0 0
210 2 4.2840835383841878e+00 9.5545330627852785e+00 6.7979192719965900e+00 0 0 0
151 1 6.6595559197342880e+00 4.6301452763307427e-01 8.1958260065158868e+00 0 0 0
220 1 3.8303160284111666e+00 1.0611282847442503e+01 3.6356088028769062e+00 0 0 0
133 1 1.5967702840513343e+01 3.3611083308353131e+00 6.3775871950223477e+00 0 0 0
22 1 4.5317299916401454e-01 2.5738467880442255e+00 9.6173324594309797e+00 0 0 0
777 2 6.1626692582045974e+00 1.1187501684640360e+01 9.6191394043661287e+00 0 0 0
235 1 1.5428172125617936e+01 7.5984794601013235e+00 8.1154212613086827e+00 -1 0 0
236 2 1.5176611567063517e+01 8.2917600257774335e+00 8.8428595960449652e+00 -1 0 0
238 1 3.7507480032741070e+00 7.7904652209951353e+00 1.6097316862228164e+00 0 0 0
239 2 3.1080187762172566e+00 8.0098579200839986e+00 2.3386246823509564e+00 0 0 0
240 2 3.9147432649588234e+00 8.6485503137852682e+00 1.2072262956675797e+00 0 0 0
244 1 7.9668937507697835e-01 9.8531376236596682e+00 5.2104432889567303e+00 0 0 0
245 2 1.2153014092194241e+00 9.4424649460894425e+00 4.4322056163846533e+00 0 0 0
246 2 1.4375858662400995e+00 1.0495000213007144e+01 5.5828653669024666e+00 0 0 0
601 1 1.7402888153290149e+01 4.7787337434997328e+00 3.7114483056130604e-01 0 0 1
219 2 6.0389882540677711e+00 1.0446988337792304e+01 7.0694048872110988e+00 0 0 0
253 1 1.5630597687816277e+01 8.4998672541578220e+00 4.6265803186691290e+00 0 0 0
255 2 1.5710767299471954e+01 9.0888515202012368e+00 3.8652125685834138e+00 0 0 0
256 1 1.2677341657901648e+01 8.2703835976181814e+00 5.2661080225016228e+00 0 0 0
257 2 1.3572772871558643e+01 8.0049146672306080e+00 4.9665590470129217e+00 0 0 0
258 2 1.2762573501586930e+01 9.1395606926321147e+00 4.7178053013806434e+00 0 0 0
19 1 1.1224766429689921e+00 2.6090961361385459e+00 2.7966692068610322e-01 0 0 0
272 2 1.0373214175518964e+01 9.8400199486908289e+00 1.3944927876374407e+00 0 0 0
135 2 1.5844132666578490e+01 2.4402460357623759e+00 6.0556386070265296e+00 0 0 0
276 2 9.2733162991873943e+00 9.8456117262424385e+00 8.7466076412330445e+00 0 0 0
283 1 1.0533597439964968e+01 8.8407698684984517e+00 2.7794953415170225e+00 0 0 0
284 2 1.0503272997339540e+01 8.8884796521455840e+00 3.7681935315121780e+00 0 0 0
285 2 9.9769151326422350e+00 8.0929376283465562e+00 2.4680090699578625e+00 0 0 0
286 1 9.1445213876966545e+00 8.6966473078689663e+00 7.3917230209739913e+00 0 0 0
287 2 9.5199113028726909e+00 7.9093901949603547e+00 7.8214114255887965e+00 0 0 0
288 2 8.1733261737279008e+00 8.6676047419458140e+00 7.4568771790864430e+00 0 0 0
289 1 1.5564330299882817e+01 1.0231149064766720e+01 2.5963357989328801e+00 0 0 0
304 1 1.3057232089689400e+01 1.0610305245946728e+01 3.6764085666478499e+00 0 0 0
291 2 1.5823858428262255e+01 1.0081566611507242e+01 1.6430967803399221e+00 0 0 0
292 1 1.3420689735204917e+01 9.9320098737752023e+00 7.5630334284336795e+00 0 0 0
302 2 1.5205075874032710e+01 1.0441819413518592e+01 7.1367424835170770e+00 0 0 0
294 2 1.3208921135272112e+01 9.0599801707650247e+00 7.1478112338024600e+00 0 0 0
583 1 3.5138532002950913e+00 1.4306961597993082e+00 9.6365611003144522e+00 0 0 0
187 1 1.2430497918273595e+00 1.0194685755299613e+01 7.6473549390160156e-01 0 0 0
399 2 8.2235294129994596e+00 2.5380944827709595e-01 9.1425522007682491e-01 0 0 0
84 2 3.0925564371026528e+00 6.1246544751471355e+00 3.6015519011533337e-01 0 0 0
319 1 6.3275055094748627e+00 8.0616443119750301e+00 8.2173837352141739e+00 0 0 0
320 2 6.2809643127587513e+00 8.9408705931548447e+00 8.6341601362489655e+00 0 0 0
321 2 6.7442610122600408e+00 7.5660393904230707e+00 8.9336771721848915e+00 0 0 0
322 1 1.3047693197951876e+01 8.2913328144241909e+00 1.6213714888264599e+00 0 0 0
323 2 1.2352845509314259e+01 8.4796664666071226e+00 2.2909340072918041e+00 0 0 0
324 2 1.2672779304408502e+01 7.4353244447678790e+00 1.2885448135335040e+00 0 0 0
328 1 1.0148972604910449e+01 9.7719654457344980e+00 5.3883661295872320e+00 0 0 0
329 2 9.6717606096447124e+00 9.4996164971418917e+00 6.1619283637021196e+00 0 0 0
330 2 9.5616289717718370e+00 1.0362603526265854e+01 4.8529086071484748e+00 0 0 0
146 2 1.7470457460027099e+01 6.2489704054601356e+00 1.0943180310816647e+00 0 0 0
221 2 4.5581458783110440e+00 1.0296684795632403e+01 2.9896248561566967e+00 0 0 0
189 2 2.1970500213243409e+00 1.0366769691457954e+01 6.7605515168183361e-01 0 0 0
24 2 -4.7766654177013201e-01 2.8555583523357151e+00 9.5346136692031358e+00 0 0 0
237 2 1.4617854336656784e+01 7.3458687141980192e+00 7.6649108578222442e+00 0 0 0
753 2 3.7071632221541693e+00 9.5380504489217763e+00 9.0160920636961190e+00 0 0 0
15 2 3.8715526952553736e+00 4.6266698733454019e+00 9.5503516754282707e+00 0 0 0
100 1 1.4626155679030372e+01 4.9676038755713172e+00 4.3443178099043589e-01 0 0 0
305 2 1.2339249935186940e+01 1.0955080143096628e+01 3.1492905326586240e+00 0 0 0
585 2 3.9075478354936006e+00 2.0133046779074322e+00 8.9902087725141904e+00 0 0 0
117 2 1.0046158632106909e+01 7.9780839561794636e-01 2.3311578921024494e+00 0 0 0
602 2 1.6412619530587079e+01 4.6214145863972833e+00 3.1121935558548069e-01 0 0 0
166 1 1.1513830376579460e+01 6.1158862690300566e+00 7.9045853984594527e-01 0 0 1
587 2 -1.8718685782066640e+00 6.3152521574718081e+00 9.4789181918287113e+00 0 0 0
608 2 6.0918548006072122e+00 3.4571302792730965e+00 9.5454048024229028e+00 0 0 0
2 2 7.4312420119237181e+00 4.1577484158353906e-01 4.5425028253475181e+00 0 0 0
104 2 9.6347967883949224e+00 3.6683026773761171e+00 3.5710076232198040e-01 0 0 1
168 2 1.0725677114574502e+01 6.4700204509145065e+00 3.2270428643218274e-01 0 0 1
584 2 2.8977683634647589e+00 7.8688978954597566e-01 9.1628056733717731e+00 0 0 0
103 1 1.0271473511424215e+01 2.9514121385936201e+00 3.6930964290595025e-01 0 0 0
780 2 1.2990092099451294e+01 9.4946311614074030e+00 4.3232880542703800e-01 0 0 0
218 2 7.5201295398289059e+00 1.1101098952532178e+01 6.5628664073312022e+00 0 0 0
23 2 9.9390519340064554e-01 3.4054634640818411e+00 9.4844701076339906e+00 0 0 0
13 1 4.8669632923497428e+00 4.8793833193418976e+00 9.4827736212463769e+00 0 0 0
20 2 5.1594350813112944e-01 3.3714752220863291e+00 5.2801182118279710e-01 0 0 0
102 2 1.3813911847403496e+01 4.4516129686984334e+00 2.3359502382275105e-01 0 0 0
903 2 4.5858503063343203e+00 3.5679545275876712e-01 1.0298761501297029e+01 0 0 0
188 2 -5.4568539789860182e+00 9.5190621093126548e+00 1.9065359927267547e+01 0 0 0
749 2 -2.0107562638124588e+00 1.0716876135081298e+01 1.4904789376378572e+01 0 0 0
827 2 1.0011687487826531e+01 7.5895427005729070e+00 1.2113549900944635e+01 0 0 0
808 1 9.2758650597570078e+00 1.0873068665716985e+01 1.3089767044071531e+01 0 0 0
105 2 3.5019861323850145e+00 2.2090372211895142e+00 1.8787499103076737e+01 0 0 0
97 1 1.3714111958735936e+01 4.8347499702720116e+00 1.0144361290579329e+01 0 0 0
81 2 1.0191652033556498e-01 6.7826201478456771e-01 1.8721314733844036e+01 0 0 0
807 2 1.2491275817654705e+01 1.0264575266866393e+01 1.5227130820316205e+01 0 0 0
724 1 5.3166271216073646e-01 1.0793196686810713e+01 1.2794583080315117e+01 0 0 0
99 2 1.2754254541657811e+01 4.7555587597925504e+00 1.0088924589515608e+01 0 0 0
721 1 3.5595125005485206e+00 1.0850659976531508e+01 1.5970745547095690e+01 0 0 0
612 2 5.2740862774838471e+00 3.0724126413900867e+00 1.9116837283777887e+01 0 0 -1
249 2 8.7575984234959581e-01 9.1721636967088820e+00 1.8338418201313509e+01 0 0 0
593 2 9.0930864526485955e+00 2.2142861727196508e-01 1.4418694519231252e+01 0 0 0
509 2 -1.4184657336599038e-01 4.0856551349599440e-01 1.4457932098552508e+01 0 0 0
658 1 9.4075730024505013e+00 2.6584153346312012e-01 1.1193766211142812e+01 0 0 0
571 1 -5.3552860036895122e+00 6.2227037575340172e-01 1.7552020802596065e+01 0 0 0
505 1 3.1138458900833177e+00 1.0943615845676662e+00 1.4190470164980633e+01 0 0 0
506 2 3.4679905059830496e+00 1.8708221552286417e+00 1.4707044490817049e+01 0 0 0
711 2 2.2188559433170223e+00 1.0629148808203244e+01 1.2290476851553029e+01 0 0 0
508 1 4.4199250654266731e-01 1.2328984762874198e+00 1.4487811869840412e+01 0 0 0
523 1 -2.2313870424727922e+00 2.7076236621157337e+00 9.9312344405423989e+00 0 0 0
510 2 1.3730647962500031e+00 8.3591175300549925e-01 1.4397744735739684e+01 0 0 0
511 1 -4.1395161592973810e+00 6.6669946297393015e+00 1.4603931983969883e+01 0 0 0
512 2 -4.3847641947946077e+00 5.8592664801987011e+00 1.4098034319563366e+01 0 0 0
513 2 -4.0310768213572796e+00 6.2919665008873400e+00 1.5509848869722713e+01 0 0 0
514 1 -1.1942175405461612e+00 6.3398772939828323e+00 1.4206367867223735e+01 0 0 0
515 2 -1.0145803436214482e+00 5.6010100391951925e+00 1.4899847175761906e+01 0 0 0
516 2 -2.0771773920662064e+00 6.6628912697523388e+00 1.4354100688666223e+01 0 0 0
826 1 9.3505593479276214e+00 8.1916947139496390e+00 1.1558637611259867e+01 0 0 0
519 2 1.8898692250906306e+00 5.2737171068118762e+00 1.8335090294645561e+01 0 0 0
507 2 3.7818670683709836e+00 4.1583443580606055e-01 1.4128849160282495e+01 0 0 0
522 2 2.1020677703092634e+00 4.9690775234019569e+00 1.0944101245107037e+01 0 0 0
669 2 1.2198376535127208e+01 1.6300332458430542e+00 1.0463457503363470e+01 0 0 0
620 2 6.3835166762182389e+00 3.5749944297789593e-01 1.1538426612871922e+01 0 0 0
525 2 -2.1298421899935227e+00 2.1863903736062147e+00 1.0762728870499165e+01 0 0 0
607 1 6.7423872491498713e+00 2.7151523327498888e+00 9.7797235598647063e+00 0 0 0
527 2 -2.8443189822963326e+00 2.1915917646938410e+00 1.8175071841518157e+01 0 0 0
529 1 1.4596142107811039e+00 6.3679240764782099e+00 1.6943064205072954e+01 0 0 0
530 2 1.3163986006986699e+00 5.8077654308117177e+00 1.6105090740565384e+01 0 0 0
531 2 5.5665782915954498e-01 6.7360374990933174e+00 1.7084212983192693e+01 0 0 0
532 1 2.1215265661781340e+00 6.1632849829186327e+00 1.2131703029546960e+01 0 0 0
533 2 2.9404206936921984e+00 6.6185791864596819e+00 1.2068681675322996e+01 0 0 0
534 2 2.1231226169517345e+00 5.8164312312974573e+00 1.3034805313318234e+01 0 0 0
535 1 -1.8590254519090492e+00 1.2523552953753456e+00 1.2121438891478766e+01 0 0 0
333 2 8.6798048755311203e+00 8.6041730367246636e+00 1.8897461840293008e+01 0 0 0
537 2 -9.8978223336307192e-01 8.1960118466459553e-01 1.2068420209391565e+01 0 0 0
538 1 -2.9355233208410083e+00 1.2784631204311805e+00 1.6472423054456112e+01 0 0 0
539 2 -3.7684533565841667e+00 8.7933791819407836e-01 1.6599639790300856e+01 0 0 0
540 2 -2.9757714568351372e+00 1.7621507559571048e+00 1.5633247735041675e+01 0 0 0
541 1 3.0413491254200933e+00 2.5657269003237579e+00 1.1992117470333428e+01 0 0 0
542 2 3.1545664464951191e+00 1.9047972032627261e+00 1.2696810351535428e+01 0 0 0
543 2 3.0852563893869220e+00 2.1986446017719139e+00 1.1075959184637437e+01 0 0 0
544 1 1.1448404792695168e+00 2.5656734076281831e+00 1.6668435231005400e+01 0 0 0
545 2 1.1533524924068095e+00 2.0812645249209720e+00 1.7564010505604152e+01 0 0 0
546 2 8.0909828467908973e-01 1.8751460780835778e+00 1.5975071847793357e+01 0 0 0
547 1 -3.6073774208122220e+00 4.8433794793371225e+00 1.6663535381241683e+01 0 0 0
548 2 -4.3278747867238465e+00 4.1940447975809603e+00 1.6500118778022923e+01 0 0 0
549 2 -3.7746831376189864e+00 5.0681242048860877e+00 1.7623652372017357e+01 0 0 0
550 1 -1.6333054902025594e+00 4.8121936500466393e+00 1.2047159391896223e+01 0 0 0
551 2 -9.6019680162752286e-01 4.0654067561073459e+00 1.2022562110871839e+01 0 0 0
552 2 -1.4057822468704679e+00 5.3186482965974990e+00 1.2884364467407762e+01 0 0 0
553 1 3.6516503875792985e+00 3.2287396029800037e+00 1.6079864206782894e+01 0 0 0
554 2 2.7973923806034264e+00 3.1448995848805881e+00 1.6506528673622221e+01 0 0 0
555 2 4.1423083957182900e+00 3.9853315405677563e+00 1.6463057772295905e+01 0 0 0
556 1 4.1559298794061483e-01 3.2435250085956380e+00 1.2882359091126405e+01 0 0 0
557 2 1.1928834759273634e+00 3.2130519261204946e+00 1.2208061018395380e+01 0 0 0
558 2 5.5119242648939526e-01 2.3666528129093014e+00 1.3466197670350263e+01 0 0 0
559 1 1.3630964108959654e+01 4.1958353236613632e+00 1.3115101563157781e+01 -1 0 0
560 2 -3.8471122890947393e+00 4.5623066083132713e+00 1.2338550877737120e+01 0 0 0
561 2 -3.7163351918638474e+00 3.6477209707247780e+00 1.3652256648957119e+01 0 0 0
562 1 -9.7980244757727153e-01 4.2457366789855699e+00 1.5769731261646719e+01 0 0 0
563 2 -1.6204256365662673e-01 3.8511875510828060e+00 1.6222845466723125e+01 0 0 0
564 2 -1.7415375960785435e+00 4.2465135375817056e+00 1.6425379571369419e+01 0 0 0
565 1 4.5964087424720894e+00 7.1113630401885759e+00 1.1441011799481446e+01 0 0 0
566 2 4.4608363986426394e+00 7.6158270341638969e+00 1.0660101601977923e+01 0 0 0
567 2 4.7091137115341706e+00 6.1769440582577051e+00 1.1248270613754938e+01 0 0 0
568 1 -9.9282882102798542e-01 7.1177608770153444e+00 1.7516372973600134e+01 0 0 0
569 2 -1.1299357689181218e+00 6.1705226970893214e+00 1.7877834382119691e+01 0 0 0
570 2 -8.1456989323592399e-01 7.7037342717926593e+00 1.8261901027954014e+01 0 0 0
823 1 3.5394727410567866e+00 7.8190218409686212e+00 1.8368494814234435e+01 0 0 0
572 2 -5.5822449471980553e+00 1.5118408303794937e+00 1.8012561526599601e+01 0 0 0
518 2 9.6387806775829343e-01 4.4288140033491210e+00 1.9284119654271727e+01 0 0 -1
164 2 8.5539196217195492e+00 6.2002072334671787e-01 1.8893332920638226e+01 0 0 0
576 2 9.8701102997936463e-01 1.1261511284127672e+00 1.0753956636872422e+01 0 0 0
577 1 1.6766176118637155e+00 5.0198236466015009e+00 1.4606775271440103e+01 0 0 0
578 2 1.0762968958423453e+00 4.3534526577678800e+00 1.4240728690664483e+01 0 0 0
579 2 2.3225971090094415e+00 4.5458198094230360e+00 1.5156968308536172e+01 0 0 0
580 1 -2.5081012847899165e+00 2.6989675455355808e+00 1.4304175319093014e+01 0 0 0
581 2 -2.1246089451192560e+00 2.3014724596952467e+00 1.3474302003238916e+01 0 0 0
582 2 -1.8377639043969363e+00 3.3510370757915307e+00 1.4657448448310086e+01 0 0 0
672 2 8.2562266827551323e+00 7.0341683496481267e+00 1.0530945125295197e+01 0 0 0
107 2 9.7224345812957846e+00 1.6229529648097443e+00 1.0428782294986501e+01 0 0 0
589 1 1.2385426363835988e+01 1.1766955604068259e+00 1.4295808378143571e+01 0 0 0
590 2 1.1504270330629534e+01 9.0347541182229441e-01 1.4594641811850124e+01 0 0 0
591 2 1.2412237049109264e+01 1.9851077603580467e+00 1.4892082929960528e+01 0 0 0
592 1 9.5973484819387593e+00 1.0747112781137338e+00 1.4478004571799566e+01 0 0 0
17 2 -1.4490164996282262e+00 3.7967946859164807e+00 1.9014038184137334e+01 0 0 -1
594 2 9.2967303824617904e+00 1.5093261204772350e+00 1.3672346912371308e+01 0 0 0
595 1 4.8601298158229103e+00 6.6277505484045616e+00 1.4804524952859243e+01 0 0 0
596 2 5.0096023336602276e+00 6.4152125917710636e+00 1.5771168542293227e+01 0 0 0
597 2 4.6894708423756013e+00 5.7771768386261000e+00 1.4281806801955858e+01 0 0 0
598 1 7.8035304555242195e+00 6.5720269778420510e+00 1.4385333440554582e+01 0 0 0
599 2 6.9425420280408900e+00 6.9947076401817476e+00 1.4457459284370183e+01 0 0 0
600 2 7.5819666847516913e+00 5.9875696266836007e+00 1.3587231748082909e+01 0 0 0
833 2 6.4999949584038053e+00 9.3228929914019130e+00 1.3912003242266550e+01 0 0 0
603 2 1.0906417601667268e+01 5.1140797462457606e+00 1.8477259357363437e+01 0 0 0
332 2 9.7785668752718227e+00 9.6047153167119355e+00 1.8356937175999494e+01 0 0 0
605 2 1.0843205210139985e+01 5.2595066783485604e+00 1.1036869403746655e+01 0 0 0
809 2 9.9390102891874061e+00 1.0665422965935281e+01 1.2424397688063081e+01 0 0 0
331 1 9.4005499312216454e+00 9.2690646976594611e+00 1.9211118268042835e+01 0 0 -1
824 2 2.8418317339783545e+00 7.6055841042672832e+00 1.7776152707137797e+01 0 0 0
609 2 6.5619456900902735e+00 2.2634024816703247e+00 1.0593202187098644e+01 0 0 0
574 1 8.5236776093713917e-01 2.8972397623087875e-01 1.1185688906755299e+01 0 0 0
611 2 6.3906674885412800e+00 2.4425430011707956e+00 1.8150647861918809e+01 0 0 0
613 1 1.0479268283219239e+01 6.2045992093794844e+00 1.7123318896817096e+01 0 0 0
614 2 1.1222891358316664e+01 6.8820087562015768e+00 1.7261385375697802e+01 0 0 0
615 2 9.6093078444645617e+00 6.6819175977069385e+00 1.7380510339912057e+01 0 0 0
616 1 1.1223813123553141e+01 6.7535424380407099e+00 1.2413974386050324e+01 0 0 0