LAMMPS data file via write_data, version 3 Mar 2020, timestep = 0

2016 atoms
2 atom types

0.0000000000000000e+00 1.7931372711906818e+01 xlo xhi
-1.5824165923746101e+00 4.6578576569290220e+01 ylo yhi
0.0000000000000000e+00 1.9071991091121205e+01 zlo zhi
4.4065230145078862e-02 -6.6527204978035215e+00 -2.3238063715552926e-02 xy xz yz

Masses

1 16
2 2

Atoms # atomic

579 2 2.0883844125950457e+00 6.6699800818464325e+00 1.5973478086097417e+01 0 0 0
223 1 1.7074173912790052e+00 8.2957782849566524e+00 1.8665075750574033e+01 -2 0 -2
995 2 4.9562192426468030e+00 4.9888356953878628e+00 1.2492687414459926e+01 3 0 1
654 2 9.0229780618586162e+00 4.6403816786669871e+00 1.8515552989742158e+01 -2 0 -1
394 1 1.3460234582212115e+01 3.3615608491843405e+00 2.4027149396666299e+00 -3 0 -3
578 2 3.4235667881740275e+00 7.5942371859778870e+00 1.5977699806655636e+01 0 0 0
929 2 1.2280444064220386e+00 9.0438363336880343e+00 5.4312706156261426e+00 1 0 0
530 2 6.4461451507558722e+00 -1.1986318265150446e+00 3.8880916442827380e+00 -1 0 0
705 2 -1.1435174044520711e+00 6.3357407337680938e+00 1.7504683513092687e+01 -2 0 -1
302 2 3.8725279675346549e+00 6.0684957556150518e+00 1.8787616602703331e+01 0 0 -1
299 2 -3.9940675484173136e+00 1.9269540278629851e+00 1.4448947708535151e+01 -2 0 -2
686 2 2.4935103610083558e+00 -1.2090455687310677e+00 1.0954126934360042e+01 -3 0 0
600 2 2.5236726989681793e+00 1.5890114855286352e-02 6.7353192813706366e+00 -3 0 1
406 1 1.9053057378388436e+00 1.8995234758728214e+00 1.2864949115789161e+01 -2 0 -2
320 2 6.4761988217542594e+00 9.6992694744671892e-01 1.5025821399169937e+01 -4 0 -3
596 2 8.2982087796885429e-01 5.1527707413818300e+00 5.2516776167486459e+00 3 0 -2
599 2 2.2032609268594747e+00 8.1652121101882358e-01 8.0871688321235613e+00 -3 0 1
722 2 -3.8200346903797131e+00 7.7890649698257732e+00 1.2845031862155594e+01 -5 0 -3
881 2 -3.0973754888760250e+00 7.6445750221783682e-01 1.0438485014067613e+01 -2 0 2
319 1 7.4714870415709029e+00 1.1059484769192505e+00 1.4989654099219585e+01 -4 0 -3
53 2 5.6028971325701002e+00 2.0421791008421279e+00 1.7283857792166117e+01 2 0 -1
503 2 4.2242573168510660e+00 9.8506250517377714e-02 9.9841383245967705e+00 0 0 0
369 2 1.1087137458776859e+01 9.8932030091584764e+00 1.7889649301000578e+01 -2 0 -1
1583 2 1.0780881016838995e+01 2.0398786461014176e+00 1.7164737368190501e+01 -1 1 1
775 1 1.0238217807738433e+01 -8.0850259772908395e-01 5.1530795006471513e+00 -2 0 2
295 1 1.1668701833627642e+01 5.5103538104749683e+00 1.7190830698827941e+01 1 0 2
407 2 2.6122408482019024e+00 1.7102259143121321e+00 1.2267052247315403e+01 -2 0 -2
707 2 1.4858588660061969e+00 7.4011440124158518e+00 1.2019597089188274e+01 -1 0 -1
330 2 -4.1209716638192848e+00 9.8895020837701555e+00 1.8316701657602447e+01 -1 0 -1
448 1 7.4632352915890818e+00 5.4028916126211630e+00 7.4597600424032438e+00 -1 0 1
244 1 1.3746504415932941e+01 8.1690280099254320e+00 9.5369773456926730e+00 -4 0 -4
737 2 1.0217600205522389e+01 9.1440533929040644e+00 4.3611760885136865e+00 -1 0 1
1914 2 1.5022622907585141e+01 8.9223772234364596e+00 1.1681805800831345e-01 -3 0 2
977 2 1.0043806420716136e+01 -3.4594763109196336e-01 4.8162747858757610e-01 -3 0 0
875 2 1.0918456074211372e+01 6.9940997340693905e+00 8.3233797445740123e+00 -3 0 1
301 1 4.1794486434267695e+00 6.1707724825914099e+00 1.7922308938974801e+01 0 0 -1
1007 2 -8.7598188266503219e-01 5.6378904265504177e+00 4.6372751240578864e+00 -2 0 -2
435 2 -1.9722820270249608e+00 9.2146189375846603e+00 1.8940372953560050e+01 -1 0 0
463 1 2.6737343258015867e+00 7.1828384757034307e+00 9.1667297248376833e+00 2 0 0
449 2 7.1258109234042646e+00 4.8263393853347392e+00 8.2578247805675300e+00 -1 0 1
524 2 2.7345906843687384e+00 3.4107075241933362e+00 1.6247325223357532e+01 -2 0 -4
190 1 2.8311773624990115e+00 9.7587558812929540e+00 1.0609771529742524e+01 -2 0 -3
523 1 3.2417791454822833e+00 2.7798870388930323e+00 1.5725055378718929e+01 -2 0 -4
658 1 5.1650951870403032e+00 3.8085348442444120e+00 1.4035805654525324e+01 -1 0 -2
206 2 5.8951820519133644e+00 1.5950715217546838e+00 1.1741626392593707e+01 3 0 0
96 2 -1.0327803931872119e+00 3.6489783538966885e+00 3.4598877299305570e+00 -1 0 -1
441 2 1.3259290238153207e+00 3.3895503642220897e+00 1.3244427605887958e+01 -2 0 -1
151 1 8.5445028035823452e+00 7.3834377678308138e-01 3.6878625529987832e+00 3 0 0
781 1 4.0484771584735784e+00 5.3628642205862169e+00 2.5048295919721602e+00 -2 0 -2
880 1 -3.2680608333956149e+00 1.4127694085764273e+00 9.7436093036504623e+00 -2 0 2
626 2 2.6797266355088452e+00 2.2593891673014355e+00 1.8690463346936419e+01 0 0 -1
993 2 -2.4292652220800428e+00 3.2770244625308127e+00 1.3690485298642175e+01 2 0 1
703 1 -5.1933381078003737e-01 5.7243650734109863e+00 1.7961981580160618e+01 -2 0 -1
382 1 -5.8904107260296357e+00 1.3582076323007226e+00 1.8270996606598846e+01 -1 0 0
21 2 1.2930040466603337e+01 5.0056535830161755e+00 2.4351839739970780e+00 -3 0 -3
221 2 8.6363246868137633e-01 8.7204713039776802e+00 1.5288094828410527e+01 -2 0 -3
54 2 4.7365546340056692e+00 2.8292370762635555e+00 1.8278238719103665e+01 2 0 -1
857 2 -2.0068485240396514e+00 6.9350337371974664e+00 6.2668610804835705e+00 -1 0 -3
689 2 2.7796278169098980e+00 5.1273806547802350e+00 8.9132945582018408e+00 -2 0 0
177 2 3.8869014265125656e+00 -1.4215091613075144e+00 1.3218292170130743e+01 -5 0 1
367 1 1.0498610531087952e+01 9.5538420420231649e+00 1.7194138118664011e+01 -2 0 -1
652 1 9.1798072352133957e+00 5.6009576979402684e+00 1.8312584404253592e+01 -2 0 -1
52 1 5.6583156685047520e+00 2.7682915575467817e+00 1.7900531371268393e+01 2 0 -1
972 2 6.7048306456634315e+00 1.0379013716418635e+01 1.1375409335530386e+00 0 0 1
477 2 8.8101006751364217e+00 2.9311545979152411e+00 1.2040448708391022e+01 -1 0 2
500 2 -7.9867836531021363e-01 1.8575482839351931e+00 7.7055894664267779e+00 1 0 0
905 2 7.5956490501713567e+00 9.7579536647334955e+00 1.8118031103118614e+01 -3 0 1
806 2 1.0842805258650309e+01 3.2639479230136708e+00 6.6407903732680253e+00 -4 0 1
321 2 7.5711154588173821e+00 1.1944833893296258e+00 1.4036357607728544e+01 -4 0 -3
810 2 7.1331726010983818e+00 6.9831302147908527e+00 6.3669990902494940e+00 -4 0 -1
930 2 3.8832105914278392e-01 8.8345509363936383e+00 6.7727394365502365e+00 1 0 0
702 2 4.1077368552376337e+00 1.4822764919032601e+00 1.5952705388367376e+01 -3 0 -3
501 2 -1.5939952455648956e+00 1.4308538884713435e+00 8.9943327359150871e+00 1 0 0
625 1 3.1322854391214632e+00 3.0844791895843118e+00 1.9025131185112667e+01 0 0 -1
678 2 -3.3682566909627401e+00 -1.2946781036187198e+00 1.5627378520947614e+01 -2 0 0
101 2 7.3359221084719559e+00 8.3617600949987629e+00 8.9654654949254908e+00 -1 0 -1
384 2 -4.9362530092315833e+00 1.3936107169258238e+00 1.8147081536081160e+01 -1 0 0
222 2 -6.0893463127484271e-01 8.3774178862337934e+00 1.5637855627191412e+01 -2 0 -3
622 1 6.8616040288650462e+00 4.0179963184191294e+00 3.0650764635094840e+00 -2 0 -1
624 2 7.2065552311909356e+00 4.7471646840993120e+00 2.4822328382406798e+00 -2 0 -1
179 2 7.5492336098538155e+00 2.6068026056648872e+00 1.8637823332827811e+01 -3 0 -1
1006 1 -1.2870290293418152e-01 5.0786579847296967e+00 4.2172552208667398e+00 -2 0 -2
926 2 -1.5070398085077983e+00 -1.3891671343027610e+00 1.4245219363544830e+01 2 0 2
269 2 -3.0400752082694602e+00 5.0853528119351026e+00 1.0299398578923283e+01 2 0 -1
268 1 -2.9747441661336360e+00 5.2653365359059059e+00 1.1249831966573906e+01 2 0 -2
504 2 4.8410616095398282e+00 -6.8382947116905290e-02 8.6031326934520962e+00 0 0 -1
49 1 8.9459988522343163e+00 4.3689562887292075e+00 1.1315943497254141e+01 -1 0 0
183 2 1.5878134892700878e+01 2.8952507899558269e+00 5.7608866691699125e+00 -1 0 0
464 2 1.7825618425813068e+00 7.4976824176868782e+00 8.8922080248496034e+00 2 0 0
368 2 9.6292185358880431e+00 9.4054191061769448e+00 1.7665057441968319e+01 -2 0 -1
192 2 2.2701608557013149e+00 1.0288721894463652e+01 9.9987230759485790e+00 -2 0 -3
799 1 4.7085165357271910e+00 1.0036964792805955e+01 1.6884475135279981e+01 0 0 -4
135 2 9.3771629970394388e-01 1.9737280408435165e+00 9.0838844773980991e+00 1 0 -1
778 1 1.0406873334944356e+01 7.1644979321389073e+00 1.6748485881180029e+00 1 0 0
917 2 3.3004066876014129e+00 -1.4501375854242373e+00 4.2046846086206289e+00 1 0 3
598 1 2.2325758944365641e+00 -5.8559150783021430e-02 7.6897280956252922e+00 -3 0 1
120 2 6.0216386749430129e+00 4.4520220923832055e+00 4.4033522446704865e+00 -2 0 -2
858 2 1.5370839061834609e+01 7.0262757933421707e+00 4.7682055062322730e+00 -2 0 -3
640 1 2.6378902928392414e+00 6.8292123939943092e+00 1.3152255198640981e+01 4 0 -1
753 2 1.0933281916217259e+01 7.0937013207457742e+00 1.0615196511495856e+01 -1 0 2
632 2 3.4245237143543292e+00 -1.5664803007986023e+00 1.7758646555427685e+01 -3 0 -2
119 2 4.9893879371735430e+00 5.4723156016521681e+00 5.2013884392320975e+00 -2 0 -2
525 2 3.8137814582322074e+00 3.3311550052534997e+00 1.5163441685792927e+01 -2 0 -4
512 2 7.1256745276926159e+00 -6.1756437849501433e-01 1.8139277015629869e+01 1 0 0
591 2 -1.3064635604182315e+00 8.2187597859801276e+00 8.3424013778988275e+00 -4 0 -1
559 1 7.0541726667834466e+00 1.1804793946193404e+00 7.0641598618765320e+00 -2 0 1
212 2 9.7985799471696442e+00 1.2933496001825624e+00 9.1768974032223269e+00 -5 0 -2
701 2 4.4163867292657315e+00 5.3553967551239756e-02 1.6832496477057486e+01 -3 0 -3
5 2 2.8702862275599199e+00 7.8631341741203826e+00 4.3564738795675284e+00 1 0 0
470 2 1.2252368760276946e+00 2.7553582085899997e+00 2.0164989630525159e+00 -6 0 -2
471 2 -2.5176855730886466e-01 2.2366879603173886e+00 2.1081302963249864e+00 -5 0 -2
708 2 1.6982837302642029e-01 8.2494320366809539e+00 1.2177065060717599e+01 -1 0 -1
85 1 1.0537596137572208e+01 -7.5583357286944097e-01 1.8417695638188377e+01 1 0 -3
46 1 1.1009137729739431e+01 5.4712209044256701e+00 4.8452658977610135e+00 -3 0 0
245 2 1.2805656391271562e+01 7.7040580366110838e+00 9.3770077764628361e+00 -4 0 -4
856 1 1.5903970642839900e+01 6.4380988900577680e+00 5.4121773515884479e+00 -2 0 -3
627 2 2.4702814442964112e+00 3.8319679620933575e+00 1.8994445235611263e+01 0 0 -1
111 2 7.0873565525490090e+00 -4.8054502105207897e-02 7.7258550609050847e-01 1 0 -3
869 2 4.5036239330573506e+00 8.8981480960982857e+00 7.0904835201148781e+00 2 0 0
16 1 -1.2604797274059569e+00 4.4603031451593553e+00 1.4770247309992556e+01 0 0 1
178 1 8.4906218421076396e+00 2.6792446243992245e+00 1.8756515957097726e+01 -3 0 -1
974 2 8.1079408761516802e+00 -2.7754024868939720e-01 1.6009839381012746e+01 -4 0 -2
118 1 5.6939055306600350e+00 4.7185877762122130e+00 5.3077177678372598e+00 -2 0 -2
922 1 6.0138157460249007e+00 8.4845429579563003e+00 1.2162238467563537e+01 -3 0 -3
623 2 6.3201576285097030e+00 3.4459107952638117e+00 2.4923412695853622e+00 -2 0 -1
1668 2 5.9487095197032795e+00 3.8395498279786651e+00 1.4655111302090830e+01 -1 1 -2
644 2 1.2563794624579003e+01 4.8639037294327245e+00 1.2370660039115350e+01 -4 0 -3
712 1 -6.5663509767970840e-01 5.9444426880103673e-01 1.2193879248221048e+01 0 0 3
83 2 -2.4514477609800278e+00 3.8822620477011389e+00 8.3584150191637292e+00 0 0 -3
239 2 5.2241916106100215e+00 7.4566565855980915e+00 1.4000474757431411e+01 0 0 0
716 2 1.1948357199826926e+01 2.4587501010174702e+00 2.0989194385600460e+00 1 0 2
717 2 1.0563736369477033e+01 2.5513675818689734e+00 1.3132788567328235e+00 1 0 2
240 2 5.8904453503620990e+00 7.3357971132549462e+00 1.5437042368172857e+01 0 0 0
904 1 8.0913961435952473e+00 8.9649444572844299e+00 1.8225302432179770e+01 -3 0 1
17 2 -1.2525121622693840e+00 3.8395362503987212e+00 1.5525021605027183e+01 0 0 1
779 2 1.0605872411576270e+01 7.8799708787868887e+00 1.0332155384117525e+00 1 0 0
459 2 8.7326432928030184e-01 4.4571803811008870e-01 2.0557301514758008e+00 -2 0 -2
645 2 1.1833945156497833e+01 6.1596073217681910e+00 1.2643724935345920e+01 -4 0 -3
613 1 5.2947697536739682e+00 2.2393022711797554e+00 1.5475078541122371e+00 -2 0 0
246 2 1.3884175852693232e+01 8.0786167357681151e+00 1.0541140129234224e+01 -4 0 -4
238 1 5.0825355318194978e+00 7.2571898618165473e+00 1.4921896255464103e+01 0 0 0
522 2 7.8284951838226888e+00 1.9272109661298296e+00 9.8401202806913322e+00 -5 0 -2
715 1 1.1039084829994223e+01 2.1886378004637814e+00 2.1328695627128984e+00 1 0 2
115 1 -1.8695789243549950e+00 7.4915183313947207e+00 1.6439293509362930e+01 -4 0 -5
426 2 1.2219707393616444e+01 -6.7832011302230732e-01 2.7246677455482411e+00 -2 0 1
527 2 4.6231684924353313e+00 3.6604640806805033e-02 4.4689584938983309e+00 -2 0 0
1008 2 3.8650868755737355e-01 5.5987919735833538e+00 3.5132255381452899e+00 -2 0 -2
232 1 8.1597606344183475e+00 6.5552255105499242e+00 3.2265146762988657e+00 -2 0 0
933 2 -4.2525104173629282e+00 5.8114958519579378e+00 1.4268319944077721e+01 -2 0 -1
921 2 9.3296724528533304e+00 -6.5920263221882980e-01 9.2828721421379665e+00 0 0 -2
868 1 4.5203496287032987e+00 7.9784227445403761e+00 7.4190171733140069e+00 2 0 0
844 1 7.7263295153957463e+00 -8.9415960717554666e-01 1.1506555947784559e+01 1 0 1
18 2 -2.0038502014766140e+00 5.0677796410623941e+00 1.4798638988184420e+01 0 0 1
976 1 3.9190810685227273e+00 -9.2733150087100924e-02 1.8763807217773920e+01 -3 0 -1
693 2 1.5839958751813654e-02 -1.1431310032418511e+00 1.1283986102797455e+01 1 0 2
785 2 -1.6412348222763757e+00 2.0527257745277816e+00 1.7016842752924976e+01 -3 0 -3
870 2 5.2573575131027290e+00 7.8877164588534097e+00 8.0357936104984962e+00 2 0 0
211 1 9.3601396055894810e+00 2.1405089429496322e+00 9.3317954458143575e+00 -5 0 -2
387 2 -4.5701723354474257e+00 7.5434422328271662e+00 1.8529408269761095e+01 0 0 -3
895 1 -4.7302872656908521e+00 8.6874175102215521e+00 1.4405856054596720e+01 -1 0 -1
643 1 1.2242168136012374e+01 5.3897788216352467e+00 1.3113545105932140e+01 -4 0 -3
617 2 5.4430799546122293e+00 9.2661513339975823e+00 3.4338507538999496e+00 -2 0 -1
345 2 1.1240147561878189e+01 -1.5320273258150503e+00 1.5722231309321083e+01 -2 0 1
328 1 -5.0085114519625069e+00 1.0393948828557356e+01 1.8451541911924373e+01 -1 0 -1
116 2 -2.3700256781428468e+00 7.9000483141164928e+00 1.7168716964928205e+01 -4 0 -5
224 2 1.6877536518579408e+00 9.2065874165943331e+00 1.8418682985579849e+01 -2 0 -2
962 2 2.4657618730320765e+00 -8.6170368030001909e-01 1.5790169014679817e+01 -3 0 -1
48 2 1.1571212886982192e+01 5.7015340814296263e+00 4.1094538587035867e+00 -3 0 0
117 2 -2.4930424595604226e+00 7.1929508845974190e+00 1.5741287169744020e+01 -4 0 -5
931 1 -3.5577484654270206e+00 5.8558769777375703e+00 1.4944494682788939e+01 -2 0 -1
714 2 -1.3939042083826387e+00 1.2851062270709717e+00 1.2351770433038693e+01 0 0 3
385 1 -4.7246986437381313e+00 6.7127208010400867e+00 1.9013134656300952e+01 0 0 -3
655 1 7.0109959154162000e+00 6.5821834089761868e+00 1.7155777652825506e+01 -3 0 -1
961 1 2.0653482769752509e+00 -2.3072564018949282e-01 1.5206444083365625e+01 -3 0 -1
42 2 2.9805377125699204e+00 5.9859459156615404e+00 5.5846493287429162e+00 -2 0 3
585 2 -9.1973308559976186e-01 9.2919754008552804e+00 1.3672059017586280e+01 -4 0 -4
876 2 1.1492449539567579e+01 5.7480850164673640e+00 9.1812449655986832e+00 -3 0 1
769 1 1.1422002084988705e+01 4.2121765650432641e+00 9.6647388348104286e+00 0 0 -3
1002 2 1.4128312652391312e+01 4.1856568993582854e+00 5.3898076717927905e+00 -1 0 1
4 1 2.0196794494311101e+00 8.2313584138115470e+00 3.9946944410244534e+00 1 0 0
685 1 2.8666397035055358e+00 -2.9560179870731518e-01 1.0996251086495313e+01 -3 0 1
41 2 4.0407380674006106e+00 6.9451153329962203e+00 6.2433785008980847e+00 -2 0 3
229 1 2.2996917581094767e+00 2.6443969063949737e+00 5.9726436677935766e+00 0 0 -2
812 2 9.2883576067987050e+00 6.3729538926008580e+00 7.2704252970862688e+00 -2 0 -1
932 2 -3.7327500624882628e+00 5.2438412507127268e+00 1.5721446661497236e+01 -2 0 -1
889 1 -3.1612355650771478e+00 -6.9088899674142468e-01 1.1385113228245133e+01 0 0 0
213 2 9.3383908002925615e+00 2.5956651587798731e+00 8.4811096762886251e+00 -5 0 -2
841 1 1.0631472580771458e+01 -5.2295821611071824e-02 1.4959610310841178e+01 -6 0 -5
697 1 1.1301601526493867e+01 9.4409418920230550e+00 4.7714195837036638e-01 2 0 4
338 2 1.4559381318185469e+00 7.1366547547366466e+00 2.8650402556939150e+00 -1 0 -1
531 2 6.9362010094449920e+00 1.6355756490866913e-01 4.2880178007720300e+00 -1 0 0
969 2 7.9573708522880260e-02 6.2529348879333106e+00 1.1213157929275358e+01 -1 0 1
545 2 7.1660411240217581e-01 1.1004062455320436e+00 1.8131187212557936e+01 2 0 1
386 2 -5.3773726121292391e+00 6.2566718215728905e+00 1.8408041327718664e+01 0 0 -3
608 2 3.7751969248879176e+00 -1.1196072693192920e+00 1.5641026592419078e+00 -3 0 0
40 1 3.8363619819567627e+00 6.4544781480709403e+00 5.3971544925987081e+00 -2 0 3
786 2 -1.3315710665062142e-01 2.0768150153050491e+00 1.6643306064174880e+01 -3 0 -3
842 2 1.0496433885613644e+01 6.7954068049671479e-01 1.5625826416961546e+01 -6 0 -5
583 1 -1.0362607613251993e+00 9.3225863271733722e+00 1.2660616614891495e+01 -4 0 -4
784 1 -9.9556795055651737e-01 2.5391859934324348e+00 1.6486750070850878e+01 -3 0 -3
967 1 -1.6023891953363112e-01 5.3125092671323291e+00 1.1070084912176153e+01 -1 0 1
553 1 8.9799815908485616e+00 6.2783455699254267e+00 1.4855778386048224e+01 -5 0 -2
681 2 1.0343006735209162e+01 7.1633162389888465e+00 1.5404071944789626e+01 -3 0 -3
649 1 9.2229010159774898e+00 2.4187170070205486e+00 6.4063004657590445e+00 -4 0 0
650 2 8.9232292663173087e+00 3.0029813333879707e+00 5.6943546802444009e+00 -4 0 0
51 2 8.7612663265335780e+00 5.1843850423680742e+00 1.1787684610595878e+01 -1 0 0
36 2 8.1038318768220430e-01 1.1237332710585184e+00 5.5513266658439306e+00 -1 0 0
945 2 3.2256595827929040e+00 3.3101590700239747e+00 2.8564848972501840e+00 0 0 3
673 1 -2.4183125865284856e+00 4.2063832093064573e+00 1.8910820768403752e+01 0 0 -4
896 2 1.2577803824454762e+01 8.1784427412447567e+00 1.4958610760415365e+01 -1 0 -1
949 1 1.2761202415843151e+01 -5.4300093609806832e-01 1.3147736584941786e+01 -2 0 1
127 1 1.5704738101800920e+01 4.6165970536873235e-01 1.2126659779989937e+00 -2 0 -1
128 2 1.5624522076255792e+01 1.4447543128710141e+00 1.0002412935533971e+00 -2 0 -1
890 2 -2.4793887258670395e+00 -9.3268256192379784e-01 1.1958874803695949e+01 0 0 0
34 1 5.0944475138084866e-01 3.0273110944771431e-01 5.2042596710538760e+00 -1 0 0
928 1 1.0529606740995390e+00 9.4047777053733803e+00 6.3213175400406270e+00 1 0 0
164 2 8.9498684485251321e+00 8.9606190714239400e+00 7.8643949634234813e+00 2 0 1
152 2 9.2328212032826169e+00 3.4866772787168476e-01 4.2125593312579763e+00 3 0 0
439 1 9.9995628367096945e-01 4.3349576327744321e+00 1.3440062787466925e+01 -2 0 -2
350 2 7.4704424889006118e+00 2.9221563726230642e+00 1.5621280585061593e+01 2 0 3
992 2 -3.1766558597372270e+00 2.9940961960951213e+00 1.2327828149684999e+01 2 0 1
938 2 1.5585080889816902e+01 7.1663109971698713e+00 2.7010244319810179e+00 1 0 1
783 2 3.1619360222330681e+00 5.7147404518685736e+00 2.6577598074718889e+00 -2 0 -2
69 2 9.5164561884481902e+00 9.9289448426483649e+00 1.3639686659639434e+01 -3 0 -3
994 1 4.9099977851445553e+00 5.4881122352711866e+00 1.1654224949670390e+01 3 0 1
725 2 -6.5657106538494414e-01 -4.2930416312067621e-01 8.2313231194876764e+00 2 0 1
760 1 8.5813855624113948e+00 -8.8562996965118190e-01 1.3008985982087538e+00 -3 0 2
129 2 1.5949111417891300e+01 2.1241336584412407e-02 3.8702682164579982e-01 -2 0 -1
270 2 -2.0160462460859998e+00 5.0571518968488727e+00 1.1333486126593160e+01 2 0 -1
173 2 1.0887443002077287e+01 4.3647703627069196e+00 1.4046628939577648e+01 -1 0 -2
571 1 1.1814842442764984e+01 -7.3159862133783093e-01 7.3245277992852680e+00 1 0 4
915 2 8.4707539303249604e+00 -1.4527038310963587e+00 1.2780791491988451e+01 0 0 2
636 2 1.6259740322248813e+01 1.0347157078228685e+01 3.0079131265325789e+00 0 0 -2
919 1 1.0282024834455537e+01 -4.0035892344328539e-01 9.4493893890040486e+00 0 0 -2
651 2 8.4637135113677360e+00 1.8134543809886274e+00 6.5846418564828690e+00 -5 0 0
996 2 4.3925550486112241e+00 6.3010761060470397e+00 1.1941780454805208e+01 3 0 1
611 2 1.2583420618832726e+01 2.1097421702459216e+00 1.1606274184563310e+01 -1 0 2
873 2 5.5214595671325331e+00 -1.5014686554350105e+00 5.9860639174316868e+00 -2 0 -1
920 2 1.0855407092217487e+01 -5.1906187606325305e-01 8.6502537575211154e+00 0 0 -2
846 2 6.7771560603845966e+00 -1.1014065454111370e+00 1.1563049686607812e+01 1 0 1
102 2 6.7965496579816644e+00 6.9711476373584151e+00 9.4408394096330799e+00 -1 0 -1
497 2 4.3760036889286926e+00 3.5942986428857990e+00 7.8458759129555435e+00 0 0 1
498 2 5.1745766380504357e+00 3.5059380977415451e+00 6.4994504748659327e+00 0 0 1
395 2 1.3520794858914591e+01 3.2419782491742550e+00 3.3770843346574524e+00 -3 0 -3
924 2 5.4608612474015858e+00 9.1961338702411943e+00 1.2476276216295391e+01 -3 0 -3
349 1 7.1049613985753624e+00 3.8315214745896853e+00 1.5778986239461805e+01 2 0 3
679 1 1.1153960858797932e+01 7.5828524532680355e+00 1.5669660910783863e+01 -3 0 -3
398 2 1.2726822831802838e+01 8.5494204560065157e+00 6.5929770489288337e+00 2 0 0
540 2 -3.1352296598051943e+00 5.8183526683618592e-01 1.8832457708768896e+01 -4 0 -4
427 1 1.1493736599474090e+01 9.7943568798190199e+00 1.2736444259815624e+01 -1 0 -1
1664 2 6.1653753533224549e+00 6.3270554561263221e+00 1.7536329757236611e+01 -3 1 -1
943 1 2.5928511939662116e+00 2.5716387076230207e+00 3.0038391195434917e+00 0 0 3
560 2 6.7515555029273031e+00 2.8458543219714239e-01 6.8507182606030046e+00 -2 0 1
233 2 8.2275808121134393e+00 6.6951509582195108e+00 4.1951827000896280e+00 -2 0 0
220 1 -2.6274301656934007e-02 9.0960064003326195e+00 1.5259338216350105e+01 -2 0 -3
172 1 1.0203231251294007e+01 3.8408966407207048e+00 1.4454171455116326e+01 -1 0 -2
298 1 -4.1514364959832282e+00 1.7757084225727922e+00 1.5354534947718946e+01 -2 0 -2
680 2 1.0939569471830392e+01 8.3700009260781751e+00 1.6186066677021913e+01 -3 0 -3
831 2 7.2176832969856886e-01 5.3628961153854373e+00 1.8966663109238183e+01 -3 0 -1
538 1 -2.9945681147703502e+00 1.1358210170415872e+00 1.8030565057647589e+01 -4 0 -4
944 2 2.4921686135996675e+00 2.4838450643526135e+00 3.9736595499867047e+00 0 0 3
100 1 6.5330091929331786e+00 7.8878429016776952e+00 9.3215013921585541e+00 -1 0 -1
1667 2 5.2962170821495409e+00 3.0154371280770302e+00 1.3518660593844011e+01 -1 1 -2
529 1 6.1695014513343018e+00 -4.5743500204218890e-01 4.4453878773670352e+00 -1 0 0
174 2 9.5447892904918774e+00 4.5805146964667145e+00 1.4632355080004610e+01 -1 0 -2
388 1 1.5814021962417295e+01 -1.9867949132479379e-01 5.4399101095860960e+00 -1 0 0
465 2 3.1749450683830145e+00 7.4757744373205401e+00 8.3203378542839665e+00 2 0 0
84 2 1.4085001206295594e+01 4.6424333170125562e+00 7.9443243291502732e+00 -1 0 -3
460 1 1.3456029084633679e+01 5.2421123602968853e+00 6.5357222941562441e+00 -4 0 -2
607 1 3.5183760465023726e+00 -1.5308255237740087e-01 1.6027556281433497e+00 -3 0 0
584 2 -1.8670863145515058e+00 8.7454976706130587e+00 1.2466260449562895e+01 -4 0 -4
462 2 1.3267369266535180e+01 6.1813757405996377e+00 6.3089759188121723e+00 -4 0 -2
175 1 4.5432179325023672e+00 -8.1672825159133633e-01 1.3653232765249953e+01 -5 0 1
595 1 1.5735290149587904e+00 5.2305136269388459e+00 5.9688054334200213e+00 3 0 -2
335 2 6.4234114696696851e+00 6.9842367069493481e+00 3.0607512785527220e+00 -2 0 -2
109 1 6.4995839513639213e+00 3.7631262809807975e-01 1.4098912787155282e-01 1 0 -3
615 2 5.6513473168273176e+00 1.4970811269922311e+00 1.0225133809716582e+00 -2 0 0
457 1 8.0037596067201777e-01 -3.3036179097095975e-01 2.5951144178451382e+00 -2 0 -2
461 2 1.2596555994421792e+01 4.8327439320227832e+00 6.5209170899575506e+00 -4 0 -2
616 1 5.2139324403277056e+00 1.0226193070195551e+01 3.5972764434359812e+00 -2 0 -1
408 2 2.0799821132921990e+00 1.3344301852567448e+00 1.3635890299916497e+01 -2 0 -2
20 2 1.3282250865165835e+01 6.3951423178315059e+00 2.8593910109470535e+00 -3 0 -3
182 2 -7.9437197318105612e-01 3.5134108165651696e+00 5.9714692044107736e+00 0 0 0
35 2 -3.9870664373187448e-01 3.1386680625329189e-01 5.3788643627029646e+00 -1 0 0
216 2 1.6319326074720756e+01 6.9443141691617409e+00 5.4137506373840105e-01 -1 0 -2
433 1 -2.7130905724208620e+00 9.4246676938406164e+00 1.8300206134346254e+01 -1 0 0
475 1 8.9132656737131786e+00 2.1851421186312248e+00 1.2708084045054832e+01 -1 0 2
827 2 5.6188681702818224e+00 8.1987329569507814e+00 1.2869424903082896e+00 1 0 1
526 1 3.6964047424183670e+00 1.7499255946399361e-01 4.5435127095320587e+00 -2 0 0
133 1 1.8677090100294609e+00 1.8776091277931561e+00 9.3564628972785915e+00 1 0 -1
610 1 1.3171226311591886e+01 2.8509726370161914e+00 1.1387015144747030e+01 -1 0 2
675 2 -3.1616596061277855e+00 3.9638284207259611e+00 1.8263836251643763e+01 0 0 -4
82 1 1.4694857978686775e+01 4.3331334926317879e+00 8.7041432783564705e+00 -1 0 -2
300 2 -4.1170769352440004e+00 7.6157062805696984e-01 1.5374328204428213e+01 -2 0 -2
214 1 1.6733041792086848e+01 7.1370703842642893e+00 1.3669145989582561e+00 -1 0 -2
782 2 4.0083519144441109e+00 5.0786213604476647e+00 1.5163643827414945e+00 -2 0 -2
690 2 3.8044575334819459e+00 4.6681419766485073e+00 1.0044568294846853e+01 -2 0 0
561 2 6.2836468182798360e+00 1.7509380300472901e+00 7.1190282574468347e+00 -2 0 1
728 2 9.1059094084322751e+00 7.3194099452831836e+00 1.1975853064927286e+01 0 0 1
113 2 1.0233974150074598e+01 1.1964338930790421e+00 1.2201092620866381e+01 -2 0 -1
829 1 8.0563828037782574e+00 5.0723758214611649e+00 5.4169304913630834e-01 -3 0 0
950 2 1.2098836702838167e+01 -2.1745609943879529e-02 1.2690868468495436e+01 -2 0 1
573 2 1.1202271240478353e+01 -6.2135711125561655e-01 6.6063922430610518e+00 2 0 4
937 1 1.4805456087769562e+01 7.3111454561248053e+00 3.2774925059252271e+00 1 0 2
979 1 1.5223500816907185e+01 9.8443596887438680e+00 5.9912217204791398e+00 -2 0 0
727 1 8.3695315696474140e+00 6.8948351818892064e+00 1.2452762790987194e+01 0 0 1
114 2 1.0866598342012363e+01 2.4327446063034963e-01 1.1068642782336873e+01 -2 0 -1
425 2 1.1104734514434963e+01 4.1005425415647512e-01 2.4633732176919021e+00 -2 0 1
544 1 1.2106786611260434e+00 1.6909252411874980e+00 1.7516320861947680e+01 2 0 1
234 2 8.9237707449378885e+00 6.9761564142075674e+00 2.7761718110627456e+00 -2 0 0
1001 2 1.4025187792933577e+01 2.6889968734416598e+00 5.8133108961781961e+00 -1 0 1
496 1 4.7751604030916166e+00 2.9546432290398510e+00 7.1907333990642508e+00 0 0 1
230 2 3.2585751984968616e+00 2.7700770035838005e+00 6.3622497834102392e+00 0 0 -2
337 1 1.3669986317480927e+00 6.3661229340048493e+00 2.2974282026059711e+00 -1 0 -1
914 2 9.4786006564466092e+00 -1.2413973984651889e+00 1.4030502161179999e+01 0 0 2
87 2 1.1113335045980092e+01 -1.4497851249474114e+00 1.8836373256647512e+01 1 0 -3
162 2 3.2150471936568659e-01 8.6745620402657266e+00 9.9767626163325431e+00 1 0 -5
999 2 1.6932048353958130e+01 9.2731402744119720e+00 1.3231928148238223e+00 -3 0 3
336 2 4.9796849034518207e+00 6.5041841601953969e+00 2.8678793692101934e+00 -2 0 -2
641 2 2.5800306760892688e+00 7.2594532934135501e+00 1.4000608192463503e+01 4 0 -1
110 2 -7.3786392215728380e-01 -3.7520806992456879e-01 1.8922253401618189e+01 1 0 -4
389 2 1.5348334019014938e+01 -5.7790436614243301e-01 4.6340870781576928e+00 -1 0 0
47 2 1.0433421835722497e+01 4.7440870310597409e+00 4.5244655266805101e+00 -3 0 0
207 2 5.0120049117523973e+00 7.9079002835884626e-01 1.2677111591475372e+01 3 0 0
808 1 7.0949522896207649e+00 7.5405417741138692e+00 5.5964793581510941e+00 -4 0 -1
589 1 -2.0741460723241012e+00 7.7717375303974503e+00 7.9215436754414510e+00 -4 0 -1
577 1 2.4041744272400303e+00 7.6106082352722098e+00 1.5842340150860425e+01 0 0 0
19 1 1.2449513043034676e+01 5.8729151488738180e+00 2.5348463044727687e+00 -3 0 -3
1000 1 1.4212561135160056e+01 3.2106676608229821e+00 5.0358882555288291e+00 -1 0 1
294 2 9.5455467674422589e-02 5.0991613307080037e+00 9.3599978200735805e+00 1 0 -3
390 2 1.5223708968184406e+01 5.1584809055804337e-01 5.7053891111408035e+00 -1 0 0
297 2 1.0765262085560488e+01 5.3273749319213879e+00 1.7526041872914522e+01 1 0 2
521 2 6.5401403715388149e+00 8.3049575103596185e-01 9.7798095702387098e+00 -5 0 -2
813 2 1.0339300554299301e+01 6.6319128271835055e+00 6.2800097179279062e+00 -2 0 -1
912 2 1.3848260077605403e+01 1.1718241549631756e+00 8.2548997372829991e+00 -2 0 1
160 1 9.6120243642653591e-02 8.8265950373686053e+00 9.0118807487933772e+00 1 0 -5
397 1 1.2722229706964706e+01 7.8200501691823892e+00 5.9326832361222683e+00 2 0 0
771 2 1.1465697064073808e+01 3.6826167895477377e+00 8.7785105489121023e+00 0 0 -3
721 1 -3.1759984637839422e+00 7.7810512213380285e+00 1.2048792492183301e+01 -5 0 -3
809 2 6.2059348072492293e+00 7.3820755373177303e+00 5.2142720853983997e+00 -4 0 -1
866 2 1.3129072893710694e+00 4.9056677875720034e+00 1.5208379815477164e+01 -3 0 -1
94 1 1.6340699972015972e+01 2.9126139720032755e+00 3.0703823883013541e+00 -2 0 -1
225 2 1.9247578814893567e+00 7.8391552563301286e+00 1.7803538804633234e+01 -2 0 -2
770 2 1.0604067832768452e+01 4.0729133820036534e+00 1.0107930539851125e+01 0 0 -3
698 2 4.8634589232081025e+00 9.3190558879570524e+00 1.8553658948894878e+01 2 0 3
440 2 1.2400269265584640e-01 4.2894060428097429e+00 1.3819931626592343e+01 -2 0 -2
383 2 5.9850598930649868e-01 1.8059682460531441e+00 8.9748500704882925e-02 -1 0 1
6 2 2.3537268440000445e+00 9.0785896404422282e+00 3.6909786800063298e+00 1 0 0
499 1 -7.3776322696318752e-01 1.3685990556854142e+00 8.5174479873170661e+00 1 0 1
910 1 1.3493320974302879e+01 1.2987937741048099e+00 7.2768416010410375e+00 -2 0 1
546 2 1.6726151492543648e+00 1.1534267154469671e+00 1.6870121323963396e+01 2 0 1
724 1 -2.6753246736364078e-01 -1.3202256577474893e+00 8.3014326483105023e+00 2 0 1
729 2 7.5136149996562764e+00 7.2292464177972864e+00 1.2306271212835576e+01 0 0 1
612 2 1.2696890453479774e+01 3.2903930010253228e+00 1.0648250110004906e+01 -1 0 1
674 2 4.6462748813494104e+00 3.4138017979166770e+00 1.2987505443541891e-01 0 0 -3
274 1 1.4191601355150036e+01 -7.7538295197227425e-01 3.0593002780786405e+00 2 0 0
911 2 1.2858607673211125e+01 5.2096806097837334e-01 7.1909013384123792e+00 -2 0 1
424 1 1.1255799238430216e+01 -4.9913949964090665e-01 2.7616563406407519e+00 -2 0 1
811 1 9.8413957958940959e+00 7.0605920581358088e+00 6.9643431201823471e+00 -2 0 -1