LAMMPS data file via write_data, version 8 Apr 2021, timestep = 0

6144 atoms
2 atom types

-2.7031455987735664 62.6714347299561 xlo xhi
0 28.022338184140434 ylo yhi
0 27.0539665018148 zlo zhi
10.115521678187505 10.157800364258264 7.113058120873912 xy xz yz

Masses

1 16
2 2

Atoms # atomic

1595 2 16.986338934183905 22.33957669075139 17.45901102504219 0 0 0
1604 2 16.20989888361022 18.806833986112306 23.933944268963547 0 0 0
2336 2 6.04893045056979 6.034359595489616 18.444705179365364 0 1 0
987 2 14.297962337219552 11.89124698841769 21.238134816892817 0 0 0
225 2 6.727884771065726 4.456224385877551 3.161727332932323 0 0 0
52 1 13.580246206687058 26.851721364651535 8.484396172574298 0 -1 0
25 1 7.865587363378252 12.888697634869864 7.200537339265262 0 0 -1
1625 2 13.475216845748509 18.654635465792534 17.491393567005616 0 0 0
2464 1 10.728183820096996 17.63395443703747 7.034242988466669 0 1 0
886 1 15.196915812760412 23.574330373752606 19.304608855263677 0 1 -1
1633 1 16.292217438984903 13.955869350333192 20.06671187392196 0 0 0
849 2 14.990050771023302 19.12339675906523 10.478530998686281 0 0 -1
2443 1 10.475268784390346 12.887283320310596 8.892486620120396 0 1 0
358 1 14.565177728349152 22.4542214593184 25.034462757357634 0 0 0
2466 2 11.437001048657738 18.20502773579609 6.795520167804675 0 1 0
1895 2 9.137987048245416 15.72834657162829 4.599947558762195 0 0 1
1670 2 6.250491400290208 3.5486525815466234 1.3670936609658857 0 0 0
1634 2 15.676375589944044 13.98566822625063 20.865833098715886 0 0 0
1064 2 20.9258255271058 30.925391732968386 20.908083960827007 0 0 -1
1894 1 8.296070815755645 16.111331530500422 4.6884878292438135 0 0 1
1740 2 17.31448782377634 20.958218336825837 26.484324678495863 0 0 0
1916 2 14.623802929617579 23.61853285928016 14.132533304222134 0 0 0
611 2 5.732590497592655 6.334790892836631 14.019970628482142 0 1 0
1709 2 12.043377562261496 5.833861091114386 18.19682279144472 0 0 0
487 1 16.071687630578747 22.103098379790595 27.036101797065747 0 0 -1
53 2 14.074317927764241 26.212200608341156 9.09187954817226 0 -1 0
1587 2 11.235007675965601 14.020998118679614 12.874709996160266 0 0 0
1586 2 10.830675955945619 15.093536169567564 11.78780698839729 0 0 0
633 2 7.605421832374526 15.731416966529421 14.913152347681436 0 0 0
2564 2 9.74567254256228 9.738771862499638 1.6298221575329292 0 1 0
416 2 12.1753437318094 18.463680005399706 19.014117040022896 0 0 0
1871 2 15.898806588540364 23.133823319055644 16.02066864089175 0 0 0
610 1 6.111638191149611 6.517950049787567 13.117797101607174 0 1 0
1275 2 4.4615788399905725 4.898463213384278 0.310372661002558 0 0 0
2401 1 15.14490747284859 26.305293430436812 20.28840245467177 0 0 0
2450 2 13.796903344450477 24.000138996432867 22.59241017082292 0 0 0
1708 1 11.950375784809074 4.971780807377567 17.749531110949302 0 0 0
27 2 7.302315699214162 12.11266070923476 7.491084173721048 0 0 -1
907 1 17.837083792079888 26.814024732657895 21.469069802308393 0 0 -1
99 2 9.427350027551604 6.054008672537338 5.308339523726349 0 0 0
1561 1 11.85172795597497 13.326730063126092 15.062541923896049 0 0 0
1901 2 9.578335280583895 8.893209247900431 25.07690287876837 0 0 0
174 2 16.87893449577808 5.187847517024967 19.040910888788932 0 0 -1
1114 1 3.5940145327021153 8.00614149905476 9.12165713140376 0 1 0
924 2 18.62662786627353 17.510592345283328 13.571807024648354 0 0 0
1759 1 6.874023603661097 12.937618327708089 16.8479928175286 0 0 0
224 2 7.630514621565762 5.636362907013052 3.21584242657304 0 0 0
1781 2 8.158792532229862 11.646603967241088 12.823834575774388 0 0 0
1710 2 11.94953053666024 5.179161897782467 16.841510282343382 0 0 0
1689 2 9.645326803396635 7.143617877241285 10.657699103405879 0 0 0
1705 1 15.569639596246223 14.847933940722752 15.575318220507802 0 0 -1
1773 2 20.617394156448796 31.88992272336021 25.857566110962665 0 0 -1
101 2 4.49363944957504 7.514381541751177 5.825317668903845 0 0 0
1570 1 9.64040262113141 11.64092084536594 15.237595048785126 0 0 1
2314 1 14.561430476557678 24.781604782560187 9.601865048180056 0 0 1
1129 1 13.03489497719986 14.205246113102765 20.567915462056998 0 0 -1
2360 2 6.6328919543195966 13.27428028888067 11.237809313439108 0 0 0
1635 2 15.927762649899737 13.315595281661214 19.383106982823044 0 0 0
1017 2 6.903999229073301 3.4648413603968997 11.391567196268232 0 1 -1
134 2 26.386740297301653 22.287103815015957 17.888249563965978 0 -1 0
821 2 6.970978170310355 18.49162198997831 1.7165669608195127 0 0 0
1059 2 -0.13491607145364126 1.0745893349900308 0.01669163020986385 0 1 0
896 2 19.498166673294214 29.33359534382122 20.9657615257881 0 0 -1
83 2 11.532319636853163 20.908895103984968 23.66608281752136 0 0 -1
2323 1 6.088938795850044 21.387265999596504 1.855497841268648 0 1 1
1571 2 10.309616242781757 12.331483403145123 15.03182096822482 0 0 1
1659 2 15.473135910422073 28.78103770946734 18.190897030484233 0 -1 0
894 2 12.605716277462554 19.792648920558094 10.461964822803134 0 0 0
2627 2 14.56264501326687 26.379740433675572 23.389092667442544 0 0 0
1274 2 3.903683809262136 5.603803131239574 1.563586659772855 0 0 0
1113 2 10.567569869935918 19.34640359868645 11.711314232576278 0 0 0
1669 1 6.379289589607767 3.5182064186477704 0.4021419302145685 0 0 0
1063 1 21.093230008223745 29.974069338637843 21.068829094278783 0 0 -1
1671 2 7.011471083904343 4.2558607358056 0.20503319638722697 0 0 0
1791 2 3.6881501231486378 5.717605547683323 4.374351752846982 0 0 1
1001 2 6.9614434774366245 15.233011908124556 5.401085636195454 0 0 0
846 2 13.532648724576774 16.489548633792793 23.31472988245368 0 0 -1
359 2 13.875314013447227 23.048404770119344 25.429700130431648 0 0 0
1739 2 17.431894358567135 19.783037312486325 25.440507857942034 0 0 0
822 2 6.8568531378982875 18.425768016126213 0.18905901819261323 0 0 0
2471 2 18.293286599005285 7.183054832204008 18.455581975877017 0 1 0
1112 2 9.067746601403005 18.775456262271007 12.038175230619252 0 0 0
887 2 15.212607925946187 23.245006725657593 18.394313546825057 0 1 -1
2465 2 11.177171209154276 16.773106365603415 7.101296269055616 0 1 0
54 2 12.649590019931711 26.854945235453236 8.675725272087018 0 -1 0
102 2 3.986639205608004 8.69742855255637 6.796157559890398 0 0 0
223 1 6.820602012578428 5.304916399275234 3.591263692836902 0 0 0
1917 2 14.297866345804287 25.102727335729796 14.558086874438457 0 0 0
353 2 5.584282366897064 11.14890642525204 8.087856289019467 0 0 0
2407 1 7.997032971340106 18.25631055861464 6.523571216867396 0 0 0
1687 1 9.696146529477748 6.292306386546958 11.200902406800541 0 0 0
986 2 13.15210213788106 11.222443597075781 20.321730950008998 0 0 0
1706 2 16.152125474212596 14.132829085021312 15.79828572318038 0 0 -1
1703 2 9.70835883708591 15.48446281846796 15.502437755901035 0 0 0
1374 2 26.977525335840983 24.641990112506015 26.465123638719216 0 0 -1
1688 2 9.24980977329719 6.413841321669725 12.050243826640319 0 0 0
1002 2 5.603756597560157 14.804817854801446 6.371718608359326 0 0 0
1610 2 9.075059346901462 18.200430436542504 2.637629832224436 0 -1 0
922 1 18.398248269562977 17.981415603194183 12.736096795931736 0 0 0
2409 2 7.824855958306536 19.154284189408592 6.048083258005774 0 0 0
845 2 13.493924239781496 15.2403333070566 24.411879566380716 0 0 -1
1563 2 12.713125929461857 12.879990918172235 15.137222421395625 0 0 0
908 2 16.98606407169058 26.723145227678643 21.08874648799516 0 0 -1
893 2 11.10376268037021 20.171954464867987 9.837431357693651 0 0 0
28 1 18.94155343483734 22.061219304585784 13.460909622252062 0 0 0
2652 2 25.74916037551224 23.759932773423685 22.474341092576548 0 0 0
755 2 11.594136746609975 25.49788465348299 13.181017415539383 0 0 0
300 2 10.123894931108646 20.465097917789006 7.679990933387407 0 0 0
1585 1 10.47915904603958 14.496672917839366 12.47424499785352 0 0 0
2414 2 11.084945954769863 17.768976155718395 13.298671636659293 0 0 1
2436 2 22.524877768103888 23.38615680682921 10.85828921936861 0 0 0
2441 2 17.50735139702549 20.10957770079447 10.696725771461223 0 0 1
847 1 14.051540141417338 18.92592461559616 10.511901746030134 0 0 -1
1562 2 11.928591064168899 14.238149133379023 15.485894530027982 0 0 0
1015 1 7.113806190950546 3.7599457654767736 12.307206962896352 0 1 -1
1738 1 17.85427713118359 20.599947037131837 25.782374235630495 0 0 0
949 1 23.925846325934653 22.986666140404218 16.00850693008245 0 -1 0
30 2 19.683946950743916 22.725296142099207 13.496300409888821 0 0 0
1302 2 20.068439722296898 10.429962292642992 11.628374105590447 0 0 0
824 2 6.079145751284793 8.498227268668641 18.264192547190966 0 1 -1
150 2 8.666018959460104 6.976445918669239 25.19305354115005 0 0 -1
2440 1 17.069287487018666 19.271654356871355 10.444565532536673 0 0 1
98 2 9.069485689128252 7.537829392063366 4.657489140953436 0 0 0
2408 2 8.98223850404679 18.247122882421156 6.651190932722166 0 0 0
369 2 13.667759891408434 11.375693665354692 10.022153524613005 0 0 -1
1065 2 21.371419828220873 29.953811002152854 22.022247930754506 0 0 -1
1130 2 13.128349429708685 14.045628026357955 19.61674961567409 0 0 -1
2355 2 22.85444874270168 23.752631839920422 19.030513575153687 0 0 0
962 2 23.425469971414408 28.421504732452398 24.14718930726571 0 0 -1
888 2 15.564202260856685 24.497169643825195 19.3956009730535 0 1 -1
1135 1 8.37927267876424 9.714362988127021 22.0910485817271 0 1 -1
299 2 9.782415366964221 21.551534926842105 8.909365666823298 0 0 0
626 2 20.48776436469049 14.871673435563329 26.947891504493857 0 0 -1
873 2 11.441766142188994 14.706636783607824 18.121960939413498 0 0 0
332 2 13.431887123316034 30.844778490315342 16.57353986162372 0 0 0
2311 1 9.158083913601574 9.164347418126855 0.26177970550174473 0 1 0
1515 2 10.82285415837439 15.617479470910776 3.2197580147664353 0 0 0
1896 2 8.41336586156548 16.781502608478345 5.399045289100534 0 0 1
1546 1 10.757287182182173 16.02956021571376 24.04271447494916 0 1 0
984 2 15.020040900039437 8.017392169170897 15.084565140806603 0 1 -1
588 2 5.593628819187172 10.605237443961006 3.72885173371325 0 0 0
909 2 18.430714184917417 26.100510089371756 21.152182915876054 0 0 -1
2668 1 21.100576005303605 23.94394922124662 13.673106908029823 0 0 0
2354 2 23.158896131309092 23.76269276808583 17.485973909270836 0 0 0
218 2 9.822140659528312 24.74091850084403 6.475883307781396 0 -1 0
435 2 18.09032613983807 11.529645271924128 12.855974904034287 0 0 -1
1273 1 3.6491749477696627 5.38231155710786 0.6625569777559742 0 0 0
1132 1 8.974012109633819 4.494323123237051 9.19118298775344 0 1 0
1780 1 7.770339418674398 11.07398451131904 13.537263518362922 0 0 0
898 1 13.602336213246286 26.739494173899143 15.039917719399446 0 0 0
1514 2 11.832746143344464 14.845554977422774 4.042870423544915 0 0 0
2639 2 20.210734355595914 18.932638889633022 3.512079185399574 0 1 0
352 1 6.43832571229944 10.754181987249256 7.794867194291903 0 0 0
961 1 24.197605729482515 28.044407225481375 24.603488519949696 0 0 -1
885 2 13.114448422278228 4.380798830824363 13.502869303001903 0 1 -1
489 2 5.6782362134451 15.597989493011822 0.7156675224841802 0 0 0
2316 2 14.183992524903207 23.897325147472174 9.302211599581087 0 0 1
1107 2 5.248117865788203 16.61242062963755 3.083469235323907 0 0 0
818 2 20.694388841731442 31.580372614203906 15.552347623213874 0 0 -1
775 1 12.169992524843561 25.762046668427452 5.820416397965154 0 0 0
1603 1 16.763408307354116 18.34595487823455 24.623919740885462 0 0 0
2389 1 9.40863426217281 26.28120677728745 6.719289507555103 0 0 0
1605 2 16.21129242207484 17.784113028698258 25.22275088750478 0 0 0
1637 2 6.902210974738468 11.112318204098607 17.317353657055424 0 0 0
77 2 9.44631868999949 25.823629825288894 1.937987677329873 0 -1 0
100 1 4.105616463423276 8.429541711204859 5.863670170865797 0 0 0
1877 2 19.67454453700198 32.78509359925498 20.25550390680539 0 -1 0
2669 2 21.972398536345523 23.85388510846215 13.220354958759177 0 0 0
843 2 12.958800125476559 22.070532542193103 22.22745055344721 0 0 -1
2395 1 1.5847022283460501 2.9859550021255585 10.133380517335663 0 1 0
1016 2 8.087955381681455 3.8833133650485885 12.426970675512402 0 1 -1
2283 2 12.174013828975148 23.74995079105171 8.950053137812121 0 -1 0
995 2 3.2340026808403404 11.972254779628475 2.0091129979070117 0 1 0
97 1 9.772341915402269 6.959114219906366 5.030639293794396 0 0 0
2532 2 11.221036898644261 23.02892213277127 17.949519448372936 0 0 0
113 2 16.375191760130612 29.189770569958142 21.995329216766255 0 -1 0
1513 1 11.400750496332694 15.746401350512324 4.007189793996364 0 0 0
1078 1 18.124807431464124 26.348548166817984 14.034746299916039 0 0 0
963 2 24.149470503171774 27.072875465001424 24.836996599166625 0 0 -1
1547 2 11.131600175803648 15.37689614991491 23.423486882122003 0 1 0
2353 1 22.419088084440048 23.776267531011985 18.125427548251047 0 0 0
917 2 13.746109146184 13.849649890471447 26.614725780153304 0 1 -1
417 2 13.192002994220895 17.28174331901322 19.067176156343326 0 0 0
985 1 14.143770108021688 11.128064528582447 20.576704607771454 0 0 0
1884 2 10.61492015848207 18.070276910612318 8.920639373206898 0 0 0
76 1 10.25755710446324 25.387570102676293 1.8334634301547454 0 -1 0
298 1 10.035293973149022 20.62777937830814 8.67119227113323 0 0 0
1707 2 15.188123924383362 14.83000511763853 14.674700731362478 0 0 -1
1020 2 20.378498234333684 25.68495426771454 3.1738732961834915 0 0 0
612 2 6.5731891863089285 5.70396690807353 13.022374672310342 0 1 0
1861 1 2.722412040354539 10.5002137498477 5.103077000204738 0 0 0
1079 2 18.447637623448447 25.632860688246726 14.602318307709286 0 0 0
883 1 13.811283333133815 3.8544445435296173 13.898735586403573 0 1 -1
2442 2 17.379638969682297 18.612515814485576 11.060967279256507 0 0 1
1915 1 14.271631413530365 24.43775937872274 13.868932540597214 0 0 0
2451 2 14.290839923323876 23.32748109082246 21.32452114412606 0 0 0
2315 2 15.258086312677168 24.638032881970805 10.28363546071903 0 0 1
2626 1 13.97588114194058 25.963334024368674 22.742650090095974 0 0 0
983 2 15.580409477040519 6.550101096493973 14.979787026659222 0 1 -1
923 2 19.279877346661554 18.342957796814847 12.497464778283128 0 0 0
2572 1 14.4398547897183 21.673446698091045 17.414005465877796 0 0 0
354 2 6.626352536320841 10.127098375050181 8.497482279552365 0 0 0
156 2 7.034387797091098 3.776621406144887 9.150726071804499 0 0 0
1589 2 10.567005309717386 23.590948555477112 0.9232437305879964 0 -1 1
1616 2 12.648473734117463 20.689301026073124 14.562109528592453 0 -1 0
1050 2 10.840021655276313 21.840210706822646 5.762230365830199 0 0 0
1081 1 18.48948161604521 12.42017445502007 20.648371373058133 0 0 -1
1594 1 17.778301931028643 21.82048517624299 17.209067719085443 0 0 0
2445 2 9.727093451877582 13.38883425984934 8.543940161306951 0 1 0
1588 1 10.415498753122897 22.688358365876645 0.6102293762456074 0 -1 1
1150 1 17.841522762523873 19.394385760695833 16.2395225336891 0 0 0
1841 2 21.040567766434215 13.309471982844071 25.07317064687426 0 0 0
313 1 11.757573282961374 16.134190415319594 16.13782211311836 0 0 -1
1118 2 22.061876946448315 26.27842140976841 23.116165464761167 0 0 -1
1872 2 16.892465842481336 24.1995695042821 16.341891267054255 0 0 0
2613 2 19.81152927674123 24.65922714311561 12.25350789360366 0 0 1
1133 2 9.834988288894456 4.705340939591346 8.74501721309525 0 1 0
1762 1 8.502062907531146 12.694666738229232 11.259004136697582 0 0 0
2556 2 18.923474517068726 20.584106994906794 22.7132735701334 0 0 0
2548 1 19.46194681475858 10.474458861082878 25.322865641686924 0 1 0
1870 1 15.92237509056686 24.014213283276657 16.535772233631647 0 0 0
1662 2 5.178563301854648 13.380184927866972 1.021651653035063 0 -1 1
1136 2 8.060683253730188 8.867599532301702 21.773023585324598 0 1 -1
1736 2 12.128637388903158 12.198398000706646 8.39571275145196 0 0 0
376 1 19.960185992944407 29.914360835021768 18.001964743052707 0 -1 0
1109 2 8.0277537349361 7.0985578432518395 14.059622559999505 0 0 0
372 2 10.795475705988602 11.866371906564662 22.513871656094036 0 0 0
333 2 14.202150656442132 30.25234265292987 15.268985725500343 0 0 0
2555 2 17.541129971526896 19.827504002404638 22.421581745410176 0 0 0
374 2 4.859382396178464 7.650667193055 3.1887971296804416 0 0 0
1801 1 16.243577490864315 19.415073235904224 13.977092499740111 0 -1 0
442 1 9.0150469832102 6.034466419011963 2.100911982774023 0 0 0
2601 2 16.120056603728326 21.087014628515956 8.988102975183915 0 0 0
2600 2 16.778496811544546 22.03737772863521 7.911357325883188 0 0 0
188 2 10.950852355777897 22.999213088240246 10.524223177825096 0 0 0
2444 2 10.903887325589265 13.572399867570985 9.443301291585433 0 1 0
1859 2 11.54188043241931 13.518259120576555 21.643071961169124 0 0 0
2642 2 4.911803067986925 4.432485590903434 6.543975610422434 0 0 1
2307 2 19.224793201759 28.507367248792097 3.875981926753132 0 -1 0
1119 2 20.589888768938547 26.501686338285804 23.0747404403151 0 0 -1
1088 2 18.431671303406922 28.666259824904742 25.50439304009345 0 0 -1
2217 2 28.396043516658125 28.526881181855803 20.525617135990018 0 0 0
269 2 13.716664340395145 19.913113142753776 20.26541374604561 0 -1 -1
2306 2 17.963766091295675 27.62776628174431 4.341742371242868 0 -1 0
198 2 15.856501397377684 28.10077142923888 11.115502068077689 0 -1 0
1089 2 17.33934570525708 27.881477907345708 26.27999883438808 0 0 -1
2468 2 9.441129946978368 13.34523494605339 2.535838620537749 0 0 1
2570 2 18.613127164698962 25.150984043616866 8.680295011546198 0 0 0
776 2 12.171915133436842 25.329688383885024 6.680177270903035 0 0 0
108 2 8.75571217662173 23.33048881002695 9.379455897995946 0 0 0
1658 2 14.277839979007176 28.946289336773386 17.148183964658912 0 -1 0
1103 2 12.095286847226394 10.923091077465756 23.880989872719297 0 1 -1
2604 2 16.74489224501372 14.776455475969257 23.565996026529426 0 1 0
2404 1 11.7068583657145 24.913694588612955 17.21942169042079 0 0 0
1134 2 9.085299890321792 5.0833430101613395 10.012333680208851 0 1 0
2644 1 10.870101802258233 9.693137387449546 19.888142708746525 0 0 0
3026 2 26.942917460643788 28.526542557089883 17.16498421052251 0 0 0
2637 2 14.990845818564345 27.602762264049804 25.143309761938113 0 0 0
1735 1 12.976704111185379 11.767069397947596 8.35926806794193 0 0 0
2646 2 11.128027341933432 10.195387448620467 19.06201376040323 0 0 0
2413 1 11.744866707717849 17.667288515640593 14.010179128327835 0 0 1
895 1 18.534662046992747 29.279981930102235 20.80701711303008 0 0 -1
2603 2 15.3535331021064 15.276114892889721 23.088085200955557 0 1 0
2554 1 18.072624115002593 20.60063785037754 22.19383164210368 0 0 0
2629 1 6.806547349520509 8.535890935931944 9.56234343980989 0 0 0
2305 1 18.30485564451533 28.530856068202656 4.2145093654733925 0 -1 0
443 2 9.388847269025415 6.918056732478533 2.2404271533582887 0 0 0
2321 2 9.389112764544848 18.345225476542527 18.80235754729104 0 0 0
2375 2 11.077029001262696 29.194167345470532 7.205758577433586 0 0 1
994 1 2.4483103950009384 11.829518331382348 2.6201911807230505 0 1 0
2641 1 4.772200718893247 3.5702878970056915 7.007574327910709 0 0 1
897 2 18.141953067876667 28.406731298777647 21.167009808433164 0 0 -1
318 2 20.801947130084272 25.940729382177732 25.04595140866753 0 -1 -1
725 2 5.6948294713694985 2.005631847893314 2.6543842504029915 0 0 1
2456 2 11.968867424499361 18.081149903720416 0.6880247832689391 0 0 1
1672 1 14.219963996844154 29.41182481449885 8.936909063087512 0 -1 0
1617 2 13.36364352793083 19.55783372021953 15.639423461513015 0 -1 0
1117 1 21.37526324202023 26.728423278719035 23.612342758776787 0 0 -1
1737 2 13.578294243940295 12.539236741075618 8.394719602627537 0 0 0
1909 1 14.10163306294615 11.919910504062273 15.617952741376115 0 0 0
1682 2 6.245553458548853 5.503352746540274 5.21654922474316 0 0 0
368 2 14.676276165839337 10.983365537152316 11.2162409662811 0 0 -1
197 2 16.42642778415686 26.69757328712332 11.320102969124582 0 -1 0
759 2 18.726763298125615 28.88808501476606 5.949953883210548 0 -1 0
2576 2 1.9569610292413455 5.943892512183828 7.664381136559685 0 1 0
444 2 9.709768944058542 5.358830230981359 2.3073201812782482 0 0 0
2513 2 16.887432438891437 26.70354053122962 16.336956087616553 0 0 0
149 2 17.285216171453726 34.51753209276659 25.47115663097911 0 -1 -1
1681 1 5.662352489727434 5.817933303503236 5.956289797941577 0 0 0
2467 1 9.36771864006761 12.470293020011034 3.0202802204862382 0 0 1
1596 2 17.525683393784988 20.974478947426306 16.80190561411437 0 0 0
1621 1 9.594582821251091 12.212223230486803 17.892163383524476 0 0 -1
1622 2 9.594296247287192 12.053291258231715 16.918853606052444 0 0 -1
1151 2 17.224810605724052 19.31603057673085 15.43963936229207 0 0 0
1691 2 11.373653049117532 22.59953504450602 3.1725280058978154 0 -1 1
316 1 20.351102684995634 25.5132807330397 25.809833125398477 0 -1 -1
2612 2 20.114620575192774 25.52142368093194 10.933093507579509 0 0 1
2491 1 10.640027963126746 19.268547744321832 3.620358091851318 0 0 1
5 2 21.71890008353656 11.223401856593979 24.106231810119745 0 -1 0
1110 2 9.2799433062417 7.868502865816556 14.07351127059351 0 0 0
1876 1 20.598852518511382 32.569858683634 20.463497754899507 0 -1 0
2563 1 9.905969805716268 9.97206648424689 2.5529713608870446 0 1 0
2630 2 6.251237282349177 8.915799623459941 10.306752455063487 0 0 0
216 2 17.570377604889767 22.489654223105422 10.893069214867703 0 0 0
819 2 9.620120631379335 4.668709675313004 15.132230139436825 0 1 -1
373 1 4.684320316294086 6.727189974454661 3.0049622760541377 0 0 0
1049 2 10.567295243210737 20.45575431238039 5.141137340846151 0 0 0
2512 1 17.2496089282244 26.877284932564738 17.21683528438945 0 0 0
214 1 18.012932988892814 21.62452075189615 10.963154554465481 0 0 0
1900 1 9.99635448924243 8.027099961673862 25.394504718495615 0 0 0
375 2 5.562311513235036 6.310806867883542 3.1820364977529287 0 0 0
1668 2 13.946259971034507 17.51416793860145 26.188827472653347 0 0 0
2439 2 6.358927665671036 12.981577898281202 4.437847926200796 0 1 0
189 2 12.14898751469706 22.016712056876216 10.701349593547402 0 0 0
844 1 13.769937502685245 15.51903087482068 23.53661075990454 0 0 -1
187 1 11.927418628855484 22.981599392008242 10.697319686262604 0 0 0
1611 2 8.167807716018135 17.058740748446027 3.139595699765971 0 -1 0
314 2 11.863765438783169 16.608884726232777 15.321882102902492 0 0 -1
2602 1 16.280768499534574 15.081485739575747 22.755034902330106 0 1 0
1548 2 10.007784727899839 15.498344890307223 24.24873007724796 0 1 0
1560 2 12.432093740471968 27.5521890743776 0.23912327144454903 0 0 1
2598 2 12.076591905301646 20.328410086601703 20.61112164975071 0 0 0
271 1 12.222938105586424 11.691741409993677 18.426914308879162 0 0 0
2469 2 9.846189865215045 12.599931590666769 3.865454831961383 0 0 1
1657 1 14.690553011934544 28.299153985345857 17.810753178821546 0 -1 0
385 1 18.85032651370835 16.775521673914447 24.688981871700868 0 0 -1
154 1 6.339890249680428 3.358547654119379 9.615447675506395 0 0 0
29 2 19.461966266251586 21.316977232029394 13.81975871099741 0 0 0
1152 2 17.362637274942 18.70175374290376 16.742710220036574 0 0 0
625 1 21.149733871836624 14.168308056181031 26.746709417391994 0 0 -1
1878 2 10.903779579538908 5.304413548780375 20.012772463456844 0 0 0
2437 1 6.619707541954023 12.508097785665823 3.6190865818725912 0 1 0
1615 1 12.942215219545519 19.749425256222036 14.718490804162881 0 -1 0
920 2 19.89525212000924 19.651415512460353 20.95847576239663 0 0 -1
284 2 24.56506798200897 30.089260528070913 21.27480584789042 0 0 -1
871 1 10.485550881795248 14.74122048541341 18.447810770632184 0 0 0
820 1 6.404793349196311 18.81897482177203 0.9669623604591203 0 0 0
2670 2 21.26405446497339 24.492258243583432 14.4590304911046 0 0 0
117 2 12.554645269580242 13.384971102497603 1.4182915670755554 0 0 0
2342 2 11.546194037416864 17.6601371522239 26.499702619073858 0 1 0
2492 2 11.371484910647105 18.678027723798213 3.381703540250262 0 0 1
1085 2 14.585928046685094 16.88901085177963 2.9841187868424632 0 0 0
848 2 14.000763680765818 18.090884232809884 10.021818201737878 0 0 -1
273 2 11.269773494427458 11.841568174387831 18.110038056803436 0 0 0
1084 1 13.836234473960168 16.31707499991786 2.5848367462069217 0 0 0
1910 2 14.460384558187815 11.052848335955892 15.3769132019579 0 0 0
1087 1 18.18416187492663 28.373254430109622 26.385535064094995 0 0 -1
360 2 15.229374068435533 22.924845658688962 24.486797685302925 0 0 0
196 1 16.69815940640176 27.558210757134113 10.900066469645836 0 -1 0
777 2 13.008889830483254 25.572834835739368 5.397657592311654 0 0 0
308 2 23.778073923099363 32.823072723346705 22.714255688697612 0 0 -1
309 2 25.049061825804344 33.54929345247469 21.964703409628477 0 0 -1
3003 2 7.942261225903408 7.526258913539605 7.170146343062139 0 1 0
1809 2 15.534352639397898 16.485284171536986 12.224723061651861 0 0 0
880 1 14.560750535515048 20.029708611991953 23.380466557046137 0 0 0
315 2 11.931961254692986 16.814548473376565 16.828701042814963 0 0 -1
283 1 25.227730699354794 30.389452926652204 21.855967553572697 0 0 -1
386 2 18.067716153496395 17.39018333672005 24.581335706157112 0 0 -1
2412 2 7.412502567418718 25.31983441372121 3.1439598581299233 0 0 1
726 2 4.4868599222659125 3.0064714948834466 2.7838826975103155 0 0 1
1545 2 6.323565400382595 8.049998056792115 15.415311195817255 0 0 0
84 2 12.052586044730994 20.196696839271457 25.048587782634094 0 0 -1
387 2 19.491547670852196 17.34119278854167 24.22746272319142 0 0 -1
319 1 19.194520794718002 16.38014751142864 15.1875544019517 0 0 -1
1559 2 12.4040625564375 27.78572874236107 1.7731627467168563 0 0 1
1683 2 6.393584699273987 6.25709593127378 6.508709311517597 0 0 0
1558 1 11.868118114186101 27.428242308272157 1.031877411441421 0 0 1
1763 2 8.908623557565653 11.975952599595628 10.716722205900606 0 0 0
2339 2 10.440388108967788 4.439939710269991 13.090057666411765 0 1 0
13 1 1.1589266529322466 7.805676650525572 0.8091014938140871 0 0 0
285 2 24.817302920951946 31.030880204763985 22.370960009418663 0 0 -1
2549 2 20.385788037055363 10.49702929024909 25.712790272717065 0 1 0
1520 2 18.02721358933751 10.613312539675297 5.457897577165024 0 0 0
1802 2 16.89352577693752 19.04961884067307 13.316578458165287 0 -1 0
901 1 16.199426430489794 22.271807654239794 14.29091163832325 0 0 -1
902 2 16.021034997680317 21.289103451383074 14.289598072045555 0 0 -1
320 2 19.106563701270932 16.460324636121893 16.152493169768707 0 0 -1
2493 2 10.696366423230595 19.944138344122518 2.916827747115422 0 0 1
1880 2 7.399395570698239 10.810500414302318 21.13248829934685 0 0 0
2645 2 10.994129492658946 10.313202155502617 20.66128736741878 0 0 0
1600 1 13.114848482472365 14.279487833023484 17.78997185806018 0 0 0
123 2 18.684816949995295 13.784780914290206 25.154215532580867 0 0 -1
367 1 13.783276993641831 11.188788990735675 11.018085681860583 0 0 -1
1583 2 11.316602223105404 15.842387887834949 9.848606401976937 0 0 1
317 2 19.430211210488743 25.54853852497084 25.584815008534036 0 -1 -1
2571 2 18.862753895637333 24.17278063383389 9.735242780954916 0 0 0
3001 1 7.487977521680776 6.766739260222091 7.5170446346896975 0 1 0
115 1 13.106208141201895 12.872941659196652 2.0699043088279008 0 0 0
116 2 13.401512694916839 12.021452647048681 1.6536956008312123 0 0 0
817 1 19.955446744108592 32.12630971539758 15.833865336464067 0 0 -1
724 1 5.462963295593417 2.923592071322724 2.8682959086860467 0 0 1
2415 2 12.162322382854132 18.622791073244528 13.981225120128371 0 0 1
1911 2 14.713878157655177 12.198641228690589 16.32928612962576 0 0 0
1048 1 10.300315663407021 21.032647424552067 5.846224184395686 0 0 0
1066 1 18.969124986416464 30.303575687802315 23.860160119059778 0 1 -1
331 1 14.21702561328074 30.39286430273497 16.234022715478346 0 0 0
1086 2 13.105360193022424 16.21809894606618 3.2406247433721016 0 0 0
627 2 11.847167650453368 7.271609782119479 0.12677966723166798 0 0 0
1083 2 17.753567119527084 13.044150189381634 20.41600918221456 0 0 -1
2514 2 16.89711134705347 27.727148230205366 17.496768212103564 0 0 0
756 2 11.737897158844364 25.238269289481018 14.717446580058896 0 0 0
2565 2 9.738373104815796 10.953353379925728 2.6120326739099027 0 1 0
2550 2 19.492395870641033 10.329596739542897 24.346549968600623 0 1 0
680 2 13.731622570630101 2.1284095930258906 2.8246175162507656 0 0 0
1673 2 15.014017976530738 29.815663179477284 8.602928580813668 0 -1 0
1803 2 15.394116208316472 18.88661423237728 13.85658555319718 0 -1 0
2338 1 9.739133328752052 3.767196437571947 12.833283902048434 0 1 0
2438 2 7.46146761157202 12.945354117129403 3.4079566622382287 0 1 0
1538 2 9.777903988668488 14.66209564836449 19.924737464003336 0 0 0
2569 1 18.840160483372127 24.212784968197816 8.781160312149073 0 0 0
1235 2 9.753090303060365 5.7160961892094795 17.208733230370207 0 1 0
788 2 19.20613150810507 20.45706461860149 8.829331299893258 0 0 0
155 2 5.504064155960588 3.6224576980043457 9.267898771973613 0 0 0
2635 1 15.590039768454094 27.167500851084956 24.46779935700273 0 0 0
2681 2 12.071700836545 15.77703762020904 0.23240072830323547 0 0 1
1234 1 9.184897977063013 6.467383271686252 17.23436060509209 0 1 0
900 2 14.43412114806386 27.199234250001716 14.759563164353334 0 0 0
1572 2 8.845665851788777 11.713490835602467 14.711379761401624 0 0 1
2682 2 21.400692761914748 21.5894504729367 26.546246869580024 0 0 0
1602 2 12.840037818518878 13.380958723861012 17.93009876837409 0 0 0
2680 1 11.830242723312024 14.76776351415262 0.26150931277708656 0 0 1
1236 2 9.090951479676077 6.7158285405051314 16.29614610422418 0 1 0
15 2 0.30738869401359903 7.701148738182189 0.23542702486854322 0 0 0
272 2 12.629338833449953 11.194237972520176 17.724069727860105 0 0 0
1582 1 11.87882153211381 15.079822526929101 10.132793421020693 0 0 1
2574 2 13.493978465365341 21.914364840504575 17.250291464168424 0 0 0
2631 2 6.287856202563509 7.89270317808347 9.069298326942915 0 0 0
2636 2 16.10052725716081 27.920355748173453 24.184298950638254 0 0 0
1886 2 13.950432327846212 7.579053074100957 8.69432897955245 0 0 0
1907 2 6.572079633318825 7.166759291699811 0.6463415426271677 0 0 1
128 2 4.55397735538785 6.52022906802577 11.96150874276386 0 1 0
1890 2 15.614942805041736 16.961148023276216 6.562690526680239 0 0 0
1840 1 21.147390991825322 13.015966709213682 24.15861206636784 0 0 0