LAMMPS data file via write_data, version 8 Apr 2021, timestep = 0

6144 atoms
2 atom types

-2.145521932247298 62.11381106342958 xlo xhi
0 28.09277236458249 ylo yhi
0 27.15410909529407 zlo zhi
10.168015383682082 10.192068845975392 7.119505909761681 xy xz yz

Masses

1 16
2 2

Atoms # atomic

1595 2 13.01742089377953 23.118722324581054 16.410269748563415 0 0 0
1901 2 11.97955209653657 9.18105928129693 16.60881753846587 0 0 0
1686 2 8.40810986824201 18.098971022880356 6.143356813911618 0 -1 1
1915 1 11.977506626022956 19.324593273668686 21.223031679495616 0 0 0
225 2 15.824390153550688 27.472422483458633 2.996458887059232 0 -1 0
1812 2 11.76848982814801 30.206417312368234 9.524305738955691 0 0 0
25 1 14.055584722326333 16.301096024814708 2.034594269821128 0 0 -1
1625 2 14.28076682133057 17.403027381670157 14.787643316834743 0 0 0
2464 1 8.538898239598664 14.650383529399438 5.7365451519935435 0 1 0
886 1 15.39345356286653 25.743549498867683 12.035985838805649 0 1 -1
1605 2 11.580110847110854 12.199020305605183 24.920000547911926 0 0 0
849 2 14.962096808100618 17.182828930572146 17.015548779712606 0 0 -1
5207 2 5.084056401869519 8.725118679803174 13.791114350334515 1 0 0
358 1 14.618937549568848 14.576905719781397 26.783976143278405 0 0 0
2466 2 8.654097588334269 15.595919248728997 5.638455475986939 0 1 0
1559 2 3.0270615266331924 1.747606663801767 1.573287065223122 0 1 1
987 2 15.179776495206678 17.11802399409603 24.650069614623153 0 0 0
2396 2 3.159385639026 5.072091414997643 10.146035008945738 0 1 0
1064 2 15.334939045122788 6.365393791895992 23.596978742989045 0 1 -1
2389 1 10.456008688858015 28.15500350261909 8.074016281052353 0 0 0
1740 2 23.07934975918057 14.890045220378996 20.958246518336843 0 0 0
3477 2 2.628405648503477 7.3274339754489075 5.425414233277975 1 0 0
145 1 18.804008593942367 32.366864721539166 21.61296976464837 0 -1 -1
1709 2 25.86502400841701 29.031832138660445 24.148562976076008 0 -1 0
487 1 23.916353796300463 16.705483508338393 23.417872174886217 0 0 -1
880 1 14.10713002553409 22.136055209864633 22.364359157283392 0 0 0
1587 2 18.36299307592323 17.311961408890497 15.09767431235175 0 0 0
1586 2 19.48972041158172 17.000885348663516 13.968137172346596 0 0 0
2336 2 8.195570967552523 9.703644044721294 19.738127512130653 0 1 0
1674 2 1.2967248366466166 6.235338082826465 2.6431275352670696 0 0 0
1715 2 21.601630220559365 29.81090077628656 18.635358473024514 0 -1 0
1871 2 16.742070378090084 30.415249719791746 15.065435241273352 0 0 0
372 2 -0.6576131407857457 0.3707794805135509 0.9450622573305828 0 0 1
2329 1 0.6086323826826701 1.257935443285974 4.700576800325797 0 1 0
2647 1 28.57748649336467 31.052482801618158 12.958453410992126 0 0 0
1560 2 2.7722184324667123 0.8047519338590978 0.3636261433032135 0 1 1
1708 1 24.951828516343802 28.88893901375122 24.1972970625109 0 -1 0
27 2 13.57217781598847 16.364012624459622 1.2061095319293234 0 0 -1
907 1 18.82470819514878 25.81706914016537 15.24117772310118 0 0 -1
99 2 10.553348120158303 12.308265295654813 0.9951690178346733 0 0 0
1561 1 13.67560927354727 8.797903093793705 12.188052440397078 0 0 0
1763 2 8.432088145402815 11.084120192687424 1.641804278814917 0 0 0
174 2 21.9001865875874 28.575701903914332 25.648641410995953 0 -1 -1
234 2 10.910494575775347 10.498929787283496 2.4887350743169403 0 -1 1
924 2 14.300234582755994 25.702169155008065 6.591777281278512 0 0 0
2376 2 4.073996652253143 5.433518245019639 0.3192905306513885 0 1 1
224 2 15.705801057509866 27.85819497178335 1.3745524735518417 0 -1 0
1781 2 8.461450472335999 7.465818083398424 17.972770532343976 0 0 0
1710 2 24.705735421920938 27.948886505972354 24.077880573869077 0 -1 0
825 2 6.173343495138809 6.682593502097438 16.447030357119896 0 1 -1
1705 1 15.44875072680638 9.956790277044318 15.07637781225444 0 0 -1
1773 2 22.30983675221868 31.829396939987017 20.29309173008895 0 0 -1
1759 1 7.633376974420816 12.005171175517733 15.561653305282572 0 0 0
1570 1 12.479053559695842 6.435351244848152 11.515323911787878 0 0 1
2314 1 10.810093161592448 7.375955195640151 14.345721740489223 0 1 1
2414 2 9.49036696005639 19.955314230471053 13.9409417418521 0 0 1
1716 2 20.888361641892903 30.161306482040874 19.933729448474573 0 -1 0
4382 2 17.24010986371171 15.569223814246268 26.66246425279073 1 0 -1
846 2 12.29087226078668 19.755820110320766 17.642635281951975 0 0 -1
102 2 5.11702295100042 16.978772710418543 1.2360153391891955 0 0 0
103 1 9.258096364159975 9.399455072021222 7.563382685917122 0 0 0
6022 1 21.92898143135309 27.884677745039337 13.670980828640444 1 0 0
1900 1 12.666158971921513 8.973329798918346 15.948414049627544 0 0 0
869 2 8.09188797113519 20.378698452420558 6.615140006932796 0 0 0
2602 1 9.902244001800053 9.39341928853174 25.53567746622261 0 1 0
1571 2 12.360229574188791 5.631951305600478 12.110566094618333 0 0 1
904 1 15.72140424396304 30.706292034880516 16.391745990350763 0 -1 0
894 2 16.245363773266163 19.938377932125118 16.32254124965105 0 0 0
2117 2 20.830496652065502 14.02895283850242 18.948254741353455 0 0 0
2556 2 23.77745309051897 23.333046276379015 17.40716668932591 0 0 0
169 1 14.372022189846337 7.882106632279687 21.082400471988937 0 0 -1
1669 1 11.628549983403076 14.447212394890311 14.522538668665494 0 0 -1
1063 1 15.39127882441813 7.354948456948705 23.44347628765999 0 1 -1
1671 2 10.879683584086626 14.074686932917544 14.999503727426847 0 0 -1
146 2 18.579377193578775 31.70478580240942 21.005535373735206 0 -1 -1
1652 2 11.749439021321438 16.82707608824995 26.83066934657713 0 0 0
5805 2 8.242983773017611 21.570140080116385 2.8644962106567413 1 0 1
370 1 -1.3692857891535772 0.8606090739598456 0.46226578672990637 0 0 1
1739 2 22.855188995501372 15.86971825698437 22.15012410508695 0 0 0
2527 1 20.737268300194227 32.822457132335046 26.954290515511758 0 0 -1
942 2 9.605215440844635 16.42118799042386 17.82361126348346 0 0 0
2628 2 7.152188331468544 12.97664898373965 0.5196856635037964 0 0 1
887 2 15.440994355087781 24.833951356543498 12.248143333564176 0 1 -1
2465 2 9.039321821560627 14.267347881484321 5.002177152269486 0 1 0
355 1 19.180075411386518 18.442160262882442 25.520080973987568 0 0 -1
5173 1 18.279685270085604 31.210886344329147 24.473699366231934 1 -1 0
223 1 15.510083641870395 27.193311952014586 2.064851423924016 0 -1 0
5975 2 16.648194766986414 19.899017463491273 22.47668923052018 1 0 0
331 1 13.222161425160893 29.832797542510736 16.061906387222248 0 0 0
2407 1 11.372136541097817 20.762426662302797 11.53340505073643 0 0 0
1 1 11.543886332321284 12.339707525107901 18.1740357083924 0 0 -1
357 2 19.511487253668733 19.377733076648152 25.232278331765606 0 0 -1
1706 2 16.390739561681002 10.239984973651689 15.208568144662642 0 0 -1
5948 2 15.84629163504373 28.816208117620306 25.07722195090221 1 0 0
833 2 11.620862063434535 19.14094785273579 15.549586541615868 0 0 -1
1916 2 11.592310953407313 18.441942265147187 21.51349590341596 0 0 0
798 2 20.168983027210423 8.163661020695368 26.046168892491455 0 1 -1
1610 2 16.9788037162214 27.778019721231225 26.57754782183213 0 -1 -1
922 1 14.762714339603804 24.908638621876214 6.949807008270238 0 0 0
2409 2 10.702086451596626 21.27772424604512 12.063318495876283 0 0 0
2402 2 15.786043884703435 24.60471975601074 24.924446631374703 0 0 0
1563 2 13.042515443247952 8.120718106129065 11.790640707134271 0 0 0
908 2 18.130125575240335 26.30780737422489 14.712516786623175 0 0 -1
893 2 15.754184369611021 21.334105811779164 16.76931132602317 0 0 0
632 2 10.978952330274428 17.187988297390017 8.810293123398665 0 0 0
5031 2 10.408108067081583 12.724529031618193 23.335710438057216 1 0 0
185 2 13.34924162972254 24.572751918819048 10.573168777333711 0 0 0
300 2 10.821669054678367 21.44008180553024 5.428337981079781 0 0 0
1585 1 18.78381961492881 16.630832491122494 14.505792712211848 0 0 0
2331 2 0.563951991177627 1.5006783550285983 3.736653978541884 0 1 0
1403 2 16.53121147381996 25.44691950183224 6.329018690990652 0 0 0
184 1 12.767095234654258 24.967404443680188 11.212477371123887 0 0 0
847 1 15.285829085955612 16.921798350445787 16.12473966945436 0 0 -1
1562 2 13.168871928291587 9.20499210282835 12.926465584908469 0 0 0
101 2 5.2385395216922035 16.34084014526044 2.5336949805650684 0 0 0
1738 1 22.35492036840581 15.322122693293052 21.48618325287343 0 0 0
937 1 20.503822069296472 22.512730089665798 1.5641547419624675 0 0 0
5808 2 14.333111543311222 11.082220321742126 16.673258070984808 1 1 0
3644 2 4.735344954565692 13.363014565045356 1.490851099422486 1 0 0
46 1 20.143694486816322 18.277993213964233 7.9615540051391855 0 0 0
633 2 10.242148770838824 17.181085360984113 10.148519444181463 0 0 0
1137 2 11.168741435269672 16.119524250454322 12.44763594728695 0 1 -1
98 2 9.68774491059855 11.530143378847091 0.0009273140799408745 0 0 0
2408 2 11.513090248253421 21.3345688529845 10.741162590731667 0 0 0
369 2 20.983539689680995 18.263668066320303 16.3688026721003 0 0 -1
1065 2 15.228232538255178 7.440243739927443 22.465464327337585 0 1 -1
221 2 9.75999453155638 7.025613062120939 22.274599797138734 0 0 -1
2355 2 26.358818815671228 21.985511181658623 19.872140403079264 0 0 0
962 2 13.860288480706899 5.4748581600023 8.713704083744268 0 0 0
888 2 15.572477880772947 25.833611150329777 11.104461017788891 0 1 -1
6024 2 21.81882069225851 27.50923171947029 14.524092055051538 1 0 0
2266 1 5.94173070683641 4.324231618734051 7.545707546988685 0 1 1
626 2 9.313455304862918 7.852996502504672 8.552589848836867 0 0 0
873 2 13.553252283006028 15.072232172012514 10.184269479943119 0 0 0
218 2 13.368390665847768 26.89211284271559 5.01570238000231 0 -1 0
2311 1 14.526510356341959 18.052635925345832 21.19724378222 0 1 -1
217 1 13.19019323248894 26.971666380801242 5.924580098764099 0 -1 0
4481 2 12.385199090516927 22.929371011088058 9.170079316522914 1 0 0
148 1 10.97142122246976 13.124094876300298 7.114501543117636 0 0 -1
984 2 12.118887244312962 6.751029480267425 18.48327186530939 0 1 -1
824 2 5.657030671677077 7.911497585178923 15.626387514519662 0 1 -1
909 2 18.133394320301793 25.30171434231565 15.767042376083332 0 0 -1
4457 2 6.234485907669123 10.198538117785535 12.80286071370442 1 0 0
2354 2 25.208427578585702 21.193621849310542 19.121907070731517 0 0 0
247 1 8.75303521235347 3.488479540528583 12.807470496849366 0 0 0
3503 2 13.008240419604885 15.400905929326361 19.174277651570623 1 0 0
2458 1 23.645028070851374 11.77587124666557 23.75272529953813 0 0 0
1132 1 21.656191635376445 29.778084522522395 7.738983200655375 0 0 0
1780 1 9.1917387637034 6.895296462809505 18.09190224152323 0 0 0
898 1 23.804340245562383 29.57389063750409 13.01460236892869 0 0 0
1514 2 16.27460291959942 15.132049856331369 9.064438725215435 0 0 0
2639 2 13.628442571182415 19.897991200104457 2.932553173852532 0 1 0
1648 1 16.33619694256395 21.58665409870945 25.24402233317503 0 0 0
961 1 14.215908405286722 5.923607198275557 9.495288421542334 0 0 0
3494 2 4.754706571849338 7.99584250355633 11.10100258786186 1 0 0
489 2 23.66924994381516 15.808390896986115 23.798734818607556 0 0 -1
2316 2 11.441289461597714 8.080612697030901 14.512815957698745 0 1 1
1107 2 5.445267675578476 14.550297191442787 4.828293156349772 0 0 0
818 2 24.302012491177212 31.127921413338537 13.337581572225183 0 0 -1
1633 1 13.912259980568024 14.294510670603401 16.14660902207691 0 0 0
905 2 15.753730964320017 31.57619130949176 16.80859354647745 0 -1 0
2454 2 20.895063243959736 14.968543290472912 22.05392815020099 0 0 0
1658 2 3.6344661143741894 4.101980785563383 13.591809150418047 0 0 0
1637 2 7.969144487404774 14.424940801031392 13.229756101484794 0 0 0
77 2 6.392080912069595 6.214333751358509 0.17892974169202988 0 0 0
351 2 20.198965081221264 28.117466727992213 5.886836162194382 0 -1 0
1877 2 15.36031058615901 5.548015144790243 19.29626458575054 0 0 0
3476 2 3.454874756308618 6.989393086033236 6.584932493899336 1 0 0
13 1 10.539671672481413 26.668401537341534 5.7212941135046735 0 -1 0
31 1 22.573852295909436 33.172449275868644 23.36485683458614 0 0 -1
6040 1 18.09846228819757 22.678774079965734 26.957079780027 1 0 0
5976 2 15.752858746465652 18.651762095875373 22.32201789175753 1 0 0
3767 2 6.156504077047154 12.055577746110243 7.009222652769449 1 0 0
97 1 10.057281406976742 11.493702359665988 0.952942018478975 0 0 0
1623 2 9.758339511436914 10.649040661371627 17.6792802114082 0 0 -1
2529 2 20.006215094238318 33.224501844300924 26.43627352363481 0 0 -1
5997 2 18.018437117404222 25.345620020534135 18.10065333227241 1 0 0
104 2 10.149093689587385 9.54178891586009 7.8826248350957755 0 0 0
963 2 14.257442004879316 6.825444923974519 9.184684692368554 0 0 0
631 1 10.18882382253408 16.721183115978057 9.250709807838476 0 0 0
2353 1 25.364259777356587 21.938284668160545 19.70741607633133 0 0 0
2671 1 16.4670294681744 28.584510781411744 18.59299291756094 0 0 0
227 2 9.901275110814913 6.059139359006659 2.7542245918419144 0 1 0
5035 1 1.9742161451648106 8.574984026000458 0.5721921758836532 1 0 1
1274 2 12.081963307870597 8.719417597593154 23.098816924531995 0 0 -1
76 1 6.408651393134919 5.363265190608788 0.5930094068382926 0 0 0
298 1 10.429263116769192 21.94162972839583 4.7111465556456835 0 0 0
1707 2 15.386430826328436 9.009097124626129 14.924620258141454 0 0 -1
1810 1 12.318327120343788 30.207844538795992 8.759525456074568 0 0 0
1596 2 13.016615966779545 24.544037451422525 16.705350090132765 0 0 0
6041 2 19.06251875486683 22.587318863873655 26.7890506562724 1 0 0
1079 2 22.94305264311534 27.47630191573671 9.89177178133819 0 0 0
707 2 21.608766729085108 11.047533026575222 17.842278063332753 0 0 0
1682 2 6.053369490273058 13.934377026365034 6.853312535558573 0 0 0
4264 1 9.77536728015419 18.50788965030657 11.326462161549866 1 0 0
1067 2 17.05642588692675 25.78618582500427 26.60400872920214 0 1 -1
2315 2 10.490700046863187 7.659707894023099 13.466005346616287 0 1 1
4387 1 11.219460004860192 20.769022064152846 7.081193522886035 1 0 0
983 2 12.255255459738885 8.210793323444559 19.110394576448 0 1 -1
923 2 14.623971689413494 24.141996983342505 6.314202679904731 0 0 0
976 1 18.70269407864827 5.837507677822897 13.068985307449148 0 0 0
2403 2 15.486795207948173 25.01088896091631 23.402278838999834 0 0 0
156 2 26.06028085426716 30.336538262683124 11.084971294479349 0 -1 0
2377 1 9.348005601119013 23.810945941591566 6.34575726528283 0 0 0
1616 2 15.760681138877327 29.4838225276884 6.852971225444945 0 -1 0
845 2 12.976974492027555 20.62130339713361 18.769839816351034 0 0 -1
1081 1 17.486299530127756 12.92078943820503 16.517666023741434 0 0 -1
1594 1 13.165641052882123 23.718488165302155 17.178715649887845 0 0 0
554 2 25.574806537280427 31.46896717495191 15.134047026949359 0 0 -1
5804 2 9.395036732540362 20.979383607269302 3.7435808744407844 1 0 1
1150 1 20.337694632969797 21.588629181128944 7.764900691886157 0 0 0
1841 2 14.129610952256126 10.699124365901625 22.406938604418443 0 0 0
2413 1 9.828725930989858 19.380384769090465 14.671508946935715 0 0 1
1118 2 10.125982950064094 19.20308375375863 0.5440588481599471 0 0 0
1872 2 17.137867739972013 29.13453457976149 14.274692208337743 0 0 0
1622 2 9.710062866025325 9.836786804391226 16.429205836409945 0 0 -1
1133 2 21.525705734323953 30.18933226675754 8.610027196784772 0 0 0
2323 1 11.742021400520038 22.039479178330193 2.492608523982649 0 1 1
2626 1 16.71145073568 19.68298072349791 27.138607336108446 0 0 0
2548 1 18.881142320728554 13.6451510845536 25.938110536739934 0 1 0
1870 1 17.486173090346416 30.00457752268375 14.55410275703791 0 0 0
1662 2 10.39679608972556 13.381590746474899 3.724164357141129 0 -1 1
166 1 26.22550113730919 18.94479241829367 24.522064723912813 0 0 -1
1736 2 12.523408864973359 18.06570160828477 7.046854416834183 0 0 0
376 1 18.664874931661984 27.058020110163245 18.330910588382366 0 -1 0
1109 2 9.944442025643289 5.607264329877676 8.821982327928236 0 0 0
783 2 20.733923995594967 29.077441753146406 12.646552936385698 0 0 0
3 2 11.787531315669584 13.307493867961622 18.231548074128405 0 0 -1
3495 2 6.2183222981902535 7.79891188431628 10.843456994301608 1 0 0
374 2 17.598903371487825 13.451390080583375 21.26951370540738 0 0 -1
781 1 20.269088259596472 29.444402373505323 11.883197276807673 0 0 0
273 2 12.710857252974273 16.25756959002246 24.200625109699672 0 0 0
2625 2 12.274315977039514 22.415387990655674 21.92712817028788 0 0 0
1603 1 11.238712148187004 13.091429296852962 24.62995521982366 0 0 0
51 2 17.20338851669698 16.33676799076154 23.762087846360338 0 0 -1
2528 2 10.246684983941835 24.807223581521022 0.07715421770527764 0 0 0
2534 2 17.31517790187991 7.264136945951161 20.029306529764558 0 1 -1
2642 2 9.496518825265015 4.561261593796084 1.0056617626611946 0 0 1
2379 2 9.990615958624666 23.14210683953142 6.036853962881666 0 0 0
1119 2 9.491339425649981 20.218418712379727 1.6440519447291821 0 0 0
1088 2 21.118181313086197 28.551981719145136 21.450199120519613 0 0 -1
1864 1 11.433666651098193 4.75144275735758 13.304052206198522 0 0 0
193 1 16.005192829631937 31.621204812956783 22.97998858502126 0 -1 -1
113 2 16.314598916817896 26.89498665394513 21.84913804355858 0 -1 0
198 2 8.838564574188654 6.132422456171875 16.183813869503712 0 0 0
1089 2 20.67859873567018 29.82148162361797 22.25599701588121 0 0 -1
2468 2 9.400506713350735 12.218392403885984 6.377954312160938 0 0 1
2618 2 13.756635573020512 28.16004869775523 13.247138808198745 0 0 0
988 1 19.02137221213714 33.88859445304259 24.80984700445553 0 0 0
1451 2 18.40075734041003 4.3184933401094305 15.846025121434188 0 1 0
2672 2 16.810532410468472 29.273642820800927 19.19522606632426 0 0 0
1103 2 14.319407025512636 21.740338832953967 20.562866091562615 0 1 -1
100 1 5.828227327351053 16.7512906305059 1.857746577001362 0 0 0
1764 2 7.0152757519439 11.084555194750639 2.3169001323558835 0 0 0
1134 2 11.026194519475789 2.2110708058802473 7.035548794944641 0 1 0
2644 1 19.681212157877642 32.44299181415236 17.96049113424 0 -1 0
2360 2 4.743150501192343 10.950863735732163 9.446261199302096 0 0 0
674 2 4.4805848372693635 5.590921151131106 3.3308009650024744 0 0 0
1735 1 12.299809156216426 17.374142424097027 7.683352120538863 0 0 0
2646 2 20.21634716146215 31.78245025322352 18.477041612190895 0 -1 0
2321 2 10.160652664297244 16.69616567217938 21.724826238429397 0 0 0
2310 2 27.52632446243779 32.92793353621602 18.743445347001693 0 -1 0
1590 2 18.17053982566589 27.474030581843852 22.453032242483562 0 -1 0
3642 2 5.845992906930311 8.534398631778691 8.741133070246336 1 0 0
1593 2 3.3285182542360965 3.7763904666532726 4.24725691452325 0 0 0
4381 1 6.524823324682799 8.588380418773248 0.31789203329237997 1 0 0
371 2 9.318595608203593 8.35734426656001 26.91527780788013 0 0 0
50 2 16.170449688965828 15.297406248733061 23.93495915411708 0 0 -1
1791 2 6.120580863357848 8.536117570436465 4.275824265245577 0 0 1
2 2 11.146577475252364 12.192997145624199 17.322212976706275 0 0 -1
2641 1 9.659386775272644 4.150625194742226 0.09297470145804856 0 0 1
1124 2 11.020350388161724 6.3363330123436805 20.706242475532072 0 1 0
318 2 10.452657667334549 16.464623111285526 0.36106756627486697 0 -1 0
725 2 17.490835398334006 23.063864948077608 4.11933062798905 0 -1 1
2456 2 17.50333143015682 21.116338576674607 7.907852048985326 0 0 1
315 2 11.588046551697019 13.305325208014548 11.692273102346313 0 0 -1
1617 2 5.073031953380969 2.718147802473612 7.303523224260098 0 0 0
1117 1 9.422875247766086 19.816331092955288 0.7509684111096073 0 0 0
1737 2 12.34422979202874 16.54692711624919 7.098562105374751 0 0 0
1909 1 12.223227632714476 10.129283926687888 10.33552837681416 0 0 0
385 1 20.511870679220806 18.287142279720307 22.62894012226456 0 0 -1
368 2 21.475718644663235 19.265944089402186 17.44023214338719 0 0 -1
197 2 9.738592237720225 6.042010996955481 14.946433312000432 0 0 0
843 2 12.088670986365745 23.95616508336648 18.769330869133228 0 0 -1
2576 2 8.713752771800245 5.932928454408963 6.1579503245380405 0 1 0
3645 2 3.8701079886259575 14.255978401928044 2.4018257615247474 1 0 0
2391 2 11.269104518403479 28.76357538037842 7.945488034509594 0 0 0
3027 2 18.55541259444967 26.48341590981118 10.817720599924694 0 0 0
1685 2 8.385410488256824 17.659113574233114 4.640428378332635 0 -1 1
2467 1 8.941491208920501 11.499351743711982 5.867428196438755 0 0 1
3648 2 9.674295202187322 10.277444375273292 11.972490771294918 1 0 0
2514 2 4.77213363884038 5.430998091912683 14.441484192226428 0 1 0
32 2 21.916498913228683 33.84563661033395 23.108205093566678 0 0 -1
1151 2 20.484074495411 22.2502165709569 7.043892825007592 0 0 0
1691 2 23.508743983775766 26.694544783112388 26.34092577451313 0 -1 0
316 1 20.622927815786788 22.98042605446339 26.753167881344766 0 -1 -1
2612 2 19.364930142191614 19.912196911790687 10.682489686856986 0 0 1
2491 1 21.748335256470767 27.028110218263283 24.65780753090519 0 0 0
989 2 18.391962413009857 34.40933258817661 25.293017298016064 0 0 0
1110 2 11.183469687570826 4.862845290065827 8.178936451979215 0 0 0
1876 1 14.478038032260969 5.889829043712173 19.298528651431297 0 0 0
2563 1 15.544421330874506 5.402267006102213 1.8932101513228718 0 1 0
127 1 6.726201407831951 4.09115196781007 11.020864076519336 0 1 0
216 2 15.41342677424607 24.33228527260226 14.66631423797325 0 0 0
819 2 14.846364576704588 4.405877926905975 12.93960772144015 0 1 -1
373 1 18.364106205435895 13.02808755629766 21.72302517582894 0 0 -1
6048 2 16.1945210392111 30.705147303855984 21.184086616925672 1 0 0
2507 2 19.77701518629751 26.939014437346962 24.409086496513677 0 0 0
214 1 15.231524436657566 23.615753730257364 14.051475981976733 0 0 0
4389 2 10.25721670254207 20.493616793789275 7.101817951005007 1 0 0
375 2 19.006879666024933 13.699422332800093 21.91431842369544 0 0 -1
1668 2 24.35730480150263 18.818696290161625 22.36596845126725 0 0 0
2439 2 27.017306231462182 27.780269259917514 26.75110983533597 0 1 -1
790 1 23.36084675823579 14.367194693719975 24.63351270519016 0 0 -1
3035 2 20.217081788588104 13.437162930683144 24.887366913747606 0 1 0
2794 1 17.404343516520417 4.370212482426974 10.238321491566724 0 1 1
1611 2 7.915314679919188 20.069434166504394 0.32390369012894593 0 -1 0
272 2 12.284596419987208 14.661214472731869 23.96534304109887 0 0 0
4458 2 7.386143337290363 9.423265333882156 13.314572954719596 1 0 0
4266 2 10.386016109059083 19.23012690312922 11.192187628030952 1 0 0
3643 1 4.019598006854476 13.984055832259088 1.4596614021408283 1 0 0
2598 2 17.84397560660242 21.420611637639 22.368173586477543 0 0 0
1679 2 22.277735169650008 12.162183116210224 19.856445703810195 0 0 0
2469 2 9.137756532354715 10.710036011503803 6.399303926945274 0 0 1
2350 1 6.856144290772358 1.906655978991569 1.8517887020573303 0 1 1
1600 1 8.954362960105156 11.501685021627098 19.00559808295898 0 0 0
2441 2 8.989566274598646 16.60386154260386 15.517230870637787 0 0 1
3054 2 23.01195722413379 11.472328255689167 27.109638334526352 0 1 0
1152 2 21.1525174436873 21.069939016910244 7.85372945216988 0 0 0
625 1 9.16664517127969 7.183664026988264 9.20406719684244 0 0 0
1878 2 24.15082968616954 33.28295058351735 19.811278183262825 0 -1 0
2437 1 26.875122455210334 26.875208460798387 26.477757999045604 0 1 -1
1615 1 14.989904735453514 29.867065332703287 7.314203684558227 0 -1 0
920 2 19.32771570710544 20.614374361693308 14.27680827341126 0 0 -1
2619 2 13.878034170690938 28.92440377366629 14.627117288499317 0 0 0
871 1 13.25091785023591 14.892634631591555 9.30540499218589 0 0 0
1130 2 10.018528891541415 13.556188326863463 20.952201433205573 0 0 -1
681 2 15.797819811469648 6.331727599840571 12.100599192087733 0 0 0
117 2 19.967172977937434 20.84899760410909 23.62085385735966 0 0 -1
1142 2 4.43499693149082 8.822157907672693 5.282033502658844 0 0 0
2492 2 21.581293712196135 26.091214105097578 24.6636293585448 0 0 0
1085 2 5.185703032266025 2.395806552546696 1.9434331353115986 0 1 0
848 2 15.105300066386725 15.987429828950319 16.105151541557685 0 0 -1
2423 2 24.238703114134413 29.50593128971727 9.642049350529437 0 0 0
1084 1 4.273190408576076 2.6590629871216396 2.0876123396858164 0 1 0
1910 2 12.663156783663725 9.734671667597118 11.075922602396068 0 0 0
1087 1 20.530237209021664 29.36729555380114 21.414221040242996 0 0 -1
2675 2 11.945278924314804 7.851679652448774 6.658091180626623 0 1 1
196 1 8.928400153606946 5.713146706077073 15.287957408015457 0 0 0
4460 2 7.4401218578681405 23.84699860860958 2.69979668507796 1 0 0
308 2 15.579617447372609 27.11757662102729 18.604405328257794 0 0 -1
309 2 14.841283727553737 25.770389603606784 19.123248901314337 0 0 -1
3003 2 20.949332256762315 27.824599234301285 8.42388596184699 0 0 0
1809 2 23.54138674703943 26.441196395418753 15.97508028665483 0 0 0
2603 2 10.639036134423975 9.983930966280244 25.533496456945354 0 1 0
1673 2 2.1011121377904414 5.616726909912453 1.3441591385195957 0 0 0
4388 2 11.454050354704329 21.10221959713088 7.948309752042302 1 0 0
386 2 19.66810726085337 17.77532624948704 22.83242835717345 0 0 -1
6139 1 16.718850618950285 34.016664578376044 22.732145387612142 1 0 0
726 2 17.817465135728472 22.445518768316155 5.580332151090825 0 -1 1
1545 2 18.86766252173737 30.191565615187546 15.52772572017701 0 -1 0
1649 2 15.442339122210079 22.015039381743183 25.43383805735765 0 0 0
4 1 21.537706149485707 7.564082936658223 25.54373057515749 0 -1 0
319 1 16.363275512142874 25.680701483796014 9.30729332351309 0 0 -1
4480 1 11.607040835077763 22.32440919309487 9.317030651762307 1 0 0
1591 1 2.9234893062886873 4.663945096833661 4.038519801064043 0 0 0
1778 2 15.079612575479569 14.687314724305544 1.7855386730362917 0 0 0
2449 1 10.158512426896769 17.38051525461625 19.04220194460135 0 0 0
2339 2 20.914619989305475 24.486291652181613 18.128163414820186 0 0 0
5248 1 6.859763989036487 6.373145121649987 19.905164161835035 1 0 0
3493 1 5.374917422333571 8.031183136931956 10.385929011631376 1 0 0
2549 2 19.150635710918888 12.752189882346165 26.253764493964216 0 1 0
2452 1 19.979607111827118 14.91969461312703 22.368379822937097 0 0 0
360 2 13.778509039905837 15.027308224135531 27.112800072069966 0 0 0
4459 1 7.663168941099681 23.10632926043907 2.1027816066453946 1 0 0
5949 2 17.23579326811592 29.590975783483337 24.78131957451328 1 0 0
320 2 15.774016167334956 25.48468358983203 8.482954370050992 0 0 -1
2493 2 21.94463875364948 27.114554194518536 23.725853987765582 0 0 0
851 2 7.607935955252703 14.799608941657093 1.696711052500075 0 1 0
2645 2 9.261014936557661 5.157745317392296 18.44118574398173 0 0 0
2337 2 8.066841985824935 8.745252917543596 20.970434317850142 0 1 0
123 2 14.975777644236413 18.947345607679992 18.02838819539918 0 0 -1
367 1 20.98647494569621 18.468271447833995 17.34206338620493 0 0 -1
4456 1 6.596279723961834 9.362387995561608 12.816024429818551 1 0 0
317 2 21.232201452420302 22.272275822773356 27.06163202584093 0 -1 -1
1143 2 5.234040989138858 10.185268274662544 5.262587743065152 0 0 0
3001 1 21.192069939591114 27.456578389720814 9.301151217858692 0 0 0
115 1 20.22116619635457 20.92066865619885 24.543223792754564 0 0 -1
14 2 10.130897888464872 25.80917615736974 5.752017919915764 0 -1 0
817 1 14.37588515344872 3.8983787309346876 13.642616969465458 0 1 -1
724 1 18.198245007275556 22.552598096085287 4.648410550259722 0 -1 1
990 2 18.68146984925597 32.98326229465124 24.66055925959064 0 0 0
1911 2 11.274628787470297 10.134090718777188 10.579603294921885 0 0 0
187 1 14.40362413820139 24.764443292532757 20.265934035778745 0 0 0
2564 2 15.405115616892044 4.7400119367373605 2.6028525013543358 0 1 0
2494 1 21.810434115335187 24.67165498619461 7.822597919876215 0 0 1
1086 2 4.004858232543178 2.4729227052827403 2.9925904274508013 0 1 0
627 2 8.266059630147707 7.19428061216346 9.505123167903863 0 0 0
1083 2 18.21201972834502 13.61149595523993 16.391017548927092 0 0 -1
936 2 16.545028182503895 25.041614900805527 2.5104729772563155 0 0 0
935 2 17.86446970683684 24.257165447890408 2.4097473547598285 0 0 0
4511 2 9.088829277000587 27.504736290543256 3.3668707513824834 1 0 0
2550 2 18.196373613935165 13.422628140919699 25.243154642286488 0 1 0
299 2 11.157070481596572 22.06268744376032 3.9721973512233997 0 0 0
1125 2 20.051683063238592 33.34849678542605 21.250260921677565 0 0 0
1017 2 22.09404648470458 25.62753081125009 2.502400272983096 0 0 -1
2338 1 21.19154844461351 25.383776499100513 18.493828673757193 0 0 0
2438 2 17.012583382978246 19.31129970362658 0.12233988332037202 0 1 0
872 2 12.290020265901212 14.796989898427855 9.47616224252185 0 0 0
915 2 18.811972571874414 15.531524847756055 6.385753871384485 0 0 -1
1070 2 19.822541721938194 26.063539654277637 3.6895278657295223 0 0 0
170 2 13.739062732123609 8.538163649432496 20.8254959912931 0 0 -1
2320 1 11.09982896197516 16.530066611980466 21.449767369051585 0 0 0
677 2 12.955005724299395 12.577772713636305 21.442926107981403 0 1 -1
2681 2 18.534718632125923 14.042931617162294 10.490332664942736 0 0 1
3641 2 6.003704971516656 9.541195375750112 7.5503897677002 1 0 0
900 2 22.96201960304563 29.30299779262001 13.392585545967048 0 0 0
1572 2 12.889627054842876 6.203442823727412 10.689422274447049 0 0 1
2682 2 18.223520921368458 12.952454301879074 11.52390906642863 0 0 1
105 2 8.660016003041418 9.981484300409 8.068298094867329 0 0 0
2680 1 17.836969032552986 13.77455678351169 11.132641641742131 0 0 1
10 1 12.825940963956246 4.991108694671259 7.586006579611339 0 0 0
978 2 18.45642557530404 4.950416655119152 12.873752268023301 0 0 0
5950 1 7.994611373748155 18.158095116146058 2.6431800729548867 1 0 1
6046 1 16.74042908210028 30.777873720252956 20.31179168689529 1 0 0
758 2 12.094566300358228 6.364631150098218 3.590901730263391 0 0 0
202 1 10.727549729640687 9.776558659962728 22.302805504286958 0 1 0
3647 2 9.068382976818153 10.349895453821807 10.548410448257082 1 0 0
1783 1 0.760098192324119 2.789788982726968 2.2578798839110963 0 0 0
1907 2 19.374588511914293 15.350507990699997 15.780336695514361 0 0 0
2325 2 12.185171826229462 21.126955821893826 2.2883046076845197 0 1 1
1890 2 13.322095893509605 11.156319807520077 5.089419927257375 0 0 0
1840 1 13.916157716182887 10.869795560592149 21.497592643357798 0 0 0
1842 2 14.646567464265601 10.44486538024435 21.011375205764146 0 0 0