LAMMPS data file via write_data, version 8 Apr 2021, timestep = 200000

6144 atoms
2 atom types

0.01639221809092697 59.89204216253899 xlo xhi
0.12550269986336515 28.214963300137562 ylo yhi
0.11542474449957732 27.29602025549983 zlo zhi
10.305643830588505 10.38555839858033 7.132425440282567 xy xz yz

Masses

1 16
2 2

Atoms # atomic

1 1 7.326756005419306 5.241486854484223 3.9855641640066373 0 0 0
2 2 6.617512033103045 4.603085023837862 3.763851911732404 0 0 0
3 2 6.983819101002281 6.077425037876625 4.271801638821627 0 0 0
4 1 10.084644255781939 6.746395954751499 10.870727403536849 0 0 0
5 2 10.507173052135194 6.193243302223336 11.592406586552093 0 0 0
6 2 9.875816151262688 7.605781178074664 11.251929191229943 0 0 0
7 1 10.255627045814997 12.734935458614528 4.283145277490421 0 0 0
8 2 10.697284877471459 12.205678220549126 4.952321363584034 0 0 0
9 2 9.964779044221961 13.528372902739534 4.753765780757161 0 0 0
10 1 12.462760039505767 13.934156713050406 10.878533012727237 0 0 0
11 2 13.133738932338979 14.083328353861816 10.182172992052182 0 0 0
12 2 11.81933831043695 13.307700164073395 10.491104891434803 0 0 0
13 1 15.181195833890142 5.110247528737054 4.099435879393155 0 0 0
14 2 15.53108781581589 4.54308117033841 4.787004606983044 0 0 0
15 2 15.084150620008199 5.960436712517466 4.610162108883462 0 0 0
16 1 17.365860229102463 7.0496777524045795 11.050200877319101 0 0 0
17 2 17.732264753445758 6.684302856206319 11.907007627769998 0 0 0
18 2 18.266148130569423 7.156852509395176 10.52012726697506 0 0 0
19 1 17.689646797533584 12.472437682623125 4.338066797817465 0 0 0
20 2 18.48728137038103 12.78827955101753 3.7931657758064325 0 0 0
21 2 18.04475159141829 11.811168866625161 4.98208580111483 0 0 0
22 1 20.253332668230723 14.128595960103652 10.777812802021987 0 0 0
23 2 20.88674704459829 14.46211572314371 10.02453425047683 0 0 0
24 2 19.991719831622966 15.041350091017993 11.126297088997202 0 0 0
25 1 11.774590986859488 8.124403860031183 6.086060705284205 0 0 0
26 2 11.052060256260706 8.74099418516607 5.795119435605426 0 0 0
27 2 11.325406651623346 7.56672757515306 6.743605543800306 0 0 0
28 1 14.185124247498024 10.017611919048111 13.104136863517759 0 0 0
29 2 14.391309475047429 9.33123364392823 12.443180861945937 0 0 0
30 2 13.352358327488343 10.458308307400596 12.800308073808457 0 0 0
31 1 13.89068688574302 15.526283216767768 6.21950391543736 0 0 0
32 2 14.294353426747639 14.81466146960121 5.639379094017705 0 0 0
34 1 16.670334015017442 17.323664554385058 13.12175872052265 0 0 0
113 2 15.512330696303795 6.66249979104304 13.594939551860326 0 0 0
37 1 19.005771749450787 8.109508489021401 6.558450976738705 0 0 0
38 2 18.172433775740593 8.598685962595951 6.22667639609711 0 0 0
39 2 18.456942409345345 7.4507575873264935 7.064535909166014 0 0 0
40 1 21.647980637680398 10.027085195662172 13.303364854244862 0 0 0
752 2 25.112182361987845 15.16685591126393 5.026267355771199 0 0 0
42 2 20.864572231285468 10.574783574749528 13.07255745269837 0 0 0
43 1 21.503647747681015 15.036137627310698 6.458389084376968 0 0 0
2205 2 40.41966543619373 17.03136607095213 16.775805983829155 0 0 0
46 1 24.293067359624185 17.042720937942345 13.202171035846662 0 0 0
3200 2 34.61753651752354 9.824113233095781 3.9897565883440183 0 0 0
45 2 21.715314906135344 14.38956735237368 5.7419003020113575 0 0 0
49 1 5.43942723900988 3.6847095681536426 2.7933827354145917 0 0 0
50 2 5.777818800045131 2.904008988305347 2.321889711038163 0 0 0
51 2 4.737641977894154 3.4329235217843284 3.39993437655444 0 0 0
52 1 7.697734267443254 5.633013401594387 9.687141342738565 0 0 0
53 2 7.515401925173192 5.956598175374332 8.80405276883772 0 0 0
54 2 8.523045666879273 6.031596481634108 10.017991403581945 0 0 0
55 1 7.719194179955555 10.830988044267219 3.158050359319758 0 0 0
56 2 7.988724532770058 9.89845125594584 2.999445970834704 0 0 0
57 2 8.458664958525729 11.447078583720048 3.40766438078772 0 0 0
58 1 10.319689753428102 12.419433494396376 9.702931104721202 0 0 0
59 2 10.005349605693297 12.730240921791038 8.797093133441642 0 0 0
60 2 10.600737571680957 11.50877513688906 9.479885121065815 0 0 0
61 1 12.55673341449876 4.012690580295026 3.0780931274547543 0 0 0
62 2 13.379916333213748 4.475650205228245 3.3496425446300373 0 0 0
63 2 12.19800598809962 4.483284004072704 2.2878589005497134 0 0 0
64 1 15.038708004562848 5.321730122585385 9.939848106828263 0 0 0
65 2 15.643853136290707 5.907293520605703 10.527987944735209 0 0 0
66 2 15.3751770635592 4.4109609011893385 9.771551388467861 0 0 0
67 1 15.342285863669138 10.609116623295689 2.921464183156008 0 0 0
68 2 16.017888984053418 10.922008250183984 3.511626109290783 0 0 0
69 2 15.653427441366032 9.775227374577376 2.5232017236152227 0 0 0
70 1 17.90520914053528 12.735376480965037 9.861258291379938 0 0 0
71 2 17.530409480527954 13.178517152215424 9.05029131102968 0 0 0
72 2 18.450538916449922 13.379947681489192 10.307915997372369 0 0 0
73 1 1.2600112092856404 0.7450993428094637 0.6977296414786116 0 0 0
297 2 7.63600915097756 14.172151454071505 1.845018513610738 0 0 0
79 1 3.889580547727711 7.9562337404592 0.6383262827379914 0 0 0
75 2 1.047104608613061 1.1923627919479372 1.543649415874163 0 0 0
81 2 4.545924687179264 7.403380859398416 1.1751404636920058 0 0 0
82 1 6.5945025882294415 9.75322162918018 7.5181380746571405 0 0 0
84 2 7.2842982338457904 9.143478605959832 7.756618455229179 0 0 0
85 1 8.559596283110883 0.9422022142800542 0.8180245652159365 0 0 0
87 2 8.280809137556751 1.3750063904892489 1.6148237006679955 0 0 0
88 1 11.230297920670152 2.596519822215371 7.490524550753895 0 0 0
90 2 11.434523059150163 3.1903149997106794 6.7191169699290985 0 0 0
91 1 11.314610720232931 8.162326155338125 0.740674580827645 0 0 0
93 2 11.99642042292286 7.432267606488333 0.7850861424729182 0 0 0
94 1 13.999928161934982 9.401637806572932 7.620831644601956 0 0 0
95 2 14.731153057572236 8.940370094868701 8.048707670186698 0 0 0
96 2 13.417755323817534 8.703817211794782 7.344579125438178 0 0 0
97 1 5.365274109025895 4.185325943655884 6.115183354188516 0 0 0
98 2 5.560036303451549 4.989263532077746 6.743462685182405 0 0 0
99 2 4.68322607609763 3.7011318560567017 6.61294747874342 0 0 0
100 1 7.9850282330651385 6.304175759422897 13.08792353337617 0 0 0
101 2 7.5350272539966205 6.934093684484581 12.466959414073658 0 0 0
102 2 8.471777340064289 5.609254325137838 12.61118389612786 0 0 0
103 1 8.047305003077323 11.66520277353296 6.220572534261438 0 0 0
104 2 7.457611775921866 12.19304295979304 5.641814244438504 0 0 0
105 2 7.408678396447055 11.158735548279708 6.789171993651627 0 0 0
106 1 10.18367980843175 12.79094521499136 12.686430219417606 0 0 0
107 2 10.664575007278001 13.452059068432176 13.256642297515436 0 0 0
108 2 10.86072253636596 12.183534012193215 12.299448210624483 0 0 0
109 1 12.554829805972956 4.5281195963205505 6.040820687362901 0 0 0
110 2 13.370500622264904 4.067096603572372 5.789887574193312 0 0 0
111 2 12.36748577054334 5.1006157775931085 5.262475394312607 0 0 0
112 1 15.302203097373978 5.9310720306966855 13.016922443632115 0 0 0
114 2 14.757665473311139 5.226104724477402 13.480029055784232 0 0 0
115 1 15.807135418133349 11.4530229591738 6.32106503605993 0 0 0
116 2 15.260058483245503 10.852989029136909 6.838504151700613 0 0 0
117 2 16.040625393031863 12.182317265733856 6.945507468443766 0 0 0
118 1 17.892016453055557 13.588255981172605 12.85322662950708 0 0 0
119 2 17.2212206061874 12.9650369868997 13.238990958759373 0 0 0
120 2 17.35731115784452 14.142963609715611 12.217241616829494 0 0 0
121 1 3.3444941397839223 2.6794896215694863 4.113149229165269 0 0 0
123 2 3.6228479256501345 1.8079549001177782 4.5215101567024 0 0 0
124 1 5.696861653945941 4.656530635345791 10.961850835650463 0 0 0
125 2 6.471572656983648 5.1507104647667115 10.661811720448828 0 0 0
126 2 6.1568117793934105 3.906693256994987 11.350734199946087 0 0 0
5276 2 10.299065008115646 16.2372572668464 15.303336784883891 1 0 0
4730 2 37.739809491559335 6.98305465252845 18.585368374236783 0 0 0
129 2 6.323366691238798 10.3218028653042 4.043701341327008 0 0 0
130 1 8.418533811505162 11.395002576388404 11.13657579075997 0 0 0
218 2 4.956635288283421 0.8547852959713593 1.532213046897512 0 0 0
132 2 9.000234664441331 11.948658449862748 10.637144356801864 0 0 0
133 1 10.585464276942876 2.805986903240503 4.39378024817077 0 0 0
134 2 11.071155468926225 2.014519266412382 4.663129388172528 0 0 0
135 2 11.343800319692082 3.3072301662183947 3.8947876261608116 0 0 0
136 1 12.855511350413334 4.542205642912726 11.22413063219848 0 0 0
137 2 13.633811387146295 4.92427232279848 10.78907876496846 0 0 0
138 2 12.8073816090526 5.048365832627578 12.078908961505919 0 0 0
139 1 13.241534257373987 10.13240798597393 4.5093062514611555 0 0 0
140 2 14.052379269073803 10.388815873505198 4.0839189610062165 0 0 0
141 2 13.384068950765798 9.183505777196498 4.792418078434227 0 0 0
142 1 15.651708604762279 11.668816285821027 11.017004179422049 0 0 0
143 2 16.41364837659978 12.085688604602153 10.537239523996536 0 0 0
144 2 15.939234472046207 10.92887083419497 11.533187412197947 0 0 0
145 1 6.793923180604187 2.002680120673269 5.1979420285686455 0 0 0
1766 2 17.530132473060135 4.234421160065038 15.524066802354728 0 0 0
147 2 6.3520358289245005 2.8017174988475007 5.63727931327854 0 0 0
148 1 9.445549859817493 3.9220190473532184 11.942162585069951 0 0 0
149 2 9.867920099688924 4.074349637916846 11.035021968179173 0 0 0
345 2 6.081571262647632 13.310942811259688 4.073178977506976 0 0 0
151 1 9.612608922903828 9.293284343424862 5.161540220450663 0 0 0
152 2 9.200582039352131 10.153663718496475 5.46700917628137 0 0 0
153 2 9.929121870579982 9.471255351032674 4.2216292444422905 0 0 0
154 1 12.025461640691438 10.862054049801815 11.78167727178123 0 0 0
155 2 11.264124831413092 10.213769775843723 11.80033983237843 0 0 0
156 2 12.422756126152748 10.837439843536316 10.923753646783057 0 0 0
157 1 14.422945687783713 2.0454389056572855 5.051017640251725 0 0 0
344 2 6.871589148331755 14.117578039645986 5.212482858485327 0 0 0
159 2 14.795795539856043 2.159726970230776 4.120382089736327 0 0 0
160 1 16.944957618940236 3.9002817544917594 12.146206963878399 0 0 0
161 2 16.54232226343051 4.785420521508593 12.483315976056295 0 0 0
150 2 10.229979237915488 3.808227109431989 12.554361559961754 0 0 0
163 1 16.871052916350006 8.998826206371096 5.194895260169038 0 0 0
164 2 16.580825822832658 9.918408702347753 5.523044358413978 0 0 0
165 2 17.56972977043672 9.17445016316658 4.544801126499971 0 0 0
166 1 19.323709874020757 11.15886201781487 12.060453177807986 0 0 0
167 2 18.73561380444959 11.926460867897289 12.016126254854472 0 0 0
168 2 19.56418553652419 11.144364905596735 11.110126753439225 0 0 0
169 1 8.884604079429394 4.361878603750749 6.105787484448929 0 0 0
170 2 9.394227824518588 3.76601158352292 5.535849033387705 0 0 0
171 2 8.142500537062181 4.671672170291167 5.536634781280265 0 0 0
172 1 11.51190726549163 5.9891514753263815 13.130647917867979 0 0 0
173 2 11.845279441039612 6.810936395129322 13.510574518932014 0 0 0
206 2 16.869509023052796 2.704020272851686 3.2613405661088075 0 0 0
175 1 11.683365968152891 11.389649515291529 6.4699749852809205 0 0 0
176 2 12.410814050377095 10.975947897209805 5.937796451743129 0 0 0
177 2 12.019105610608905 12.22599474353379 6.843876052122345 0 0 0
178 1 13.995351829941834 13.226450311458459 12.867369402543675 0 0 0
179 2 13.267447277920246 13.467591437223218 12.221486654124591 0 0 0
180 2 14.600697129258945 12.768783248225791 12.241934075736266 0 0 0
181 1 16.268482121480506 4.019377105491069 6.3819809733370025 0 0 0
182 2 17.08468824978939 3.606386818911986 5.995570650980853 0 0 0
183 2 16.618756723150966 4.848036936113874 6.835019885573859 0 0 0
184 1 18.82372557706525 6.02618074856756 13.172950984839252 0 0 0
187 1 19.36319847749709 11.284659273795867 6.175531608144693 0 0 0
188 2 19.069009464425736 10.697280938215213 6.920777180846366 0 0 0
189 2 19.59884132707369 12.090944991111531 6.56234827473184 0 0 0
190 1 21.631930765147313 13.44207805644962 12.828542573100986 0 0 0
192 2 21.117534108372134 13.630645587328367 12.022248413370088 0 0 0
193 1 8.209850723025392 2.318406531120958 2.944738047546705 0 0 0
194 2 7.577101345616849 2.0991278671596123 3.648731412566214 0 0 0
195 2 9.073650757844426 2.275001929480774 3.336327049830069 0 0 0
196 1 10.669738242020173 4.192058643913665 9.637153103348089 0 0 0
197 2 10.911122528620465 3.5363860612989733 8.90045729445812 0 0 0
198 2 11.52699712382886 4.347386759247967 10.140912585252222 0 0 0
199 1 11.058140987698355 9.902092911800034 2.8973861749582355 0 0 0
200 2 11.219187021942467 9.248264581416489 2.2180751571715613 0 0 0
201 2 11.931137480510044 9.943053279301289 3.4681570876082715 0 0 0
202 1 13.41708988247443 11.14506937621101 9.513154590213958 0 0 0
203 2 14.312077553372417 11.308528672029052 9.957654823861338 0 0 0
204 2 13.580184889826368 10.522919989190711 8.767038270761645 0 0 0
205 1 15.969187072983411 2.4979466143028985 2.8494500591850227 0 0 0
207 2 15.99924626992731 1.8888949613292718 2.0350273940889534 0 0 0
208 1 18.20979346894597 4.487794045353078 9.649590379044392 0 0 0
209 2 17.71617331424051 4.211410961982095 10.386707401949828 0 0 0
211 1 18.56691292152967 9.663777426902376 3.0882805622229696 0 0 0
212 2 18.58591643398375 9.01972488756888 2.3975845308439134 0 0 0
213 2 18.252085499617188 10.483455353948719 2.6444020429508304 0 0 0
214 1 20.85141424226702 11.742703260965042 9.448033353483149 0 0 0
215 2 21.66826324965469 11.892286186430251 10.005945829458579 0 0 0
216 2 20.96144835973579 10.859812512306103 9.03948855227782 0 0 0
217 1 5.759716020556257 1.4252198551987325 1.4974608093061794 0 0 0
1997 2 23.44203141235716 5.683945358216191 20.62996607161075 0 0 0
219 2 5.794149730572922 1.8077674418319347 0.5640289967839347 0 0 0
220 1 7.887137289474701 3.109865827040314 8.513528291465008 0 0 0
221 2 7.916755525760608 3.837446632626342 9.180302277852372 0 0 0
222 2 7.8877335752156466 3.6712839875862056 7.668206964654372 0 0 0
223 1 8.261200475344241 8.425201110601835 1.9791362656717486 0 0 0
224 2 8.858833685278952 7.63165324763654 2.1664669119381483 0 0 0
225 2 8.51333120936039 8.799166168322765 1.1420433853718293 0 0 0
226 1 10.925869133698185 9.790689548660266 8.684732451161896 0 0 0
227 2 11.457146112041878 9.046094351426738 9.050502344237135 0 0 0
228 2 11.448294929845343 10.10486866994939 7.920933821604762 0 0 0
229 1 13.026954631222534 1.7138924410436043 1.6142755667693554 0 0 0
128 2 4.801240801709592 9.899484290752246 4.0402926012742695 0 0 0
231 2 12.74843605279866 2.5050900090553156 2.119972782434692 0 0 0
232 1 15.638434477855142 2.8841093269103526 8.754308199774263 0 0 0
122 2 3.0068628110534346 3.085554165882502 4.940437717815296 0 0 0
234 2 15.955469960821828 3.1597896570102777 7.825182761327235 0 0 0
235 1 15.621790366280724 8.368976713505733 1.638747078751536 0 0 0
236 2 16.049501686078536 8.767372685970601 0.8546578392216766 0 0 0
237 2 16.21863696129908 7.667457589515175 1.8782806180674423 0 0 0
238 1 18.256380380682398 10.268116371306716 8.772350103251483 0 0 0
239 2 18.961538710319914 9.688228136528316 9.110197484390145 0 0 0
240 2 18.473919987272954 11.170997134688891 9.146170175293584 0 0 0
241 1 7.4443019779489585 4.758976669865174 0.8511748265604598 0 0 0
242 2 7.7479201314396695 4.132947295627112 1.4928364598947403 0 0 0
243 2 6.762917108971299 5.280812420508029 1.2722135801004963 0 0 0
244 1 10.234558567933318 6.405806873872893 7.617436170769383 0 0 0
245 2 10.658660989604925 6.0537923629332475 8.34983656013705 0 0 0
246 2 9.860344708542845 5.650071879696174 7.100680701616204 0 0 0
247 1 9.817696292766064 11.716994757992337 1.105014045313045 0 0 0
248 2 9.40230721544083 12.417296708429665 1.7224748362417466 0 0 0
249 2 10.213566932048368 11.10483272450951 1.8081120695935626 0 0 0
250 1 13.045383698160466 13.480963703540679 8.028787864005734 0 0 0
251 2 13.312127641037911 12.620534160364707 8.455098144329094 0 0 0
252 2 13.843667804835626 13.82968866710585 7.657696160370151 0 0 0
253 1 15.029624419650373 4.629742089517053 0.9473041541218457 0 0 0
254 2 15.491401263167681 4.1111373837943095 1.5974275065716006 0 0 0
255 2 14.481070026870324 5.3452270789036085 1.4306579798182306 0 0 0
256 1 17.15455019009724 6.24029313616397 7.549250408243316 0 0 0
257 2 17.53450375870875 5.694411252302973 8.281029803283282 0 0 0
258 2 16.470796460022303 6.794689214675675 8.084848798565186 0 0 0
259 1 17.669833060612653 11.698172576633452 1.0558735142102174 0 0 0
260 2 16.883773290202434 12.128643133791181 1.3934422698937217 0 0 0
516 2 22.700490327861356 12.48571910397037 11.640736757342715 0 0 0
262 1 19.685497305160915 13.483418346945154 7.751232557753012 0 0 0
263 2 20.110287555031174 12.907810067788363 8.474024213707294 0 0 0
264 2 20.347267592341062 14.099410197773851 7.405279478700563 0 0 0
265 1 9.568864101743616 6.158916907997322 2.8443970810099013 0 0 0
266 2 8.740268377762812 5.677708484919203 3.0560514625405344 0 0 0
267 2 10.041813139260883 5.597448126998824 2.180821811697511 0 0 0
268 1 12.306725551615319 7.750019735786675 9.946360672583912 0 0 0
269 2 12.680975413830904 7.240994768458738 9.176590393593754 0 0 0
270 2 11.473274301911108 7.272113174443724 10.254913073797876 0 0 0
271 1 12.326122048364672 13.493207429066722 2.791497647687115 0 0 0
272 2 13.04573611966643 13.539961893525343 3.417009069139786 0 0 0
273 2 11.56726359921652 13.142530825253253 3.300574977958315 0 0 0
274 1 14.689870997870942 15.411482960438157 9.484430381398573 0 0 0
275 2 14.190329168111532 16.268930411361 9.303801051040427 0 0 0
276 2 15.441632368238837 15.539406646586764 10.111378673679617 0 0 0
277 1 17.309916705580786 6.3061467810023775 2.800237252291975 0 0 0
278 2 16.58845688190894 5.626265429832721 3.150324812105885 0 0 0
280 1 19.504382447556356 7.9204692972976085 9.769816922838608 0 0 0
282 2 20.128054846349656 8.052520097287513 10.512002573605049 0 0 0
283 1 19.822668375087154 13.204544614148402 2.976628266347744 0 0 0
285 2 20.527055050288435 13.244270728083304 3.6132079781474222 0 0 0
286 1 22.07057727988365 15.250845202994833 9.247628523261344 0 0 0
287 2 22.7152715303563 15.522588036855863 9.915931808796936 0 0 0
288 2 21.819863939763167 16.080417510904955 8.70602538032161 0 0 0
289 1 5.995989873465339 6.890248066405602 2.100594326382064 0 0 0
290 2 5.427034049457174 6.655957712364857 2.869239917355707 0 0 0
291 2 6.324282923196612 7.780021038742231 2.330738358032138 0 0 0
292 1 8.641038524628174 8.370819334714708 8.740488293130072 0 0 0
293 2 9.06844198528116 7.522190578678794 8.354070715301175 0 0 0
294 2 9.408952560078891 8.93624396777993 8.496651077794828 0 0 0
295 1 8.361933734183795 14.030574207671402 2.49940722276081 0 0 0
296 2 7.920508379077546 13.595357897657353 3.274831929130848 0 0 0
1665 2 10.088953756821686 13.050182236433105 17.14367159501702 0 0 0
298 1 11.13837165307451 15.618138991926386 8.542878055140033 0 0 0
299 2 11.45705521339593 14.724724562674638 8.359663933785331 0 0 0
672 2 36.9143267408226 16.054021250666693 9.342108473147276 0 0 0
301 1 13.26058524611539 6.660003773094336 1.8103430940360397 0 0 0
302 2 12.837446049421473 6.764344033861804 2.7635424830877096 0 0 0
303 2 13.925637820020558 7.354439223206529 1.86816006357696 0 0 0
304 1 16.039225521079192 8.25792415929071 8.873147582179215 0 0 0
305 2 15.755583950946695 7.9815606574129045 9.780345583178514 0 0 0
306 2 16.690810839809455 8.961994283674176 8.948368613430967 0 0 0
307 1 15.910427088935172 13.806966310231704 1.8685426626678012 0 0 0
1694 2 20.288221049358686 5.285080633128694 19.230368077526602 0 0 0
618 2 29.696283391928926 2.754034608553331 8.853988531565495 0 0 0
310 1 18.700768886272744 16.016954725761472 8.525172100430348 0 0 0
311 2 18.980885513545445 15.04939720290256 8.316525216260946 0 0 0
2850 2 41.46438676509633 20.729656195019015 26.218160544780435 0 0 0
313 1 3.711990520501401 4.738016283310052 0.7290719397911108 0 0 0
314 2 3.4098379377661474 3.9140430393474444 0.2806910064780809 0 0 0
315 2 4.4054896213224035 4.484839352150806 1.4371682093822753 0 0 0
316 1 6.416313032359564 6.361801881919859 7.464403962397909 0 0 0
317 2 6.733626578319069 6.907989640475699 6.714992225731872 0 0 0
318 2 5.887426760970153 6.8685243176481094 8.077234484357932 0 0 0
319 1 6.643924275466635 11.829581800478643 0.7875093975616199 0 0 0
320 2 6.38194729506373 11.096201214190478 0.23394273780091954 0 0 0
321 2 7.291442137685546 11.488159976184663 1.4502461795113126 0 0 0
322 1 9.125905730466009 13.566058729402787 7.711307904960953 0 0 0
323 2 8.470244640596505 14.023122725835584 8.344823015100788 0 0 0
324 2 8.570880226703826 12.870756575076436 7.301154573600636 0 0 0
325 1 11.063514875135603 4.637931578881766 0.9754972400750932 0 0 0
80 2 13.761945979467324 14.395311208658162 27.292254158937165 0 0 -1
328 1 13.730775443011524 6.605766541145649 7.738341470304643 0 0 0
329 2 13.168075626813486 5.873796413813855 7.352664069229312 0 0 0
330 2 14.371860244197977 6.12613135279134 8.377574891448866 0 0 0
331 1 13.788278346628585 11.816473584472474 0.8031101464108923 0 0 0
332 2 13.13328165436444 12.36039522553115 1.3296252904975823 0 0 0
333 2 14.39977777273647 11.402128732498996 1.4827476842421035 0 0 0
334 1 16.15574834503099 13.806998812661824 7.823044473771722 0 0 0
335 2 16.450605577824316 14.429788778545149 7.107947571532249 0 0 0
336 2 15.482387712993823 14.390362206222262 8.341269975741415 0 0 0
337 1 4.402225531784228 6.372839434684815 4.461150607285656 0 0 0
338 2 4.676421866330539 5.583944873446802 4.974286020413148 0 0 0
279 2 17.654427438381788 5.858585261634165 1.99011542431427 0 0 0
340 1 6.828020381834595 8.208181575759777 11.095980466273689 0 0 0
602 2 19.838111012148776 1.0352845449301014 1.9652756220950762 0 0 0
342 2 7.548656416425714 8.250615922764549 10.451946693191344 0 0 0
343 1 6.870452693439723 13.297230343264347 4.662091511232254 0 0 0
1618 1 11.290405959277388 13.36132524421598 21.054027917165918 0 0 0
185 2 19.26110062745577 6.796506763903062 13.564431346360173 0 0 0
346 1 9.49958368301054 15.155817621243953 10.949258988359402 0 0 0
347 2 10.095142146664285 15.23458288227697 10.177621986171792 0 0 0
348 2 9.526131213516448 14.269267589481098 11.36643763404 0 0 0
349 1 12.085843273541093 6.5521768252802275 4.2031641453405975 0 0 0
350 2 11.87808101700452 7.13642824386088 4.960387354300544 0 0 0
351 2 11.224470088454854 6.26190745287254 3.8369884521625472 0 0 0
352 1 14.599163830876803 7.8821058692202035 11.337562120962824 0 0 0
353 2 14.806471021422366 7.089142342936381 11.830781030314277 0 0 0
354 2 13.667689044579904 7.812849418271871 11.078180438156377 0 0 0
355 1 14.722145757239014 13.283913275698346 4.424730778320512 0 0 0
356 2 15.137966314513216 12.662910513447668 5.048180173726059 0 0 0
357 2 15.23438567798076 13.18608302100692 3.576491175131059 0 0 0
358 1 16.889616820700624 15.623367807376386 11.010142448524775 0 0 0
359 2 16.80710506730488 16.25008061126836 11.748799745730093 0 0 0
360 2 17.695173910459076 15.859968640744158 10.558816656457783 0 0 0
361 1 7.1550727397204446 7.771364203027923 5.441460583701365 0 0 0
362 2 6.529672824296896 8.471552090752798 5.206388733811967 0 0 0
363 2 8.026073561341747 8.216869093919364 5.376956625319763 0 0 0
364 1 9.690040168795944 9.19190810042439 12.033840510759044 0 0 0
365 2 9.060443019623259 9.948428921252702 11.890238559754453 0 0 0
366 2 9.631682891112668 9.000267451591055 12.969299832737885 0 0 0
367 1 9.342642148302133 15.007234706445944 5.416395963109037 0 0 0
5040 2 14.91640033775714 20.059727956425515 26.103714220584255 1 0 0
369 2 8.984634428535738 14.713340610467194 6.252158194278126 0 0 0
370 1 12.008778251450993 16.529369448801905 11.821492085527552 0 0 0
76 1 3.7679874423134048 2.277339308820376 7.617593152800355 0 0 0
372 2 12.041768403441612 15.675234231810501 11.30200866168348 0 0 0
373 1 14.495009669194868 7.408627003194001 5.21586758800017 0 0 0
374 2 15.300620342976185 8.01131206173925 5.203255677765976 0 0 0
375 2 14.331945111686657 7.135678630176718 6.154681062027993 0 0 0
376 1 16.928462773611543 9.458332660625828 12.410224543618034 0 0 0
377 2 17.813050538985475 9.830318316035788 12.31554758364997 0 0 0
378 2 16.8462454601743 8.728232548934441 11.821377435144383 0 0 0
379 1 17.092739466398186 15.049047690771749 5.460240310828673 0 0 0
381 2 17.053352411222768 14.377525011072269 4.743976223880197 0 0 0
382 1 19.72929496686933 16.61372014783621 12.003281454803155 0 0 0
423 2 34.64863846719626 8.756546113937016 7.101300625127794 0 0 0
384 2 19.40574849121841 16.37676648500342 12.949652478182799 0 0 0
2181 2 38.286321786134614 15.824484747743963 13.965107386456745 0 0 0
1884 2 14.2530101956054 18.558852788185373 24.340043931860542 0 0 0
210 2 19.165214156184618 4.622531284216878 10.112639918993885 0 0 0
284 2 20.061502915892 12.601894183330703 2.251225946650726 0 0 0
1611 2 6.765326441760748 4.88757565242411 13.567413582971247 0 0 0
1722 2 24.193978142256025 9.429221018808219 27.081260697644083 0 0 0
74 2 1.5178984387392125 1.5180648620008732 0.15355067491699603 0 0 0
230 2 12.190086903603216 1.1596839664912806 1.6604418894875779 0 0 0
468 2 20.29266862426115 9.14119878713594 7.3977253627562884 0 0 0
512 2 20.332432156362167 10.136119438633322 5.077753378541175 0 0 0
2070 2 30.152847320281204 7.714025377161819 26.521816999172824 0 0 0
174 2 11.044421767082333 5.552727699231464 13.898688806049877 0 0 0
261 2 17.337227989616274 11.014368419639558 0.4369762537211627 0 0 0
186 2 18.60812158636684 5.436788882760464 13.937977340757733 0 0 0
92 2 10.58006261239962 7.821344507312722 0.2181382020973141 0 0 0
722 2 18.696243694298836 6.233778014313317 4.328257138975328 0 0 0
1617 2 9.205699219204385 11.749987060478448 13.625528635033792 0 0 0
86 2 8.959924934366327 1.656961561157818 0.25830448842826054 0 0 0
1857 2 11.44299218302034 15.492592934337862 13.436640166351816 0 0 0
1537 1 12.698803975313748 9.026102260189987 17.678452978983124 0 0 0
1538 2 13.158832878199297 8.551180287876793 18.405656488133456 0 0 0
1539 2 12.050368909975322 8.4040915780851 17.329368052888544 0 0 0
1540 1 15.220735772184481 10.685864901692545 24.33185348197065 0 0 0
1541 2 14.801027380723493 11.55007018406553 24.46273587800007 0 0 0
1542 2 14.604323832696599 10.186138571376672 23.751322254952385 0 0 0
1543 1 15.006888359839856 15.969204130747844 17.51333800578225 0 0 0
1544 2 15.283364542193794 15.89642929690554 18.4446864171836 0 0 0
1545 2 14.729620875846605 16.876627927041827 17.538676909532484 0 0 0
1546 1 18.04957762838923 17.752666334754547 24.401494138753502 0 0 0
1547 2 18.0564157447068 18.64084634616033 24.84931980819482 0 0 0
1548 2 17.980815157922915 17.1332897851097 25.15605133026658 0 0 0
1549 1 19.86692152837672 9.001075215349642 17.731998877667703 0 0 0
1550 2 20.638050732076096 9.27559006299144 17.126811559448477 0 0 0
1551 2 19.644101998482306 9.944330050542668 18.02609450698433 0 0 0
1552 1 22.600769040724472 10.867676058723623 24.553816724666586 0 0 0
1553 2 21.917248733155308 10.272016056082146 24.19942472974644 0 0 0
1554 2 23.285775599475922 10.35742364116482 25.005071305488755 0 0 0
1555 1 22.68108588736535 15.964101717918005 17.685902449573252 0 0 0
1556 2 22.317794899364184 16.806225244307118 17.992161804504825 0 0 0
1557 2 23.28110535187579 16.20384506511376 16.949919864155085 0 0 0
1558 1 25.451338874490375 17.644415339121235 24.461623638828502 0 0 0
1559 2 26.174147758875062 17.724925202422966 23.820018695899368 0 0 0
1560 2 25.339985347772846 18.552931055124088 24.894832567742757 0 0 0
1561 1 16.661032977880684 11.812592488127654 20.089866559435052 0 0 0
1562 2 16.83049419445652 11.341761671375009 19.21959588558403 0 0 0
1563 2 15.898875568367254 12.44061033267237 19.912850816618455 0 0 0
1564 1 19.559949526392515 13.721901577629454 26.764955564156924 0 0 0
1565 2 19.761170614490425 13.253688302825712 25.908920568730597 0 0 0
705 2 20.63708671273798 11.039538471504446 0.2663219974225457 0 0 0
1567 1 19.362556351864157 18.750040609216658 19.691901157440437 0 0 0
1570 1 22.111419362315704 20.56490605485966 26.859420533497836 0 0 0
1573 1 24.202034050810838 11.790419061212216 19.778103185536327 0 0 0
1574 2 23.373583817859693 12.208488963989263 19.36837472840798 0 0 0
1575 2 23.80679605610858 11.199574880183192 20.469274208074264 0 0 0
1576 1 26.96880955905513 13.481855513462774 26.834224256678223 0 0 0
1578 2 26.259503517378203 14.11429658700463 26.56463130573776 0 0 0
1579 1 26.538075176513207 19.01109770009315 19.945713739539684 0 0 0
1582 1 29.60350250186473 20.85412166212597 26.570547595684555 0 0 0
1814 2 22.376198787129297 9.398901760964659 15.496682180488197 0 0 0
1585 1 10.648506380116027 7.327077995852955 16.506880073351113 0 0 0
1586 2 10.584177959860995 6.34254268333231 16.477698178014915 0 0 0
1587 2 10.017741690394788 7.5135961416175725 15.736278990393366 0 0 0
1588 1 12.723388613078777 9.508115372256254 23.121389268627393 0 0 0
1589 2 12.08465020377523 9.672012249512813 22.336976488272622 0 0 0
1590 2 13.102566813009645 8.636741834752 22.997136666691066 0 0 0
1591 1 12.731025308135006 14.479357608160695 16.383082757943512 0 0 0
1592 2 12.00289762547196 14.173492882372312 16.91024224179692 0 0 0
1593 2 13.388370174074518 14.835074840359438 17.007198090026723 0 0 0
1594 1 15.67829891196453 16.130188956328904 23.114651778546673 0 0 0
1595 2 14.88990466458694 15.933364235054743 23.644312996271665 0 0 0
1596 2 16.331626267313293 16.592026551789672 23.712157963144158 0 0 0
1597 1 17.70741537042714 7.170940293450099 16.630534892328992 0 0 0
1598 2 18.250854449285075 7.831968247840901 17.122051029940184 0 0 0
1599 2 17.14120632975312 7.476279625710473 15.868735034154001 0 0 0
1600 1 20.460166236156798 9.188539347244765 23.322739567728323 0 0 0
1601 2 20.86443956941762 8.402982560299957 22.90132149335761 0 0 0
1602 2 19.75162690141742 8.755984179713558 23.85772345994387 0 0 0
1603 1 20.40325374798228 14.32191173505765 16.266445725846957 0 0 0
1604 2 21.140402350005576 14.786716594891674 16.673441305272334 0 0 0