LAMMPS data file via write_data, version 15 Apr 2020, timestep = 3271000

576 atoms
2 atom types

5.7475165547143625e-01 1.7345249344511963e+01 xlo xhi
3.6975065547156127e-01 1.7140248344512088e+01 ylo yhi
7.1975165547151221e-01 1.7490249344512151e+01 zlo zhi

Masses

1 16
2 2

Atoms # atomic

262 1 3.1248806280035097e+00 2.1362671810598108e+00 4.0332686442505583e+00 -4 2 -1
104 2 2.5097621324734138e+00 3.2055151415803320e+00 2.6584165806286260e+00 2 1 5
103 1 2.0513045312262168e+00 3.7689874740499310e+00 2.1150997890817802e+00 2 1 5
105 2 2.2985669814177072e+00 3.4939473973165849e+00 1.2633198295883854e+00 2 1 5
264 2 3.8624209999694323e+00 2.5927097102416523e+00 4.4402694353450940e+00 -4 2 -1
263 2 3.6492216049866153e+00 1.2895248787818656e+00 3.7219274610402615e+00 -4 2 -1
412 1 7.0054467485593974e-01 1.0114013259736510e+00 2.3853782066598610e+00 2 -2 2
414 2 1.0952242333893403e+00 1.2185146754146117e+00 1.5012066432973401e+00 2 -2 2
413 2 1.3928378289711973e+00 4.4987437097151295e-01 2.8417144751236898e+00 2 -2 2
135 2 7.7948512731166559e+00 2.5556848484695469e+00 1.4283645370399056e+00 1 -3 -1
133 1 6.9688270894090909e+00 3.0077812265227823e+00 1.6947409063703995e+00 1 -3 -1
204 2 6.3195216013180788e+00 2.9347169386763339e+00 3.6318555949936164e+00 -3 1 1
134 2 6.8402874601448538e+00 3.8643265877965951e+00 1.2256744309758703e+00 1 -3 -1
202 1 5.8483282498064293e+00 3.1539849252097807e+00 4.4552629500295584e+00 -3 1 1
65 2 7.8749748402291777e+00 6.5509742018214634e-01 3.8906426359746673e+00 0 -1 0
64 1 8.6636223992847778e+00 1.1166728760556190e+00 4.4446478910259044e+00 0 -1 0
66 2 8.8514734781453992e+00 2.0345661055727873e+00 4.1279719162058051e+00 0 -1 0
141 2 4.8222206898946993e+00 8.7292143157064905e-01 2.0620712030143284e+00 -3 0 0
169 1 9.2046297585749262e+00 1.7818644765684384e+00 1.0239353965551712e+00 -2 2 -3
170 2 9.6001391395721072e+00 1.0958801107362590e+00 1.6065869091953906e+00 -2 2 -3
502 1 1.0978370958793896e+01 4.0694070429594387e+00 1.3421610337494749e+00 0 0 3
52 1 9.3460334158921476e+00 3.8527310101170951e+00 3.5597391715113944e+00 2 -1 3
524 2 1.2703174854969594e+01 4.2706134274145704e+00 4.1513077921817514e+00 1 2 -1
473 2 1.2973006119021951e+01 2.3285364940052258e+00 4.1976338696587359e+00 0 -5 -4
503 2 1.0393293683428025e+01 4.0023773474007349e+00 2.0643297623229562e+00 0 0 3
54 2 9.5416262947774904e+00 4.2403388702696461e+00 4.4373022599111254e+00 2 -1 3
274 1 1.2145029070405958e+01 1.8952594759170014e+00 7.2511060732594723e-01 -3 -1 -1
101 2 1.3134100735938555e+01 2.3246604256222025e+00 1.9635379939108351e+00 3 2 3
276 2 1.1619590641850492e+01 1.1222883256390559e+00 1.0108597710592548e+00 -3 -1 -1
275 2 1.1614244764834556e+01 2.6964194273020641e+00 8.8953909428891387e-01 -3 -1 -1
89 2 1.7063849173512345e+01 2.6335942171343465e+00 3.7084369167872802e+00 -4 -1 2
259 1 1.6132978260452433e+01 3.6594214199457435e+00 1.7763602569883392e+00 -2 0 0
260 2 1.7099857518576826e+01 3.4908704472884180e+00 1.9583443216244192e+00 -2 0 0
102 2 1.4554529556481784e+01 2.8493843216029062e+00 2.3896271119494150e+00 3 2 3
100 1 1.3799669990010106e+01 2.3931045742881740e+00 2.7468341648747274e+00 3 2 3
88 1 1.6704527225284345e+01 2.8877686456381100e+00 4.5764719972640240e+00 -4 -1 2
90 2 1.6156448296578773e+01 3.6893142777176515e+00 4.3269448577065859e+00 -4 -1 2
441 2 1.4433718226588908e+01 9.3670408666374294e-01 3.0942377247515687e+00 3 1 2
440 2 1.5900110325292305e+01 6.5876106461947770e-01 3.0517538409219873e+00 3 1 2
519 2 7.2297022446286874e-01 8.3375937842351533e+00 2.8780136870332935e+00 0 1 -4
235 1 3.3654352860461505e+00 6.2010619285357658e+00 2.3323267028717054e+00 3 4 1
236 2 2.9362590832297357e+00 5.3432272564906462e+00 2.2126747225478915e+00 3 4 1
237 2 4.2708449154158981e+00 5.9391966302531056e+00 2.5788561930704832e+00 3 4 1
225 2 2.9238849834178300e+00 6.2667814948131086e+00 3.7994098184423888e+00 2 3 -1
223 1 2.7306899103336115e+00 6.3705417507427731e+00 4.7467762525598927e+00 2 3 -1
329 2 8.4654515799991898e+00 5.9725268522503256e+00 1.1564191383205511e+00 3 4 -1
253 1 5.7894977166425834e+00 5.6520046375161366e+00 3.3212350779301465e+00 -4 0 -1
254 2 5.9031949623364461e+00 4.8109518595862930e+00 3.7462949277221900e+00 -4 0 -1
255 2 6.6690441722786113e+00 5.7366556933230308e+00 2.8720205052359380e+00 -4 0 -1
161 2 5.4948703326534485e+00 7.3595372403803117e+00 3.8599116388636143e+00 2 1 4
328 1 8.2937702912671263e+00 5.9825318814731361e+00 2.1184838772679035e+00 3 4 -1
425 2 6.3158426638600549e+00 8.0291854416517392e+00 1.9720564912611465e+00 1 -1 5
330 2 8.6743224870576761e+00 6.8089033579250255e+00 2.4633312288180744e+00 3 4 -1
53 2 8.8252181477812428e+00 4.5921296367763613e+00 3.0788127552266915e+00 2 -1 3
160 1 5.3971088093308000e+00 8.3531845633612782e+00 3.9645892631612534e+00 2 1 4
424 1 6.2318498049991611e+00 7.7233078292261546e+00 1.0102214768675228e+00 1 -1 5
162 2 4.8104785528933185e+00 8.6222910688660477e+00 3.1419912963739201e+00 2 1 4
252 2 1.1158620698379940e+01 8.2949485951486999e+00 1.0247957047808256e+00 2 0 0
504 2 1.1741587422397007e+01 4.6229862357787708e+00 1.5674727494511154e+00 0 0 3
67 1 9.6224362534333725e+00 7.9359495164699156e+00 3.1193067898010360e+00 -4 0 -1
536 2 9.9923284223438138e+00 6.7022892957723528e+00 4.7331680099993747e+00 2 -2 -3
112 1 1.2435748058112095e+01 8.1161903768222867e+00 4.2656328617012864e+00 1 -3 -6
68 2 1.0265208779960076e+01 8.5149020795996719e+00 2.5992384283836358e+00 -4 0 -1
69 2 9.0945856719441576e+00 8.6014206623284064e+00 3.6455735637288882e+00 -4 0 -1
525 2 1.2304132261391501e+01 5.7447021481723173e+00 4.3390647865828003e+00 1 2 -1
523 1 1.2939140463890190e+01 5.1478792357866849e+00 3.8790669104073521e+00 1 2 -1
113 2 1.2953357452647822e+01 8.0236689076125849e+00 3.4399723535009383e+00 1 -3 -6
114 2 1.1535096482236394e+01 8.3409179937106828e+00 4.0420329109081283e+00 1 -3 -6
261 2 1.5923764032904474e+01 4.5978835180688016e+00 1.9624756582453620e+00 -2 0 0
362 2 1.4082261206892760e+01 7.4039894874204251e+00 1.2180077870209405e+00 -5 -2 1
361 1 1.4122437492424378e+01 8.0844466779005142e+00 1.9398503400066474e+00 -5 -2 1
37 1 1.6401608320841000e+01 7.0529155624854960e+00 2.4658309986479194e+00 2 -4 -2
38 2 1.5466370590204784e+01 7.5148590705422329e+00 2.2951139513459800e+00 2 -4 -2
358 1 1.5600177227361801e+01 5.3034827263664184e+00 4.2517475327695493e+00 0 4 3
359 2 1.4605614472625788e+01 5.3272242862825570e+00 4.1399823577012800e+00 0 4 3
360 2 1.6009153801153889e+01 5.9523276125916826e+00 3.6278748191038899e+00 0 4 3
39 2 1.6815513360208158e+01 6.7138527243219519e+00 1.6719302878654552e+00 2 -4 -2
527 2 1.1539744734346606e+00 3.8876932263170256e+00 5.6130924313801938e+00 0 -4 -6
21 2 2.3098442067555789e+00 1.5265642853228414e+00 5.3047452654127367e+00 -1 3 6
19 1 2.0798129223896202e+00 1.0201522243971706e+00 6.1273132525746057e+00 -1 3 6
213 2 3.1429826171829975e+00 3.6252700177549277e+00 6.6414838445782518e+00 1 -2 0
211 1 4.1371339520929133e+00 3.5255363492170897e+00 6.9592327804743324e+00 1 -2 0
526 1 1.5849252310185797e+00 4.5176819704450226e+00 6.1691984202537871e+00 0 -4 -6
212 2 4.1583050767167213e+00 3.6728593739328712e+00 7.9387555402317176e+00 1 -2 0
20 2 1.1788653232114918e+00 1.1848968110236995e+00 6.4051936987233598e+00 -1 3 6
501 2 2.5990236558056576e+00 9.3421861373100368e-01 7.7255991326977602e+00 1 -1 -1
499 1 2.7442239813218587e+00 8.3975222718602049e-01 8.7054184825578655e+00 1 -1 -1
203 2 5.9267712149091771e+00 2.2451068997383672e+00 4.9515837208744777e+00 -3 1 1
467 2 5.0401030925680388e+00 2.0804738702551759e+00 6.7782270008514001e+00 1 0 -3
146 2 6.5308560622564542e+00 3.6515758828823106e+00 8.2655560883717598e+00 3 4 1
466 1 5.5157709138474127e+00 1.2518242748908524e+00 6.5274243926586788e+00 1 0 -3
437 2 7.2546125216134127e+00 1.2085530281982999e+00 7.0542714301324558e+00 0 -1 0
436 1 8.1752232609659838e+00 1.0239635563114160e+00 7.2094364753204339e+00 0 -1 0
75 2 7.3082490098228599e+00 3.8328501385146194e+00 5.8858240438750205e+00 1 0 0
73 1 7.6697539685659617e+00 4.1196032800839610e+00 6.7186057204137111e+00 1 0 0
438 2 8.6113027988832442e+00 1.0888204612073937e+00 6.3456032671345497e+00 0 -1 0
468 2 4.9829327221739828e+00 4.8741329844128606e-01 6.5823898436745569e+00 1 0 -3
472 1 1.2479831362140967e+01 2.4659344580336620e+00 5.0743022999439100e+00 0 -5 -4
474 2 1.1643555518486933e+01 2.0609562370128325e+00 5.1366460953648785e+00 0 -5 -4
6 2 9.0224253714543732e+00 1.4909395051088223e+00 8.6240297215725832e+00 -1 3 1
296 2 1.0799013015488816e+01 3.2718208280894179e+00 6.9211949891142401e+00 -1 -2 1
295 1 1.0140911423217370e+01 2.5950791480036086e+00 6.6357988352274759e+00 -1 -2 1
297 2 9.3363721713409689e+00 3.1050034415243797e+00 6.5268918644464007e+00 -1 -2 1
357 2 1.3051950544286495e+01 1.5523306755644450e+00 8.0192108524127370e+00 3 -2 -2
243 2 1.3857840272900409e+01 3.2752593728089279e+00 9.0349586392470744e+00 -1 3 -1
356 2 1.3245112194064152e+01 2.1581563761773288e+00 6.6071780636887025e+00 3 -2 -2
355 1 1.3593395665193791e+01 2.2796195004670148e+00 7.5436913387061875e+00 3 -2 -2
96 2 1.6139211138629356e+01 1.7556473689512284e+00 5.7104629355614218e+00 1 3 -7
95 2 1.5140407361391860e+01 1.7576478690325994e+00 6.9056417042998532e+00 1 3 -7
94 1 1.5976411613046073e+01 1.4000928140216953e+00 6.6255713594106931e+00 1 3 -7
428 2 3.3078743022909167e+00 6.9144729356714674e+00 9.0485047565225631e+00 1 0 -4
534 2 8.3676948604668500e-01 4.6238189934631979e+00 7.7034795008872958e+00 2 4 5
224 2 2.1855968063538560e+00 7.2015799871744530e+00 4.9178874584004681e+00 2 3 -1
354 2 4.2313491579884346e+00 6.6369677295254190e+00 5.7547479977900799e+00 0 3 5
528 2 1.9490919843241206e+00 5.2776217263425327e+00 5.5024112184371718e+00 0 -4 -6
353 2 4.5110330564889889e+00 5.2802067014926584e+00 6.4816990730120843e+00 0 3 5
427 1 2.7966504260365497e+00 7.7475402978584071e+00 8.9121924333108566e+00 1 0 -4
429 2 1.9572490936467679e+00 7.4245938457638108e+00 8.6422860067618075e+00 1 0 -4
352 1 4.8480743072754002e+00 6.2445243346363108e+00 6.4123522015386740e+00 0 3 5
205 1 7.4408959021950354e+00 6.6156726984081331e+00 5.5733608818636480e+00 -4 3 -1
206 2 6.4970878304219699e+00 6.4392712601165885e+00 5.7827731280830221e+00 -4 3 -1
417 2 5.5965832815005072e+00 7.3162430184066247e+00 7.6773578658757158e+00 2 0 -2
74 2 7.6868359466368439e+00 5.1306892131215820e+00 6.6725132151048587e+00 1 0 0
415 1 6.2684646160401787e+00 7.6637016656691506e+00 8.2642358570138708e+00 2 0 -2
207 2 7.5740038430814733e+00 7.5649726346090116e+00 5.8801268032662302e+00 -4 3 -1
303 2 7.9690628719681831e+00 6.6625424669666327e+00 8.0229988867361257e+00 -1 -3 5
301 1 8.8907576735250142e+00 6.4718520879573180e+00 8.2295317263806922e+00 -1 -3 5
185 2 1.2926791573132215e+01 6.4641796677022372e+00 8.7596216497830017e+00 0 1 -1
350 2 1.1314255001267972e+01 8.1954164012951054e+00 7.7578089610734668e+00 1 -4 -3
302 2 9.3683950741481095e+00 7.2826305048262476e+00 8.3585359915904256e+00 -1 -3 5
197 2 1.2657522314542950e+01 4.5959813368668083e+00 7.0293728718559603e+00 -3 -1 -1
537 2 9.6187299427508623e+00 6.3416667966000686e+00 6.2033869864991482e+00 2 -2 -3
196 1 1.1751156274307608e+01 4.8414131131407849e+00 7.1663336655087777e+00 -3 -1 -1
535 1 1.0120213952484828e+01 6.0126329224095638e+00 5.4539088503485207e+00 2 -2 -3
349 1 1.0614208798889029e+01 8.3953472561890052e+00 8.3837408183562445e+00 1 -4 -3
198 2 1.1372199978198367e+01 5.3301192004951234e+00 6.3765132476008617e+00 -3 -1 -1
544 1 1.3063414638944003e+01 7.4664829315552517e+00 7.0679249990033313e+00 -2 4 3
545 2 1.2943006643695012e+01 7.7406508804018488e+00 6.1644426276447755e+00 -2 4 3
546 2 1.3757502865079459e+01 6.7743121178030119e+00 7.0396653047302014e+00 -2 4 3
109 1 1.6805982599896240e+01 7.3375286424738952e+00 9.0764602015900167e+00 -4 -2 -1
533 2 1.6949091875268437e+01 5.6258848331760181e+00 8.7786307440059232e+00 1 4 5
111 2 1.6188181101268793e+01 7.7238128326265576e+00 8.4400823357993282e+00 -4 -2 -1
230 2 1.5221365431540788e+01 5.6993830016859306e+00 6.0029334305974116e+00 1 3 4
231 2 1.5565772316359681e+01 5.1350318376014208e+00 7.5536746396586087e+00 1 3 4
532 1 1.7090672527684553e+01 4.7098750236480704e+00 8.5379019233361859e+00 1 4 5
229 1 1.4876267787189457e+01 5.6173679579695390e+00 6.9202029981523490e+00 1 3 4
402 2 3.7603576023251577e+00 2.6491247186883990e+00 1.1507624310606619e+01 -3 1 -1
142 1 1.8598668703341608e+00 3.1257118455014448e+00 9.8389641535749881e+00 -1 -1 1
143 2 1.6650770462221003e+00 2.7076141596550656e+00 1.0663185623040023e+01 -1 -1 1
239 2 4.4248506930404314e+00 8.5388451656268893e-01 1.3054200588610426e+01 0 -2 0
126 2 1.0479825170242418e+00 1.4951030688516951e+00 1.2167652021776886e+01 4 -3 3
124 1 1.9226792321488309e+00 1.9355536306508745e+00 1.2094752368571868e+01 4 -3 3
144 2 1.2001407588141295e+00 3.7700615159679769e+00 9.5786885775053179e+00 -1 -1 1
400 1 4.6490937396715122e+00 2.3836672188034020e+00 1.1790390658788560e+01 -3 1 -1
294 2 3.1115099955487353e+00 4.4281720848335295e+00 9.8774717837168993e+00 0 5 3
125 2 2.2465831461409147e+00 2.1437383961339127e+00 1.3017223617277379e+01 4 -3 3
455 2 4.5950375655207765e+00 7.9330093864387252e-01 9.1761099003309656e+00 0 0 1
500 2 2.1767069148387508e+00 1.5139306917127062e+00 9.1728738957700209e+00 1 -1 -1
145 1 6.3456966560221835e+00 3.2982963421600657e+00 9.1659057026631245e+00 3 4 1
401 2 4.9088823659143275e+00 1.8826873480601745e+00 1.0969240444045047e+01 -3 1 -1
285 2 7.5199193006259746e+00 2.3953238508334405e+00 1.2049907751418322e+01 6 -1 -1
283 1 8.0002060121710095e+00 3.2228783117844060e+00 1.2287576230997727e+01 6 -1 -1
284 2 8.2791573613649696e+00 3.7203358627560230e+00 1.1532585836668998e+01 6 -1 -1
454 1 5.4106916850627078e+00 8.3069941692250038e-01 9.7386860125501507e+00 0 0 1
26 2 5.2210050637663885e+00 4.0330993548848095e+00 1.1776060608969477e+01 0 -3 0
147 2 7.1279774781063079e+00 3.5598550297140776e+00 9.6690203798636762e+00 3 4 1
456 2 5.8996737485602537e+00 1.6674264610583620e+00 9.4166260085361841e+00 0 0 1
340 1 7.1777090026277204e+00 7.3647677021314450e-01 1.2049767176811809e+01 0 1 0
538 1 1.2933421197907252e+01 2.9348926728703773e+00 1.2198140230151878e+01 2 0 -2
539 2 1.2113356272568138e+01 2.4908263100204242e+00 1.2505671981247332e+01 2 0 -2
324 2 9.6112553498970854e+00 2.5574602756225535e+00 1.2635145057295100e+01 0 2 0
4 1 9.5499314345327200e+00 1.8021380655414334e+00 9.3647565069739258e+00 -1 3 1
540 2 1.2788352011605424e+01 3.8309984499805583e+00 1.2610873365278882e+01 2 0 -2
391 1 9.1897365551555659e+00 4.5175976530959412e+00 1.0026460091088923e+01 -1 -5 1
392 2 9.2390570798704257e+00 3.6094385106188556e+00 9.5559830199807489e+00 -1 -5 1
322 1 1.0374241298597811e+01 1.9301975040089958e+00 1.2912879447060799e+01 0 2 0
399 2 9.5097892372330932e+00 4.3588652140023576e-01 1.0477426184638365e+01 2 3 -1
398 2 1.0023152643894953e+01 5.9637267483393852e-01 1.1869161862211770e+01 2 3 -1
5 2 1.0496621399221302e+01 1.7708489194806165e+00 9.1440855187157783e+00 -1 3 1
242 2 1.3585295043173982e+01 3.3033308355504283e+00 1.0636189287729380e+01 -1 3 -1
29 2 1.6117552725966938e+01 1.1184733481456983e+00 1.1330020992628315e+01 0 0 0
241 1 1.3810132999100160e+01 3.7530700728957713e+00 9.8441959408203488e+00 -1 3 -1
469 1 1.5782997443463131e+01 1.4575264711469993e+00 9.7430732500159056e+00 -4 0 -1
470 2 1.5927772168601621e+01 6.4828725150460143e-01 9.2309538252729553e+00 -4 0 -1
321 2 1.5854974648360539e+01 3.5610225628040628e+00 1.1953403697124655e+01 -3 1 -1
319 1 1.6269395406563788e+01 4.4476539839777969e+00 1.2094188073346347e+01 -3 1 -1
28 1 1.6242099164313281e+01 8.5965850735908345e-01 1.2257831202747465e+01 0 0 0
30 2 1.5820749456679547e+01 1.3566413650512130e+00 1.2957141522351645e+01 0 0 0
407 2 1.4089954069923595e+01 2.6076805096727438e+00 1.3289660160666276e+01 -1 3 -2
554 2 1.3539647528759296e+01 6.3022958482310454e-01 1.0681802923548885e+01 -2 6 7
471 2 1.5139912272432227e+01 1.9270096260753919e+00 9.2193670027458658e+00 -4 0 -1
292 1 3.8515118783864968e+00 5.0280789287116345e+00 9.6141736517715870e+00 0 5 3
388 1 2.1679991230055435e+00 4.9770534402468041e+00 1.2651477377266300e+01 3 -2 0
444 2 1.7213611983211989e+00 8.1715660648630344e+00 1.2248694671656931e+01 0 -2 -3
442 1 2.2927646622722961e+00 7.4264385195936304e+00 1.1881076172389147e+01 0 -2 -3
443 2 2.1822442248190157e+00 7.5099782258870782e+00 1.0941947680779498e+01 0 -2 -3
390 2 2.1672837366230802e+00 5.9094357002795395e+00 1.2471861510070523e+01 3 -2 0
389 2 1.2912566429117662e+00 4.6020365543008879e+00 1.2445977359023292e+01 3 -2 0
272 2 4.0581708389927922e+00 7.0465172372506570e+00 1.3144537294984650e+01 -3 0 -2
293 2 4.4028611130491395e+00 5.0729248390195076e+00 1.0398270454949746e+01 0 5 3
380 2 3.4463185628373445e+00 8.6906780083634576e+00 1.1761075764066542e+01 3 -5 0
416 2 6.0484881649439206e+00 7.3758697660107089e+00 9.1668016661883449e+00 2 0 -2
25 1 5.3062963452481471e+00 5.0229200659864297e+00 1.1775258232021720e+01 0 -3 0
27 2 5.0477030350187313e+00 5.3085409059949002e+00 1.2655172933312519e+01 0 -3 0
490 1 6.0639612105585394e+00 7.2812880398345561e+00 1.0802637375858124e+01 0 -1 -4
492 2 5.9236199311270559e+00 6.3982412064819973e+00 1.1204113909152992e+01 0 -1 -4
56 2 7.8277529200293898e+00 7.7317558352017954e+00 1.0658424087581150e+01 -1 -2 0
491 2 5.3242004126796463e+00 7.8353284635477554e+00 1.1131137401810868e+01 0 -1 -4
55 1 8.5129865797297271e+00 8.4573232909363636e+00 1.0672906166410179e+01 -1 -2 0
47 2 7.6751621660154328e+00 6.2192631027360603e+00 1.3269835892203391e+01 -1 -1 2
393 2 9.1570940949783921e+00 5.2060729219438606e+00 9.3067617312820090e+00 -1 -5 1
338 2 9.7350493133948230e+00 5.0796489573110595e+00 1.1556243673765170e+01 3 -1 2
337 1 1.0019748159931201e+01 5.6114771093791473e+00 1.2314837033246597e+01 3 -1 2
150 2 1.0605114566888460e+01 6.9229924216021201e+00 1.1682338891518251e+01 -2 -4 -2
148 1 1.1022505010358037e+01 7.7169629565746432e+00 1.1249985894377893e+01 -2 -4 -2
149 2 1.1512668684197166e+01 7.3072438068973486e+00 1.0536559446202244e+01 -2 -4 -2
57 2 9.3656038346176942e+00 8.0729481408666199e+00 1.0519698874190626e+01 -1 -2 0
339 2 1.0914077864476532e+01 5.4553756257411514e+00 1.2585616322058064e+01 3 -1 2
184 1 1.3174900070775115e+01 6.2217238768511436e+00 9.6241862345231723e+00 0 1 -1
186 2 1.3329656491995616e+01 5.1664144423797920e+00 9.6061871878167295e+00 0 1 -1
320 2 1.5933244713562310e+01 5.0553149250013458e+00 1.1390870383312789e+01 -3 1 -1
498 2 1.4424628291295209e+01 6.6008832134559521e+00 1.0770665445870222e+01 -3 1 0
497 2 1.4888857299619087e+01 7.7396761486425749e+00 1.1706372657213098e+01 -3 1 0
496 1 1.5254198977464046e+01 7.0145433728213984e+00 1.1154293098125109e+01 -3 1 0
110 2 1.6121513984221913e+01 7.2133952510754211e+00 9.8759873965948639e+00 -4 -2 -1
318 2 1.8673587569135179e+00 9.3442427122702010e-01 1.6077462979553744e+01 1 -2 4
317 2 1.0054100881648742e+00 2.2384208292828003e+00 1.5972269352897476e+01 1 -2 4
316 1 1.3420978243866415e+00 1.6235995168644368e+00 1.6614681951856998e+01 1 -2 4
299 2 3.3497807562144692e+00 3.3635993803848816e+00 1.5848944627184116e+01 0 0 3
298 1 3.6551994686999016e+00 3.7506990393714816e+00 1.6713548672795529e+01 0 0 3
300 2 4.2723552925299835e+00 4.4765895284250385e+00 1.6660316341664981e+01 0 0 3
556 1 3.0710982935058877e+00 3.2872714523492244e+00 1.4239691524975679e+01 1 1 -3
557 2 2.6509212816746315e+00 4.0455624313138134e+00 1.3706515388612940e+01 1 1 -3
155 2 4.6143068718468996e+00 2.0868367558579086e+00 1.6996124690287477e+01 -1 0 1
558 2 4.0461733871134324e+00 3.3647422377993599e+00 1.4075827693284602e+01 1 1 -3
494 2 6.2752200230139410e+00 8.0090805559680134e-01 1.5790561663748163e+01 1 2 1
15 2 6.5843603012322003e+00 3.7687885632121683e+00 1.3725781792933864e+01 -5 -2 3
14 2 6.2994907518890777e+00 2.7656923603066104e+00 1.4835542743413670e+01 -5 -2 3
13 1 5.9864734646027795e+00 3.6400388271783473e+00 1.4499577572532596e+01 -5 -2 3
513 2 8.2186906332760472e+00 7.3531356334197517e-01 1.5205955541957255e+01 -2 2 -5
493 1 6.7389087018340987e+00 9.5999396108686597e-01 1.4944245992237850e+01 1 2 1
154 1 5.3306960283410127e+00 1.4382004774794697e+00 1.7066221486291202e+01 -1 0 1
156 2 6.0599804414836287e+00 1.9721492152109397e+00 1.7421933422938142e+01 -1 0 1
171 2 9.2559128183515984e+00 1.4029474938693132e+00 1.6886592795305958e+01 -2 2 -4
323 2 9.8961366172824068e+00 1.4922607724825272e+00 1.3686354266210468e+01 0 2 0
511 1 9.2131718353488647e+00 8.6238849431918563e-01 1.5178787910375545e+01 -2 2 -5
465 2 1.0426602616547822e+01 3.6519459771582468e+00 1.6354567752251697e+01 0 2 2
463 1 1.0344095355782844e+01 3.7826017287937326e+00 1.5399636447306920e+01 0 2 2
464 2 1.0019469929810478e+01 2.8833168417846538e+00 1.5172667070139521e+01 0 2 2
166 1 1.3902614911142567e+01 8.1293859498316112e-01 1.5684405794727867e+01 -4 5 -4
167 2 1.3322588513421069e+01 1.1498019915842976e+00 1.6355311399784522e+01 -4 5 -4
115 1 1.6670728195810483e+01 3.6302751380217226e+00 1.5880317277443938e+01 2 -4 -2
408 2 1.4500424625780921e+01 1.7943821946740484e+00 1.4595901936401329e+01 -1 3 -2
406 1 1.4876350281508037e+01 2.3465229720337817e+00 1.3860603591170795e+01 -1 3 -2
116 2 1.6224271282078590e+01 3.4219437213528967e+00 1.6726171715412026e+01 2 -4 -2
117 2 1.5944255304314234e+01 3.3730776938618012e+00 1.5262561273237205e+01 2 -4 -2
433 1 3.0481518279389652e+00 6.7692597185991747e+00 1.6488328468288355e+01 -2 5 -2
480 2 1.6401226730689005e+00 6.2597438791906157e+00 1.6762268615374943e+01 0 -2 -2
435 2 2.9881855633737562e+00 7.7636439523102680e+00 1.6406913095715502e+01 -2 5 -2
273 2 3.9949062522613019e+00 6.4622777677184837e+00 1.4624789843924171e+01 -3 0 -2
434 2 3.2905404660019006e+00 6.6570077008525752e+00 1.7410882392595230e+01 -2 5 -2
271 1 4.5970998374080088e+00 6.5792660163783703e+00 1.3810052495104642e+01 -3 0 -2
478 1 5.7703549786390340e-01 6.1920734574208991e+00 1.6840661069066218e+01 0 -2 -2
426 2 5.5819681908026748e+00 8.2804924194990370e+00 1.7350405596911688e+01 1 -1 4
122 2 7.7552957378014744e+00 8.1832696172678538e+00 1.6820813408799285e+01 1 1 0
33 2 6.2712581891441435e+00 4.8665680427078799e+00 1.5972809161834700e+01 -7 4 4
32 2 6.2517388868914692e+00 5.8590335596137200e+00 1.7118167532852027e+01 -7 4 4
31 1 6.1229305762930277e+00 4.8997384907305088e+00 1.6928327280273841e+01 -7 4 4
46 1 7.3958581392320379e+00 6.5670482191628796e+00 1.4132047408706292e+01 -1 -1 2
48 2 6.4256745138564311e+00 6.6758855738762035e+00 1.4119534337852508e+01 -1 -1 2
309 2 8.2440487895395247e+00 6.1886832720956697e+00 1.5676671661180823e+01 4 -4 0
507 2 8.7748703623265758e+00 7.7901276460222313e+00 1.3590121864155366e+01 -4 -1 4
307 1 8.7883022747586601e+00 5.8206656846801543e+00 1.6350070792227179e+01 4 -4 0
123 2 8.8050650614684827e+00 8.7428073456098989e+00 1.5811011506050411e+01 1 1 0
24 2 1.3017604524752853e+01 6.3375376205083604e+00 1.6557179389677842e+01 1 -2 -2
372 2 1.1403841760333393e+01 8.2467700227167171e+00 1.3906854543391242e+01 5 2 0
308 2 9.0487241234389906e+00 4.9624426209184511e+00 1.5917657818363018e+01 4 -4 0
221 2 1.1641855123463172e+01 5.0049236261875727e+00 1.4399231485270816e+01 -1 2 6
220 1 1.2340023410890598e+01 5.1190619829725073e+00 1.3748459624263816e+01 -1 2 6
222 2 1.2871217298899861e+01 5.8626668279458238e+00 1.4050419739732259e+01 -1 2 6
370 1 1.2238309003734184e+01 8.2605949572103139e+00 1.4365783347093005e+01 5 2 0
279 2 1.1674427751581858e+01 7.4129970355615358e+00 1.5485537104601647e+01 -2 2 3
278 2 1.0537223506726065e+01 6.5729307568412558e+00 1.6439386614076280e+01 -2 2 3
277 1 1.1343155477294470e+01 7.1152051819200679e+00 1.6448746402837457e+01 -2 2 3
505 1 9.3858175450918839e+00 8.4331411226655284e+00 1.4053787116769424e+01 -4 -1 4
22 1 1.3797881830185794e+01 5.9560976072191272e+00 1.6969655982695375e+01 1 -2 -2
249 2 1.6834508385149718e+01 7.7833172872957466e+00 1.6016842286894107e+01 -1 3 0
479 2 1.7065389059568254e+01 5.3217184963692779e+00 1.6453204715807090e+01 -1 -2 -2
233 2 1.5441025195231346e+01 5.8137065754012438e+00 1.3587542994567011e+01 0 1 2
247 1 1.6304305451445437e+01 8.4677655727913628e+00 1.5531038661828786e+01 -1 3 0
234 2 1.5372146365633263e+01 7.1793656663177154e+00 1.4285747352472770e+01 0 1 2
232 1 1.4871488581567782e+01 6.3699340010200025e+00 1.4174618254923224e+01 0 1 2
23 2 1.4433165356627164e+01 5.8888111745578069e+00 1.6139070636473605e+01 1 -2 -2
421 1 4.2494303962745157e+00 1.1700672430189416e+01 1.6881966076574231e+00 -1 1 -2
130 1 3.8406890630318209e+00 8.9632782519606238e+00 1.8952338052771407e+00 2 0 -5
518 2 1.4626926964156179e+00 9.2104722842834459e+00 4.0056523738207215e+00 0 1 -4
131 2 3.9769609917133533e+00 9.9428189616477116e+00 1.8318150698883573e+00 2 0 -5
152 2 1.0544896773947308e+00 1.0614420549927637e+01 1.9466092947074216e+00 3 2 1
192 2 9.5048000495546259e-01 1.2808734066248855e+01 2.2647740871081314e+00 3 0 -3
423 2 3.6559297715901726e+00 1.2483963163172170e+01 1.7912663676706695e+00 -1 1 -2
517 1 1.4708740674878364e+00 9.0046833408036004e+00 3.0208198239445592e+00 0 1 -4
132 2 2.9650249736869232e+00 8.8373228866322631e+00 2.2390318845227677e+00 2 0 -5
422 2 4.8386378952266940e+00 1.1748469121292844e+01 2.3946264046381702e+00 -1 1 -2
195 2 7.2074055775287444e+00 9.1873099402802740e+00 4.1083021648651501e+00 0 1 0
2 2 6.7280959513616585e+00 1.1443140160437810e+01 2.6273060645108632e+00 0 1 2
3 2 6.5926714225270446e+00 1.1747260100608047e+01 4.2717875280466497e+00 0 1 2
1 1 6.3220328715747689e+00 1.2025726677898501e+01 3.3798375108836765e+00 0 1 2
193 1 7.9848954594424191e+00 9.6313911472705378e+00 4.4582651832049631e+00 0 1 0
210 2 8.7422137963151432e+00 1.0934544382514677e+01 3.4360682733963128e+00 -1 -2 2
256 1 7.0451920472833249e+00 1.0875964204111519e+01 1.2921403397546380e+00 0 2 0
251 2 1.0108207329335562e+01 9.4010301029136780e+00 9.0149838358347079e-01 2 0 0
521 2 1.2145700191687915e+01 1.0967589179948844e+01 1.9604992088152076e+00 4 4 2
208 1 9.5234440074774174e+00 1.1282630131438381e+01 3.0456192011760450e+00 -1 -2 2
209 2 9.1484483267538561e+00 1.1541656774086873e+01 2.1722898296829474e+00 -1 -2 2
520 1 1.2983355257933438e+01 1.1343783964057591e+01 2.0432055402681955e+00 4 4 2
250 1 1.0995350399467394e+01 9.2555504175095376e+00 1.3183411804284422e+00 2 0 0
531 2 9.4760760792196130e+00 1.2890010487510702e+01 3.6742049230635607e+00 1 -1 5
483 2 1.2659526848700144e+01 1.2920788805145797e+01 2.7054292697140627e+00 -5 -3 7
522 2 1.3193091572559366e+01 1.1609587993021998e+01 1.0254977341818148e+00 4 4 2
35 2 1.5895740617246990e+01 1.0631372631304433e+01 2.7247762176920056e+00 -1 2 -1
34 1 1.5261451393955493e+01 1.0258941563028589e+01 3.3498164377800301e+00 -1 2 -1
36 2 1.4454640423183980e+01 1.0769141433241671e+01 3.0962875709987263e+00 -1 2 -1
12 2 1.5769126786018880e+01 1.0496200249112958e+01 4.8027625123657014e+00 6 -2 2
151 1 1.7329740473892947e+01 1.1391604730677590e+01 1.6687192929048269e+00 2 2 1
363 2 1.4220701719800745e+01 8.9776733894146172e+00 1.5767631477513859e+00 -5 -2 1
487 1 3.4570184314072057e+00 1.4634670257916552e+01 1.4108716483923023e+00 -2 -2 -3
190 1 8.7742943305100396e-01 1.3687837794976092e+01 2.7727938880900767e+00 3 0 -3
461 2 3.6524156706865778e+00 1.4225050761147454e+01 4.0173984951176633e+00 0 2 -3
460 1 4.5232133495172198e+00 1.3991407622774148e+01 4.5193336765101746e+00 0 2 -3
140 2 4.1261421204917443e+00 1.6242698830806013e+01 2.3359251148300224e+00 -3 -1 0
488 2 2.7072773414310118e+00 1.4773391022829669e+01 1.9465394227233590e+00 -2 -2 -3
343 1 2.4068562634236401e+00 1.5898107876820001e+01 3.8287621507277763e+00 3 -1 0
345 2 1.6252082004535684e+00 1.5249915556234292e+01 3.7048125716112037e+00 3 -1 0
139 1 4.5815767103280258e+00 1.7003770266262897e+01 2.7316023045665951e+00 -3 -1 0
344 2 2.4949384000925523e+00 1.6235976114524881e+01 4.7401949706140654e+00 3 -1 0
374 2 6.1049047029816190e+00 1.6243241041892169e+01 3.0432156698167643e+00 1 0 2
462 2 5.1331974828026272e+00 1.3520798085187177e+01 3.8881609542716178e+00 0 2 -3
549 2 8.0518673767473103e+00 1.5737217412153338e+01 1.8820889404033281e+00 2 5 0
547 1 8.6905682367349559e+00 1.5091051662298989e+01 1.5511034140319651e+00 2 5 0
548 2 8.8210327895222118e+00 1.4385066936441913e+01 2.2599280985417165e+00 2 5 0
375 2 7.1155431135745744e+00 1.5499121352356839e+01 3.9856958839327592e+00 1 0 2
530 2 8.7267012642843973e+00 1.3701167000384110e+01 4.8195229355852582e+00 1 -1 5
373 1 7.0716855385410620e+00 1.6239130241575602e+01 3.2720762832720993e+00 1 0 2
529 1 9.0724322565886215e+00 1.3739741020479046e+01 3.9338960647966434e+00 1 -1 5
183 2 1.2085300918634994e+01 1.4471828060477510e+01 1.0615613274901681e+00 -4 -4 2
551 2 1.2110958846287307e+01 1.3379140193811695e+01 4.7963141191147365e+00 2 -6 2
60 2 1.0226126547438128e+01 1.5726524094574593e+01 1.6182631484250076e+00 -2 0 1
315 2 1.0461922670576136e+01 1.4956843263342812e+01 4.1026063327368085e+00 -1 0 3
59 2 1.1534218075784151e+01 1.5959467344335341e+01 2.5828850549702063e+00 -2 0 1
313 1 1.0769859805981493e+01 1.5815754232090011e+01 4.5460020772356025e+00 -1 0 3
58 1 1.1095228763321655e+01 1.6136210141109284e+01 1.7454329862168416e+00 -2 0 1
314 2 1.0098112202782721e+01 1.6484020092431820e+01 4.3280177598020426e+00 -1 0 3
481 1 1.2496777793645421e+01 1.3769698292824161e+01 3.1322889926804729e+00 -5 -3 7
191 2 1.7269748321895122e+01 1.3396964973092171e+01 3.6123596740706572e+00 2 0 -3
439 1 1.5062429173911722e+01 1.6970800548776303e+01 3.3721074411139562e+00 3 0 2
482 2 1.3284279196604455e+01 1.4309373655181414e+01 3.3346520201527068e+00 -5 -3 7
218 2 1.6400046636930398e+01 1.4443386087436364e+01 1.9486380544993840e+00 0 0 -3
219 2 1.5487272546387107e+01 1.5653152125309811e+01 2.2091794827405584e+00 0 0 -3
217 1 1.5558707029892700e+01 1.4816170756260318e+01 1.6923197949665640e+00 0 0 -3
559 1 1.4501120310889192e+01 1.4783831194913427e+01 4.7786413169321529e+00 0 -3 -1
560 2 1.4812550158905815e+01 1.5561694265083499e+01 4.3839105859791632e+00 0 -3 -1
368 2 1.4941790957755028e+01 1.3404979770341241e+01 7.4416018451039112e-01 -2 -3 -2