LAMMPS data file via write_data, version 15 Apr 2020, timestep = 0

1944 atoms
2 atom types

-3.0116773179578971e-01 4.0283272731800146e+01 xlo xhi
0.0000000000000000e+00 1.9750360902593314e+01 ylo yhi
0.0000000000000000e+00 2.0425136712722487e+01 zlo zhi
-1.5037991028684417e-02 -6.5989301150963797e-03 5.5558375694815254e-03 xy xz yz

Masses

1 16
2 2

Atoms # atomic

73 1 1.7703083171865256e+01 6.8871110395176629e+00 9.7322155828277221e+00 0 0 0
1160 2 1.3647253488654780e+01 1.6479493524754378e+01 5.5838282046815610e+00 0 0 0
90 2 1.6052170844948709e+01 1.1452427789685357e+01 7.9933601959437013e+00 0 0 0
905 2 1.6336113585776879e+01 8.7772231932481244e+00 7.8642817663004525e+00 0 0 0
867 2 1.4396708145231413e+01 1.2640505222218405e+01 9.3579615102723359e+00 0 -1 0
910 1 4.6435206681030472e+00 1.1308762290539278e+01 8.7609398123015332e+00 0 0 0
449 2 1.3794366094354114e+01 6.4941073622344287e+00 6.4245249604101131e+00 0 1 0
1817 2 1.3806657827640461e+01 1.8169361258098395e+01 2.0645176306951423e+00 0 1 1
725 2 1.5643810827968609e+01 5.2279581377989697e+00 6.0786315773589470e+00 0 0 0
1166 2 8.8298684789637836e+00 1.1259007492479103e+01 7.7900017177372458e+00 0 1 0
733 1 1.7849753407568990e+01 1.5544027797157703e+01 8.5369443549338708e+00 0 0 0
535 1 1.7206353682912862e+01 1.6511183917810317e+01 3.9036075001333090e+00 0 0 0
1334 2 1.0415644015120481e+01 1.1675732111186649e+01 3.7296541693703280e+00 0 -1 1
662 2 2.4855588876457779e-02 1.0638175847710332e+00 2.0041005796428202e+00 0 0 1
65 2 1.9524046252813111e+01 9.7860918768429013e+00 6.9763080548089258e+00 0 0 -1
911 2 5.2854148287429918e+00 1.0842934311129813e+01 9.3275097575636927e+00 0 0 0
1135 1 1.9227525487268946e+00 5.3746638820417294e+00 3.4273742905215925e+00 0 1 0
1375 1 2.3272229827728781e+00 1.6078954688215696e+01 7.5849727265043043e+00 0 0 1
1814 2 1.4387640167221088e+01 1.9087501438533159e+00 4.0406915596835296e+00 0 1 1
1515 2 2.8242859836291156e+00 1.3345462371579689e+01 7.0941040733141991e-01 0 0 0
1559 2 1.0075896197414052e+01 2.3087584952195450e+00 3.9372994341795899e+00 0 1 1
1087 1 1.3845070137253340e-01 8.8110538864332728e+00 8.8108039117799066e+00 0 1 0
1527 2 4.9878672464900280e+00 1.8571720640393369e+01 8.8167713349042280e+00 0 0 1
467 2 1.6430770470422058e+01 1.8677903952831944e+01 7.6963724106572684e+00 0 0 0
1165 1 8.4408814190508945e+00 1.1787048797560109e+01 7.0783774021474262e+00 0 1 0
1360 1 2.0055470173111525e+00 3.4003579502401773e+00 7.0979746983535668e+00 0 0 0
1323 2 2.7685717655604813e+00 1.0438126145972513e+01 4.4057977789277079e+00 0 0 0
1158 2 6.4299332420550233e+00 1.2880009369577644e+01 4.4586711597657045e+00 0 0 0
1099 1 1.1259164997967577e+01 3.7315123940786812e+00 1.0022791043411390e+01 0 1 0
749 2 1.4556071246650792e+01 2.3510068702567315e+00 2.0311966504246257e+00 0 0 1
671 2 2.9510654934245233e+00 6.6941415202349939e+00 2.1618536189967283e+00 0 -1 0
48 2 -1.9277896034532349e-01 7.7236483926178678e+00 2.3385342826510538e+00 0 -1 0
1786 1 2.4598518707033330e+00 3.0570391557913285e-01 4.2437925708055504e+00 0 1 1
1578 2 1.7466927624970218e+01 9.4703253930294515e+00 4.1403165699496745e+00 0 0 1
1606 1 7.2448209481471908e+00 9.6044065791382245e+00 5.9086889497636781e+00 0 -1 0
747 2 9.6135105289358478e+00 1.4249871572140915e+01 1.5337900441199075e+00 0 0 1
954 2 1.3627496224863354e+01 1.1461876628926323e+01 5.4733611588964397e+00 0 0 1
959 2 1.2200229573405542e+01 4.2576462226799583e+00 6.1710865608979262e+00 0 1 0
1180 1 1.8814210538195969e+01 5.7445268002106573e+00 7.5289035222304674e+00 0 1 0
1580 2 4.8400000818668187e-01 2.9971721174319841e+00 1.0089048157924104e+01 0 0 0
1098 2 8.2232035470725275e+00 7.1505456638612088e+00 8.1952357107245124e+00 0 1 0
926 2 1.7169268008616438e+01 1.0345395127909940e+01 9.8848821451625550e+00 0 0 0
906 2 1.7796574297009890e+01 8.5523973001054969e+00 7.3151040006204697e+00 0 0 0
1733 2 1.2633880377150454e+01 1.1866491946071127e+01 1.3620711647870463e+00 0 1 1
678 2 -4.3040484852123861e-02 1.2134719416967181e+01 2.5583233053239947e+00 0 0 0
1355 2 2.4227330846606612e+00 3.8103315841141390e+00 6.3276986329463647e-01 0 0 2
1132 1 1.6324607141285075e+01 7.5134614196944094e+00 1.8936512387938762e+00 0 1 0
271 1 1.1992850316691086e+01 4.3863114029916188e+00 3.0907573720764070e+00 0 0 1
1567 1 7.4165754731185762e+00 9.9227371669508502e-01 2.9042901071367555e+00 0 0 1
305 2 1.1241802144963176e+01 9.1968983212214805e+00 5.3841833384019617e+00 0 0 1
913 1 1.6720867507231553e+01 1.7059140754453239e+01 3.9520721507022566e-01 0 0 0
1301 2 6.5686371974296942e-01 5.7387207724579010e+00 9.8360984121383268e+00 0 0 0
898 1 6.6253488945799495e+00 8.0020226508540055e+00 8.1706997405041282e+00 0 0 0
726 2 1.6026761036554497e+01 6.4338299980988953e+00 7.0048880848893464e+00 0 0 0
454 1 -4.5083192916856196e-02 5.9800951221435703e+00 1.6314349592643040e+00 0 1 0
1583 2 4.4504966924999225e+00 9.0300077269585106e+00 4.6017685376173558e+00 0 0 0
493 1 8.8215396717064696e+00 5.7914923931238391e+00 5.2642970639436495e+00 0 0 -1
1732 1 1.2362089904358818e+01 1.1626403412202080e+01 4.1780970450709559e-01 0 1 1
1585 1 1.6050215681889576e+01 1.5578669175381243e+01 6.3921623790690356e+00 0 0 1
1560 2 1.1614406580917938e+01 2.1930732874261292e+00 3.7494563447120774e+00 0 1 1
443 2 8.6835746134228682e+00 7.3709954750248494e+00 4.3098324648302855e+00 0 1 0
1587 2 1.6321677818108405e+01 1.5886089678685627e+01 5.5088957450188367e+00 0 0 1
527 2 1.5311005479098379e+01 1.4531750014833278e+01 3.4324117220446166e+00 0 0 0
1173 2 1.8122611496096862e+01 3.0903715371592528e+00 9.8444692207350144e+00 0 1 0
23 2 3.9847185577801207e+00 1.6694715212737659e+01 9.8561210875753886e+00 0 -1 -1
1822 1 1.8585226399403712e+01 1.2569838047086437e+01 7.8568012786838948e-01 0 0 1
1543 1 1.8056085134517117e+00 1.2913565367833499e+01 6.9943255156209503e+00 0 0 0
469 1 8.7719519263505870e+00 1.5472258624304919e+01 5.6767937532560246e+00 0 0 -1
302 2 1.4656461759729890e+01 2.0113354881431872e-01 5.0984088346175920e+00 0 0 -1
1538 2 3.1367394933946191e-01 1.4538105068593199e+01 1.9661338540569127e+00 0 0 0
698 2 1.4768836150939396e+01 5.3391641682530873e+00 3.9601311769151155e+00 0 1 1
1172 2 1.7955733790784826e+01 1.5834334159043062e+00 9.5131460966905017e+00 0 0 0
268 1 1.9087212531404017e+01 1.3837711883192457e+01 5.2890439636033584e+00 0 0 0
1302 2 1.1344369449724818e+00 6.1334440949726297e+00 8.2924475904956267e+00 0 0 0
1376 2 2.1700485204354534e+00 1.7038320313695603e+01 7.4685280836926387e+00 0 0 1
735 2 1.8784989505798769e+01 1.5493285371289689e+01 8.7223712041881996e+00 0 0 0
1356 2 3.5028780915043285e+00 2.8256579135514848e+00 1.0094819200081973e+00 0 0 2
750 2 1.6064519576229813e+01 2.0407726918584834e+00 2.4523889517856157e+00 0 0 1
476 2 9.4223682260312529e+00 1.6013814730009909e+01 8.6247600355724110e+00 0 0 0
651 2 6.6838973627474960e+00 1.9488945731380880e+01 3.9981745433055473e+00 0 -1 0
921 2 3.3021923507603212e-01 7.4805289327428222e+00 4.6846133763557862e+00 0 1 0
1137 2 2.9275790052119310e+00 5.1314432707227944e+00 3.5557029978153136e+00 0 1 0
88 1 1.5095794251885193e+01 1.1549743038607842e+01 8.0827127551535831e+00 0 0 0
1605 2 1.6391495222636927e+01 3.0020059681099615e-01 7.3769868745247136e-01 0 1 1
964 1 6.0167645030834800e+00 1.2708521573760637e+01 8.5520265391507155e-01 0 0 0
875 2 8.1830669998338177e+00 3.0159990517359079e+00 5.9439017214385679e+00 0 0 0
1357 1 1.0152278529621210e+01 1.8714143585529392e+01 4.1572748511199569e+00 0 0 0
1328 2 1.5181757109490623e+00 9.5702836565657954e+00 8.0342484372426242e+00 0 0 0
1162 1 4.3072161020453805e+00 4.4940035975974784e+00 3.4356497375441526e+00 0 1 1
217 1 4.8335217612418262e+00 1.5158088639264435e+01 6.3940765968187998e+00 0 0 -1
690 2 7.4466893158855898e+00 1.3288014064345461e+01 4.4974846312698025e-01 0 -1 0
456 2 4.9687035815525271e-01 5.4952798007183361e+00 2.2846743498397797e+00 0 1 0
1322 2 2.4964286611808517e+00 9.7592856522720890e+00 5.8575581033665740e+00 0 0 1
492 2 7.8465803977659405e+00 1.6731730237885436e+01 2.6742990654846497e+00 0 0 0
66 2 1.9899063284870152e+01 8.8359421197227146e+00 8.1979942930870973e+00 0 0 -1
537 2 1.7458698377484012e+01 1.5970398381794540e+01 3.1690265979462739e+00 0 0 0
1799 2 1.6568377538103075e+01 1.9290794881288292e+01 4.2695820709151180e+00 0 0 1
1611 2 5.4945428992696197e+00 1.2200368712925881e+01 7.8788409194714291e+00 0 0 0
1815 2 1.3833326109775625e+01 2.1500050646531319e+00 5.4957368194846792e+00 0 1 1
1088 2 2.8618885293575846e-01 7.9009880779266268e+00 9.1225054076103564e+00 0 1 0
1149 2 7.6759232306859717e+00 1.6649541238069293e+01 9.9960261028438175e+00 0 0 -1
965 2 5.2802252022079905e+00 1.3351322666220033e+01 1.0369260509260252e+00 0 0 0
941 2 1.1026837851694930e+01 1.4782423077255802e+00 7.5693438050710249e+00 0 1 1
507 2 2.2479126521405015e+00 6.4319171283703582e+00 6.2774752995331573e+00 0 0 1
1816 1 1.4606432886872312e+01 1.8553579913148550e+01 1.6989144715481137e+00 0 1 1
739 1 1.1219126920908101e+01 7.7790713249735033e+00 2.4602427821389603e+00 0 0 1
683 2 3.6006073742597624e+00 1.7283948681842237e+01 3.3799424723084859e+00 0 -1 0
666 2 3.4250083835326746e+00 6.9341464370387031e+00 8.2471983791768082e+00 0 0 0
251 2 3.9762454630160846e+00 1.5581004204304280e+01 4.8838648806759304e+00 0 -1 0
1792 1 7.8373285903668037e+00 1.3856137512170903e+01 3.9997766821727030e+00 0 -1 1
664 1 3.9815623153108861e+00 7.3883401868044682e+00 8.9315708189422374e+00 0 0 0
224 2 1.0214482859254094e+01 4.5135536922903690e+00 7.3642034286612934e-01 0 1 0
1750 1 5.0239644849287286e+00 1.5888350289866107e+01 1.8222424410016577e-01 0 1 1
1171 1 1.8067874042691113e+01 2.4630932098166300e+00 9.0640785742645846e+00 0 1 0
1330 1 1.0902564871843602e+01 6.2965797616654964e+00 9.7870197478156253e+00 0 0 0
1771 1 1.5821683969243473e+01 9.1871021710430583e+00 4.4939987024909192e+00 0 0 0
740 2 1.1032565453441316e+01 7.7841287669590482e+00 3.4434839819170211e+00 0 0 1
1361 2 1.5141022796672174e+00 2.9351090900590853e+00 6.4239803541161331e+00 0 0 0
711 2 1.8983939454925544e+01 7.8749702402419386e+00 4.7188872398413864e+00 0 0 0
237 2 6.6364637315585435e+00 1.4814271799454314e+01 2.8514863404967872e+00 0 0 0
742 1 1.6603728819396547e+01 1.3385329463334820e+01 4.1003406104928874e+00 0 -1 0
1163 2 4.1350188689709491e+00 3.5455086229660036e+00 3.5939185361786685e+00 0 1 1
21 2 5.6954251892421350e+00 2.9178756835739788e+00 1.0952891575565027e+00 0 0 0
697 1 1.5400944828343796e+01 4.6844678435179343e+00 4.2730769931512969e+00 0 1 1
53 2 6.7659653166575122e+00 9.5027881777829570e+00 9.4188774052355040e+00 0 -1 -1
1525 1 5.3552806503104575e+00 1.7662110565143266e+01 8.7359903549154296e+00 0 0 1
676 1 -3.2783880311570146e-02 1.2834673423978593e+01 1.9042620371326355e+00 0 0 0
900 2 6.6090189941744670e+00 8.4659764156109176e+00 7.3579319868992572e+00 0 0 0
1300 1 5.2024299747666181e-01 6.3020205451231082e+00 9.0264401571259363e+00 0 0 0
225 2 9.1863899414541539e+00 5.3751064265855666e+00 1.6381775670577512e+00 0 1 0
866 2 1.3045780724255154e+01 1.2845609796805928e+01 1.0087791762330545e+01 0 -1 0
1313 2 3.3981691034900907e-01 2.5552484553104300e+00 3.8372908039116669e+00 0 0 1
701 2 1.1341418453471718e+01 1.2029015508506530e+01 6.0916625485285447e+00 0 0 -1
699 2 1.5230279799823531e+01 3.8178558253581318e+00 3.8417807029288231e+00 0 1 1
667 1 3.0081039174248914e-01 1.7211699061826199e+01 4.1914776521572623e+00 0 0 0
229 1 1.7526689355342655e+00 1.3939865743597030e+01 4.5287006291408636e+00 0 0 0
1818 2 1.5215268199612344e+01 1.8617174266700722e+01 2.4417053825803192e+00 0 1 1
470 2 9.5748723602515220e+00 1.5629001381816964e+01 5.0909947892056397e+00 0 0 -1
75 2 1.7932956053450667e+01 6.6306714641260847e+00 8.8251634476296168e+00 0 0 0
285 2 1.6583250483990756e+01 3.1137522989933997e+00 8.1993530415471234e+00 0 0 0
1810 1 1.9274876267171436e+01 9.7143539145923974e+00 1.4293938732302875e+00 0 0 1
67 1 1.8086155012415245e-01 1.5436442971148390e+01 9.1247688756536842e+00 0 -1 0
908 2 1.1968688513715097e+01 1.0175790506978487e+01 7.1338896429597209e+00 0 0 0
1096 1 9.0519267245901833e+00 6.8089563367523347e+00 7.8907407584769622e+00 0 1 0
494 2 8.8100154093558736e+00 6.1354862686946410e+00 6.1378143372831424e+00 0 0 -1
1113 2 9.0293512261890356e+00 1.0131032299868654e+01 9.7653611486542768e+00 0 0 0
743 2 1.6603239632387542e+01 1.2706249440252623e+01 3.4056124895781950e+00 0 -1 0
684 2 3.4377858001912251e+00 1.8819116886981000e+01 3.6101326714368573e+00 0 -1 0
1316 2 1.1628766724995958e+00 1.9385948206468381e+01 7.3891831659774798e+00 0 -1 0
710 2 1.8946097206276640e+01 6.3039216221031218e+00 4.4996387721387778e+00 0 0 0
748 1 1.5238650716603562e+01 2.5890500024001990e+00 2.7126690668293834e+00 0 0 1
246 2 1.2721007569466728e+01 1.7854877114021530e+01 7.1875524607001706e+00 0 0 0
282 2 1.0506391266352882e+01 1.1569009344377372e+00 2.1385333036341008e+00 0 0 0
1133 2 1.5459865019292252e+01 7.5250363811657728e+00 2.3030318188067449e+00 0 1 0
1794 2 8.6290609152894788e+00 1.3442077140068708e+01 3.5956787154113306e+00 0 -1 1
100 1 1.8974810868624012e+01 6.0676711571003261e-01 5.5330533639882988e+00 0 0 0
1569 2 6.6725255745004279e+00 1.2924275810097801e+00 2.2939823210661978e+00 0 0 1
258 2 1.0346839843045888e+01 8.1797880548137609e+00 7.1881520400694052e+00 0 0 1
442 1 8.6212377890365488e+00 8.2608818598739600e+00 3.8942321614852387e+00 0 1 0
307 1 1.1111530291573549e+01 1.5101771398043640e+01 4.3969588910863582e+00 0 0 0
468 2 1.5491240024571145e+01 1.7475819259888077e+01 7.7376527023618067e+00 0 0 1
250 1 3.6844179562457802e+00 1.5527552318920463e+01 3.9558395691552319e+00 0 -1 0
223 1 1.0091275927768585e+01 5.3170377337757113e+00 1.3010082790209190e+00 0 1 0
270 2 1.9118587492070702e+01 1.4844067498705861e+01 5.3632101407642647e+00 0 0 0
969 2 7.6019977173773476e+00 1.6455885223042362e+01 6.1501478990930210e+00 0 0 0
560 2 1.9764847887627273e+01 1.8877833944410025e+01 1.0888500676742006e+00 0 0 0
320 2 5.7121526820591431e+00 1.9051059751001212e+01 7.3679366224201337e-01 0 -1 1
1358 2 1.0089642565383942e+01 1.9621480819923374e+01 3.9351089079914408e+00 0 0 -1
1159 1 1.3696360657885519e+01 1.6960204365118663e+01 4.7245251045257648e+00 0 0 0
1526 2 5.7761439474369514e+00 1.7715732154350910e+01 7.8747654985942237e+00 0 0 1
928 1 1.5033426131329284e+01 1.4191860688300546e+01 3.9166157275975910e-01 0 0 1
940 1 1.0940050614483321e+01 2.4526315585681049e+00 7.6884591941460165e+00 0 1 1
1514 2 3.0071350498989373e+00 1.4373117487042371e+01 1.8960346360346556e+00 0 0 0
744 2 1.5961071519669339e+01 1.3152383836027726e+01 4.7781590044103162e+00 0 -1 0
665 2 3.4402123538945357e+00 8.1821684840324487e+00 9.2221538399356682e+00 0 0 0
1600 1 1.6166897057362061e+01 1.1907096265199350e+01 1.9393158394112162e+00 0 1 1
344 2 1.9923787896379324e+01 1.2036129001422296e+01 1.6960218501470916e+00 0 0 0
1819 1 6.0179739618164314e+00 4.3492866910438357e+00 8.0190507462651581e+00 0 0 0
1084 1 1.7450659363226038e+00 9.2842409426024659e+00 6.8539492483023989e-01 0 0 0
920 2 1.7696831516722309e+00 8.3319741396534024e+00 4.5582902836843058e+00 0 1 0
1537 1 4.0252414999706776e-01 1.5482948078444293e+01 1.8096951942777562e+00 0 0 1
102 2 1.8556879047733013e+01 1.5365040946972799e-01 4.7615275601348035e+00 0 1 0
81 2 1.1788349668963068e+01 1.7384441116885849e+01 1.6708519643968551e+00 0 0 0
919 1 1.3009245110255039e+00 7.4854721571667149e+00 4.8328613847722410e+00 0 1 0
738 2 1.4522414463871719e+01 5.7785935497046035e+00 8.1737606073772839e-01 0 0 0
242 2 3.0709442149472523e+00 1.9253860849204937e+01 3.3137775788864438e-01 0 0 0
1603 1 1.6946482272549645e+01 6.0413382493158263e-01 1.4835955789269699e+00 0 1 1
1124 2 1.8341826379349929e+01 3.8519329854671298e+00 9.9633004375143652e-01 0 1 0
230 2 2.0003280469690634e+00 1.3065145991552997e+01 4.1634599901897777e+00 0 0 0
475 1 9.0466931457826831e+00 1.6957925772775720e+01 8.7925399908241193e+00 0 0 0
69 2 1.0900926535739346e+00 1.5507832901074785e+01 8.6742716107789413e+00 0 -1 0
1167 2 9.1374479985266301e+00 1.2165750196469908e+01 6.5552420676467120e+00 0 1 0
273 2 1.1143748360404107e+01 4.6239726641047021e+00 2.7079192333148172e+00 0 0 1
1820 2 5.6719778416090891e+00 5.0189155038003470e+00 7.4180870626565145e+00 0 0 0
745 1 1.0198611957603561e+01 1.5062033087060348e+01 1.7418194093696249e+00 0 0 1
1164 2 4.9884609104338926e+00 4.7951089337160253e+00 4.0650884436880173e+00 0 1 1
1811 2 1.8653695980665841e+01 9.5036114972587065e+00 7.2446372504078849e-01 0 0 1
219 2 5.2737041672327054e+00 1.4291859423882338e+01 6.4387841408713085e+00 0 0 0
893 2 6.0065954792815601e+00 6.7640059085671611e+00 5.2745237048511102e+00 0 0 0
1573 1 9.9970034440774338e+00 1.4451565582111233e+01 7.8923582636420475e+00 0 0 1
19 1 5.2586972149104820e+00 2.2352055418768195e+00 1.6872161994418688e+00 0 0 0
1575 2 9.7932087550429774e+00 1.3778136315662053e+01 8.5348076854448678e+00 0 0 0
1812 2 1.9805831311951657e+01 8.9276826703719685e+00 1.5474899327453540e+00 0 0 1
670 1 3.3641254267061318e+00 7.1307043405981414e+00 1.4027886193862458e+00 0 -1 0
1608 2 7.8836396644526321e+00 9.1105097155745298e+00 5.3493630767216471e+00 0 -1 0
94 1 2.8273737345573342e+00 1.3502262030784031e+01 9.3260446552396452e+00 0 0 0
907 1 1.2370289923329334e+01 1.1095626286904718e+01 7.0259392463667325e+00 0 0 0
489 2 1.4180291108699668e+01 9.7370021520210113e+00 8.6492634600190232e+00 0 1 -1
292 1 1.9761359218021152e+01 1.1123853352437004e+01 5.7736951243401915e+00 0 -1 -1
1395 2 1.3306064537338241e+01 1.4383728880633843e+01 8.4331336495989024e+00 0 -1 0
966 2 6.3005003678076479e+00 1.2172193779152297e+01 1.6576645187612937e+00 0 0 0
1539 2 7.9634830257840039e-01 1.5904332778719821e+01 2.6178570916701820e+00 0 0 0
491 2 9.2393445348550305e+00 1.6466510409663538e+01 2.1770848212330112e+00 0 0 0
68 2 7.3357733108060375e-03 1.4501686533666742e+01 9.2576407422878972e+00 0 -1 0
76 1 1.7990299187344522e+01 5.0730999928282507e+00 3.8329197853268480e+00 0 0 0
1126 1 9.5636400389243050e+00 1.8816489030053759e+01 6.8970782713516368e+00 0 0 1
506 2 2.2785867209596904e+00 5.0558816116331595e+00 6.9472470161116195e+00 0 0 0
702 2 1.1073595482026731e+01 1.3381043332951956e+01 5.2879703114802199e+00 0 0 -1
1082 2 1.8737386097738931e+01 2.3738917453598312e+00 5.7211530791984648e+00 0 1 0
536 2 1.7234425989511440e+01 1.7424031370975385e+01 3.6298293105688568e+00 0 0 0
865 1 1.3919346238071215e+01 1.3261815806249789e+01 9.9165742972663864e+00 0 -1 0
1788 2 2.7461918487073320e+00 1.1689820040051517e+00 4.6160372694549610e+00 0 1 1
903 2 1.2209959008450545e+01 3.7724979433038136e-01 5.6981697486865022e+00 0 1 0
1121 2 1.2873359175098170e+01 1.6258087526354619e+00 5.0842624163550254e-01 0 1 0
257 2 1.1873210635403410e+01 7.8870315113344249e+00 6.7299599832236821e+00 0 0 1
649 1 6.1764333600599297e+00 1.9020584371525857e+01 4.7069087984822708e+00 0 -1 0
682 1 4.0666733190363367e+00 1.8113617742563463e+01 3.2967133464251268e+00 0 -1 0
1370 2 1.4380062803286748e+01 3.1498970378373228e+00 7.2063201584817618e+00 0 0 1
1111 1 9.4330574365165489e+00 1.0059533187264421e+01 8.8580584654373560e+00 0 0 0
51 2 4.6647469915492197e+00 2.0091153923388210e+00 6.3238094338940307e+00 0 0 0
1832 2 3.9399177682111066e+00 1.6906787764538258e+00 8.8490596452314865e+00 0 0 0
1362 2 2.8330969916929525e+00 2.9557021722655743e+00 7.3076330196190105e+00 0 0 0
274 1 7.6995220062556609e+00 5.2879348517928433e+00 2.3664630437734715e+00 0 0 0
746 2 1.0921008036123881e+01 1.5053859587117628e+01 1.1010206167435843e+00 0 0 1
901 1 1.2215616572536371e+01 1.5690335886317133e-01 6.6391465227402753e+00 0 1 0
1544 2 2.2865443273441848e+00 1.3251432701409888e+01 7.7628445661078889e+00 0 0 0
1127 2 9.7178171273740137e+00 1.8588119737637150e+01 5.9674101319754191e+00 0 0 1
1369 1 1.3473561981127807e+01 3.1950907044514807e+00 6.7475817886576559e+00 0 0 1
227 2 4.1685403140448232e+00 1.2088693357293163e+01 3.8958750500990615e+00 0 0 0
1793 2 8.2014825149415600e+00 1.4318635025217326e+01 4.7580091238899485e+00 0 -1 1
1112 2 1.0348324878983425e+01 1.0350940428105472e+01 9.1210436351932298e+00 0 0 0
294 2 1.9209955065001608e+01 1.0601265530286410e+01 5.1291177582979746e+00 0 -1 -1
688 1 8.3478101500787485e+00 1.3635641583080297e+01 1.6535537281573975e-01 0 -1 0
306 2 1.2011664077788394e+01 1.0170558757521531e+01 4.4194257013511553e+00 0 0 1
1524 2 3.9386231806298388e+00 6.5290139099527265e+00 1.0406096261321843e-02 0 0 1
1086 2 1.0740434867402069e+00 9.1433522533041245e+00 1.4009949684319882e+00 0 0 0
495 2 9.6651643821387179e+00 5.3066369490224998e+00 5.3293899613545532e+00 0 0 -1
235 1 6.1700690315589890e+00 1.5628419279469110e+01 2.6084738606136235e+00 0 0 0
74 2 1.7065459398849779e+01 7.6391340796143270e+00 9.5592054121564658e+00 0 0 0
10 1 1.5734932967444260e-01 1.9220384685204198e+01 2.0436960051656192e+00 0 -1 0
1581 2 1.1002838229535261e+00 2.7336977752920530e+00 8.7224038529794914e+00 0 0 0
244 1 1.2933882257706889e+01 1.7209257529549056e+01 7.8407071506327775e+00 0 0 0
226 1 3.3492474647417971e+00 1.1782906128770337e+01 3.4250955220253427e+00 0 0 0
1081 1 1.8751853897766704e+01 3.3573835517433928e+00 5.8245884912507817e+00 0 1 0
677 2 4.8134824991413572e-01 1.2471438439742503e+01 1.1679756195356881e+00 0 0 0
488 2 1.5190130486983454e+01 9.1710988413633956e+00 9.5645866429763036e+00 0 1 -1
269 2 1.8249378013458124e+01 1.3795454796463892e+01 4.7878090978335246e+00 0 0 0
1161 2 1.4220022653704948e+01 1.7745798104608362e+01 4.9874148936946767e+00 0 0 0
77 2 1.8270698586343883e+01 4.5350012415086329e+00 3.0852844686122842e+00 0 0 0
877 1 9.7291441224662965e+00 1.0036023388463670e+01 1.1276458156573612e+00 0 1 1
1123 1 1.8490978220110073e+01 3.3125136019883041e+00 1.8044029051264581e+00 0 1 0
301 1 1.5160030031600042e+01 1.9162786457643058e+01 5.2649440487577923e+00 0 -1 -1
700 1 1.0715694943736773e+01 1.2465702213471838e+01 5.4813811602823561e+00 0 0 -1
466 1 1.5482451843202403e+01 1.8435985440525641e+01 7.9218605649458986e+00 0 0 0
1554 2 8.1796487991995210e+00 3.9520967886716392e+00 3.6878117191979678e+00 0 0 1
231 2 1.8889605484668230e+00 1.3718055344108880e+01 5.5383594247482835e+00 0 0 0
80 2 1.1908586757018508e+01 1.7705420747775754e+01 3.2075269187064914e+00 0 0 0
1153 1 1.7543557918232093e+01 1.2686659715101321e+01 8.8454284945084769e+00 0 1 0
1802 2 1.4509228523523229e+01 3.3380129065616306e+00 9.4756619119807777e+00 0 1 1
1591 1 1.8030568324724484e+01 1.5110408375059514e+01 1.7607034058154933e+00 0 0 1
1798 1 1.7381750714772704e+01 1.9171403759501970e+01 3.7128531714094910e+00 0 0 1
1576 1 1.8447718867048717e+01 9.4363643998474434e+00 4.0285922691492919e+00 0 0 1
1558 1 1.0848923679469205e+01 1.6555194548722816e+00 3.8303901032899388e+00 0 1 1
1779 2 6.8522001487387048e+00 5.9737811580983000e-02 6.8013400692534605e+00 0 1 0
1795 1 1.4765012738255150e+01 1.3376745911945413e+01 6.1803037335937283e+00 0 1 1
1535 2 1.3733728450373659e+01 7.0487318760426163e+00 4.2402298471602338e+00 0 -1 0
1745 2 6.1071015117441902e+00 4.8987454926129299e+00 9.5808235804341670e+00 0 1 0
490 1 8.6335755683605200e+00 1.7244378477246606e+01 2.5368550273464243e+00 0 0 0
1181 2 1.8593624927141622e+01 4.8440958665056275e+00 7.2248091474040761e+00 0 1 0
313 1 4.0646337156447556e+00 1.0033511608872152e+01 1.4160761473532657e+00 0 0 0
1321 1 2.8267132581348298e+00 9.6106568025267993e+00 4.9190838089330722e+00 0 0 1
505 1 2.3683028265319592e+00 6.0181930000845405e+00 7.1653800375315440e+00 0 0 0
1751 2 4.0734381417689889e+00 1.5771607537213114e+01 4.1175097216446432e-01 0 1 1
1749 2 -3.3304037955652899e-02 1.0154182437934557e+01 3.2683360782267457e+00 0 0 1
1787 2 1.5122778843233353e+00 4.3763538509330352e-01 4.1366903099121011e+00 0 1 1
1563 2 4.5487291758673665e-01 3.8613814223458492e-01 9.4917399581240982e+00 0 1 0
288 2 1.5229635741315818e+01 1.0516996061833785e+01 7.1473888661641616e-01 0 0 0
1536 2 1.3091471055731271e+01 7.0797088239378398e+00 2.8761149418240457e+00 0 -1 0
49 1 4.6332920245127802e+00 1.9541929862511456e+00 5.3200351042714162e+00 0 0 0
958 1 1.1464795590886503e+01 4.6675626801923782e+00 5.6489970300505021e+00 0 1 0
1331 2 1.1520170142233408e+01 6.9658761709676984e+00 1.0145606293980599e+01 0 0 0
308 2 1.2061277520504518e+01 1.5199663121420642e+01 4.4853078512850368e+00 0 0 0
1314 2 1.2085474563578653e+00 3.8523317546503031e+00 4.1883707131440415e+00 0 0 1
1584 2 5.8835844475184347e+00 9.0702076400343703e+00 4.7529935536825763e+00 0 0 0
1579 1 5.4730865267419126e-01 2.3078856392790024e+00 9.3709450257878206e+00 0 0 0
1592 2 1.8985272996776104e+01 1.5212748504776222e+01 1.7280067614584751e+00 0 0 1
1534 1 1.3929869464019506e+01 6.8670479916732043e+00 3.2752423686795549e+00 0 -1 0
894 2 6.9044893329326626e+00 5.5576190589422572e+00 5.3504743230178535e+00 0 0 0
283 1 1.5744144669908700e+01 3.6393423320255058e+00 8.2797345496345223e+00 0 0 0
236 2 5.3134899851248170e+00 1.5554800963738463e+01 3.1157990380382730e+00 0 0 0
1185 2 7.0397832003582064e+00 4.0759707407467549e-01 9.2056348614698624e+00 0 0 0
1101 2 1.1050816697129321e+01 3.2464450211551310e+00 9.2165126441876328e+00 0 1 0
1824 2 1.8445176211201929e+01 1.3500508210088348e+01 1.0803198148560134e+00 0 0 1
661 1 1.5391473047367232e-01 2.0231452188216741e+00 2.2530212447477669e+00 0 0 1
930 2 1.4087145368572578e+01 1.4051015207851183e+01 1.5015057614896279e-01 0 0 1
252 2 2.9138913367167638e+00 1.4899972857309191e+01 4.1656455239573669e+00 0 -1 0
1775 2 7.7636060586245659e+00 1.8083413780599056e+01 1.1364221415918094e+00 0 0 1
1304 2 1.4455142064168858e+00 1.6035320396701369e+01 6.5269892513102967e-01 0 -1 1
78 2 1.7007342150998447e+01 5.1434310023001251e+00 3.8420448709486563e+00 0 0 0
1777 1 7.3664472065486555e+00 3.6127617435937154e-01 7.5625453711422290e+00 0 1 0
218 2 5.5449757463183280e+00 1.5833314700595873e+01 6.3729551615330156e+00 0 0 0
952 1 1.3724470165175212e+01 1.1048958652279513e+01 4.5783637569090230e+00 0 0 1
1805 2 7.2127963649047189e+00 9.7806471396945316e+00 8.7069292360182660e-01 0 0 1
293 2 1.9578887568654832e+01 1.2025038899603805e+01 5.7970807751924909e+00 0 -1 -1
1782 2 6.1200146659894772e+00 1.5386148631727135e+01 9.7711905224929456e+00 0 0 0
904 1 1.6842709079958617e+01 8.2164723561627895e+00 7.2672397711521564e+00 0 0 0
1607 2 7.6756725927770670e+00 1.0409636747820057e+01 6.1972890996353538e+00 0 -1 0
1083 2 1.8160963848610134e+01 3.7811473206207218e+00 5.2218617372951694e+00 0 1 0
1545 2 8.6042162005161194e-01 1.3109413497439949e+01 7.2531658548641831e+00 1 0 0
1317 2 1.4427123945017357e+00 1.9241893745690064e+01 5.9027425262806323e+00 0 -1 0
1813 1 1.3898005377254997e+01 1.4820795771965949e+00 4.7738424288944090e+00 0 1 1
929 2 1.5062130805003090e+01 1.4788962972399164e+01 1.1560610953092012e+00 0 0 1
464 2 1.7707241604549232e+01 6.4848471106187846e+00 1.0185256580553887e+00 0 0 -1
1136 2 1.7131016010699880e+00 6.1389306136495536e+00 4.0848414739450991e+00 0 1 0
477 2 9.7098695734516607e+00 1.7471569576294506e+01 9.2826427550107464e+00 0 0 0
942 2 9.9442916612479362e+00 2.5674771517466457e+00 7.4747628877156655e+00 0 1 1
1312 1 8.7220098280464331e-01 3.0633802613346335e+00 4.6077435325614831e+00 0 0 1
1561 1 4.1130518677321959e-01 1.9227322339670117e+01 9.1534739888853416e+00 0 0 0
89 2 1.4860255328438127e+01 1.2131730384317017e+01 7.3018499664978753e+00 0 0 0
915 2 1.5811446104878847e+01 1.7306124468833794e+01 6.4463290472843016e-01 0 0 0
450 2 1.2344503260447231e+01 6.0313555238669538e+00 5.7380792623700030e+00 0 1 0
1778 2 8.2383575071811013e+00 1.9608291973926708e+01 7.4636022875121180e+00 0 -1 0
1385 2 1.0965960517477745e+01 1.2056122458605833e+01 1.0062505527635969e+01 0 0 0
668 2 1.1119153075454078e+00 1.7012261720276584e+01 4.6996051049650092e+00 0 0 0
1806 2 6.5564406363850694e+00 8.4878108329133646e+00 7.8559948490166720e-01 0 0 1
444 2 9.4065300418759872e+00 8.7674343153119985e+00 4.0446888424556633e+00 0 1 0
228 2 3.2498541034134303e+00 1.2372072883164599e+01 2.6549236632625739e+00 0 0 0
1620 2 1.8329267086786427e+01 1.7700571882318318e+01 6.8944955870108879e+00 0 -1 0
1796 2 1.4041052298766195e+01 1.3960039773004009e+01 6.4901303840265605e+00 0 1 1
736 1 1.3838698394197687e+01 5.0494788580354379e+00 9.1384770567846052e-01 0 0 0
879 2 9.6831048280632857e+00 9.3325310297827464e+00 1.7853904990813523e+00 0 1 1
663 2 9.1152865869690314e-01 2.4113471560195232e+00 1.7955447670228191e+00 0 0 1
96 2 3.3224110237860929e+00 1.4328009972088243e+01 9.4144328171624103e+00 0 0 0
968 2 6.6971398708588374e+00 1.7551931515395783e+01 5.5005673518178364e+00 0 0 0
1128 2 9.4935564925887235e+00 1.7948572315543593e+01 7.4010358406477117e+00 0 0 1
734 2 1.7518450223979738e+01 1.5996215102543506e+01 9.3329653421000138e+00 0 0 0
245 2 1.2487246419993095e+01 1.7402974327190275e+01 8.6469751119898710e+00 0 0 0
64 1 1.9317579698657209e+01 8.9168779051083078e+00 7.3901368806722720e+00 0 0 -1
1157 2 5.4997323580325563e+00 1.2322804134207217e+01 5.6819470727831440e+00 0 0 0
526 1 1.4438958141999075e+01 1.4904199762440468e+01 3.1151336876275630e+00 0 0 0
95 2 3.3820263757849776e+00 1.2746984793452786e+01 9.4966533466935470e+00 0 0 0
1619 2 1.8228423190508437e+01 1.9322880858613185e+01 6.7473713510008100e+00 0 -1 0
482 2 7.9365291455782359e+00 1.1174057823235836e+01 2.6847351926195193e+00 0 0 0
11 2 9.0136418598889367e-01 1.9017078907362826e+01 1.4582178344475107e+00 0 -1 0
1610 2 6.8939081342357378e+00 1.2452684816678044e+01 7.2928589287286565e+00 0 0 1
1773 2 1.6066773397345621e+01 8.9408183481916090e+00 5.3948711640917768e+00 0 0 0
1804 1 6.6128642757465830e+00 9.3076263592406843e+00 2.6030838854128463e-01 0 0 1
1574 2 1.0942971638479838e+01 1.4500523162914956e+01 7.9845314216703249e+00 0 0 0
878 2 9.5369906392490140e+00 9.5788745280199716e+00 3.0226744204323280e-01 0 1 1
722 2 1.2006414372359306e+01 1.2740355166270533e+01 2.8960053075633341e+00 0 0 0
319 1 4.8461081675762854e+00 1.9302640666486482e+01 1.0908954907767814e+00 0 -1 1
304 1 1.1156320780358307e+01 9.7344830101436308e+00 4.5472753105019832e+00 0 0 1
1774 1 7.5525262639141193e+00 1.8383309987090314e+01 2.0767952026696868e-01 0 0 1