LAMMPS data file via write_data, version 15 Apr 2020, timestep = 200000

972 atoms
2 atom types

1.6758187904070709e-01 1.9823471120960374e+01 xlo xhi
8.4649928905829341e-02 1.9906403071096761e+01 ylo yhi
2.5757995956180224e-01 2.0543192040438605e+01 zlo zhi
-3.3427880373027730e-01 -4.9609840871644169e-02 1.5827855070839036e-01 xy xz yz

Masses

1 16
2 2

Atoms # atomic

4 1 4.1572847641444337e+00 1.5604244424087603e+00 3.1086693997395067e+00 0 0 0
5 2 4.4054010758390865e+00 2.4781139485826902e+00 3.3851932147530834e+00 0 0 0
6 2 3.4732141670281642e+00 1.3902311115886057e+00 3.7322799809817457e+00 0 0 0
7 1 5.6736178333888967e+00 5.0594894199768712e+00 5.7546130308559205e+00 0 0 0
8 2 6.3517457252999021e+00 5.0196146173375329e+00 5.0413883168673586e+00 0 0 0
9 2 4.8045461505882123e+00 4.7268551315899083e+00 5.3870587868196695e+00 0 0 0
10 1 1.2420707147276375e+00 3.8425983424910624e+00 3.9429743131579369e+00 0 0 0
11 2 6.5663980749579820e-01 3.8475150720011522e+00 4.7249957674218956e+00 0 0 0
12 2 1.0600710926585153e+00 4.6821421297546681e+00 3.4594719708637878e+00 0 0 0
13 1 4.4173647381311900e+00 5.7994726860676913e+00 2.1158523744613307e+00 0 0 0
14 2 4.1029584931608278e+00 6.6388611012227576e+00 2.5419160822025137e+00 0 0 0
15 2 3.8208171001896898e+00 5.8276306512463929e+00 1.3284406467027277e+00 0 0 0
16 1 3.8195575236865804e+00 4.0442602509708294e+00 4.0969332109282366e+00 0 0 0
17 2 4.1583684984892226e+00 4.6853868988925704e+00 3.4395879839386243e+00 0 0 0
18 2 2.8479753409391315e+00 3.9740977553686530e+00 4.0818088173154532e+00 0 0 0
19 1 8.4732104671918917e-01 5.9371803121120550e+00 2.1493552093755852e+00 0 0 0
20 2 9.4438218252607120e-01 6.8905217873630455e+00 2.3467083516350744e+00 0 0 0
22 1 2.3838322176321411e+00 5.6648744601231771e-01 5.0577522273932747e+00 0 0 0
23 2 1.4433476978418847e+00 8.2798489640956674e-01 4.9040212495385394e+00 0 0 0
24 2 2.4040952831330391e+00 1.0868739814803137e+00 5.8370061629701659e+00 0 0 0
25 1 2.5642580788553935e+00 5.1956823930533043e+00 6.6184266511706715e+00 0 0 0
26 2 2.6598141651552822e+00 5.7927248605980699e+00 5.8818165734694823e+00 0 0 0
27 2 3.4267507825104908e+00 5.3609937847745170e+00 7.0589093850527149e+00 0 0 0
28 1 5.5674524477229967e+00 8.1048226182295868e-01 5.2633236210513852e+00 0 0 0
29 2 5.1416710905153558e+00 7.8728694789320375e-01 4.3875919498702798e+00 0 0 0
30 2 5.3013155302440591e+00 1.9631313708054954e+01 5.5159250766537768e+00 0 0 0
31 1 7.8883720521071221e-01 1.7519599200450637e+00 2.5362709725174688e+00 0 0 0
436 1 4.0234310174517862e+00 8.1254171408108018e+00 1.0236983582125315e+01 0 0 0
33 2 1.0135844415385127e+00 2.6334617867283381e+00 2.9930067748040980e+00 0 0 0
210 2 4.9373972228346480e-01 7.1823780496332219e+00 5.1138897722952370e+00 0 0 0
35 2 6.1761303599517738e+00 2.3617241722329680e+00 1.4213475073008102e+00 0 0 0
46 1 7.8177141936504855e+00 4.7294983910786801e+00 4.0603939642868969e+00 0 0 0
47 2 8.7484819555815942e+00 4.5680863830708560e+00 4.2391677781126509e+00 0 0 0
48 2 7.7637659277250428e+00 5.3890339069566044e+00 3.2963749394280231e+00 0 0 0
55 1 7.1805385650078701e+00 6.0818224603130737e+00 1.7572135343201154e+00 0 0 0
56 2 7.1999665730323903e+00 7.0532714003658068e+00 1.8061488633837701e+00 0 0 0
57 2 6.2254828393022761e+00 5.8292423829984141e+00 1.7131202234905030e+00 0 0 0
58 1 8.7344844853406016e+00 1.0677136305413200e+00 5.2626100036002557e+00 0 0 0
1 1 2.8096328907808847e+00 2.5631170435062294e+00 5.1965438013681409e-01 0 0 0
60 2 7.7750531735284900e+00 1.0071235651205912e+00 5.1179478081063472e+00 0 0 0
61 1 9.2939570208075786e+00 5.6753700686056447e+00 6.7701781323249772e+00 0 0 0
62 2 9.1287701321747114e+00 4.6772486303252645e+00 6.7738464647002328e+00 0 0 0
63 2 8.5890216986866736e+00 6.0275611425678246e+00 7.3468162121130591e+00 0 0 0
67 1 7.3525403792992101e+00 2.5574032268111360e+00 2.3848879252232162e+00 0 0 0
68 2 7.4715079666481898e+00 3.3614934046172098e+00 2.9538685392962805e+00 0 0 0
69 2 8.1349125000004303e+00 2.6865028107618247e+00 1.7396601132079135e+00 0 0 0
111 2 1.7922484824919118e+00 8.9128870851346402e+00 8.3926040786041312e-01 0 0 0
37 1 9.2029192485937763e+00 2.5947405895083784e+00 5.2696887601874343e-01 0 0 0
465 2 8.9151875772640299e-01 7.6778636531686635e+00 9.0327188081681751e+00 0 0 0
112 1 4.0383096331759170e+00 8.0995630098970448e+00 3.4504906292713367e+00 0 0 0
113 2 4.8448053922901968e+00 8.0346948626566146e+00 4.0064637950411690e+00 0 0 0
114 2 3.9310390917555567e+00 9.0846935134318940e+00 3.2122985290723496e+00 0 0 0
115 1 5.7499784568984529e+00 1.1100440891649933e+01 5.6006748198371525e+00 0 0 0
116 2 5.7077635565371114e+00 1.2046329256475506e+01 5.8410729692112149e+00 0 0 0
117 2 5.6156956227631509e+00 1.0480730858037351e+01 6.3404658226954389e+00 0 0 0
118 1 1.3371314557272178e+00 1.0705945831860321e+01 4.1950846696806874e+00 0 0 0
119 2 1.0178604819834383e+00 1.0893640582396541e+01 5.1102180961841128e+00 0 0 0
120 2 2.3374833550560812e+00 1.0770396447815562e+01 4.1872738188063616e+00 0 0 0
121 1 4.4737844758089826e+00 1.2678319267326925e+01 1.6765327934141807e+00 0 0 0
122 2 5.4368350026142931e+00 1.2504250357054744e+01 1.5330352712665374e+00 0 0 0
123 2 3.9337669339319175e+00 1.2344142722811309e+01 8.5858342171607083e-01 0 0 0
124 1 3.8958223783761055e+00 1.0883801715721818e+01 3.7205270397375156e+00 0 0 0
125 2 4.2633121953922277e+00 1.1427062718753225e+01 2.9259541314064892e+00 0 0 0
126 2 4.6617032220726768e+00 1.0919385207441115e+01 4.3314413512857826e+00 0 0 0
127 1 4.6994531545678270e-01 1.2391192873499428e+01 2.0007972094048796e+00 0 0 0
128 2 1.2018296124400945e+00 1.2159884504096725e+01 1.2895623045981901e+00 0 0 0
129 2 7.0410975980463253e-01 1.1861455459354213e+01 2.7697311395975861e+00 0 0 0
130 1 2.1983504541761114e+00 7.4982190508892606e+00 5.3073065557898822e+00 0 0 0
131 2 2.8058338739017468e+00 7.7298776588572320e+00 4.5929546150220650e+00 0 0 0
132 2 2.3401578325332686e+00 8.1792025120072349e+00 6.0382810554417050e+00 0 0 0
133 1 2.7324624152401840e+00 1.1917283113690686e+01 6.7968979079776757e+00 0 0 0
134 2 2.0416685473271823e+00 1.2187171062539425e+01 7.5091666558471486e+00 0 0 0
135 2 2.4888536816128339e+00 1.2556209761781341e+01 6.0592159362606646e+00 0 0 0
136 1 5.9907090613171148e+00 7.6320261277516179e+00 5.2551341265860101e+00 0 0 0
137 2 5.9540010270574655e+00 6.7724272173100841e+00 5.6951400279226672e+00 0 0 0
138 2 6.9093274924746382e+00 7.8648071007192311e+00 4.9639321563787639e+00 0 0 0
139 1 9.6398059015911075e-01 8.5004920741827341e+00 2.2564616578772037e+00 0 0 0
140 2 9.5328557099054023e-01 9.0905771759613963e+00 3.0057685049276652e+00 0 0 0
343 1 9.1611152243124272e-01 5.8054270547545581e+00 8.8716623099633800e+00 0 0 0
147 2 8.6723229828101225e+00 9.4435955694169724e+00 8.2722669088059564e-01 0 0 0
328 1 4.0846541537989509e+00 1.2800323186475824e+00 1.0355196009235652e+01 0 0 0
154 1 7.6692823760328253e+00 1.0754310313975862e+01 3.8822883837941426e+00 0 0 0
155 2 7.0522518684717657e+00 1.0898783355322349e+01 4.5954259671524751e+00 0 0 0
156 2 8.5606440523552685e+00 1.0976049840896952e+01 3.9457019295844362e+00 0 0 0
163 1 7.1743586246571516e+00 1.2460765771299318e+01 1.9100558329621102e+00 0 0 0
164 2 7.4289401751302337e+00 1.1679598528903712e+01 2.4892700651509103e+00 0 0 0
165 2 7.8193544049294523e+00 1.2463506910087091e+01 1.2041452132264472e+00 0 0 0
166 1 8.7450258360438955e+00 7.8633453010264178e+00 4.7305319821285527e+00 0 0 0
167 2 8.9180956625054968e+00 8.5839601746960863e+00 5.3476793805458769e+00 0 0 0
168 2 8.9463791015263308e+00 7.0762866508773055e+00 5.2585550792950384e+00 0 0 0
169 1 9.4595652126346064e+00 1.1930872815176492e+01 6.1821696812172950e+00 0 0 0
171 2 9.0865100019640828e+00 1.2820902561902106e+01 5.8363555813451784e+00 0 0 0
175 1 7.3225317100111251e+00 8.7558272779407744e+00 1.9411088472369162e+00 0 0 0
176 2 7.4657631674164380e+00 9.2860347865058479e+00 2.7327307528688003e+00 0 0 0
177 2 6.5137591595964714e+00 9.1625426237349146e+00 1.5316825574616779e+00 0 0 0
450 2 4.0332779782729711e+00 1.1335535408534250e+01 9.4753840167672436e+00 0 0 0
3 2 2.1578365405853042e+00 2.4084637387597487e+00 1.2349713489650687e+00 0 0 0
544 1 4.1830639652067259e+00 1.4804901067234551e+01 1.0341451391227327e+01 0 0 0
372 2 7.3939904055619197e+00 5.0125654200314624e+00 9.9461437817074820e+00 0 0 0
142 1 4.9113947478844100e+00 9.2896533815159259e+00 5.3801457531486818e-01 0 0 0
220 1 4.1307163994645508e+00 1.4461041855282229e+01 3.6887997277934579e+00 0 0 0
221 2 4.2200576024265644e+00 1.5371232080062818e+01 3.3335771351519456e+00 0 0 0
222 2 4.0320207890443260e+00 1.3885338775691027e+01 2.9028650870544404e+00 0 0 0
223 1 5.5101071471099683e+00 1.8102238370714385e+01 5.5178478336227856e+00 0 0 0
224 2 6.3352686226584680e+00 1.7963047770678966e+01 4.9848381172293852e+00 0 0 0
225 2 5.5197207850644441e+00 1.7432686125036810e+01 6.2493352921286451e+00 0 0 0
226 1 1.5123543738625884e+00 1.7357124517490071e+01 4.0442286129675065e+00 0 0 0
227 2 1.1967545960346260e+00 1.7878381806495039e+01 3.2957283781798310e+00 0 0 0
228 2 1.2178827163659145e+00 1.6436495777320090e+01 3.7862861736735067e+00 0 0 0
229 1 4.4367420316844370e+00 1.9207874024304548e+01 1.5654827571282885e+00 0 0 0
230 2 4.3265145681426391e+00 1.8403132355898862e+01 2.1114474895990769e+00 0 0 0
231 2 4.4483278121214580e+00 1.2451337418079203e-01 2.1573895939494920e+00 0 0 0
232 1 4.2289703321493972e+00 1.7014654117921459e+01 3.3340897593278398e+00 0 0 0
233 2 3.2749757764113450e+00 1.7083412780073441e+01 3.4039430483490909e+00 0 0 0
234 2 4.4844558916016446e+00 1.7382772302802479e+01 4.2274843551588175e+00 0 0 0
235 1 4.8370414099478803e-01 1.9175460865294291e+01 1.8385334281982775e+00 0 0 0
236 2 1.0923949193378650e+00 2.9594082552111611e-01 2.0912510360414793e+00 0 0 0
237 2 8.6600436516873747e-01 1.9016425719333760e+01 9.6004195453207086e-01 0 0 0
238 1 2.0472429326240849e+00 1.4013860138148436e+01 5.2848352531380938e+00 0 0 0
239 2 2.7633321891090952e+00 1.4166205779806285e+01 4.5927001504666150e+00 0 0 0
240 2 1.1779079352406940e+00 1.4157088181919146e+01 4.9524180471992079e+00 0 0 0
241 1 2.6578863562122290e+00 1.8470390752340229e+01 6.9636320680570218e+00 0 0 0
242 2 2.4556658546278358e+00 1.8681613964724242e+01 6.0400836851297921e+00 0 0 0
243 2 2.5834080893476621e+00 1.7503446172729674e+01 6.9907989545635241e+00 0 0 0
244 1 6.0030017621007623e+00 1.3722058164731937e+01 5.4896027134297638e+00 0 0 0
245 2 5.8447525566345417e+00 1.4303569093769358e+01 6.2409103452565482e+00 0 0 0
246 2 5.3829710063982992e+00 1.3992041258115071e+01 4.7682257009879319e+00 0 0 0
247 1 9.0172804999340961e-01 1.5095766565287175e+01 2.5571736101621920e+00 0 0 0
248 2 6.3032016180447947e-01 1.4180108274847528e+01 2.5775692367993384e+00 0 0 0
249 2 1.4024985418119509e+00 1.5186961499311529e+01 1.7685543760309306e+00 0 0 0
251 2 5.8486249975782920e+00 1.5429647032552211e+01 1.3931569818298255e+00 0 0 0
143 2 3.9592919169868406e+00 9.2072888252057030e+00 7.0702518312615104e-01 0 0 0
262 1 7.5996975027696871e+00 1.7363956102943519e+01 3.9199261397367602e+00 0 0 0
263 2 8.5927296911310762e+00 1.7338422939014393e+01 4.1097305550361014e+00 0 0 0
264 2 7.4770603441998418e+00 1.7762613656865753e+01 3.0486496947499946e+00 0 0 0
271 1 7.0384946645117346e+00 1.9469249927652257e+01 2.0926450190852748e+00 0 0 0
272 2 7.5950392041896873e+00 5.5652572430376201e-01 2.1026481746916783e+00 0 0 0
273 2 6.0792916665608674e+00 1.9436402133649825e+01 1.8734528913571900e+00 0 0 0
274 1 8.4696002615278854e+00 1.4282367432334107e+01 4.9976919811247376e+00 0 0 0
275 2 8.6411504218515045e+00 1.5009864063241745e+01 5.6578861269982417e+00 0 0 0
276 2 7.6114140648064748e+00 1.3959657268871876e+01 5.2708215450560694e+00 0 0 0
277 1 8.9309366107305355e+00 1.8720263507350790e+01 7.1240890744335470e+00 0 0 0
278 2 8.6739336997701280e+00 1.9276970194000079e+01 6.4024085890262503e+00 0 0 0
279 2 8.2637851325178762e+00 1.8979648972929365e+01 7.8292508013636910e+00 0 0 0
283 1 7.2478252465230177e+00 1.5130665896691548e+01 2.2273713504807868e+00 0 0 0
284 2 7.2886140078750126e+00 1.5683732499983394e+01 3.0552655375094115e+00 0 0 0
285 2 7.3246723618520173e+00 1.4168666195137680e+01 2.4550878597565684e+00 0 0 0
444 2 1.1314538407463597e+00 1.1251338767185834e+01 9.9430434872782740e+00 0 0 0
325 1 2.7329867288469036e+00 2.3662519139999829e+00 7.1751630566593088e+00 0 0 0
326 2 2.4379144321390891e+00 3.2381702497943938e+00 6.8702844718047897e+00 0 0 0
327 2 3.6691021980887397e+00 2.4643699502628196e+00 7.3663605793308893e+00 0 0 0
329 2 4.1899037450978751e+00 4.0801930140432324e-01 9.8679445101709113e+00 0 0 0
337 1 4.4360733526646969e+00 5.9558718332100895e+00 8.5762449517701729e+00 0 0 0
338 2 4.0434509339702469e+00 5.2479985669564480e+00 9.1613056586421600e+00 0 0 0
339 2 4.1559312984865819e+00 6.7840403551710198e+00 8.9474141773104172e+00 0 0 0
2 2 3.6964136295199475e+00 2.4824871680535971e+00 9.2483984424490873e-01 0 0 0
344 2 1.5430149983749530e+00 5.3773385344358413e+00 9.4498471498587140e+00 0 0 0
345 2 1.4120919713565812e+00 5.7359035094135722e+00 8.0239920135676961e+00 0 0 0
355 1 1.1199736872638011e+00 1.9775285012836916e+00 9.3419089580932511e+00 0 0 0
356 2 1.1753056413767460e+00 1.0244279797904312e+00 9.4532638561898246e+00 0 0 0
357 2 1.8562112354706648e+00 2.0879201430732861e+00 8.7175480506690306e+00 0 0 0
358 1 5.4492941839018769e+00 2.4391336221184114e+00 7.1685407978033124e+00 0 0 0
359 2 5.6308760952112999e+00 3.3069231911337513e+00 6.7486954879067484e+00 0 0 0
360 2 5.5415200310251045e+00 1.8000404244520045e+00 6.3782641040399408e+00 0 0 0
361 1 9.0239260748474859e+00 2.8423666868770590e+00 7.6606417548848826e+00 0 0 0
362 2 8.4435720072207570e+00 2.2918511512478115e+00 7.0411826420725463e+00 0 0 0
363 2 8.3616633857662368e+00 2.8730308552313839e+00 8.3729764929475223e+00 0 0 0
254 2 8.5182526673654735e+00 1.5590402552223145e+01 1.3017564004208890e+00 0 0 0
379 1 7.3968179610600622e+00 6.1779576124192701e+00 8.5921991773514730e+00 0 0 0
380 2 7.3055218575031429e+00 7.0701854267961384e+00 8.9500136412331184e+00 0 0 0
381 2 6.4702923044408385e+00 5.9723679032908041e+00 8.3471526397819602e+00 0 0 0
391 1 6.9003808740584303e+00 2.1831439851253402e+00 9.5442889133456212e+00 0 0 0
392 2 6.8526176851006886e+00 3.0595479682458491e+00 9.9544048687701654e+00 0 0 0
393 2 6.2307769514107232e+00 2.2618258752694134e+00 8.8726233480530077e+00 0 0 0
59 2 9.1411339043864572e+00 1.3429389506415081e+00 4.4014664126450143e+00 0 0 0
433 1 2.7690965566145764e+00 9.4079993232701771e+00 7.1790043380310991e+00 0 0 0
434 2 2.6799779520026528e+00 1.0395849827067130e+01 7.0456712764118068e+00 0 0 0
435 2 2.1088595939644974e+00 9.0804848479347768e+00 7.7979234626736336e+00 0 0 0
927 2 8.1670489392419796e+00 1.8803444954729560e+01 9.3367291288621024e-01 0 0 0
445 1 4.8799681447022634e+00 1.2798971829364678e+01 8.4611576261442512e+00 0 0 0
446 2 4.5018699096792778e+00 1.3526782624180880e+01 8.9896548442143214e+00 0 0 0
447 2 4.1736105550766842e+00 1.2635426355124610e+01 7.7966603895406079e+00 0 0 0
609 2 7.3923179397392342e+00 1.6080628491026651e+01 9.4926181436143029e+00 0 0 0
451 1 8.4839241090783324e-01 1.2390880649325577e+01 8.5629385134942684e+00 0 0 0
452 2 8.6834993603379185e-01 1.3324696231454732e+01 8.8644332778473469e+00 0 0 0
463 1 8.1569181441183114e-01 8.6610864214608370e+00 8.9668448326488264e+00 0 0 0
250 1 5.1956940943242707e+00 1.5532091198092008e+01 6.7791175759846012e-01 0 0 0
466 1 5.3832082414152165e+00 9.1561573002203502e+00 7.3486752692163666e+00 0 0 0
467 2 5.7123554741915292e+00 8.5135972523820751e+00 6.6069570868333320e+00 0 0 0
468 2 4.4166819360378407e+00 9.2147959514925830e+00 7.4155698556124392e+00 0 0 0
469 1 8.9699845215852783e+00 9.4768729159419767e+00 6.9033064308248022e+00 0 0 0
470 2 9.0144295142646307e+00 1.0471393336464079e+01 6.9212588625449634e+00 0 0 0
471 2 8.3878373357371458e+00 9.3043080100961557e+00 7.6383965701925316e+00 0 0 0
573 2 6.1972698967049100e-01 1.5813396945059182e+01 9.6239092561948834e+00 0 0 0
487 1 7.4756503341009584e+00 1.2655463084217507e+01 8.7004678841289511e+00 0 0 0
488 2 7.9266247999327257e+00 1.2326692596845783e+01 7.8645975863020618e+00 0 0 0
489 2 6.5121902245444998e+00 1.2521008466088858e+01 8.5317929634364180e+00 0 0 0
499 1 7.0390575952752368e+00 8.6118851834720012e+00 9.1839204146860940e+00 0 0 0
500 2 7.2745435855844951e+00 9.4806075859577241e+00 9.6287270062897843e+00 0 0 0
501 2 6.2285989202215797e+00 8.7834909400029915e+00 8.6940595537346965e+00 0 0 0
558 2 3.5830823435965109e+00 1.7858615658227148e+01 1.0138950362696097e+01 0 0 0
437 2 4.0397165912423230e+00 9.0910693619381107e+00 1.0079415325210308e+01 0 0 0
541 1 2.3497351322716935e+00 1.5811436669150096e+01 7.3180172793851206e+00 0 0 0
542 2 1.6608562400285531e+00 1.5537826652079273e+01 7.9914650168429882e+00 0 0 0
543 2 2.1554911362325404e+00 1.5225714550185343e+01 6.5221471915952796e+00 0 0 0
553 1 4.3181881259192965e+00 1.9002637869122697e+01 8.9080349886250261e+00 0 0 0
554 2 5.2850055303033736e+00 1.9149270083083454e+01 8.7785672088216380e+00 0 0 0
555 2 3.9024123117335430e+00 1.8931590928025340e+01 8.0337354131263012e+00 0 0 0
711 2 8.3707306125316698e+00 5.3473711168789215e+00 3.5240349148916550e-01 0 0 0
559 1 7.6089203396250993e-01 1.9000238349695199e+01 8.9819681430281086e+00 0 0 0
560 2 1.4674506906423295e+00 1.8712934648938553e+01 8.3327768316748099e+00 0 0 0
561 2 7.8261652383959812e-01 1.8308619897557907e+01 9.6808014462585046e+00 0 0 0
571 1 2.6315119925936425e-01 1.5046670236245529e+01 9.1348507483967243e+00 0 0 0
574 1 5.1643131292983142e+00 1.5837109718864177e+01 6.9174048011762501e+00 0 0 0
575 2 5.6380181088310009e+00 1.5783559847675432e+01 7.7988505014422458e+00 0 0 0
576 2 4.2144224564859689e+00 1.5688520949085131e+01 7.0469711010301106e+00 0 0 0
577 1 9.1013945457006056e+00 1.6249922016899870e+01 6.9136103751069458e+00 0 0 0
578 2 8.9494606682866653e+00 1.7242324884054351e+01 6.9063971218302438e+00 0 0 0
579 2 8.5197558210059885e+00 1.5931957393330045e+01 7.6275350228813901e+00 0 0 0
608 2 7.2517364541608664e+00 1.4541664535698665e+01 9.0689723540070784e+00 0 0 0
595 1 7.0467906216366485e+00 1.9445082568700268e+01 8.8649394468191236e+00 0 0 0
596 2 7.3371829899323480e+00 5.1858266012440857e-01 9.2548109474858578e+00 0 0 0
597 2 7.3715563238048265e+00 1.8844602531528508e+01 9.5691071880401566e+00 0 0 0
607 1 7.1965805108742344e+00 1.5456014554317914e+01 8.7492601696760328e+00 0 0 0
34 1 5.4672532168768582e+00 2.3567432877886110e+00 6.2736452316406033e-01 0 0 0
218 2 3.4915148708174040e+00 1.5392550659921302e+01 5.9123485011136201e-01 0 0 0
253 1 9.1211280781064872e+00 1.5934495731111669e+01 5.3769073768626163e-01 0 0 0
675 2 1.7471876041560526e+00 5.5076624672794905e+00 9.1369940310995579e-01 0 0 0
443 2 1.1066807314826397e+00 9.7436661125568822e+00 1.0233597042045922e+01 0 0 0
448 1 4.0618709064181635e+00 1.0793175251860855e+01 1.0289495782622140e+01 0 0 0
891 2 3.2448537244696860e+00 1.8646551560184744e+01 2.5766902160600003e-01 0 0 0
141 2 1.6973495512801298e-01 8.6797361019968680e+00 1.7095793095661842e+00 0 0 0
926 2 8.9885057800742949e+00 1.7587764331896967e+01 3.5671585696616970e-01 0 0 1
464 2 2.7006922356889423e-02 8.8158989568805008e+00 8.3998508187616530e+00 0 0 0
479 2 7.6671611569284277e+00 1.1737626724076669e+01 1.0119159008187099e+01 0 0 0
297 2 -8.6800167157635388e-02 1.7731662495916851e+01 5.0232854246084768e+00 1 0 0
925 1 8.8631051496650279e+00 1.8585122871632709e+01 3.0203328431569104e-01 0 0 1
335 2 1.3705250167960248e+00 3.2269153217015880e+00 1.0372004087396046e+01 0 0 0
426 2 3.0095241639642112e-01 9.2614318728513967e-01 1.1865999127021819e+01 0 0 0
749 2 3.3752486664784931e-01 1.0045411959514920e+00 1.8956705459217563e+01 0 0 0
336 2 7.7108578018247431e-01 4.2265859928146066e+00 1.1355289540195026e+01 0 0 0
384 2 9.3275241789336647e+00 1.0590657575511986e+00 1.1433398355248633e+01 0 0 0
781 1 2.4455566401978439e+00 1.1928585851175782e+01 2.0328002140539589e+01 0 0 0
513 2 1.0253431436364041e-01 1.1278422618304809e+01 1.1926970880405158e+01 0 0 0
331 1 5.8279932655913917e+00 4.8414144318419847e+00 1.2819430997543078e+01 0 0 0
332 2 6.6616513777801316e+00 4.6814537223887456e+00 1.2405300817765603e+01 0 0 0
333 2 5.2454161733660030e+00 4.5595081975282978e+00 1.2031224584492181e+01 0 0 0
709 1 8.9976659332900066e+00 5.6156804415139172e+00 1.9976116096919416e+01 0 0 0
707 2 8.7448687593949757e+00 1.2607928740646517e+00 1.8096688712999764e+01 0 0 0
858 2 2.4570839597535954e-01 7.2180307389957736e+00 1.8475641926771868e+01 0 0 0
346 1 2.0771755422664189e+00 7.9446683055046119e-01 1.2011334139440073e+01 0 0 0
347 2 2.9089607575721241e+00 9.2231287522789029e-01 1.1352106300308389e+01 0 0 0
348 2 2.2964693681152393e+00 1.4208138814275202e+00 1.2735930185759512e+01 0 0 0
349 1 2.2669360855256961e+00 5.3968216496726695e+00 1.3950194902077307e+01 0 0 0
350 2 2.3801682385707568e+00 5.9001434993070401e+00 1.3085943122824379e+01 0 0 0
351 2 2.5465151141747513e+00 4.4585023669898662e+00 1.3664160793233018e+01 0 0 0
352 1 6.0727954464968157e+00 9.9528878086496031e-01 1.2561419714157747e+01 0 0 0
353 2 7.0273070321756226e+00 1.1493910121686828e+00 1.2381776402355619e+01 0 0 0
354 2 5.6603012768724232e+00 1.9888203189376483e+01 1.2711165307664409e+01 0 0 0
782 2 2.2404788961909343e+00 1.1018904972697808e+01 2.0014082226989494e+01 0 0 0
382 1 8.8899762791385193e+00 1.1293497930999536e+00 1.2347506486027449e+01 0 0 0
383 2 8.9971440689754871e+00 2.8586968253577444e-01 1.2812463149833961e+01 0 0 0
146 2 9.0735741703100192e+00 1.0626481056752413e+01 1.9994026736929055e+01 0 0 0
385 1 8.9251603657495568e+00 5.8493574198103158e+00 1.3450866443039216e+01 0 0 0
386 2 9.1534941302557939e+00 4.9275902986003102e+00 1.3536839034786741e+01 0 0 0
387 2 8.2503194602444125e+00 5.9646452073507827e+00 1.4141472309674818e+01 0 0 0
545 2 3.3154043015259105e+00 1.4509777461048595e+01 1.0624797861830332e+01 0 0 0
876 2 7.9087504034121026e-01 1.7515262736845862e+01 1.8261035439649515e+01 0 0 0
439 1 5.6942366951342622e+00 1.1448858004658051e+01 1.2319128194988227e+01 0 0 0
440 2 5.6559122425609800e+00 1.2412067017779110e+01 1.2419848217501601e+01 0 0 0
441 2 5.0910492365135376e+00 1.1244531740020387e+01 1.1587968763978955e+01 0 0 0
787 1 4.5513872656080889e-01 9.0438001183647270e+00 1.6157504887522492e+01 0 0 0
454 1 2.1673276831149249e+00 7.6304272402716231e+00 1.2075710028729166e+01 0 0 0
455 2 2.8531211057200525e+00 7.8713233911094047e+00 1.1392973889361746e+01 0 0 0
456 2 2.3500141813380742e+00 8.2737246069491022e+00 1.2834187574867975e+01 0 0 0
457 1 2.4169097471629559e+00 1.2209924358593813e+01 1.3505588745984046e+01 0 0 0
458 2 3.3340522026905921e+00 1.2095207795111026e+01 1.3790443166934425e+01 0 0 0
459 2 1.9255041025697088e+00 1.2441753105159103e+01 1.4287384450380996e+01 0 0 0
460 1 5.7186818115841520e+00 7.5121543431887821e+00 1.2469813799278576e+01 0 0 0
461 2 5.6400926859017808e+00 6.5003860760696446e+00 1.2473065702685453e+01 0 0 0
462 2 6.5720537317075518e+00 7.6418613978901675e+00 1.2046148926632865e+01 0 0 0
449 2 3.0945972008357807e+00 1.0631007506084753e+01 1.0515653963820531e+01 0 0 0
480 2 7.2886212706906122e+00 1.1119131829553485e+01 1.1477913002498617e+01 0 0 0
341 2 3.2669052642818226e+00 4.3487906751729692e+00 1.0889139185093535e+01 0 0 0
490 1 8.2035405761097859e+00 7.6986239331829083e+00 1.1731195718245560e+01 0 0 0
491 2 8.4067326282782791e+00 6.8693378215331373e+00 1.2198837646796539e+01 0 0 0
492 2 8.5787868366799334e+00 8.4118801980481859e+00 1.2284621880547956e+01 0 0 0
493 1 9.2384083854564043e+00 1.2058585831498217e+01 1.3389134917210935e+01 0 0 0
494 2 8.4649811620194040e+00 1.2268612564605863e+01 1.3997730460108707e+01 0 0 0
495 2 9.1494013713136919e+00 1.2721520228301376e+01 1.2693716949469721e+01 0 0 0
110 2 1.8348506698878437e+00 8.8105396475940001e+00 1.9606301897910846e+01 0 0 0
586 1 7.5658843877993007e+00 1.7273536760900082e+01 1.0574103563986110e+01 0 0 0
673 1 2.4144967924056435e+00 5.3819555161259309e+00 2.0510761636123071e+01 0 0 0
486 2 9.4111798492007956e+00 1.0975439365470336e+01 1.0503850211682778e+01 0 0 0
810 2 9.3326286391318565e+00 1.1125024299184998e+01 1.7541227821134409e+01 0 0 0
710 2 9.0545983645627448e+00 4.6986628971433317e+00 1.9662057954111294e+01 0 0 0
547 1 5.5586454879906704e+00 1.8143748085289374e+01 1.2275542313597574e+01 0 0 0
548 2 4.7353678042535545e+00 1.7839463596735843e+01 1.1822644044217629e+01 0 0 0
549 2 5.4808283035681473e+00 1.7539908178741069e+01 1.3092990260262789e+01 0 0 0
551 2 2.9520253685231646e-01 1.7493510461552400e+01 1.1487232290315951e+01 0 0 0
562 1 1.9390101488301237e+00 1.4350182961117268e+01 1.1882202278111766e+01 0 0 0
563 2 9.8937677834813420e-01 1.4413433987020214e+01 1.1705304011627481e+01 0 0 0
564 2 1.9951863840323922e+00 1.3609578585505677e+01 1.2570881715153057e+01 0 0 0
565 1 2.5286154451083260e+00 1.8676463987799572e+01 1.3724731413515148e+01 0 0 0
566 2 2.3648664587483608e+00 1.9324966731476689e+01 1.2982994280748226e+01 0 0 0
567 2 3.3205264382731134e+00 1.8928098005290998e+01 1.4218050546421299e+01 0 0 0
568 1 5.9658003207951120e+00 1.4114874481622669e+01 1.2382715796619287e+01 0 0 0
569 2 6.8620310741335775e+00 1.4237849258162781e+01 1.2051018655810033e+01 0 0 0
570 2 5.7231910854305905e+00 1.4888605696361722e+01 1.2939948958334840e+01 0 0 0
599 2 9.1751072706990691e+00 1.4245683765600949e+01 1.1033870037533356e+01 0 0 0
798 2 9.5067568698568277e+00 8.1754287110443649e+00 1.7438448411472041e+01 0 0 0
588 2 6.9662136541119049e+00 1.7467240219507417e+01 1.1390127510635397e+01 0 0 0
598 1 8.5902436220418856e+00 1.4138065431606359e+01 1.1822804778973824e+01 0 0 0
776 2 -6.5778244120418272e-02 1.2435718285230024e+01 1.5342035965675608e+01 1 0 0
600 2 8.7829382374977882e+00 1.4853997896830393e+01 1.2418674226140739e+01 0 0 0
601 1 8.7494739477522305e+00 1.8618326509761403e+01 1.3507452075846249e+01 0 0 0
603 2 8.0698486665352593e+00 1.8544140243308792e+01 1.4205494680289592e+01 0 0 0
371 2 8.5239023796480549e+00 4.2242379774727334e+00 1.0635917089994779e+01 0 0 0
334 1 1.6365302978458545e+00 4.0273443633221389e+00 1.0860560308395423e+01 0 0 0
649 1 2.7573262310810311e+00 2.7542813625781388e+00 1.3914138565525466e+01 0 0 0
650 2 3.5900412799456500e+00 2.5146452959300349e+00 1.4255216014842233e+01 0 0 0
651 2 2.2131159660755659e+00 2.7515951256284912e+00 1.4712676711783001e+01 0 0 0
652 1 4.0366120745405372e+00 1.3458467859721450e+00 1.7230590221293877e+01 0 0 0
653 2 3.8499685525484151e+00 2.2980329284733361e+00 1.7312661369912401e+01 0 0 0
654 2 4.7788680989468579e+00 1.1816675942462003e+00 1.7904964467448103e+01 0 0 0
655 1 5.7546081218967675e+00 4.8857491062087774e+00 1.9385248072458467e+01 0 0 0
656 2 5.6804496921485113e+00 5.7999282830807743e+00 1.9608897329645281e+01 0 0 0
657 2 6.6141354571632691e+00 4.8549266430735809e+00 1.8925922752276080e+01 0 0 0
658 1 9.1196849969651939e-01 4.5887009631418989e+00 1.7566195757783756e+01 0 0 0
659 2 9.5036785219730491e-01 3.7765010411893236e+00 1.7034001042700403e+01 0 0 0
660 2 6.4921329769826042e-01 5.2369950721770957e+00 1.6865278151342086e+01 0 0 0
661 1 4.4828749557795327e+00 5.7052310001842406e+00 1.5697233653973118e+01 0 0 0
662 2 4.3493624844483270e+00 4.9353963358469795e+00 1.6252964329709364e+01 0 0 0
663 2 3.9073248942579735e+00 5.6116952014236867e+00 1.4877401593229944e+01 0 0 0
664 1 3.7623558601881988e+00 4.0019510060682428e+00 1.7642847559078103e+01 0 0 0
665 2 2.9297507400135712e+00 4.5209281059500617e+00 1.7819070518407013e+01 0 0 0
666 2 4.1690615534399456e+00 4.0642775686673271e+00 1.8523624901082950e+01 0 0 0
667 1 3.7688300611887493e-01 6.2997411621377459e+00 1.5658918479247745e+01 0 0 0
668 2 1.9004643288902676e-01 7.2388855434179620e+00 1.5853105284526515e+01 0 0 0
669 2 1.0075026766746058e+00 6.2090484141942373e+00 1.4933660749718674e+01 0 0 0
670 1 2.0800370661023910e+00 7.9620587407067533e-01 1.8822481077255695e+01 0 0 0
671 2 2.5652446427643381e+00 1.4093783350327889e+00 1.9528161319114488e+01 0 0 0
672 2 2.7362561397286544e+00 9.7201364111056721e-01 1.8114939226706273e+01 0 0 0
676 1 5.8418182435834067e+00 5.7369412768669370e-01 1.8908304524497598e+01 0 0 0
677 2 5.6344066891832822e+00 1.2302122174459222e+00 1.9635866344358025e+01 0 0 0
678 2 6.7500609855603786e+00 8.0104073718384461e-01 1.8717364144890208e+01 0 0 0
679 1 8.2267990229743115e-01 2.3640309701561262e+00 1.5895527949272065e+01 0 0 0
587 2 8.5940240194009423e+00 1.7373884129829044e+01 1.0810479564836307e+01 0 0 0
681 2 8.0573703301476041e-01 1.3932881037918621e+00 1.6112244858195652e+01 0 0 0
682 1 5.4416889494887384e+00 2.4771449030017867e+00 1.4707375921720317e+01 0 0 0
683 2 5.4717630632765859e+00 3.4299745122397765e+00 1.4552331711309332e+01 0 0 0
684 2 5.6557778879608502e+00 2.0860353017937059e+00 1.3794346984605825e+01 0 0 0
685 1 9.2991776675790803e+00 3.3595974503584332e+00 1.4053601078140620e+01 0 0 0
687 2 9.1850502234818752e+00 2.8596749786593856e+00 1.3229151015917157e+01 0 0 0
694 1 7.7246555827400849e+00 4.4012667055360124e+00 1.7568003154459021e+01 0 0 0
695 2 8.6920185184032182e+00 4.4718436750159904e+00 1.7430159123698683e+01 0 0 0
696 2 7.5302450511536669e+00 3.4984850460691628e+00 1.7340146079840093e+01 0 0 0
703 1 7.0702390709178777e+00 6.1011384509206170e+00 1.5511838735454468e+01 0 0 0
704 2 7.0862584641725723e+00 5.4819813911298265e+00 1.6300972068121112e+01 0 0 0
705 2 6.1333734649123048e+00 6.0204223312874054e+00 1.5290093033702428e+01 0 0 0
706 1 8.3895874654176570e+00 1.0945772150132738e+00 1.8976732996701667e+01 0 0 0
39 2 8.9900090482100996e+00 2.1217951849334349e+00 2.0088090338225573e+01 0 0 0
708 2 8.8194123905646471e+00 2.8800002396858893e-01 1.9347158486019250e+01 0 0 0
715 1 7.6685490373719523e+00 2.1556372836359650e+00 1.6277042956559427e+01 0 0 0
716 2 6.8348517859186604e+00 2.5245312640942172e+00 1.5886260248154828e+01 0 0 0
717 2 8.3485409552514156e+00 2.4950500828017947e+00 1.5638597929000474e+01 0 0 0