LAMMPS data file via write_data, version 15 Apr 2020, timestep = 1150000

1920 atoms
2 atom types

5.4951333042698280e-02 2.4669453666956649e+01 xlo xhi
3.9985293432938107e-02 2.4684419706561066e+01 ylo yhi
3.4690413478790205e-02 2.2757681586521223e+01 zlo zhi
-9.9842179816914591e-03 -1.8002930020164790e-02 -2.0854149455334761e-01 xy xz yz

Masses

1 16
2 2

Atoms # atomic

1 1 4.5579919378943528e+00 1.9437527208316343e+00 4.1216995345531542e+00 0 0 0
2 2 5.3008028488403633e+00 1.9617136444135101e+00 3.4436275859293115e+00 0 0 0
3 2 4.6725946148077346e+00 1.1615356894370215e+00 4.6681658981289038e+00 0 0 0
4 1 2.9935548896971715e+00 1.7086541116108322e+00 2.1016252573820031e+00 0 0 0
1135 1 1.1003624088470742e+01 1.1816217953191439e+01 1.1907517948784152e+01 0 0 0
6 2 3.2569763050562472e+00 1.7575827135733677e+00 3.0207084230159298e+00 0 0 0
7 1 5.9243522102866253e+00 4.5160903612507051e+00 3.4166217062268789e+00 0 0 0
8 2 4.9388427252999856e+00 4.5015088138701502e+00 3.4968682378232656e+00 0 0 0
9 2 6.3305501198097822e+00 3.8543615457780875e+00 3.9313404321183247e+00 0 0 0
10 1 3.3238802833155976e+00 4.6260775150933791e+00 3.5790293256127756e+00 0 0 0
11 2 2.9407906455797801e+00 3.8674172681673302e+00 4.1029525201171699e+00 0 0 0
12 2 2.8972394996173403e+00 5.4673510709502162e+00 3.7958294459518904e+00 0 0 0
13 1 1.7461775793332419e+00 2.8407416781821913e+00 4.9009211691323191e+00 0 0 0
14 2 1.6769645176121266e+00 1.8377695319848120e+00 4.9677487030825231e+00 0 0 0
15 2 1.6198948678050347e+00 3.1269144228288472e+00 5.8743257794934873e+00 0 0 0
1739 2 6.9999377778968332e+00 1.1804735494128579e+01 2.1826037785211305e+01 0 0 0
17 2 1.1306675836643396e+00 1.8182829869221606e+00 2.0674118547570730e+00 0 0 0
19 1 4.6856231676996316e+00 3.3850834174733815e+00 6.6885426518161861e-01 0 0 0
20 2 3.8414962273718971e+00 2.9411842612597412e+00 1.0104009997101397e+00 0 0 0
21 2 4.5704611194484670e+00 4.3258744911082774e+00 6.9854072231687880e-01 0 0 0
22 1 1.5373141067316531e+00 4.9006346218763488e+00 1.4320161769682580e+00 0 0 0
23 2 2.4332293944862515e+00 4.8985094424445021e+00 1.8394850707039401e+00 0 0 0
24 2 1.4492437443021742e+00 4.1168678932853178e+00 8.9725521257360097e-01 0 0 0
25 1 4.0569019145607328e+00 5.9599249696721888e+00 7.5242630669213484e-01 0 0 0
26 2 3.8169263296731359e+00 6.5955638724144050e+00 1.4770475502672760e+00 0 0 0
27 2 4.1957417949617799e+00 6.3768132908893165e+00 2.2727893413581896e+01 0 0 0
538 1 7.8750891141308257e+00 1.4739175799028686e-01 1.0734623286746301e+01 0 0 0
31 1 1.0716545036099957e+01 1.5033609459327351e+00 4.1166348460971314e+00 0 0 0
32 2 1.0662279372368658e+01 2.3114180954966583e+00 4.6360914869020524e+00 0 0 0
1156 1 1.2177299032375739e+01 7.4523030678078408e+00 1.3525444928222502e+01 0 0 0
34 1 9.0074958390615851e+00 1.6254355584331537e+00 2.0814052768377231e+00 0 0 0
496 1 2.0499040384996567e-01 1.5195609377468371e+00 7.7952656843802606e+00 0 0 0
36 2 9.6588484176695548e+00 2.2907860160617797e+00 1.7634655151091760e+00 0 0 0
699 2 2.9247805105445401e-01 1.1671700462705193e+01 9.7707149025573194e+00 0 0 0
39 2 1.1362047389355542e+01 4.3384513382805752e+00 3.8276672910203664e+00 0 0 0
40 1 9.5178746047589495e+00 4.6613661888763191e+00 3.6147379420548216e+00 0 0 0
41 2 8.9580537173121773e+00 4.7019095142656697e+00 2.7678858296166027e+00 0 0 0
42 2 9.0523102641051558e+00 3.9706104472710506e+00 4.0849739072611158e+00 0 0 0
43 1 7.7431459457372149e+00 2.9753644443703124e+00 4.8461612182654115e+00 0 0 0
44 2 7.4484877776533365e+00 3.2538505328640079e+00 5.7369365615824259e+00 0 0 0
45 2 7.6659892925099555e+00 2.0018049059414729e+00 4.7424999558077214e+00 0 0 0
46 1 6.4010063184241011e+00 1.6518900596428339e+00 2.1167973207541300e+00 0 0 0
47 2 7.4198581141900570e+00 1.6471447034962461e+00 2.0454360997946450e+00 0 0 0
48 2 6.0071923322755696e+00 2.2704932588386413e+00 1.5229497602390643e+00 0 0 0
49 1 1.0931302630649114e+01 3.0568118994460818e+00 9.0652010654330439e-01 0 0 0
50 2 1.1639171299274654e+01 2.4978574655302430e+00 1.3664227812998877e+00 0 0 0
51 2 1.0691401339652078e+01 2.5425086871543585e+00 2.2718475747871807e+01 0 0 0
52 1 7.8622724956525856e+00 4.7382571380393355e+00 1.6037507024372264e+00 0 0 0
53 2 7.8087256589543346e+00 4.0320363735326419e+00 9.3359709105955879e-01 0 0 0
54 2 7.0743364008794130e+00 4.6508322306899368e+00 2.2724834449646041e+00 0 0 0
55 1 1.1000905974438753e+01 5.7754689883745600e+00 6.1621969831645296e-01 0 0 0
56 2 1.0260357244424840e+01 6.1304396825743295e+00 1.0849165882208747e+00 0 0 0
57 2 1.1017846155577631e+01 4.7914887467989988e+00 6.4028666409439894e-01 0 0 0
579 2 4.6242125995371569e-01 4.6302365440762498e+00 8.3943225001094195e+00 0 0 0
614 2 5.5851312690859056e-01 9.6258058076362545e+00 1.0445919398596070e+01 0 0 0
1608 2 7.3696761865551990e+00 7.0947686246606052e+00 1.9307068018261383e+01 0 0 0
531 2 1.0448400738196824e+01 4.4567355738812129e+00 6.1277443363402719e+00 0 0 0
121 1 4.5808871006130376e+00 7.5303384670137525e+00 4.3988509859035636e+00 0 0 0
122 2 5.3531767996935828e+00 7.5122670948233194e+00 3.8339675055792659e+00 0 0 0
123 2 3.8486327856069691e+00 7.7140305390592800e+00 3.7481909442528916e+00 0 0 0
124 1 2.9315306043986507e+00 7.8383478443614329e+00 2.4395358518845365e+00 0 0 0
125 2 3.2816990815746121e+00 8.5372318614083653e+00 1.8538507390341301e+00 0 0 0
126 2 1.9785162055109007e+00 7.8460698619876936e+00 2.1843851986119756e+00 0 0 0
127 1 5.8466486542973310e+00 1.0548842797083699e+01 3.6747172893786568e+00 0 0 0
128 2 6.1491675889396085e+00 9.7314249234651680e+00 4.1378703204360407e+00 0 0 0
129 2 4.8835901369216987e+00 1.0648083773263409e+01 3.6342718831032763e+00 0 0 0
130 1 3.1671283255559550e+00 1.0903697387447169e+01 3.7098641619610984e+00 0 0 0
131 2 2.8667585030745641e+00 1.0180097578001959e+01 4.2679319175596513e+00 0 0 0
132 2 2.7826612944675344e+00 1.0825983932004506e+01 2.8170447642784993e+00 0 0 0
133 1 1.7034091435586691e+00 9.1830423391552678e+00 5.1456110124287893e+00 0 0 0
134 2 1.8312316360801206e+00 9.7018304336093628e+00 6.0608565802108609e+00 0 0 0
135 2 1.0122245586735614e+00 9.6880360064060405e+00 4.6557772094088463e+00 0 0 0
1117 1 1.2124139898067060e+01 1.0590249909922665e+01 1.5153795937587569e+01 0 0 0
139 1 4.4864905009349245e+00 9.2747383029018096e+00 7.7478803235077964e-01 0 0 0
140 2 4.5251279705473380e+00 1.0232565056927367e+01 5.9672004177949378e-01 0 0 0
141 2 5.3012372458373624e+00 9.1319357320066121e+00 1.3581918337746517e+00 0 0 0
142 1 1.6428225339896263e+00 1.0763346197329199e+01 1.4237893798518897e+00 0 0 0
143 2 1.4065836597157990e+00 1.0163477772491230e+01 6.2182936099111985e-01 0 0 0
144 2 1.6400368130596004e+00 1.1697582496022942e+01 9.9229928461207029e-01 0 0 0
518 2 1.2235644130862685e+01 4.4813678034645452e+00 8.3367482681642535e+00 0 0 0
148 1 1.5540870218177547e+00 6.3633997060340759e+00 5.2777974410714794e+00 0 0 0
897 2 1.1197142057869087e+01 3.8521530180249342e-01 6.8741700491000595e+00 0 0 0
150 2 1.4574918003156501e+00 7.3387005694314320e+00 5.2253595372676420e+00 0 0 0
151 1 1.0429213218165975e+01 8.0520817218264007e+00 4.3427480217361989e+00 0 0 0
28 1 1.6621053641946024e+00 4.9465116257414184e-02 4.7515595522322114e+00 0 0 0
153 2 1.0742730219561077e+01 8.6983040905727211e+00 4.9797294568395918e+00 0 0 0
154 1 9.1117971561369107e+00 7.4381697152936548e+00 2.0191859763795339e+00 0 0 0
155 2 9.3847021904323764e+00 8.2895281833891818e+00 1.6519342549094520e+00 0 0 0
156 2 9.3955262344432438e+00 7.3707428796656904e+00 2.9601668852585803e+00 0 0 0
99 2 3.9763205801664220e-01 3.8713342503696948e+00 4.1307639829062586e+00 0 0 0
158 2 1.1302820250391358e+01 1.1091443964611383e+01 3.7449459768091669e+00 0 0 0
160 1 9.5772011355030724e+00 1.0760531559908975e+01 3.7429340161081361e+00 0 0 0
161 2 8.9775785695120369e+00 1.0782637685351427e+01 2.9438239778492044e+00 0 0 0
1458 2 5.1445578590193421e-02 1.9732480696000141e+00 1.8503121262947573e+01 1 0 0
163 1 7.6425033866087331e+00 8.9611042102178491e+00 5.0572906018205783e+00 0 0 0
164 2 7.6267721800953403e+00 8.0048855604938147e+00 5.0820333274718301e+00 0 0 0
165 2 8.4965546784332755e+00 9.0941285539304104e+00 4.5329354143492653e+00 0 0 0
166 1 6.2118358954859971e+00 7.4066535530258015e+00 1.9900403950548764e+00 0 0 0
167 2 5.7835005288027936e+00 6.8561269416091504e+00 1.2987171259819579e+00 0 0 0
168 2 7.1492063675062063e+00 7.2868952013156623e+00 1.9534317999358919e+00 0 0 0
169 1 1.0828567886769088e+01 9.3773927255693188e+00 7.9526103247954172e-01 0 0 0
170 2 1.0587539696989701e+01 1.0307388559629846e+01 7.9730287949277023e-01 0 0 0
171 2 1.0890468227536154e+01 8.9623489260879161e+00 2.2522494403567798e+01 0 0 0
172 1 7.8352678267727418e+00 1.0833222925753688e+01 1.8386754879316707e+00 0 0 0
173 2 6.8979354393082373e+00 1.0725717716010813e+01 2.2667955859703977e+00 0 0 0
174 2 7.8723971174122136e+00 1.0160717586429916e+01 1.1046610198809013e+00 0 0 0
1658 2 5.6470977661887434e-01 1.0760665879141268e+01 1.9857350258664333e+01 0 0 0
178 1 7.4324065147354670e+00 6.2218314757165878e+00 4.8788527001284638e+00 0 0 0
179 2 6.6077234368525630e+00 5.7588395955199818e+00 4.3800499649708513e+00 0 0 0
180 2 8.1339716319796036e+00 5.7712393279974377e+00 4.3760245182805173e+00 0 0 0
556 1 1.2212484585667800e+01 1.6808329067639227e+00 7.3659486363788131e+00 0 0 0
750 2 2.4304814041581517e+00 1.2259718953486363e+01 1.0357516543699870e+01 0 0 0
1468 1 1.8637494527057810e+00 2.6489252960175275e-01 2.2026479153267019e+01 0 0 0
1589 2 9.2968573998753123e-01 5.8030035147140637e+00 2.1424261854822213e+01 0 0 0
1619 2 7.8732422741045678e+00 6.1459412625344729e+00 1.6064130526118456e-01 0 0 1
495 2 1.1560115849239980e+00 3.6776865152094382e+00 1.0075344387476614e+01 0 0 0
1618 1 8.0695864882851343e+00 6.1407267251031961e+00 2.1950840651343604e+01 0 0 0
637 1 1.2077083412795137e+01 1.0746752327107766e+01 9.3764869982535703e+00 0 0 0
1585 1 4.6329739926440539e+00 1.1933741918315073e+01 1.8075247821450468e+01 0 0 0
481 1 4.7217610376252157e+00 1.4126249921832341e+00 9.8765102085600738e+00 0 0 0
482 2 4.8890447837228699e+00 6.8670877900756699e-01 1.0432425736804511e+01 0 0 0
483 2 5.5974501656245419e+00 1.4613807853630543e+00 9.4067656680537670e+00 0 0 0
484 1 2.8992499840399852e+00 1.3200328565680193e+00 7.8214524218420323e+00 0 0 0
485 2 3.2918076412750228e+00 1.3637009344693385e+00 8.7035042979965347e+00 0 0 0
486 2 1.9310258590223532e+00 1.4276523745942746e+00 7.9576696526484643e+00 0 0 0
487 1 6.0693638792158877e+00 4.6986612130666243e+00 9.5055422909553169e+00 0 0 0
488 2 5.0463985786204262e+00 4.7271925609782750e+00 9.2756766579259242e+00 0 0 0
489 2 6.2329914922980141e+00 3.8156353512937078e+00 9.8160884056127138e+00 0 0 0
490 1 3.4682490488650561e+00 4.4915099287416025e+00 8.8962838922052399e+00 0 0 0
491 2 3.0864031655375617e+00 3.7361069997924381e+00 9.5033122480406167e+00 0 0 0
492 2 2.9808403336842622e+00 5.2842228443393431e+00 9.3519669580820786e+00 0 0 0
493 1 1.7857637718667287e+00 3.0133240884196359e+00 1.0439856245226125e+01 0 0 0
494 2 1.8100571202331981e+00 3.3542653585193625e+00 1.1379221552858244e+01 0 0 0
1605 2 7.0569583666689635e+00 9.2869766495419928e+00 2.1753107221251085e+01 0 0 0
1613 2 7.9298616680741674e+00 1.1146696000137609e+01 1.7990255926847524e+01 0 0 0
499 1 4.4019725386310293e+00 3.2956986300210471e+00 6.5221115760031552e+00 0 0 0
500 2 3.7741882584980617e+00 2.6797326880063839e+00 6.8103578540386325e+00 0 0 0
501 2 4.4736707974221535e+00 2.9298316719336510e+00 5.6253061886810070e+00 0 0 0
502 1 1.6050910580007813e+00 4.3293369027748332e+00 7.1497794525944016e+00 0 0 0
503 2 2.4892423044932084e+00 4.4525163676695660e+00 7.5916264061075029e+00 0 0 0
504 2 1.4765043776022404e+00 5.1146392063306454e+00 6.6083489400433963e+00 0 0 0
505 1 4.7683632401320599e+00 6.1293234865393407e+00 6.7929853541732621e+00 0 0 0
506 2 4.4933089504660435e+00 5.2030868619429302e+00 6.5405674843026542e+00 0 0 0
507 2 4.9185531860105298e+00 6.4417038334407346e+00 5.8750574587249798e+00 0 0 0
5 2 3.5636070562280575e+00 1.0407021281634095e+00 1.7601810499911392e+00 0 0 0
509 2 1.6203837623660322e+00 1.2774933128671009e+00 1.0540084111255032e+01 0 0 0
511 1 1.0833728035700350e+01 1.4944897490801143e+00 9.6690571264465532e+00 0 0 0
512 2 1.0965347201085768e+01 6.4194975226131579e-01 1.0166246333845887e+01 0 0 0
513 2 9.9647777415808481e+00 1.3156066465130198e+00 9.3014902052579664e+00 0 0 0
514 1 8.9107677152049831e+00 1.8673453748575248e+00 7.8221204102923938e+00 0 0 0
515 2 7.9409595693964272e+00 1.8206383187411750e+00 8.0111497305901569e+00 0 0 0
1571 2 3.1038735538547093e+00 1.1385558288147145e+01 2.1333267216638028e+01 0 0 0
988 1 1.8900556718196808e+00 1.4371566411231079e-01 1.6554036924302686e+01 0 0 0
520 1 9.3575538576036497e+00 4.5032229063082125e+00 9.4124695843370141e+00 0 0 0
521 2 1.0252306722799982e+01 4.0867873375145169e+00 9.3396125332020219e+00 0 0 0
522 2 8.9829149885554020e+00 4.4698887275647206e+00 8.5165479919028151e+00 0 0 0
523 1 7.6391400060839718e+00 2.7603229660465138e+00 1.0638307483919535e+01 0 0 0
524 2 7.7980861510537807e+00 1.8022760202904897e+00 1.0811683516686356e+01 0 0 0
525 2 8.3185696468288235e+00 3.1443394812874152e+00 1.0032993647548993e+01 0 0 0
526 1 6.2537899827697645e+00 1.7987124901464331e+00 7.7188845301514322e+00 0 0 0
527 2 5.7515499126755225e+00 2.6219848306921181e+00 7.6030256846721906e+00 0 0 0
517 1 1.1999311390912327e+01 4.3605613262936460e+00 9.2519825647039138e+00 0 0 0
529 1 1.0573661939151382e+01 3.4664749356484013e+00 6.1410652329196012e+00 0 0 0
530 2 9.8477157989308584e+00 3.0333456837138986e+00 6.6835813729216031e+00 0 0 0
300 2 7.0115289701987518e+00 1.1515206928606879e+01 4.4139847245099411e+00 0 0 0
532 1 7.6643196022155768e+00 4.6014615979313236e+00 7.1784645988016180e+00 0 0 0
533 2 7.7512858251149606e+00 5.1906081928207168e+00 6.4198922198781680e+00 0 0 0
534 2 6.9472185000222400e+00 4.9154426347712024e+00 7.7924842966644698e+00 0 0 0
535 1 1.0607571549175782e+01 5.9394458739765632e+00 6.4198905645725350e+00 0 0 0
536 2 9.9745801476523948e+00 6.5169726817004170e+00 6.8429606196940300e+00 0 0 0
537 2 1.0752756332455448e+01 6.2185764679854154e+00 5.4914259137033588e+00 0 0 0
1607 2 6.0775224121110165e+00 7.3102712370727145e+00 2.0058775768602175e+01 0 0 0
678 2 1.1844500659618710e+01 6.8016839319195883e+00 7.2536667005334783e+00 0 0 0
1472 2 1.1341445371137151e+01 1.1508278689281346e+00 2.0466424716930298e+01 0 0 0
417 2 1.0110389292569829e+01 2.2955944837669257e-01 9.3584234297077484e-01 0 0 0
1612 1 7.7189954390100333e+00 1.0485968812952189e+01 1.8709491333786296e+01 0 0 0
601 1 4.9764965695548264e+00 7.4242992257661662e+00 1.0388520393109392e+01 0 0 0
602 2 5.4833281334502679e+00 7.4789036332439274e+00 9.5694169698147622e+00 0 0 0
603 2 4.7915510864039144e+00 8.3219091082719050e+00 1.0724502434196912e+01 0 0 0
604 1 2.9978553138625963e+00 7.4647424582390931e+00 8.1952529510249708e+00 0 0 0
605 2 3.2475082884745583e+00 7.5784476701437660e+00 9.1309956128532228e+00 0 0 0
606 2 3.6446429462974947e+00 6.7863760958883308e+00 7.8865193939994063e+00 0 0 0
607 1 5.8575600673911712e+00 1.0580772774844197e+01 9.2571217590142023e+00 0 0 0
608 2 6.3774776876526733e+00 1.0726775472525079e+01 8.4535684895382097e+00 0 0 0
609 2 6.5146602380874352e+00 9.9679961310784186e+00 9.7640401638795851e+00 0 0 0
610 1 3.2895954692186589e+00 1.0587937256998792e+01 9.4227797888622611e+00 0 0 0
611 2 3.0010687692875551e+00 1.0792734329004091e+01 8.5043352326572492e+00 0 0 0
612 2 4.2913833011962188e+00 1.0622907983844597e+01 9.3803089999632796e+00 0 0 0
613 1 1.3318327376781902e+00 9.1816871762815566e+00 1.0591690052379102e+01 0 0 0
1464 2 8.7115607403572259e-01 4.1802401655287866e+00 1.9062657900687135e+01 0 0 0
615 2 2.0913036636737430e+00 9.7358075258225565e+00 1.0207711290061937e+01 0 0 0
677 2 1.2097889167701284e+01 8.2340470204513156e+00 7.2447537984756254e+00 0 0 0
618 2 1.2576203047283721e+00 7.6271986259840290e+00 8.0330030550823679e+00 0 0 0
619 1 4.5702268933343975e+00 9.1363904351361516e+00 6.5014789296618734e+00 0 0 0
620 2 4.3730107390024271e+00 8.6212756906406458e+00 5.6810687221107585e+00 0 0 0
621 2 3.9362791719508556e+00 8.7504312219190492e+00 7.1109646660259926e+00 0 0 0
622 1 1.7711008524597114e+00 1.0803297185634033e+01 7.1452964609330145e+00 0 0 0
623 2 9.6988271539967374e-01 1.0809151374472973e+01 7.6064219060440870e+00 0 0 0
624 2 1.7148526016103558e+00 1.1627762494266506e+01 6.5268813835075443e+00 0 0 0
1856 2 1.0164791891452705e+01 1.7122059731337311e-01 1.7996357222943011e+01 0 0 0
626 2 4.5806334714739583e+00 1.1011312493032353e+01 6.1248399225420229e+00 0 0 0
628 1 1.9188911062639347e+00 6.3312949744411240e+00 1.0476573129003235e+01 0 0 0
629 2 1.9961631926356724e+00 5.9041356236827474e+00 1.1326830205912229e+01 0 0 0
630 2 1.6197757991853170e+00 7.2461446104742864e+00 1.0572762369739793e+01 0 0 0
631 1 1.1147682434702817e+01 7.4286934657481565e+00 9.9586538485873923e+00 0 0 0
632 2 1.1094135960785016e+01 6.6081098984378421e+00 1.0548459860267149e+01 0 0 0
633 2 1.1785118261184056e+01 7.3818332741361994e+00 9.2257281573642249e+00 0 0 0
634 1 9.1582122837186528e+00 7.5970430912099012e+00 7.8401160345878189e+00 0 0 0
635 2 9.6861367842084469e+00 7.5446561114376287e+00 8.6408436715193933e+00 0 0 0
636 2 8.2216648505667038e+00 7.7508769823920192e+00 8.1836848659128272e+00 0 0 0
654 2 7.5823612010520334e+00 1.1364051543711652e+01 6.4580733370065913e+00 0 0 0
639 2 1.1072014294517952e+01 1.0660280681225135e+01 9.3179358246906485e+00 0 0 0
640 1 9.3309419624593648e+00 1.0814065381558603e+01 9.2727421251445978e+00 0 0 0
641 2 8.7850729833970274e+00 1.0633995210854836e+01 8.4652819287633783e+00 0 0 0
642 2 9.0884404483565859e+00 1.0156666778364885e+01 9.9172105266034389e+00 0 0 0
643 1 7.4437178345618866e+00 9.1649007353614245e+00 1.0953366207610351e+01 0 0 0
644 2 7.6133738783267226e+00 8.2113175743896338e+00 1.0903038565247021e+01 0 0 0
645 2 7.6496710716046818e+00 9.4905620724042521e+00 1.1933686217849482e+01 0 0 0
646 1 6.4994374995842961e+00 7.6121779476998821e+00 8.1522067915606105e+00 0 0 0
647 2 6.2615852961736662e+00 6.8299416082814703e+00 7.6854996639308650e+00 0 0 0
648 2 5.9942284207915231e+00 8.2777427537946853e+00 7.6919902982045993e+00 0 0 0
649 1 1.0739959700580547e+01 9.4647403944080644e+00 6.4383293442391496e+00 0 0 0
650 2 1.0797478938047584e+01 1.0488434541371976e+01 6.4248060146879320e+00 0 0 0
651 2 1.0055621324999020e+01 9.0994152653841063e+00 6.9915091574625770e+00 0 0 0
652 1 7.7759199080929164e+00 1.0696223952146322e+01 7.1589965324575529e+00 0 0 0
653 2 7.5859419359583340e+00 9.8885499943206359e+00 6.5447137857241158e+00 0 0 0
1376 2 1.1651829238936379e+01 6.3856020436926050e-02 1.2209198985978301e+01 0 0 0
1089 2 5.0704400110147212e+00 1.0429483340257322e+01 1.4962987198858503e+01 0 0 0
658 1 7.9948656347144240e+00 6.3696493693836898e+00 1.0792404389609628e+01 0 0 0
659 2 7.3279560104709596e+00 5.8573550155493521e+00 1.0276136103459132e+01 0 0 0
660 2 8.8407176319096958e+00 5.9380640823110147e+00 1.0669658059171674e+01 0 0 0
1610 2 1.0246667657264240e+01 9.3186243608958996e+00 1.6898588511408832e+01 0 0 0
1604 2 8.6309865251343076e+00 9.3677786216857601e+00 2.1607181392445590e+01 0 0 0
1657 1 7.1146752451324291e-02 1.0678935776965988e+01 2.0711685548548267e+01 1 0 0
1855 1 1.0877795013918075e+01 -9.2974951418229534e-02 1.7445958933498900e+01 0 1 0
1614 2 8.6633086000431909e+00 1.0414602615498145e+01 1.9136688112129931e+01 0 0 0
1611 2 1.1436262112189583e+01 8.8856289277682503e+00 1.7804064130917546e+01 0 0 0
37 1 1.2337676347027749e+01 4.4744506886392239e+00 3.6979480503111559e+00 0 0 0
1616 2 1.0818451200146381e+01 1.1061181570207475e+01 1.7692826132451884e+01 0 0 0
1133 2 7.5409306329023940e+00 1.1175593536014460e+01 1.2474626032218564e+01 0 0 0
1827 2 4.0195584138018114e+00 9.8710013320494200e-02 1.8371902969666230e+01 0 0 0
961 1 4.6927808018481016e+00 1.3514447652402506e+00 1.5720199074813866e+01 0 0 0
962 2 4.5280866916064424e+00 2.0728834327726893e+00 1.6357638049253559e+01 0 0 0
1259 2 8.5964999649366476e+00 1.1866967304157690e+01 1.6159830639094736e+01 0 0 0
964 1 3.0745142764028395e+00 1.2098911834467083e+00 1.3633104264809019e+01 0 0 0
965 2 3.6077629063542598e+00 1.2866617500939439e+00 1.4440658425811874e+01 0 0 0
966 2 3.4596712870268109e+00 1.9631102804188247e+00 1.3108548675830162e+01 0 0 0
967 1 6.1188935301398875e+00 4.5532974081189170e+00 1.5067776125518307e+01 0 0 0
968 2 6.5119723826996951e+00 5.3574873690012534e+00 1.5503683098933953e+01 0 0 0
969 2 6.4909044101706241e+00 4.5060057505954738e+00 1.4176090860600157e+01 0 0 0
970 1 3.3381923048727908e+00 4.6559366032329050e+00 1.4877779842955084e+01 0 0 0
971 2 4.3552787633011913e+00 4.6694753494581773e+00 1.4854082682884572e+01 0 0 0
972 2 3.0328941545872015e+00 5.3021621358288966e+00 1.5486746385317549e+01 0 0 0
973 1 1.8312071090854876e+00 2.7325064013617393e+00 1.6094050439575447e+01 0 0 0
974 2 2.3402223254128529e+00 3.3894239296121760e+00 1.5614042641644568e+01 0 0 0
975 2 1.6434339446455808e+00 3.2476927567305149e+00 1.6901331717346544e+01 0 0 0
1136 2 1.0312372302878932e+01 1.2200794170986967e+01 1.2542169266768255e+01 0 0 0
977 2 1.3262084816515349e+00 1.3256110115731281e+00 1.3400360485297291e+01 0 0 0
979 1 4.5347648836862398e+00 3.0283160068795651e+00 1.2170841570170474e+01 0 0 0
980 2 4.2873383307915658e+00 2.5529190238523642e+00 1.1370610271319492e+01 0 0 0
981 2 5.2560044002727002e+00 2.5103946234902264e+00 1.2612412144551886e+01 0 0 0
982 1 1.7701575125254430e+00 4.4311290654498343e+00 1.2830743202787705e+01 0 0 0
983 2 2.4017806263253623e+00 4.6095036087892396e+00 1.3594853161758149e+01 0 0 0
984 2 9.8982549105710405e-01 4.2405642461742943e+00 1.3385448931029062e+01 0 0 0
985 1 4.6486821744195836e+00 5.7390899523657497e+00 1.2367144091048846e+01 0 0 0
986 2 4.7872188043735839e+00 6.0392561309674742e+00 1.1430545448933133e+01 0 0 0
987 2 4.5811571619872549e+00 4.7219116272873931e+00 1.2282115430677665e+01 0 0 0
1229 2 1.6956545969240600e+00 1.1940439348150283e+01 1.7316600188770629e+01 0 0 0
989 2 2.1049621077844667e+00 1.0557797890115563e+00 1.6168671496146331e+01 0 0 0
991 1 1.0608117489959950e+01 1.6770988887992231e+00 1.5426372185347370e+01 0 0 0
992 2 1.0634905480109055e+01 8.8942221719217451e-01 1.5984961444059866e+01 0 0 0
993 2 9.8848308955186965e+00 1.7019005518741559e+00 1.4764211814923000e+01 0 0 0
994 1 9.1113248351173919e+00 1.6525680482032910e+00 1.3179727055500599e+01 0 0 0
995 2 9.4098420176020969e+00 8.1981508663150982e-01 1.2747106374382223e+01 0 0 0
996 2 9.6885730079425780e+00 2.3126118209245643e+00 1.2738735431654948e+01 0 0 0
1602 2 9.2091908368169157e+00 1.1193265292185625e+01 2.1163683779550013e+01 0 0 0
998 2 1.1159623699701619e+01 4.2486658267173283e+00 1.5042524196264154e+01 0 0 0
1000 1 9.3225907542667521e+00 4.4814963356458808e+00 1.4964402439090707e+01 0 0 0
1001 2 9.0574494129324048e+00 3.6409153131389349e+00 1.5457274230523327e+01 0 0 0
1002 2 8.6543987871042773e+00 4.4815924252722805e+00 1.4249899874008388e+01 0 0 0
1003 1 7.5286143666022740e+00 2.7491496126366211e+00 1.6230358953521680e+01 0 0 0
1004 2 7.0010987915137379e+00 3.4597079804782869e+00 1.5830074284387061e+01 0 0 0
1005 2 7.4132181744279890e+00 2.8704595367353671e+00 1.7177165380360904e+01 0 0 0
1006 1 6.3892961661283492e+00 1.5266937343029250e+00 1.3474391958011868e+01 0 0 0
1007 2 6.0298539208943041e+00 1.6148443538147663e+00 1.4385318960961557e+01 0 0 0
1008 2 7.3358420581305070e+00 1.5891157202841237e+00 1.3460020475356631e+01 0 0 0
1009 1 1.0998906558414273e+01 3.1009916745518056e+00 1.1762375484945943e+01 0 0 0
1010 2 1.1589559343633494e+01 2.5652894521600476e+00 1.2311844707745557e+01 0 0 0
1011 2 1.0775482513088525e+01 2.5091907258482511e+00 1.0937203030633984e+01 0 0 0
1012 1 7.5801527559331454e+00 4.5208158599225206e+00 1.2761055761968596e+01 0 0 0
1013 2 7.4967484218276565e+00 3.7599513582503308e+00 1.2116382856494052e+01 0 0 0
1014 2 7.6995404676407455e+00 5.2566728085605341e+00 1.2115065807821045e+01 0 0 0
1015 1 1.0583060910920636e+01 5.6419843658282618e+00 1.2011693155654589e+01 0 0 0
1016 2 1.0708966037012715e+01 4.6941490935895436e+00 1.2043978302975031e+01 0 0 0
1017 2 1.1225358551145003e+01 6.1219508633895376e+00 1.2584770708161763e+01 0 0 0
35 2 9.4385909671849184e+00 1.4062713245050806e+00 2.9973478380652772e+00 0 0 0
1019 2 7.6336420916329804e+00 9.9102118137024331e-01 1.6329216387625280e+01 0 0 0
1109 2 1.0215069785486712e+00 5.8646846155403241e+00 1.5605518096267144e+01 0 0 0
1740 2 7.9311982772333725e+00 1.2249075856534589e+01 3.1933265718138976e-01 0 0 0
1081 1 4.4400803985220794e+00 7.7573713907776654e+00 1.5566400767001813e+01 0 0 0
1082 2 5.2568045465881728e+00 7.7806907729682271e+00 1.5008766117032504e+01 0 0 0
1083 2 4.4905030085104194e+00 6.9031739759766859e+00 1.6026812664926716e+01 0 0 0
1084 1 2.7659949618039317e+00 7.4824479665634325e+00 1.3261295817117231e+01 0 0 0
1085 2 2.9827650432762791e+00 7.5317504301520568e+00 1.4181423636302558e+01 0 0 0
1086 2 3.2743873946848256e+00 6.7828631358644875e+00 1.2914296420102062e+01 0 0 0
1087 1 6.0206552266570750e+00 1.0477145532794189e+01 1.5211031242939061e+01 0 0 0
1088 2 6.1105302489118545e+00 9.8611643931099007e+00 1.5966917193060338e+01 0 0 0
976 1 4.1170738828271675e-01 1.4199247924287437e+00 1.3127210502642749e+01 0 0 0
1090 1 3.3154198079567965e+00 1.0577054301131559e+01 1.5193143068472613e+01 0 0 0
1091 2 2.8870762183588821e+00 9.9436191607772528e+00 1.5899082703100309e+01 0 0 0
1092 2 2.7515770443877190e+00 1.0766743741694503e+01 1.4433821410358336e+01 0 0 0
1093 1 1.4770981425101128e+00 9.0581219480756161e+00 1.6509026771978064e+01 0 0 0
1094 2 1.6280664464793835e+00 8.0619664307843273e+00 1.6340357849675975e+01 0 0 0
1095 2 8.6198590331324543e-01 9.4892581667125384e+00 1.5901563419427182e+01 0 0 0
298 1 7.6890753183148091e+00 1.2094653571208987e+01 4.9146551623296002e+00 0 0 0
1097 2 1.0530385731211243e+00 7.8260260109637469e+00 1.3516905926328036e+01 0 0 0
1099 1 4.6960505405061479e+00 9.3940328234891233e+00 1.2266101248849106e+01 0 0 0
1100 2 3.7924746533938469e+00 9.1049397456923007e+00 1.2605753354059408e+01 0 0 0
1101 2 4.7061289033834930e+00 1.0370797505084958e+01 1.2261901470188922e+01 0 0 0
1102 1 1.7359887214076264e+00 1.0559871210088918e+01 1.2828000881108146e+01 0 0 0
1103 2 1.5532869922175361e+00 9.8503279488470454e+00 1.2139710015826061e+01 0 0 0
1104 2 9.8325181604284673e-01 1.0617698904665486e+01 1.3408127715417747e+01 0 0 0
77 2 1.2131221705259426e+01 9.0823504556306678e-01 1.5194491249443265e+00 0 0 0
1108 1 1.6522391526661453e+00 6.4099328368743098e+00 1.6097986618871531e+01 0 0 0
865 1 4.6684441519988749e+00 -6.1402512514647234e-03 6.1633080017404227e+00 0 1 0
1110 2 1.5476190753400090e+00 6.0999263044046881e+00 1.6999146492911684e+01 0 0 0
1111 1 1.0711147150059578e+01 7.4640304913110613e+00 1.5656849907587006e+01 0 0 0
1112 2 1.1475211665315403e+01 7.4757721507286599e+00 1.5032015797053301e+01 0 0 0
1113 2 9.9113964722543155e+00 7.5015708497005056e+00 1.5068428623206097e+01 0 0 0
1114 1 8.9587853855251147e+00 7.4098978159827764e+00 1.3518888370031837e+01 0 0 0
1115 2 9.1364021392817278e+00 6.6115973244323225e+00 1.3050915937706897e+01 0 0 0
1116 2 7.9972071039945911e+00 7.5657710494019046e+00 1.3601209004818262e+01 0 0 0
33 2 1.1558055068430569e+01 1.5174404560600929e+00 3.5874361128608898e+00 0 0 0
1120 1 9.5674432494637109e+00 1.0376020529639643e+01 1.5357568953913191e+01 0 0 0
1121 2 9.1849663990880082e+00 1.0329480218323587e+01 1.4452763296680949e+01 0 0 0
1122 2 1.0520985625517847e+01 1.0590246828198218e+01 1.5245830801428756e+01 0 0 0
1123 1 7.6429176639756573e+00 8.8727273387516892e+00 1.6607113880360970e+01 0 0 0
1124 2 8.3648566094863970e+00 9.3162067812320437e+00 1.6125895709670935e+01 0 0 0
1125 2 7.7217337657255980e+00 9.2949977571825571e+00 1.7476795577043717e+01 0 0 0
1126 1 6.4325986159348698e+00 7.6053636442524493e+00 1.3415060802263721e+01 0 0 0
1127 2 5.8954646748642174e+00 6.7671863987191534e+00 1.3203937549613666e+01 0 0 0
1128 2 5.9539706411369977e+00 8.2881092773062548e+00 1.2858718248081811e+01 0 0 0
1129 1 1.0770427910755032e+01 9.2434732191399398e+00 1.2133539137276253e+01 0 0 0
1130 2 1.0021875303790660e+01 8.7452397760004619e+00 1.2537899380684751e+01 0 0 0
1131 2 1.0890441293754019e+01 8.6959443398753269e+00 1.1309266332583899e+01 0 0 0
1132 1 7.7585377225101517e+00 1.0522000329656729e+01 1.3159517431055471e+01 0 0 0
616 1 2.5232923551015179e-01 7.6431372410409066e+00 7.9370413611989292e+00 0 0 0
1134 2 7.0386510113472385e+00 1.0452511727254539e+01 1.3787770707435230e+01 0 0 0
516 2 9.1063621537171038e+00 1.1101550724330065e+00 7.2204389407622029e+00 0 0 0
1137 2 1.1056718858505850e+01 1.0837171222349438e+01 1.2055450287342421e+01 0 0 0
1138 1 7.7508160359515612e+00 6.1254669007939935e+00 1.6415793999407178e+01 0 0 0
1139 2 7.8660892634687620e+00 7.1301119015860124e+00 1.6523702059648528e+01 0 0 0
1140 2 8.5682219921843412e+00 5.9015398695249841e+00 1.5928099871851916e+01 0 0 0
1518 2 1.2218946050699468e+01 2.3827327476831761e+00 1.8879781255811821e+01 0 0 0
175 1 1.0648990910625232e+01 1.2124565922221176e+01 8.5408401482075891e-01 0 0 0
1456 1 3.4689387998337989e-01 1.4147558700740372e+00 1.9225063151001898e+01 0 0 0
152 2 1.1073843920208846e+01 8.1360817730872910e+00 3.6473902611093045e+00 0 0 0
162 2 9.1949695573661323e+00 1.1302828648099757e+01 4.4673508730937197e+00 0 0 0
1539 2 3.1915177568694564e-01 3.6750358488742778e+00 2.1306446396177655e+01 0 0 0
1606 1 6.4288308859106618e+00 7.2781347613692811e+00 1.9158080378075176e+01 0 0 0
749 2 1.6251258092760099e+00 1.1906549382125963e+01 1.1551160593767577e+01 0 0 0
1597 1 1.2107266434516387e+01 1.0527594850200479e+01 2.0761585676120504e+01 0 0 0
1441 1 4.7832978842019758e+00 1.3412435110821679e+00 2.1331710630851553e+01 0 0 0
136 1 2.6646869026247477e-01 7.8507212455522009e+00 1.9607173143917933e+00 0 0 0
1443 2 4.7494395672832095e+00 2.1002383675948493e+00 2.1946006679913779e+01 0 0 0