LAMMPS data file via write_data, version 15 Apr 2020, timestep = 0

1944 atoms
2 atom types

-1.5628299307614668e-02 3.9997733299307967e+01 xlo xhi
0.0000000000000000e+00 1.9695749731024016e+01 ylo yhi
0.0000000000000000e+00 2.0344528400338046e+01 zlo zhi
-7.3081876426641657e-03 -1.5792342679354476e-02 1.9543531000739023e-02 xy xz yz

Masses

1 16
2 2

Atoms # atomic

271 1 1.4763970570436054e+01 9.2514019533020750e+00 6.0033171114480304e+00 0 0 1
42 2 8.1228648659689995e+00 1.8635401734679910e+01 7.6554226082148000e+00 0 -1 -1
1759 1 8.0576311051347140e+00 9.0615061138466917e+00 4.2621863692468853e+00 0 0 1
905 2 1.6587937021640457e+01 7.2414684094031507e+00 7.1560704137389326e+00 0 0 0
1569 2 5.3245343024356320e+00 1.8311484775977778e+01 4.5368984765069547e+00 0 -1 1
1800 2 1.2017579806669293e+01 1.2600708924396749e+01 2.3409162411068826e-01 0 0 1
449 2 7.7515678690184258e+00 2.2486246219517811e+00 2.8181143509105664e+00 0 1 0
1093 1 7.3182655021950334e+00 4.1664094113291537e+00 6.0033481131470188e+00 0 2 0
60 2 1.2043865006314580e+00 5.3527913138518910e+00 8.4347871502236291e+00 0 0 -1
100 1 1.9835542650693650e+01 1.5898246271490184e+01 5.9579080593873686e+00 0 -1 0
19 1 1.0986246580103707e+00 9.5201296322428455e+00 4.3662945146252614e+00 0 0 0
535 1 1.5233313407433494e+01 1.3719825307039267e+01 5.7274774687642882e+00 0 0 0
1313 2 1.4824317607188244e+00 2.6584877379916794e+00 3.8385259320659113e+00 0 0 1
1748 2 3.0339607818899950e-01 1.3286454422884939e+01 1.4780032617833219e+00 0 -1 1
481 1 1.2947615281264852e+01 1.4547233911327345e+01 9.5702238177005299e+00 0 0 0
921 2 1.1867421279964405e+00 3.9812543285962881e-01 5.2218349610822186e+00 0 1 0
519 2 1.8911974682948085e+01 1.5283418085375166e+01 8.7957743666873416e+00 0 0 0
1375 1 1.2751763133100596e+01 1.4139148576673158e+01 3.5074023621815908e+00 0 0 1
1804 1 1.0653963301273118e+01 1.5450511912691480e+01 4.5746479552133597e+00 0 0 1
459 2 1.8059987686294310e+01 5.6572030094250678e+00 9.2280181773882060e+00 0 1 0
1559 2 4.3951495132171887e+00 4.7926576783747965e+00 5.7357516412554077e-01 0 1 1
920 2 2.0744078970206945e+00 1.5913640148928681e+00 5.5491132442178071e+00 0 1 0
1764 2 1.0748410672107604e+00 5.1468193997503162e+00 1.2486214793185981e+00 0 1 0
1322 2 8.7426883559085553e+00 1.6830798998676663e+01 6.5482260697998926e+00 0 0 1
667 1 1.9133429376193001e-01 1.8870583206684380e+01 2.4327739511895548e+00 0 0 0
1330 1 1.8772524802123737e+01 1.1557072231471391e+01 6.7693843833826595e+00 0 0 0
1160 2 9.7997584284752950e+00 1.7827883336957527e+01 9.3147125775804707e+00 0 0 0
75 2 1.8817808469066122e+01 1.0171311125329390e+00 6.5144400761601702e+00 0 0 0
88 1 1.0853439915946177e+01 9.1715189256199423e+00 8.4383350138269844e+00 0 0 0
1568 2 5.6967330760644197e+00 1.7235288833758286e+01 5.5039390972242828e+00 0 -1 1
107 2 1.3999339227625809e+01 1.2925258884475896e+01 9.4426475609420386e+00 0 0 1
80 2 9.5666108424630014e+00 5.8306757405710234e+00 2.6199261981737632e+00 0 1 0
1786 1 3.3113990523682442e+00 4.0328194636339609e-01 9.7015016322990000e-01 0 1 1
1084 1 7.2590864366402306e+00 7.7053592046678796e+00 8.9761740575324716e+00 0 0 0
1545 2 1.3785612918061227e+00 1.1896481972913264e+01 2.3237478269320553e+00 1 0 0
2 2 8.6333902860963507e-01 1.4832805873993145e+01 8.1083036839080975e+00 0 -1 0
661 1 7.7307237653469002e-02 1.8462118100417595e+00 2.6221000920179431e+00 0 0 1
918 2 1.4621493876509582e+01 1.2078349203080558e+01 1.9144232710582909e+00 0 0 1
1300 1 2.1914359839676953e-01 1.4724208352242631e+01 2.2185497829729344e+00 0 0 0
967 1 1.2973830537780774e+01 1.8431858140151910e+01 9.0874610705469152e+00 0 0 0
668 2 6.8569149624477932e-01 1.8643036708717144e+01 1.6037875220930065e+00 0 0 0
963 2 5.8043359000163424e+00 1.1878480180212446e+01 1.0102907903409326e+01 0 0 0
906 2 1.5459794998241259e+01 6.3274019727128774e+00 7.2359038660803812e+00 0 0 0
50 2 1.6767509808603975e+01 1.4490260555321548e+00 1.1336158830411449e+00 0 0 0
713 2 3.8495532870869660e+00 6.5692266666295431e+00 2.9544717644583800e+00 0 0 1
677 2 6.3064332844339188e-01 7.0422527858197208e+00 2.1342519380842724e+00 0 0 0
486 2 4.9199207043404565e+00 9.8143856732607073e+00 4.9420059089288673e+00 0 0 0
229 1 1.2930183980217097e-01 1.8229159995027945e+01 8.3283393843604223e+00 0 0 0
47 2 3.7275234956103538e+00 1.3823481841877570e+01 1.3294192130044886e+00 0 -1 0
243 2 9.6208973812678185e+00 3.8028674558014881e+00 9.5590045054693640e+00 0 1 -1
1803 2 1.6915726224628056e+01 1.5347703626920826e+00 6.8631133231212589e+00 0 1 1
650 2 5.9282535196960211e+00 1.5344758870079060e+01 3.9394973658784029e+00 0 -1 0
898 1 1.9757397379323205e+00 6.0214129476073204e+00 5.3863620196914574e+00 0 0 0
710 2 1.9874679297120306e+01 4.7553484784265532e+00 7.1564726514960491e+00 0 0 0
1515 2 1.3941392454661527e+01 1.7819801237703246e+01 2.9241554642898717e+00 0 0 0
231 2 3.3984518561851812e-01 1.7673356241937174e+01 9.0569184524286133e+00 0 0 0
230 2 9.3703378789009173e-01 1.8487729697458569e+01 7.8528153468071755e+00 0 0 0
1561 1 4.2684105352217330e+00 1.9293135490859832e+01 3.3927393853804007e+00 0 0 0
895 1 1.0725251846273192e+01 4.7493250641263263e+00 8.9474992314731860e+00 0 0 0
1749 2 7.2850612143320992e-01 1.2491651489310634e+01 1.9317591427760836e-01 0 0 1
1802 2 1.5824108282488654e+01 1.2681621276854231e+00 5.8561290191957696e+00 0 1 1
1112 2 3.1561909044067429e+00 1.8854685312188689e+01 6.4974718790907717e+00 0 0 0
663 2 4.5909752432164758e-01 2.0293410300692294e+00 1.7711531422072433e+00 0 0 1
1606 1 7.5049283506709958e+00 1.8151623690470831e+01 9.2824100700573240e+00 0 -2 0
712 1 3.8495841407341436e+00 6.9505327570597917e+00 3.8085038773242448e+00 0 0 1
1341 2 7.0693519173249033e+00 9.4395905337253261e+00 8.0952450399356586e+00 0 0 1
690 2 9.7950392300099107e+00 1.7947148080802375e+01 2.8228535994007733e+00 0 -1 0
1309 1 1.7757084704310330e+01 1.0050652053880832e+01 1.0016027727468748e+01 0 0 0
235 1 1.2206165964817728e+01 1.4253754756011668e+01 6.6401528184379854e-01 0 0 0
703 1 1.0740833895942917e+01 1.9186968993029531e+01 6.3825889537329203e+00 0 0 -1
721 1 1.4626099698312853e+01 5.0810982166581802e+00 2.1994623952452184e+00 0 0 0
1331 2 1.8943604420450320e+01 1.0696589624004512e+01 6.3544037139054330e+00 0 0 0
40 1 8.1490800713357352e+00 1.8654198150547320e+01 6.6645126468467275e+00 0 -1 -1
479 2 1.6135251953361283e+01 1.3512970522710890e-01 3.9245039272021702e+00 0 1 -1
1376 2 1.3393547724516335e+01 1.4884568882917755e+01 3.6126738972436576e+00 0 0 1
1321 1 9.2153860784807922e+00 1.6051169060856772e+01 6.8029153928282478e+00 0 0 1
1170 2 1.4228457308092876e+01 9.3707944156890974e+00 3.4368537063434956e-01 0 0 0
1527 2 7.7157158561662778e+00 1.8378818695080856e+01 3.7536992297994694e+00 0 0 1
217 1 8.2601487635879636e+00 1.9217573239381065e+00 7.2174230647855468e+00 0 1 -1
1585 1 1.7178644186959257e+01 1.0644047109715412e+01 3.7177281193001468e+00 0 0 1
1770 2 7.5600283088342781e+00 1.8831150194757090e+01 1.6450892088035667e+00 0 0 1
931 1 1.0618241340671563e+01 1.1936923907046275e+01 1.0167104723045259e+01 0 0 0
90 2 1.0497764212383267e+01 9.9156954890627880e+00 8.9653951159753724e+00 0 0 0
1577 2 1.9025092818066490e+01 5.6960962375657571e+00 5.2547701084244656e+00 0 0 1
1521 2 1.6620607487794242e+01 3.7451757664715282e+00 8.3742525191519164e+00 0 0 1
1729 1 6.8461052591321065e+00 7.3750482851388126e+00 7.3976614010607866e-01 0 1 0
67 1 6.1139566689781386e+00 1.5557135728645366e+00 6.7081052463580548e-01 0 0 0
723 2 1.4732103052907460e+01 4.2789584392776039e+00 2.7355718284671435e+00 0 0 0
1514 2 1.3558271604677998e+01 1.9211328948948871e+01 2.6942054006385603e+00 0 0 0
1097 2 6.7844294775795548e+00 1.1500219529327209e+01 1.3681956624628286e+00 0 1 0
1738 1 3.6111836809075637e+00 1.3960238694927869e+01 9.6351380435324074e+00 0 0 0
1565 2 1.0178841683541494e+01 4.1503096341238281e+00 4.8607808070729854e+00 0 1 0
20 2 1.4762719633550090e+00 9.0434836948449053e+00 5.0994729635745326e+00 1 0 0
1576 1 1.9211131494246040e+01 6.4208800684954399e+00 4.5892965411815991e+00 0 0 1
1166 2 1.3753013255307886e+01 5.2103385087462533e+00 4.4188378154419672e+00 0 1 0
537 2 1.5432951097845271e+01 1.3425318711856196e+01 4.7932837354410429e+00 0 0 0
1122 2 1.1313882167384895e+01 2.4415269485041065e+00 2.9489868414587667e-01 0 1 0
714 2 2.9508210401124946e+00 6.8111688563372859e+00 4.2374718324614209e+00 0 1 1
872 2 9.6290544013808290e+00 1.4296529458497435e+01 3.5829107385103618e+00 0 0 0
1098 2 5.3774202884816500e+00 1.2172618491888894e+01 1.2701367891174282e+00 0 1 0
1355 2 1.6233707993846207e+00 1.7513146161712850e+01 1.2819493415422104e-01 0 -1 2
665 2 2.5444532209944954e+00 7.6435803932988939e+00 7.2100555070352303e+00 0 0 0
941 2 1.4375337279141176e+01 1.7682632268479459e+01 6.4814945799955508e+00 0 0 1
1810 1 1.7257186101681814e+01 6.1862478345794409e+00 2.3242316064684267e+00 0 0 1
1581 2 8.3361851352397420e-01 7.6866532576344881e-01 9.1164242294083344e+00 0 0 0
1747 1 3.8328334650340096e-01 1.2342418929369982e+01 1.1047482246892733e+00 0 0 1
683 2 7.1115296205165359e+00 1.5690597703500609e+01 1.3737089042692143e+00 0 -1 0
254 2 5.0556431365861503e+00 6.8616417271284584e+00 1.0927058954917110e+00 0 0 1
188 2 3.6673651655317885e-02 3.5682684123540729e+00 5.0732004934935677e+00 0 0 0
526 1 1.9043213850070586e+01 1.3639841111723952e+01 4.8585107994390198e+00 0 0 0
1361 2 3.8341503205625758e+00 1.7182343009689450e+01 9.8867852141666255e+00 0 -1 0
253 1 4.1751383361291845e+00 6.4426041322625576e+00 1.1807661940331342e+00 0 0 0
739 1 1.4858933988783269e+01 1.5968521722621015e+01 3.0927241543664352e+00 0 0 1
1395 2 1.6242194457672383e+01 5.1214461017148496e+00 5.8350212677994024e+00 0 0 0
1806 2 1.0552494385908194e+01 1.6322467346788955e+01 4.1648582826121041e+00 0 0 1
662 2 1.0337643472778357e-01 8.4878642778551272e-01 2.6672208805651145e+00 0 0 1
1302 2 8.5242395478414101e-01 1.5248611555518638e+01 1.7024676851913496e+00 0 0 0
474 2 3.2986095016456543e+00 2.8288343736169854e+00 3.1111394683301428e+00 0 1 0
261 2 5.9798222721031324e+00 1.1892296037940023e+01 3.6182773873959890e+00 0 0 -1
1340 2 6.4556584950239069e+00 1.0750526134971189e+01 8.5827743000497048e+00 0 0 1
742 1 1.7685384464951358e+01 1.6729298980743273e+01 3.6854026371592421e+00 0 -1 0
236 2 1.1587930459062816e+01 1.4973392166923999e+01 4.5064125174614578e-01 0 0 0
914 2 1.9019539734969928e+01 1.6566420869275305e+01 1.9368803820577718e-01 0 0 0
1562 2 4.0398192188508784e+00 1.9623466168955261e+01 2.5195747336447383e+00 0 0 0
1740 2 3.8523738114928703e+00 1.3082135769807907e+01 9.2325065921704947e+00 0 0 0
525 2 9.3848984284995289e+00 8.4071876872072959e+00 2.7659870202487249e+00 0 1 1
1396 1 1.8196262129309915e+01 8.2070176282882112e+00 7.8736192371522424e+00 0 -1 1
698 2 1.1625437792471946e+01 5.0944509878167654e+00 1.7320785430268022e+00 0 1 1
485 2 4.5401428913181077e+00 8.2814070770185868e+00 4.6969491461412032e+00 0 0 0
259 1 5.9766291881459148e+00 1.1763199047756745e+01 4.5963919227395573e+00 0 0 -1
919 1 2.0235155926825175e+00 8.0121985898425618e-01 4.9935795347579486e+00 0 1 0
1618 1 1.3869786226442274e+01 1.1841508007999821e+00 8.8199509515340662e+00 0 0 0
701 2 1.0297043061832703e+01 1.0817373092348832e+01 3.0147045815546565e+00 0 0 -1
1339 1 7.2099150314736296e+00 1.0402491760495055e+01 8.0827248554547282e+00 0 0 1
1586 2 1.7004188489820837e+01 1.1615061054959313e+01 3.7641215551632645e+00 0 0 1
21 2 3.0609881551224283e-01 9.9351858128805315e+00 4.7803567247012060e+00 0 0 0
1155 2 1.7731327075423131e+01 1.3662955830423526e+01 3.8493556373372089e+00 0 1 0
294 2 1.8306498171756118e+01 8.8141517259695057e+00 6.0663784622258694e+00 0 -1 -1
924 2 1.2282173172060906e+01 8.4528538355956204e+00 8.9143996418246569e+00 0 -1 0
685 1 5.2733361845231359e+00 1.5405993418536900e+01 6.3671676816245277e+00 0 0 0
966 2 1.4471299981962835e+01 3.9413379131714894e+00 7.3888725943873146e+00 0 1 0
1818 2 9.5862492052835027e+00 6.4350848805029068e+00 6.2499046742270190e+00 0 2 1
1087 1 2.6654862444104405e-01 8.8820341993664247e+00 9.3638895509999358e+00 0 1 0
952 1 1.5351567158770189e+01 1.2257246983754516e+01 3.0530221022438797e-01 0 0 1
1816 1 9.7384990616716269e+00 5.4737197476409163e+00 6.3700189778200915e+00 0 2 1
897 2 1.0793607657201918e+01 5.5842729478166540e+00 9.4647647593331925e+00 1 0 0
743 2 1.7674860353193097e+01 1.7709670914297977e+01 3.6109730403551730e+00 0 -1 0
669 2 5.4041980768637721e-01 1.8466215958751910e+01 3.2463206943115899e+00 0 0 0
245 2 1.2594181103595318e+01 1.5369405082978776e+01 6.4920204928806484e+00 0 0 0
105 2 1.5471970953538580e+01 1.0652802956048211e+01 6.6455887990157620e+00 0 0 0
1398 2 1.9176916756483841e+01 8.0425212928730332e+00 8.1068734565302361e+00 0 -1 1
900 2 1.0394668167930836e+00 6.3816277076380361e+00 5.2837154932576462e+00 0 0 0
527 2 1.8869012944939925e+01 1.2978557753006962e+01 5.6025218721721641e+00 0 0 0
49 1 1.6284090835701708e+01 2.1595024522259121e+00 1.5728604433898101e+00 0 0 0
455 2 3.1272956030265564e+00 5.7229967875059495e+00 9.1780189876144220e+00 0 1 0
484 1 5.0921769777329882e+00 8.9002488428859010e+00 5.2441943877489718e+00 0 0 0
473 2 4.2845339018461370e+00 3.1131970424280522e+00 1.9675159336071986e+00 0 1 0
483 2 1.3518227552756654e+01 1.5282473474976436e+01 9.7694160329719448e+00 0 0 0
276 2 1.2736732095156917e+01 1.0689679773013832e+01 2.9788975479359210e+00 0 0 0
528 2 1.9161497003930492e+01 1.4538079560758414e+01 5.2730316054581028e+00 0 0 0
252 2 1.0058581009556580e+01 7.7220860921700050e+00 9.7006394586734821e+00 0 -1 0
1815 2 1.4752062802614493e+01 6.9008709743764580e+00 3.4280562542534443e-01 0 1 1
1159 1 1.0556286146519396e+01 1.7268605926320610e+01 9.1264130470309919e+00 0 0 0
293 2 1.8350410233143808e+01 9.6968385935712789e+00 4.8339721070859634e+00 0 -1 -1
1779 2 4.8778126565783086e+00 2.5607435757019057e+00 6.3952575725698946e+00 0 1 0
936 2 1.6629463715123411e+01 9.2828275839200334e+00 6.0911849426627557e-02 0 1 1
1397 2 1.7937299684869132e+01 9.0061423494663710e+00 8.4082465667272128e+00 0 0 1
1172 2 1.5982332016326895e+01 1.8425148471292616e+01 7.8909976236042541e+00 0 -1 0
95 2 5.1682075107681520e+00 5.1509740786312541e-01 6.6853778912448485e+00 0 1 0
709 1 1.9240099150341859e+01 4.3699307034486612e+00 6.4862931131559316e+00 0 0 0
686 2 5.9636631803999265e+00 1.4723888941654108e+01 6.5023514177050519e+00 0 0 0
940 1 1.5299836899409447e+01 1.7980348599352158e+01 6.3832442820678024e+00 0 0 1
1121 2 1.0603638280495701e+01 1.1936177567668087e+00 5.9313500252531304e-01 0 1 0
744 2 1.7894769007820841e+01 1.6594611687767454e+01 4.5968487941167382e+00 0 -1 0
697 1 1.2235047386510947e+01 5.1890948340245080e+00 1.0169884079357105e+00 0 1 1
993 2 1.9806016376171865e+01 1.1957822091772362e+01 7.9155169107130314e+00 0 0 0
1620 2 1.3326039608755242e+01 3.2471566455367562e-01 8.7454429232738544e+00 0 0 0
73 1 1.8411337473487620e+01 9.2847029628929800e-01 7.4047988194616003e+00 0 0 0
345 2 1.8586979029838510e+01 1.2249921414462476e+01 1.2144220836635142e+00 0 0 0
1089 2 3.6299812968987871e-01 9.7583515006691250e+00 9.7397327036578272e+00 0 1 0
1138 1 1.2378780527122879e+01 1.1119105242100282e+01 5.7404653600863602e+00 0 0 1
301 1 1.5052024386177791e+01 1.6305188068168260e+01 1.0061801539602357e+01 0 -1 -1
1128 2 7.1023498598643657e+00 4.6519784892804239e+00 7.6352291081429602e+00 0 1 1
77 2 1.2596992083837252e+01 2.5700714191519900e+00 5.7150072564462659e+00 0 0 0
521 2 1.5795909161564765e+01 3.4387465418708820e+00 2.2991879303525617e-01 0 1 1
1544 2 2.1041383461849170e+00 1.1202405328279108e+01 3.5864208964002304e+00 0 0 0
1817 2 9.9968403658398159e+00 5.2446890821757606e+00 7.2730646618310359e+00 0 2 1
1316 2 2.2302159200502714e+00 1.6884561677963749e+01 4.1229944209802083e+00 0 -1 0
1519 1 1.7575499276920695e+01 3.8905123147999667e+00 8.4498279891365335e+00 0 0 1
1799 2 1.0796971833731519e+01 1.1692377565222326e+01 2.3426493964835179e-01 0 0 1
96 2 5.4933216591934224e+00 6.3375644047495838e-01 8.1984874923487716e+00 0 1 0
1315 1 1.4609116598608065e+00 1.7459386688819496e+01 4.4411500447310637e+00 0 -1 0
1 1 1.5728631393391818e-01 1.4732460103326497e+01 8.8284407114075929e+00 0 -1 -1
1812 2 1.7953906071492440e+01 6.0844268161669781e+00 3.0043250885883119e+00 0 0 1
917 2 1.3835378248134340e+01 1.2562454547403961e+01 2.9955279479768553e+00 0 0 1
666 2 1.5805931159383106e+00 8.4523598288979898e+00 7.9760575917412577e+00 0 0 0
699 2 1.3115208656379496e+01 5.0649298742206810e+00 1.4271314946120692e+00 0 1 1
517 1 1.7919862349396453e+01 1.5421053381143743e+01 9.0250606949611036e+00 0 0 0
893 2 2.6699829179660721e+00 2.7578513045794053e+00 7.2745089587723806e+00 0 0 0
507 2 5.4927357248449526e+00 5.0283305524006732e+00 9.3303738236600857e+00 0 0 1
262 1 1.0491455224301143e+01 1.2723790372020321e+01 7.2065006164991177e+00 0 0 0
453 2 1.9436679313309908e+00 1.3348642641607009e+01 4.4808005908839412e+00 0 -1 -1
659 2 5.6137871333236278e-01 1.5670861941440695e+01 1.0087396029376638e+01 0 -1 0
1563 2 3.4240180054578979e+00 1.9614956100289238e+01 3.8162388493545354e+00 0 0 0
58 1 5.7682027172519035e-01 4.6637892244697774e+00 8.1672139294712540e+00 0 0 -1
755 2 1.8073032511717077e+01 9.9314379284418646e+00 1.9489645509700921e+00 0 0 0
675 2 2.4774232232361428e+00 1.2086307307689808e+01 7.2880577368998063e+00 0 -1 0
489 2 8.1843675937025644e+00 4.5296837421336322e+00 2.2044092184888937e+00 0 1 -1
1537 1 3.8152573696155363e+00 1.6336971753451525e+01 3.5253889932236500e+00 0 0 1
25 1 4.3732227982164833e+00 5.5830382282141047e+00 6.7337184152069307e+00 0 0 0
1140 2 1.1721782058280326e+01 1.1680730740337506e+01 6.2291399494549973e+00 0 0 1
79 1 1.0496859369761737e+01 5.5773249150532891e+00 2.8594627997930582e+00 0 1 0
876 2 4.4914962812932897e+00 1.3309000807436304e+01 6.9080922315177427e+00 0 0 0
871 1 9.0300970347347764e+00 1.3946511079462237e+01 2.9095251507845852e+00 0 0 0
76 1 1.2711023312918799e+01 3.0241316873905775e+00 6.5464150747116570e+00 0 0 0
1550 2 1.4697426423317577e+01 2.1319573642854648e+00 3.8904610637866419e+00 0 1 1
673 1 1.9119035085357787e+00 1.1368507381481002e+01 7.5881279021865184e+00 0 -1 0
702 2 9.3144743869996294e+00 1.2028209556138126e+01 3.0789508271459285e+00 0 0 -1
1768 1 7.1769288447017487e+00 1.8798151760568203e+01 7.8029753726798656e-01 0 0 1
536 2 1.4338209865590015e+01 1.4164124024619763e+01 5.7410668027313934e+00 0 0 0
896 2 1.1532335121448057e+01 4.2647795961847255e+00 9.1367574463144710e+00 0 0 0
106 1 1.4580458108628802e+01 1.2142671994775238e+01 9.3436072665002037e+00 0 0 0
903 2 1.7260560956618455e+01 2.5039272943705773e+00 2.7522885898082592e+00 0 1 0
292 1 1.8912292826294102e+01 9.2049683481633320e+00 5.4345066914602844e+00 0 -1 -1
726 2 1.8845419710664675e+01 1.8008694352576717e+00 4.3076424101601480e+00 0 0 0
469 1 1.6791245133336918e+01 1.5799906308737810e+01 6.4654445783572516e+00 0 0 -1
1323 2 8.5683174087558296e+00 1.5330564454490515e+01 7.0070376763280393e+00 0 0 0
1370 2 1.1266883229769217e+01 2.0054054611122822e+00 4.0613161725999252e+00 0 0 1
1126 1 7.0391486284504987e+00 4.8237181321542666e+00 8.6033667891534957e+00 0 1 1
1571 2 4.7421985493355283e+00 1.7922598570562442e+01 7.8439526321669986e+00 0 -1 0
1086 2 7.4832014202286823e+00 6.7816280500583472e+00 8.9564521313273335e+00 0 0 0
687 2 4.5429140910123262e+00 1.4977317398027273e+01 5.9434992477493340e+00 0 0 0
504 2 1.7813059164445139e+01 1.2050537627020990e+01 9.5611668963551466e+00 0 1 0
1543 1 2.0808563003464413e+00 1.1995109054816929e+01 3.0583615117430782e+00 0 0 0
901 1 1.7847299208478393e+01 2.8836959690136412e+00 3.4976715718946103e+00 0 1 0
1566 2 1.0350370031645747e+01 3.8972871878747521e+00 3.4422874423718874e+00 0 1 0
540 2 1.5674089663081157e+01 1.3839565101816619e+01 5.4271747023663064e-01 0 0 1
1369 1 1.1725775805870425e+01 1.1593833386963450e+00 4.3404681234611528e+00 0 0 1
480 2 1.5060986141542797e+01 1.9250987407863644e+01 4.8377698336052610e+00 0 0 -1
108 2 1.4798915464708566e+01 1.1920985810597493e+01 8.4016748265588177e+00 0 0 1
23 2 2.2242127999113985e+00 1.6271948874427633e+01 7.1215378500365656e+00 0 -1 -1
1301 2 5.6800576292783966e-01 1.4560133473064678e+01 3.0889780204076080e+00 0 0 0
684 2 6.9547825245689561e+00 1.7085983390069831e+01 6.6187131447629233e-01 0 -1 0
1367 2 1.8305949583432170e+01 1.6045952418091094e+01 2.2843826958658959e+00 0 0 1
1158 2 9.1701223198035713e+00 1.1651227453375480e+01 6.2244144281737617e+00 0 0 0
741 2 1.5248739407072900e+01 1.5551481293957373e+01 2.2668048674535473e+00 0 0 1
458 2 1.7823712930977933e+01 7.1304226129170631e+00 9.1993861713304206e+00 0 1 0
1165 1 1.3462647054632022e+01 5.5521619407431730e+00 5.2533351310134124e+00 0 1 0
1133 2 1.4480920830923973e+01 8.8051056684146207e+00 2.4725940572185756e+00 0 1 0
733 1 1.9044337791082825e+01 1.7932174448536713e+01 7.8346923725109185e+00 0 0 0
1350 2 1.0566038326312681e+01 8.2879001895050610e+00 5.5178736128236618e+00 0 0 0
244 1 1.2824628197055956e+01 1.4529241858182644e+01 6.9379729581625176e+00 0 0 0
1332 2 1.7850990480018414e+01 1.1558918537208237e+01 7.1838335178247519e+00 0 0 0
1742 2 3.3365744438280922e+00 1.1881464152645007e+00 9.6656145136208913e+00 0 0 0
264 2 1.1085181334090267e+01 1.3522206745338615e+01 7.2127332312123720e+00 0 0 0
488 2 7.3306944709751507e+00 5.3579272804441036e+00 3.2869213107576463e+00 0 1 -1
1513 1 1.3172665291609961e+01 1.8407113975999096e+01 3.0466205972180651e+00 0 0 0
1161 2 1.0274329548723030e+01 1.6668688229799290e+01 8.4212022294720246e+00 0 0 0
1132 1 1.5043334998681711e+01 8.3708269870685399e+00 3.1823188478500670e+00 0 1 0
508 1 1.3762248681443500e+01 1.3710069984652469e+00 1.8346784759453125e+00 0 2 0
523 1 9.7164656925074073e+00 8.3460860225510931e+00 1.8825695104852382e+00 0 1 1
1772 2 1.7669910749364998e+01 5.7861780844627724e+00 6.6208999850696504e-01 0 0 0
700 1 9.3999350308047216e+00 1.1044888901571770e+01 3.1186841521976203e+00 0 0 -1
1762 1 8.2885005822531188e-01 5.3479023480689687e+00 2.1555516553158469e+00 0 1 0
1554 2 5.2476324590169670e+00 1.2279429481187549e+00 4.5287647537882032e+00 0 0 1
1085 2 6.2823602627598092e+00 7.7295170878180501e+00 8.7761824585852430e+00 0 0 0
1520 2 1.7880953618624563e+01 3.1202525758419162e+00 8.9928988909357699e+00 0 0 1
1153 1 1.6923010580258637e+01 1.3318944715198491e+01 3.3980671616430640e+00 0 1 0
260 2 6.9478083349060800e+00 1.1657354457208166e+01 4.8428534292858112e+00 0 0 -1
1567 1 5.9430875001455989e+00 1.8128988866696627e+01 5.2658919611049582e+00 0 -1 1
1741 1 2.8096904996303551e+00 4.7513432142775563e-01 9.2797278903190570e+00 0 1 0
1526 2 8.0762040491281262e+00 8.7770848306266872e-02 3.5970216692695325e+00 0 1 1
1558 1 4.4995126811529724e+00 3.8678030525461704e+00 2.9648072494298927e-01 0 1 1
704 2 1.0812924779325421e+01 1.9636247096721871e+01 5.5442234639889536e+00 0 0 -1
1539 2 3.9738985966346738e+00 1.7137071878541917e+01 2.9828918780498568e+00 0 0 0
1535 2 1.2094504777324730e+01 8.5306480786069390e+00 3.9264943623000024e+00 0 -1 0
1551 2 1.5057111024299711e+01 3.4551147019576023e+00 4.5858865006025731e+00 0 1 1
274 1 1.2146111159062611e+01 1.0140999611439764e+01 3.5224295274198272e+00 0 0 0
1530 2 5.1285242020988908e-01 4.3847676022720439e+00 1.0043173428225373e+01 0 0 0
452 2 2.1534490263348074e+00 1.4525955782600516e+01 5.4687268909113822e+00 0 0 -1
343 1 1.7834251572590023e+01 1.2724363882979732e+01 9.0325023885174005e-01 0 0 0
1111 1 2.4640099636664980e+00 1.8176703271304028e+01 6.7663300201525525e+00 0 0 0
716 2 1.8674532494086296e+01 3.2191163464765902e+00 1.1624819472252315e+00 0 0 1
1314 2 1.3944016933358563e+00 4.1060622340492747e+00 3.2987223797378169e+00 0 0 1
964 1 1.4834973107107036e+01 4.3814173320942169e+00 8.1752609911418705e+00 0 1 0
1324 1 1.0820272082141770e+01 1.6846073364839274e+00 8.0600032529582233e+00 0 0 0
94 1 4.9745892009469399e+00 1.2606861390807267e-01 7.5572448975978688e+00 0 1 0
1536 2 1.2431626491840776e+01 7.0645665883443511e+00 4.7453357161313585e+00 0 -1 0
246 2 1.2812291204050082e+01 1.4710827639281781e+01 7.9126895319403410e+00 0 0 0
1771 1 1.8303255061468729e+01 5.1915170961441692e+00 2.6320860385411782e-01 0 0 0
305 2 5.4722693363505144e+00 2.5214488181226544e+00 8.4896331467636568e+00 0 1 1
1188 2 9.4199896625264561e+00 2.8703100391242784e+00 9.0311280579111231e-01 0 1 0
1607 2 7.3642306858331965e+00 1.7351542769385624e+01 9.8250761623993128e+00 0 -2 0
875 2 4.6782359515553003e+00 1.2331126791565357e+01 5.5992592912112187e+00 0 0 0
654 2 5.0056976284537695e+00 5.3589066420002132e+00 4.3855548720398430e+00 0 0 0
1317 2 6.9980117687263699e-01 1.6941146858140339e+01 4.7736528992512239e+00 0 -1 0
1805 2 1.0284137711525752e+01 1.5557393932969612e+01 5.4798084850452362e+00 0 0 1
894 2 1.3469850693283936e+00 2.2619941203574232e+00 7.7744943182037387e+00 0 0 0
1139 2 1.3221485381312288e+01 1.1226425625695887e+01 6.2057437204094406e+00 0 0 1
1377 2 1.2013449892638411e+01 1.4290150333331178e+01 4.1099616173946369e+00 0 0 1
74 2 1.8512104660557792e+01 1.9668745814060934e+01 7.5256251424552261e+00 0 -1 0
1831 1 1.7555983295776766e+01 1.9310241713140080e+01 3.3218929333580451e+00 0 -1 0
1383 2 1.5190823608328323e+01 7.9179909441860308e-01 9.6494087241407502e+00 0 0 0
39 2 9.2595481084292590e+00 1.4533396652396004e+01 9.7145751686709048e+00 0 -1 -1
1833 2 1.7911613377192463e+01 1.9279129663522351e+01 2.3928939344055502e+00 0 -1 0
969 2 1.2195147949985902e+01 1.7853395456766226e+01 8.9040490307021471e+00 0 0 0
1134 2 1.4686164802996712e+01 7.4592199136304504e+00 3.2353262769954858e+00 0 1 0
1186 1 8.5528216908901822e+00 3.2502630931453753e+00 9.1404222580820327e-01 0 1 0
78 2 1.2074628407608055e+01 2.6520075304814781e+00 7.1417204590053851e+00 0 0 0
748 1 1.3062309130502481e+01 3.4915324972930133e+00 9.9507799315728356e+00 0 0 1
470 2 1.7200864168561807e+01 1.5549933800121677e+01 7.3235682257013330e+00 0 0 -1
718 1 4.9946780815358682e+00 8.0288682648272509e+00 7.8085556334941657e+00 0 0 -1
1743 2 3.4516868202150084e+00 1.4869257516585613e-01 8.5793621083603657e+00 0 1 0
314 2 1.2077697642127182e+01 1.8051797024211798e+01 6.2409773762296163e+00 0 0 0
1832 2 1.8202105861118739e+01 8.8915798468840720e-02 3.9567782591829208e+00 0 0 0
904 1 1.5971622615698180e+01 6.7846307603774401e+00 6.5946991499865710e+00 0 0 0
1730 2 7.2773621769369701e+00 6.6006388100567674e+00 1.2331338215172172e+00 0 1 0
720 2 5.0501084265245009e+00 8.3836394591373171e+00 6.8786765484189516e+00 0 0 -1
69 2 6.4247490982271129e+00 6.2695692013373949e-01 7.5673227886622207e-01 0 0 0
442 1 7.5212758369830128e+00 9.8748972735114879e+00 7.6118441304564766e-01 0 1 0
1608 2 6.5765406308793626e+00 1.8185090071829158e+01 8.8786206746027521e+00 0 -2 0
48 2 3.2695566374026046e+00 1.3082055847899850e+01 2.5524379443508654e+00 0 -1 0
722 2 1.5486889104621714e+01 5.4189431832411632e+00 2.3454173401485199e+00 0 0 0
873 2 8.1309819441811513e+00 1.4183293749136777e+01 3.1727308986317206e+00 0 0 0
1778 2 4.4516770278521758e+00 3.9612702066856680e+00 7.0646471001714568e+00 0 0 0
942 2 1.5858780734559289e+01 1.7234096938584976e+01 6.2203141699540740e+00 0 0 1
1584 2 7.7586745186756714e+00 1.2830737422434607e+01 6.4186010069299302e+00 0 0 0
46 1 3.6924698771309283e+00 1.3936888880146030e+01 2.2540214780014289e+00 0 -1 0
499 1 1.8670353335253875e+00 1.5848735854017209e+01 3.6219276618862328e-01 0 0 0
81 2 1.0836326104059879e+01 6.3522325162618349e+00 3.3412677604023235e+00 0 1 0
450 2 8.9220507278216132e+00 2.5777144411844937e+00 3.7913875564194282e+00 0 1 0
24 2 3.0192383121875608e+00 1.5255948229987315e+01 7.9151120077983768e+00 0 -1 -1
1798 1 1.1757892561778705e+01 1.1672814896859348e+01 1.0709745525471527e-01 0 0 1
1534 1 1.1814747615848932e+01 7.6905551556186120e+00 4.3687842098437741e+00 0 -1 0
1578 2 1.8855814533775785e+01 7.2549936674551097e+00 4.9286635141470772e+00 0 0 1
1801 1 1.6007919193155839e+01 1.8458401496868271e+00 6.6298925049465973e+00 0 1 1
1113 2 2.1304448741965389e+00 1.8018791146017104e+01 5.7998084207384686e+00 0 0 0
1560 2 5.4443929933343851e+00 3.6245959577907159e+00 2.9330595606146825e-01 0 1 1
478 1 1.5282061049564371e+01 4.0362750480525911e-01 4.3977185348507470e+00 0 1 -1
275 2 1.2195446751468412e+01 1.0614348013086895e+01 4.3719981367409932e+00 0 0 0
922 1 1.3245880459348415e+01 8.3463085557631036e+00 8.8255413576792421e+00 0 -1 0
37 1 8.4325954188364101e+00 1.4171418776546822e+01 9.3830563505211355e+00 0 -1 -1
938 2 1.8277449022420795e+00 8.1189073024291005e+00 8.3667238626629226e-01 0 0 0
273 2 1.4986983964452763e+01 8.3318764789302513e+00 6.1369399074086823e+00 0 0 1
59 2 1.0123912093103620e+00 4.0713762186189220e+00 7.5937956813230354e+00 0 0 -1
682 1 6.8223621660917138e+00 1.6103132381840538e+01 5.3744296270695768e-01 0 -1 0
968 2 1.3692251851173820e+01 1.7790427982848591e+01 9.2934365389508322e+00 0 0 0
103 1 1.5631034909927422e+01 1.1514331346174462e+01 7.1071329036920670e+00 0 0 0
89 2 1.0314588543308018e+01 9.0855004452768267e+00 7.6133340062866397e+00 0 0 0
688 1 1.0554766328812741e+01 1.7373438854813440e+01 2.6495231688058190e+00 0 -1 0
9 2 2.3184153155440765e-01 1.1658862338216654e+01 8.1210254129287787e+00 0 -1 0
1095 2 8.0892825371430241e+00 4.8121982758425101e+00 5.9016875430390394e+00 0 2 0
502 1 1.7340209111346201e+01 1.2709220586901338e+01 8.9938651133278942e+00 0 1 -1
509 2 1.2784441331346081e+01 1.4016123211890177e+00 2.0288690482623388e+00 0 2 0
306 2 6.9687504290984421e+00 2.0977670952172653e+00 8.7434912338612989e+00 0 1 1
756 2 1.8914557083937542e+01 8.8101832504842896e+00 1.2200799886646987e+00 0 0 0
1366 1 1.8391692132583355e+01 1.5634474687104834e+01 1.4393512795707388e+00 0 0 1
446 2 9.0754963678877552e+00 1.3667142554505553e+01 1.1442821879979883e+00 0 0 -1
315 2 1.2836403846576442e+01 1.7465341662577156e+01 5.0292594323719459e+00 0 0 0
26 2 4.6572703879459976e+00 6.3225829681057020e+00 7.2695418727271131e+00 0 0 0
1572 2 5.0443144955554482e+00 1.6435984770168407e+01 7.7853483516901294e+00 0 -1 0
501 2 2.8326326301314899e+00 1.5714643036874246e+01 3.9413301014519764e-01 0 0 0
1619 2 1.4213834916727588e+01 1.4933768362072535e+00 7.9726409967813137e+00 0 0 0