LAMMPS data file via write_data, version 15 Apr 2020, timestep = 200000

972 atoms
2 atom types

2.0381052684382972e-01 1.9787242473158049e+01 xlo xhi
1.4679164092933483e-01 1.9844261359072302e+01 ylo yhi
2.4578216967368682e-01 2.0554989830325091e+01 zlo zhi
4.8522228266688332e-02 -7.9714609466137190e-02 -8.1037836313455611e-02 xy xz yz

Masses

1 16
2 2

Atoms # atomic

4 1 4.2369271588352682e+00 1.4699565276330935e+00 3.5008154034049284e+00 0 0 0
5 2 4.4689414157434291e+00 2.4349322514263880e+00 3.4487301019566958e+00 0 0 0
6 2 3.3161720297698523e+00 1.3025068433900120e+00 3.7383161223497510e+00 0 0 0
7 1 6.2255264280111282e+00 4.7279464096063419e+00 5.8970850865303817e+00 0 0 0
8 2 7.0963582247087453e+00 4.6027670541277423e+00 5.4399985064572425e+00 0 0 0
9 2 5.5406447021799199e+00 4.5398989714350471e+00 5.2194647706951294e+00 0 0 0
10 1 1.7304286553173565e+00 4.0820675228741692e+00 3.7678080518909924e+00 0 0 0
11 2 1.1467739738996463e+00 4.2865763194568398e+00 4.5495318172021495e+00 0 0 0
12 2 1.4644681357140155e+00 4.8036747344593032e+00 3.1203892326213971e+00 0 0 0
13 1 4.8921659195009068e+00 6.2369705964934141e+00 1.6472166305662870e+00 0 0 0
14 2 4.6384634043003672e+00 7.0195911240218880e+00 2.1540544832027431e+00 0 0 0
15 2 4.1931738268445180e+00 5.9702130760936987e+00 1.0285004631753993e+00 0 0 0
16 1 4.5037240977989370e+00 4.2050118885855676e+00 3.7666713327718826e+00 0 0 0
17 2 4.8668729974030409e+00 4.5665358251464498e+00 2.9552899641232910e+00 0 0 0
18 2 3.5591606641842941e+00 4.3543486099547000e+00 3.8785622653730143e+00 0 0 0
19 1 6.8400856775180419e-01 6.0294402751068112e+00 2.1017510573527751e+00 0 0 0
20 2 9.5325740078659393e-01 6.9627398740785145e+00 2.3595909844873053e+00 0 0 0
22 1 2.1443664178437736e+00 1.1600927774913889e+00 4.8254284946919910e+00 0 0 0
23 2 1.1722382669948737e+00 8.9315205917385487e-01 4.8021672725917020e+00 0 0 0
24 2 2.3018773867112188e+00 1.8648108423209555e+00 5.4986669825837637e+00 0 0 0
25 1 2.8377931450201830e+00 5.8778017556194060e+00 6.7196775294405056e+00 0 0 0
26 2 2.7120494117246370e+00 6.5916484095850976e+00 6.0383885468674929e+00 0 0 0
27 2 3.7104068692051309e+00 5.8571366805823688e+00 7.1373307570121547e+00 0 0 0
28 1 5.8636729264028826e+00 7.4384863020311920e-01 5.4851979451024926e+00 0 0 0
29 2 5.2312125393602846e+00 1.0521734562418799e+00 4.7913086169617749e+00 0 0 0
30 2 5.6922171365862217e+00 1.9516567267211123e+01 5.7560712630435509e+00 0 0 0
31 1 9.0838083928640134e-01 2.2355214117905313e+00 1.8701988051337732e+00 0 0 0
675 2 2.0737984812014334e+00 5.4008940718692360e+00 8.4354633487082642e-01 0 0 0
33 2 8.8987678222728284e-01 2.8707813574694927e+00 2.6076278051990038e+00 0 0 0
335 2 1.0669365068992351e+00 3.6593107026478897e+00 1.0079109022272030e+01 0 0 0
35 2 6.0835905488107480e+00 2.7235613591944210e+00 1.6392008237577704e+00 0 0 0
46 1 8.3467603080947637e+00 4.5842106092667683e+00 4.0568940627540062e+00 0 0 0
47 2 9.2688680473325533e+00 4.4398716698850027e+00 4.1062115418687029e+00 0 0 0
48 2 8.2355063234952652e+00 5.2674417726197200e+00 3.4175124683640719e+00 0 0 0
55 1 7.5679766543010132e+00 6.2383637673768355e+00 2.0111492270332834e+00 0 0 0
56 2 7.5745189314049277e+00 7.1738024420845115e+00 2.2462136520440654e+00 0 0 0
57 2 6.6571766130653778e+00 6.1539493648796828e+00 1.6980053574386407e+00 0 0 0
58 1 8.5625618918840072e+00 8.6199706055603298e-01 5.0326583217032193e+00 0 0 0
139 1 9.9982192078719778e-01 8.8507391639855495e+00 2.2646218674014920e+00 0 0 0
60 2 7.6840213105427129e+00 6.8686116173321343e-01 4.6705295299383636e+00 0 0 0
61 1 9.6032771662024921e+00 5.4313251270055130e+00 7.0533368946362636e+00 0 0 0
62 2 9.4314960303747863e+00 4.5061892414706817e+00 6.7266574613286538e+00 0 0 0
63 2 8.8535101229948250e+00 5.6471508735957805e+00 7.6717105568556105e+00 0 0 0
67 1 7.8110930951474113e+00 2.4021373221695761e+00 2.4008201256535395e+00 0 0 0
68 2 7.9649189345277698e+00 3.0923609695224159e+00 3.0746742372626126e+00 0 0 0
69 2 8.5240964604146203e+00 2.5645399768620170e+00 1.7931883198474725e+00 0 0 0
111 2 1.8814953772213900e+00 9.6333667735920692e+00 9.8785848071189086e-01 0 0 0
609 2 7.3526161580687299e+00 1.5937234666100743e+01 9.9323346165493991e+00 0 0 0
344 2 7.3477389932560022e-01 5.8747170950925218e+00 9.1506358328204147e+00 0 0 0
112 1 4.4256723170750343e+00 8.2610392436133271e+00 3.3379222798643879e+00 0 0 0
113 2 4.8083076612504163e+00 8.1439145289138750e+00 4.2319977755584208e+00 0 0 0
114 2 4.4905384612081818e+00 9.2578637946901132e+00 3.1653226878565377e+00 0 0 0
115 1 6.3550611587954835e+00 1.1357088634753353e+01 5.5208382714629405e+00 0 0 0
116 2 6.1198098979305904e+00 1.2290785513694775e+01 5.6331879169669010e+00 0 0 0
117 2 6.1028632956709901e+00 1.0907561661468689e+01 6.3157893962900715e+00 0 0 0
118 1 1.7227795251180751e+00 1.0889106410046615e+01 3.8488569477658836e+00 0 0 0
558 2 4.6389449494112629e+00 1.7805938238539746e+01 1.0120331312510718e+01 0 0 0
120 2 2.6712723538380074e+00 1.0883760924228822e+01 4.0502975521038991e+00 0 0 0
121 1 4.7220296751180806e+00 1.2417718553168861e+01 1.4906289723464683e+00 0 0 0
122 2 5.7300278096062698e+00 1.2430060353909528e+01 1.4605395279011335e+00 0 0 0
123 2 4.2969961062048974e+00 1.2575416635250482e+01 6.0979908064846633e-01 0 0 0
124 1 4.4181417635112492e+00 1.1034809158375614e+01 3.5699675388094922e+00 0 0 0
125 2 4.5638564051000694e+00 1.1639766253088739e+01 2.8163446038514284e+00 0 0 0
126 2 5.2623833092900369e+00 1.1178787501597240e+01 4.1267638502792803e+00 0 0 0
127 1 1.1493056222522178e+00 1.2791770876655484e+01 1.9358348053235257e+00 0 0 0
128 2 1.8657267497270187e+00 1.2725338623495961e+01 1.2885611773564738e+00 0 0 0
129 2 1.4284619658474951e+00 1.2017770118928571e+01 2.5491046715948817e+00 0 0 0
130 1 2.1997844117047665e+00 7.9576559410231331e+00 5.0248365262537797e+00 0 0 0
131 2 2.6473198413711136e+00 8.1220802292292156e+00 4.1725815979587093e+00 0 0 0
132 2 2.3972235431311453e+00 8.6347217571669681e+00 5.7232535275198773e+00 0 0 0
133 1 2.7761504833386494e+00 1.2207688217644646e+01 6.7008502604681190e+00 0 0 0
134 2 2.1173348675260586e+00 1.2475184999615532e+01 7.3835733542682469e+00 0 0 0
135 2 2.6826664740862931e+00 1.2916587554694676e+01 6.0147918851041684e+00 0 0 0
136 1 5.8010102116383315e+00 7.5434216832086207e+00 5.5970095090476049e+00 0 0 0
137 2 5.5800794071057842e+00 6.6639455229584552e+00 5.9679697124942974e+00 0 0 0
138 2 6.8161772622533272e+00 7.4175232099479862e+00 5.6050437618257662e+00 0 0 0
143 2 4.4127673025121918e+00 9.2051353626071233e+00 8.2093601813318984e-01 0 0 0
140 2 1.1206964030283948e+00 9.5733276213384837e+00 2.8490642760484413e+00 0 0 0
891 2 4.0254418083421797e+00 1.8849325490219215e+01 6.8515690060074075e-01 0 0 0
147 2 8.4533185025446880e+00 9.1628302364889329e+00 6.4856775064329542e-01 0 0 0
119 2 1.2300764118487715e+00 1.0821311251996363e+01 4.6961496049997944e+00 0 0 0
154 1 8.4638277763299037e+00 1.0870224706588738e+01 3.8492309255352501e+00 0 0 0
155 2 8.1011732566512720e+00 1.0966709898511985e+01 4.7631375956766782e+00 0 0 0
156 2 9.4042400116508844e+00 1.0769773706412533e+01 3.8127952934900322e+00 0 0 0
163 1 7.4453961767694423e+00 1.2582304012692580e+01 2.0401130179891496e+00 0 0 0
164 2 7.8488900149883714e+00 1.2081083583475388e+01 2.7799158977950600e+00 0 0 0
165 2 8.1205196573867653e+00 1.2470203098488494e+01 1.3275581118728379e+00 0 0 0
166 1 8.5607575620047829e+00 7.4561106871821101e+00 5.3281692434550862e+00 0 0 0
167 2 8.9117585198033975e+00 8.1843369800587205e+00 5.9372375973286999e+00 0 0 0
168 2 8.9477951976508834e+00 6.6209754494130717e+00 5.7624699953369305e+00 0 0 0
169 1 9.1955355054411800e+00 1.2033860192844454e+01 6.9317614682372337e+00 0 0 0
171 2 8.9461313507710951e+00 1.2697423419204121e+01 6.2614540835286698e+00 0 0 0
175 1 7.4686788998208060e+00 8.9017140002763480e+00 2.2273019391473872e+00 0 0 0
176 2 7.5787905272201934e+00 9.5793070108414469e+00 2.9243541775180799e+00 0 0 0
177 2 6.5387810824568309e+00 8.9763323689868564e+00 1.8707391107420597e+00 0 0 0
450 2 4.5761531375932671e+00 1.1236612510526472e+01 9.5692971689749360e+00 0 0 0
3 2 2.3214661900199349e+00 2.3737314647137446e+00 9.9741751170883064e-01 0 0 0
258 2 9.6993184197742153e+00 1.3999594225153356e+01 3.5293245288519253e+00 0 0 0
210 2 3.2791897782332841e-01 7.9341121596405317e+00 4.6867997915578963e+00 0 0 0
927 2 8.7484124146569524e+00 1.9181292573433637e+01 9.4366166921857020e-01 0 0 0
220 1 3.9870636396870012e+00 1.4419060894172652e+01 3.1580285780508883e+00 0 0 0
221 2 4.5332749513250050e+00 1.5261201849705476e+01 3.0219368917727571e+00 0 0 0
222 2 4.3668395887992011e+00 1.3753970829985922e+01 2.4987543233220473e+00 0 0 0
223 1 6.0412263152325751e+00 1.7816973030736293e+01 5.8593903722384821e+00 0 0 0
224 2 6.9589402465715988e+00 1.7573356125908902e+01 5.6570088575413342e+00 0 0 0
225 2 5.6836735348829661e+00 1.7104463477512326e+01 6.3545503728078643e+00 0 0 0
226 1 1.9855221986477647e+00 1.7050320032913916e+01 3.7416045234151363e+00 0 0 0
227 2 1.6983968113551495e+00 1.7932051259310605e+01 3.2610966068443510e+00 0 0 0
228 2 1.5978994791670467e+00 1.6368884850177295e+01 3.1427108747922681e+00 0 0 0
229 1 5.1714496895558151e+00 1.9387968324160198e+01 1.6715615682023919e+00 0 0 0
230 2 4.9709923313957827e+00 1.8688474022757383e+01 2.3575132554522633e+00 0 0 0
231 2 4.8521779575059600e+00 5.0384078406619892e-01 2.1855719755370910e+00 0 0 0
232 1 4.7644641943718291e+00 1.7221100024421432e+01 3.2836719578259204e+00 0 0 0
233 2 3.8274451978226276e+00 1.7327331025246032e+01 3.5171178326998120e+00 0 0 0
234 2 5.3244667836663382e+00 1.7293071717556771e+01 4.1254309302853667e+00 0 0 0
235 1 8.9668850604692452e-01 1.9155599100652474e+01 2.2524648291107567e+00 0 0 0
236 2 8.9535149975358697e-01 4.3511431879763590e-01 2.2289662401205121e+00 0 0 0
237 2 1.3689355560867345e+00 1.8972098071824199e+01 1.4159375994231533e+00 0 0 0
238 1 2.1316490977357709e+00 1.4403206929906119e+01 5.2240255709295118e+00 0 0 0
239 2 2.6535032651002233e+00 1.4441831303672522e+01 4.3665700694478016e+00 0 0 0
240 2 1.1162113843473951e+00 1.4104101843336213e+01 5.0542804835247734e+00 0 0 0
241 1 2.9991618859385163e+00 1.8994037539149140e+01 6.6304543921574126e+00 0 0 0
242 2 2.5757637115831677e+00 1.9470275600820820e+01 5.8448273627870488e+00 0 0 0
243 2 2.9045802849176585e+00 1.8035167611200826e+01 6.5015757814897972e+00 0 0 0
244 1 5.7034808056610764e+00 1.3981232938334472e+01 5.2319828877010446e+00 0 0 0
245 2 5.5701278681343291e+00 1.4487256228016294e+01 6.0175442553736929e+00 0 0 0
246 2 5.0420497999610490e+00 1.4050291126480882e+01 4.6047612354276577e+00 0 0 0
247 1 8.3126494823436903e-01 1.5466922048053009e+01 2.0300891726911150e+00 0 0 0
248 2 8.1536619326791304e-01 1.4541809143551909e+01 2.2350661062499242e+00 0 0 0
249 2 1.5674099918326285e+00 1.5605740586675820e+01 1.4133097698563177e+00 0 0 0
251 2 5.8952684326637286e+00 1.5802994466977886e+01 1.2672447941137597e+00 0 0 0
37 1 9.5624298178216591e+00 2.8517089356126371e+00 2.5454648578334893e-01 0 0 0
262 1 8.1456943260562475e+00 1.7395254065793345e+01 3.9853622506561166e+00 0 0 0
263 2 9.0765570156763342e+00 1.7564518861101426e+01 4.0891591285961599e+00 0 0 0
264 2 7.8604031545784494e+00 1.8075827576861286e+01 3.3719843520561308e+00 0 0 0
271 1 7.6956030374437017e+00 1.9358389637587145e+01 2.2419443340837892e+00 0 0 0
272 2 7.6483385252237506e+00 6.0709193088366820e-01 2.4606381850763333e+00 0 0 0
273 2 6.7842443465039501e+00 1.9229521246101228e+01 1.9383234006417489e+00 0 0 0
274 1 8.4320742223744265e+00 1.4088771330822214e+01 5.2016600921465681e+00 0 0 0
275 2 8.5559543195875278e+00 1.4804626894146450e+01 5.8278367493245042e+00 0 0 0
276 2 7.4680297587560140e+00 1.4094339983470247e+01 4.9936320549177653e+00 0 0 0
277 1 9.2777398710366157e+00 1.8768759163832755e+01 6.9061627041582652e+00 0 0 0
34 1 5.3467752181864707e+00 2.7862433168814649e+00 1.0439695097677202e+00 0 0 0
279 2 8.5753556577550842e+00 1.8840485642679546e+01 7.6261785318931237e+00 0 0 0
283 1 7.3918976834370556e+00 1.5459555076074462e+01 2.1108155427939135e+00 0 0 0
284 2 7.6150939454618225e+00 1.5996404463290702e+01 2.9033112386724249e+00 0 0 0
285 2 7.4043960905723250e+00 1.4581989302581277e+01 2.5047116910814688e+00 0 0 0
343 1 5.3149811970521166e-01 6.3793317581917819e+00 8.3466016647135550e+00 0 0 0
325 1 2.8018976307666970e+00 3.1688341702467584e+00 7.1204164187436270e+00 0 0 0
326 2 2.7324730890750537e+00 4.0916020157944200e+00 6.9897039175276205e+00 0 0 0
327 2 3.7049923884076028e+00 2.9876188287348806e+00 7.4007909916979902e+00 0 0 0
329 2 4.2283679226970623e+00 5.5675247879490852e-01 9.8606911847224481e+00 0 0 0
337 1 4.8597826857021840e+00 5.7260933164151959e+00 8.5730686798693903e+00 0 0 0
338 2 4.4563801505101086e+00 4.9671577651753411e+00 8.9693446633460265e+00 0 0 0
339 2 4.6615281197288638e+00 6.4952883154059196e+00 9.1166657711488170e+00 0 0 0
451 1 1.1258177247435335e+00 1.3080824116188309e+01 8.6640237335118613e+00 0 0 0
297 2 6.5779652468993910e-01 1.7394597152191061e+01 5.1973587141188853e+00 1 0 0
345 2 1.2688182998032240e+00 6.1940618364659921e+00 7.7382346888546367e+00 0 0 0
355 1 1.2213349417708022e+00 2.3695493402714001e+00 9.0369619734616258e+00 0 0 0
356 2 1.1695950522447958e+00 1.3990048944772517e+00 8.9754615713411745e+00 0 0 0
357 2 1.8356184597836862e+00 2.7610182617304710e+00 8.2760986704160384e+00 0 0 0
358 1 5.5698091158588214e+00 2.6362735939397903e+00 7.5710040383341051e+00 0 0 0
359 2 5.8032539809599619e+00 3.3736501563218693e+00 6.9634267795895690e+00 0 0 0
360 2 5.6562065997306705e+00 1.9792446344287646e+00 6.8711805831283437e+00 0 0 0
361 1 9.0850511641043230e+00 2.7046568913759255e+00 6.9628496306113794e+00 0 0 0
362 2 8.7657578477700415e+00 2.0822087300631491e+00 6.2949118582260608e+00 0 0 0
363 2 8.5829319178005363e+00 2.4513543032967551e+00 7.7877824837934853e+00 0 0 0
254 2 8.6375372186605865e+00 1.6035922636455304e+01 9.5855810607158887e-01 0 0 0
379 1 7.5522418921524128e+00 5.6629179488062213e+00 8.9090888114620963e+00 0 0 0
380 2 7.5309654729861046e+00 6.6404399500306770e+00 9.2105460994149819e+00 0 0 0
381 2 6.6081824037948742e+00 5.5327665566059192e+00 8.6583261424257341e+00 0 0 0
391 1 7.4800162964236439e+00 1.9507064113457249e+00 9.1525924208038010e+00 0 0 0
392 2 7.5961096546006699e+00 2.7166121826917720e+00 9.7823292492590266e+00 0 0 0
393 2 6.6464131700938855e+00 2.1212891239171596e+00 8.5817551548660589e+00 0 0 0
2 2 3.8455278393519343e+00 2.4248517691286029e+00 5.2109198259226375e-01 0 0 0
433 1 2.8633059470331288e+00 9.6603541224851028e+00 7.0082778784450754e+00 0 0 0
434 2 2.7952780517278861e+00 1.0602591091864710e+01 6.8773981168840708e+00 0 0 0
435 2 2.3468701753057823e+00 9.4220495975137215e+00 7.8155888586620454e+00 0 0 0
278 2 9.0590353317324581e+00 1.9471883980821950e+01 6.1955946354436815e+00 0 0 0
445 1 4.8580288166682575e+00 1.2361157504195438e+01 8.2728791758121591e+00 0 0 0
446 2 4.6593478432702797e+00 1.3267726214339378e+01 8.5688749227472236e+00 0 0 0
447 2 4.2132963063692346e+00 1.2352266221127804e+01 7.5691663894246437e+00 0 0 0
572 2 3.9412253960203297e-01 1.5836850417349826e+01 8.7721073194692512e+00 0 0 0
444 2 1.4308964567231230e+00 1.1991237464941905e+01 1.0049944932825467e+01 0 0 0
452 2 1.2564830649760517e+00 1.4032109193621428e+01 8.7675375176642714e+00 0 0 0
463 1 7.3665694333609821e-01 9.2948548553633756e+00 8.9237191980416259e+00 0 0 0
469 1 9.1795480118856290e+00 9.3068465587789522e+00 7.2955323684476587e+00 0 0 0
466 1 5.6413103363021166e+00 9.5556204790580495e+00 7.4711687833219065e+00 0 0 0
467 2 6.0270706911722431e+00 8.7724888884802343e+00 7.0807252509654885e+00 0 0 0
468 2 4.6493644938621239e+00 9.5734193322043559e+00 7.3700412335697703e+00 0 0 0
544 1 4.3018684921791976e+00 1.4727405484278428e+01 1.0170821340428279e+01 0 0 0
470 2 9.1103084556688341e+00 1.0274704829903669e+01 7.2679239029197227e+00 0 0 0
471 2 8.7092927842084809e+00 8.9037656162518797e+00 8.1089183459857246e+00 0 0 0
573 2 1.4289890288444054e+00 1.6299458927429761e+01 9.8130739303257712e+00 0 0 0
487 1 7.4653721261912773e+00 1.2494586841023361e+01 8.9841208552488947e+00 0 0 0
488 2 7.9271685212641820e+00 1.2496136511727538e+01 8.1174595249061845e+00 0 0 0
489 2 6.5551089357136032e+00 1.2466809348610113e+01 8.6058308546280067e+00 0 0 0
499 1 7.2020388399048683e+00 8.3943542809566356e+00 9.2006213243247057e+00 0 0 0
500 2 7.4790736972777729e+00 8.7703951151158481e+00 1.0055933350196936e+01 0 0 0
501 2 6.5520452722476135e+00 8.9643909515004943e+00 8.7280622239736534e+00 0 0 0
372 2 8.1295276479536938e+00 4.8349942222397084e+00 1.0280670258732282e+01 0 0 0
250 1 5.3559791463794921e+00 1.5731658165183175e+01 4.3042457910706067e-01 0 0 0
541 1 2.6024744637505997e+00 1.6391594620440380e+01 6.8242548980684017e+00 0 0 0
542 2 2.2833384124710854e+00 1.6204539195187600e+01 7.7711440568620569e+00 0 0 0
543 2 2.3522192283074954e+00 1.5704442597494127e+01 6.1242825058212160e+00 0 0 0
553 1 4.7991795329351383e+00 1.9001180517619595e+01 8.7509359188156228e+00 0 0 0
554 2 5.7098245704956474e+00 1.8897214299438836e+01 8.5670488274388550e+00 0 0 0
555 2 4.2302179459941032e+00 1.9069131536774002e+01 7.9529975304132146e+00 0 0 0
150 2 9.9759274530786133e+00 7.7181680989264088e+00 3.9046982779094752e+00 0 0 0
559 1 9.8075905043584388e-01 1.9340716986841180e+01 8.5730008805330282e+00 0 0 0
560 2 1.8018308655107689e+00 1.8986770091078441e+01 8.1669758196776634e+00 0 0 0
561 2 1.0963594078783374e+00 1.8877318480435918e+01 9.4090786253948924e+00 0 0 0
571 1 1.3393281422879517e+00 1.5690732205396131e+01 8.9826724850816859e+00 0 0 0
574 1 5.2086389962459281e+00 1.5702828941641688e+01 7.1131485497934230e+00 0 0 0
575 2 5.6040166792787094e+00 1.5584680919366617e+01 7.9848576808992613e+00 0 0 0
576 2 4.2463548104497617e+00 1.5793175246967650e+01 7.2511500868637384e+00 0 0 0
577 1 8.8758154825703528e+00 1.6041888489675927e+01 7.1657756485307615e+00 0 0 0
578 2 8.9812518044577381e+00 1.7005400871963268e+01 6.9635076118327923e+00 0 0 0
579 2 8.2448056859580330e+00 1.5893870469818642e+01 7.9288001410732596e+00 0 0 0
465 2 7.8102364817883596e-01 8.4744326925864009e+00 9.3876892890609813e+00 0 0 0
595 1 7.4098496022095253e+00 1.8989265396947943e+01 8.9046980449864019e+00 0 0 0
596 2 7.5010726304949342e+00 2.8983244830232580e-01 9.0324688604118943e+00 0 0 0
597 2 7.7276204064009288e+00 1.8545424281815102e+01 9.7236458516640418e+00 0 0 0
607 1 7.1195036276085819e+00 1.5407032032219604e+01 9.1089633283382874e+00 0 0 0
608 2 7.0643576420137393e+00 1.4465212101355684e+01 9.2707441330594413e+00 0 0 0
59 2 9.2046815619834792e+00 9.6335083686020362e-01 4.2727179768772672e+00 0 0 0
142 1 5.3229679487875110e+00 8.9636670598746893e+00 5.6541036175693038e-01 0 0 0
711 2 8.7563038944500455e+00 5.6309773054454055e+00 9.3386344830194101e-01 0 0 0
170 2 9.9707244244396716e+00 1.2448844010115542e+01 7.3350490326855606e+00 0 0 0
448 1 4.1622121493707640e+00 1.0603916883213426e+01 1.0280427779110319e+01 0 0 0
437 2 4.2610267375525668e+00 8.8044938573954852e+00 1.0231266025634275e+01 0 0 0
218 2 3.6966698061729959e+00 1.5790062075611745e+01 4.8658531580524955e-01 0 0 0
443 2 1.2566249056308951e+00 1.0458921769377946e+01 9.9890346217365185e+00 0 0 0
449 2 3.1817160916828100e+00 1.0819756783060290e+01 1.0341329624523702e+01 0 0 0
219 2 2.9005702102801880e+00 1.7027447123067851e+01 3.7852769787283902e-01 0 0 0
1 1 2.9261693152970496e+00 2.5977367582031028e+00 2.6254846012279165e-01 0 0 0
36 2 5.6209982456128218e+00 3.5357397797760326e+00 4.1725966237738898e-01 0 0 1
217 1 2.7543776096443255e+00 1.6035098009588069e+01 3.3775801219707613e-01 0 0 0
479 2 7.8178823681996175e+00 1.1342907048452151e+01 1.0218476460739316e+01 0 0 0
710 2 9.2822350913265108e+00 4.2782399483739892e+00 2.0527024243647077e+01 0 0 0
334 1 1.2209194609450225e+00 4.5681910337305158e+00 1.0498995681574288e+01 0 0 0
146 2 9.0264410597715177e+00 1.0113843000341477e+01 1.9934084728719618e+01 0 0 0
926 2 9.1124720402897541e+00 1.8138284362010154e+01 2.0105150041147581e+01 0 0 0
336 2 5.8372307061351214e-01 4.4484104716777244e+00 1.1259877640070387e+01 0 0 0
474 2 9.8835863217359279e+00 7.5388064737208289e+00 1.0765369105381408e+01 0 0 0
331 1 5.7807577068740432e+00 4.5699599654679890e+00 1.2288420436354311e+01 0 0 0
332 2 6.6080708923786675e+00 4.2171397197071609e+00 1.2004182126490777e+01 0 0 0
333 2 5.0170494720993934e+00 4.3728143849423891e+00 1.1720020673297441e+01 0 0 0
513 2 4.5898511092790861e-01 1.1475530182396849e+01 1.1947712140057149e+01 0 0 0
673 1 2.7349588705282506e+00 5.2918530912805117e+00 2.0484834075638268e+01 0 0 0
39 2 9.0575779916807182e+00 2.2206215053211751e+00 1.9813456467090141e+01 0 0 0
346 1 1.8041229509968366e+00 9.6686471060015400e-01 1.2286917721810344e+01 0 0 0
347 2 2.3646214765672386e+00 9.6148850196986801e-01 1.1502946417865589e+01 0 0 0
348 2 2.0748085283287199e+00 1.7212677840917527e+00 1.2843956302253636e+01 0 0 0
349 1 2.6505675583263115e+00 5.7866363820927429e+00 1.3381503564509577e+01 0 0 0
350 2 2.5129675179033697e+00 6.3265351075563849e+00 1.2648183326071701e+01 0 0 0
351 2 2.3313383567915942e+00 4.9081746941464131e+00 1.3207269660199128e+01 0 0 0
352 1 5.8345972546126594e+00 8.9995437392599176e-01 1.2426666472942728e+01 0 0 0
353 2 6.7984612361786603e+00 1.0674175939654287e+00 1.2242445977703726e+01 0 0 0
354 2 5.8630534205871987e+00 1.9620010530983159e+01 1.2695992800447128e+01 0 0 0
707 2 9.4000684391151417e+00 1.0158649743656771e+00 1.7891681708142848e+01 0 0 0
382 1 8.5382932492186097e+00 6.8290154864174324e-01 1.2089711357989804e+01 0 0 0
383 2 8.9438764108372926e+00 1.9559554891378767e+01 1.2474519220679689e+01 0 -1 0
599 2 9.2771301231875647e+00 1.3777331111799111e+01 1.1254406784467264e+01 0 0 0
385 1 8.7118143174177831e+00 5.3073029999740298e+00 1.3722103225768178e+01 0 0 0
386 2 8.6249182441419734e+00 4.3874919300295909e+00 1.3691490916793533e+01 0 0 0
387 2 8.0043718474975449e+00 5.7240387877973165e+00 1.4264303536805599e+01 0 0 0
552 2 2.5947380734271870e+00 1.7562456917153412e+01 1.1221850685676086e+01 0 0 0
550 1 1.7565745210842283e+00 1.7819427521656699e+01 1.0863648605731905e+01 0 0 0
439 1 5.5774070615489135e+00 1.1341706718026950e+01 1.2392327511687801e+01 0 0 0
440 2 5.6709858394882708e+00 1.2343207394708346e+01 1.2389985575346346e+01 0 0 0
441 2 5.0184075271525463e+00 1.1159626635735018e+01 1.1626632512519956e+01 0 0 0
341 2 2.9314588291980246e+00 4.1167409740625791e+00 1.0930303038425970e+01 0 0 0
454 1 1.6030504246051926e+00 7.5884613869843136e+00 1.1450562659031966e+01 0 0 0
455 2 2.4674510379920247e+00 7.6871159663293733e+00 1.0932309208605027e+01 0 0 0
456 2 1.8381606561051476e+00 8.2638489905148287e+00 1.2125931671947273e+01 0 0 0
457 1 2.4590292635170830e+00 1.2002128718189052e+01 1.3583185578642384e+01 0 0 0
458 2 3.3529734759732577e+00 1.2107417230399339e+01 1.4021002262894166e+01 0 0 0
459 2 1.9037647164807781e+00 1.2351086612751224e+01 1.4336196322977599e+01 0 0 0
460 1 5.5657600404800496e+00 7.3484532509569496e+00 1.2424343766164194e+01 0 0 0
461 2 5.3331852169095768e+00 6.4437776600473713e+00 1.2718389990909845e+01 0 0 0
462 2 6.5573755630693773e+00 7.3787651779150494e+00 1.2150309330886470e+01 0 0 0
551 2 1.1364513420075015e+00 1.7941485392866774e+01 1.1525328531814603e+01 0 0 0
480 2 7.2734734638219152e+00 1.0602884149468757e+01 1.1494090175401679e+01 0 0 0
384 2 9.2624384313791950e+00 1.0165786275444237e+00 1.1496817188350439e+01 0 0 0
490 1 8.5150918710384627e+00 7.2671240638062349e+00 1.1850618713985215e+01 0 0 0
491 2 8.5434871252599418e+00 6.4230119057608031e+00 1.2309934518430349e+01 0 0 0
492 2 8.5805557354688311e+00 8.0064621652466172e+00 1.2445567401507512e+01 0 0 0
493 1 9.3764753861869110e+00 1.1879320031743532e+01 1.3935544886926056e+01 0 0 0
494 2 8.6126067900460850e+00 1.2059381538669131e+01 1.4551012003825967e+01 0 0 0
495 2 9.0035343028078820e+00 1.2319768222474579e+01 1.3106322947531385e+01 0 0 0
442 1 1.5696101964665541e+00 1.1192002532923906e+01 1.0592067555759543e+01 0 0 0
426 2 2.3344336993459497e-01 1.0677583699716733e+00 1.2004823927211106e+01 0 0 0
330 2 4.4825377634949737e+00 1.0293954580004190e+00 1.1220856443096091e+01 0 0 0
925 1 9.2814478010411428e+00 1.8980023837204151e+01 2.0439597080252810e+01 0 0 0
546 2 4.8342427806244892e+00 1.4417109385255301e+01 1.0953486954157137e+01 0 0 0
876 2 7.1598167605629237e-01 1.7963238806574878e+01 1.8091890361101015e+01 0 0 0
547 1 6.0722941223112592e+00 1.7860272871358660e+01 1.2741299202501693e+01 0 0 0
548 2 5.4367493255124986e+00 1.7586299112701511e+01 1.2006889232139931e+01 0 0 0
549 2 5.7952251154666516e+00 1.7313794036795926e+01 1.3487118646607374e+01 0 0 0
587 2 9.2109876516996394e+00 1.7111858364904208e+01 1.0945357967944167e+01 0 0 0
562 1 2.2444206890128293e+00 1.4278422685027168e+01 1.1937130670403050e+01 0 0 0
563 2 1.2798531191223146e+00 1.4329142827383425e+01 1.1903929997300045e+01 0 0 0
564 2 2.4035669069266667e+00 1.3365879995927662e+01 1.2293926797219285e+01 0 0 0
565 1 2.8759455044177225e+00 1.8642660226441116e+01 1.3746578735027931e+01 0 0 0
566 2 2.6528606119507536e+00 1.9328151005419265e+01 1.3070076970160949e+01 0 0 0
567 2 3.7403658810225120e+00 1.8914491592625509e+01 1.4102240589511693e+01 0 0 0
568 1 5.8456262066428177e+00 1.4046219170861937e+01 1.2226724904041893e+01 0 0 0
569 2 6.8141563614291245e+00 1.3951246462698009e+01 1.2076447916679308e+01 0 0 0
570 2 5.6226458496705538e+00 1.4571176924745069e+01 1.3102020646037309e+01 0 0 0
858 2 4.8765273150916477e-01 7.4221525280374019e+00 1.9073749487888776e+01 0 0 0
438 2 4.7231644988151453e+00 7.6547473983823702e+00 1.1217084162799683e+01 0 0 0
588 2 7.8201955746402563e+00 1.7388000825086678e+01 1.1665347290847953e+01 0 0 0
598 1 8.6566515224185778e+00 1.3676171548603543e+01 1.1953370436806129e+01 0 0 0
371 2 9.2860620992810272e+00 3.9554632188712113e+00 1.0763971820637282e+01 0 0 0
600 2 8.8050249531544242e+00 1.4400878635082357e+01 1.2530122477487394e+01 0 0 0
601 1 9.5620034008368524e+00 1.8264224079643554e+01 1.3620049087201211e+01 0 0 0
603 2 8.9517291565470796e+00 1.8545852944273847e+01 1.4361197809300453e+01 0 0 0
586 1 8.2233112966291539e+00 1.7160948540982588e+01 1.0822737763355025e+01 0 0 0
110 2 2.2023034284876850e+00 8.9599337060351285e+00 1.9900902954175990e+01 0 0 0
649 1 2.6130138633226383e+00 2.9397356166240471e+00 1.3701900280250914e+01 0 0 0
650 2 3.4824325537820697e+00 2.5544545635376066e+00 1.3874961300190453e+01 0 0 0
651 2 2.0727124373149715e+00 2.8049861014251074e+00 1.4545007864853316e+01 0 0 0
652 1 4.3232290330497793e+00 1.2094046953083530e+00 1.7104378568986128e+01 0 0 0
653 2 4.3706985976937602e+00 2.1547531929791082e+00 1.7018607654446789e+01 0 0 0
654 2 4.9250353008910883e+00 1.1064679081387034e+00 1.7877794557155212e+01 0 0 0
655 1 6.2450866186306095e+00 4.4139114202873158e+00 1.9465626721224140e+01 0 0 0
656 2 6.0917374599877219e+00 5.4266504485701139e+00 1.9543550191136383e+01 0 0 0
657 2 7.0057245679196711e+00 4.3649282377370975e+00 1.8802131368155102e+01 0 0 0
658 1 1.4260560642734810e+00 4.2874406959904716e+00 1.7654586441495681e+01 0 0 0
659 2 1.1795725895654368e+00 3.4362231881651932e+00 1.7184138610034317e+01 0 0 0
660 2 1.2718751531528367e+00 4.9635158553657002e+00 1.6923652945341686e+01 0 0 0
661 1 4.5161702016929217e+00 5.4010857633141782e+00 1.5324035173917833e+01 0 0 0
662 2 4.2656044785756109e+00 4.8611915956030369e+00 1.6160851946560221e+01 0 0 0
663 2 3.7250327728520447e+00 5.3235742732481244e+00 1.4768422689678486e+01 0 0 0
664 1 4.0823973878171937e+00 4.0404719083520515e+00 1.7646055084989840e+01 0 0 0
665 2 3.1268925855080134e+00 4.2388093997206662e+00 1.7835047613801159e+01 0 0 0
666 2 4.4895521357458010e+00 4.1546889409476311e+00 1.8487882562503934e+01 0 0 0
667 1 9.6394206770654001e-01 6.0946801568100630e+00 1.5735002041025444e+01 0 0 0
668 2 8.3336074417705919e-01 6.9591852889431340e+00 1.6086455529874474e+01 0 0 0
669 2 1.3797371279040243e+00 6.2956074838168767e+00 1.4877150833043812e+01 0 0 0
670 1 2.1687051984238357e+00 9.2410914011727496e-01 1.8725816201381896e+01 0 0 0
671 2 2.3841802692309773e+00 1.5689318558174790e+00 1.9436592831698661e+01 0 0 0
672 2 2.8682451313638722e+00 1.0147925037362837e+00 1.8090671222856855e+01 0 0 0
676 1 6.0668791249837737e+00 7.4607124872991526e-01 1.9223055229966903e+01 0 0 0
677 2 5.9175342527195474e+00 1.1302532386994191e+00 2.0100433058268514e+01 0 0 0
678 2 6.9602496805992837e+00 1.0010387253913917e+00 1.8907194049394057e+01 0 0 0
679 1 9.6815788181680185e-01 2.2521424053573837e+00 1.5836982325192160e+01 0 0 0
933 2 8.3124680866672662e+00 1.5275256709729579e+01 1.5479055753793975e+01 0 0 0
681 2 9.8252875899962588e-01 1.2326057148341947e+00 1.5945741036160479e+01 0 0 0
682 1 5.1785844410370556e+00 2.4306207809131721e+00 1.4464942080383521e+01 0 0 0
683 2 5.3413103172143588e+00 3.3356119045367922e+00 1.4083015219536826e+01 0 0 0
684 2 5.4816598070173272e+00 1.7924207639024392e+00 1.3700479172814509e+01 0 0 0
685 1 9.0624572128507488e+00 2.7036323079174158e+00 1.3790743677111275e+01 0 0 0
687 2 8.8393762997322334e+00 2.0627427974087480e+00 1.3069300170565239e+01 0 0 0
694 1 8.0567258420262249e+00 4.0268211531741844e+00 1.7333471272234334e+01 0 0 0
695 2 8.9796298401087213e+00 3.8675827907712801e+00 1.7534877441358056e+01 0 0 0
696 2 7.7809451185971401e+00 3.0672293094342038e+00 1.7070984915734925e+01 0 0 0
703 1 7.0700290678909070e+00 6.0664432764711211e+00 1.5809456693294710e+01 0 0 0
704 2 7.4935252658680618e+00 5.4414904804440392e+00 1.6389040589167436e+01 0 0 0
705 2 6.2248960701139300e+00 5.6852130459953170e+00 1.5547082111994376e+01 0 0 0
706 1 8.7430895455741506e+00 1.0560620243446983e+00 1.8661675066533064e+01 0 0 0
109 1 2.0714327407845623e+00 9.8329008181245570e+00 2.0347455239188136e+01 0 0 -1
708 2 9.0191370314499935e+00 2.1440811992229153e-01 1.9225232932587765e+01 0 0 0
715 1 7.4660980955706107e+00 1.7272976304630729e+00 1.5685834494549674e+01 0 0 0
716 2 6.5887863634765935e+00 2.0582253787048286e+00 1.5390551876267795e+01 0 0 0