LAMMPS data file via write_data, version 3 Mar 2020, timestep = 1000000

1008 atoms
2 atom types

2.1401580573077617e-01 1.8185539194261658e+01 xlo xhi
3.3753031180978610e-02 2.2536635968811801e+01 ylo yhi
2.3150328350047289e-01 1.9274212716497502e+01 zlo zhi
2.9286663512915208e-02 -6.7257598968509269e+00 -3.6079199991546802e-02 xy xz yz

Masses

1 16
2 2

Atoms # atomic

1 1 6.6382371657434307e+00 1.0403707390795784e+00 4.7984938972395099e+00 0 0 0
16 1 5.6888655672145090e+00 5.0433854414579971e+00 2.7891778569253212e-01 0 0 0
3 2 7.0717499624320634e+00 1.5223840053997943e+00 4.0257875969836912e+00 0 0 0
4 1 3.9519009753595116e+00 9.5615810580278982e-01 5.0293168231266634e+00 0 0 0
5 2 4.9532720509101420e+00 7.8465855075514523e-01 4.8789941630638376e+00 0 0 0
6 2 3.9644305223869076e+00 1.3971416139741135e+00 5.9107927906293192e+00 0 0 0
7 1 -5.2804447648111896e-01 6.5552991229531612e+00 5.3130855291419623e+00 0 0 0
8 2 -4.7603237935408660e-01 6.4109168628787483e+00 6.2721283115088831e+00 0 0 0
9 2 -1.0860036642820634e+00 7.3577311240743954e+00 5.3085678328446404e+00 0 0 0
10 1 2.1172186317595241e+00 6.4342743000029774e+00 4.9756620212112121e+00 0 0 0
11 2 1.1877340675370616e+00 6.7392417432044196e+00 4.9161105752425485e+00 0 0 0
12 2 2.7304490663180117e+00 7.1914277074354276e+00 5.0916886136429884e+00 0 0 0
165 2 1.6653181154795597e+01 1.0380066761681805e+00 9.5742801260831911e-01 0 0 0
14 2 4.7118621372911491e+00 4.9692584499731884e+00 8.5986704913074608e+00 0 0 0
302 2 1.5353127949692810e+01 1.0549253808295994e+01 7.1788662742625977e+00 0 0 0
70 1 3.8721193549220185e+00 4.1639882398801153e-01 1.7298697970258097e+00 0 0 0
18 2 5.5807277865207165e+00 5.5396642137475895e+00 1.1117273870882487e+00 0 0 0
524 2 -3.0437611532809479e+00 3.4939752577043515e+00 9.6699740752735650e+00 0 0 0
584 2 2.9252254257884260e+00 5.5117553370930694e-01 9.0067351745353257e+00 0 0 0
21 2 7.8146824955685412e-01 2.1842002347791398e+00 1.2291826399994350e+00 0 0 0
290 2 1.5829017723433196e+01 1.0674752642143316e+01 2.4541178026397135e+00 0 0 0
2 2 7.0209639791807934e+00 1.5313031776799718e-01 4.9440498945619833e+00 0 0 0
254 2 1.6180213994661678e+01 9.5438827405593880e+00 5.4351042900742010e+00 0 0 0
25 1 4.6486385763588469e+00 5.9902318373220220e+00 7.2769668836606405e+00 0 0 0
26 2 5.2047559412254145e+00 6.7734152466977635e+00 7.4712229966073354e+00 0 0 0
27 2 3.7802980686884520e+00 6.4024731813357416e+00 7.4042151029253214e+00 0 0 0
28 1 5.8395845116682406e+00 6.6832007948301868e+00 2.7050195430172073e+00 0 0 0
29 2 5.6021296355734060e+00 6.0444691767236964e+00 3.3660047951488199e+00 0 0 0
30 2 4.9837462991825285e+00 7.0698645704051195e+00 2.3385146274817212e+00 0 0 0
31 1 1.2258959382635548e+00 9.7607197773374921e-01 2.5606438160148315e+00 0 0 0
32 2 2.1634931521925886e+00 9.1063472702145065e-01 2.3552252601299353e+00 0 0 0
33 2 1.1619661847265002e+00 1.4057000063410192e+00 3.4643094506661174e+00 0 0 0
34 1 2.1882146662610458e-01 1.4615575153343348e+00 7.0640991818873298e+00 0 0 0
35 2 -6.9470788346946111e-01 1.0534100290571158e+00 7.1981808726998890e+00 0 0 0
36 2 2.2439514109597569e-01 2.1403056812735670e+00 7.7946425252781593e+00 0 0 0
37 1 6.6800813203775880e+00 2.7127202326847319e+00 2.3551745203867087e+00 0 0 0
38 2 5.7481197263689063e+00 2.8142685602028830e+00 2.5197613624112862e+00 0 0 0
39 2 7.1830490620056304e+00 3.5147234689350944e+00 2.7006960650621088e+00 0 0 0
40 1 3.9368345821767039e+00 2.6552635985525188e+00 7.0650641708317981e+00 0 0 0
41 2 4.7648436396261378e+00 3.1302522959566508e+00 7.2211863346334564e+00 0 0 0
42 2 3.2449718270624981e+00 3.3158535989404467e+00 6.9970167886686339e+00 0 0 0
43 1 -4.9282436298165511e-01 4.8947547422469340e+00 7.4335619378670250e+00 0 0 0
44 2 -1.2297275692320402e+00 4.3255673023305237e+00 7.3078974428849248e+00 0 0 0
45 2 -5.6099274732324433e-01 5.2332548056122423e+00 8.3439321484308451e+00 0 0 0
46 1 1.7449965621066692e+00 4.7734655237369070e+00 2.3588291828736847e+00 0 0 0
47 2 8.0293763665312512e-01 4.5312196882745805e+00 2.4313154426384687e+00 0 0 0
48 2 1.8545294271791175e+00 5.3502691967609275e+00 3.1321638048235281e+00 0 0 0
49 1 6.5366585990049417e+00 3.2221057611532151e+00 6.6525688347724303e+00 0 0 0
50 2 6.1997771946683251e+00 3.7523472900485983e+00 5.8615924011137865e+00 0 0 0
51 2 6.6852089590186417e+00 2.3360642520102930e+00 6.2922133006602232e+00 0 0 0
52 1 4.0428418952546821e+00 3.1818081143763615e+00 3.3033356309927888e+00 0 0 0
53 2 3.2539459476955974e+00 3.2834328980814838e+00 2.7484312128006669e+00 0 0 0
54 2 3.9262386782764795e+00 2.3666702245734892e+00 3.7899276628921759e+00 0 0 0
57 2 -8.7303997445992443e-01 3.9270519378447148e+00 3.9104822997270863e+00 0 0 0
58 1 2.0228876678693291e+00 4.2794876675695273e+00 6.3295566714033455e+00 0 0 0
59 2 2.2786032427129363e+00 5.1754354613065772e+00 5.9667438240077644e+00 0 0 0
60 2 1.2016386253584317e+00 4.4278127464687618e+00 6.7354887865372168e+00 0 0 0
61 1 8.3432113421494218e+00 7.3218709099098724e+00 1.5084525633331891e+00 0 0 0
62 2 7.6285738996967432e+00 7.1574851118413392e+00 2.1053064686784220e+00 0 0 0
63 2 8.5881992006779058e+00 6.4950860207238401e+00 1.0426405585229404e+00 0 0 0
64 1 2.5426890285677541e+00 7.1567377077221694e+00 8.2447386257721611e+00 0 0 0
65 2 1.7459509688692547e+00 7.6303242655210539e+00 7.8989012966774776e+00 0 0 0
66 2 2.9459773146591912e+00 7.7613468354221729e+00 8.9221184935495348e+00 0 0 0
220 1 3.9593054608059712e+00 1.0650773846824412e+01 3.1546779602621764e+00 0 0 0
68 2 -2.4518246787582356e+00 1.3311462622574433e+00 8.5732219117449482e+00 0 0 0
83 2 2.0414798439061297e+00 5.6201769792459109e+00 7.4743992658850600e-01 0 0 0
72 2 4.0554579091551552e+00 1.2977108236840238e+00 1.3058542491586818e+00 0 0 0
73 1 5.4405331300163526e+00 4.8342261811305152e+00 4.8140087223274275e+00 0 0 0
74 2 5.0433943636774998e+00 5.2635388800855649e+00 5.5687598788420622e+00 0 0 0
75 2 4.7715514549188560e+00 4.2292483992156793e+00 4.3320508940103526e+00 0 0 0
76 1 7.3832315105250546e-01 2.3991157844969089e+00 4.6648048842058225e+00 0 0 0
77 2 5.2352199331083815e-01 2.1165918582878351e+00 5.5976635857023451e+00 0 0 0
78 2 1.3390293706735057e+00 3.1468264158013537e+00 4.9150456118131611e+00 0 0 0
293 2 1.3052294153121821e+01 1.0730831420718603e+01 7.2813843526305568e+00 0 0 0
219 2 6.1916438972584444e+00 1.0539434099857379e+01 7.2120763990693808e+00 0 0 0
151 1 6.4754021016979966e+00 3.7090514468860097e-01 8.1607596681134176e+00 0 0 0
85 1 1.5418898034754696e+01 9.1014175727237134e-01 4.9434106857960085e+00 0 0 0
87 2 1.5360943166255149e+01 1.3270072072779138e+00 4.0431993650631899e+00 0 0 0
88 1 1.2645365228737861e+01 1.1551252791953444e+00 5.3231950744688703e+00 0 0 0
89 2 1.2494453392690762e+01 1.8443024259674163e+00 4.6469078618915551e+00 0 0 0
189 2 2.0091524221081212e+00 1.0615352795717524e+01 5.3381943696510337e-01 0 0 0
91 1 8.1456898868498051e+00 6.6973513179458983e+00 5.1140953079155658e+00 0 0 0
92 2 8.0324154074271128e+00 6.0513619241901146e+00 4.3420150984702612e+00 0 0 0
93 2 9.1238243478750274e+00 6.8902348527844941e+00 5.0349762982034951e+00 0 0 0
94 1 1.1018469906666541e+01 6.5012281027986614e+00 4.9378316628068948e+00 0 0 0
95 2 1.1630837907579254e+01 7.2417207911915318e+00 5.1552237394954705e+00 0 0 0
96 2 1.1249765216135534e+01 5.7564592399819769e+00 5.5327295161758228e+00 0 0 0
224 2 -5.8849042826106568e-01 1.0901800513172976e+01 4.2292217735742348e+00 0 0 0
152 2 7.2622588884674784e+00 4.0930012127417309e-01 7.5967305993459568e+00 0 0 0
602 2 1.6268335322565129e+01 4.6275344273051964e+00 6.2185967472857984e-01 0 0 0
101 2 1.4719809432531886e+01 5.3455601076705399e+00 1.1746525407957296e+00 0 0 0
146 2 1.7234634986877651e+01 6.0429229908836719e+00 1.7286513317677583e+00 0 0 0
56 2 -9.2585847132271559e-01 5.4627793460059104e+00 3.7591178510860992e+00 0 0 0
309 2 7.8786935404785741e+00 1.1172520436591624e+01 2.8263116878734964e+00 0 0 0
606 2 1.0611017175251595e+01 4.0602223044228944e+00 9.6727585805112639e+00 0 0 0
109 1 1.3747920305903872e+01 6.4582856275666591e+00 7.1127442940377277e+00 0 0 0
110 2 1.3950773988556557e+01 5.8708759142206439e+00 7.8461933887699447e+00 0 0 0
111 2 1.2837436109277876e+01 6.7383993736579040e+00 7.3575936733468357e+00 0 0 0
112 1 1.4549489960013657e+01 6.6733150437785218e+00 2.5098035578255016e+00 0 0 0
113 2 1.3845737532765034e+01 7.1854740208970629e+00 2.0250838409053102e+00 0 0 0
114 2 1.5363097083461128e+01 7.1680545073770627e+00 2.4754374676301758e+00 0 0 0
115 1 1.0493030490541605e+01 1.3408176254926347e+00 2.5820191450005643e+00 0 0 0
116 2 1.0297547883589267e+01 1.9507599881097109e+00 1.8079664837897238e+00 0 0 0
133 1 1.5565584067710287e+01 3.1830100619968396e+00 6.2645762140333510e+00 0 0 0
118 1 8.9386089493174623e+00 1.2089994984066534e+00 6.9981907292326877e+00 0 0 0
119 2 9.0157503638938561e+00 1.9826705178998765e+00 7.5923206634941822e+00 0 0 0
120 2 9.0861888101605377e+00 1.7429870216439216e+00 6.1585815060477884e+00 0 0 0
121 1 1.5044174202713855e+01 2.5818953688535067e+00 2.8416932978966987e+00 0 0 0
122 2 1.5722389734868843e+01 3.3047945145973316e+00 2.8604234926766998e+00 0 0 0
123 2 1.5192308642312573e+01 2.1820661001181088e+00 1.9447316854596699e+00 0 0 0
124 1 1.3241187403292608e+01 2.6213952254113249e+00 7.4771856943252928e+00 0 0 0
125 2 1.4111695242145300e+01 2.9355262079141711e+00 7.3874521673138274e+00 0 0 0
126 2 1.3117733104650879e+01 2.0280701370998671e+00 6.6872985186260454e+00 0 0 0
127 1 8.5101610932801126e+00 5.0157294594033477e+00 7.2294341766299990e+00 0 0 0
128 2 7.8313495553146577e+00 4.3094673272328858e+00 7.0826077396676368e+00 0 0 0
129 2 8.3083805446375187e+00 5.6524489644700866e+00 6.5357259361214890e+00 0 0 0
130 1 1.1068838724529449e+01 5.1228281286159616e+00 2.3736420427834184e+00 0 0 0
131 2 1.1491119343945638e+01 4.2580368901429839e+00 2.4824168874716221e+00 0 0 0
132 2 1.1322479504152842e+01 5.5633406936977190e+00 3.2000100470962591e+00 0 0 0
134 2 1.5087730297458174e+01 3.9000075014082980e+00 5.7164413438082713e+00 0 0 0
136 1 1.2538151181427812e+01 3.1695932192776266e+00 3.6663850416767407e+00 0 0 0
137 2 1.2919467296498912e+01 4.0331348802963243e+00 4.1196528131002630e+00 0 0 0
138 2 1.3413689079667281e+01 2.9207341709589025e+00 3.2875142155312473e+00 0 0 0
139 1 8.3497185434244354e+00 4.4876088631350255e+00 3.3293730990092243e+00 0 0 0
140 2 9.1335627288248613e+00 4.7849438283958454e+00 2.8549142372656124e+00 0 0 0
141 2 8.6180705286033952e+00 3.9273367492259403e+00 4.0575085700097890e+00 0 0 0
142 1 1.0930471629518745e+01 4.0904464187527596e+00 6.3201225760034170e+00 0 0 0
143 2 1.1595921894967043e+01 3.6631385296813224e+00 6.9163956742345665e+00 0 0 0
144 2 1.0117305416694863e+01 4.3614954837940010e+00 6.7800613695033034e+00 0 0 0
147 2 1.6916680287205807e+01 7.4648705559136825e+00 1.0964734862967327e+00 0 0 0
148 1 1.1292911245243765e+01 6.9991878232884588e+00 8.1752835807381494e+00 0 0 0
149 2 1.1224209072399772e+01 6.2312920544977954e+00 8.7925322748481918e+00 0 0 0
150 2 1.1822830492064581e+01 7.7171058035340607e+00 8.7325549888053846e+00 0 0 0
753 2 4.1995986109485060e+00 9.4982028228548234e+00 9.2811102690885470e+00 0 0 0
69 2 1.4804013555450251e+01 2.3667007416312227e-01 7.6628622112352636e+00 0 0 0
153 2 6.6685697322995479e+00 1.1085453361630941e+00 8.7647578774979955e+00 0 0 0
668 2 1.2920919091430994e+01 1.9514950930508028e+00 8.9128441063887678e+00 0 0 0
155 2 1.3131536357167679e+01 8.3270203540464161e-01 6.9250611351422697e-01 0 0 0
154 1 1.2888530848944532e+01 2.9510600560865996e-01 1.4457321065717443e+00 0 0 0
157 1 1.4267326633259827e+01 5.2061138468126797e+00 4.8424044056230624e+00 0 0 0
158 2 1.4423509799901360e+01 5.9108551287868076e+00 4.0951603876299618e+00 0 0 0
159 2 1.4169464018007339e+01 5.8140688821769198e+00 5.6301857819869747e+00 0 0 0
160 1 9.4593744879436077e+00 2.5437351604544376e+00 4.8408911669980208e+00 0 0 0
161 2 1.0173470440703230e+01 3.1209798300178955e+00 5.3389488038837856e+00 0 0 0
162 2 9.8951682279725119e+00 2.1066809133282107e+00 4.0879139062739265e+00 0 0 0
237 2 1.5193882785952971e+01 7.9300778266666176e+00 7.9271061761216464e+00 0 0 0
321 2 6.9849773445164107e+00 7.1771968859190070e+00 8.7269204087244940e+00 0 0 0
486 2 1.1367402757735652e+01 5.4541789447565070e-01 8.7021954160929376e+00 0 0 0
169 1 6.3481186071623350e+00 8.7525014230257518e+00 4.7760108544397522e+00 0 0 0
170 2 6.9106693516218849e+00 7.9332138928692615e+00 4.7214230944002518e+00 0 0 0
171 2 6.7204097488721111e+00 9.2988049643707473e+00 5.5190083219758401e+00 0 0 0
172 1 3.7024728048901747e+00 8.6769712487206156e+00 5.0699684327333401e+00 0 0 0
173 2 3.6248558164355851e+00 9.3165659609074645e+00 4.3251293180824213e+00 0 0 0
174 2 4.7198979147350295e+00 8.4939168216989263e+00 5.0353643382263735e+00 0 0 0
20 2 4.0496281004235002e-01 3.5665707828430029e+00 4.1070389074033131e-01 0 0 0
167 2 1.1106522390241970e+01 5.8161769915315471e+00 8.6998154306308650e-01 0 0 0
780 2 1.3196274788825516e+01 9.7464375168909960e+00 4.6363751702539469e-01 0 0 0
192 2 6.8355422844691738e-01 9.7133522302454640e+00 8.9028810868855910e+00 0 0 0
199 1 1.4416571854449054e+00 8.5191400287045695e+00 2.7150465505278185e+00 0 0 0
200 2 1.2369766090252723e+00 9.2646603971265851e+00 2.0879481919949798e+00 0 0 0
201 2 7.0326468300485379e-01 7.9404105028471594e+00 2.4538257628319093e+00 0 0 0
202 1 4.6388950997973533e-01 8.3757028847711599e+00 7.6192146370041565e+00 0 0 0
203 2 -5.0219392126038631e-01 8.3273398088107555e+00 7.7656937865275895e+00 0 0 0
204 2 5.8253500404318759e-01 8.8493893535617403e+00 6.7338226206491969e+00 0 0 0
205 1 6.3773035230757831e+00 1.0141615131288781e+01 2.4101303704690809e+00 0 0 0
206 2 6.5940044423640050e+00 9.5996492314432533e+00 3.1694567264428981e+00 0 0 0
207 2 6.7140292169816638e+00 9.8232661915873223e+00 1.5373097063471721e+00 0 0 0
208 1 4.1631544282547237e+00 1.0088550321276617e+01 7.4439712558045104e+00 0 0 0
84 2 3.0093220803505343e+00 6.8188335677571237e+00 6.4686317958285700e-01 0 0 0
210 2 4.2668772701252831e+00 9.4880457991801244e+00 6.6803893919266759e+00 0 0 0
190 1 7.3558431593493001e-01 1.0195152267710535e+01 9.7375429576946928e+00 0 0 0
523 1 -2.4052806472943296e+00 2.6564058047530228e+00 9.7489810668236814e+00 0 0 0
836 2 1.3093935112339496e+01 9.2301269106780115e+00 8.9442370806331741e+00 0 0 0
399 2 8.1874033712088856e+00 3.0620877231759330e-01 1.2600763710524057e+00 0 0 0
304 1 1.2974707086103376e+01 1.0874302229808993e+01 3.8130375097425731e+00 0 0 0
235 1 -2.0686069216425556e+00 8.1513869846380995e+00 8.5240927248244578e+00 0 0 0
236 2 -2.2217389536609669e+00 8.9985337700010231e+00 8.9537747441218869e+00 0 0 0
238 1 3.7176536311707138e+00 7.8261488903487795e+00 1.7814618816307757e+00 0 0 0
239 2 2.9070888113484670e+00 8.0050826948540301e+00 2.2607844013284946e+00 0 0 0
240 2 3.7892372113411721e+00 8.6302684729108439e+00 1.2129377878477037e+00 0 0 0
244 1 6.2051634840509973e-01 9.5610779950337488e+00 5.2381955081432334e+00 0 0 0
245 2 9.5203675192483361e-01 9.2588787651092908e+00 4.3846172906413559e+00 0 0 0
246 2 1.2515456177747020e+00 1.0269019009502463e+01 5.5975413857753136e+00 0 0 0
19 1 9.1267662321428800e-01 2.7237916416803909e+00 4.4801249943215532e-01 0 0 0
217 1 6.8289949898705649e+00 1.0586301405434451e+01 6.5265855484223909e+00 0 0 0
253 1 1.5752890054763538e+01 8.9523311794850837e+00 4.8119826579098328e+00 0 0 0
255 2 1.5808138127582868e+01 9.2984152506268707e+00 3.8565973023391420e+00 0 0 0
256 1 1.2999718452207873e+01 8.7346282804790860e+00 5.2389847778003009e+00 0 0 0
257 2 1.3877148728145796e+01 8.4096732822187370e+00 4.9162135587337783e+00 0 0 0
258 2 1.2825676115029408e+01 9.5151560648072326e+00 4.6843529673282243e+00 0 0 0
311 2 1.1000395609904794e+01 1.0717268817197599e+01 5.9911178735536135e+00 0 0 0
272 2 1.0279238760665836e+01 9.7107178559560747e+00 1.0446365846857968e+00 0 0 0
306 2 1.3693609953625392e+01 1.0611171261876050e+01 3.1351712789790449e+00 0 0 0
90 2 1.3576256269645592e+01 8.9021697358278062e-01 5.1700600513223627e+00 0 0 0
283 1 1.0467100681367876e+01 8.7017494771348272e+00 2.5338852600308397e+00 0 0 0
284 2 1.0179179757934639e+01 8.9842405417076936e+00 3.4190068804885185e+00 0 0 0
285 2 9.6520500384082180e+00 8.1170466714432248e+00 2.2886742042152068e+00 0 0 0
286 1 9.1650991273377773e+00 8.5106707962813850e+00 7.1948939553937334e+00 0 0 0
287 2 9.7706097792560058e+00 7.7912163668473058e+00 7.2903199653920350e+00 0 0 0
288 2 8.3066614571419883e+00 8.0341217031646419e+00 7.1670833662833413e+00 0 0 0
289 1 1.5252048877990456e+01 9.8717301820051588e+00 2.4741352089126400e+00 0 0 0
86 2 1.6134210853622289e+01 2.2299196534945726e-01 4.9541958473907952e+00 0 0 0
291 2 1.5410426114299620e+01 9.4391412726698736e+00 1.6651055533089889e+00 0 0 0
292 1 1.3580556082589114e+01 9.9196988542501678e+00 7.4439586733519825e+00 0 0 0
301 1 -1.8126251416374806e+00 1.0920238985769213e+01 6.7020598982277999e+00 1 0 0
294 2 1.3392881607558351e+01 9.3607062535140475e+00 6.6002578360914619e+00 0 0 0
67 1 -2.3204145928721895e+00 5.5448914657226867e-01 8.0365598337904522e+00 0 0 0
117 2 9.8677580136476255e+00 5.9662539594888864e-01 2.4178011558087302e+00 0 0 0
221 2 4.8084152629211330e+00 1.0614594049303591e+01 2.7136602403513055e+00 0 0 0
305 2 1.2293135599306552e+01 1.1224615115697196e+01 3.2828069282650034e+00 0 0 0
319 1 6.6854970314524502e+00 7.7868513237458972e+00 8.0433129237718788e+00 0 0 0
320 2 6.6618500987927991e+00 8.6430429483994669e+00 8.4814904855145148e+00 0 0 0
526 1 3.7085399836163702e+00 2.8841832246734853e+00 3.6407944096941997e-01 0 0 1
322 1 1.2737521602292766e+01 8.1813555920835785e+00 1.2694252451558401e+00 0 0 0
323 2 1.1966891669617505e+01 8.2068785998149991e+00 1.9446014735723138e+00 0 0 0
324 2 1.2363045242743505e+01 7.4429695111979344e+00 6.9313181419272807e-01 0 0 0
328 1 9.8924805062606040e+00 9.7809054100796970e+00 4.9167815147781591e+00 0 0 0
329 2 9.4180996158795764e+00 9.2772572893062275e+00 5.6295960263475475e+00 0 0 0
330 2 9.1681365531681820e+00 1.0391038442602031e+01 4.5779604304634463e+00 0 0 0
100 1 1.4631206673108895e+01 4.8781774560131410e+00 3.4368449178064081e-01 0 0 0
80 2 7.1753701711188018e+00 2.0559022551855950e+00 8.7384509670870925e-01 0 0 0
583 1 3.5560352512588449e+00 1.2047244762112317e+00 9.3926216257713762e+00 0 0 0
276 2 9.4247117592119043e+00 9.7026010282769306e+00 8.4547398859660134e+00 0 0 0
55 1 1.6853579231695299e+01 4.6513452750041786e+00 3.2828294897028174e+00 -1 0 0
145 1 1.7137564492713267e+01 7.0081489513705257e+00 1.9044389463458338e+00 0 0 0
587 2 -1.5748103229339792e+00 6.6650290052553069e+00 9.4342545510532378e+00 0 0 0
135 2 1.5569062336786851e+01 2.3628491107650884e+00 5.7289785422967894e+00 0 0 0
835 1 1.2741429111740668e+01 8.5841449097288720e+00 9.6186578562042513e+00 0 0 0
585 2 3.8325520151596728e+00 1.7320553078581962e+00 8.6121903920211249e+00 0 0 0
671 2 8.4752890803011329e+00 5.6458791793827947e+00 8.9384718815763176e+00 0 0 0
99 2 1.3073894431995265e+01 4.5930152843192475e+00 9.3223490174028729e+00 0 0 0
156 2 1.2175845340641887e+01 7.9725944120188819e-01 1.9130107892976189e+00 0 0 0
209 2 3.4620954188480066e+00 1.0724132336659354e+01 7.2139055625433466e+00 0 0 0
222 2 3.1912652383877473e+00 1.1029625717708498e+01 2.6086201724556899e+00 0 0 0
13 1 4.6787961818200090e+00 4.4709584128302069e+00 9.4612967355733204e+00 0 0 0
331 1 1.5984779948571976e+01 8.9467631685508717e+00 2.4885963469152506e-01 0 0 0
22 1 3.8529783673187490e-01 2.4517785793600000e+00 9.6445714509615357e+00 0 0 0
274 1 9.5706877878373966e+00 1.0332358226421986e+01 9.1842991366539906e+00 0 0 0
604 1 1.1354583342657358e+01 4.6346218172204070e+00 9.6314661161215902e+00 0 0 0
163 1 1.5999545047529363e+01 1.5970971436826307e+00 5.2826300240055113e-01 0 0 0
485 2 1.0260102623353943e+01 3.3238844284887897e-01 7.6650471227240233e+00 0 0 0
667 1 1.2383422430452482e+01 1.4752877807659412e+00 9.6114920155885777e+00 0 0 0
187 1 1.1044464184198401e+00 1.0314060215013651e+01 5.9527383518074839e-01 0 0 0
17 2 4.9563324447224373e+00 4.3447488393696636e+00 3.0453622843352496e-01 0 0 0
218 2 7.5078148746155629e+00 1.1211710316827141e+01 6.8988032507381707e+00 0 0 0
106 1 9.4174140501922814e+00 2.9869534395485728e+00 9.4889777350053865e+00 0 0 0
102 2 1.4011876609212342e+01 4.1232619387817611e+00 3.9842163498221350e-01 0 0 0
528 2 2.7411116962799542e+00 3.0688229429108920e+00 2.7968273591078857e-01 0 0 0
97 1 1.4001140553320010e+01 4.9254079051408794e+00 9.3529281410588450e+00 0 0 0
776 2 7.6088480516093195e+00 1.0309760050667203e+01 9.6326778236977972e+00 0 0 0
601 1 1.7224190858274191e+01 4.8702785409224516e+00 5.0931644175277990e-01 0 0 1
401 2 1.3583737504762241e+00 3.2342562690620025e-01 7.5939579745341499e+00 0 0 0
521 2 2.0743741422201323e+00 5.4062329184596818e+00 9.4872958177247497e+00 0 0 0
612 2 1.2295604364366705e+01 2.6898211138971795e+00 2.6056884099027344e-01 0 0 0
608 2 5.8727468036342181e+00 3.0240386918905577e+00 9.6555139108225330e+00 0 0 0
248 2 7.7265016410782321e+00 8.6124768774742293e+00 2.5500290840847095e-01 0 0 0
108 2 8.5624383283846068e+00 3.3407354812212309e+00 9.7037309023217855e+00 0 0 0
805 1 1.2463482954599856e+01 1.0713018280996561e+01 1.6032934274132657e+01 0 0 0
105 2 3.2890948237932189e+00 2.1427124187971462e+00 1.8791714253038368e+01 0 0 0
537 2 -1.3284582324686438e+00 8.9865129984835346e-01 1.1880742454321906e+01 0 0 0
509 2 -2.7688295281210529e-02 5.7622089412198585e-01 1.4827151941089562e+01 0 0 0
103 1 3.6204401635877455e+00 2.9959013636763889e+00 1.9235493773621844e+01 0 0 -1
832 1 6.5261845624266037e+00 1.0037896064366024e+01 1.4190029509914368e+01 0 0 0
520 1 2.0642919403613051e+00 4.7877030660684561e+00 1.0229202868046070e+01 0 0 0
275 2 9.7703579655735044e+00 9.7347993379534437e+00 9.9219126584653647e+00 0 0 0
574 1 4.3802130541134732e-01 3.5390637966143373e-01 1.1146003959550463e+01 0 0 0
655 1 3.4550525332911199e+00 6.2071647252157458e-01 1.8030035745334168e+01 0 0 0
778 1 6.4960014073984267e+00 1.0535421955422175e+01 1.8977128991126509e+01 0 0 0
777 2 6.2091957922116752e+00 1.0891419962230179e+01 9.8942850579573989e+00 0 0 0
809 2 1.0244378204084656e+01 1.0331452081943324e+01 1.2463055982487090e+01 0 0 0
659 2 1.0127631249965846e+01 1.1941678485681367e-01 1.1165708753484740e+01 0 1 0
536 2 -2.8808181774807036e+00 4.4098996921992240e-01 1.2024840499941906e+01 0 0 0
694 1 -2.8558005781727420e+00 9.9680180408865695e+00 1.9021222014742118e+01 0 0 0
670 1 8.2330941248844187e+00 6.0994177601845552e+00 9.7609172128890638e+00 0 0 0
620 2 6.3131296685015421e+00 4.0558952525988751e-01 1.2089823646013604e+01 0 0 0
505 1 3.4729570269687668e+00 1.2123572519516643e+00 1.4233890971433567e+01 0 0 0
506 2 3.7350418067943592e+00 1.8363185951784431e+00 1.4934493855842010e+01 0 0 0
834 2 5.8699521471527962e+00 1.0675969553707771e+01 1.3849310966191803e+01 0 0 0
508 1 6.8012497940384886e-01 1.2278066642577110e+00 1.4794373473269195e+01 0 0 0
24 2 -4.8946957070767061e-01 2.7488350017861860e+00 9.7856714413815062e+00 0 0 0
510 2 1.4712768196732915e+00 7.3629098403764404e-01 1.4598696416615681e+01 0 0 0
511 1 -3.6891919678174512e+00 6.5395947819961266e+00 1.4184277997906863e+01 0 0 0
512 2 -4.0062018336852852e+00 5.9122752082097989e+00 1.3504727033778840e+01 0 0 0
513 2 -3.7902925843058632e+00 6.2682036655503834e+00 1.5114252891370436e+01 0 0 0
514 1 -8.4251322331789380e-01 6.4837618793221852e+00 1.4130495718491037e+01 0 0 0
515 2 -8.7139312310971828e-01 5.7888549313662434e+00 1.4760844970905040e+01 0 0 0
516 2 -1.7328837515252622e+00 6.7711470938553697e+00 1.4008301469088428e+01 0 0 0
607 1 6.6104222040960146e+00 2.4554786548851313e+00 9.8226907733419377e+00 0 0 0
519 2 1.6651608337140926e+00 5.3206299329267281e+00 1.8124768814121481e+01 0 0 0
827 2 1.0247944145124178e+01 7.3359174471927551e+00 1.1601551617264656e+01 0 0 0
522 2 2.3722176348640538e+00 5.4050676807398377e+00 1.0972813551769269e+01 0 0 0
794 2 1.2691000897556998e+01 1.0716535544810457e+01 1.1997682174121834e+01 0 0 0
593 2 9.1885346049355174e+00 2.6738294874417179e-01 1.4619734295231497e+01 0 0 0
191 2 7.9270242128875834e-01 9.5071757501766587e+00 1.0465033911691657e+01 0 0 0
724 1 6.3000150241039243e-01 1.0796747004483386e+01 1.2915658732958674e+01 0 0 0
527 2 -2.8242395396561641e+00 2.3956558969718222e+00 1.8547650602939811e+01 0 0 0
529 1 1.3247907993675501e+00 6.4789168395850929e+00 1.6601853258584487e+01 0 0 0
530 2 1.2911554036832662e+00 5.8472244136189300e+00 1.5859108477519229e+01 0 0 0
531 2 4.1822646709574407e-01 6.7853607292336395e+00 1.6744060882419781e+01 0 0 0
532 1 2.7107630013169857e+00 6.3126795905743451e+00 1.2257892316129134e+01 0 0 0
533 2 3.6201687166718894e+00 6.5803807416884608e+00 1.2099536946775926e+01 0 0 0
534 2 2.5640831353852924e+00 5.8835699299673188e+00 1.3134974086202737e+01 0 0 0
535 1 -2.1939568710435289e+00 1.0984091462636245e+00 1.2274473326103022e+01 0 0 0
823 1 3.4947784318096220e+00 7.8729211432382593e+00 1.7545461559701550e+01 0 0 0
808 1 9.5614328938645965e+00 1.0610995536271453e+01 1.3106957574571865e+01 0 0 0
538 1 -3.1586872742660304e+00 1.4784077512175808e+00 1.7004190542379565e+01 0 0 0
539 2 -4.0551623632026743e+00 1.1213325748394749e+00 1.7167292608521397e+01 0 0 0
540 2 -3.1700903168896768e+00 1.8981012935650203e+00 1.6168359588106959e+01 0 0 0
541 1 3.1115833959031294e+00 2.7343087908531647e+00 1.1932591779173634e+01 0 0 0
542 2 3.3710127573361275e+00 2.1261828001482348e+00 1.2685166875295364e+01 0 0 0
543 2 3.1492411881864384e+00 2.2677551608042563e+00 1.1058371766515155e+01 0 0 0
544 1 1.0176238789959742e+00 2.7359823608658456e+00 1.6787432496289700e+01 0 0 0
545 2 8.8653365015611207e-01 2.5177543445793140e+00 1.7733831502608925e+01 0 0 0
546 2 8.7986697182827633e-01 1.8959069303431928e+00 1.6328917821901115e+01 0 0 0
547 1 -3.5015460277744608e+00 5.2524838707907113e+00 1.6621492965782441e+01 0 0 0
548 2 -4.1657785404351122e+00 4.5619590475893892e+00 1.6445277809221444e+01 0 0 0
549 2 -3.6651849469807072e+00 5.5768806140924267e+00 1.7499894014631163e+01 0 0 0
550 1 -1.3686049938842908e+00 4.8877695329123698e+00 1.2048738446086416e+01 0 0 0
551 2 -9.4141410000342951e-01 4.0362881751268356e+00 1.2253869944107175e+01 0 0 0
552 2 -1.1346916233917010e+00 5.4967324845516323e+00 1.2824765202889681e+01 0 0 0
553 1 3.5751270496127709e+00 3.3161176224472628e+00 1.5783961121061731e+01 0 0 0
554 2 2.7662366126204665e+00 3.1157662558208883e+00 1.6317817165281046e+01 0 0 0
555 2 4.1912655189543804e+00 3.9922003194363946e+00 1.6203943628677543e+01 0 0 0
556 1 3.7128295443502868e-01 2.9886178576359193e+00 1.2733691562811829e+01 0 0 0
557 2 1.1335140180285297e+00 2.9342673011257858e+00 1.2162504195550499e+01 0 0 0
558 2 4.5213896646200347e-01 2.3366818432867142e+00 1.3432650480644094e+01 0 0 0
559 1 -3.9688984177118494e+00 4.2857781962480850e+00 1.2551056630300925e+01 0 0 0
560 2 -3.0218215468947540e+00 4.5710632498964863e+00 1.2374740186509111e+01 0 0 0
561 2 -3.8660381433061364e+00 3.5670100399659326e+00 1.3200501522455616e+01 0 0 0
562 1 -1.1076943912182555e+00 4.2915042535352894e+00 1.5767231383658931e+01 0 0 0
563 2 -4.4631680000362284e-01 3.7960543153194091e+00 1.6272850827927044e+01 0 0 0
564 2 -1.8649533502933449e+00 4.5607149859757241e+00 1.6268720614284341e+01 0 0 0
565 1 5.0759874245480230e+00 6.7504147021223826e+00 1.1068114818339330e+01 0 0 0
566 2 4.8193169090739580e+00 7.3675608177824898e+00 1.0364268256414872e+01 0 0 0
567 2 5.2805410678051494e+00 5.9287538625284553e+00 1.0567118687508229e+01 0 0 0
568 1 -1.1924462055923408e+00 7.3244005290144711e+00 1.7572876651750200e+01 0 0 0
569 2 -1.2453159067583117e+00 6.5005369402142481e+00 1.8108375596873110e+01 0 0 0
570 2 -8.8464758098986440e-01 8.0344946270808197e+00 1.8179261058739666e+01 0 0 0
693 2 -1.3354508535313219e+00 1.0572515279251640e+01 9.9913545348277157e+00 0 0 0
572 2 -5.8022100843345159e+00 1.3759698714685251e+00 1.8509615911371309e+01 0 0 0
525 2 -2.4252754125686229e+00 2.3295975979629544e+00 1.0701209185585633e+01 0 0 0
332 2 9.6764532081835863e+00 9.3313472235646362e+00 1.8524773660084669e+01 0 0 0
576 2 5.3470004276955985e-01 1.2683702356793591e+00 1.0694984058832066e+01 0 0 0
577 1 1.8712779208341193e+00 5.0825859963952791e+00 1.4361458696990477e+01 0 0 0
578 2 1.3648949812724993e+00 4.4113473087566009e+00 1.3859742903178551e+01 0 0 0
579 2 2.5592801731047006e+00 4.4800704678183045e+00 1.4760592479644284e+01 0 0 0
580 1 -2.6653682198647539e+00 2.2627540952104241e+00 1.4620926746518235e+01 0 0 0
581 2 -2.6067723937859721e+00 1.6953561868622395e+00 1.3787108448080645e+01 0 0 0
582 2 -1.8313584953967985e+00 2.7751773685000125e+00 1.4764958073645357e+01 0 0 0
824 2 2.6131724272896655e+00 7.5119083186323623e+00 1.7283275878564936e+01 0 0 0
656 2 2.7174139623703004e+00 2.4632181169367184e-01 1.7505885199057484e+01 0 1 0
589 1 1.2530115805632564e+01 1.2022260480878046e+00 1.4161101957412685e+01 0 0 0
590 2 1.1665154182144997e+01 1.0108477326853758e+00 1.4572551815954371e+01 0 0 0
591 2 1.2835946632401994e+01 1.8916688744243615e+00 1.4775140619068361e+01 0 0 0
592 1 9.9039816397515548e+00 8.9946272640299929e-01 1.4935399885102433e+01 0 0 0
507 2 3.8970896973585667e+00 3.5484839826522380e-01 1.4463947383225815e+01 0 0 0
594 2 9.8209782474220333e+00 1.7200539850012078e+00 1.4468040342099076e+01 0 0 0
595 1 4.8851658014499506e+00 6.6002968519573582e+00 1.4252790917025333e+01 0 0 0
596 2 4.9670373729296085e+00 6.3005471325786795e+00 1.5139012039586186e+01 0 0 0
597 2 4.8509807418773230e+00 5.7835196114918235e+00 1.3664653346464858e+01 0 0 0
598 1 7.8951093935432128e+00 6.4168670934405130e+00 1.4637052165899151e+01 0 0 0
599 2 7.0518715411299153e+00 6.5773330454302696e+00 1.5020424809984704e+01 0 0 0
600 2 7.7028282454015109e+00 6.0370341723753045e+00 1.3738649890417786e+01 0 0 0
588 2 -1.2203387125892848e+00 5.5910246334063425e+00 1.0474337041474691e+01 0 0 0
603 2 1.0444675532487334e+01 5.3460290585701635e+00 1.8726240540030698e+01 0 0 0
903 2 4.4676808532856809e+00 3.2222804814236905e-01 1.0315490748126070e+01 0 0 0