LAMMPS data file via write_data, version 3 Mar 2020, timestep = 0

2016 atoms
2 atom types

0.0000000000000000e+00 1.7964336566329404e+01 xlo xhi
-2.3788831131323320e+00 4.7375043090050731e+01 ylo yhi
0.0000000000000000e+00 1.9103537716332859e+01 zlo zhi
4.6624787103467361e-02 -6.6895683235092136e+00 -2.3197972861957794e-02 xy xz yz

Masses

1 16
2 2

Atoms # atomic

579 2 2.8242326370748945e+00 3.6298130929326025e+00 1.7198131434913037e+01 0 0 0
223 1 -1.1839664600841182e+00 5.9959059031654078e+00 1.8716142806152316e+01 -2 0 -2
641 2 1.3506599162736901e+00 9.7695335494763764e+00 1.1515398852172584e+01 4 0 -1
654 2 1.6776928205595155e+01 5.4138660527781450e+00 2.9241394423915503e+00 -2 0 0
394 1 8.6794523851784913e+00 5.6186483271546095e+00 4.8524060231689861e+00 -3 0 -3
578 2 2.5386715753429652e+00 5.0428704797600963e+00 1.6654890303041409e+01 0 0 0
929 2 1.4233140366533803e+01 2.6067635628409684e+00 7.3963686677596812e+00 0 0 0
712 1 -1.7947900723393468e+00 -1.8471290639963129e+00 1.1560085874649870e+01 0 0 3
705 2 -1.1490200140696918e+00 5.3200250317453781e+00 1.3764619409671926e+01 -2 0 -1
302 2 1.0568792881452254e+01 4.0289202170043215e+00 2.7996334216572021e+00 0 0 0
299 2 -4.3751425098672660e+00 -1.8916290867105889e-02 1.6689322611639284e+01 -2 0 -2
896 2 1.6601241954612465e+01 6.9379999327842157e+00 6.2178205374858286e-01 -1 0 0
320 2 1.0050144066188075e+01 -2.3771133257638239e+00 1.3699471648376422e+01 -4 0 -3
406 1 1.6463964868183161e+00 -3.9240483759325473e-01 1.0563883370438617e+01 -2 0 -2
354 2 8.8487023923196553e+00 6.0336306792350562e+00 1.0331488371285488e+01 -1 0 0
596 2 2.0254193883498557e+00 4.8531212461085333e+00 4.4033509598140093e+00 3 0 -2
253 1 1.1562246840375089e+01 9.9778909572249326e+00 1.5610163959060460e+01 -3 0 -3
502 1 4.8997533517500154e+00 -1.9903669360436251e+00 9.5725035796768534e+00 0 0 -1
881 2 1.3893578835411445e+01 1.0645868963168974e+00 8.9187781354088322e+00 -3 0 2
671 2 -1.3952160886445262e+00 -2.1083318305874141e+00 9.5275247270726418e+00 -3 0 -1
53 2 1.2531915570346294e+01 1.7235210551176552e+00 3.2565645751526153e+00 2 0 0
162 2 -4.9104844174459483e-01 6.8448167688382551e+00 1.1453368185800175e+01 1 0 -5
609 2 -1.7737201525173445e+00 -5.4973975465889668e-01 1.9026054962672188e+01 -3 0 -1
1583 2 -5.2097017035692845e+00 1.4484755732808754e+00 1.5144698760251739e+01 0 1 1
122 2 8.6054458911688236e+00 5.4005579065133134e+00 1.6650546172963438e+01 -2 0 -1
295 1 -6.4080508822514703e+00 4.2074074560026027e+00 1.8389317330723134e+01 2 0 2
407 2 1.8373967384084242e+00 -5.0195392979930675e-01 1.1492716963887052e+01 -2 0 -2
707 2 1.5612827525699791e+00 5.4743365117494633e+00 1.4584163065296352e+01 -1 0 -1
972 2 3.5175377133005843e+00 7.2081833888546836e+00 1.8266589736637375e+00 0 0 1
448 1 6.4241472412946798e+00 6.8881951614318790e+00 8.3163779378291167e+00 -1 0 1
244 1 9.7297632056791041e+00 4.9509072545379782e+00 1.1243605191276519e+01 -4 0 -4
503 2 3.9496619225212481e+00 -2.2501813180069297e+00 9.4275252871176214e+00 0 0 0
687 2 2.0708866451123278e+00 -1.8730202556636733e+00 9.8158143095958525e+00 -3 0 0
776 2 1.1878963075457229e+01 -1.8622814925763125e+00 2.8943777409950480e+00 -2 0 2
829 1 1.6414392481228421e+00 9.6436097140735644e+00 3.1155176162996865e+00 -3 0 0
301 1 9.9725764020807599e+00 3.5387469949899915e+00 3.3589154336154521e+00 0 0 0
149 2 8.1667932892920962e+00 6.4058447446389195e+00 1.5130570017479714e+01 -4 0 -1
270 2 -1.5090963771260704e+00 7.9703224717181893e+00 1.5323180286949361e+01 2 0 -1
463 1 3.1254755468850925e+00 5.9701462117947202e+00 3.2443739984835642e+00 2 0 0
449 2 6.5526574805596063e+00 7.6156899557206295e+00 7.6374348230318958e+00 -1 0 1
524 2 3.0097386653745302e+00 5.0439269768936379e-01 1.2893208866561718e+01 -2 0 -4
585 2 -1.9713905062136319e+00 7.2911641679256967e+00 1.3033975432534046e+01 -4 0 -4
523 1 3.9242873517874521e+00 2.4982120757732229e-01 1.2657480177312420e+01 -2 0 -4
658 1 6.2001641407531825e+00 3.2158898474164346e+00 1.5008274208923321e+01 -1 0 -2
206 2 5.6811610403632047e+00 2.3864957914745233e+00 1.1095972515749803e+01 3 0 0
96 2 1.5512404660942709e+01 4.9004223032506111e+00 4.6342796482781470e+00 -2 0 -1
441 2 1.2124876811272589e+00 5.4785364188135377e+00 1.2163577867736903e+01 -2 0 -1
151 1 7.2707341654313566e+00 3.8508492565200036e-01 4.2364582425539945e+00 3 0 0
781 1 -5.2300385963067573e+00 2.0572036562900422e+00 1.8788131603771607e+01 -2 0 -3
880 1 1.3355860884184990e+01 1.3131573280076059e+00 8.1479288274478510e+00 -3 0 2
626 2 1.0382487075671126e+01 1.2317027226992487e+00 4.8792200547112730e-01 0 0 0
531 2 9.5613726399171100e+00 -1.8386625001440802e+00 3.0320242589693644e+00 -1 0 0
703 1 -8.6430102432614930e-01 4.5244617791140769e+00 1.4225829129628101e+01 -2 0 -1
382 1 1.6817571846397836e+01 5.3048985306456213e+00 1.1977834134755652e+00 -2 0 1
21 2 9.9974862556666952e+00 8.5446126868627186e+00 2.7029287917855194e+00 -3 0 -3
762 2 1.0879322241508328e+01 -1.5297680496833581e+00 8.6305232634668283e-01 -3 0 2
54 2 1.1944357157855334e+01 9.1608790222224457e-01 4.4791010465492977e+00 2 0 0
250 1 4.1818677782305027e+00 9.1383317925084313e+00 1.0467793682510131e+01 -3 0 2
689 2 1.2309730063241255e+00 3.9121508974737429e-01 4.6264537901543381e+00 -2 0 0
279 2 7.4335224831987414e+00 9.6554237317608518e+00 6.2016519686046339e+00 -4 0 -1
392 2 4.2494825799237805e+00 6.4241292208987968e+00 1.0483446074613314e+01 -1 0 -1
652 1 -1.0760898303335256e+00 5.4783052749674868e+00 3.9154911529032468e+00 -1 0 0
52 1 1.1719500159272798e+01 1.3224330339965875e+00 3.6252573356263871e+00 2 0 0
356 2 -1.6840881008599231e+00 4.6088938099433197e+00 1.7644244490964500e+01 -4 0 -3
477 2 8.6590645779725346e+00 2.0477521280701865e+00 1.2080824216440682e+01 -1 0 2
500 2 1.4924469805897473e+00 9.1798008159984956e-02 1.3877632110026376e+01 1 0 0
367 1 1.4551389372001626e+01 8.9389149193629418e+00 2.1799822079825408e+00 -2 0 0
806 2 1.3742407599961732e+01 8.2822726580600872e+00 8.4441261648716903e+00 -4 0 1
789 2 8.3579523850018429e+00 8.3738305811160760e+00 1.0518714536108749e+00 -2 0 0
810 2 6.6568012095244047e+00 3.8931011380755534e+00 7.1482042656775793e+00 -4 0 -1
930 2 1.4777665993371413e+01 3.6780530521299513e+00 6.4238471874654532e+00 0 0 0
702 2 4.9057706130243570e+00 -5.5350812798552429e-01 1.6026423854891998e+01 -3 0 -3
501 2 1.2703581524203216e+00 1.5827944080341130e+00 1.3641280438203331e+01 1 0 0
625 1 9.5385427781911485e+00 7.4343013201546393e-01 3.3123298288846664e-01 0 0 0
838 1 1.1156668877919426e+01 9.5348014602531563e+00 1.8353279428440100e+01 -1 0 -3
101 2 4.8882011498524376e+00 5.6318770361097794e+00 1.2537570855815543e+01 -1 0 -1
384 2 1.7403339548379094e+01 4.9063330572342396e+00 4.9903699670115276e-01 -2 0 1
245 2 1.0163017552931617e+01 5.4711772985578833e+00 1.1966888981774961e+01 -4 0 -4
622 1 -1.3322612515836938e+00 -3.2852686638613626e-02 1.3615819479886589e+01 -2 0 -2
624 2 -4.3386013479398322e-01 2.8292902923979968e-01 1.3408405343806624e+01 -2 0 -2
179 2 1.2298414079614320e+01 5.3832018306555316e+00 2.1552314625577624e+00 -3 0 0
1584 2 7.4870859363784730e+00 8.3998085219342222e+00 1.3553607386924458e+01 0 0 0
513 2 8.1351526070628459e+00 -1.9964198807527458e+00 1.6400445909099528e+01 1 0 0
1664 2 4.7007336009651794e+00 9.7291012872699376e+00 1.7449816684519597e+01 -3 1 -1
459 2 7.1787449545033932e-01 -2.2044667345433204e+00 2.8081736058571871e+00 -2 0 -2
600 2 -5.0422435685105249e-01 1.4469742529145879e+00 1.0189692224050278e+01 -3 0 1
49 1 1.0996015206374055e+01 1.8197856544925184e-01 8.5969999931821999e+00 -1 0 0
183 2 1.1826057482128316e+01 3.9873328558034151e+00 8.8019974798265572e+00 -1 0 0
464 2 3.3033731839843314e+00 6.8735511636950637e+00 3.6938189085125015e+00 2 0 0
393 2 4.9669613315684460e+00 6.8097256832171098e+00 9.1433237004435011e+00 -1 0 -1
160 1 3.3028802416610947e-01 6.7986548211431561e+00 1.0918347910311832e+01 1 0 -5
962 2 6.8433169752386735e-01 -2.1338872700070399e+00 1.4114011783688385e+01 -3 0 -1
135 2 3.8045725986606316e-01 3.2275896237013439e+00 1.1037558950149226e+01 1 0 -1
778 1 6.4544000544632549e+00 6.8652626113583199e+00 3.8407379159186696e+00 1 0 0
949 1 -4.8522388010906710e+00 -1.3666387966496829e+00 1.7586602706511048e+01 -1 0 1
598 1 -7.3849752946513814e-01 6.8707121231474533e-01 9.7023748551282729e+00 -3 0 1
120 2 6.1381645207814239e+00 2.5735101972105392e+00 2.3859793745507361e+00 -2 0 -2
858 2 -5.0035334528076225e-01 7.6711443543561622e+00 7.5351573959193141e+00 -1 0 -3
640 1 1.5377784717338705e+00 9.1056596829648058e+00 1.0819885029088562e+01 4 0 -1
753 2 1.2382149427577424e+01 4.7959201175130186e+00 1.5447019636165917e+01 -1 0 2
538 1 2.2970541986423783e+00 -1.7443711695258384e+00 2.1543328491502511e+00 -4 0 -3
119 2 4.8155000768334171e+00 3.2334450472167457e+00 1.8365908922483865e+00 -2 0 -2
525 2 4.2820128368933537e+00 1.0485852171595327e+00 1.2234068869115781e+01 -2 0 -4
252 2 4.9185653654422925e+00 9.6267451734808187e+00 9.9976677602194908e+00 -3 0 1
971 2 3.3556594420294785e+00 8.1635025501673191e+00 5.7646602156239535e-01 0 0 1
620 2 1.7432262709787600e+00 9.6154518297011649e+00 1.3544698235983355e+00 -3 0 0
212 2 7.9970921501703138e+00 2.3163330296655111e+00 8.9235697980306874e+00 -5 0 -2
701 2 4.4258193857007138e+00 1.7431436935328115e-01 1.4620563604374009e+01 -3 0 -3
529 1 8.7607127281897998e+00 -2.1103507054255033e+00 3.4804155302458288e+00 -1 0 0
470 2 1.6702677676912362e+01 1.0500754685327522e+00 2.6140532845270570e-02 -7 0 -2
471 2 1.7305940022410926e+01 -3.2328176990802859e-01 6.0785265989974013e-01 -6 0 -2
708 2 8.1757073103594191e-01 6.2539686513130448e+00 1.5859292998279738e+01 -1 0 -1
268 1 -2.2407559948462001e+00 8.2938158715216037e+00 1.4690325775532060e+01 2 0 -2
46 1 1.0871065815891928e+01 6.0599342743056450e+00 6.4169678447637555e+00 -3 0 0
215 2 -8.7660765069674429e-01 9.2006328868621932e+00 4.2157837383618801e+00 0 0 -2
856 1 -7.5084469561316647e-01 8.4855426823045281e+00 7.0194377014697764e+00 -1 0 -3
627 2 9.8126600248419287e+00 -2.1585248824989378e-01 1.1177985053213449e-01 0 0 0
111 2 7.5223649008253357e-01 6.3644250075784203e-01 1.6672058454422530e+01 1 0 -4
869 2 -2.6088016695526863e+00 5.1346713489580109e+00 9.5476156601002931e+00 2 0 0
16 1 1.1495857245501799e+00 2.8824940171188178e+00 1.4652818010073803e+01 0 0 1
178 1 1.1808810758939277e+01 4.6758050380572387e+00 1.7027939950791251e+00 -3 0 0
974 2 1.0220324842111637e+01 -1.1955439272789723e+00 1.5833465942972840e+01 -4 0 -2
118 1 5.6064566697965503e+00 3.3571589325787103e+00 2.3390272758241477e+00 -2 0 -2
922 1 4.0647171648064173e+00 7.4360762221610894e+00 1.5099257816279069e+01 -3 0 -3
623 2 -1.8867063656136001e+00 7.5205699690211425e-01 1.3489883004129997e+01 -2 0 -2
1668 2 6.2094004765479776e+00 4.1219618402377751e+00 1.4583716571116783e+01 -1 1 -2
644 2 1.2705845295958749e+01 -3.8063386196898641e-01 1.2261995131325783e+01 -4 0 -3
748 1 4.7561902114375920e+00 9.2421090707934450e+00 1.3148318598201874e+01 -3 0 1
83 2 1.4009866231953223e+01 8.1841155291874408e+00 6.2804494892782987e+00 -1 0 -3
239 2 4.7542336742853344e+00 4.4830902121864051e+00 1.7448685917744481e+01 0 0 0
716 2 8.4283462648722018e+00 1.3678095328968749e+00 1.5018215492230709e+00 1 0 2
717 2 8.6132468590189220e+00 2.5235205780926249e+00 2.3822585775664833e+00 1 0 2
240 2 5.8727765459978496e+00 3.7883217838701517e+00 1.6569282824169377e+01 0 0 0
904 1 9.5654475231378928e+00 5.5789538098148475e+00 8.5393959047655155e-01 -3 0 2
17 2 4.3767698657200960e-01 3.6464702399386537e+00 1.4602563927699823e+01 0 0 1
779 2 6.5237242869082426e+00 6.4510669587317189e+00 2.9587125270751424e+00 1 0 0
981 2 1.3463440891966872e+01 9.0827591689829106e+00 1.0509977075184352e+01 -2 0 0
645 2 1.1709086161408859e+01 -1.3236102795274658e+00 1.1479611119260364e+01 -4 0 -3
613 1 -1.8414215825544886e+00 1.7477936933587239e+00 1.7013249303577584e+01 -2 0 -1
246 2 9.2227968491258707e+00 4.2992107811397418e+00 1.1748931111005160e+01 -4 0 -4
238 1 5.7308339346077126e+00 4.2687976693189986e+00 1.7472024618164031e+01 0 0 0
522 2 7.8121220324061245e+00 -1.3608393530509786e+00 1.0664455267108531e+01 -5 0 -2
715 1 7.9304161191588465e+00 1.9127325159487505e+00 2.0818031104328947e+00 1 0 2
115 1 1.3453915887555960e+01 1.9782235009729687e+00 1.2055389414439931e+01 -5 0 -5
426 2 1.4885848577950469e+01 1.8465635822915161e+00 3.1475599227303328e+00 -2 0 1
559 1 9.0064665451683155e+00 -1.8400540776619532e+00 7.6348887585777145e+00 -2 0 1
846 2 6.6259123518011904e+00 -1.9412708335735935e+00 1.2402519548307048e+01 1 0 1
184 1 -2.2533271501101098e+00 -1.8430433956357199e+00 1.8483163924739657e+01 -4 0 -7
933 2 -1.5475906403029898e+00 2.6566889698925529e+00 1.2192644051101226e+01 -2 0 -1
857 2 -3.9715813134718614e-01 8.3580487803238643e+00 6.0678420142833707e+00 -1 0 -3
868 1 -1.9830997934550987e+00 4.5192976861558130e+00 9.0402767077948347e+00 2 0 0
760 1 3.8880581137428791e+00 -1.7708382112538343e+00 1.9037936097166561e+01 -3 0 1
18 2 1.3977727625242711e+00 2.7852453295542814e+00 1.5574966594196399e+01 0 0 1
919 1 1.1207901818439209e+01 -2.0680281242870109e+00 9.8982665219689530e+00 0 0 -2
369 2 1.4078583693519214e+01 9.6689956064001148e+00 1.6988638386184971e+00 -2 0 0
785 2 2.6552118915479190e+00 1.6838208684867197e+00 1.0993617809635847e+00 -3 0 -2
870 2 -2.5545160886023179e+00 4.0401713854994821e+00 8.3668455253471787e+00 2 0 0
211 1 8.7331858455776690e+00 2.6150940036266501e+00 8.3377756767194580e+00 -5 0 -2
387 2 1.9946203962168576e+00 2.6487700577685267e+00 4.3746464767715967e+00 0 0 -2
291 2 1.0485298768373159e+01 9.5800430950764852e+00 7.6785172960273700e+00 0 0 3
643 1 1.1772084464374796e+01 -6.9425758628029732e-01 1.2209181574773243e+01 -4 0 -3
843 2 -1.5110807621205660e+00 -1.5040662511997680e+00 1.5336972293792321e+01 -5 0 -5
977 2 4.8792953621594410e+00 -2.0908639428838196e+00 1.7780664532332484e+01 -3 0 -1
368 2 1.5042559528815175e+01 9.3075394213373830e+00 2.9654968546887832e+00 -2 0 0
116 2 1.2884750850037198e+01 1.7130055352503470e+00 1.2788080704720763e+01 -5 0 -5
224 2 6.1706297277763484e+00 5.8400506976977056e+00 3.1654910903262795e-01 -2 0 -1
845 2 7.5702854377418447e+00 -1.1791758592654722e+00 1.3423155262186558e+01 1 0 1
48 2 1.0909480664172033e+01 5.2764546086164783e+00 7.0507497975351621e+00 -3 0 0
117 2 -3.7195523049462467e+00 2.3005861773700387e+00 1.2478932843444731e+01 -4 0 -5
931 1 -2.1099678065145344e+00 2.4466125255295283e+00 1.2943013558712718e+01 -2 0 -1
429 2 1.1660257415135728e+01 7.2529277361207232e+00 1.3388730959468216e+01 -1 0 -1
385 1 2.5247917119169117e+00 1.8540426373453514e+00 4.4272396670588217e+00 0 0 -2
920 2 1.1165996766488902e+01 -1.3351216177092700e+00 9.2038272671724357e+00 0 0 -2
961 1 1.1551054422692433e+00 -1.6663017116463994e+00 1.4880233583555642e+01 -3 0 -1
42 2 3.2460199131982193e+00 4.9921843398502412e+00 9.2051846619149202e+00 -2 0 3
726 2 -1.3235959925502025e+00 2.2629797447880131e+00 6.9884049505021064e+00 2 0 1
876 2 1.3639185540575502e+01 5.2725827926763591e+00 1.0971964103638786e+01 -3 0 1
769 1 -2.0474620542060507e-02 6.2408749153993863e+00 8.3139145035178945e+00 1 0 -3
1002 2 8.3464708405494257e+00 6.0355400980689389e-01 5.4927379806859546e+00 -1 0 1
4 1 4.1274530006726327e+00 8.6594587668070986e+00 3.9290410308297696e+00 1 0 0
905 2 2.9252267538881975e+00 5.2924499293025473e+00 1.8982701784651749e+01 -3 0 1
41 2 2.6079137431416091e+00 3.8530364964988939e+00 8.3896388636750139e+00 -2 0 3
923 2 4.4797508187009294e+00 7.9918397624645721e+00 1.5771059229383649e+01 -3 0 -3
812 2 1.0479622944033469e+01 4.6624951133105474e-01 1.1598762766248583e+01 -2 0 -1
932 2 -1.9212244580028397e+00 3.1616526457760727e+00 1.3633770505959131e+01 -2 0 -1
672 2 -4.9070890083554142e-01 -1.2406879094761245e+00 8.6125126435326784e+00 -3 0 -1
213 2 8.3110559995617681e+00 3.4469094959418891e+00 7.9838660922451243e+00 -5 0 -2
165 2 8.3847534186047259e+00 8.3957318530598588e+00 1.0580080948736517e+01 2 0 0
251 2 4.1606165461571987e+00 8.2326261939506704e+00 1.0077785402060625e+01 -3 0 1
338 2 3.1909708969180830e+00 4.7609308909601475e+00 1.4078195550050978e+00 -1 0 -1
938 2 1.2094635259326401e+01 7.6222038798640774e+00 2.9619639779772360e+00 1 0 1
969 2 9.6031458549886795e-01 4.7879675468559411e+00 7.5179099650610661e+00 -1 0 1
545 2 2.6922288267249268e+00 1.7060701497371777e+00 1.7867343346759995e+01 2 0 1
386 2 2.7347510116160287e+00 1.5498580849378278e+00 3.5291258827368885e+00 0 0 -2
937 1 1.2919771534821454e+01 7.1167925111639097e+00 2.9686584814547925e+00 1 0 2
40 1 3.3583359387219076e+00 4.0962967037966589e+00 9.0402227592283211e+00 -2 0 3
786 2 3.8818382198310668e+00 7.9428618328672140e-01 1.2297276033802822e+00 -3 0 -2
86 2 1.0566152626425952e+01 -1.8672648947619739e+00 1.8141891589822855e+01 1 0 -3
724 1 -4.9321456900120597e-01 1.7868468205472903e+00 6.9988945997501890e+00 2 0 1
784 1 3.0250033304529396e+00 1.0315363686933234e+00 1.7494036668504669e+00 -3 0 -2
967 1 1.4453580216255397e+00 3.9656288816214822e+00 7.2081053369428609e+00 -1 0 1
553 1 8.5072580720178621e+00 1.3564112905394263e+00 1.8284454443568993e+01 -5 0 -2
681 2 1.1916741276128798e+01 3.0765425354283291e+00 9.5650516929054596e-01 -3 0 -2
649 1 4.8846060102966105e+00 3.0413838943525340e-01 8.2729790236587082e+00 -4 0 0
650 2 4.8080722994012408e+00 -5.0200350337201005e-01 8.7606170711323870e+00 -4 0 0
51 2 1.0250585202954321e+01 3.5316135357079625e-01 7.9872593914925734e+00 -1 0 0
36 2 -1.0793768937357229e+00 6.9825662015558532e-01 3.9189988479064626e+00 -1 0 0
945 2 4.2341193330728064e+00 1.4238020568597367e+00 4.9457304929023049e+00 0 0 3
673 1 -4.5598814873752955e+00 5.6474697909117371e+00 1.6869362133765815e+01 0 0 -4
939 2 1.3594955998975585e+01 7.6951027118365527e+00 2.5432964162519136e+00 1 0 1
397 1 1.3309543263293675e+01 6.7787171550751388e+00 5.5776516924909405e+00 2 0 0
127 1 1.4472227161607595e+01 3.7473901465321022e+00 4.4960672115296185e-01 -2 0 -1
128 2 1.4141398299240883e+01 3.1956890368766278e+00 1.1865719906542171e+00 -2 0 -1
1407 2 1.3192041407143632e+01 6.9892132117743540e+00 4.5987403896887846e+00 2 0 0
34 1 1.6089110789102964e+01 7.4750206202260294e-01 3.3248528338321335e+00 -2 0 0
928 1 1.5032690201367162e+01 3.0994202374897650e+00 7.1757698765517208e+00 0 0 0
777 2 1.1498009697906033e+01 -2.7845656982752587e-01 2.7341598738857442e+00 -2 0 2
152 2 7.4719043856087941e+00 9.3879464137955004e-01 3.4437454749871494e+00 3 0 0
439 1 1.7869462389354576e+00 5.0415559885055190e+00 1.2841576124403206e+01 -2 0 -2
350 2 1.3778306712243046e+01 -1.0021524792534358e+00 6.3086177790033326e-01 2 0 4
844 1 7.5255083364884969e+00 -1.5449718558704855e+00 1.2481035527144019e+01 1 0 1
176 2 4.3280382012683516e+00 -1.6858639043990629e+00 1.2672644405439737e+01 -5 0 1
783 2 -5.0203335367188151e+00 1.5611824311601037e+00 1.7961509028538604e+01 -2 0 -3
148 1 8.2327546037638868e+00 6.6277613925974581e+00 1.4142568258154590e+01 -4 0 -1
164 2 7.9313161873860700e+00 9.3932090511126383e+00 1.1880883249844754e+01 2 0 1
725 2 1.8064151995094946e-01 2.4814184978324052e+00 7.0616897827433691e+00 2 0 1
254 2 1.2081080497123843e+01 9.4177228268703246e+00 1.4965978362451178e+01 -3 0 -3
129 2 1.3667033273745378e+01 4.1071219717566683e+00 7.3866772657768559e-02 -2 0 -1
670 1 -8.4294758830412819e-01 -2.1057367682476054e+00 8.7143416694147007e+00 -3 0 -1
173 2 9.2132176867880666e+00 2.2192851820801112e+00 1.5951241440174154e+01 -1 0 -2
278 2 5.9020294959917390e+00 9.5896752666764957e+00 6.3490970707194236e+00 -4 0 -1
428 2 1.1315989344099673e+01 5.6430791220493361e+00 1.3675656340745192e+01 -1 0 -1
6 2 4.2941037734770582e+00 9.4971019548193656e+00 4.4229039922866411e+00 1 0 0
462 2 1.1438574396933710e+01 4.2379330239028228e+00 1.0759540896079953e+01 -4 0 -2
651 2 5.2377592169655411e+00 3.7161253519577997e-02 7.3910000880717419e+00 -5 0 0
5 2 4.9725355997241873e+00 8.1945825549339304e+00 3.7042401613317466e+00 1 0 0
611 2 -2.3334140587586383e+00 1.0012272767010222e-01 1.0262250154190095e+01 0 0 2
458 2 -3.2212354841393398e-01 -1.8835217896941951e+00 3.9130440059711575e+00 -2 0 -2
750 2 4.4120817894852049e+00 9.0973122207391732e+00 1.2221776052870771e+01 -3 0 1
749 2 4.2674257805128164e+00 8.5687718171548166e+00 1.3678136332884606e+01 -3 0 1
102 2 3.3314486443262856e+00 5.4571842374214663e+00 1.2300657574787950e+01 -1 0 -1
497 2 4.5403400995721643e+00 3.3673213731818841e+00 7.9660923221783078e+00 0 0 1
498 2 4.9202669018648120e+00 2.3803131642351820e+00 6.7867622990373215e+00 0 0 1
395 2 8.9802745892277596e+00 4.8441477109380306e+00 4.3201661633904971e+00 -3 0 -3
924 2 3.1735842289991476e+00 7.1827369647071517e+00 1.5309904456457641e+01 -3 0 -3
349 1 1.3376952914120082e+01 -2.2267742882034192e-01 1.9716540252070144e-01 2 0 4
679 1 1.1901934865848796e+01 2.3048480502788644e+00 3.9855011307478155e-01 -3 0 -2
398 2 1.2488302154890372e+01 6.3905125184572888e+00 5.8637628244313360e+00 2 0 0
540 2 2.4609363466085892e+00 -7.9102094030033920e-01 1.9634394527528114e+00 -4 0 -3
548 2 8.3275326446176727e+00 9.8414855497994846e+00 1.6152506395576513e+01 -3 0 -4
321 2 1.1174338554230246e+01 -1.3415495869699248e+00 1.3579018446457672e+01 -4 0 -3
943 1 4.9682506503520285e+00 1.0864774509100990e+00 5.5213581081349155e+00 0 0 3
763 1 1.2852154759472263e+01 8.5280003670446494e+00 1.3592335358760597e+01 -4 0 -3
269 2 -1.9990146073007651e+00 9.2256220097504400e+00 1.4544244271522212e+01 2 0 -1
220 1 -6.9491551348437408e-01 7.3163582338087512e+00 1.6488848986701477e+01 -2 0 -3
172 1 9.2982716970178778e+00 1.6319385125949779e+00 1.5209554509967507e+01 -1 0 -2
298 1 -4.2589412688735271e+00 9.5259719952924859e-01 1.6522055676401401e+01 -2 0 -2
680 2 5.3027181197358519e+00 2.7029108872859613e+00 1.8643693860733002e+01 -3 0 -3
575 2 6.2515484965942374e+00 9.3481144536471454e+00 1.3173713342170865e+01 0 0 0
745 1 -3.5461090086350713e+00 8.0147652636885756e+00 1.6851516100295751e+01 -2 0 0
944 2 5.6739743249016223e+00 1.0131731649186388e+00 4.7735868197186395e+00 0 0 3
100 1 4.2364093233311548e+00 5.3858296038818310e+00 1.1846577893711556e+01 -1 0 -1
1667 2 5.7017013796331693e+00 2.6678711531295614e+00 1.4352767282852637e+01 -1 1 -2
352 1 8.6375466123995857e+00 6.9160412339399517e+00 9.9274726058172806e+00 -1 0 0
174 2 8.8867845721062668e+00 2.1582397100740156e+00 1.4462322144844876e+01 -1 0 -2
388 1 1.4833447310183129e+01 -1.4618899794074527e+00 4.4297152267392192e+00 -1 0 0
465 2 3.8004263486359995e+00 5.4042700318819739e+00 3.6632293138655889e+00 2 0 0
84 2 1.5395991959667425e+01 8.4964805520095918e+00 6.8939939963578123e+00 -1 0 -3
460 1 1.2313501897835849e+01 3.9801823975649331e+00 1.0465474885975221e+01 -4 0 -2
607 1 5.2688154020608184e+00 3.9538140818286438e-01 1.2983118974211599e-01 -3 0 0
831 2 2.4500772773682780e+00 9.2585512381863655e+00 3.4865519746775573e+00 -3 0 0
841 1 -1.7997728761745289e+00 -2.1370342839852543e+00 1.5984981534724023e+01 -5 0 -5
527 2 3.9969984502857465e+00 -1.9292936425253449e+00 6.0395276325095084e+00 -2 0 0
595 1 1.2940553755830098e+00 4.2330611242639034e+00 4.5701771534609028e+00 3 0 -2
528 2 4.7272253252579652e+00 -6.6445432990978714e-01 5.4366403005094375e+00 -2 0 -1
109 1 3.7207206858261621e-02 -3.9975101673971558e-02 1.6729838373299071e+01 1 0 -4
615 2 -1.1322500731922549e+00 1.0313380621513883e+00 1.6796345196335807e+01 -2 0 -1
992 2 1.4212657689426525e+01 -1.6819476948136813e+00 1.0179763914096874e+01 1 0 1
461 2 1.2559558542148430e+01 3.2035331732111834e+00 1.0927152330628582e+01 -4 0 -2
599 2 -6.0476684092540367e-01 1.0395219981497950e+00 8.7956935170417072e+00 -3 0 1
408 2 7.0122640372065836e-01 -2.2908259593631897e-01 1.0570826151358611e+01 -2 0 -2
185 2 -1.9954982016339669e+00 -1.7904066168831978e+00 1.7472990548814060e+01 -4 0 -7
182 2 1.0425620268387640e+01 3.6168038821789930e+00 8.1819481994072074e+00 -1 0 0
35 2 1.6463556115380655e+01 5.8164826456439789e-01 2.4414693958336113e+00 -2 0 0
216 2 4.5606127321828849e-01 8.5398546858462314e+00 3.8768197822613244e+00 0 0 -2
307 1 -3.5884361673963916e-01 9.9393932012127593e+00 1.7846419343560246e+01 1 0 1
475 1 8.2310920294817329e+00 2.7866145679513883e+00 1.2528745406586870e+01 -1 0 2
68 2 8.0456196268136200e+00 7.5562892641541097e+00 1.7134153618109874e+01 -4 0 -3
526 1 4.8258256889740894e+00 -1.6565231356375509e+00 5.6080681851283796e+00 -2 0 0
133 1 -5.3175675146350754e-01 3.0458439639051491e+00 1.0790587037587180e+01 1 0 -1
610 1 -3.2825344539496464e+00 8.8100684586409628e-02 1.0438519064840607e+01 0 0 2
675 2 -3.7083708227892660e+00 5.1319930464054027e+00 1.6847811496900373e+01 0 0 -4
82 1 1.4411695778717601e+01 8.7315315402965812e+00 7.0080724573818758e+00 -1 0 -2
300 2 -3.2573910965110420e+00 1.1637325970888481e+00 1.6613023565464491e+01 -2 0 -2
214 1 -4.7761046403467955e-01 8.3022582316958378e+00 4.2113139375891384e+00 0 0 -2
782 2 7.0458466668231623e-01 1.5567537144492554e+00 7.8986001051005436e-02 -2 0 -2
690 2 6.9007083360870469e-02 7.1170266105955626e-01 5.5417665054937117e+00 -2 0 0
561 2 8.8894678881310227e+00 -1.1233189459499695e+00 6.9977702981394616e+00 -2 0 1
728 2 5.0799575220595745e+00 6.2919264784419298e+00 1.4420145977638329e+01 0 0 1
113 2 8.1813474919891966e+00 3.6961987761870851e-01 1.5125563017422337e+01 -2 0 -1
979 1 1.3528498073334660e+01 9.6060271609694556e+00 1.1374959975584916e+01 -2 0 0
163 1 8.3781169889839617e+00 9.3161923056850018e+00 1.0971712511781908e+01 2 0 0
222 2 -4.1554795163879898e-01 8.1387169367273025e+00 1.6985554453474141e+01 -2 0 -3
336 2 9.9682389414853958e+00 7.6067972559744810e+00 8.8878387852752283e+00 -2 0 -2
67 1 7.7900722153545798e+00 8.4911351973800517e+00 1.7350108971333633e+01 -4 0 -3
727 1 5.7357597087620302e+00 5.6636403979431762e+00 1.3979580033891249e+01 0 0 1
114 2 6.7286376039806175e+00 1.9520853695564711e-01 1.5254393860788237e+01 -2 0 -1
425 2 1.4134749970371665e+01 3.1428904196671423e+00 3.5205536911414277e+00 -2 0 1
544 1 2.8306001707557371e+00 1.9522168521472114e+00 1.6942489655379127e+01 2 0 1
875 2 1.3835450442793730e+01 6.7706405571363284e+00 1.0235950016116199e+01 -3 0 1
1001 2 8.4703101194593629e+00 1.1180165415307286e+00 6.9718666166217833e+00 -1 0 1
496 1 5.0942757088742496e+00 3.2290253060259415e+00 7.1564490812210373e+00 0 0 1
655 1 5.2027823028246569e+00 9.3397887458658460e+00 1.6696735238546250e+01 -3 0 -1
337 1 3.3765905751416576e+00 3.8592390912351169e+00 1.0316584934010034e+00 -1 0 -1
335 2 1.0778610361931765e+01 7.3141666821296791e+00 7.5577051617585198e+00 -2 0 -2
221 2 -1.1680225304021814e+00 6.8929070475394720e+00 1.7234011651310144e+01 -2 0 -3
504 2 4.9184339846892442e+00 -1.9502900157460645e+00 1.0530830658061481e+01 0 0 -1
583 1 -1.8138438817139457e+00 6.5066800192130554e+00 1.2517121969981785e+01 -4 0 -4
584 2 -2.6357744653758974e+00 6.4025251002839880e+00 1.1952569736957903e+01 -4 0 -4
277 1 6.7204841905954797e+00 9.3518026904467622e+00 6.8037042319866545e+00 -4 0 -1
110 2 3.2640738417213289e-01 -6.7776212989796325e-01 1.6022031014394596e+01 1 0 -4
389 2 1.4226402958867011e+01 -9.8790833412963996e-01 5.0975365532396832e+00 -1 0 0
47 2 1.0097571780978949e+01 5.8974122319254203e+00 5.8537146620736493e+00 -3 0 0
207 2 4.9019647734776548e+00 3.4019980968609049e+00 1.1871704390405970e+01 3 0 0
808 1 7.3843340591208460e+00 4.5835150810517868e+00 7.1939004799530055e+00 -4 0 -1
714 2 -1.8708848660975073e+00 -1.0840634756915934e+00 1.2176103685017694e+01 0 0 3
577 1 2.8405035199880260e+00 4.5980442055743671e+00 1.7482461188029454e+01 0 0 0
19 1 1.0352889915800713e+01 8.8572459863803044e+00 3.6112196963038530e+00 -3 0 -3
1000 1 8.7727269824022542e+00 4.7822420886646766e-01 6.3508663120382032e+00 -1 0 1
294 2 2.2513803410490465e+00 2.0629196592029189e+00 1.0690074088969743e+01 1 0 -3
390 2 1.5258305696824975e+01 -7.1981307021011776e-01 3.9500480806711029e+00 -1 0 0
297 2 -5.7747584683088355e+00 4.8611798674850402e+00 1.7990153367959941e+01 2 0 2
521 2 8.5009324014027197e+00 -1.0145980837180555e+00 9.2827570728529185e+00 -5 0 -2
813 2 9.1311262030364126e+00 1.4093862763740361e-01 1.0867735042910606e+01 -2 0 -1
912 2 1.2418818285688181e+01 -8.6097939790433831e-01 6.0252013054173759e+00 -2 0 1
746 2 -3.0532028771426911e+00 8.3334606481663389e+00 1.6110866937108234e+01 -2 0 0
747 2 -3.9584061350450099e+00 8.7744309389010997e+00 1.7292266500618226e+01 -2 0 0
771 2 3.3038442862404649e-01 6.4929103945453370e+00 9.2023468810421445e+00 1 0 -3
161 2 7.2380150928326925e-01 7.6865290014987533e+00 1.0942324565420563e+01 1 0 -5
809 2 7.7985141287157340e+00 4.7797106623846641e+00 6.3236873821339943e+00 -4 0 -1
866 2 6.6314451974680271e+00 4.4708510345980823e+00 1.7615251840633768e+00 -3 0 0
94 1 1.4661752232857030e+01 4.5841127434828426e+00 4.9463432021559885e+00 -2 0 -1
225 2 4.6727431986304699e+00 6.2235849114565838e+00 1.2871410967884772e-01 -2 0 -1
770 2 -8.4472229850499447e-01 5.7238395201071022e+00 8.4404702929731581e+00 1 0 -3
123 2 7.1099973722944165e+00 5.5664475033258309e+00 1.7101026280933016e+01 -2 0 -1
440 2 1.9951451849699318e+00 4.1721308385888651e+00 1.2448784577999948e+01 -2 0 -2
383 2 1.5947882808222385e+01 4.8884338900777822e+00 1.0265079611390870e+00 -2 0 1
722 2 5.6220953992810383e+00 8.3353205687215102e+00 1.3570849497901749e+00 -5 0 -2
499 1 1.2839953074258190e+00 7.0294325680370839e-01 1.3178081697373729e+01 1 0 1
910 1 1.3054908400568978e+01 -2.2673041243612291e-01 5.6529510014624256e+00 -2 0 1
546 2 3.5474747725556313e+00 1.3993412327188737e+00 1.6625331700809920e+01 2 0 1
950 2 -5.3671724075799565e+00 -1.4131452227355394e+00 1.8409371405439504e+01 -1 0 1
729 2 6.6593022845109280e+00 6.0622097462106055e+00 1.4007471630766343e+01 0 0 1
612 2 -3.5119663686047540e+00 8.4384503753604534e-01 1.0960281082720828e+01 0 0 1
674 2 -4.2731544641661134e+00 6.5858312589773398e+00 1.6754486593488608e+01 0 0 -4
121 1 7.8558234919697281e+00 6.0455886801069951e+00 1.6631042565125256e+01 -2 0 -1
911 2 1.3247710340872047e+01 3.2926419382490835e-01 6.4585907671436296e+00 -2 0 1
424 1 1.4154855996207829e+01 2.4436091866958281e+00 2.8687542563683106e+00 -2 0 1
811 1 9.7969260708202803e+00 8.5172184925120842e-01 1.1008471795755854e+01 -2 0 -1