LAMMPS data file via write_data, version 3 Mar 2020, timestep = 44850000

2016 atoms
2 atom types

0.0000000000000000e+00 1.7964336566329404e+01 xlo xhi
-6.4244148207044347e+00 5.1420574797607273e+01 ylo yhi
0.0000000000000000e+00 1.9103537716332859e+01 zlo zhi
5.4206984890819002e-02 -6.6895683235092136e+00 -2.3197972861957794e-02 xy xz yz

Masses

1 16
2 2

Atoms # atomic

123 2 7.3341250908140747e+00 1.8115267249898803e+00 1.8115235633126009e+01 -2 0 -1
292 1 -5.3250468662475408e+00 -4.4323632682300742e+00 1.8744296844662209e+01 0 0 -2
584 2 9.1472332716736560e-01 2.9551918790331033e+00 1.7935074958633962e+01 -4 0 -5
495 2 1.2858871235411646e+00 -6.1557267907748443e+00 1.4913821381327921e+01 -2 0 -2
26 2 -1.1987945193659921e+00 -2.5872779158676629e-01 3.7472833031103305e+00 -1 0 -3
1063 1 1.0576584954777374e+01 -6.3929361847695532e-01 1.3356111850413269e+01 -1 0 0
1629 2 1.2188347928625880e+01 -1.7434938551700885e+00 1.0336735217148103e+01 1 0 0
285 2 1.0429392273436782e+00 6.6670123184894070e+00 1.1386911442358180e+01 -4 0 1
1375 1 8.0029512646478800e+00 -3.7455086858696758e+00 1.6390756247234489e+01 -1 1 -1
49 1 1.2271224183258770e+01 8.1495632134158580e-01 1.1757700516221924e+01 -2 0 0
238 1 4.6523495550332390e+00 4.0456039878217460e+00 4.8615870924287492e+00 0 0 1
1065 2 1.1047115977318002e+01 -9.0009269655030444e-01 1.4137293539292502e+01 -1 0 0
1666 1 5.3419493023458280e+00 6.0294092394870660e+00 1.2795637108630064e+01 2 0 0
424 1 1.5290812611037296e+01 3.7416090092793155e+00 3.9879998465133601e+00 -3 0 1
1898 2 3.5676376514340600e+00 6.7243989853371247e+00 1.2307433338876463e+00 1 1 1
158 2 8.6762005511538121e+00 -5.9642957609108542e+00 4.1793045051076732e+00 0 0 -1
1377 2 8.8065716429787884e+00 -4.3440013460219689e+00 1.6308431407196739e+01 -1 1 -1
599 2 9.2546853907054096e+00 -2.9065110539934955e+00 4.9337601156078961e+00 -3 0 1
397 1 -4.1827784884799808e+00 7.3973866602245479e+00 1.5809780952994792e+01 3 0 0
436 1 2.8278125334884701e+00 -6.1346819013076077e+00 5.0410342781693407e+00 -3 0 -1
1651 1 1.6716216921226589e+01 2.4594824263205695e+00 6.2078041383707938e-01 -1 0 0
34 1 1.2126490862681656e+01 -1.8458840965985734e+00 1.5295830395281044e+01 -1 0 1
728 2 1.2726735657186811e+01 -4.8066475829374014e+00 4.9615257138668802e+00 1 0 1
50 2 1.2958159774994970e+01 1.4211392291285225e+00 1.2157763764471314e+01 -2 0 0
606 2 -2.4365162588585916e+00 -5.7393247796360498e+00 8.6239533286254471e+00 1 0 2
791 2 1.0414883658686378e+01 -3.0938005419572114e+00 1.0923232058189940e+01 -1 0 0
1440 2 1.3392821271550986e+01 -2.1205307170940904e+00 1.7808263120929353e+00 -1 1 1
288 2 1.3782743453438882e+00 6.6400389329115832e+00 3.1595058618586164e-01 2 0 -2
306 2 7.2092575041975566e+00 -6.1700281192218487e-01 1.0547927999489451e+01 0 0 -2
1001 2 8.8678441527564189e+00 3.6926965974619907e+00 6.2461746996279721e-01 -1 0 2
899 2 2.6086560163857087e-01 -3.4952999222979226e+00 1.3880783292108834e+01 -2 0 2
128 2 2.8889535374810151e+00 1.4706472048176042e+00 3.4459782038235018e+00 -1 0 -1
134 2 7.4199411249706948e-01 7.5894828770011333e+00 1.3461112858562622e+01 1 0 -1
790 1 1.1171464777800768e+01 -2.6020830734277487e+00 1.1329994902517633e+01 -1 0 0
1161 2 3.1956092948946306e+00 1.2082492717931794e+00 9.7811230325942748e+00 1 0 0
609 2 3.8170780539473208e+00 -5.4957630704172633e-01 8.9262748674461818e+00 -3 0 -1
114 2 4.0702677881430773e+00 -2.4110691558665529e+00 5.6342853870376199e+00 -2 0 -1
239 2 4.7315665653135230e+00 3.2919350054452536e+00 4.2772199611981438e+00 0 0 1
1937 2 1.3297323362036586e+01 -5.5713731405058082e+00 1.3053410469303788e+01 0 1 0
526 1 1.6371250319329871e+00 -4.1142833071293783e-01 1.4680047692150088e+01 -2 0 0
386 2 1.2161850418121915e+01 -1.2321672331526479e-02 4.3128103349545883e+00 0 0 -1
401 2 3.5815213455785995e+00 3.7583665552489069e+00 9.8318724429737561e+00 0 0 0
987 2 3.0633065878180403e+00 1.6660306592506959e+00 1.2925049070146414e+01 -2 0 -3
985 1 2.7182640241904963e+00 2.5904796697216526e+00 1.3083736830025854e+01 -2 0 -3
417 2 1.5077336400073025e+00 1.0711972812565582e+00 5.0947694456366870e+00 2 0 -2
1921 1 1.0304700040937240e+01 4.3976405041171027e+00 2.1886305036345091e+00 0 1 1
682 1 1.6513797157816490e+00 -3.9347415262047569e-01 6.5230211293183182e-01 3 0 2
887 2 7.3451938470533751e-01 1.0343869410871598e-01 7.1179038328524538e+00 -1 0 0
1995 2 -4.2469094242202132e-01 -4.2511723840369164e-01 1.8982129495648614e+01 1 1 0
824 2 1.2083010670670935e+01 5.5883683974478870e+00 9.5109860198974285e+00 0 0 1
683 2 2.1978570954030952e+00 -1.1084221001993200e+00 9.8095610704456115e-01 3 0 2
283 1 1.5124652034127237e+00 6.1905299944060239e+00 1.0684211740195357e+01 -4 0 1
163 1 4.2708382180896134e+00 7.0840522240849033e+00 7.0213837154518242e+00 1 0 0
438 2 3.3075942577116884e+00 -5.3219709729698375e+00 5.4281701129138549e+00 -3 0 0
244 1 -2.0446004738436505e+00 -3.4313938925190670e+00 7.6272581936386636e+00 -3 0 -3
27 2 -1.5318694360981406e+00 -1.2907673411472809e+00 4.8595107745970934e+00 -1 0 -3
974 2 9.7488364507802228e+00 3.0437741856290810e+00 5.0295189225188537e+00 -4 0 -1
190 1 6.3822873107367855e+00 -4.4347747475220940e+00 6.0388808503606803e+00 -2 0 -3
100 1 -7.8550049725405113e-01 3.4284528548115745e-01 1.4177109447553784e+01 0 0 -1
152 2 4.8525731245442998e+00 -4.0410994879725832e+00 6.1617688923445977e+00 3 0 1
1470 2 1.0668098200730405e+01 -5.1915585810854763e+00 1.6150707748210383e+01 0 1 -1
1376 2 8.4440244154445701e+00 -2.8618428649506700e+00 1.6273779713589260e+01 -1 1 -1
780 2 6.8697592240774377e+00 6.6396893941684194e+00 8.3622570006496417e+00 1 0 -2
1005 2 1.3726179743875175e+01 -3.8958265766142550e+00 3.0334571319595933e+00 -2 0 -1
1476 2 1.9147269193108749e+00 -5.8611970722318825e+00 8.4993046163489137e+00 0 1 0
1677 2 -1.6801671004429375e+00 5.2071819899709180e+00 1.4117737352379187e+01 0 0 0
597 2 -2.6961608006411848e+00 7.7754116711717352e+00 8.8877409617238250e+00 4 0 -2
900 2 1.2375563583578479e+00 -3.6725708393035577e+00 1.2776757535601380e+01 -2 0 2
671 2 8.6782926202445694e+00 1.3969469472708331e+00 1.5014002056755217e+01 -3 0 -1
1410 2 3.2914107311073173e+00 3.1540413341254254e+00 8.4057487790503469e+00 0 1 0
1003 1 1.4078603212552292e+01 -4.2581804784154400e+00 3.8468947277338641e+00 -2 0 -1
287 2 1.5130180052667941e+00 5.1713133197549563e+00 1.0775047784478131e+00 2 0 -2
999 2 1.4175499931263452e-01 -1.1478553066167034e+00 4.9287834397131652e-01 -2 0 3
1635 2 -1.2936795577833582e-01 4.7050646780387257e+00 8.2591981011159739e+00 0 0 0
1630 1 6.9462771206154033e+00 -4.7688627882770689e+00 1.8731765667230817e+01 -1 0 0
89 2 6.4637928217269014e+00 3.4204403384292039e+00 1.7278732002141233e+01 -2 0 -1
585 2 3.5404623354928955e-01 1.5046353515822020e+00 1.7967805461426650e+01 -4 0 -5
763 1 3.2609004791979626e+00 9.2701697799182803e-02 1.2462808253104461e+01 -3 0 -2
1512 2 8.5710676961688641e+00 3.8049618375653864e+00 1.1695726135699999e+01 0 1 -1
53 2 -1.0369887233969100e+00 -1.0499814173152906e+00 1.2776635838327735e+01 1 0 0
792 2 1.0891450849556140e+01 -1.9834065952384741e+00 1.1983532103959771e+01 -1 0 0
510 2 5.4554312966309055e+00 -3.8267470881898515e+00 2.2055894999382364e+00 1 0 0
1580 2 4.0470787036500750e+00 -5.6060787931520473e-02 1.6625827957880482e+01 0 0 0
788 2 6.6799356098261651e+00 7.2624069586694269e+00 1.6845246109804858e+01 -3 0 -2
294 2 -4.9955035597019375e+00 -5.3028725158018828e+00 1.9052327937876452e+01 0 0 -2
394 1 2.8830076550646435e+00 -3.9479607180880913e+00 1.2724219850720216e+01 -3 0 -4
816 2 6.7512991560193232e+00 -5.6649476111777526e+00 2.8478572634178168e+00 3 0 2
527 2 2.1719224088259184e+00 -3.9286536573004494e-01 1.3905545245558116e+01 -2 0 0
498 2 -3.3043991107964743e-02 3.9658246266498463e+00 6.4139737244722266e+00 0 0 1
918 2 6.0679076016323537e+00 -9.3450233299962626e-01 8.5874282655872367e+00 1 0 3
775 1 1.1259565964839188e+01 7.0068018316534690e+00 4.8396816157751960e-01 -2 0 1
25 1 -7.9938916687086481e-01 -7.8806307758532945e-01 4.4500076172589180e+00 -1 0 -3
82 1 1.2751353411641631e+01 3.2322019734643614e+00 7.4869483633226332e+00 -1 0 -2
630 2 3.7583107811261089e+00 2.1746462529220913e+00 2.0256695065330632e+00 -1 0 3
1394 2 -5.6376848771482839e+00 -4.2286468376484603e+00 1.6985100501630743e+01 0 1 -1
955 1 5.8393960148778556e-01 6.9340521759582536e+00 5.2462564817497412e+00 -1 0 -3
209 2 1.5110969553858498e+01 6.1441314828871789e+00 7.4360218119455483e+00 4 0 -1
396 2 3.4176656710271116e+00 -4.2021243236756360e+00 1.1942352556181770e+01 -3 0 -4
821 2 1.3367727632071290e+01 3.6443508303886727e+00 2.2307303448759979e+00 -5 0 2
425 2 1.4781275603966247e+01 3.0857701768209971e+00 3.4824153026960900e+00 -3 0 1
649 1 2.5916952689899651e+00 -1.5452952932312884e+00 1.8868394745300424e+01 -4 0 -1
487 1 -2.5469248445290393e-01 2.6643655120948875e+00 1.2872832175149108e+01 -5 0 1
1401 2 6.5698266036666517e+00 -5.5007117820567215e+00 6.4706068363728864e-01 -1 1 0
555 2 -2.2496775661361812e+00 -3.8848936388423696e+00 1.6695534641691438e+01 -4 0 -1
586 1 1.3544619143705466e+01 -1.7122147088098938e-01 5.6267282304495989e+00 -1 0 -1
583 1 4.0481853628138875e-01 2.2909649929969724e+00 1.7368940793772602e+01 -4 0 -5
804 2 4.3547595859072104e+00 -4.0880821257485831e+00 9.3761344076328204e+00 -1 0 -1
553 1 -1.5664066884915098e+00 -3.4924309882935511e+00 1.7317554074956725e+01 -4 0 -1
651 2 9.6227583227137270e+00 -1.6933134219212995e+00 6.7388026627606035e-01 -5 0 0
644 2 1.0417953538448273e+01 7.9816201523499757e+00 1.5641401575592500e+01 -4 0 -3
1628 2 1.2333044114547597e+01 -8.1235690460811938e-01 8.9868666611665624e+00 1 0 0
1583 2 5.4260413566881667e+00 3.3357856320397676e+00 9.3375923377815067e+00 0 1 1
855 2 -9.3586632191082458e-02 -4.1687382766999832e+00 4.0465578926882395e-01 -2 0 -1
663 2 1.2695644619432858e+01 7.2819453573112582e+00 4.3187106446387018e+00 -1 0 1
670 1 9.4818199337426616e+00 9.2892456968427162e-01 1.5188404637107569e+01 -3 0 -1
672 2 9.6342628722149364e+00 4.5131574644707584e-01 1.4352528972574849e+01 -3 0 -1
39 2 -1.5704986291451437e+00 2.4681035738642851e+00 1.0199780173890089e+01 -3 0 -3
579 2 9.6238829805214259e+00 -3.0841504086010230e+00 7.0745620214874672e+00 -1 0 0
1588 1 7.1290954435318037e+00 2.0718849198311329e+00 1.4597633540926648e+01 -1 0 1
183 2 1.4210360652342604e+01 5.5977786581254119e+00 1.7352138980592375e+00 -1 0 0
421 1 2.4002593852347762e+00 -2.8824338060023438e+00 1.5488058518059420e+00 -1 0 1
1395 2 1.1994453773655536e+01 -3.3521287290416830e+00 1.5799228724846692e+01 -1 1 -1
794 2 -2.9631651767061977e+00 1.9265307424443527e+00 1.5851139056970656e+01 -1 0 0
406 1 1.2995952285316799e+01 4.8055206920031850e+00 1.2395349126915098e+01 -3 0 -2
460 1 9.6008186029725344e+00 1.2993136479395355e+00 1.1050314709420523e+01 -3 0 -1
1399 1 1.0910295747046916e-01 -5.3880366320097366e+00 1.8793809018036335e+01 -1 1 -1
852 2 1.0373461929075654e+01 1.3385615306782634e+00 3.6253603598194610e+00 -1 0 1
465 2 6.4124795931398770e+00 -3.1639625310921637e-01 1.2830970172804866e+01 1 0 0
428 2 1.3775959479950572e+01 4.4193555117439534e+00 6.4275660273221247e+00 0 0 -1
530 2 5.6221666268686628e+00 -4.7322757566781810e+00 1.1316672686498611e+01 -1 0 0
484 1 -2.9803258686505822e+00 6.5335708293489905e+00 1.3428305077788592e+01 3 0 2
854 2 -4.0076624929695104e-01 -3.6791001934642438e+00 1.7919807914721102e+00 -2 0 -1
572 2 1.9088351450336849e-01 -3.6769968406952698e+00 3.9475604624404568e+00 2 0 4
531 2 4.6426364591088065e+00 -5.9907633331452583e+00 1.1072628441231140e+01 -1 0 0
1653 2 1.7298366610469717e+01 2.9824802157748618e+00 1.0948715462894096e+00 -1 0 0
461 2 9.1071992257343979e+00 1.4288508850547021e+00 1.0234415166529459e+01 -3 0 -1
129 2 3.3575093280513291e+00 3.9437079586239765e-01 4.5513778834923553e+00 -1 0 -1
1475 2 9.7989318033190065e-01 -5.2869786056394243e+00 9.5867758904111771e+00 0 1 0
382 1 9.2749435414410986e+00 -1.2751516801784337e+00 1.6882930504169124e+01 -2 0 -1
1953 2 -2.1828183848844511e+00 -1.8311497211465513e+00 1.0700291774674417e+01 -1 1 -1
509 2 5.6694210968275769e+00 -2.3934448723967874e+00 2.9298101610384637e+00 1 0 0
1499 2 -5.4027793804901192e-01 4.9023538529561161e-01 8.6956051450851799e+00 1 1 -1
777 2 1.1079432991802520e+01 7.8828696873266626e+00 1.0202944438975585e+00 -2 0 1
423 2 3.2900787997604009e+00 -2.9162773153140016e+00 1.9141854120468744e+00 -1 0 1
463 1 5.7015793875973380e+00 -1.1752173809446997e-01 1.3556662210552798e+01 1 0 0
192 2 7.0972857910209166e+00 -4.1108134348178726e+00 6.5890889837794342e+00 -2 0 -3
1474 1 1.6343819160906436e+00 -5.0201200868001488e+00 8.8837407570961080e+00 0 1 0
517 1 1.0411278605026169e+01 -2.0178898256024356e+00 2.1240693554541878e+00 -4 0 -3
83 2 1.3540816922894722e+01 2.6633014912929198e+00 7.5025041376981250e+00 -1 0 -3
145 1 3.2412404818747707e+00 6.5206559067496137e+00 4.7012072075414242e+00 1 0 0
1855 1 1.3755891079184464e+01 -3.3645016032880104e-01 1.5568645155147007e+00 0 1 1
462 2 1.0527706650641694e+01 1.0819395608628195e+00 1.0885586863693861e+01 -3 0 -1
133 1 4.4177410098668535e-01 7.8738926661971167e+00 1.2540806681345623e+01 1 0 -1
751 1 -2.4906939502666767e+00 3.2783007756210765e+00 1.6593159410994389e+01 -1 0 2
618 2 -3.8003258272135585e+00 4.3003823561389787e+00 1.7173182379260680e+01 -2 0 -1
464 2 6.0349108080819978e+00 6.1031517356972742e-01 1.4120055031075825e+01 1 0 0
494 2 1.0014510133504935e+00 -5.9450726884295646e+00 1.6394515759924300e+01 -2 0 -2
853 1 1.7112281676386171e+01 -4.0166037027738781e+00 9.6936200896358005e-01 -3 0 0
980 2 5.3284621854161029e+00 -3.0920053393499263e+00 1.4368891150896625e+01 -2 0 1
822 2 1.3006435999463926e+01 2.1000954909171199e+00 1.9382089004738330e+00 -5 0 2
427 1 1.4138764061308878e+01 5.1141881077385332e+00 5.8820271903939947e+00 0 0 -1
1095 2 7.0421528509976223e+00 4.9980797849027407e+00 8.8768594111431987e-01 1 0 0
660 2 4.7002821362903289e+00 5.3878821486108190e+00 1.2342451257690517e+01 2 0 0
297 2 8.8916103117808234e+00 4.2117678783449684e+00 1.8007910982419780e+01 1 0 2
1905 2 -4.0134115840556461e+00 -3.4309749713386699e+00 1.3124275687588042e+01 -1 1 0
684 2 -4.7665463657895906e+00 -3.1830029884923317e-01 1.8827398024440583e+01 3 0 1
811 1 9.0454174798255629e+00 7.4545618589664606e+00 1.4467052805169029e+01 -1 0 -2
103 1 2.5909762121288153e+00 -6.3578304977039268e+00 1.3780107220003819e+01 1 0 1
1976 2 7.5361593089111203e+00 2.5707015674359965e+00 8.9555566318944368e+00 -1 1 0
35 2 -5.0099734250169536e+00 -1.8334436606065614e+00 1.4746603596413520e+01 0 0 1
772 1 9.3189937428122072e+00 -4.3207414411999494e+00 1.0217735789695976e+01 0 0 -1
1903 1 1.3395388581145465e+01 -4.0004638983958625e+00 1.2490297285049291e+01 -2 1 0
735 2 1.1283967261568328e+01 2.3418315425564664e+00 7.8763336783984856e+00 -3 0 -1
513 2 8.1695095098611645e+00 -5.8963597095738862e+00 1.3346818168194039e+01 1 0 0
1009 1 7.1019612844985067e+00 4.7395431863906303e+00 5.8795312551489767e+00 1 0 0
1494 2 -3.3125162810448172e+00 7.0516338261891409e+00 1.4206679987319266e+01 3 0 2
378 2 -5.4924295626176081e+00 7.5021325332146827e-01 1.7123780212555822e+01 -1 0 -3
518 2 9.7909973174753180e+00 -2.5765744162732749e+00 2.6874566944118938e+00 -4 0 -4
1011 2 7.9280547980564560e+00 4.2138470841340734e+00 5.7561603124626668e+00 1 0 0
245 2 -2.2556956645415998e+00 -2.8098171388347710e+00 8.3573471640124932e+00 -3 0 -3
488 2 7.0301099276826395e-01 2.6609433767141244e+00 1.2699457432825039e+01 -5 0 1
1059 2 7.2587276373570431e+00 3.9302569940773502e-01 1.7048502653504345e+00 0 0 0
1634 2 -1.0146024500924309e+00 5.7319935235498587e+00 9.0018714988588417e+00 0 0 0
1216 1 1.1248562650969873e+01 2.0127092506737103e+00 1.7139128789263903e+01 -1 0 -1
765 2 4.2293459483198754e+00 1.7927722025319781e-02 1.2606597647414356e+01 -3 0 -2
1665 2 8.5576704489186319e+00 -3.5521195286530660e+00 8.7931290884136590e+00 -5 1 -1
210 2 1.4385634236298259e+01 6.1150325369579761e+00 8.8701815559149360e+00 4 0 -1
84 2 1.2857188912303096e+01 3.7812261049194067e+00 8.3129048468634803e+00 -1 0 -3
493 1 5.3866216514306231e-01 -6.0506708521144041e+00 1.5564100650483294e+01 -2 0 -2
1004 2 1.4660476372557657e+01 -5.0037047598069586e+00 3.6353798220258913e+00 -2 0 -1
469 1 2.5488269343136745e+00 6.0928732687651586e+00 1.8047252931204408e+01 -5 0 -2
796 1 3.4347640528381076e+00 3.8178853935190773e+00 1.5762346980462587e+01 -2 0 1
90 2 6.5587292433401432e+00 4.7766684013932856e+00 1.6355664225630605e+01 -2 0 -1
254 2 -2.9807428849275448e+00 2.5590680374995660e+00 1.2154872647829551e+01 -3 0 -3
753 2 -2.0886551917816276e+00 3.8119882951221378e+00 1.5899757884255742e+01 -1 0 2
1835 2 8.2551160885529473e-01 7.0533500388660553e+00 1.5827488390868835e+01 0 0 -1
140 2 1.2068925054871396e+01 4.7264774188034266e+00 1.6226121919918771e+01 -1 0 -1
1676 2 -9.1824779184182947e-01 3.8400245138547611e+00 1.4134801537916875e+01 0 0 0
1002 2 1.8822444286529354e+00 4.9414466153179237e+00 1.8772464931398613e+01 -1 0 1
648 2 6.1679025505090301e+00 -1.5617190563268490e-01 1.7663019667145715e+01 -2 0 0
272 2 1.4397590105834412e+00 -3.4383983660953819e+00 1.6126850164311421e+01 -1 0 -2
54 2 -7.1236575823620063e-01 -2.6057494365048957e+00 1.2181739394306133e+01 1 0 0
302 2 -5.8054118289506307e-01 -5.7207288129441531e+00 5.2472763107779317e+00 1 0 0
1439 2 1.1993289106211028e+01 -2.6379421655656126e+00 1.8720109572119663e+00 -1 1 1
36 2 -5.5753407844639726e+00 -1.2013244990705072e+00 1.6022133837850959e+01 0 0 1
1912 1 -4.2800985342863607e-01 -5.1444666008443134e+00 1.0776256404354099e+01 0 1 0
677 2 6.2796631711740130e+00 -6.2445067393973774e+00 6.6606131245106042e+00 -3 0 0
1614 2 3.1199514305832476e+00 3.9314161866279829e+00 1.2046908351231060e+01 0 0 0
1652 2 1.0368743454653490e+01 2.2553341149877149e+00 1.8826684200303866e+01 -1 0 -1
414 2 1.4536999713191061e+00 3.0384676013411394e+00 1.7508167077990646e+00 0 0 -1
1000 1 8.1847098349294711e+00 4.1152182180789652e+00 8.1624048363573412e-02 -1 0 2
286 1 1.9967822891058316e+00 5.8758370227288506e+00 5.9392835126977028e-01 2 0 -2
257 2 -2.7932351739921231e+00 -5.3084690654135427e+00 1.5155171054415330e+01 -1 0 -1
981 2 4.8926387140328211e+00 -1.5681500004096964e+00 1.4133203219439718e+01 -2 0 1
587 2 1.4046437194228179e+01 -1.0220108400091901e+00 5.6118017009765042e+00 -1 0 -1
377 2 -4.3088710713289249e+00 4.7862518145648814e-01 1.6277184156253028e+01 -1 0 -3
296 2 1.0037225509289922e+01 4.9866433909373740e+00 1.7376303254631310e+01 1 0 2
647 2 7.5692205868586724e+00 -4.3858798502047058e-01 1.7192800140350950e+01 -2 0 0
793 1 -3.1828132313785811e+00 1.2260106475906793e+00 1.5163612499100749e+01 -1 0 0
1836 2 3.0116135680957168e-01 5.9749398385944339e+00 1.4920190448008317e+01 0 0 -1
877 1 -1.7284812216954126e+00 7.9088060771942352e+00 1.7885009682713925e+01 -2 0 -1
814 1 6.0397042911426659e+00 -5.4121682987456454e+00 2.1631941163913280e+00 3 0 2
1613 2 2.8176482319411567e+00 5.2450802179221778e+00 1.1257653013044459e+01 0 0 0
415 1 6.6595759090657758e-01 9.4572425536386628e-01 5.6382768316817611e+00 2 0 -1
820 1 1.3738616704738096e+01 2.7640557700966326e+00 2.0289260625930132e+00 -5 0 2
65 2 -2.5425983932834013e+00 7.7064867653903573e+00 1.2217406107753433e+01 -2 0 -3
1064 2 1.1150885787244778e+01 -2.2092421484991576e-02 1.2859595501771500e+01 -1 0 0
898 1 2.6414471871414946e-01 -3.7644212372035830e+00 1.2937768468023977e+01 -2 0 2
1510 1 9.5202982400942560e+00 3.9403217788596443e+00 1.1381462129428943e+01 0 1 -1
181 1 1.3228069904536373e+01 5.4928423930806645e+00 2.0025591706987735e+00 -1 0 0
737 2 1.6526501795219048e+01 4.6628058072929779e+00 3.4829432095528583e+00 -2 0 1
1675 1 -1.2025766935970594e+00 4.5878038583737961e+00 1.4714205196940556e+01 0 0 0
1858 1 1.0218073097892756e+01 5.7879770013928304e+00 9.3002279267824566e+00 -2 1 0
385 1 1.1863115223071338e+01 8.6009508249262900e-02 3.3634739420987874e+00 0 0 -1
284 2 8.6219960810046770e-01 5.7144920527804111e+00 1.0189438176790029e+01 -4 0 1
1058 2 8.2784367096984557e+00 1.1981035627483863e+00 2.7249180540388149e+00 0 0 0
1897 1 4.4095998321523693e+00 7.1847939405243100e+00 1.5910064946055869e+00 1 1 1
661 1 1.2458443100258203e+01 6.3788830365868066e+00 4.5935365188182056e+00 -1 0 1
398 2 -5.0253539371597444e+00 7.8933250705949316e+00 1.5847747473984134e+01 3 0 0
576 2 6.4327506525065914e+00 4.5062665078983528e+00 9.0255801210288880e+00 0 0 1
395 2 3.4074929151760189e+00 -3.2346874120689679e+00 1.3177358014989005e+01 -3 0 -4
1923 2 9.7815175768497316e+00 4.9813923989636208e+00 2.7839632653990742e+00 0 1 1
574 1 6.3662601724135435e+00 3.6121118588434875e+00 9.4712050203208733e+00 0 0 1
921 2 1.5620176732652464e+01 2.2148750656891725e+00 6.6183808957691683e+00 1 0 -2
972 2 7.5213619996301686e+00 5.5518860281281270e+00 2.9288636669750514e+00 1 0 1
376 1 -4.8651555739107772e+00 5.7834870051246767e-02 1.6948602022356937e+01 -1 0 -3
986 2 1.0837963408407649e+00 -5.8554198275015690e-01 1.8875583260433281e+01 1 0 0
823 1 1.2977329730937553e+01 5.2364078796846325e+00 9.6678696949376981e+00 0 0 1
379 1 -9.9166537238456698e-01 2.8098862341115467e+00 5.8371662226222787e+00 -1 0 2
795 2 -2.3566284456288034e+00 7.2788217174173120e-01 1.4994332838776778e+01 -1 0 0
733 1 1.0423647930227865e+01 1.8515556751207551e+00 7.8546439729644533e+00 -3 0 -1
1511 2 9.8675036773138647e+00 3.0143342579976942e+00 1.1328390819273212e+01 0 1 0
432 2 9.8705538837431970e+00 5.8349230896901467e+00 1.3805366483900450e+01 -1 0 3
571 1 4.0401319850311612e-01 -3.0832635251938383e+00 3.1742570958260701e+00 2 0 4
422 2 1.7704472830888973e+00 -3.0595758074580899e+00 2.3323795721854634e+00 -1 0 1
888 2 6.2939901699863565e-01 -1.3241552001952197e+00 7.8618444099295015e+00 -1 0 0
617 2 -4.6725060359599926e+00 5.3612393345800911e+00 1.8144640795420425e+01 -2 0 -1
1913 2 -1.3129203510366700e+00 -4.8159228203078994e+00 1.0530826059995354e+01 0 1 0
973 1 9.6835514491029002e+00 3.4647360495300994e+00 5.9134238167764366e+00 -4 0 -1
886 1 6.9274610699527717e-01 -3.8381621712597891e-01 7.9951217753853809e+00 -1 0 0
101 2 2.7131388824841451e-02 2.4111473775431769e-02 1.4587626574214568e+01 0 0 -1
118 1 6.4127663256438199e+00 -4.3761110619762285e+00 1.4257909614947630e+01 -2 0 -2
431 2 1.0154479871971827e+01 4.8564411205186868e+00 1.2588620814238519e+01 -1 0 3
1790 2 2.3550564586297034e+00 -3.3139172262793788e+00 1.8192431966767035e+01 1 1 0
127 1 2.9883676767153542e+00 1.2710955328108060e+00 4.4184151652973034e+00 -1 0 -1
147 2 3.6852413311363943e+00 5.6738132671639896e+00 4.4357337984122722e+00 1 0 0
628 1 2.8305071461024314e+00 1.8581607954495762e+00 1.9875713048686583e+00 -1 0 3
1627 1 1.2761649300461968e+01 -1.1118960085827396e+00 9.8287698064295164e+00 1 0 0
971 2 8.1120634897796045e+00 5.3567259767192450e+00 4.3991827151041427e+00 1 0 1
301 1 4.9074153154778033e-02 -4.9940212078555444e+00 5.2473227662225703e+00 1 0 0
803 2 2.8096569058383754e+00 -4.1211086326171547e+00 9.0180959383018671e+00 -1 0 -1
1589 2 6.8920714664090914e+00 2.8033585672427286e+00 1.5223678961508533e+01 -1 0 1
1951 1 -2.5179118191388570e+00 -1.5205949324595194e+00 9.8276607604761619e+00 -1 1 -1
1860 2 9.9687812384514771e+00 6.6855256355469841e+00 9.6081816696467897e+00 -2 1 0
578 2 1.0870109371019808e+01 -3.5310393709978776e+00 6.2055272509053028e+00 -1 0 0
841 1 -2.9481273949366340e+00 -4.3211211644795355e+00 1.0256224463513384e+01 -4 0 -5
588 2 1.4202097843859464e+01 3.8176286047248542e-01 6.1453002852160887e+00 -1 0 -1
104 2 2.6239030977217714e+00 -5.5155704017354115e+00 1.3282942782656763e+01 1 0 2
970 1 8.1983985992664046e+00 5.8813303353086095e+00 3.5611667716072852e+00 1 0 1
380 2 -2.9567218264487405e-01 2.1195411595948634e+00 5.6158382567925029e+00 -1 0 2
1922 2 1.1087022489184134e+01 4.8899053281996974e+00 1.9442036887933705e+00 0 1 1
978 2 7.0661612404127290e+00 -3.7590477060683543e+00 1.2843826204879820e+01 -3 0 0
1975 1 8.0917587532213346e+00 1.7335707909978613e+00 8.8505641637532158e+00 -1 1 0
798 2 4.4092632737264958e+00 3.8996155258671443e+00 1.5853710849329355e+01 -2 0 1
191 2 6.8669504419123202e+00 -4.8218438760667031e+00 5.2822703626112419e+00 -2 0 -3
778 1 6.4260337682118696e+00 5.8709246384027196e+00 8.1625213997889219e+00 1 0 -1
253 1 -3.6991799645633190e+00 2.4281063067680382e+00 1.2797654979708089e+01 -3 0 -3
646 1 7.0493632963998953e+00 7.5149316494094620e-02 1.7838995704396368e+01 -2 0 0
246 2 -1.0563623419885790e+00 -3.3715635762838567e+00 7.6208079516732958e+00 -3 0 -3
825 2 1.3083104014291113e+01 5.0654111076164501e+00 1.0630819134677948e+01 0 0 1
102 2 -5.3707562583156943e-01 1.2645692905077617e+00 1.3809624213573210e+01 0 0 -1
1994 2 2.8978060708754656e+00 2.7835716280716376e+00 1.4046728058810572e+01 -2 0 -3
502 1 1.0224322106372082e+01 -6.2901156987661988e+00 4.2299847240524420e+00 0 0 -1
496 1 6.0516773585265504e-01 4.6376550074158995e+00 6.6689856478948766e+00 0 0 1
764 2 3.1425409795886656e+00 1.1397106787751188e-01 1.1467192790359082e+01 -3 0 -2
858 2 1.4783874012730697e+01 -3.0966070693868164e+00 5.0641036947969740e+00 -2 0 -3
727 1 1.2032641743034398e+01 -4.7887821118128935e+00 5.6794632733365171e+00 1 0 1
917 2 7.2890035148301653e+00 7.1799502871654930e-02 8.6429230078762771e+00 1 0 3
1856 2 1.3581788987523302e+01 -3.2961162157985058e-02 6.1758035598646444e-01 0 1 1
38 2 -1.4121447080679488e+00 3.9758112035397506e+00 1.0215243946504589e+01 -3 0 -3
1407 2 -4.4342202372236974e+00 6.5754104340933139e+00 1.6265865773012802e+01 3 0 0
1360 1 6.5312518142373808e+00 -1.3639989223532503e+00 4.2094680708592289e+00 0 1 0
976 1 7.1095083716964647e+00 -3.5481173950264324e+00 1.1878703682896806e+01 -3 0 0
164 2 4.8965697039204281e+00 6.3803144133928757e+00 7.1335725931200891e+00 1 0 1
430 1 1.0600159314545945e+01 5.3801719333450944e+00 1.3322418810013088e+01 -1 0 3
977 2 7.3909280233650803e+00 -2.6300191887798321e+00 1.1856366955196476e+01 -3 0 0
928 1 1.0437477949626588e+01 6.0056225297862333e+00 6.4777404789774007e+00 -1 0 0
1342 1 4.5605007420733319e+00 -5.6659798041954206e+00 1.8909082915564891e+01 0 1 0
52 1 -1.3906052848758463e+00 -1.8212990030001608e+00 1.2286901916708956e+01 1 0 0
1977 2 8.8792842054584220e+00 1.8075260224550487e+00 8.3004866130556483e+00 -1 1 0
88 1 6.1949418992520329e+00 3.8453895937567921e+00 1.6418015647007678e+01 -2 0 -1
304 1 7.4637908902795136e+00 -6.2817885073887858e-01 1.1470947309873175e+01 0 0 -2
1590 2 6.9508906251999694e+00 2.3564679403256878e+00 1.3677055301783232e+01 -1 0 1
112 1 4.2818090649165921e+00 -1.4241664865260955e+00 5.6221302141735263e+00 -2 0 -1
813 2 8.4131978374868694e+00 7.1392683615048949e+00 1.5146255728946773e+01 -1 0 -2
650 2 3.3035803334638310e+00 -1.1486122814701289e+00 1.8310212625188168e+01 -4 0 -1
489 2 -6.8181914527521892e-01 2.8751736026572861e+00 1.2016778737225474e+01 -5 0 1
98 2 5.9115288728914068e+00 2.0040310706075957e+00 2.4434145056703978e+00 1 0 1
916 1 7.0267116273116361e+00 -8.3512855574192812e-01 8.7546631651004425e+00 1 0 3
616 1 -4.4430652284585923e+00 5.0751850218590704e+00 1.7189225137840168e+01 -2 0 -1
1400 2 -5.5263040550369791e-01 -4.7695935577285393e+00 1.8406597453860133e+01 -1 1 -1
932 2 3.1144963678319511e+00 7.3935255954768895e+00 8.1285488686493643e+00 -2 0 0
620 2 6.5839981655492181e+00 3.6890518245243644e+00 1.1191831296461796e+01 -4 0 -1
629 2 2.7653480638447552e+00 1.0420165133541097e+00 1.5000812983393301e+00 -1 0 3
338 2 1.6546699714703397e+01 -4.4771949284685331e-01 1.4295402554339327e+00 -2 0 0
208 1 -2.7471330584123583e+00 6.3602825734820527e+00 8.3514141717712089e+00 5 0 -1
58 1 3.7852060874888442e+00 6.9222667906885356e+00 1.4922072662604695e+01 -2 0 0
1343 2 3.9191488461925639e+00 -5.0824670045336484e+00 1.8489032050599196e+01 0 1 -1
659 2 4.8551012336894006e+00 6.3005041400793687e+00 1.3585574154187178e+01 2 0 0
919 1 1.4968994901905312e+01 1.6385863158200475e+00 7.0647828522018123e+00 1 0 -2
1587 2 1.6027511407921335e+01 5.6852329136179112e+00 3.3409059958030218e-01 0 0 1
681 2 1.8529298336398279e+00 1.6849150592112512e+00 1.6623660462962778e+01 -3 0 -3
222 2 2.8634511226886690e+00 2.4819346279381165e+00 6.0951755039738478e+00 -3 0 -3
44 2 5.7259625856501195e-01 -3.6799439322876211e+00 6.3416740045053377e+00 0 0 1
975 2 9.9518515851582059e+00 2.8261822477195881e+00 6.6237720262040325e+00 -5 0 -1
797 2 3.1863827547557468e+00 4.5911118692267632e+00 1.6307748137487337e+01 -2 0 1
979 1 4.5908810475234443e+00 -2.4413464924731345e+00 1.4433566039278221e+01 -2 0 1
1094 2 5.8572636351383096e+00 5.8361919348542859e+00 1.6041623396036537e+00 1 0 0
1393 1 1.2077954891904195e+01 -4.3171367311498674e+00 1.6029865166804143e+01 -1 1 -1
789 2 7.9903080930228763e+00 6.4268665454640530e+00 1.7242363520576340e+01 -3 0 -2
339 2 1.6586081486069752e+01 1.0430992245906916e+00 1.5710344419075308e+00 -2 0 0
1361 2 5.7829053041390370e+00 -1.3280954734635282e+00 4.8919705356463368e+00 0 1 1
1218 2 1.0655905353130592e+01 1.7233839311594785e+00 1.6451927871498285e+01 -1 0 -1
554 2 -9.1485349473896616e-01 -3.2800607534039403e+00 1.6699554084826641e+01 -4 0 -1
384 2 9.7664237118858246e+00 -1.2950631622656212e+00 1.7669176294780637e+01 -2 0 -1
97 1 5.2007841624582980e+00 2.6992397854274071e+00 2.4627157799507171e+00 1 0 1
1344 2 5.4087573564323934e+00 -5.2263515427280289e+00 1.8774548924202282e+01 0 1 -1
843 2 -2.9122467316887439e+00 -3.4334439235185936e+00 9.8016261332761445e+00 -4 0 -5
426 2 1.4806372535780817e+01 4.1894431992173882e+00 4.7481774216753418e+00 -3 0 1
529 1 4.6965907393752211e+00 -4.9939576400492172e+00 1.1211836738999148e+01 -1 0 0
165 2 3.7682355125347113e+00 6.8393421420075313e+00 6.1939142718213391e+00 1 0 0
729 2 1.1372061430604839e+01 -5.3420137864403694e+00 5.1871475573741970e+00 1 0 1
557 2 1.1159193536192053e+01 -1.3855610565771368e+00 7.1420642128540095e+00 -1 0 0
139 1 1.1147230841285616e+01 4.4934384623971404e+00 1.6044858123137271e+01 -1 0 -1
387 2 1.2692115928553539e+01 -1.6143135695277611e-01 2.8649306281813200e+00 0 0 -1
293 2 1.8279122286801424e+00 -3.6715198794967314e+00 1.2794640495831525e-01 0 0 -1
407 2 1.3384730909712445e+01 3.9266932449894369e+00 1.2585631529922113e+01 -3 0 -2