LAMMPS data file via write_data, version 15 Apr 2020, timestep = 500000

3072 atoms
2 atom types

1.5934427891686553e-01 2.9980849721080723e+01 xlo xhi
1.2584644390093658e-01 2.8214619556098057e+01 ylo yhi
1.3827891539466641e-01 2.7273166084601179e+01 zlo zhi
1.0153364893153338e+01 1.0160988187401617e+01 7.1537861303346837e+00 xy xz yz

Masses

1 16
2 2

Atoms # atomic

1 1 7.6228780461144057e+00 5.6582447440299211e+00 4.1627361965886536e+00 0 0 0
2 2 6.8333440600538733e+00 5.2171775760744703e+00 3.8049590501245998e+00 0 0 0
3 2 7.3159410905977973e+00 6.5319197034493737e+00 4.5836357690761700e+00 0 0 0
4 1 9.9432622314672940e+00 7.0302110280157635e+00 1.0767803415657477e+01 0 0 0
5 2 1.0377610155691972e+01 6.3902425901851485e+00 1.1374147803848441e+01 0 0 0
6 2 9.8067536746922208e+00 7.8682349934355056e+00 1.1314211772145379e+01 0 0 0
7 1 1.0033412123546301e+01 1.2033851404346724e+01 4.1390415116900225e+00 0 0 0
8 2 1.0585513124861798e+01 1.1547967255188684e+01 4.8027885551975213e+00 0 0 0
9 2 9.6557487448506514e+00 1.2838124860834327e+01 4.5573614373842020e+00 0 0 0
10 1 1.2748941333545542e+01 1.4043372598058548e+01 1.1004914642060601e+01 0 0 0
11 2 1.3500489673521686e+01 1.4095357478896405e+01 1.0429862871495102e+01 0 0 0
12 2 1.2021288799323919e+01 1.3584283733412065e+01 1.0513385819718579e+01 0 0 0
13 1 1.4773709902826903e+01 5.1739349673884778e+00 4.3397082678324796e+00 0 0 0
14 2 1.5227204933064506e+01 4.6136839037933424e+00 4.9518830407839882e+00 0 0 0
15 2 1.4760101693246128e+01 6.0551089462135330e+00 4.7880065275689212e+00 0 0 0
16 1 1.7398668484860760e+01 6.9514401522223856e+00 1.0999759289948805e+01 0 0 0
17 2 1.7712076051883667e+01 6.4992242916630873e+00 1.1797913697109150e+01 0 0 0
18 2 1.8177912317501832e+01 7.0588655338208799e+00 1.0439189632970137e+01 0 0 0
19 1 1.7507186956826160e+01 1.2389686289445523e+01 4.1923950312787621e+00 0 0 0
20 2 1.8212229565131917e+01 1.2821345403855005e+01 3.6879086119242155e+00 0 0 0
21 2 1.7945386776689585e+01 1.2009490806665582e+01 4.9970081542502456e+00 0 0 0
22 1 2.0072611384854465e+01 1.4335044808362436e+01 1.0901952664765323e+01 0 0 0
23 2 2.0772477651586062e+01 1.4607206616857752e+01 1.0269122095712049e+01 0 0 0
24 2 1.9854328458255768e+01 1.5207681437438893e+01 1.1407974957688785e+01 0 0 0
25 1 1.1964922058403030e+01 7.9620048107378079e+00 6.5427883922348595e+00 0 0 0
26 2 1.1168549064776663e+01 8.3669060987450870e+00 6.1206490469535737e+00 0 0 0
27 2 1.1563640679605514e+01 7.1859548538676474e+00 7.0524035736576591e+00 0 0 0
28 1 1.4726408419708640e+01 1.0152059176125464e+01 1.3272047763210807e+01 0 0 0
29 2 1.4863636221995066e+01 9.4533429550365895e+00 1.2548292174290882e+01 0 0 0
30 2 1.3852585072234765e+01 1.0573472964008396e+01 1.3091603104890321e+01 0 0 0
31 1 1.4468122146398132e+01 1.5248465712917445e+01 6.5465668254615306e+00 0 0 0
32 2 1.4806932810855180e+01 1.4919434575275513e+01 5.6837382781733359e+00 0 0 0
33 2 1.3606829153281755e+01 1.5658238078669065e+01 6.2998204964895885e+00 0 0 0
34 1 1.6649285505706573e+01 1.7122126938880655e+01 1.3051413635114447e+01 0 0 0
35 2 1.5801047614840888e+01 1.7686242079482724e+01 1.2896174066330810e+01 0 0 0
261 2 1.7463177192646462e+01 1.0848123505702487e+01 2.9750432478415056e-01 0 0 0
344 2 6.8064989510772440e+00 1.4292245818601684e+01 4.9304836780866124e+00 0 0 0
38 2 1.8315254700387040e+01 8.4157263126729713e+00 6.0806188763902211e+00 0 0 0
39 2 1.8900061726669502e+01 7.4220698975770301e+00 7.1103905441623665e+00 0 0 0
40 1 2.1778865698592593e+01 1.0238568076290907e+01 1.3219988217833643e+01 0 0 0
1152 2 2.4092910241375368e+01 3.1182341720346844e+01 1.1969721447380111e+01 0 0 0
42 2 2.0959064055672986e+01 1.0790620032056641e+01 1.3025164348223614e+01 0 0 0
1109 2 1.2184907463815705e+01 2.2954035074422464e+01 1.1644827483080313e+01 0 0 0
44 2 2.1236687923932482e+01 1.5607163748271434e+01 6.1405668704440846e+00 0 0 0
1151 2 2.4320297507705547e+01 3.0165618447957616e+01 1.3263566010193321e+01 0 0 0
46 1 2.4388669453004432e+01 1.6984846195610999e+01 1.2856971744242786e+01 0 0 0
47 2 2.3548171862739316e+01 1.7368984179542391e+01 1.2432562410345806e+01 0 0 0
842 2 5.6777893173043932e+00 1.4576712241297535e+01 4.0040122762883623e-01 0 0 0
49 1 5.3874102922819329e+00 4.0425745174185792e+00 3.0080599826068513e+00 0 0 0
50 2 5.7296574291987588e+00 3.1615569316443146e+00 2.7248116504584123e+00 0 0 0
51 2 4.5893623419616514e+00 3.7633536922025579e+00 3.5630721361871260e+00 0 0 0
52 1 7.7251244338866201e+00 5.4819248413284978e+00 9.7999094920401788e+00 0 0 0
53 2 7.2187937984549251e+00 5.9629120290674056e+00 9.1898850819232027e+00 0 0 0
54 2 8.4882944806844947e+00 6.0480743106405139e+00 1.0089404616183854e+01 0 0 0
55 1 7.8989899799027725e+00 1.0686074469552679e+01 3.0570448514454798e+00 0 0 0
56 2 8.3462743352516462e+00 9.8960401472456709e+00 2.6208658499742152e+00 0 0 0
57 2 8.6190222643211243e+00 1.1119642560928922e+01 3.5001705804217442e+00 0 0 0
58 1 1.0507447678186024e+01 1.2714912138391377e+01 9.6309672289225201e+00 0 0 0
59 2 1.0154177433245227e+01 1.3055591391278361e+01 8.7734555664563132e+00 0 0 0
60 2 1.0991573804850910e+01 1.1915486005970006e+01 9.4133931634479868e+00 0 0 0
61 1 1.2855414691039408e+01 3.7511167812218118e+00 3.0068737287550054e+00 0 0 0
62 2 1.3499392794161155e+01 4.2970374243781286e+00 3.4745441059804980e+00 0 0 0
63 2 1.2451846572561362e+01 4.1767923110501304e+00 2.2317598145518489e+00 0 0 0
64 1 1.5401190821302659e+01 5.2985385604061142e+00 9.7823900625686679e+00 0 0 0
65 2 1.5989555018387936e+01 5.8811770843316182e+00 1.0303824362173764e+01 0 0 0
66 2 1.5848725639874308e+01 4.4678402252295673e+00 9.5126850178143254e+00 0 0 0
67 1 1.5537783257045342e+01 1.0799335647348849e+01 3.1016533705577545e+00 0 0 0
68 2 1.6329887794329519e+01 1.1327662580007678e+01 3.2554194383074666e+00 0 0 0
69 2 1.5780277146370622e+01 9.9590479519734405e+00 2.5997225557746493e+00 0 0 0
70 1 1.7915684338557455e+01 1.2603866095059145e+01 9.6396586789889280e+00 0 0 0
71 2 1.7664526813469468e+01 1.3022651273620607e+01 8.8002390539712838e+00 0 0 0
72 2 1.8734352058146627e+01 1.3081586244898592e+01 9.8704358810898292e+00 0 0 0
73 1 1.2171687863533660e+00 9.6317243076707093e-01 6.2434709916414521e-01 0 0 0
808 1 2.6613916565202441e+01 2.4201941646292699e+01 1.3285206222140010e+01 0 0 0
1150 1 2.4667335773772940e+01 3.0467472141542629e+01 1.2374119584978631e+01 0 0 0
76 1 3.6998887695523681e+00 2.6896283538035486e+00 7.5577876477627584e+00 0 0 0
77 2 1.4541008531441161e+01 3.0221821025278448e+01 8.0040754695791634e+00 0 -1 0
1149 2 2.2550946349598288e+01 2.7895557102305933e+01 5.0147725925035234e+00 0 0 0
79 1 3.5620685821716669e+00 7.9951488019144152e+00 6.0863201793897659e-01 0 0 0
974 2 2.1775372852010282e+01 1.6683959589745232e+01 2.9748311191313408e+00 0 0 0
81 2 4.3215595274589509e+00 7.3655116227526589e+00 8.9353640024367831e-01 0 0 0
82 1 6.0996591724165992e+00 9.5624025082684678e+00 7.3780779052246404e+00 0 0 0
1148 2 2.3187481812985343e+01 2.9308786829047524e+01 5.4444532103377963e+00 0 0 0
84 2 7.0405872095223696e+00 9.2133014920759617e+00 7.6532640485669923e+00 0 0 0
85 1 8.6643708151875778e+00 8.8919085183660751e-01 6.1519483928489160e-01 0 0 0
1566 2 8.6664410298476042e+00 5.9123232891729547e+00 1.6111267293423467e-01 0 0 1
87 2 8.4194540450014266e+00 1.4228553488814080e+00 1.4007623891471377e+00 0 0 0
88 1 1.1141181723575652e+01 2.7618450118346578e+00 7.5592420338790438e+00 0 0 0
89 2 1.1955425215192726e+01 2.2464614782159407e+00 7.7893685352315138e+00 0 0 0
90 2 1.1416537788318767e+01 3.4312093964240895e+00 6.8807695733978305e+00 0 0 0
91 1 1.1467635780727674e+01 7.9287535383804508e+00 6.6551747177043608e-01 0 0 0
287 2 2.2930376390795306e+01 1.5013116024631479e+01 9.9149462307120650e+00 0 0 0
93 2 1.2204086115238729e+01 7.4139542474429385e+00 1.0590722760440721e+00 0 0 0
94 1 1.4045005007365907e+01 9.5005872609378947e+00 7.7214490610891016e+00 0 0 0
95 2 1.4682110064810393e+01 8.8531630757131055e+00 8.1532316311221162e+00 0 0 0
96 2 1.3317845193950916e+01 9.0308283855490821e+00 7.2847710200362785e+00 0 0 0
97 1 5.1805370938080966e+00 4.3003656927323473e+00 5.9790983909773248e+00 0 0 0
98 2 5.2008313640594590e+00 5.0155292124233020e+00 6.6517641739082869e+00 0 0 0
99 2 4.6577781048064768e+00 3.5767227929691008e+00 6.4335517200028365e+00 0 0 0
100 1 7.9648019949983446e+00 6.2297478147745000e+00 1.3108127344665554e+01 0 0 0
101 2 7.4463555793431393e+00 6.6130804380177342e+00 1.2380764800622805e+01 0 0 0
102 2 8.5183013631083764e+00 5.4771062244204192e+00 1.2780005197093468e+01 0 0 0
103 1 8.0033716086797853e+00 1.1271459585407836e+01 6.2317735145360400e+00 0 0 0
104 2 7.6313814317892064e+00 1.1826365407247781e+01 5.5467926622090484e+00 0 0 0
105 2 7.2541460022320035e+00 1.0659399980574410e+01 6.5161253847489018e+00 0 0 0
106 1 1.0386873216747187e+01 1.3062574682525659e+01 1.2923122354758386e+01 0 0 0
48 2 2.3893751698272052e+01 1.6358122976519930e+01 1.3459671907859541e+01 0 0 0
108 2 1.1202575651151303e+01 1.2569894953749195e+01 1.2630779977658710e+01 0 0 0
109 1 1.2413198342558021e+01 4.6364481441660148e+00 6.2118247399446656e+00 0 0 0
110 2 1.3037349144784587e+01 3.9093336791218660e+00 5.9412485405780497e+00 0 0 0
111 2 1.2208717667359670e+01 5.2217453835746985e+00 5.3772945623753010e+00 0 0 0
112 1 1.5286423035027422e+01 6.1613450804765897e+00 1.3179646795286262e+01 0 0 0
1029 2 2.3195701370445281e+01 2.6258590382125938e+01 5.5372003764765143e-01 0 0 0
282 2 2.0320621580651959e+01 7.9629022943037633e+00 1.0186179890335216e+01 0 0 0
115 1 1.5607815685401487e+01 1.1059498566551170e+01 6.3080249992855668e+00 0 0 0
116 2 1.5145205070257425e+01 1.0417025842266144e+01 6.9205113789763049e+00 0 0 0
117 2 1.5845577696859277e+01 1.1795290137062109e+01 6.9099946001903172e+00 0 0 0
118 1 1.7807714092526805e+01 1.3402556448215972e+01 1.2809835212313015e+01 0 0 0
1113 2 1.2286226510846010e+01 2.8192379803193234e+01 4.9164440466070118e+00 0 0 0
120 2 1.7524354380455730e+01 1.3603063077284752e+01 1.1881097219860415e+01 0 0 0
121 1 3.0612250208121710e+00 2.9064320828462784e+00 4.2907550076321908e+00 0 0 0
1016 2 1.5671759663688107e+01 2.6149360685627933e+01 5.1683716438817084e-01 0 0 0
123 2 3.6246347362918527e+00 2.0721656006084501e+00 4.5250080693810961e+00 0 0 0
124 1 5.8050433480103871e+00 4.6692061096303430e+00 1.1192714920206457e+01 0 0 0
125 2 6.5776658978354163e+00 5.0428490549534537e+00 1.0728519780194549e+01 0 0 0
126 2 6.0857065024341228e+00 3.7933115017698222e+00 1.1588450218730841e+01 0 0 0
127 1 5.4672103014344362e+00 9.5272226975746097e+00 4.2808729480606704e+00 0 0 0
1133 2 1.4909476537924522e+01 2.2975732569553486e+01 1.1424526337302892e+01 0 0 0
129 2 6.1701966904982353e+00 1.0054077892362422e+01 3.8917574558306307e+00 0 0 0
130 1 8.4411999299508622e+00 1.1492777587328174e+01 1.1204254022066255e+01 0 0 0
1132 1 1.4714734753527839e+01 2.3798920250759185e+01 1.2003418020972390e+01 0 0 0
132 2 9.2274262711974817e+00 1.2021942295009353e+01 1.0851005195476436e+01 0 0 0
133 1 1.0836453277366584e+01 2.7405903668260643e+00 4.3346011542612235e+00 0 0 0
134 2 1.1029664279267401e+01 1.8316058281391518e+00 4.6689156840831885e+00 0 0 0
135 2 1.1616681516218460e+01 3.0919675392727095e+00 3.7958282781367068e+00 0 0 0
136 1 1.3065013086889504e+01 4.3733516683913241e+00 1.1176493052854203e+01 0 0 0
137 2 1.3800733997903034e+01 4.9184760328881669e+00 1.0866612203654087e+01 0 0 0
138 2 1.2700412229175567e+01 4.7973764837131316e+00 1.1955685000808678e+01 0 0 0
139 1 1.3292881804152245e+01 9.6298477395539024e+00 4.4350396045408402e+00 0 0 0
140 2 1.4025037370531269e+01 1.0135013314838009e+01 4.0062370312056865e+00 0 0 0
141 2 1.3634989732184973e+01 8.8389418314945534e+00 4.7968914258819391e+00 0 0 0
142 1 1.5836475491648210e+01 1.1758532948645730e+01 1.0904904396360500e+01 0 0 0
143 2 1.6559747590138091e+01 1.2134146224966241e+01 1.0391792063521502e+01 0 0 0
144 2 1.6262609928127286e+01 1.1023047568939560e+01 1.1400301202353564e+01 0 0 0
145 1 6.7943050416364095e+00 2.1336860218056071e+00 5.4760267135499543e+00 0 0 0
146 2 7.6198715732415270e+00 1.9130907412144726e+00 5.8523156258167708e+00 0 0 0
147 2 6.5443756163489351e+00 2.9906143412275998e+00 5.7682104451388572e+00 0 0 0
148 1 9.3170283428547407e+00 4.0344143628204350e+00 1.2086828157773429e+01 0 0 0
149 2 9.6543461841196105e+00 4.0944668340201167e+00 1.1168739116506774e+01 0 0 0
150 2 1.0097393167263672e+01 3.6962588593761989e+00 1.2569252339064178e+01 0 0 0
151 1 9.5730990735636343e+00 9.0834721616051262e+00 5.1746908416123238e+00 0 0 0
152 2 9.2185084478427584e+00 9.8801076849089817e+00 5.5744652002642834e+00 0 0 0
153 2 9.9438585952565166e+00 9.1273802471570313e+00 4.2804502027327436e+00 0 0 0
154 1 1.2183582626616925e+01 1.1216409986811938e+01 1.2059106999873157e+01 0 0 0
155 2 1.1774922872635019e+01 1.0357736410672313e+01 1.2072235115237341e+01 0 0 0
156 2 1.2554737792765447e+01 1.1153591253965237e+01 1.1158927194861105e+01 0 0 0
157 1 1.4318541191862963e+01 2.6043661280089543e+00 5.2755889303081709e+00 0 0 0
158 2 1.4936712397315420e+01 2.1892326498520749e+00 5.8885902442012474e+00 0 0 0
159 2 1.4800314014206485e+01 2.4739123953542483e+00 4.4163264861650928e+00 0 0 0
160 1 1.6923198168213130e+01 4.0144068185502721e+00 1.2296394098745539e+01 0 0 0
161 2 1.6496324265328536e+01 4.8155427712959495e+00 1.2625091146724746e+01 0 0 0
162 2 2.6454606894382504e+01 3.1391968737780267e+01 1.2354520455795386e+01 0 -1 0
163 1 1.7186776397745039e+01 9.3203074335283524e+00 5.1727286360398024e+00 0 0 0
164 2 1.6636468900311563e+01 1.0058082335624945e+01 5.4960927877119641e+00 0 0 0
165 2 1.7608576297654874e+01 9.6058695556954490e+00 4.3350436101729155e+00 0 0 0
166 1 1.9442334130778779e+01 1.1210805676173258e+01 1.1983959861141679e+01 0 0 0
167 2 1.8903844176743995e+01 1.2000760522201343e+01 1.2277933317342322e+01 0 0 0
168 2 2.0019455096704242e+01 1.1361548704376224e+01 1.1220083154599132e+01 0 0 0
169 1 9.1268059540693667e+00 4.4945711642688115e+00 6.0039050722600651e+00 0 0 0
170 2 9.7972366068737529e+00 4.0365735501544373e+00 5.4733297421792173e+00 0 0 0
171 2 8.5174042063679636e+00 4.8239771801604103e+00 5.3468034659979260e+00 0 0 0
172 1 1.1530230799889708e+01 5.9156588313347171e+00 1.2904570789015906e+01 0 0 0
1028 2 2.2437334890213791e+01 2.4977583684840333e+01 2.7269202097165374e-01 0 0 0
1106 2 8.7036189320131552e+00 2.0321430800875646e+01 3.7319091431409253e+00 0 0 0
175 1 1.1736106075602798e+01 1.1011096826294459e+01 6.0156624071363183e+00 0 0 0
176 2 1.2506791128649567e+01 1.0605147997959078e+01 5.6194247122953040e+00 0 0 0
177 2 1.2152102424338793e+01 1.1759118084164211e+01 6.5941415458560826e+00 0 0 0
178 1 1.4311970948896803e+01 1.3131184051809845e+01 1.3008975689377138e+01 0 0 0
179 2 1.3635431666030065e+01 1.3437155508155298e+01 1.2308744064860280e+01 0 0 0
180 2 1.4932199021000146e+01 1.2684796432189808e+01 1.2405491388449237e+01 0 0 0
181 1 1.6662814631355921e+01 4.1034728433865757e+00 6.3181090962076203e+00 0 0 0
182 2 1.7248213932926284e+01 3.7929370679353949e+00 5.5597744295484457e+00 0 0 0
183 2 1.7020927637497980e+01 4.9847300199571345e+00 6.5377867178338578e+00 0 0 0
184 1 1.9110516208374275e+01 6.0906416613412357e+00 1.2938725082936898e+01 0 0 0
959 2 2.7254247883778081e+01 2.7072352038323491e+01 1.2209416045603955e+01 0 0 0
206 2 1.6763043331703834e+01 2.9621097389177304e+00 3.2231715620166064e+00 0 0 0
187 1 1.8810700727763329e+01 1.1384123765359487e+01 6.2756392249791624e+00 0 0 0
188 2 1.8296831143468406e+01 1.0801965778644634e+01 6.8331453755986846e+00 0 0 0
189 2 1.9325543141721699e+01 1.1961191109737925e+01 6.9126427866920945e+00 0 0 0
190 1 2.1690904500723416e+01 1.3424804436677903e+01 1.3060101456319442e+01 0 0 0
860 2 1.5671555224653199e+01 2.1454617499979975e+01 3.4806147720875952e-01 0 0 0
192 2 2.1101040271400468e+01 1.3665536866716142e+01 1.2320111208626468e+01 0 0 0
193 1 8.3832483037572718e+00 2.6285814390917173e+00 2.7986105347088781e+00 0 0 0
194 2 7.8061054492649733e+00 2.3743628076249021e+00 3.5248369078258612e+00 0 0 0
195 2 9.2654359469891077e+00 2.6664925729571114e+00 3.1888486325415197e+00 0 0 0
196 1 1.0613990644104092e+01 4.3054201646614256e+00 9.8019509198694976e+00 0 0 0
197 2 1.0718388500451978e+01 3.7825789852380418e+00 8.9641334905968719e+00 0 0 0
198 2 1.1509850483904769e+01 4.4059573328393213e+00 1.0202734714406262e+01 0 0 0
199 1 1.0865525621476870e+01 9.6456770398863494e+00 2.8566616755766892e+00 0 0 0
200 2 1.0978380460648115e+01 8.9511144536332434e+00 2.0759832103274882e+00 0 0 0
201 2 1.1736276945999800e+01 9.6422327937334913e+00 3.2806042431973679e+00 0 0 0
202 1 1.3663144392970620e+01 1.1493579189209761e+01 9.4814821697495066e+00 0 0 0
203 2 1.4595928143903244e+01 1.1610495943706544e+01 9.8639990944735345e+00 0 0 0
204 2 1.3693164792907575e+01 1.0600613398307226e+01 9.0321704846234017e+00 0 0 0
205 1 1.5870805619083347e+01 2.8010788127425652e+00 2.8191065156546347e+00 0 0 0
869 2 1.3226121779247215e+01 2.1193977678159751e+01 1.3549501091800938e+01 0 0 0
941 2 1.6118726466062185e+01 1.9897153052314120e+01 1.3678618307432764e+01 0 0 0
208 1 1.8321859857558547e+01 4.3803397681985654e+00 9.6799612388667331e+00 0 0 0
209 2 1.7765853482998871e+01 4.1815401320055914e+00 1.0443200901142305e+01 0 0 0
122 2 2.7157175721918883e+00 3.1806199648075060e+00 5.1286467788449119e+00 0 0 0
211 1 1.8496556275938818e+01 9.6883318892849442e+00 2.9048066521906768e+00 0 0 0
1095 2 1.5886996068955170e+01 1.7858674691648261e+01 6.9484023142847506e-01 0 0 0
213 2 1.8281563627221196e+01 1.0529868420586217e+01 2.3768673367844584e+00 0 0 0
214 1 2.1094470419856492e+01 1.1502279078524037e+01 9.8122380868528296e+00 0 0 0
843 2 6.8886580895636831e+00 1.5633521648489678e+01 2.1730475879212263e-01 0 0 0
798 2 1.8782533643388749e+01 2.3280918234765448e+01 1.3581226847087207e+01 0 0 0
217 1 5.6946943734162536e+00 1.4545168876185555e+00 1.9355608600451257e+00 0 0 0
218 2 4.7812538452764031e+00 1.0833576868891344e+00 1.8431855478722226e+00 0 0 0
219 2 5.7460359910238745e+00 1.8729259602934789e+00 1.0558817037191464e+00 0 0 0
220 1 8.0801554212008391e+00 3.3381482148906949e+00 8.1768168452552690e+00 0 0 0
221 2 8.0584093606712361e+00 4.1170097917456729e+00 8.7310206875912666e+00 0 0 0
222 2 8.5104272179403342e+00 3.6096352089008565e+00 7.3158248086302544e+00 0 0 0
223 1 8.1055825647130675e+00 8.3812922217452730e+00 1.6924578710407483e+00 0 0 0
224 2 8.6833816864213169e+00 7.7371581821351780e+00 2.0868945596168214e+00 0 0 0
225 2 8.6448786342448312e+00 8.7193899473968148e+00 9.2452404719228531e-01 0 0 0
226 1 1.0823066298669289e+01 1.0121837981360223e+01 8.4965785364225717e+00 0 0 0
227 2 1.1327205805073262e+01 9.2833424809259313e+00 8.7519974812497008e+00 0 0 0
228 2 1.0967932375673790e+01 1.0310689781409957e+01 7.5340646026817737e+00 0 0 0
229 1 1.3307929236561568e+01 1.3012824313167433e+00 1.7879974291678813e+00 0 0 0
230 2 1.2474317416793779e+01 8.0425538404704799e-01 1.8275557343746307e+00 0 0 0
231 2 1.3170082991570803e+01 2.0460816584240917e+00 2.3873016580250441e+00 0 0 0
232 1 1.5998414604172151e+01 2.9628776055540662e+00 8.6870480628530427e+00 0 0 0
233 2 2.6817387071820754e+01 3.0359808967664971e+01 8.9320987350879815e+00 0 -1 0
234 2 1.6229414450535852e+01 3.3198794453023530e+00 7.8040558691121360e+00 0 0 0
235 1 1.5853146812032831e+01 8.4786470382261054e+00 1.7573493962426330e+00 0 0 0
236 2 1.6188172579349693e+01 8.7873080743962699e+00 9.0025962536617010e-01 0 0 0
237 2 1.6431391938572371e+01 7.7774180109227444e+00 2.0171948431734612e+00 0 0 0
238 1 1.8315165122058040e+01 1.0029256249655724e+01 8.8619680391259426e+00 0 0 0
239 2 1.9038789637481624e+01 9.3682632252883167e+00 9.0341997558101053e+00 0 0 0
240 2 1.8513451072715913e+01 1.0900164579135978e+01 9.3045360536402626e+00 0 0 0
241 1 7.5221959622092616e+00 4.5951889940469961e+00 9.8827029151869761e-01 0 0 0
242 2 7.7730370598008056e+00 4.0924735152753478e+00 1.7333148456411869e+00 0 0 0
243 2 7.0014311582982165e+00 5.3432910782741869e+00 1.3439331416964186e+00 0 0 0
244 1 1.0232167678513388e+01 6.4069251488574377e+00 7.7450580353246732e+00 0 0 0
245 2 1.0370016352996380e+01 5.9602649637740388e+00 8.6520200237463349e+00 0 0 0
246 2 9.9262475863422814e+00 5.6707957911626590e+00 7.1388885370276860e+00 0 0 0
247 1 9.8799254059471462e+00 1.1569817584874333e+01 8.1439817901408229e-01 0 0 0
248 2 9.5286139484777568e+00 1.2459395555565738e+01 1.1723077166435552e+00 0 0 0
249 2 1.0359789418082423e+01 1.1172584451776139e+01 1.5319837423598535e+00 0 0 0
250 1 1.2708723712173679e+01 1.3205078572362286e+01 7.6130778271181807e+00 0 0 0
251 2 1.3143693519385803e+01 1.2714723975821316e+01 8.3391754315058861e+00 0 0 0
252 2 1.3480330273442165e+01 1.3687065486411811e+01 7.1549113611834247e+00 0 0 0
253 1 1.4963268571446745e+01 4.6838998082315948e+00 1.1462622416069455e+00 0 0 0
254 2 1.5247837914167526e+01 4.0239960500032428e+00 1.8296665298201988e+00 0 0 0
255 2 1.4488659688553598e+01 5.4799976964087920e+00 1.4783157717741777e+00 0 0 0
256 1 1.7580527376971165e+01 6.3125174736788718e+00 7.7470747943244005e+00 0 0 0
257 2 1.7808057419104998e+01 5.6200850106180340e+00 8.4226528519558865e+00 0 0 0
258 2 1.6945042700117838e+01 6.9115764546918435e+00 8.1768531487340876e+00 0 0 0
259 1 1.7752280059260318e+01 1.1584404126998686e+01 9.0064785803789416e-01 0 0 0
260 2 1.7061270992298148e+01 1.2304894221440136e+01 9.6184333015928880e-01 0 0 0
1082 2 8.7577614572918350e+00 1.8066145400025778e+01 3.5706860240027460e-01 0 0 0
262 1 2.0186903989967806e+01 1.3213929714770392e+01 7.7221334428959665e+00 0 0 0
263 2 2.0732592029104829e+01 1.2915486035268831e+01 8.4673904935119975e+00 0 0 0
264 2 2.0687059598183229e+01 1.3805745233645359e+01 7.1341525280140541e+00 0 0 0
265 1 9.9525551766357570e+00 6.3367843183678350e+00 2.7075023609402615e+00 0 0 0
266 2 9.2070743029663600e+00 6.0266668353425468e+00 3.2270027025949268e+00 0 0 0
267 2 1.0230123546631486e+01 5.6720863586029662e+00 2.0471326787736084e+00 0 0 0
268 1 1.2327336777649780e+01 7.9784387553172751e+00 9.6018491755390407e+00 0 0 0
269 2 1.2653371897370153e+01 7.3543617364688458e+00 8.9416289061330403e+00 0 0 0
270 2 1.1556717367429544e+01 7.5919802861132339e+00 9.9702195768699369e+00 0 0 0
271 1 1.2137314730488166e+01 1.3096591108460879e+01 2.6376395299798281e+00 0 0 0
272 2 1.2928769201747262e+01 1.3266825378083754e+01 3.2109821875102296e+00 0 0 0
273 2 1.1442613647657458e+01 1.2742510465449312e+01 3.2089571345159542e+00 0 0 0
274 1 1.4832965894380823e+01 1.4669450342000616e+01 9.5730599972771504e+00 0 0 0
275 2 1.4370397160705592e+01 1.5531244897470398e+01 9.5381890152765667e+00 0 0 0
276 2 1.5637354306659699e+01 1.4903305243431738e+01 1.0131692809203892e+01 0 0 0
277 1 1.7232438746800103e+01 5.8912602865874426e+00 2.8295887380049027e+00 0 0 0
278 2 1.6434410660786273e+01 5.6132892316753757e+00 3.2412246327761949e+00 0 0 0
186 2 1.8626259724344685e+01 5.6602020631493257e+00 1.3688109861483698e+01 0 0 0
280 1 1.9711981855361923e+01 7.6136590722617701e+00 9.5427806041574694e+00 0 0 0
1144 1 2.2217821325107501e+01 2.3671716237540455e+01 1.2183050167307327e+01 0 0 0
41 2 2.1834807374498599e+01 9.6117642141021165e+00 1.2468708298074098e+01 0 0 0
283 1 1.9801338871401942e+01 1.3115749878694736e+01 2.9583832847218869e+00 0 0 0
1275 2 2.2601147555108454e+01 1.7377486500502322e+01 4.9651876986870418e+00 0 0 0
1200 2 1.5198840015974412e+01 3.1248737498640036e+01 1.3466524975811808e+01 1 0 0
286 1 2.2135733959282884e+01 1.4872412486473969e+01 9.3530896593999344e+00 0 0 0
212 2 1.8393627742162796e+01 8.9791653645628688e+00 2.2271261617261757e+00 0 0 0
288 2 2.1830043455862224e+01 1.5657507687627715e+01 8.8660019964510077e+00 0 0 0
289 1 5.8683900473035511e+00 6.8073473183285609e+00 1.6433997114523664e+00 0 0 0
290 2 5.4291973023513940e+00 6.6433338803951507e+00 2.5088161719612985e+00 0 0 0
291 2 6.5778377555558087e+00 7.4763255073659058e+00 1.8140110040188298e+00 0 0 0
292 1 8.4900105416349554e+00 8.6743340546081384e+00 8.4561738093055023e+00 0 0 0
293 2 8.9232158852184007e+00 7.7965901982658394e+00 8.3196464234465921e+00 0 0 0
294 2 9.2188161151255983e+00 9.2897826444527762e+00 8.5135994478135295e+00 0 0 0
295 1 8.6257555089649216e+00 1.3851075495867475e+01 1.9628743685183383e+00 0 0 0
296 2 8.2615822712601723e+00 1.3542704933563451e+01 2.8157698483572169e+00 0 0 0
297 2 7.7756218381660265e+00 1.3946236207699464e+01 1.4820863790226106e+00 0 0 0
298 1 1.1009378305334369e+01 1.5424420547035606e+01 8.6317953562099081e+00 0 0 0
299 2 1.1530114750550062e+01 1.4784106929961441e+01 8.0912169636099875e+00 0 0 0
300 2 1.0280258321401055e+01 1.5704988918075292e+01 8.0018169409981255e+00 0 0 0
301 1 1.3598485561729710e+01 6.9232680825385664e+00 1.8987100908134811e+00 0 0 0
302 2 1.3464451778606112e+01 6.7208888215662679e+00 2.8803557293492474e+00 0 0 0
303 2 1.4267202689080756e+01 7.6217750040089891e+00 1.7772274903957290e+00 0 0 0
304 1 1.6264971644967432e+01 8.3716220497909966e+00 8.8120056344081625e+00 0 0 0
305 2 1.6032658532603769e+01 8.2872976276614629e+00 9.7303791579976178e+00 0 0 0
306 2 1.7007984563169245e+01 9.0809509266889208e+00 8.8746975288704153e+00 0 0 0
307 1 1.6234453955995416e+01 1.3630084443509253e+01 1.8451916023252102e+00 0 0 0
308 2 1.5381065479927821e+01 1.3861415837147909e+01 1.4185865242556661e+00 0 0 0
309 2 1.6913478340838751e+01 1.4293978435693189e+01 1.6346214067463194e+00 0 0 0
310 1 1.8781326646874849e+01 1.5958130419684696e+01 8.5674780414395038e+00 0 0 0
311 2 1.9213774004055775e+01 1.5088377068257342e+01 8.4253425083151310e+00 0 0 0
312 2 1.8104265212576774e+01 1.5997650419500321e+01 7.8420482419119022e+00 0 0 0
313 1 4.0102462619137818e+00 4.9167778517521059e+00 9.8776375473068057e-01 0 0 0
1857 2 1.1777750977796234e+01 1.5631153494884652e+01 1.3640280921895732e+01 0 0 0
315 2 4.6271883973441943e+00 4.5431281280935263e+00 1.6782678433584868e+00 0 0 0
316 1 6.0989486397792216e+00 6.2791947167408573e+00 7.9291643572383324e+00 0 0 0
317 2 6.5641163587307432e+00 6.7072208939378406e+00 7.2158079637190964e+00 0 0 0
318 2 5.4342372361195022e+00 6.9082502627757929e+00 8.2085998909196753e+00 0 0 0
319 1 6.4780143368341729e+00 1.1698318942360579e+01 1.1784229200424285e+00 0 0 0
1131 2 1.2417035632131535e+01 2.0871461909247770e+01 4.7663684464417075e+00 0 0 0
321 2 7.0130997043790533e+00 1.1239656708415277e+01 1.8184571391893374e+00 0 0 0
322 1 9.1732336690732552e+00 1.3455589398146353e+01 7.3671833428966380e+00 0 0 0
323 2 8.5997353582803733e+00 1.3933875928668510e+01 7.9820309467338069e+00 0 0 0
324 2 8.7883332880662142e+00 1.2611550954207431e+01 6.9615275977400950e+00 0 0 0
325 1 1.1232661454460983e+01 4.6738425989148160e+00 9.6863579425373358e-01 0 0 0
1143 2 2.0497784830713332e+01 2.2388781076599219e+01 5.2005005602584449e+00 0 0 0
207 2 1.5990513512177985e+01 2.1393316720697251e+00 2.1495304258114571e+00 0 0 0
328 1 1.3887745188978426e+01 6.3521397894190601e+00 7.9192169644622119e+00 0 0 0
329 2 1.3362025164123546e+01 5.5788641194928168e+00 7.5385983682308604e+00 0 0 0
330 2 1.4484740470076590e+01 5.9503376719318490e+00 8.5909884196160284e+00 0 0 0
331 1 1.4032668554745449e+01 1.1642780716006587e+01 1.1372733011012421e+00 0 0 0
332 2 1.3257970546353564e+01 1.2150039962713340e+01 1.5407289900582051e+00 0 0 0
333 2 1.4737484438557473e+01 1.1468445838127680e+01 1.8346789077181420e+00 0 0 0
334 1 1.6573995212694065e+01 1.3615011840310142e+01 7.5170629436521752e+00 0 0 0
335 2 1.7035747815507328e+01 1.4091694437588519e+01 6.7999155289806135e+00 0 0 0
336 2 1.5930557797301578e+01 1.4192136175543080e+01 7.9550431235853116e+00 0 0 0
337 1 4.4385568696717286e+00 6.3719147447412938e+00 4.2766809067023113e+00 0 0 0
338 2 4.5462480879023834e+00 5.5977557182450948e+00 4.8888038592092178e+00 0 0 0
1136 2 1.4349547713006647e+01 2.8749249412804410e+01 6.1525474893658316e+00 0 0 0
340 1 6.9705597513115265e+00 8.2402406759650084e+00 1.0573288578407999e+01 0 0 0
285 2 2.0610574691951914e+01 1.3354546696493863e+01 3.4745236291862458e+00 0 0 0
342 2 7.5581718942135794e+00 8.4293751162626158e+00 9.8422142248090765e+00 0 0 0
343 1 7.0173565229002826e+00 1.3590852850709201e+01 4.2346579561071227e+00 0 0 0
92 2 1.0827788577731923e+01 7.3405141745690381e+00 2.1929258148147951e-01 0 0 0
882 2 1.9890286202708992e+01 1.9708956164915410e+01 1.3077939873388150e+01 0 0 0
346 1 9.6421635849574230e+00 1.5060428472751401e+01 1.1025488690538623e+01 0 0 0
347 2 1.0269571288335392e+01 1.5126531209738904e+01 1.0231396687025221e+01 0 0 0
348 2 9.8719951817858878e+00 1.4197431929657922e+01 1.1379371518573027e+01 0 0 0
349 1 1.2114114635788273e+01 6.4800013941171990e+00 4.2986120639171439e+00 0 0 0
350 2 1.2054257371496190e+01 7.0874315146990732e+00 5.0775325670519571e+00 0 0 0
351 2 1.1314176702279937e+01 6.5078337799316150e+00 3.7552329557386104e+00 0 0 0
352 1 1.4681221151295240e+01 8.3619389462856120e+00 1.1190652691666449e+01 0 0 0
353 2 1.4783190943891629e+01 7.6297981741717589e+00 1.1880318782278598e+01 0 0 0
354 2 1.3835458934362491e+01 8.2652984390238249e+00 1.0795292504188422e+01 0 0 0
355 1 1.4364830574578773e+01 1.3508916273162331e+01 4.0311195424111910e+00 0 0 0
356 2 1.4736865255695021e+01 1.2866647448464663e+01 4.6660980352867369e+00 0 0 0
357 2 1.5089183408715737e+01 1.3706359812344163e+01 3.3881829477944891e+00 0 0 0
358 1 1.6917506318164506e+01 1.5458152287849202e+01 1.0886143758283813e+01 0 0 0
359 2 1.6747598897213368e+01 1.6172024475190909e+01 1.1494998197771352e+01 0 0 0
360 2 1.7675783939312989e+01 1.5698451097627006e+01 1.0310424933683016e+01 0 0 0
361 1 7.3016190152217222e+00 7.7763148317336084e+00 5.5389766025978409e+00 0 0 0
362 2 6.6608431784908753e+00 8.4938101856799815e+00 5.2759949659563921e+00 0 0 0
363 2 8.1868614431963085e+00 8.1536716746153797e+00 5.3046778486031787e+00 0 0 0
364 1 1.0073238249106613e+01 9.2660758428426000e+00 1.2155451114886459e+01 0 0 0
365 2 9.4849788620357884e+00 9.9156740390108240e+00 1.1749053086830768e+01 0 0 0
366 2 9.6304276235422854e+00 9.0008621256778998e+00 1.2990756142906841e+01 0 0 0