LAMMPS data file via write_data, version 15 Apr 2020, timestep = 0

6144 atoms
2 atom types

-1.6504133134534058e+00 6.1618702444634735e+01 xlo xhi
0.0000000000000000e+00 2.8074939607253558e+01 ylo yhi
0.0000000000000000e+00 2.7135030844465355e+01 zlo zhi
1.0145869665049162e+01 1.0169989577277946e+01 7.1104124442175269e+00 xy xz yz

Masses

1 16
2 2

Atoms # atomic

1595 2 1.6261933266514490e+01 2.0572135943464659e+01 1.6845541686917080e+01 0 0 0
1604 2 1.7712768271841270e+01 2.0065697574002368e+01 2.4676993605235047e+01 0 0 0
1655 2 7.5975191619738158e+00 2.4910613951648386e+01 6.1118830010914804e-01 0 0 2
987 2 1.5704434474457571e+01 1.2293343092881251e+01 2.1261758912496951e+01 0 0 0
225 2 6.9344409104758320e+00 4.2666972198672068e+00 3.9594178330569805e+00 0 0 0
52 1 1.3245775665317943e+01 2.5966246032496006e+01 8.9260037046384983e+00 0 -1 0
25 1 9.8299717780070281e+00 1.1263812129810287e+01 9.5282539144356928e+00 0 0 -1
1625 2 1.4685423224627478e+01 1.8119823910388277e+01 1.7974206631175541e+01 0 0 0
2464 1 8.7041932546720613e+00 1.9583463264467643e+01 6.1854989689440876e+00 0 1 0
886 1 1.6221648695804145e+01 2.2249144057006191e+01 2.0582717197939882e+01 0 1 -1
1633 1 1.6947224458909499e+01 1.5642580152227104e+01 1.9806559767924664e+01 0 0 0
849 2 1.5376435624838617e+01 1.6587742312423668e+01 1.0728870819492329e+01 0 0 -1
2443 1 1.4722595207755770e+01 1.3655301138741402e+01 1.1069801704210537e+01 0 1 0
358 1 1.6277670991294130e+01 2.5306953206997157e+01 2.3584425838417960e+01 0 0 0
2466 2 8.9588362268578088e+00 1.8911336192537917e+01 6.9331300107238887e+00 0 1 0
1895 2 9.5594174730259738e+00 1.3592154614235252e+01 7.4332849803863006e+00 0 0 1
1670 2 5.7804970341347124e+00 3.2295676905380897e+00 1.7769385431552158e+00 0 0 0
1634 2 1.6417529585649099e+01 1.4851150876019197e+01 1.9995143684174348e+01 0 0 0
1064 2 2.2540146213620133e+01 3.0161272566304110e+01 1.9633232262898687e+01 0 0 -1
1894 1 8.7252135692430510e+00 1.3263307518596150e+01 7.8745176890899868e+00 0 0 1
1740 2 1.7375324436256221e+01 2.2964431003164727e+01 2.6433452035716240e+01 0 0 0
1916 2 1.6139752302345130e+01 2.4245926760306215e+01 1.4553127743003190e+01 0 0 0
611 2 6.7862394249364115e+00 7.2366749867529201e+00 1.5098221973255029e+01 0 1 0
1709 2 1.3291563436517997e+01 6.7452937021843251e+00 1.9985145296664680e+01 0 0 0
487 1 1.6846066646409895e+01 2.6281165135689051e+01 2.5955768763674250e+01 0 0 -1
53 2 1.3753934546099822e+01 2.6773679713343491e+01 8.9392565215303375e+00 0 -1 0
1587 2 1.1928466356578301e+01 1.3448017341693006e+01 1.1957788093782723e+01 0 0 0
1586 2 1.1621980859586653e+01 1.4907133287621029e+01 1.1656942073835147e+01 0 0 0
1675 1 1.0101089535310685e+01 1.7178344853535176e+01 1.5429739912184139e+01 0 0 0
2564 2 1.0935869295627118e+01 1.5070332992562893e+01 9.0158340120988611e-01 0 1 0
489 2 1.6390900035943652e+01 2.5800925169254771e+01 2.6651368312653592e+01 0 0 -1
1871 2 1.4222611019075030e+01 2.6094861862645779e+01 1.9648193002346215e+01 0 0 0
610 1 7.5116657131877780e+00 6.5726163973637934e+00 1.5278710699266609e+01 0 1 0
1275 2 5.9256007600849054e+00 7.9241740968009449e+00 8.7188766987943811e-01 0 0 0
247 1 2.7234910781023718e+00 5.9215843912759674e+00 7.0363766607700740e+00 0 0 0
2450 2 1.5465003461770685e+01 2.3750968672011634e+01 2.3487799841592050e+01 0 0 0
1708 1 1.2392843236398003e+01 7.0698455739098511e+00 1.9647161220339964e+01 0 0 0
27 2 9.4185336548507532e+00 1.2052625878117734e+01 9.0923970088882324e+00 0 0 -1
907 1 1.9477934701660299e+01 2.7052667658787929e+01 2.1566127220169871e+01 0 0 -1
99 2 1.2289979181095307e+01 6.3637895008069396e+00 5.5425537055202883e+00 0 0 0
1561 1 1.2622341406265690e+01 1.7960021082346529e+01 1.3781074259237354e+01 0 0 0
1901 2 1.2083749038353226e+01 9.8136734028666819e+00 2.4826729228026320e+01 0 0 0
236 2 2.4888332522689879e+01 2.1982250873761828e+01 1.0522449064488189e+01 0 -1 0
359 2 1.6680565806009895e+01 2.5483758031418024e+01 2.4483150981078744e+01 0 0 0
924 2 1.8856104146149470e+01 1.7181197914043178e+01 1.2785672765711396e+01 0 0 0
149 2 1.9803525487115710e+01 3.3762496628607224e+01 2.3449705639622710e+01 0 -1 -1
224 2 8.1532421318224024e+00 5.1873488984067135e+00 3.9480780968158040e+00 0 0 0
1781 2 9.4014904732868665e+00 1.1555549031288523e+01 1.3238491010711249e+01 0 0 0
1710 2 1.2277340873468063e+01 6.6554404406280572e+00 1.8803994771096775e+01 0 0 0
1689 2 1.0278755076381509e+01 9.2479811023802139e+00 1.1689957469078697e+01 0 0 0
1705 1 1.4013205812784040e+01 1.2801364224239217e+01 1.8438757120832239e+01 0 0 -1
1773 2 2.0899713255864100e+01 3.2149021270136757e+01 2.6283198049384083e+01 0 0 -1
101 2 4.5589822507555802e+00 7.1498526982128059e+00 8.6492896621827811e+00 0 0 0
1570 1 1.2096038338193146e+01 1.1894727950951616e+01 1.6743799556480475e+01 0 0 1
2314 1 1.7239069209459871e+01 2.4722006175007518e+01 9.6052713187992822e+00 0 0 1
1129 1 1.2815522558218332e+01 1.4324788764483463e+01 2.2634682943380085e+01 0 0 -1
2360 2 9.6636617054708900e+00 1.3907968641555208e+01 1.0795016321338458e+01 0 0 0
1635 2 1.7203558616815606e+01 1.5507134523750416e+01 1.8868301482343075e+01 0 0 0
1017 2 9.4518528531079191e+00 4.3515338530864600e+00 1.2448030285342350e+01 0 1 -1
1866 2 8.6616424080256351e+00 6.7323380382943956e+00 1.6678817075781122e+01 0 0 0
821 2 9.2858158135023796e+00 1.9661100861309784e+01 5.8409660865316537e-01 0 0 0
1059 2 1.0651728465349230e+01 8.9576146681960580e+00 2.6168908650374579e+01 0 1 -1
896 2 2.0396983949012597e+01 3.0037389176158609e+01 2.2366389342556417e+01 0 0 -1
868 1 7.3387813657184537e+00 1.5619133139687698e+01 8.8378126355175546e+00 0 0 0
944 2 5.2682065958524147e+00 1.4741275822450511e+01 2.3934332829487355e+00 0 1 0
1571 2 1.1785538148327181e+01 1.1040708146570768e+01 1.6375425626511099e+01 0 0 1
1659 2 1.6635308408200096e+01 2.7886253766711960e+01 1.9201902627476265e+01 0 -1 0
894 2 1.3810618633251158e+01 1.7692350735319710e+01 1.0180719526179590e+01 0 0 0
2589 2 1.8598797161765781e+01 1.0144019249360547e+01 9.1915314353476614e+00 0 1 0
1274 2 5.7939816114631251e+00 8.0651855366352372e+00 2.5064379680519657e+00 0 0 0
1113 2 1.1763361362488457e+01 2.3196833901370276e+01 1.0849874608059354e+01 0 0 0
1669 1 5.6291201916384939e+00 3.6887444410900265e+00 9.3064085296840926e-01 0 0 0
1063 1 2.2774368604709153e+01 2.9334310750566786e+01 1.9178974233646592e+01 0 0 -1
1671 2 6.4228635267489551e+00 4.1772963146792836e+00 8.4911289008835689e-01 0 0 0
1791 2 4.4599138875639177e+00 7.6791662230109310e+00 5.0891586871489984e+00 0 0 1
1001 2 7.0432530738732630e+00 1.4597658010557016e+01 5.6946320896529876e+00 0 0 0
846 2 1.5347445601755386e+01 1.8040114465240880e+01 2.3396468748520373e+01 0 0 -1
226 1 1.0709765839460843e+01 2.8745780924127985e+01 4.0378565428213387e+00 0 0 0
1739 2 1.6898902435715019e+01 2.2302132826581968e+01 2.5086219345961233e+01 0 0 0
822 2 9.2921688741271051e+00 2.1193690042703828e+01 5.9181227314142104e-01 0 0 0
2471 2 1.8311760257163616e+01 8.5751289789428533e+00 1.9444139846157892e+01 0 1 0
1112 2 1.3250397844835057e+01 2.2892501330542817e+01 1.1134199287118641e+01 0 0 0
887 2 1.6885715587472241e+01 2.1945325397659317e+01 1.9961712406160498e+01 0 1 -1
2465 2 7.8139421408801351e+00 1.9327984460804757e+01 5.9704118744263637e+00 0 1 0
54 2 1.3633036586328004e+01 2.5252907808723442e+01 9.4708813027736358e+00 0 -1 0
102 2 4.8653107832788391e+00 8.6752986505988492e+00 8.9317724455675993e+00 0 0 0
223 1 7.3630737762138949e+00 4.9256958304688494e+00 4.5071306734747818e+00 0 0 0
1917 2 1.5094430951323453e+01 2.4103830503660912e+01 1.5682700138552962e+01 0 0 0
353 2 6.4223720099191670e+00 1.0169969628417954e+01 8.8611358299258587e+00 0 0 0
2407 1 9.4046839617953193e+00 1.7773421817663177e+01 8.1510305394690707e+00 0 0 0
1687 1 9.9400598431607179e+00 8.3504198665969867e+00 1.1731624544340125e+01 0 0 0
986 2 1.5258492300881436e+01 1.2854249866752804e+01 1.9903750233475048e+01 0 0 0
1706 2 1.3289584132769573e+01 1.2319230004255626e+01 1.7897681170555177e+01 0 0 -1
1703 2 9.2431293792513820e+00 1.2939771378845247e+01 1.5368603373818726e+01 0 0 0
1374 2 2.7339282289978858e+01 2.5738555255398410e+01 2.3671034353557882e+01 0 0 -1
1688 2 9.8907429835556151e+00 8.0829359929640923e+00 1.2650920981902638e+01 0 0 0
1002 2 6.0886197141922151e+00 1.3661240560245075e+01 6.5629925501874755e+00 0 0 0
219 2 9.7964818863127796e+00 2.3308632018578322e+01 9.9221151809743517e+00 0 -1 0
922 1 1.8921397230939981e+01 1.6300791540718151e+01 1.3268305830952645e+01 0 0 0
2409 2 9.7046874915725070e+00 1.8421602051312490e+01 8.8077743984588057e+00 0 0 0
845 2 1.4789590868218070e+01 1.7188458751712712e+01 2.4538934322175518e+01 0 0 -1
1563 2 1.3487541885654055e+01 1.7565880309900681e+01 1.3721880411862211e+01 0 0 0
908 2 1.9432617132552103e+01 2.6781124573887901e+01 2.2488544740008571e+01 0 0 -1
893 2 1.3064733775189463e+01 1.6465940014553631e+01 9.4435579803438774e+00 0 0 0
28 1 1.8694742484486486e+01 2.1009685439235792e+01 1.4147792245634710e+01 0 0 0
1881 2 9.1444085050563224e+00 1.0519522409602025e+01 2.3009662097414644e+01 0 0 0
870 2 7.8379540022418297e+00 1.6460300469869566e+01 8.8454043047608248e+00 0 0 0
300 2 1.2615455789813653e+01 1.8894151863706881e+01 7.0941423077431685e+00 0 0 0
1585 1 1.1607232580239671e+01 1.4010182339107079e+01 1.1234528164557020e+01 0 0 0
2414 2 1.2273295075746628e+01 2.1029102852792679e+01 1.1980030511093668e+01 0 0 1
2436 2 2.1325121414591280e+01 2.3586406050482044e+01 1.1047738381901352e+01 0 0 0
2441 2 1.8865448802772747e+01 1.9858336137254899e+01 1.2983604138358441e+01 0 0 1
847 1 1.6130761671638631e+01 1.6647440426564913e+01 1.1368875567676076e+01 0 0 -1
1562 2 1.2626462481164335e+01 1.8284171942055579e+01 1.4713453194447942e+01 0 0 0
1015 1 8.7683806694550057e+00 3.7205665816772751e+00 1.2087575405658582e+01 0 1 -1
1738 1 1.6909432986643964e+01 2.3139323735215349e+01 2.5565973898408103e+01 0 0 0
949 1 2.3976070014499218e+01 2.4753566970200637e+01 1.2494074884624402e+01 0 -1 0
30 2 1.9076627380953418e+01 2.1898256364725334e+01 1.4099498267205897e+01 0 0 0
1656 2 8.5288552333087377e+00 2.5468998807585390e+01 1.8604681695046716e+00 0 0 2
2626 1 1.3148300878732934e+01 2.4044323234544155e+01 2.1497833038390290e+01 0 0 0
150 2 1.0643315175677216e+01 6.4969747002630660e+00 2.4429473206377072e+01 0 0 -1
2440 1 1.9088914642078251e+01 1.9076968579716439e+01 1.2422744398703284e+01 0 0 1
98 2 1.2665042502069227e+01 7.7845348750913788e+00 5.3528014867425746e+00 0 0 0
2408 2 1.0214494951896953e+01 1.7233192613996593e+01 7.9748050620849948e+00 0 0 0
369 2 1.5985088516300721e+01 1.2594712581528942e+01 1.5767263621236406e+01 0 0 -1
1065 2 2.2091312685270271e+01 2.8675982530437821e+01 1.9500557533584686e+01 0 0 -1
1130 2 1.2062304960267005e+01 1.3694803854050361e+01 2.2439664104604379e+01 0 0 -1
2355 2 2.0697087889996290e+01 2.6867196048919119e+01 2.0419656994141018e+01 0 0 0
962 2 2.5289371168918450e+01 2.8724398883167190e+01 2.3794365396945370e+01 0 0 -1
888 2 1.5331299520640389e+01 2.2334635827375756e+01 2.0140411768252857e+01 0 1 -1
1135 1 1.0694227381927400e+01 9.7799330183048525e+00 2.2398614932985517e+01 0 1 -1
299 2 1.2792906211235117e+01 1.9534871946568945e+01 8.4160615575540003e+00 0 0 0
626 2 1.1301692965288241e+01 8.2629611859344667e+00 1.1074149718616537e-01 0 0 0
873 2 1.1090962065040120e+01 1.5948864453641162e+01 1.5919219224964579e+01 0 0 0
105 2 7.3350002417539564e+00 1.2735135391885404e+01 1.0043195553986813e+01 0 0 0
2311 1 1.8834359226921507e+01 1.4731245482231088e+01 2.6507162825392328e+01 0 1 -1
1515 2 1.0623698020820189e+01 1.9754967196158912e+01 3.3544871748957923e+00 0 0 0
1896 2 8.1009485286000746e+00 1.3176982234893709e+01 7.1056341566456442e+00 0 0 1
1546 1 1.4029236588541073e+01 1.5584056651071485e+01 2.4714656597394296e+01 0 1 0
984 2 1.7306005491414723e+01 9.6098788129725463e+00 1.2609169769067242e+01 0 1 -1
588 2 5.2774897184910170e+00 1.0144634525904705e+01 5.7212009997413000e+00 0 0 0
909 2 1.8635945532617320e+01 2.6799777572282871e+01 2.1125416567388147e+01 0 0 -1
2668 1 2.0210685813169629e+01 2.4128355303494111e+01 9.7655981979769155e+00 0 0 0
2354 2 2.1990800540972735e+01 2.6235658748671522e+01 1.9633283339274815e+01 0 0 0
953 2 2.3393664257823907e+01 7.6294843243079011e+00 2.6815032193091966e+01 0 1 -1
2427 2 9.1981525554450734e+00 1.2554718645231764e+01 2.1049817833275632e+01 0 0 0
1273 1 6.0627488167800427e+00 8.4887561246093099e+00 1.6611076822890560e+00 0 0 0
1132 1 1.1103875329055050e+01 7.5345048210912315e+00 9.4399295992457048e+00 0 1 0
1780 1 9.8909760047680209e+00 1.1944404467897346e+01 1.4026661581710288e+01 0 0 0
898 1 1.3707706756969262e+01 2.5040809684639861e+01 1.6452253036195778e+01 0 0 0
1514 2 9.7570711389500584e+00 1.9225234824512693e+01 4.6314545283811546e+00 0 0 0
2347 1 3.0887255923506387e+01 3.2327727826426894e+01 1.9284052474771748e+01 0 0 0
352 1 6.6596167357609133e+00 9.4200775388710838e+00 8.3713210322948868e+00 0 0 0
961 1 2.5070578361270208e+01 2.8595142287792903e+01 2.2858043890015786e+01 0 0 -1
885 2 1.5752389822255772e+01 6.6741708821969219e+00 1.6191032913642061e+01 0 1 -1
805 1 2.3323051241757824e+01 1.8412034183233260e+01 8.9895994819445768e+00 0 0 0
2316 2 1.7903967713269367e+01 2.4341029550004027e+01 1.0176026210448539e+01 0 0 1
975 2 1.2283154957969241e+01 2.7938557229111478e+01 7.0399210722315209e+00 0 0 0
818 2 2.0195998259350233e+01 2.9086504915293844e+01 1.6203978822417600e+01 0 0 -1
775 1 1.2003441816889474e+01 2.1901154106213777e+01 4.9793570373074436e+00 0 0 0
1603 1 1.6900646489331436e+01 2.0674067394264725e+01 2.4743593677292992e+01 0 0 0
2489 2 2.9874460457485867e+01 2.4578502279253115e+01 2.6628086636818058e+01 0 0 0
1605 2 1.6284059721940487e+01 2.0339524504339682e+01 2.4065556563447881e+01 0 0 0
2532 2 1.1358503423914399e+01 2.2151170434585335e+01 1.4314311778704727e+01 0 0 0
77 2 1.1064438549637737e+01 2.8425214242028421e+01 2.3698678596654110e+00 0 -1 0
100 1 4.1339001243955238e+00 8.0146382960859412e+00 8.9347508009760528e+00 0 0 0
1877 2 2.1841173319256839e+01 3.2208133356201152e+01 2.0667630057754153e+01 0 -1 0
2669 2 2.0596866083479540e+01 2.4507254845854003e+01 8.9146356798101145e+00 0 0 0
2323 1 9.8641028764265304e+00 2.2752423272089775e+01 8.4399754157269258e-01 0 1 1
634 1 2.5065571044376689e+01 2.4657107481406307e+01 1.6559656526652795e+01 0 0 0
1016 2 1.9020730577435312e+01 3.1008034945652390e+01 1.2712293259228378e+01 0 0 -1
2283 2 1.4875756038488948e+01 2.3719105591173246e+01 5.3361389654959197e+00 0 -1 0
995 2 5.1762808478376163e+00 9.9729093281059065e+00 2.0295962304045547e+00 0 1 0
97 1 1.3008488003539842e+01 6.9636074702763366e+00 5.6759513702772146e+00 0 0 0
2361 2 8.5862790947990568e+00 1.4719995348815786e+01 1.1437372161084099e+01 0 0 0
288 2 2.2313544863438672e+01 2.0391207633112383e+01 3.0497176290957588e+00 0 0 0
1513 1 1.0319453020883902e+01 1.8947388728018883e+01 3.9138757399509885e+00 0 0 0
1078 1 1.5149067914577653e+01 2.6659686903988177e+01 1.2233107028208815e+01 0 0 0
963 2 2.5716853684834312e+01 2.8037969875158275e+01 2.2459129568248901e+01 0 0 -1
1547 2 1.3701889731664965e+01 1.5242662551991607e+01 2.3853638104767921e+01 0 1 0
2353 1 2.1296083776059913e+01 2.6894460480153171e+01 1.9627293862238350e+01 0 0 0
917 2 1.5030075433694279e+01 1.3479526338707146e+01 2.6739119307876702e+01 0 1 -1
2638 1 1.9858504769233438e+01 1.8822248869411954e+01 1.3012619267175818e+00 0 1 0
985 1 1.6064473959516810e+01 1.2845115981128425e+01 2.0499186752841378e+01 0 0 0
878 2 2.5306132283644608e+01 1.4737057571303438e+01 2.6843834215600907e+01 0 0 -1
76 1 1.1344969426837183e+01 2.8240412574235453e+01 1.4140450658867449e+00 0 -1 0
298 1 1.2455774849885509e+01 1.9720047915152762e+01 7.5286393852117088e+00 0 0 0
1707 2 1.4730035532072208e+01 1.2881129278967308e+01 1.7772939583890860e+01 0 0 -1
851 2 7.2063915535275598e+00 1.2587859829322532e+01 1.2461282660402260e+01 0 1 0
612 2 6.9738994024343093e+00 5.7584483472923340e+00 1.5453631826425880e+01 0 1 0
2396 2 4.3398050161205095e+00 3.0726703730876030e+00 9.5460597145102764e+00 0 1 0
1079 2 1.5589742647795433e+01 2.5871618855626384e+01 1.2546948112863943e+01 0 0 0
883 1 1.6014952981779587e+01 5.9261650360370526e+00 1.5632674202206628e+01 0 1 -1
2442 2 1.9646171917342535e+01 1.9415556617206242e+01 1.1658671266032576e+01 0 0 1
1915 1 1.6025191132283776e+01 2.3865951988677171e+01 1.5495342251699494e+01 0 0 0
2451 2 1.4116622205763086e+01 2.3595413347997575e+01 2.2612851181410299e+01 0 0 0
2315 2 1.7462827333994348e+01 2.4231441243694839e+01 8.7527690555279953e+00 0 0 1
1006 1 2.6821623424642983e+01 2.9079591075107366e+01 1.2233827930987969e+01 0 0 0
983 2 1.8507650347117796e+01 9.3936171395587635e+00 1.3602101322562637e+01 0 1 -1
923 2 1.9856042015313054e+01 1.6197950814959686e+01 1.3534070035199539e+01 0 0 0
2572 1 1.3247766423081274e+01 2.1888230001234923e+01 1.6748728356265101e+01 0 0 0
354 2 6.9646826687485337e+00 8.7451762190968587e+00 9.0253622114733147e+00 0 0 0
156 2 1.0383624620034036e+01 5.8656615881980789e+00 8.5111758697058999e+00 0 0 0
1589 2 1.2409706563750406e+01 2.4696942225634768e+01 3.4651314233767665e+00 0 -1 1
1616 2 1.2934367133890525e+01 1.9606589094413135e+01 1.0467922651560940e+01 0 -1 0
1050 2 1.4989752961538898e+01 2.0607027779663316e+01 5.8355927556358731e+00 0 0 0
1081 1 1.9109763915592396e+01 1.4647069964331004e+01 2.1534420299613263e+01 0 0 -1
1594 1 1.6659908563868452e+01 2.0095569151001392e+01 1.7655050198314424e+01 0 0 0
2445 2 1.3871060346458027e+01 1.4025267652395829e+01 1.1297174286616492e+01 0 1 0
1588 1 1.2077532950045025e+01 2.4858672647855801e+01 4.3900844318849757e+00 0 -1 1
1150 1 1.8525068573107667e+01 1.8289052829669245e+01 1.6811531998612296e+01 0 0 0
1841 2 2.2770829911454932e+01 1.3843173932996081e+01 2.5799402104661077e+01 0 0 0
313 1 1.2652828643675608e+01 1.9143881850376381e+01 1.6250750530384920e+01 0 0 -1
1118 2 2.1207007914990015e+01 2.4336206950848009e+01 1.7499032580199181e+01 0 0 -1
1872 2 1.5186384045818482e+01 2.4992967152251147e+01 1.9074920319530531e+01 0 0 0
2613 2 1.7565742127135376e+01 2.9994654444672495e+01 7.4461544398320267e+00 0 0 1
1133 2 1.2076590000543074e+01 7.6891833079679017e+00 9.3009536624086326e+00 0 1 0
1762 1 1.1989959893706770e+01 1.0469917788765851e+01 1.1244854003050200e+01 0 0 0
2556 2 1.9472687125474259e+01 1.8724130711037333e+01 2.4650717326805747e+01 0 0 0
2548 1 1.9998569446887998e+01 1.0760178313162783e+01 2.6160640818831904e+01 0 1 0
1870 1 1.4285416734983924e+01 2.5278836273592052e+01 1.9121691176534728e+01 0 0 0
1662 2 6.8387913887007450e+00 1.6092684805053640e+01 3.4154733699835806e+00 0 -1 1
1136 2 1.0566120396152947e+01 9.0824105738286782e+00 2.1732321882543570e+01 0 1 -1
1736 2 1.4627202686393378e+01 1.1399468413393558e+01 1.0237145680641028e+01 0 0 0
376 1 2.1860581515468098e+01 2.9744671250769528e+01 1.6205223889582857e+01 0 -1 0
1109 2 1.0181992507584471e+01 1.0506553306486763e+01 1.5001951591994750e+01 0 0 0
372 2 1.3915569000601952e+01 1.0612260020833602e+01 2.1921665404623575e+01 0 0 0
333 2 1.6659931307323120e+01 3.1590331193608794e+01 1.6384683748606509e+01 0 0 0
2555 2 1.9859377376676932e+01 2.0160598279890458e+01 2.4218092373539687e+01 0 0 0
374 2 6.1933933876339085e+00 8.2270327021546841e+00 4.7960600973006615e+00 0 0 0
1801 1 1.5460004993131481e+01 2.1444587973505335e+01 1.2570917806657508e+01 0 -1 0
442 1 9.1885494959689655e+00 6.0086298200874690e+00 2.8826034888576717e+00 0 0 0
2601 2 1.8967562636412616e+01 2.1085248126465832e+01 5.6138401960877546e+00 0 0 0
2600 2 2.0086798535382805e+01 2.2030537450682832e+01 6.1072665760405380e+00 0 0 0
188 2 1.3217081049997098e+01 2.1481961884459061e+01 7.6221697098328303e+00 0 0 0
2444 2 1.5337539348983196e+01 1.3962833369820570e+01 1.1764487053066546e+01 0 1 0
1882 1 9.4230168284017921e+00 2.0183652354838067e+01 1.2850290636180626e+01 0 0 0
2642 2 7.2779313083718407e+00 3.9568425528881113e+00 7.4084396620172237e+00 0 0 1
2307 2 2.1819131525450707e+01 2.8828543241410728e+01 5.3518338169574884e+00 0 -1 0
1119 2 2.0853839782266075e+01 2.3795900887410845e+01 1.8942656884501790e+01 0 0 -1
1088 2 1.9105726919351120e+01 3.0178996765105239e+01 2.4043061374403528e+01 0 0 -1
1637 2 9.8997528404235453e+00 1.1216902648855744e+01 1.8452374120996684e+01 0 0 0
269 2 1.6110460830760914e+01 1.6886798220919935e+01 2.1248768095681871e+01 0 -1 -1
2306 2 2.1129109660825389e+01 2.7656604783908868e+01 4.8023631060545728e+00 0 -1 0
198 2 1.7700332756406954e+01 3.0840221290525736e+01 1.0921670152894894e+01 0 -1 0
1089 2 2.0268215100036862e+01 3.1078750959232117e+01 2.4233744024421355e+01 0 0 -1
2468 2 1.0352611500076319e+01 1.5643123390869034e+01 3.3380276918724401e+00 0 0 1
2570 2 1.9420584151457323e+01 2.5836858134185572e+01 7.1739041604412961e+00 0 0 0
776 2 1.1400844097706335e+01 2.1773815733161118e+01 5.7861390888930018e+00 0 0 0
227 2 4.0719126245440806e-01 1.6609512461150193e+00 4.2156792123849520e+00 0 1 0
1658 2 1.6227576332340540e+01 2.7865039454764002e+01 1.7624637155079341e+01 0 -1 0
1103 2 1.1721118246483545e+01 1.2014621762057683e+01 2.4776113588912683e+01 0 1 -1
2604 2 1.7243875095141981e+01 1.7477555360301086e+01 2.6972892951310996e+01 0 1 0
2397 2 5.3553009415988768e+00 4.0081971179862581e+00 1.0273027490321974e+01 0 1 0
1134 2 1.0921674191500273e+01 7.9158169215576191e+00 1.0307531985762783e+01 0 1 0
2644 1 1.5509477108002287e+01 7.9691934014534844e+00 1.7301991571620587e+01 0 0 0
3026 2 2.8594324062032836e+01 2.9487962329001888e+01 1.7033409530742571e+01 0 0 0
332 2 1.5540821718880252e+01 3.1983828629912299e+01 1.5344315233135248e+01 0 0 0
1735 1 1.5251558375138256e+01 1.0927955399106963e+01 9.7371137981172300e+00 0 0 0
2646 2 1.6255319744106366e+01 8.5570765052804632e+00 1.7121244634755531e+01 0 0 0
2413 1 1.2941939739435298e+01 2.0298902987616184e+01 1.2133405250616907e+01 0 0 1
895 1 2.0821308820784402e+01 2.9525481684624079e+01 2.1563518737940292e+01 0 0 -1
2603 2 1.6745050875601244e+01 1.7613349777353307e+01 2.5450902336261745e+01 0 1 0
2554 1 1.9297736447922674e+01 1.9663848754268322e+01 2.4869912822213745e+01 0 0 0
2629 1 7.5024537077720481e+00 7.8225456415575634e+00 1.0436548468926288e+01 0 0 0
2305 1 2.1763211260597874e+01 2.7891700583015904e+01 5.4991257050425073e+00 0 -1 0
443 2 9.3038221986171727e+00 7.0180676807687261e+00 2.7930142821869195e+00 0 0 0
737 2 1.6704228640281876e+01 4.1169654509786433e+00 7.7642389572934531e+00 0 0 0
2375 2 2.9961293250638734e+00 3.1220638753311709e+00 5.5494361835368515e+00 0 1 1
994 1 4.8604363615689863e+00 1.0703828675330527e+01 2.5397912816734229e+00 0 1 0
2641 1 7.6282940937736416e+00 4.8614711889832583e+00 7.0903308242128995e+00 0 0 1
897 2 2.0212372823081530e+01 2.8781051118241969e+01 2.1281417970373816e+01 0 0 -1
318 2 2.2293114526725631e+01 2.7694546782409631e+01 2.5054261907736670e+01 0 -1 -1
725 2 7.1077261890046231e+00 2.1422492142816809e+00 3.6504019923757860e+00 0 0 1
2456 2 1.2717898944520730e+01 1.8077713572726047e+01 2.8204995515724134e+00 0 0 1
1672 1 4.6433264100919382e+00 2.4013034355390301e+00 5.5619083230066844e+00 0 0 0
1617 2 1.4327739500544755e+01 1.9933458853588675e+01 9.9992442942512056e+00 0 -1 0
1117 1 2.1459367952017779e+01 2.3739159982858403e+01 1.8193166692195945e+01 0 0 -1
1737 2 1.4909668072974029e+01 1.0820448434749249e+01 8.8550815497645079e+00 0 0 0
1909 1 1.2301684259487528e+01 9.7927151168736764e+00 1.9173823192118750e+01 0 0 0
1682 2 6.0635310134697677e+00 5.6498993693521733e+00 7.6042502721863077e+00 0 0 0
368 2 1.5011651758407226e+01 1.3746177761576739e+01 1.5733753730762185e+01 0 0 -1
197 2 1.7814409817042915e+01 2.9490646681985606e+01 1.0020936162811171e+01 0 -1 0
759 2 2.1696221298186419e+01 2.8596642385011318e+01 8.1714669883272570e+00 0 -1 0
2576 2 1.4676106427306941e+01 2.9049553122587437e+01 9.6009201658113508e+00 0 0 0
444 2 1.0111229906154186e+01 5.7452262008181778e+00 2.8159222086619424e+00 0 0 0
2513 2 1.6894281440378723e+01 2.4576047602210750e+01 1.6883146442327803e+01 0 0 0
830 2 1.2193565596055013e+01 2.7115736587953492e+01 1.2454187427710650e+01 0 0 0
1681 1 5.1766053586865848e+00 5.7592029474893680e+00 7.9811848789408337e+00 0 0 0
2467 1 9.9860703588245698e+00 1.6288466751070150e+01 3.9659848927332937e+00 0 0 1
1596 2 1.7242560682085944e+01 1.9452319650688732e+01 1.7252187455900277e+01 0 0 0
1621 1 1.0733826121177874e+01 1.2680982186336191e+01 1.8835662160373243e+01 0 0 -1
1622 2 1.0153018559022986e+01 1.3466774908710759e+01 1.8973391461928831e+01 0 0 -1
1151 2 1.8146077941564439e+01 1.7711798945154882e+01 1.6133197104082829e+01 0 0 0
1691 2 1.5561331853299087e+01 2.2655866173002000e+01 3.3313918859120610e+00 0 -1 1
316 1 2.1807864623164413e+01 2.7442232340822990e+01 2.5874998104706968e+01 0 -1 -1
2612 2 6.8105580364970226e+00 2.6300552076611239e+00 8.7233311214195552e+00 0 1 1
2491 1 1.1171072218214974e+01 2.1231430672455190e+01 2.6477090653121804e+00 0 0 1
2523 2 1.3201047250545798e+01 2.7847521301664205e+01 1.4818841478909293e+01 0 0 0
1110 2 1.0179312309251239e+01 8.9478875858541826e+00 1.5173622666445725e+01 0 0 0
1876 1 2.1222382762337009e+01 3.1640027285805822e+01 2.0187628790798197e+01 0 -1 0
2563 1 1.0864899156169260e+01 1.4767115702497405e+01 1.8315543674004391e+00 0 1 0
2630 2 7.1193445171331717e+00 6.9219424899709505e+00 1.0575162893505810e+01 0 0 0
216 2 1.6308831423397372e+01 1.9968660636574487e+01 1.0238019054930655e+01 0 0 0
819 2 1.8719497596147317e+01 2.9414162535064520e+01 1.6688385702170024e+01 0 0 -1
373 1 5.8948323981404638e+00 7.5479949877282575e+00 4.1787493106233775e+00 0 0 0
1049 2 1.4599791013352242e+01 2.0449556928935529e+01 4.2605189623464952e+00 0 0 0
2512 1 1.7132115060900190e+01 2.4714548220609359e+01 1.7821548588203324e+01 0 0 0
214 1 1.5713805662885854e+01 2.0697527887316404e+01 1.0050136342601087e+01 0 0 0
1900 1 1.1737541957324884e+01 8.9031667535564925e+00 2.4727669509250223e+01 0 0 0
375 2 6.4664184973608609e+00 6.7981489961184574e+00 4.3770950513013895e+00 0 0 0
1668 2 1.6577866004362239e+01 1.9892136782948299e+01 2.6618913925524975e+01 0 0 0
2439 2 6.6241886531415872e+00 1.1119007183279827e+01 4.4432312247628385e+00 0 1 0
189 2 1.2554416048960418e+01 2.2844614067821219e+01 7.8988588786892313e+00 0 0 0
844 1 1.5334518399718718e+01 1.7967688427000912e+01 2.4378894119365711e+01 0 0 -1
187 1 1.3423740926162182e+01 2.2389682321873558e+01 7.8290443592451098e+00 0 0 0
1611 2 8.0320172123963012e+00 2.1063846015874091e+01 2.2474981803362870e+00 0 -1 0
314 2 1.3250103888521135e+01 1.8594787074660495e+01 1.6788970192758466e+01 0 0 -1
2602 1 1.7412839654653553e+01 1.7202697527051100e+01 2.6076666605462897e+01 0 1 0
1548 2 1.3280444313744088e+01 1.5706549023482385e+01 2.5340848373038803e+01 0 1 0
1560 2 1.7065457604433693e+01 2.5286761005111000e+01 8.7781219808114619e-01 0 0 1
2598 2 1.3261266813885388e+01 2.2618944790081791e+01 1.9988231611300293e+01 0 0 0
271 1 1.0917612679659241e+01 1.2422893209920058e+01 2.1736656941882138e+01 0 0 0
2469 2 1.0350245683950670e+01 1.7149883008245936e+01 3.7596675270214051e+00 0 0 1
1657 1 1.6360296371452229e+01 2.8411840686642847e+01 1.8434769290265081e+01 0 -1 0
385 1 1.0862139003381181e+01 1.0203269979335081e+01 5.3067378356856532e-01 0 0 0
154 1 1.0152892958103628e+01 5.0250389551022074e+00 8.1050089536004695e+00 0 0 0
29 2 1.9358786179789515e+01 2.0589697986070448e+01 1.4767061133725905e+01 0 0 0
1152 2 1.8882386542985131e+01 1.7800594426752930e+01 1.7515647534521026e+01 0 0 0
625 1 1.2058911151750326e+01 7.6468282699116958e+00 1.9131520610622771e-01 0 0 0
1878 2 2.1019137686062173e+01 3.0820039345316637e+01 2.0733194868190125e+01 0 -1 0
2437 1 6.9084933101079304e+00 1.1878679550338244e+01 3.9528964570554446e+00 0 1 0
1615 1 1.3549690318022535e+01 1.9335058591577571e+01 9.7740020263342782e+00 0 -1 0
920 2 2.1857209525166940e+01 2.0713922677368423e+01 2.3812430533762157e+01 0 0 -1
284 2 2.6004306835356054e+01 3.1210830811254482e+01 1.8763544389381970e+01 0 0 -1
871 1 1.1424489783255595e+01 1.5130895286433404e+01 1.6304555347654414e+01 0 0 0
820 1 8.6798848325395053e+00 2.0422693670911311e+01 5.3096366901254888e-01 0 0 0
2670 2 2.0017105858163227e+01 2.4715401076547963e+01 1.0502929306017601e+01 0 0 0
117 2 1.3110057856399685e+01 1.6499046393685092e+01 5.4293766019653269e+00 0 0 0
2433 2 1.4997744291953239e+01 2.8920370626786568e+01 1.9030861865872094e+01 0 0 0
2492 2 1.1466952120783438e+01 2.1684754043448603e+01 3.4763854390961657e+00 0 0 1
1085 2 1.7465183166087531e+01 1.7948353292768417e+01 5.6980081957636717e+00 0 0 0
848 2 1.6774373176461570e+01 1.5961738427932342e+01 1.1062063915122341e+01 0 0 -1
273 2 1.1300044164005568e+01 1.2634727230103408e+01 2.0830522083950065e+01 0 0 0
1084 1 1.6778661787897661e+01 1.8030056372168989e+01 5.0013259568470874e+00 0 0 0
1910 2 1.1366774582769271e+01 9.9412183928043341e+00 1.8922154434114333e+01 0 0 0
1087 1 1.9736818986362238e+01 3.0710319453089681e+01 2.3515573498592861e+01 0 0 -1
756 2 1.1162683077300676e+01 2.4286748674396907e+01 1.4356110533455910e+01 0 0 0
196 1 1.7192618877163476e+01 3.0204036066998004e+01 1.0364693082881665e+01 0 -1 0
777 2 1.2947141327673679e+01 2.1710235505212854e+01 5.1699017121497803e+00 0 0 0
308 2 2.4102191911332181e+01 3.1829714016014570e+01 2.2703967893957511e+01 0 0 -1
309 2 2.4717029170779924e+01 3.0353228932821207e+01 2.3072345399749480e+01 0 0 -1
3003 2 1.0683440295794671e+01 5.3097642297648004e+00 6.3524745983794082e+00 0 1 0
1809 2 1.4164009826231272e+01 1.5222861440411355e+01 1.4560495847591376e+01 0 0 0
880 1 1.4908728291982783e+01 2.0570899932308166e+01 2.2373431543257968e+01 0 0 0
315 2 1.1780390645703221e+01 1.9048590031306396e+01 1.6604746394180328e+01 0 0 -1
283 1 2.6561092786347373e+01 3.1871326488032945e+01 1.9288929999934279e+01 0 0 -1
386 2 2.1582932035081910e+01 1.7545653618594876e+01 2.6879118804844637e+01 0 0 -1
2349 2 3.1447450384405471e+01 3.3022752807440625e+01 1.9793258508789329e+01 0 0 0
726 2 5.8797805856578798e+00 2.7305041859791781e+00 4.1525102686414188e+00 0 0 1
856 1 2.0005424857425847e+01 9.6208860869931652e+00 1.0391649585135053e+01 0 0 0