LAMMPS data file via write_data, version 15 Apr 2020, timestep = 19845000

6144 atoms
2 atom types

-1.3152330874975462e+00 6.1283522218728564e+01 xlo xhi
0.0000000000000000e+00 2.8074939607253558e+01 ylo yhi
0.0000000000000000e+00 2.7135030844465355e+01 zlo zhi
1.0145869665049162e+01 1.0169989577277946e+01 7.1104124442175269e+00 xy xz yz

Masses

1 16
2 2

Atoms # atomic

255 2 1.1517698885853427e+01 1.8959451878553352e+01 1.7852552719611985e+01 0 0 -1
1604 2 1.5228177880075755e+01 2.1125106402372413e+01 4.5772925801200541e+00 0 0 1
1043 2 6.1700379141220658e+00 1.2254308064505294e+01 1.0516365282054378e+01 0 1 0
2508 2 7.6914728923582452e+00 2.1063911521883647e+01 3.1397489897834574e+00 0 0 1
754 1 1.1227466393118467e+01 2.2553375243206727e+01 1.4437788294035355e+01 0 0 0
52 1 1.5519281305135092e+01 2.6254382358246811e+01 1.4660834562931333e+01 0 -1 0
1205 2 2.4023590454578315e+01 2.7311980300663489e+01 1.0769916107046926e+01 0 0 0
1625 2 1.3809521404320233e+01 1.2521172033548936e+01 2.2110793800800899e+01 0 0 0
2464 1 1.3167104892310963e+01 2.1806226831595520e+01 1.5551510943250129e+00 0 1 0
886 1 1.9504455688867104e+01 2.5439104348336521e+01 2.1862005027376938e+01 0 1 -1
1633 1 1.1570641180104495e+01 1.3218062847366687e+01 1.8431273638027580e+01 0 0 0
941 2 1.0131209064486532e+01 1.7330338760405166e+01 1.6115744179360558e+01 0 0 0
2443 1 1.2856858082984282e+01 1.3933753484633611e+01 2.1436622207853635e+01 0 1 0
1811 2 3.8473066468495709e+00 5.2278643711599679e+00 1.0510288577362015e+01 0 1 0
2466 2 1.3191996155321720e+01 2.1021521857390702e+01 2.2268833910551256e+00 0 1 0
1895 2 1.1396435603021903e+01 1.8986462899773958e+01 6.4372532942122431e+00 0 0 1
302 2 2.0502500483748157e+01 1.5196606150504568e+01 7.2449902859522464e+00 0 0 -1
1634 2 1.2222010768958654e+01 1.3309641016487401e+01 1.7714259947121011e+01 0 0 0
1064 2 1.7243920903421305e+01 3.1058621831538773e+01 1.7736104494519243e+01 0 0 -1
1894 1 1.0878801073666622e+01 1.8408958027933267e+01 5.8491853777094569e+00 0 0 1
2671 1 5.0146180405010536e+00 6.2496932506868674e+00 1.2493585777866699e+01 0 1 0
1519 1 1.1986502817089272e+01 2.0560515742084128e+01 7.0304967589458149e+00 0 0 0
611 2 6.8758492002816993e+00 4.5854406244623291e+00 1.5288032939089572e+01 0 1 0
1709 2 1.9240411293106110e+01 3.0553645935500874e+01 1.9972779701465871e+01 0 -1 0
487 1 1.6942348294066520e+01 2.7061083484809739e+01 2.5285670334814281e+01 0 0 -1
53 2 1.4612673634458591e+01 2.5889069108198321e+01 1.4867846764738600e+01 0 -1 0
1569 2 1.5053394588428237e+01 3.1070254782412775e+01 1.5884339670157978e+01 0 0 0
1832 2 2.3453424263305582e+01 2.7677332535366212e+01 8.7490175058868171e+00 0 -1 0
218 2 1.0104325872480516e+01 2.2546058146208409e+01 9.2975007619257894e+00 0 -1 0
1829 2 1.2512946357705145e+01 2.7913930493217077e+01 1.2051967034266656e+01 0 -1 0
2396 2 7.5939454519835117e+00 3.7847680882487085e+00 1.1870083045289325e+01 0 1 0
678 2 1.3382630401697202e+01 1.9846784942938310e+01 4.0672111337438031e+00 0 0 0
610 1 7.6747358208984764e+00 5.1315283795326110e+00 1.5327678810611291e+01 0 1 0
1275 2 2.0669344308102744e+00 1.6025088240841439e+00 1.3048789238887477e+00 0 0 0
1856 2 2.3347053532038728e+01 3.0934297882750151e+01 2.5396921763471450e+01 0 0 -1
2359 1 1.4572206582730956e+01 2.0097679475630365e+01 2.5128965469114522e+01 0 0 -1
1708 1 1.9399366023759651e+01 3.1287959806800213e+01 2.0593329341619555e+01 0 -1 0
27 2 1.0010434923184366e+01 1.1123301029020798e+01 1.2813201600567551e+01 0 0 -1
907 1 1.6922412544740048e+01 2.6577847840689987e+01 1.8194016480461745e+01 0 0 -1
99 2 1.1095206594355009e+01 1.1119698169759223e+01 1.2769807364483456e+00 0 0 0
322 1 8.9306241769107970e+00 2.0443422333489604e+01 7.7351435897391854e+00 0 0 0
2641 1 2.0117629546869797e+01 2.0976187118703344e+01 4.3498623903736808e+00 0 -1 1
2794 1 1.0335891115757649e+01 1.9594005287898792e+01 3.5635381739429324e+00 0 0 1
939 2 2.3309816494599858e+01 3.4462101593590845e+01 2.6572038304996163e+01 0 0 -1
924 2 1.0884583008901863e+01 5.4241851373965364e+00 1.4197842405672679e+01 0 1 0
149 2 1.7816199751588790e+01 1.1435338027099938e+01 2.4806072569417303e+01 0 0 -1
243 2 5.0054816402674662e+00 1.2199166885440080e+01 4.7303154929114957e+00 0 0 0
1544 2 8.3901427489107832e+00 1.0016447839751855e+01 1.4954582393193149e+01 0 0 0
1710 2 2.0025258325032183e+01 3.1886102250954277e+01 2.0087429626920077e+01 0 -1 0
1689 2 6.7955714268952470e+00 1.5457618002789399e+00 5.8821682197782286e+00 0 0 0
1705 1 7.5453189802322740e+00 1.1094500430987411e+01 2.6791235578435701e-01 0 0 0
1773 2 1.8377049486495778e+01 1.5319899082487444e+01 5.9192566861359097e+00 0 0 0
3053 2 3.0115966858402402e+01 3.0313681187758043e+01 2.3753294563574009e+01 0 0 0
1570 1 1.0359023405872492e+01 1.2107427013560621e+01 1.4856003375023544e+01 0 0 1
1514 2 9.9907805048174492e-01 1.2744530823348299e+00 4.6906609384674454e+00 0 1 0
1970 2 1.9035753302067530e+01 1.1335681755602568e+01 1.4991831082396880e+01 0 0 0
1067 2 1.0137852475111851e+01 8.6081381152351977e+00 2.2428635787849483e+01 0 2 -1
1635 2 1.2150375375104762e+01 1.2926142839865484e+01 1.9173697306893505e+01 0 0 0
2389 1 1.1050772721455360e+01 2.7798717056873127e+01 7.4010155852244086e+00 0 0 0
1304 2 1.6080507309737165e+01 6.8271779108602306e+00 2.0985624520055392e+01 0 1 -1
821 2 1.5861239916498480e+01 1.1088356601027655e+01 1.0670814404125515e+01 0 0 0
1542 2 1.6871260885173847e+01 1.3746000723555406e+01 4.9280880987094395e+00 0 0 0
75 2 2.2424393643988044e+01 1.9400548775070686e+01 1.0259933833596717e+01 0 -1 0
868 1 5.7092779642285345e+00 4.8738520868131623e+00 6.1026838056093435e+00 0 0 0
1622 2 1.1210494948312455e+01 1.3218696198486278e+01 2.1630008109784779e+01 0 0 -1
681 2 1.7089932476649167e+01 5.0922667479088100e+00 1.7879940111988173e+01 0 0 -1
633 2 7.9331184785544515e+00 1.4617977797724869e+01 1.3873848602728042e+01 0 0 0
2374 1 2.3687134985017284e+00 4.9168593247824761e+00 5.8059263883449104e+00 0 1 1
1653 2 7.9246164346105132e+00 6.6092674297121228e+00 3.3817453409442875e+00 0 0 1
1274 2 3.5573592997728882e+00 1.5256332014661154e+00 1.5557631110784746e+00 0 0 0
137 2 9.4347166344494351e+00 1.8758429571395336e+01 2.2973390142248533e+00 0 -1 1
2623 1 1.0950281039450672e+01 1.7160772863496938e+01 2.0943397621225671e+01 0 0 0
1063 1 1.7537404634213729e+01 3.0277105143970132e+01 1.7284459510068114e+01 0 0 -1
434 2 1.6075113841665374e+01 2.2528557967278708e+01 6.7487744613897735e+00 0 -1 -1
1791 2 1.0924817043800994e+01 6.6197641290807789e+00 8.0389770091250767e+00 0 0 1
2342 2 1.4136412490476641e+01 2.3380956202365638e+01 2.3661688611818857e+01 0 1 0
861 2 1.2813154676523475e+01 5.3615350540887867e+00 1.6065815238776437e+01 0 1 -1
257 2 1.5913593807412596e+01 4.3085682577950513e+00 4.1500541067496988e+00 0 0 1
1680 2 1.3922740497223078e+01 1.8278294341662940e+00 5.0965162449771304e+00 0 0 1
822 2 1.6973566262840549e+01 1.2116066326487477e+01 1.0321476590344774e+01 0 0 0
1871 2 1.6279728774906403e+01 2.5591447870854591e+01 2.1329190511992028e+01 0 0 0
2669 2 2.0185701366439044e+01 2.1906755516989652e+01 7.2709712939132736e+00 0 0 0
887 2 1.8816928612793181e+01 2.4997854241390566e+01 2.1329619648532503e+01 0 1 -1
2465 2 1.3822707685286270e+01 2.2508904405429824e+01 1.8202616218511916e+00 0 1 0
54 2 1.6049758602041081e+01 2.5508103991960574e+01 1.4807646878309667e+01 0 -1 0
1870 1 1.5793720821045614e+01 2.6377704883908379e+01 2.1669907767013605e+01 0 0 0
1150 1 1.4608608187513862e+01 2.3806615536715210e+01 2.0155600140938743e+00 0 -1 1
1667 2 1.7279348744149281e+01 1.7625194572910903e+01 1.9668404522526256e+01 0 0 0
353 2 1.4567766319817503e+01 1.5142044944764578e+01 2.7953717939938794e+00 0 0 0
2407 1 8.4603893718217940e+00 1.6694412798822260e+01 4.2214364950057792e+00 0 0 0
1687 1 1.7036757011114073e+01 2.8900768961779544e+01 6.5679694652664660e+00 0 -1 0
317 2 2.3231776742756438e+01 1.8738344617741163e+01 2.4751416743499401e+01 0 -1 -1
1706 2 7.4428742970107322e+00 1.1461084472132317e+01 1.2006349039571815e+00 0 0 0
1703 2 1.2699230502071101e+01 1.8069103549733381e+01 1.0647894687365874e+01 0 0 0
2168 2 2.1478979000214760e+01 1.8590188271197359e+01 6.3424794997202483e+00 0 0 0
1688 2 1.7496782113198801e+01 2.8285237234093383e+01 6.0142766764651334e+00 0 -1 0
1545 2 7.5766340390997229e+00 1.0546910163547693e+01 1.6155451749666536e+01 0 0 0
2326 1 2.9145509446504212e+00 7.3214573124878815e+00 1.6597446018998705e+00 0 1 1
922 1 1.1043997194494590e+01 4.8981459635695597e+00 1.3422904676626118e+01 0 1 0
2331 2 1.1849332020252525e+01 2.5422866021573459e+01 4.2272479939087478e-03 0 0 0
845 2 1.5622038094132833e+01 1.9909724429490041e+01 1.2127244343640093e+01 0 -1 0
211 1 1.6168231285490283e+01 1.3592112336474580e+01 1.3311530237973287e+01 0 -1 1
908 2 1.6192033005631242e+01 2.6020855777597507e+01 1.8215029309422047e+01 0 0 -1
1678 1 2.4328402654611573e+01 2.9644592952593658e+01 6.0230608628321738e+00 0 -1 1
631 1 8.4429723465208468e+00 1.5324680081724495e+01 1.4313481745900992e+01 0 0 0
1579 1 1.8241799112057468e+01 4.7785357782523565e+00 1.5355317492027455e+01 0 -1 1
870 2 5.4263600944080128e+00 4.2098384143516707e+00 6.6957207132853718e+00 0 0 0
300 2 1.3306551677251715e+01 2.4552775053644122e+01 2.7714048253222257e+00 0 0 0
587 2 1.1145269042167715e+01 1.6891868199962634e+01 1.9359337350254990e+00 0 0 0
3029 2 2.6214317806994913e+01 2.8843983044116555e+01 2.4645095379887994e+01 0 0 0
1234 1 1.2127438962630869e+01 1.5971887024765079e+01 1.7283266285243066e+01 0 1 0
189 2 1.2762590907312983e+01 2.4261183703601812e+01 1.2031044894201141e+01 0 0 0
1719 2 1.2245754712580300e+01 2.9727461596195153e+00 1.0216171505387244e+01 0 0 1
254 2 1.2945714289614120e+01 1.8735761418776342e+01 1.8577292951854382e+01 0 0 -1
1015 1 2.1401785205712223e+01 2.8774356766462276e+01 1.4331835925323666e+01 0 0 -1
1679 2 1.5144068626270801e+01 1.6304291644079121e+00 6.1665451196032244e+00 0 0 1
1704 2 1.3636421028515045e+01 1.7165462429409477e+01 9.7303481320143028e+00 0 0 0
2044 1 7.0342492599516113e+00 6.9985967366850357e+00 7.1509199828215220e+00 0 0 1
1655 2 1.8914235429501275e+01 3.3924946361697678e+01 2.6898324993183973e+01 0 0 1
1904 2 2.7383337455085311e+01 2.3052289679732013e+01 1.9491315697108814e+01 0 -1 0
150 2 1.8493890151017141e+01 1.1970835890815998e+01 2.3540210754677510e+01 0 0 -1
212 2 1.6367798989269261e+01 1.2871281074045246e+01 1.2666600124459402e+01 0 -1 1
98 2 1.0774534452323362e+01 1.2645337697512439e+01 1.1983531476619473e+00 0 0 0
489 2 1.6405086148071824e+01 2.7792058350103233e+01 2.5056780253290192e+01 0 0 -1
369 2 9.4185221043828715e+00 1.2037644509598442e+01 5.1197319432776132e+00 0 0 0
1065 2 1.6810815952112485e+01 2.9732032952847725e+01 1.7003297905690655e+01 0 0 -1
461 2 1.3312151885877682e+01 1.5106227708215796e+01 2.4748408106071576e+01 0 0 -1
2984 2 1.7486166831982175e+01 2.9420177489239741e+01 8.3905908021557956e+00 0 0 1
962 2 2.1609059874821078e+01 3.2557402937996983e+01 1.8477288230439104e+01 0 0 -1
888 2 1.9254444063664813e+01 2.6397147160657077e+01 2.1805065259100765e+01 0 1 -1
201 2 2.6351620273561313e+01 3.0798919606035582e+01 1.6738778967610205e+01 0 0 -1
299 2 1.1882922847679145e+01 2.5131680902642305e+01 3.0246396987314297e+00 0 0 0
114 2 1.5837234367714391e+01 3.0421335239605749e+01 2.0429012077096854e+01 0 -1 0
2525 2 2.9305768964722475e+01 3.2424523195690043e+01 1.7046989720263259e+01 0 0 0
1628 2 1.2362099087532631e+01 7.6196394484531567e+00 2.5282214071666747e+01 0 1 0
2311 1 2.0377597692040560e+01 2.0795554549214799e+01 1.6430739363319894e+01 0 0 0
677 2 1.2181536125303037e+01 1.9270350430637855e+01 3.3622529609896694e+00 0 0 0
1896 2 1.1489767113958088e+01 1.7782544330741509e+01 5.3680857822923551e+00 0 0 1
1546 1 1.7192256284414377e+01 1.8834503552348661e+01 2.2997019562910555e+01 0 1 0
1572 2 1.0834232665071958e+01 1.1460256848329799e+01 1.5382993178581293e+01 0 0 1
415 1 1.2543105398416692e+01 2.2173624185448887e+01 1.9602833912526375e+01 0 0 0
909 2 1.6681083653392548e+01 2.7440252419717005e+01 1.8603213163266641e+01 0 0 -1
1899 2 1.4367076289438016e+01 2.7061620991177666e+01 2.1012159537024772e+01 0 0 0
276 2 2.8996301499849093e+01 2.7464775306070354e+01 2.1429047935092782e+01 0 0 -1
953 2 1.7821131322770768e+01 2.4186468687665183e+01 2.4295945878056930e+01 0 1 -1
2636 2 1.9101702496498195e+01 1.2942731194103400e+01 1.8059013881078563e+01 0 0 0
1273 1 2.8442810965471832e+00 2.1840205951145184e+00 1.2903181802286772e+00 0 0 0
783 2 2.0995546179589201e+01 1.4477171569381774e+01 9.3419981678484394e+00 0 0 0
1668 2 1.5827535919713725e+01 1.7935425021482921e+01 1.9891176554010286e+01 0 0 0
898 1 1.5207615127210772e+01 2.0751390528668214e+01 2.2158060698167542e+01 0 0 0
1853 2 2.3897614903050300e+01 2.0374968109757663e+01 1.7627225710090698e+01 0 -1 0
2282 2 1.8915811109380893e+01 2.8019192631238948e+01 2.0330692456327646e+00 0 -1 0
352 1 1.4571511212082227e+01 1.4200707524227093e+01 3.0413119636589556e+00 0 0 0
961 1 2.1135538006331700e+01 3.2894516734769624e+01 1.9267330430956807e+01 0 0 -1
885 2 1.6276698741219018e+01 1.3925158751929342e+01 1.6421552138576075e+01 0 1 -1
1836 2 2.4827262720943761e+01 1.7163234692230589e+01 2.0724960550856412e+01 0 -1 0
486 2 1.3958034644987951e+01 3.8341093452684500e+00 1.1151837355590285e+01 0 0 0
1727 2 2.4358182252864882e+01 2.2136666657600429e+01 1.6349014012537211e+01 0 0 0
2048 2 2.4647922819921540e+01 3.2328502102736628e+01 2.4434264282466394e+01 0 0 0
775 1 1.0046426199308224e+01 2.5010707240266630e+01 2.4926010118688042e+00 0 0 0
1603 1 1.6047357653818199e+01 2.0593466975522730e+01 4.6256734908219759e+00 0 0 1
843 2 1.3649868717517620e+01 2.1647625221251836e+01 2.4594390804622865e+01 0 0 -1
1605 2 1.6524610418396588e+01 2.0869919887372834e+01 5.4421497073181113e+00 0 0 1
1230 2 1.4060136256390756e+01 1.7893991550250192e+01 2.1379314416671583e+01 0 0 0
2268 2 1.8000122332785583e+01 2.4897517012255058e+01 1.2532267119947084e+01 0 0 1
95 2 2.0001780552906993e+01 1.3725532424184188e+01 3.5453190850093947e+00 0 0 0
1877 2 1.8305495776666913e+01 2.9348823264148507e+01 1.8457251097854797e+01 0 -1 0
1601 2 2.1834398697600744e+01 1.1228224456669853e+01 1.7740032428926444e+01 0 0 0
2323 1 1.0809486607384819e+01 2.8366282573892480e+01 1.4773573644975437e+00 0 1 1
332 2 2.5469014006779208e+01 2.7359754574063718e+01 8.7503119273310332e+00 0 0 0
1016 2 2.2011442089068421e+01 2.9505274163373254e+01 1.4094061733433000e+01 0 0 -1
918 2 1.8147150688273328e+01 1.4107250390383227e+01 1.7413900117723160e+00 0 1 0
995 2 4.2873585249455601e+00 7.2430426690022687e+00 4.4014805711657301e+00 0 1 0
97 1 1.1344057654457346e+01 1.1980374469908792e+01 1.6851977471130313e+00 0 0 0
2259 2 1.6851441419879396e+01 3.0470703985436471e+00 7.0075818730574069e+00 0 0 1
680 2 1.8193055424716352e+01 6.2525315524382385e+00 1.7999365463001862e+01 0 0 -1
1513 1 1.1773056577248731e+01 2.8691310738963285e+01 4.9572006051726420e+00 0 0 0
1078 1 1.4761463113524087e+01 2.2881316343227411e+01 1.7534105932180903e+01 0 0 0
963 2 2.1828964225658684e+01 3.3194483205448940e+01 1.9889141380433198e+01 0 0 -1
1547 2 1.7447971592685263e+01 1.9090594144644207e+01 2.3887399995157807e+01 0 1 0
1210 1 1.6800554688456319e+01 2.7071534802172927e+01 3.5309254387373423e-02 0 0 0
705 2 1.9692871556175536e+01 7.9787651795295380e+00 1.7765950321948829e+01 0 1 -1
2321 2 1.5202650476266882e+01 1.7045557699763240e+01 2.5002564343758365e+01 0 0 0
737 2 2.4124219186049942e+01 2.9440498297838566e+01 2.0932379328665540e+01 0 -1 -1
2242 1 2.1111110385146219e+01 2.8186777669132102e+01 2.4127749929192522e+01 0 0 0
433 1 1.6801217671769297e+01 2.1910798170243215e+01 6.9317235493196421e+00 0 -1 -1
298 1 1.2722772986914759e+01 2.4956573000749817e+01 3.4338074472721125e+00 0 0 0
1707 2 1.7480473394816158e+01 1.8909078362115501e+01 2.6759230204115696e+01 0 0 -1
281 2 1.6586462850558423e+01 1.9459622453671471e+01 1.8345581138793090e+01 0 0 -1
612 2 8.3509194592996803e+00 4.4342666110283986e+00 1.5536465185551252e+01 0 1 0
2325 2 1.0533981577667745e+01 2.8319018723053123e+01 2.4005566661985642e+00 0 1 1
1079 2 1.5333319394700005e+01 2.3167310271285960e+01 1.6695762275908596e+01 0 0 0
883 1 1.5775730650225018e+01 1.3237243585920044e+01 1.5933092869537978e+01 0 1 -1
794 2 2.2573997867211592e+01 2.1700711773642176e+01 2.2694137275435445e+01 0 -1 -1
2652 2 2.7927005888110813e+01 2.2927199415130112e+01 2.3165119315265137e+01 0 0 0
1470 2 2.3207513906700271e+01 1.9293660579938173e+01 1.3564669333413782e+01 0 0 1
1700 2 1.3051281453246720e+01 1.6575499907130926e+01 2.6296398494789063e+01 0 0 0
1662 2 1.1519721047288115e+01 2.2320301770895412e+01 1.5355151923462873e+00 0 -1 1
1672 1 2.3700179237117649e+01 1.1006918374976241e+01 2.1671542480599271e+01 0 0 -1
923 2 1.1592332135253223e+01 4.0953294123568282e+00 1.3541397009415943e+01 0 1 0
2049 2 2.4585086918631109e+01 3.3891055572606810e+01 2.4449465399676654e+01 0 0 0
354 2 1.4462307170220118e+01 1.3604406774302864e+01 2.2309894434542303e+00 0 0 0
156 2 2.3114341645358063e+01 3.0775969003211152e+01 1.2498326075333022e+01 0 -1 0
1589 2 1.4681143480146570e+01 1.4952271101633709e+01 1.8714713946898936e+01 0 0 0
519 2 1.3682660409997329e+01 7.1531890745943487e+00 4.8464923616268445e+00 0 0 0
1050 2 1.2498467937601982e+01 2.4330155052993550e+01 7.3953832476981036e+00 0 0 0
800 2 2.2188225489362910e+01 1.7789031983996136e+01 1.9743482179558782e+01 0 -1 1
127 1 1.6274266470484221e+01 1.1661452589400156e+01 7.0370835026999909e+00 0 1 0
5 2 1.9306689713589854e+01 1.5147937274563834e+01 2.4273797441390716e+01 0 -1 0
1588 1 1.3838378385154487e+01 1.5168082099611723e+01 1.9153975398482849e+01 0 0 0
2381 2 1.2304199746612987e+01 2.1886521520739286e+01 1.5875110516595569e+01 0 0 0
2397 2 6.0549222461144261e+00 3.4325389251700242e+00 1.1468321554554777e+01 0 1 0
1211 2 1.6162887409780463e+01 2.7243955104240428e+01 7.7437973101188695e-01 0 0 0
229 1 1.9840327667673719e+01 1.7630463907563232e+01 2.2040723101014716e+01 0 0 -1
986 2 1.2594534689863117e+01 9.6212415018126229e+00 1.6392736586626203e+01 0 0 0
2613 2 5.8580118129076038e+00 2.6999244812279217e+00 8.7252399222994530e+00 0 1 1
733 1 1.4634890060406448e+01 1.0078109751857529e+01 1.4491765608681545e+01 0 0 0
834 2 9.0114015689417819e+00 6.1746300211426837e+00 2.1722374114597947e+01 0 1 -1
1779 2 1.6718071705430219e+01 2.0576686280359070e+01 9.9011244300805803e+00 0 0 0
2548 1 1.7111700818350371e+01 2.1402117148239611e+01 2.2803020337401261e+00 0 0 1
1914 2 2.6845404372257796e+01 2.5026984772389802e+01 2.6685850036304949e+01 0 0 0
61 1 9.9649388363735767e+00 1.4426977352312029e+01 1.6214978095602881e+01 0 0 -1
2673 2 5.7803285053505249e+00 5.8803850584063433e+00 1.2003917655227685e+01 0 1 0
840 2 2.1498114409925932e+01 2.8705490027892559e+01 7.4713545510283410e+00 0 0 0
376 1 1.3786397154795893e+01 1.1860934918363604e+01 1.9236013568632739e+01 0 0 0
838 1 2.2444145606472897e+01 2.8896819850411045e+01 7.9303449648052737e+00 0 0 0
1058 2 1.9628156505007716e+01 3.3777808416057994e+01 2.4718109863739109e+01 0 0 -1
1283 2 1.9056077311777596e+01 1.0485205744119176e+01 5.5980910365690795e+00 0 1 0
2533 1 2.0560668050527852e+01 2.7091879473393742e+01 1.8528031865236542e+01 0 0 -1
374 2 7.5028050894915861e+00 1.1869137716035283e+01 3.9121922385782755e+00 0 0 0
1801 1 1.3967706677128717e+01 1.5048340956869009e+01 1.3127375856200832e+01 0 -1 0
442 1 1.6959369871471960e+01 2.6808021627674286e+01 4.1950364021486504e+00 0 -1 0
2523 2 1.4231648433571666e+01 2.9121773256489696e+01 1.4858101441422489e+01 0 0 0
57 2 1.5732206548183559e+01 2.7905201486393633e+01 1.5646843045442518e+01 0 -1 0
2517 2 1.0040472763978951e+01 3.5590708261300641e+00 6.6784076690541418e+00 0 1 0
2444 2 1.2874009578894677e+01 1.4699802912251378e+01 2.2050731569957527e+01 0 1 0
437 2 2.9161857104200095e+01 2.5527056676516356e+01 2.4677612542694980e+01 0 -2 0
893 2 1.2785570865065985e+01 2.1385467786536779e+01 5.4150126803580889e+00 0 0 0
103 1 2.6570996966514961e+01 2.2260427932075537e+01 2.5957823023205723e+01 0 0 -1
809 2 2.2489371864666410e+01 1.3605162168940204e+01 2.3890618080353729e+01 0 0 -1
1088 2 1.2179461607326417e+01 2.4206552897076218e+01 4.7962625638662892e+00 0 0 0
1637 2 1.7796384336425369e+01 2.8076947907997958e+01 1.5415410684779708e+01 0 -1 0
1001 2 8.5961109186736557e+00 1.5317532901112555e+01 7.8431289357876821e-01 0 0 0
102 2 4.9022011866361996e+00 9.2635723823756635e+00 7.7402216648255759e+00 0 0 0
198 2 1.8046196291635255e+01 3.0381532621108313e+01 1.3885413163326628e+01 0 -1 0
1089 2 1.1273607471961743e+01 2.3220135886435664e+01 5.5482742718108700e+00 0 0 0
2468 2 1.7782189987389962e+01 1.6860925782557548e+01 1.2201213409276921e+01 0 0 1
2504 2 1.2733728766958519e+01 8.2557165485242407e+00 2.3216537524461501e+01 0 1 -1
776 2 9.5688940323380169e+00 2.5459136421199588e+01 1.7658245299163218e+00 0 0 0
899 2 1.4627626633128894e+01 1.9991746920783733e+01 2.2172780595743394e+01 0 0 0
1696 1 1.8953355161225993e+01 9.2156714333464684e+00 2.0797573335162333e+01 0 0 0
1673 2 2.3897451520464617e+01 1.0305475296987652e+01 2.2307240651868952e+01 0 0 -1
745 1 1.8443905046006442e+01 1.2343294149832998e+01 2.1873079125671211e+01 0 0 -1
256 1 1.5092092721955311e+01 4.7851418682302560e+00 4.4167945410275005e+00 0 0 1
1134 2 2.5160577423747775e+01 2.6113984256355764e+01 1.9943931276567472e+01 0 1 -1
936 2 1.8455971007642134e+01 2.1961739191633100e+01 2.3902811745486648e+01 0 0 0
2493 2 1.0068868743682689e+01 1.9935483903751280e+01 8.9021903296483256e+00 0 0 1
358 1 1.8275129080561371e+01 2.7882416792778386e+01 2.1825868627039561e+01 0 0 0
2609 2 1.6628532285667379e+01 9.6448339273578512e+00 1.8900742778906853e+01 0 0 0
220 1 1.4155071104898255e+01 1.2738387611315925e+01 2.7092078908845746e+01 0 0 -1
2413 1 1.6115737648926746e+01 5.0654304548567080e+00 1.3103129321554279e+01 0 0 1
1654 1 8.3407580741049827e+00 2.6222437849406578e+01 4.5422956254653779e-01 0 0 2
810 2 2.1755862942663157e+01 1.4014995393508300e+01 2.5238958313961938e+01 0 0 -1
1818 2 1.8662278448635959e+01 8.9267428602976420e+00 1.2325598997670456e+01 0 0 0
2629 1 7.6722880598131287e+00 6.9130670057063170e+00 1.0169646452849134e+01 0 0 0
1657 1 2.5761727407757782e+01 2.1379278750922957e+01 2.1748563918755067e+01 0 -1 0
443 2 1.6043030880680590e+01 2.7228567127176110e+01 4.2143424439802306e+00 0 -1 0
2682 2 2.1301645457339660e+01 1.9942033594447658e+01 2.4937369928261152e+01 0 0 0
926 2 2.7417199484936347e+01 2.8870413433890288e+01 1.6226648272327637e+01 0 0 0
994 1 3.9756339170033765e+00 8.0364404672240131e+00 4.8496026392301204e+00 0 1 0
799 1 2.2376575015762921e+01 1.6983126524749050e+01 1.9212037879628792e+01 0 -1 1
135 2 1.9694257028673388e+01 7.6185247967121228e+00 1.3991467700627611e+01 0 0 0
958 1 1.7681959132097180e+01 1.3390780674448175e+01 9.1056890025811299e+00 0 1 0
725 2 2.5684398308203612e+01 3.2792810745844193e+01 2.1020126927619568e+01 0 -1 0
113 2 1.6359683789243661e+01 3.1767983120443873e+01 1.9965017381677740e+01 0 -1 0
324 2 8.5102676961601560e+00 1.9672323061983867e+01 7.2964695690641301e+00 0 0 0
2581 1 2.2043752362350531e+01 2.4967074447400929e+01 8.8218705732182752e+00 0 1 0
1297 1 2.1791376069235120e+01 2.3005176826987949e+01 1.0767102490450828e+01 0 -1 0
204 2 6.0292596816273578e+00 6.9056947738661236e+00 1.7181218489186161e+01 0 1 0
1909 1 2.1968457939790181e+01 3.2075794024966662e+01 1.6919708746350498e+01 0 -1 0
1682 2 6.0855431100639308e+00 5.8482145482840311e+00 9.7805336661857858e+00 0 0 0
368 2 8.7258443360807050e+00 1.3161646398390493e+01 5.8777286820209671e+00 0 0 0
197 2 1.6631770824835719e+01 3.0238525739892541e+01 1.4565225727017298e+01 0 -1 0
777 2 9.3970099035457135e+00 2.4805138826741178e+01 3.2016028594599506e+00 0 0 0
1729 1 1.4552980242030452e+01 3.0638580677885138e+01 1.1725016854528624e+01 0 -1 0
444 2 1.7563465858046083e+01 2.7360696915923974e+01 3.6297061041028984e+00 0 -1 0
2513 2 1.6206108850918525e+01 2.3195212218050504e+01 1.4930859562914138e+01 0 0 0
2651 2 2.6657072054980993e+01 2.3819105363995192e+01 2.3218009111620937e+01 0 0 0
1681 1 5.2160542687835791e+00 5.7079459717330208e+00 9.3808952163378514e+00 0 0 0
2467 1 1.7929686094021342e+01 1.7611334154286361e+01 1.1640230003422912e+01 0 0 1
1475 2 1.5650231635991673e+01 9.5223016129786373e+00 2.6849605673109855e+00 0 0 0
1621 1 1.0445244558764289e+01 1.2529756647350972e+01 2.1779482100692775e+01 0 0 -1
483 2 1.8520588758606486e+01 1.7326818180199663e+01 1.5901772846955460e+01 0 0 -1
1666 1 1.6591589023419914e+01 1.8240947986147052e+01 1.9404274029578900e+01 0 0 0
2817 2 2.1928389009985946e+01 2.4537335783465068e+01 1.5197435732114547e+01 0 0 1
2768 2 8.9210112763182465e+00 9.1826351574214868e+00 6.8412458698240535e+00 0 1 -1
2612 2 4.3713399368265708e+00 2.7709246993091883e+00 8.2132278163646930e+00 0 1 1
2491 1 1.0723059453750746e+01 1.9892262419513308e+01 9.6400539883258443e+00 0 0 1
3025 1 1.0100995914689744e+01 1.4482195949172588e+01 1.0706499003986046e+01 0 1 0
656 2 2.0423182783141364e+01 2.2801644581588892e+01 2.2951047146317659e+01 0 0 0
1876 1 1.8634242928651560e+01 2.8757050724902463e+01 1.9154393200510803e+01 0 -1 0
2563 1 1.8912127542873964e+01 2.9092285557931220e+01 2.5730557990676743e+01 0 1 -1
2630 2 7.5062017298034682e+00 7.6341618939992077e+00 1.0780893421674287e+01 0 0 0
1840 1 1.9214089268828989e+01 2.2726410267874972e+01 1.0487262913993742e+01 0 -1 1
2408 2 9.3321284089580256e+00 1.6683983201839609e+01 3.6947620506334768e+00 0 0 0
373 1 7.4431984899113743e+00 1.1589867274019168e+01 3.0183430062795895e+00 0 0 0
1049 2 1.3277319058391557e+01 2.3481445450120447e+01 8.5589202031393512e+00 0 0 0
2512 1 1.6756663205189593e+01 2.3611656099756090e+01 1.5610020014244746e+01 0 0 0
252 2 8.7989884662210045e+00 1.7300192283296653e+01 1.1689218172508907e+01 0 0 0
1902 2 1.1512780108174939e+01 9.7710885815800950e+00 2.0149461391804433e+01 0 0 0
375 2 8.0958351117073839e+00 1.0804558832765586e+01 2.9558579928395270e+00 0 0 0
1826 2 6.4289152593992833e+00 8.0701574635244029e+00 1.4933902195821469e+01 0 0 0
2439 2 1.7562052827547486e+01 1.5900247329268122e+01 2.0695690484083684e+01 0 1 -1
1132 1 2.4854206226740612e+01 2.5564823586109011e+01 2.0694904160324384e+01 0 1 -1
844 1 1.6433905148861584e+01 1.9777517938152812e+01 1.1616309885132159e+01 0 -1 0
187 1 1.1953193709425495e+01 2.3712065625848865e+01 1.1866926608808535e+01 0 0 0
1842 2 1.8706289601040531e+01 2.3371481359580052e+01 1.1048433293013268e+01 0 -1 1
435 2 1.7649220051753236e+01 2.2404984724299958e+01 6.8782085324322004e+00 0 -1 -1
1099 1 2.2745044950707836e+01 1.0901191702823169e+01 1.6265138399652503e+01 0 0 0
1548 2 1.6578224594237156e+01 1.8053941575782726e+01 2.3062455121203026e+01 0 1 0
839 2 2.3000803875235928e+01 2.9103876244544164e+01 7.1946619577175142e+00 0 0 0
947 2 1.0929469255521772e+01 4.3806736804203723e+00 9.6045436867618472e-01 0 0 1
271 1 2.0835969414959337e+01 2.1587883063075264e+01 1.3934695572534165e+01 0 -1 1
2469 2 1.7236942129417834e+01 1.8347973438909566e+01 1.1687585111848506e+01 0 0 1
2363 2 1.2257423446228501e+01 2.4214045453514672e+01 1.6872761360428949e+01 0 0 0
385 1 2.1375503002597291e+01 2.3239222449287261e+01 1.9917169318047748e+01 0 0 -1
154 1 2.2868204080579353e+01 3.0896494045826820e+01 1.3451007487332214e+01 0 -1 0
267 2 8.0209884543544518e+00 8.0839607944405323e+00 1.6700844422267615e+01 0 0 -1
1969 1 1.9717072588162203e+01 1.1503144279245330e+01 1.4297691185862302e+01 0 0 0
1103 2 3.0740973873690880e+00 1.8657109678714476e+00 5.1489158402560751e+00 0 1 0
1878 2 1.9231171851443744e+01 2.8178412152609010e+01 1.8690466360893634e+01 0 -1 0
2437 1 1.8276177683032142e+01 1.6433804426722212e+01 2.0201662574117901e+01 0 1 -1
1615 1 1.3033772467783209e+01 2.6863211918186042e+01 9.6067991457797373e+00 0 -1 0
933 2 1.5803358132997062e+01 1.4019974799468876e+01 2.5041681334839861e+01 0 1 0
284 2 1.5330711299179907e+01 2.8297747939922999e+01 6.6023287204171304e+00 0 0 0
2324 2 -1.3697371460721985e-01 3.5556386011486418e-01 9.0204974893107281e-01 0 2 1
820 1 1.6677230226772231e+01 1.1499630252583369e+01 1.1022935546159216e+01 0 0 0
1742 2 8.5840030773351792e+00 1.2026858767246964e+01 1.8200984710945001e+01 0 0 0
1830 2 1.2987661119705962e+01 2.7914139751806395e+01 1.3505130777007704e+01 0 -1 0
2606 2 1.4269248416524745e+01 1.8078393085416682e+01 2.2798677193837200e+00 0 0 0
2074 1 1.2822871030770360e+01 1.6813606270485874e+01 4.6530829403616245e+00 0 0 1
1128 2 1.7365508324749328e+01 7.0199440719747876e+00 2.5600664302271905e+01 0 0 -1
1118 2 1.8971713826605246e+01 2.4003051061273993e+01 7.5639554885191496e+00 0 0 -1
1476 2 1.4811361790506560e+01 1.0653759779456806e+01 1.9946192529114104e+00 0 0 0
1890 2 1.7394567999914791e+01 2.1692155591353369e+01 2.0771281670127845e+01 0 0 0
1910 2 2.2516193765581846e+01 3.1276940426991978e+01 1.7181773429245066e+01 0 -1 0
1087 1 1.1799152643718489e+01 2.4037530124532527e+01 5.6887859333224107e+00 0 0 0
2977 1 2.6066080111066427e+01 3.1584000291471323e+01 2.6868031638457399e+01 0 0 0
196 1 1.7418958512970949e+01 2.9785503215152467e+01 1.4303773201399920e+01 0 -1 0
2262 2 9.1235029095001074e+00 2.2802766270681481e+01 4.7245564944610763e+00 0 -1 1
308 2 1.2047221844258711e+01 1.6829413977669276e+01 2.2317728658400743e+01 0 1 -1
1883 2 9.5483579586754495e+00 1.9787633709812503e+01 1.3128060928606876e+01 0 0 0
3003 2 5.3087501553632981e+00 5.6939546797550840e+00 3.0908884290457972e+00 0 1 0
101 2 5.3109152501650883e+00 8.7107508637044830e+00 9.1422618311778976e+00 0 0 0
371 2 1.9830603346333351e+01 9.9201156126781402e+00 2.5614127444140884e+01 0 0 0
509 2 1.4770025096970475e+01 9.6491530180110168e+00 1.6956773506200427e+01 0 0 0
283 1 1.4507582504564700e+01 2.7849465542874228e+01 6.8451629805463075e+00 0 0 0
1598 2 2.5665507768978777e+01 2.4029932743262389e+01 1.6341643722212080e+01 0 -1 0
1997 2 2.1756287358084112e+01 2.6208943030425665e+01 2.0419379641316286e+01 0 -1 0
726 2 2.5489426167315848e+01 3.2691643567672727e+01 2.2540758322115813e+01 0 -1 0
1036 1 1.0991928510465099e+01 9.0868284057267878e+00 4.5788333139945276e+00 0 1 0