LAMMPS data file via write_data, version 8 Apr 2021, timestep = 200000

6144 atoms
2 atom types

0.1485767534002788 59.75985762723383 xlo xhi
0.09565159778516123 28.244814402215415 ylo yhi
0.051364741769541554 27.360080258230628 zlo zhi
10.047430966812701 10.18946513055657 7.116106292057684 xy xz yz

Masses

1 16
2 2

Atoms # atomic

1 1 7.6629749672909995 4.964694201316151 4.225745779486605 0 0 0
2 2 6.877666386460429 4.4241207701267555 4.008101833016496 0 0 0
3 2 7.360398489375038 5.871983311389414 4.580423843608241 0 0 0
4 1 10.204702290085928 7.234771686334822 10.982293263951792 0 0 0
5 2 10.552363904804942 6.679580011193231 11.710557011582152 0 0 0
6 2 9.959835036174887 8.074023767966915 11.396636315952465 0 0 0
7 1 9.901211812152875 11.993822058470219 4.131114319397956 0 0 0
8 2 10.470781991763534 11.572605875735034 4.786996615318191 0 0 0
9 2 9.647930960051045 12.854529025510558 4.590430690973716 0 0 0
10 1 12.4908143593318 14.199020635066619 10.883008825230116 0 0 0
11 2 13.201044235905089 14.127953846829389 10.231017247876013 0 0 0
12 2 11.731253661293412 13.67857256519473 10.466511243313462 0 0 0
13 1 14.985068939583348 5.138093042876797 3.8553817470874234 0 0 0
14 2 15.393489286923401 4.963073216680113 4.726759845615337 0 0 0
15 2 14.442543876536924 5.934497081626358 4.073270798444329 0 0 0
16 1 17.456931948432985 7.335433030213614 10.82288117536574 0 0 0
17 2 17.628362730373137 6.997284396764122 11.657728926682347 0 0 0
18 2 18.236695713544687 7.49576414228708 10.310010045318979 0 0 0
19 1 17.582943378971663 12.327117657691167 3.9845991905546754 0 0 0
20 2 18.283799462948306 12.636147701347241 3.371868080261086 0 0 0
21 2 17.939209183120777 11.84217122829096 4.780262198106718 0 0 0
22 1 19.872960120413236 14.287918172038973 11.075307897206432 0 0 0
23 2 20.63960960627013 14.400075255271737 10.4666818920359 0 0 0
24 2 19.49371739194585 15.187472690152038 11.206173862421457 0 0 0
25 1 11.610300596389592 8.11524022719554 6.4984563686088785 0 0 0
26 2 10.894653565210294 8.497823249600147 6.01414739882402 0 0 0
27 2 11.175996772264234 7.347221718671999 6.862753307701817 0 0 0
28 1 14.061786985526314 10.104808117946428 13.171233637269697 0 0 0
29 2 14.32982970528086 9.537652656644715 12.376475223670054 0 0 0
30 2 13.185959832522505 10.579021109393977 12.930563898993052 0 0 0
31 1 14.22243282384281 14.8793222584518 6.280607533787258 0 0 0
32 2 14.48368127536237 14.452883552245046 5.435891733557488 0 0 0
34 1 16.214342107419316 16.821017328509914 13.055677328139371 0 0 0
113 2 15.960370016287726 6.70536115098985 13.389697879390248 0 0 0
37 1 19.125937267549084 8.329814250612186 6.306823330856847 0 0 0
38 2 18.220129337706762 8.732049805650554 6.127724989341856 0 0 0
39 2 18.92149874080687 7.44217547158611 6.628408714372125 0 0 0
40 1 21.76974818631937 10.118238150306091 12.959393295955095 0 0 0
1765 1 18.147889086055425 4.985599569415518 15.229163564789381 0 0 0
42 2 20.970716411797714 10.632161619432237 12.634263298170733 0 0 0
43 1 21.767717909959007 15.185939567129184 6.422765406492928 0 0 0
122 2 2.8155286096445535 3.5109595419308133 5.152961725242497 0 0 0
80 2 2.8085009834916717 7.255485973501907 0.3049899122973742 0 0 0
78 2 3.624772104361812 3.362244927068262 7.9940868557595435 0 0 0
45 2 21.956645859175556 14.745089069161274 5.547180724687747 0 0 0
49 1 5.497644465825028 3.551152148592621 2.9122175000556543 0 0 0
50 2 5.6627352130641055 2.6874663048023537 2.4928043990803297 0 0 0
51 2 4.795780438293872 3.5590008961565163 3.56388701660583 0 0 0
52 1 8.03711819835996 5.469448354870488 9.797581665937415 0 0 0
53 2 7.5975645299649575 5.819355429209713 8.997444873018804 0 0 0
54 2 8.717069265972064 6.077192776743593 10.096496799765191 0 0 0
55 1 7.913568662716545 10.66266975992829 2.714564792785233 0 0 0
56 2 8.11413563124847 9.77006122664904 2.3643768665124107 0 0 0
57 2 8.644271344109198 11.085893117972878 3.1943026365323717 0 0 0
58 1 10.131374512055665 12.77595354630247 10.050973272293762 0 0 0
59 2 9.557893308716856 13.083970516304271 9.24693525687597 0 0 0
60 2 10.553744203885293 11.940477273712244 9.715048610530397 0 0 0
61 1 12.863146740864304 3.607290122544873 2.9127849910275003 0 0 0
62 2 13.572526274146654 4.1805715860539845 3.2745264899030464 0 0 0
63 2 12.385196215056133 4.035558720539752 2.071865959641643 0 0 0
64 1 15.031725860454923 5.624401875340403 9.775973631516148 0 0 0
65 2 15.858193111407722 6.08126510362266 9.971920706560143 0 0 0
66 2 15.364270415671085 4.8451143574254685 9.204624339798421 0 0 0
67 1 15.387752057820833 10.980998554915352 3.0652632868216902 0 0 0
68 2 16.218101648840985 11.365867306616416 3.3934752389662557 0 0 0
69 2 15.575345056576436 10.14163120145207 2.666711993240798 0 0 0
70 1 17.987830397369173 12.718896894078846 9.794230914409335 0 0 0
71 2 17.51239542921917 13.220355871912417 9.10375757040595 0 0 0
72 2 18.629859199873263 13.342481297511773 10.185156970496442 0 0 0
73 1 1.1463430382090865 0.8732692419377502 0.3807088182982933 0 0 0
2219 2 29.941826560821966 19.598672392307375 21.871755549992372 0 0 0
79 1 3.504032861371663 7.816106227677875 0.7324566061822881 0 0 0
128 2 4.929554692629255 9.537905566571556 3.9347648629133674 0 0 0
81 2 4.281113145187678 7.28431211624089 1.1195507963670122 0 0 0
82 1 6.464040415457521 9.366886509088562 7.515183932389606 0 0 0
84 2 7.356736092112407 9.03938800947794 7.8077024570113505 0 0 0
85 1 8.48793447714946 0.7458537194570432 0.6854933324920353 0 0 0
87 2 8.429574722913113 1.5343186740988655 1.2272232598474957 0 0 0
88 1 11.253999932712722 2.2979710266889226 7.64040406862651 0 0 0
90 2 11.626511299162273 2.8253069217531137 6.912518263028121 0 0 0
91 1 11.558734154905547 7.845599381218225 0.5631874615577087 0 0 0
93 2 12.18698814003887 7.194077936210823 0.8772496288049754 0 0 0
94 1 13.810701332654842 9.796363701587389 7.445799765467525 0 0 0
95 2 14.492004873501017 9.15382948820318 7.753656357773227 0 0 0
96 2 13.04868736794386 9.208940067994908 7.217429488302794 0 0 0
97 1 5.469967980130669 4.311661270690394 6.0623298674209245 0 0 0
98 2 5.613651777893909 5.023961858128663 6.716682362803886 0 0 0
99 2 4.873515943426095 3.6152708193095178 6.364901797190278 0 0 0
100 1 8.149146793077382 6.065723444510078 12.820909452719214 0 0 0
101 2 8.013669748304936 6.768003358710116 12.179742143743931 0 0 0
102 2 8.689105778797504 5.367219238435858 12.449933145400085 0 0 0
103 1 7.873799294355773 11.394163964582935 6.1034678260838895 0 0 0
104 2 7.596842994192648 11.791631882676041 5.281684201468222 0 0 0
105 2 7.25558693751532 10.731191700961439 6.418117098142208 0 0 0
106 1 10.315162446457643 13.153332200001206 12.883887308559808 0 0 0
107 2 10.768356289478891 13.885490361670783 13.387608108512493 0 0 0
108 2 10.934999107167696 12.585576353542596 12.351355682122348 0 0 0
109 1 12.948897105117972 4.30484856762015 6.217100324355316 0 0 0
110 2 13.56213799918527 3.625873728963659 5.86804591877851 0 0 0
111 2 12.315642601762704 4.70371475875442 5.599220038606563 0 0 0
112 1 15.631927914549475 6.085351521003871 12.720089975029481 0 0 0
114 2 15.047804276439745 5.435999932384397 13.168814172757836 0 0 0
115 1 15.341335342015773 11.751913969048742 6.087013625733909 0 0 0
116 2 14.63382459823896 11.307914158782834 6.612219281541223 0 0 0
117 2 15.79201594368946 12.215942641580284 6.772351720893595 0 0 0
118 1 18.127655084098112 13.40876105341773 12.989073562576417 0 0 0
119 2 17.340277243283527 12.855835624989956 13.194655227755177 0 0 0
120 2 17.880644920811477 13.842005081242467 12.183328581536784 0 0 0
121 1 3.0315402393034687 2.901708936499726 4.461631629207209 0 0 0
123 2 3.416758581096844 2.066194113941861 4.82060724227196 0 0 0
124 1 5.891409675913854 4.704185615014749 10.926107365106384 0 0 0
125 2 6.643264908933361 5.314729312379755 10.8240442806074 0 0 0
126 2 6.232154124365277 3.8268692627724303 11.29717872890926 0 0 0
127 1 5.788203173247691 9.644836612877633 4.3899832115103035 0 0 0
368 2 9.022184026689052 14.960988495376606 4.994194648786718 0 0 0
129 2 6.3465678513852835 10.178990051439417 3.789918136629421 0 0 0
130 1 7.8208728376730905 11.721268779708025 11.298533286311944 0 0 0
1993 1 21.2501583105465 4.372767931611198 14.152941394685664 0 0 0
132 2 8.585514388794333 12.222008504177799 10.870668538396082 0 0 0
133 1 10.657475333690071 2.4873050794237295 4.1500920318098595 0 0 0
134 2 10.977967892631318 1.6890212819640746 4.675515761496104 0 0 0
135 2 11.518776295674469 2.8840971263040105 3.8344282004469505 0 0 0
136 1 13.075363950643073 4.631565786144414 11.291875217959035 0 0 0
137 2 13.857626239677906 5.102873428895268 10.87472903522803 0 0 0
138 2 12.660523753134317 5.220052510967408 11.909078619282916 0 0 0
139 1 13.28089804907564 9.974654013931326 4.070119724066085 0 0 0
140 2 14.06116969420695 10.509920804094726 3.749323614321147 0 0 0
141 2 13.727273168711761 9.287286700066948 4.590719403269998 0 0 0
142 1 15.841507790601336 11.849985438113473 11.137101344905211 0 0 0
143 2 16.568596498900465 12.217296311252934 10.619158337450457 0 0 0
144 2 16.206304524856595 10.997164090515112 11.543513211618796 0 0 0
145 1 7.010401360387002 2.0839430928095153 5.074410572367765 0 0 0
597 2 33.570675626832454 8.540514988239519 2.3391305781395477 0 0 0
147 2 6.51257197387801 2.7795565059440155 5.500188620919435 0 0 0
3735 2 2.629032283918635 5.173370143558887 1.9157772839323284 1 0 0
149 2 9.769216234584272 4.05150926503653 11.323015151638549 0 0 0
1997 2 23.413459455258113 5.499586282826852 20.692583974027553 0 0 0
151 1 9.481845871528071 9.121126794800386 4.8694412331911225 0 0 0
152 2 9.251090348901919 10.015010135100976 5.16225207547778 0 0 0
153 2 9.932377646452018 9.277567625740849 4.035249393643372 0 0 0
154 1 11.802618013367134 11.169275490153964 11.63730719707882 0 0 0
155 2 11.092226303175465 10.562619666242835 11.558313219328577 0 0 0
156 2 12.474460989824351 10.845889052587937 11.022524818800365 0 0 0
157 1 14.246297036498051 2.1141806729288932 5.023596283879116 0 0 0
1959 2 38.914587039880985 11.441203728608052 19.173841706988306 0 0 0
159 2 14.554097674535832 2.130307829794952 4.112541724126406 0 0 0
160 1 17.07766516884781 4.207548972611738 11.845468538843795 0 0 0
161 2 16.47309275392127 4.982789300988933 12.136774713601024 0 0 0
2127 2 36.42254047738261 6.2054202197049975 16.53607766606276 0 0 0
163 1 16.847002821591843 9.445939549918775 5.371242191749887 0 0 0
164 2 16.341558886953766 10.239513602462686 5.655135202758013 0 0 0
165 2 17.049485435443668 9.512759231203008 4.41136975957696 0 0 0
166 1 19.43326683054454 11.256633765914833 11.912191265856459 0 0 0
167 2 19.024291097439292 12.035965634402922 12.265880525778265 0 0 0
168 2 19.764049832105183 11.488065676266446 10.982079719009661 0 0 0
169 1 9.395914463138157 4.036178445974792 6.111704130366079 0 0 0
170 2 9.839305730607597 3.464107703876419 5.490948913819907 0 0 0
171 2 8.672445984907696 4.3530106018498715 5.570677986646593 0 0 0
172 1 11.526472223117747 6.214695782880238 13.03369530698636 0 0 0
173 2 11.978066181845739 6.963254556483234 13.482936656219557 0 0 0
206 2 16.704947465495295 2.4275697284511484 3.0913780186064868 0 0 0
175 1 11.605399905665744 11.282056451799223 6.092964125779891 0 0 0
176 2 12.346136257367919 10.845108788520038 5.641929204565952 0 0 0
177 2 11.964034333861765 12.13404029173841 6.4634182579608845 0 0 0
178 1 14.053967433005782 12.98146846704421 12.902213899281275 0 0 0
179 2 13.315128206114853 13.15865262607914 12.271046928283832 0 0 0
180 2 14.696671543354931 12.61670339360837 12.271778656103365 0 0 0
181 1 16.52190209664835 4.270598042961958 5.824999801158967 0 0 0
182 2 17.161242983535058 3.8092631724546933 5.186285626127698 0 0 0
183 2 17.036146744543267 4.898379221924859 6.302712640120132 0 0 0
184 1 19.130954547833785 6.097950105433077 12.880759920514796 0 0 0
187 1 19.02239110418271 11.625002287868368 6.147464137544343 0 0 0
188 2 18.55212832864492 11.051817176095124 6.854131350695799 0 0 0
189 2 18.945950545506143 12.523953242532073 6.5580381353414525 0 0 0
190 1 21.582709977530424 13.421222138766911 13.137733118882212 0 0 0
192 2 20.886177444191162 13.721215616574579 12.53746764993821 0 0 0
193 1 8.41671676603296 2.7863783250401375 2.4426892898995147 0 0 0
194 2 7.88187100326877 2.5309100368515156 3.2367127180246884 0 0 0
195 2 9.377245297399385 2.7777402141551226 2.683628464080346 0 0 0
196 1 10.752075865650033 4.327476220455306 9.721506078313185 0 0 0
197 2 10.909894554542824 3.580142679837186 9.107085363136955 0 0 0
198 2 11.601989489746655 4.525890815790687 10.139926574865253 0 0 0
199 1 10.96622626093961 9.546218009440707 2.516179564602632 0 0 0
200 2 11.282877390718845 8.84921579838242 1.8937851001880721 0 0 0
201 2 11.74957103835706 9.702185809330036 3.044027618355058 0 0 0
202 1 13.721912325579902 11.543121672261698 9.738354741598279 0 0 0
203 2 14.616075080213392 11.603865129320658 10.150834721173167 0 0 0
204 2 13.814018833001937 10.864775763823022 9.036297414134706 0 0 0
205 1 15.849701231465675 2.1327640968475747 2.7451897350390464 0 0 0
207 2 16.097713205423133 1.7333996105141294 1.8233477861933898 0 0 0
208 1 18.581798950545775 4.464554735587892 9.647009455568622 0 0 0
209 2 17.862843709747956 4.338987099086051 10.30886081608406 0 0 0
211 1 18.403761377785987 9.70581335676797 2.8170081776244196 0 0 0
212 2 18.337772128102504 9.020982412439851 2.1068043526281204 0 0 0
213 2 18.402315666385725 10.495151926208994 2.2140322125657055 0 0 0
214 1 20.653078000572933 11.59446574857456 9.537099456454179 0 0 0
215 2 21.599774209833072 11.642867055196279 9.820363723888628 0 0 0
216 2 20.629559761449247 10.842848536547455 8.882458082975877 0 0 0
217 1 5.771074041777523 1.2405819627245158 1.6953975421621776 0 0 0
1884 2 13.713511374805062 18.576634958983288 24.28198256665103 0 0 0
219 2 5.787680414880927 1.562439717933695 0.8129409265110561 0 0 0
220 1 8.257802575885815 2.996821440368884 8.546977521176345 0 0 0
221 2 8.305744314770154 3.8185145979314203 9.006093956873057 0 0 0
222 2 8.541801654809522 3.2429716580435928 7.665986849578979 0 0 0
223 1 8.280022807590925 8.173006089646579 1.498104255688208 0 0 0
224 2 8.909730008067445 7.520967214798392 1.8208316595919873 0 0 0
225 2 8.668127182211775 8.472814586851314 0.6356634801599195 0 0 0
226 1 11.004821931197945 10.39206050261296 8.764851792405576 0 0 0
227 2 11.61226265545054 9.69251550550805 9.073431879723087 0 0 0
228 2 11.223086625035686 10.521915593566266 7.810669775456947 0 0 0
229 1 13.134901673518259 1.2851178679604303 1.5582449253109494 0 0 0
2136 2 41.671651771453995 15.042573607991374 23.59171659527361 0 0 0
231 2 13.100726861705638 2.131738066408258 2.0978429347300436 0 0 0
232 1 15.62126959541655 3.2179183984888615 8.453515599108071 0 0 0
680 2 22.900702234149016 13.826650355690713 0.7561122156796092 0 0 0
234 2 15.913643017233937 3.3983933206767527 7.536146327439735 0 0 0
235 1 15.540783373762034 8.487413907476954 1.8578190230414358 0 0 0
236 2 15.659297779236697 8.74142927932898 0.9601577450455518 0 0 0
237 2 16.15493315954999 7.73299855663319 2.041391868342652 0 0 0
238 1 18.224594102562985 10.184720112329611 8.665433363261284 0 0 0
239 2 18.820214154830904 9.474607766879675 8.93357247260507 0 0 0
240 2 18.26011004680942 11.001411891897787 9.21682471314543 0 0 0
241 1 7.494614156994334 4.7478694298785875 0.8196305652733819 0 0 0
242 2 7.7413324818305504 4.060839447099155 1.4335723521898194 0 0 0
243 2 6.751747757472476 5.205352228618423 1.2643702102503613 0 0 0
244 1 10.205323204726803 5.986926772807967 7.600194351992519 0 0 0
245 2 10.382964070350534 5.527363935839905 8.427836937781057 0 0 0
246 2 9.961320969143493 5.313480880895153 6.919686444660949 0 0 0
247 1 10.039263712195122 11.4395374391664 0.7047531697027344 0 0 0
248 2 9.340443653912253 12.061582608500338 1.0299923184369992 0 0 0
249 2 10.51393313743918 10.920179603723234 1.3767262841648704 0 0 0
250 1 12.595212021498556 13.52958131514378 7.736386783617374 0 0 0
251 2 13.119424575717083 13.068349300565037 8.42003257747304 0 0 0
252 2 13.25266043272507 14.06659576493551 7.230410604563925 0 0 0
253 1 15.229365623004549 4.419337730325914 0.8689139772214914 0 0 0
254 2 15.468566156466826 3.8787971474924365 1.6772044390715932 0 0 0
255 2 14.577139306609684 5.089436491921447 1.1135934197272932 0 0 0
256 1 17.763542937986742 6.332909796919068 7.382105971028687 0 0 0
257 2 18.170482150661964 5.739535130501313 8.05164813699594 0 0 0
258 2 17.030806378033468 6.817318521297521 7.813785613858294 0 0 0
259 1 17.569954822189874 11.712288321383546 0.9493044504529129 0 0 0
260 2 16.933050989237664 12.418675263561486 1.2045645802038196 0 0 0
516 2 22.71717792360908 12.606537946394846 11.638609408835412 0 0 0
262 1 19.84470216176306 13.74049630400766 7.658800770837676 0 0 0
263 2 20.08171353421973 12.886935798192091 8.099840034236458 0 0 0
264 2 20.67666716552031 14.031192932459538 7.198272367776881 0 0 0
265 1 9.703528834641185 6.048689143790245 2.652146817057436 0 0 0
266 2 8.835610745432485 5.6750511789161004 2.916076043955423 0 0 0
267 2 10.216315936862147 5.342102243156946 2.168390212039867 0 0 0
268 1 12.256683078564416 8.034851675843887 9.505917615161145 0 0 0
269 2 12.551889764178775 7.360178456435913 8.909363497356363 0 0 0
270 2 11.609265688862404 7.678229267847922 10.126942414666509 0 0 0
271 1 12.018659526393291 13.3023940766296 2.719926339117659 0 0 0
272 2 12.8759927120298 13.487203797460548 3.1656403981957784 0 0 0
273 2 11.351112223943256 12.971598763952333 3.316883688583907 0 0 0
274 1 14.739880887901242 14.70691514744208 9.123834832332578 0 0 0
275 2 14.273829343886892 15.556001335964934 9.06135091676761 0 0 0
276 2 15.268244995225574 14.786939269555717 9.911679503649857 0 0 0
277 1 17.362290833761257 6.169291679102612 2.6181042958672958 0 0 0
278 2 16.55188664971082 5.803587272194588 2.951309726701198 0 0 0
280 1 19.712683044421446 8.048738012991075 9.507559859837047 0 0 0
282 2 20.275463243177462 8.131519229119984 10.271537821991474 0 0 0
283 1 19.782094685469648 13.551764923362677 2.602481878613495 0 0 0
285 2 20.563355614199107 13.477659929868148 3.2282205179156334 0 0 0
286 1 22.37811628637537 15.019308377142123 9.657011991391398 0 0 0
287 2 23.127623375287563 15.17774739748732 10.273611143524452 0 0 0
288 2 22.11976322474297 15.795799014939359 9.177075191449198 0 0 0
289 1 5.765164924728964 6.795491224550518 2.022339870190511 0 0 0
290 2 5.507336367122164 6.666741117826322 2.9714752497718835 0 0 0
291 2 6.587370655289427 7.267563239507932 2.0120883463902266 0 0 0
292 1 8.878720032445496 8.57281760855973 8.727463263838244 0 0 0
293 2 9.175741687001624 7.740351017564928 8.36895651609905 0 0 0
294 2 9.680330775586816 9.161797909469202 8.750307909543713 0 0 0
295 1 8.392056173512374 13.582695368513946 1.7792703096164144 0 0 0
296 2 7.816387780523235 13.499556760918441 2.63848243750999 0 0 0
1582 1 29.303347727362027 20.55630184436187 26.783276449472247 0 0 0
298 1 10.9142744757098 15.627989613326871 8.542889988053663 0 0 0
299 2 11.387571485894897 14.804302210739758 8.16892142398868 0 0 0
692 2 30.22819236569986 14.053106462201496 0.9679087081502902 0 0 0
301 1 13.47934959863294 6.630658469541928 1.8368345752640496 0 0 0
302 2 12.951393989808855 6.545620495296034 2.677140456548729 0 0 0
303 2 14.172835834340416 7.267177089064372 2.055219705785036 0 0 0
304 1 16.16816996311291 8.295796674564771 8.40025563021057 0 0 0
305 2 15.727789072453355 8.271256509548694 9.251450303906905 0 0 0
306 2 16.85419744647126 9.012608474624972 8.3511038881823 0 0 0
307 1 16.06393115329929 13.774134652138375 1.8796466485038203 0 0 0
1242 2 31.49563014563188 16.021728921903588 7.770543963874537 0 0 0
344 2 6.657465637142831 14.295761326151034 4.718771070944077 0 0 0
310 1 18.525924266265754 15.691222826425058 8.727820943721493 0 0 0
311 2 18.759408434302273 15.145692504052583 7.931148652411577 0 0 0
230 2 12.269420832693745 0.8231406576109785 1.675750101694336 0 0 0
313 1 3.68664408933763 4.376273139563745 0.8965940360596951 0 0 0
314 2 3.718815579830779 3.5893450481845606 0.24652644609984137 0 0 0
315 2 4.452702617045801 4.155549178274843 1.529719637731413 0 0 0
316 1 6.488665250326895 6.434116618884712 7.674522346658708 0 0 0
317 2 6.9396611996445605 6.793112113161399 6.893261148852351 0 0 0
318 2 5.949255245318326 7.174561292177248 8.05741992889436 0 0 0
319 1 6.175595996304397 11.472942370654707 0.7884652832358422 0 0 0
320 2 5.880743950387595 10.634338365673791 0.4227918574877174 0 0 0
321 2 6.870032084001365 11.331060534736482 1.4630785128875274 0 0 0
322 1 8.72015247984753 13.544121098709926 7.759404915997632 0 0 0
323 2 8.139328086462422 14.161771160724282 8.300573739570407 0 0 0
324 2 8.197143412579686 12.755428873428619 7.457032676870457 0 0 0
325 1 11.168878737028985 4.3913431098908795 0.963896756822562 0 0 0
75 2 1.1061253380566314 1.4849164317237702 1.1841455239904684 0 0 0
328 1 13.5559765738308 6.568149247522122 7.62562380453501 0 0 0
329 2 13.414767212584795 5.661517209550221 7.34641646460347 0 0 0
330 2 14.139252702313723 6.38120104963196 8.399585109892618 0 0 0
331 1 13.785509232695743 11.595036069886655 0.7326716975200663 0 0 0
332 2 13.148945244803848 12.280011091909172 0.9858413970664316 0 0 0
333 2 14.3156505593646 11.585673599221629 1.5364039320195975 0 0 0
334 1 16.538706819495356 13.616987706092438 7.47531563948716 0 0 0
335 2 16.716707108344643 14.179527429176508 6.691827766088707 0 0 0
336 2 15.798044932849015 14.187159696559297 7.747757921460935 0 0 0
337 1 4.556933004076666 6.357197032385713 4.33672649905006 0 0 0
338 2 4.828953437783047 5.5880493261538975 4.886707902291567 0 0 0
279 2 17.656734484436768 5.502001853887445 2.0135282387527877 0 0 0
340 1 7.164614542263241 8.012958848479569 11.18757388890833 0 0 0
383 2 20.18377635197996 17.117163471909805 11.71281492549083 0 0 0
342 2 7.7024600612023 8.424092664204109 10.457729967523765 0 0 0
343 1 6.698078545065938 13.622445717776207 4.0296049085745205 0 0 0
1880 2 11.726558816048028 17.839324124854276 18.517340144447267 0 0 0
185 2 19.560085221479802 6.925682829807754 13.2231810693734 0 0 0
346 1 9.670869448994926 15.3664640051469 10.991521005800271 0 0 0
347 2 10.239641592465013 15.370100746248335 10.172467446242564 0 0 0
348 2 9.909631476029118 14.522197615427162 11.405653045185685 0 0 0
349 1 11.991993125400192 6.3435237087205625 4.085786192204631 0 0 0
350 2 11.920900235382629 6.957814524434454 4.8351363478645535 0 0 0
351 2 11.040654698715812 6.158005999566207 3.8829199569588644 0 0 0
352 1 14.532732353949559 8.302478155563065 11.152939903863867 0 0 0
353 2 14.757650904422098 7.487120750650267 11.58543938178514 0 0 0
354 2 13.538599052290108 8.233265355122402 10.935003524029886 0 0 0
355 1 14.74739200249948 13.553179480128485 4.217240352318661 0 0 0
356 2 14.803805336823443 12.657671584479552 4.628708718391726 0 0 0
357 2 15.469873688225558 13.577463452442778 3.496698715448497 0 0 0
358 1 16.801880969145195 15.16507862801357 10.940238017141793 0 0 0
359 2 16.615730973370734 15.903505955175387 11.599473519832804 0 0 0
360 2 17.46757372801957 15.466916993235051 10.291394731070103 0 0 0
361 1 7.404734720813101 7.551751014967012 5.278458851346191 0 0 0
362 2 6.74606465236421 8.168842506176876 4.887626544909662 0 0 0
363 2 8.17222689140649 8.174971637215979 5.24702758212078 0 0 0
364 1 9.581074972997156 9.637983122110278 12.083114233763926 0 0 0
365 2 8.822699390384654 10.25419158324916 11.845077628942532 0 0 0
366 2 9.353420791228713 9.29709634975957 12.973154596006056 0 0 0
367 1 9.563570628058452 14.286692091671494 5.4635732769934044 0 0 0
605 2 22.188713761438347 2.710551827643626 8.437958776191817 0 0 0
369 2 9.136601268733607 14.112561334177617 6.347230116172361 0 0 0
370 1 12.12279942106719 16.58197810132277 12.198649319392358 0 0 0
1567 1 19.183139491027337 18.545732748201594 19.934622603553443 0 0 0
372 2 12.286632103856054 15.800638354935142 11.640607692454273 0 0 0
373 1 14.53088440432578 7.53451788024118 5.1948164407605955 0 0 0
374 2 15.395990470722634 7.978505076414124 5.356909275868833 0 0 0
375 2 14.22890608675355 7.366077560293757 6.097162726818592 0 0 0
376 1 16.964722976622426 9.698030697465471 12.10595711265063 0 0 0
377 2 17.837840797674673 10.079818939809721 12.211478999282201 0 0 0
378 2 16.940028475296646 8.933104168987608 11.517686891754678 0 0 0
379 1 17.328298882068122 14.849069977144548 5.136541545495052 0 0 0
381 2 17.30199394183863 13.955732728206616 4.630568810435614 0 0 0
382 1 19.238839842486968 16.75821323289216 11.752162109232945 0 0 0
341 2 6.963043840943962 8.686846682149481 11.859694846985144 0 0 0
384 2 19.108160978548643 16.55711935872799 12.70250588510637 0 0 0
5280 2 13.096112577995521 17.855650006672096 22.600212229577572 1 0 0
1685 2 15.319251738460924 7.5112506837671225 25.771539200973773 0 0 0
210 2 19.45005804919795 4.526278239273295 10.051118362909122 0 0 0
284 2 19.962303361347495 12.866073986279215 1.876210537845442 0 0 0
1611 2 7.128980036145568 5.182176564439414 13.5794331612435 0 0 0
1722 2 13.641574434759123 1.8891083755354248 0.10261599408273026 0 0 1
74 2 12.061912401941006 8.450812074013685 27.183656638838052 0 0 -1
1951 1 34.163462639329616 19.160189860819123 19.75018958975912 0 0 0
468 2 20.42851447610674 9.196141979639666 7.06263293342687 0 0 0
512 2 20.47928887487361 10.69869262206336 5.139769568239023 0 0 0
1836 2 15.435079696139178 19.195018529077064 21.83640284880921 0 0 0
174 2 11.033924785541698 5.693354869888002 13.705119168884842 0 0 0
261 2 17.063899754497843 11.127399755228057 0.3375488983951027 0 0 0
186 2 18.709813544271434 5.724038066238031 13.635066924498153 0 0 0
92 2 20.992073726883515 14.58533544168893 27.35962927659208 0 0 -1
722 2 18.59951109409289 6.470711034529721 3.6471092288754665 0 0 0
1617 2 9.41968352099471 12.09048315392925 13.697694006548343 0 0 0
86 2 19.315839373182087 7.989407552681321 27.29783773967518 0 0 -1
1857 2 11.512448051631369 15.774203395090568 13.622226652796211 0 0 0
1537 1 12.751354935914552 8.779893595267481 17.488583022833208 0 0 0
1538 2 13.00899394401508 8.46713660077794 18.375145099375946 0 0 0
1539 2 11.918292816470588 8.253477682074884 17.297098036667666 0 0 0
1540 1 14.97390720817526 10.532352793853763 24.067298069936268 0 0 0
1541 2 14.683600899837087 11.363520217374823 24.503828071786977 0 0 0
1542 2 14.264387181997431 10.113112129267618 23.65836615766219 0 0 0
1543 1 15.018604610444573 16.001330575835908 17.767971572819228 0 0 0
1544 2 15.441630154332229 15.578366116147002 18.55997448440885 0 0 0
1545 2 14.908011326278212 16.915224893456834 18.040112569292805 0 0 0
1546 1 17.76740664635949 17.394989835645966 24.382065145235924 0 0 0
1547 2 17.574294648872094 18.255685744113364 24.742533854039426 0 0 0
1548 2 18.13985623645117 16.923390770249004 25.184461700902958 0 0 0
1549 1 19.998121992259293 8.666561325706622 17.55791304383503 0 0 0
1550 2 20.587281025234848 8.863300570655177 16.80461873373551 0 0 0
1551 2 19.919210248753654 9.602321143960545 17.984171574905275 0 0 0
1552 1 22.74848841763134 10.634245209286968 24.64349527646967 0 0 0
1553 2 21.935555830696725 10.29273538000969 24.217935404566614 0 0 0
1554 2 22.89949354162304 9.965230114377153 25.32610086651222 0 0 0
1555 1 22.409361098728464 15.746137337108165 17.499136564006786 0 0 0
1556 2 22.117826366335798 16.520021118038265 18.009582808174283 0 0 0
1557 2 23.139011971642784 16.014547394012492 16.906961295479437 0 0 0
1558 1 24.956407847226373 17.605039086058195 24.62577888390612 0 0 0
1559 2 25.72416187171347 17.783505047986804 24.07007530091352 0 0 0
1560 2 24.59811008429464 18.47835194301517 24.738714746531677 0 0 0
1561 1 17.022137103059535 11.709282603247754 19.8265310454304 0 0 0
1562 2 17.37367838362537 11.116825262780576 19.136902698321286 0 0 0
1563 2 16.29146072491438 12.186564185219503 19.466936148399146 0 0 0
1564 1 19.5233101957946 13.450278976609116 26.822060137808602 0 0 0
1565 2 19.426763467451128 13.036021710673085 25.91462521807578 0 0 0
1694 2 20.146139013013176 5.560451889889176 19.09554128727467 0 0 0
681 2 24.104654568082616 14.266128223764788 1.511625399071993 0 0 0
1570 1 21.6547681824396 20.614704068533428 26.787718857525206 0 0 0
1573 1 23.982399916782953 11.573702448159253 19.922678349070615 0 0 0
1574 2 23.223084546576395 12.135772749326073 19.51362499594706 0 0 0
1575 2 23.49860911895519 11.00651573379756 20.589968867421874 0 0 0
1576 1 26.699401386696223 13.558515776516904 26.95400173111182 0 0 0
1578 2 26.07299415056123 14.151195736051475 26.448494581717735 0 0 0
1579 1 26.20325021004287 18.531591281850357 20.181290605874775 0 0 0
146 2 7.562860762494717 1.6472936402693055 5.734444330641718 0 0 0
1814 2 22.404379841085916 9.03732455777158 15.289668904737646 0 0 0
1585 1 10.45468234368138 7.340162456220284 16.81645642804507 0 0 0
1586 2 10.907156548929217 6.54083125365811 16.445526289902297 0 0 0
1587 2 10.109268900485588 7.747814799527853 16.002743862996343 0 0 0
1588 1 12.904086317754501 9.21975323513146 23.13225356054075 0 0 0
1589 2 12.530587911444409 9.682028630621087 22.328229003895988 0 0 0
1590 2 13.115023560997908 8.378549609665269 22.73181514583583 0 0 0
1591 1 12.908346303706875 14.321269601500822 16.53940575078377 0 0 0
1592 2 12.250296304223669 14.114478712558668 17.227776484435836 0 0 0
1593 2 13.620180198745187 14.883791118970253 16.93242650613523 0 0 0
1594 1 15.55267702534534 16.195748616173653 23.28072877494371 0 0 0
1595 2 14.933200017947799 16.068527789719035 24.009213824380396 0 0 0
1596 2 16.20050296511834 16.77099808890457 23.71610339047999 0 0 0
1597 1 17.75108332227952 7.429191651204205 16.37761210401603 0 0 0
1598 2 18.449322987187415 8.097299103049322 16.66813127452992 0 0 0
1599 2 17.32459385089092 7.80071705496109 15.570863601115636 0 0 0
1600 1 20.372627931284782 9.073884277480152 23.429158448270954 0 0 0
1601 2 20.52154284717247 8.240973606357313 22.980043669507108 0 0 0
1602 2 19.55820436428763 8.99095877228767 23.948254420286638 0 0 0
1603 1 20.529105429744597 14.39289325019989 16.31183443954256 0 0 0
1604 2 21.204988960213132 14.97129805723847 16.773980932720452 0 0 0