LAMMPS data file via write_data, version 8 Apr 2021, timestep = 0

6144 atoms
2 atom types

-2.848093652786514 62.816382783968955 xlo xhi
0 28.127671758511273 ylo yhi
0 27.18743237515795 zlo zhi
10.153860687742558 10.179514663120798 7.117953707295069 xy xz yz

Masses

1 16
2 2

Atoms # atomic

1595 2 16.907750852487787 23.48152474804333 23.29183411259161 0 0 0
1604 2 6.355014326895906 10.042200963814484 1.2171849563067887 0 0 1
935 2 21.149423469466274 20.266173539477773 8.816502912598667 0 0 0
987 2 14.599108329715975 13.698364860595833 21.00613622800411 0 0 0
225 2 17.452354134989335 7.916524395555029 27.185067215170605 0 0 -1
1866 2 14.252064362900875 31.876520001286305 17.108933591105814 0 -1 0
25 1 9.694334172418014 14.424230257524187 8.266946209751891 0 0 -1
1625 2 12.791277277598358 20.091670293765336 18.69726522196048 0 0 0
2464 1 15.190169636259078 20.875897243952974 7.45679947042282 0 1 0
1780 1 6.654301919779608 12.4026472274422 13.33400145331908 0 0 0
1633 1 19.773566082757174 11.03525715195503 25.399228639813188 0 0 0
849 2 12.973551975259909 15.317320000954481 9.447939889890813 0 0 -1
195 2 17.195021166822745 30.59397865857424 24.306218939585253 0 -1 -1
1067 2 18.275283080114377 33.05219580693043 22.09476853789821 0 1 -1
2466 2 14.609167675143048 21.522240742114185 6.9770985565644015 0 1 0
234 2 10.898060084180422 18.697524668291212 21.512094511137683 0 -1 0
1670 2 4.639683091183548 5.176888758298611 0.10757974698330469 0 0 0
1634 2 18.94425691173401 10.525837864923323 25.553291547834487 0 0 0
1064 2 19.539716948409726 31.055069450205618 19.020757894561587 0 0 -1
1894 1 7.192324935872345 15.782952217790704 8.507932017777131 0 0 1
1740 2 16.483263598534467 18.563426830389535 24.282064671394327 0 0 0
1916 2 11.873899575259014 19.443469437843902 14.017619561722269 0 0 0
611 2 14.26439323292233 27.03629146867222 9.90395712412808 0 0 0
1709 2 7.489696523829465 4.914713530815677 16.451973667155627 0 0 0
487 1 8.625527474773843 12.630879078195566 0.6411291687690235 0 0 0
1136 2 7.425185827023733 11.35241536312172 20.767505410176483 0 1 -1
783 2 16.281878062905236 28.769318062016737 6.450478324617579 0 0 0
1615 1 9.963671603536273 23.83144143124602 14.366126600534198 0 -1 0
2623 1 15.326942061016258 16.026334665860727 25.722272406913344 0 0 0
2564 2 16.97804312286217 21.978219713541336 26.226163532892325 0 1 -1
416 2 15.8273939964979 15.429859830401774 19.882480164448562 0 0 0
1871 2 13.056628676777763 20.098364147753642 16.74792044892152 0 0 0
53 2 7.7216858504491155 22.782397388286846 3.208723367594393 0 -1 0
1275 2 10.398563437431239 8.882192748156966 7.94539032066627 0 0 0
252 2 9.486325394026878 13.278279456355158 12.735224581464239 0 0 0
1858 1 12.677208181314871 14.69009579412445 24.14762776290201 0 0 0
1708 1 17.554886078927943 32.04908165167299 16.28738016692112 0 -1 0
27 2 10.293370030070914 14.105030338225308 8.984570993395701 0 0 -1
907 1 14.870727588766897 27.919000890741483 21.112600729705186 0 0 -1
994 1 4.632783061108381 14.59803812221151 5.732790818360991 0 1 0
1561 1 13.44070478670314 16.73092940008719 18.748838262478504 0 0 0
1901 2 7.280898652053263 7.889446691188998 23.06765322476645 0 0 0
169 1 11.593410922707456 17.087808418069105 24.830714990724154 0 0 -1
2342 2 5.496980145584742 14.160610730154723 2.2593035506640633 0 1 1
924 2 13.260848889195625 22.872635749102987 13.716791749653947 0 0 0
5950 1 12.147519019033417 24.352596514461833 20.08806031462365 1 0 0
224 2 6.0075857134729285 1.3560163322646144 0.7588866276291898 0 0 0
4412 2 8.611056263464256 23.826652592212376 7.570167132853078 1 0 0
1710 2 16.70534811918447 31.801636742890246 16.739580393423203 0 -1 0
1689 2 10.539775070369203 6.644225687129365 8.652415871843285 0 0 0
1705 1 15.783814368595497 17.112066218077135 16.8177173865561 0 0 -1
1773 2 22.35361147088222 34.47029824775965 24.62810612937636 0 0 -1
101 2 5.908848614864511 5.930938035742014 6.524174759071783 0 0 0
3496 1 4.228153296348156 7.068009731692552 11.542932413095937 1 0 0
1103 2 -0.3516752525364937 6.0761862621296405 0.7356991961402213 0 1 0
1129 1 12.797847405954553 16.36558106326133 21.19805339825572 0 0 -1
2360 2 10.696987322987574 18.2195304564889 11.190981181051296 0 0 0
1635 2 20.40732365153197 10.60545473794296 25.97614605034299 0 0 0
1017 2 18.054151541322717 24.60298356413971 8.171566288169856 0 0 -1
134 2 21.762103965451402 23.901110370041177 21.11047889290785 0 -1 0
821 2 18.722770780495843 28.156977722893657 21.079986106766896 0 0 -1
1059 2 8.305723104265578 6.807543513863004 25.642155470016615 0 1 -1
896 2 15.679511696788058 25.94015149975422 20.533677092718797 0 0 -1
1068 2 18.38326031190046 33.86453467775831 23.422669030220852 0 1 -1
48 2 12.189237369963596 26.27080078482695 5.882515867194242 0 0 0
1652 2 2.743510010726589 14.137626275460493 1.4102132718352502 0 0 1
1659 2 15.839114815762716 30.48016866530776 22.22852873319305 0 -1 0
894 2 16.55495442354075 23.50695637260062 11.381581384764326 0 0 0
57 2 11.86088830687336 26.46312596805679 9.841397170219889 0 -1 0
1274 2 9.208578587802595 8.48125760163118 8.970257825390945 0 0 0
1113 2 12.816983711884703 19.72863906136202 9.009142621017908 0 0 0
1669 1 5.373813214458987 4.5796545698076025 0.3804100252632448 0 0 0
1063 1 19.633041601796375 31.52765054061545 19.864893077571235 0 0 -1
1671 2 5.412948751321038 4.527241836261888 1.3531832404935715 0 0 0
2322 2 11.478944707257185 15.136945803694141 21.559063517161693 0 0 0
293 2 5.079829090473806 14.160283815111638 8.309479822687248 0 0 0
846 2 13.902781242588656 18.802412842062175 25.676438141397515 0 0 -1
1034 2 30.638937035458564 31.776234853986427 25.240903255237626 0 0 -1
1739 2 17.394302060386497 17.752543099936172 23.11566512007098 0 0 0
822 2 17.54340031737036 27.973060383870436 22.040455949433394 0 0 -1
2471 2 17.607521254584892 9.5673506065352 11.463599962807903 0 1 0
1112 2 14.291401775933522 20.2609351755229 8.686785899305923 0 0 0
1060 1 8.991846541851611 9.89684251946183 24.311070468466887 0 1 -1
2465 2 16.065347634242208 21.274298560437764 7.499895509044101 0 1 0
2403 2 15.774357320291372 25.538784411462988 26.77697532726852 0 0 0
102 2 5.51788162443541 4.5955252261187916 7.171900294270822 0 0 0
223 1 6.799323624357101 1.594121835491457 0.24024591211519947 0 0 0
1917 2 12.190605389306889 20.985215936375898 13.749216076691802 0 0 0
1600 1 7.747821254538018 14.52515070676655 17.91046366434638 0 0 0
2407 1 13.057900380538896 14.180322584614677 6.833878195913918 0 0 0
1687 1 10.714671408335448 5.666480183025752 8.88178304519055 0 0 0
986 2 13.627692435809966 14.666700611935276 20.277837242546994 0 0 0
1706 2 15.79882601619001 16.348243534116374 16.256751161660024 0 0 -1
486 2 14.009054076965526 9.922233436078782 12.713275608352161 0 0 0
1374 2 27.617122906441253 25.346509435441988 25.63535392389359 0 0 -1
1688 2 9.818911768423359 5.356352679215756 9.156741247703788 0 0 0
1002 2 7.834748312840481 11.146250908608883 8.331607380118307 0 0 0
1610 2 7.655536706471048 16.114068864322082 3.4517083025255455 0 -1 0
922 1 13.49006652514365 21.96301599333391 13.665235482893362 0 0 0
2409 2 13.411293559857697 14.26661876605099 7.710183817336502 0 0 0
845 2 12.85883444833398 17.63481426295326 25.693545238470936 0 0 -1
1563 2 12.639318152370137 17.172329874185834 18.35293788076985 0 0 0
908 2 13.958470171598577 27.582046896270874 21.259002860205218 0 0 -1
893 2 15.442959043170703 23.43657047594581 10.317640419934138 0 0 0
28 1 18.91834647656358 20.539412767459005 11.214005757515665 0 0 0
5802 2 15.35246645095457 30.850913996852054 20.034669207046644 1 0 0
841 1 11.720843698088977 19.261938699809967 23.024136226464137 0 0 -1
300 2 12.810231962362483 22.957907451211188 7.150915541011999 0 0 0
3497 2 3.3710098505610055 7.509143900508829 11.381260222913033 1 0 0
2414 2 15.167493681286107 18.818654255876403 16.23852070817752 0 0 1
359 2 15.142410190766466 20.7092303216698 25.18056759225915 0 0 0
2441 2 19.735939820979986 17.685940466040236 6.679056942160944 0 0 1
847 1 13.861020356928208 15.056473687254925 9.186888830266234 0 0 -1
1562 2 14.225582205776245 16.911154296521758 18.12889177230488 0 0 0
1015 1 18.29871942300957 23.764018027025667 8.64053462482145 0 0 -1
1738 1 17.38841257111595 18.250027945948798 24.032258079684226 0 0 0
949 1 23.122422673859774 24.647449934744735 18.379343851613157 0 -1 0
30 2 19.120477794996336 20.28231967973946 12.149556933267 0 0 0
2384 2 8.900965648124124 18.394356331910423 12.4659510006479 0 0 0
824 2 7.042387180035978 6.12935054195418 18.67972078808339 0 1 -1
150 2 19.69675971263694 29.292534400056446 24.348600268649673 0 -1 -1
2440 1 19.60438658685202 17.619001781989652 7.673057728403086 0 0 1
171 2 11.90389500073558 16.24403101739085 24.534766693353163 0 0 -1
2408 2 12.105819433609781 14.514282621147807 6.865335710549515 0 0 0
369 2 9.72176057709304 16.429434577056533 15.259981040613146 0 0 -1
1065 2 20.00036159861744 30.891944062347253 20.479422839198723 0 0 -1
1130 2 13.550179508294377 16.272285390684402 21.772469583791658 0 0 -1
2355 2 24.17338642126181 23.08979273812527 21.043750743657718 0 0 0
962 2 22.4512809021354 29.714957006026594 19.010017196742613 0 0 -1
2475 2 1.5708230918175605 2.581256096318194 5.163455719732208 0 0 1
1135 1 8.411965245790835 11.254458906474918 20.76110314731811 0 1 -1
299 2 12.290680875536168 24.34289829056259 7.139097241121305 0 0 0
626 2 11.96463845351105 10.844677069758669 6.339734704802269 0 0 0
707 2 21.506698901401922 7.432559228830924 22.562743967864673 0 0 0
2359 1 10.257583713876265 18.93072974062618 11.71460857242083 0 0 0
2311 1 5.547973221585695 10.02555246862573 6.014020212960693 0 1 0
1515 2 11.677641571102768 16.2776732381327 11.21688330647242 0 0 0
1896 2 8.092385559182798 15.60154881700498 8.150905501239865 0 0 1
781 1 16.00964711302909 29.66694700461554 6.367029777630978 0 0 0
984 2 11.71389639983877 13.611252518890003 13.52028676499029 0 1 -1
588 2 9.753088552448155 11.266177372008743 7.31449090846396 0 0 0
909 2 14.750787319636192 28.723892555676887 20.658512820799306 0 0 -1
2668 1 22.85695893188535 23.434535352780795 12.786577756511608 0 0 0
2354 2 24.21438625417033 24.56632150787571 21.459922841417793 0 0 0
218 2 10.510959461499521 21.34315561685676 5.07418290283068 0 -1 0
435 2 17.961588916595066 12.573763259050514 14.760416117208822 0 0 -1
1273 1 9.855322447223806 8.171187302639147 8.312811519897117 0 0 0
1132 1 17.8712329514666 27.65997944694928 9.552867774941603 0 0 0
2453 2 3.7597165816414604 15.931383674030483 2.5010771580998794 0 0 1
2411 2 8.376819914201445 20.867826728592835 6.203001130647077 0 0 1
1514 2 10.454645930464054 16.231748048300442 10.29239800821205 0 0 0
357 2 13.975579296266986 24.79337185711439 26.196424845303184 0 0 -1
294 2 4.508669067278707 12.738974649627155 8.239975035296435 0 0 0
961 1 22.579998451206258 29.079179070142953 19.774280048746913 0 0 -1
885 2 13.615493621801338 4.704397721995901 9.167160378562563 0 1 -1
489 2 9.20068011246586 12.755889663744677 1.3823691701677379 0 0 0
1617 2 9.750092525058864 23.41869859326728 13.506158711468402 0 -1 0
1062 2 8.122898409938017 10.191980214706897 24.69240934771813 0 1 -1
818 2 18.619169032744722 30.156038770019038 11.240150057815583 0 0 -1
775 1 15.707581447887808 26.78488700756402 5.884738939605217 0 0 0
1603 1 6.466786089689177 9.088417264021684 1.52336943346025 0 0 1
15 2 2.577090891634934 6.035406782257143 0.13346462432089304 0 0 0
1605 2 5.547742161208261 8.794770774371095 1.513432115628574 0 0 1
2361 2 10.842738305805778 19.323983400413436 12.369657551209988 0 0 0
3498 2 4.803746830031347 7.427861006614896 10.889995246532003 1 0 0
100 1 6.150432113294669 5.326655466995027 7.28302299086131 0 0 0
1877 2 18.775895217576064 29.45876307471443 17.442413194465885 0 -1 0
2669 2 22.828503505907083 23.372999923215858 11.820614165436963 0 0 0
1672 1 3.752408057291757 4.457187150538837 11.337980306947005 0 0 0
1875 2 9.30715714413925 22.478656648631365 10.744985710482647 0 -1 0
1016 2 17.533652491006936 23.71273014702798 9.248668482540886 0 0 -1
2283 2 14.833363671095551 25.043406563432452 4.653049523236806 0 -1 0
2614 1 24.866122322901212 19.337739490740383 18.404133223898814 0 0 0
331 1 13.146218094085128 28.751875238394714 14.943969659968042 0 0 0
333 2 12.818840986940273 28.559884342678156 14.01484620537192 0 0 0
113 2 17.060319408028604 32.253461384346764 20.308656581146536 0 -1 0
1513 1 11.31880568812787 16.666974646078398 10.40654335417539 0 0 0
1078 1 19.28039842033789 25.56324068988175 10.752124099177495 0 0 0
963 2 21.833185732377657 28.461154897731348 19.737620416699784 0 0 -1
13 1 13.477323142850292 13.605036445147448 26.803690544668974 0 0 -1
2353 1 23.63437080976391 23.918553862450903 20.92814765550186 0 0 0
1654 1 6.7069024576222835 25.841522253880196 0.6329321839727291 0 0 2
417 2 17.131056365549604 15.63256812966529 19.046549927146156 0 0 0
985 1 14.483988968639093 14.215470804316274 20.142716078308368 0 0 0
1884 2 11.849544456091483 17.256264354358734 15.190159342371496 0 0 0
1592 2 5.028212770116513 8.201845797042623 15.257443544355569 0 0 0
298 1 12.171063029697798 23.505201000109118 7.689337656406806 0 0 0
1707 2 16.649552357765064 17.086410089003433 17.309935045418037 0 0 -1
2431 1 15.256299197093302 28.84248282736007 17.58976851841214 0 0 0
4416 2 10.485781808916816 25.63941436168696 13.971071150631728 1 0 0
4506 2 11.379585613589228 16.525030884549384 6.736742670727813 1 0 0
1079 2 20.162180465394957 25.674511393402106 10.33668532621213 0 0 0
883 1 12.993326207046266 4.38738581170344 8.4630878273861 0 1 -1
2442 2 20.194656517569932 18.368154350721884 7.987826683946509 0 0 1
1915 1 11.475619935725039 20.283069471121742 13.719404513747724 0 0 0
2323 1 15.652765189913985 28.4662827207349 25.53155649283396 0 1 0
2315 2 12.004087181629497 27.75831198097642 11.403377587537902 0 0 1
636 2 25.07994797304421 25.34175844935319 17.91510021840468 0 0 0
983 2 13.206436720550016 13.30043217525985 13.141937922906859 0 1 -1
923 2 14.350907682519686 21.762318129106497 14.145683085632893 0 0 0
2572 1 15.075632955339533 16.487464461790893 23.03558110472189 0 0 0
247 1 0.8007266452979387 3.972523801188661 5.900703195134698 0 0 0
156 2 16.86179896527403 26.322484763285296 8.972246410419503 0 -1 0
1589 2 16.245709888443862 27.854267605124164 23.904029221767072 0 -1 0
1760 2 7.135319169474809 14.358727665165047 16.27102276504548 0 0 0
1050 2 14.23393771927379 23.036881269774486 5.36677045906739 0 0 0
1081 1 15.216116022958321 8.04043240050988 20.320249998081618 0 0 -1
1594 1 16.73045936355838 22.705610902809575 22.724449849900758 0 0 0
347 2 6.464228060006845 13.723886813987587 10.72338687797604 0 0 0
1588 1 16.410885215915183 27.184355311063936 23.16188234742407 0 -1 0
1150 1 18.97639622847824 23.69993791599314 16.77630610595443 0 0 0
1841 2 11.205024374110845 10.590819112528509 3.179557579660734 0 0 1
313 1 10.947040475772063 17.986804091737596 17.885851888235035 0 0 -1
1118 2 22.15956243619698 27.04507662921672 23.195533674495994 0 0 -1
1872 2 12.061703614058992 21.354626206188975 16.93133838388262 0 0 0
838 1 22.556092807029156 21.433762641715507 6.68965493287555 0 0 0
1133 2 17.728634118519633 28.4658513089982 10.073156114345693 0 0 0
1762 1 10.992031715064709 10.622807679260019 12.408001578316028 0 0 0
2556 2 20.65963558957338 22.19218348608485 22.019714713776043 0 0 0
2548 1 13.689887262311132 9.598063953758906 26.757755206391817 0 1 0
1870 1 12.23449816639014 20.416606046052763 17.193040231625123 0 0 0
2410 1 7.82000337996629 20.354975734038383 6.845665028974816 0 0 1
2817 2 16.782493247413804 7.035699556077539 13.995758074597026 0 1 0
1736 2 13.003925300042354 8.413265511259693 8.351471477915892 0 0 0
376 1 17.48432658315215 28.636777449903523 14.450659015363085 0 -1 0
2336 2 12.957164276194227 30.162711898310953 16.207237789023328 0 0 0
372 2 10.897232486030497 11.663727292070112 22.657246744572642 0 0 0
1105 1 5.029571003140345 19.07348049273942 2.8900368453704712 0 0 0
2555 2 19.866179517084525 21.186792299776883 23.01076141998897 0 0 0
374 2 1.0865328889914951 5.032533938709601 1.7071468425957563 0 0 0
1801 1 15.393232802010576 16.315261556949523 12.102456751508946 0 -1 0
442 1 7.5610399933665144 5.066146734048862 4.542546128136755 0 0 0
2601 2 18.385698173459396 21.330407208443756 6.41969763517569 0 0 0
2600 2 18.053282376228942 22.302371606223975 7.566249078404743 0 0 0
4268 2 8.667583723363013 24.699794347889817 5.851057614318264 1 0 0
1864 1 15.096758031391857 32.41222841064991 17.186611429777805 0 -1 0
348 2 7.291746656338133 14.35507862017741 9.678385535991735 0 0 0
2642 2 3.795578402030107 4.246037718488037 9.525405033541839 0 0 1
2307 2 18.389359872603574 25.965117052062176 4.3609539585551556 0 -1 0
1119 2 20.919030941155494 27.784108353005568 23.71395033053107 0 0 -1
1088 2 17.64540918905942 25.713599933346742 19.056642219228284 0 0 -1
1913 2 21.634178454784454 30.536637194328822 22.452906649899255 0 0 0
269 2 14.64416929401877 18.058058859058924 22.497966207556413 0 -1 -1
2306 2 17.874835450197956 26.17748842362608 2.9458519532129785 0 -1 0
198 2 19.52303865102813 24.46722322568414 5.833760032234766 0 -1 0
1089 2 18.552847497199163 25.046585846024545 18.00166650755257 0 0 -1
2468 2 18.10019856277324 14.451901105000822 26.831595463633366 0 0 0
2570 2 13.373230077983067 24.675187685944355 8.769425939985299 0 0 0
776 2 14.894434205013418 26.999720865364424 5.4225386052677065 0 0 0
2473 1 1.907021710825914 1.926923964500375 4.514958301144376 0 0 1
1061 2 9.22362546006504 10.610200738538463 23.66228890483699 0 1 -1
4414 1 11.047547810854457 26.38754138187532 14.034963803256524 1 0 0
2604 2 17.22110069212795 13.51673526069812 24.14711957542583 0 1 0
2404 1 13.82986119263457 22.352843640900254 20.56115079507017 0 0 0
1134 2 18.504723232926338 27.09128784745831 10.081612865524558 0 0 0
2644 1 10.196236335205416 7.2915328476346355 17.34215712640206 0 0 0
3026 2 24.641874443905248 31.334616652624938 13.765272794412681 0 0 0
757 1 23.381880414755255 24.72304552120021 6.589440506290143 0 -1 0
1735 1 12.936127102521361 9.07766124805486 9.09398219967003 0 0 0
2646 2 10.592890243947764 6.694581768179907 18.008495423452153 0 0 0
2413 1 14.435544181082388 19.36630027848469 15.895337436896087 0 0 1
895 1 15.98856073369987 25.40401195264057 19.793285675043194 0 0 -1
2603 2 17.904698197358915 13.201155925060448 22.743720683914905 0 1 0
2554 1 20.65756202972249 21.314647482745034 22.46757933100117 0 0 0
2629 1 8.348912193057679 4.889733062572091 9.708209392374602 0 0 0
2305 1 17.769278588708442 26.53058162229719 3.8322651282401354 0 -1 0
443 2 7.694667007379242 5.9407142819608305 5.021483422144006 0 0 0
2624 2 16.271612241419664 16.134064347222022 26.018759821175905 0 0 0
2577 2 2.4607892270023655 7.1779096231454975 7.867128303243313 0 1 0
1257 2 24.199363350106754 27.882463858942195 13.476481497726212 0 0 0
2641 1 3.7780935251407914 4.069687254972633 8.587819663043602 0 0 1
897 2 15.407543010428448 25.167543335289196 19.03783862524189 0 0 -1
318 2 17.811921070480157 21.386662280947043 4.012337890309404 0 -1 0
725 2 8.092983158282735 2.122339452821117 1.1191232099457613 0 0 1
2456 2 12.974286654326555 16.153121813714446 2.501306367100264 0 0 1
2598 2 9.819159673170038 20.53140398632288 14.173860119046475 0 0 0
1874 2 10.486248350168708 23.446378181083382 11.08940815325933 0 -1 0
1117 1 21.210850981036465 27.11568514693616 23.040474676942914 0 0 -1
1737 2 13.750952297994854 9.608010187682671 8.91405542606505 0 0 0
1909 1 9.71111661987074 13.48009648806977 19.37701458803519 0 0 0
1682 2 6.184872776313351 4.8589955565321015 3.6248079381958336 0 0 0
368 2 10.59937766587377 15.355509840746404 15.940451655674295 0 0 -1
197 2 19.285301416824545 25.959119970805897 6.15675728426584 0 -1 0
2444 2 6.736511838948959 16.768927175549845 9.923544913488765 0 1 0
4433 2 5.815624217486691 14.023365949094917 12.761209426859436 1 0 0
444 2 8.124622466280286 5.123818845563332 3.770118058967524 0 0 0
2513 2 15.277075990964686 24.34189706307123 17.04046269648531 0 0 0
4505 2 10.38436065575344 15.40732874988175 6.877328457281422 1 0 0
1681 1 5.519455829752169 4.572721329406333 2.9598090589199018 0 0 0
2467 1 18.089195098983332 15.424475804488374 26.676118058285617 0 0 0
1596 2 15.85599753495891 22.367880250953142 22.983885485592186 0 0 0
4415 2 11.134891648918408 26.817779545155798 13.157601359864112 1 0 0
786 2 13.834392012974533 26.30759411236539 16.983778071687784 0 0 0
1151 2 19.031314237556924 22.984662469397144 17.485199421667048 0 0 0
1691 2 24.91773423061846 30.095606502949252 25.726241036588828 0 -1 0
316 1 17.020934296256712 21.746649874850114 3.6024506129043434 0 -1 0
240 2 17.487549133525405 15.024526619938344 1.075156530937314 0 0 0
2491 1 13.416567229433607 18.609152596956633 4.042576986476876 0 0 1
1591 1 5.8005728089005535 8.394807175152353 15.784363892535447 0 0 0
353 2 4.2608392521295135 10.474144867468523 9.62920202581738 0 0 0
1876 1 19.302117991240017 30.28134867915661 17.48010960041191 0 -1 0
2563 1 16.019657966282576 22.024116882494884 26.116167016796656 0 1 -1
2630 2 8.276656968632189 3.945179009228481 9.933572932962205 0 0 0
216 2 13.855461282309463 21.213943822930947 10.521455679563834 0 0 0
819 2 17.101817297951488 30.358132081680814 10.841292477964583 0 0 -1
373 1 1.069189382494415 5.21652352759613 0.7659998455501348 0 0 0
1049 2 13.084286753865687 21.802726016365273 5.486121338351658 0 0 0
2512 1 14.538386780697955 24.39888037182813 17.697758025761928 0 0 0
214 1 13.863000998803262 22.08092586888176 10.952899447241595 0 0 0
1900 1 8.179340565307658 7.487268996824807 23.18763334253233 0 0 0
375 2 0.9466562614761753 4.320862520190169 0.33134287661566403 0 0 0
1668 2 16.03177655215986 11.78814042914811 24.853804024034567 0 0 0
2439 2 5.986741818895003 14.545124344296417 4.451275463896874 0 1 0
189 2 12.338183447565417 24.27597286586455 11.767063366050628 0 0 0
844 1 13.564059626256238 18.07957261559385 26.247446900026638 0 0 -1
187 1 12.040800704014483 23.991979163013177 10.919069992048058 0 0 0
1611 2 7.773019436486908 17.565455787290166 3.988146650068798 0 -1 0
314 2 11.32772241769915 18.765214847050455 17.4561195839593 0 0 -1
2602 1 17.974523389440012 13.782691455351458 23.533706227624407 0 1 0
2621 2 22.920436108184568 16.040498406766176 23.691476298510793 0 0 0
1895 2 6.819006894013984 16.468296140343163 7.914867790457307 0 0 1
1873 1 9.487746426808044 23.302685047913158 11.243344397686934 0 -1 0
271 1 8.352226690427521 9.30184455017182 18.882867022761697 0 0 0
2469 2 7.399588806960799 8.65542510928839 0.21200968323453293 0 0 1
149 2 20.11152048812618 28.77813975843702 25.867274934719212 0 -1 -1
385 1 7.4543629244377305 9.734553914381099 3.885609974749544 0 0 0
154 1 16.46366005038515 25.719543444004337 8.300001026482208 0 -1 0
29 2 18.554109906131618 19.681838573941512 10.858520438105623 0 0 0
1152 2 19.521706256213204 23.41723562259517 15.95472702074907 0 0 0
625 1 11.360233971673274 10.087434467602293 6.536266383500433 0 0 0
1878 2 18.75659335676894 30.987582706145563 17.058666604354425 0 -1 0
2437 1 6.631301912047486 14.388376964871524 3.7578872621767085 0 1 0
129 2 3.9873652478369186 4.916771215256543 14.449885098851398 0 1 0
920 2 21.181275409547244 18.323324110536888 21.35393016478108 0 0 -1
284 2 25.640132596059562 28.354810155546563 19.867624819945203 0 0 -1
2474 2 2.7934550797475604 2.259486248955403 4.378974037695058 0 0 1
820 1 17.931330181329542 28.604427456638284 21.47494219956499 0 0 -1
2670 2 23.022197446579014 22.478995522493157 13.084944701865409 0 0 0
117 2 5.6555536979333505 19.51621313856783 1.280494618776067 0 0 0
1066 1 18.39609375117738 32.9371601546142 23.090657072574167 0 1 -1
2492 2 13.885796377495023 18.252842411354177 4.88128650214489 0 0 1
1085 2 9.638820890132745 16.032308332983924 3.5739277239364093 0 0 0
848 2 14.375816660615573 15.899028383447517 9.294921690061248 0 0 -1
273 2 8.681220263197236 9.371773904968519 17.960054466426108 0 0 0
1084 1 10.431197595144123 15.460261639774702 3.7638401143850193 0 0 0
1910 2 9.107481315853928 12.810567100117485 19.71916780626188 0 0 0
1087 1 18.451223417051704 25.842182363956887 18.53754949260259 0 0 -1
2505 2 24.78619985022668 16.722942301003002 24.35887297696821 0 1 -1
196 1 18.90470567480803 25.19638965568959 5.729633605528477 0 -1 0
777 2 16.323767568476214 26.46775036271476 5.2285467086542745 0 0 0
308 2 25.3835890293245 32.82858084585465 23.05071289211751 0 0 -1
309 2 15.194423925773133 6.220551085308849 23.61840847151502 0 1 -1
3003 2 7.878632930697877 3.8417863175316747 5.787466689341563 0 1 0
2402 2 16.17339411796324 25.062706917903977 25.403065688179826 0 0 0
3736 1 1.851030799493528 5.580515578272054 7.7262117817930775 1 0 0
315 2 10.81569425917155 17.312256668876117 17.047103418030687 0 0 -1
283 1 25.10822307920867 27.591233532693444 19.69975068663955 0 0 -1
386 2 6.915901486213751 9.465700595126522 3.1064239572405814 0 0 0
2520 2 28.801709956269335 28.387666040675875 19.61048244319057 0 0 0
726 2 8.886461972018846 3.2613947985641505 1.7890367928351447 0 0 1
1545 2 15.603305533653 30.858204140260117 14.022935571440822 0 -1 0
2529 2 9.121364968131171 22.226807391417406 0.7491662437169755 0 0 0
387 2 7.237170529160257 9.167949522555206 4.638768179890468 0 0 0
319 1 18.62606015859742 17.987213424748912 17.494429775533014 0 0 -1
1559 2 0.9252088570140895 0.9784294746057562 3.214870759822245 0 1 1
1683 2 5.0310519387752315 3.759520239944505 3.36816491325641 0 0 0
881 2 4.204326734743797 11.502857269650956 3.155249898915818 0 0 1
1763 2 10.501518699873383 9.950176874537359 12.944734169953236 0 0 0
2339 2 15.704388115297643 11.521722027239322 17.12700405207403 0 1 0
2575 1 2.9430356645348876 8.054205158733671 7.722898680035407 0 1 0
285 2 24.26941042619097 27.955051280553594 19.376335053438957 0 0 -1
2549 2 13.595721840596866 9.370457605916243 25.778130470165607 0 1 0
1899 2 12.446224442321821 25.682113664912276 21.247241112480747 0 0 0
1802 2 14.44545123451497 16.361480332783742 12.289325774115456 0 -1 0
901 1 14.770433553793922 25.96031953142488 12.067790635488212 0 0 -1
902 2 15.138548672220004 25.716050969322602 11.201023171117328 0 0 -1
320 2 19.156554939196052 18.573382010600582 18.077140447349976 0 0 -1
2493 2 12.933062536947268 17.842117403339742 3.5693993230364045 0 0 1
840 2 21.91821438084126 22.138749741742473 6.700072983037096 0 0 0
2645 2 10.59449440311288 7.049552950042817 16.470501383678705 0 0 0
584 2 24.81763032123524 18.792157127482184 24.703811427889935 0 0 -1
123 2 8.688064434899175 5.041609544506557 1.2578258145025492 0 0 0
367 1 10.528560585285117 16.3299333690968 15.825805000795938 0 0 -1
1583 2 11.843252359492517 11.560166547166377 18.075561054810276 0 0 1
317 2 16.69970264868937 22.43469497445813 4.163009802133231 0 -1 0
2571 2 14.896072943046253 25.120302475933308 8.805922365304955 0 0 0
3001 1 8.15128103089037 2.9079713887127756 5.99362763205879 0 1 0
115 1 6.130895289760837 19.725289958167764 0.4259552096321956 0 0 0
116 2 7.117787152125893 19.60271181365015 0.6971911708115426 0 0 0
817 1 17.998291928112735 30.40698309726278 10.46160146391313 0 0 -1
724 1 8.831197895510119 2.2882017103012893 1.7261475983764976 0 0 1
2415 2 14.926813949264886 20.226046881456437 15.754962073331587 0 0 1
1911 2 10.06693441264095 13.729688878807917 20.255219976837672 0 0 0
1048 1 13.748000012936455 22.394215981324752 5.9510426455107055 0 0 0
519 2 17.02830451954971 17.92337222872404 0.5167011463034293 0 0 0
2324 2 14.734975539527046 28.744181186049122 25.417265969226413 0 1 0
1086 2 10.631684294742634 15.613196459565101 4.74737377032469 0 0 0
627 2 11.154398232060377 9.760749204138754 5.628173859375098 0 0 0
1083 2 15.948254850648418 8.505433252670864 19.891999403805293 0 0 -1
2514 2 13.731191368211704 23.98201484357189 17.286776106580287 0 0 0
232 1 10.276671643122441 18.6196563762001 20.740740621347943 0 -1 0
2565 2 15.813728035292602 22.983535653314977 26.139828052307994 0 1 -1
2550 2 14.417782436050015 10.237409440602432 26.85296881888167 0 1 0
1491 2 22.447201439492655 18.910500499537502 16.639590695458587 0 0 0
1673 2 4.227516664735147 5.295125531583441 11.50913794421738 0 0 0
1803 2 15.44315657400076 16.864126681190786 11.293904516240364 0 -1 0
2338 1 15.97649457299283 10.644963142908217 16.857844696535643 0 1 0
2438 2 7.145552263522615 13.626739612250015 4.165232188413913 0 1 0
194 2 17.13644072325861 29.760582921891437 25.5411372417488 0 -1 -1
2569 1 14.05228039212977 25.11193263577455 9.300508277823251 0 0 0
1235 2 8.380001230978994 4.772008737454302 12.78285253310831 0 1 0
788 2 21.682267164070424 22.82294094280974 9.871637859161064 0 0 0
155 2 16.180459127200596 26.154885613472903 7.51315103429335 0 -1 0
4438 1 9.761608036060561 22.682359552880015 7.867993051892191 1 0 0
2681 2 20.25144788325164 25.62574759858927 23.180042618781005 0 0 0
1234 1 7.479036475873774 5.049393375944767 12.374896973990955 0 1 0
340 1 22.554860379685543 20.23014846577444 17.481405108599226 0 0 -1
2356 1 20.25979174170657 14.594280272737427 25.11938178058466 0 1 0
2682 2 20.249899567817703 24.259823602225026 24.112126396465595 0 0 0
1602 2 8.640333901024707 14.096332293777316 18.129793356538432 0 0 0
2680 1 19.83110591238249 24.73012897503676 23.292951386284567 0 0 0
1236 2 7.63126084642582 5.273306132803822 11.482541930500998 0 1 0
5271 2 3.7046679767561628 7.078433267834479 14.197956140786706 1 0 0
272 2 7.352546494824288 9.262025995532635 18.797130388764277 0 0 0
1582 1 11.725512395250743 12.488527235219538 18.005782778581857 0 0 1
2574 2 15.000610465487973 16.379079114294335 24.03649441759627 0 0 0
2631 2 7.798280285324352 5.037368821140389 8.93655205833776 0 0 0
2584 1 3.0178930956878 10.742072018330907 1.9240684726758028 0 1 1
1886 2 11.08783330034366 6.494371922973309 4.35149611077323 0 0 0
1907 2 17.352214409884287 16.046151435579983 21.212914426142532 0 0 0
1860 2 13.249327606197529 14.253552778545254 23.486095020727845 0 0 0
1890 2 12.636409935284359 15.386085674033142 12.90326652430726 0 0 0
1840 1 11.683369896943834 11.069282491160816 2.46781477154021 0 0 1