LAMMPS data file via write_data, version 8 Apr 2021, timestep = 200000

6144 atoms
2 atom types

0.0908855671564174 59.81754881347203 xlo xhi
0.06932937044969076 28.271136629550604 ylo yhi
0.13718961063689047 27.27425538936257 zlo zhi
10.186889636190827 10.075157584365025 7.128959801464853 xy xz yz

Masses

1 16
2 2

Atoms # atomic

1 1 7.496678636957418 5.350356692040348 4.188101658894296 0 0 0
2 2 6.678460408820936 4.889633885631153 3.8455616423410994 0 0 0
3 2 7.177061261341951 6.218226575112843 4.539055835163962 0 0 0
4 1 10.031023627187272 7.091668005961579 11.258692178632662 0 0 0
5 2 10.435541394398966 6.604233761222143 11.994480962774036 0 0 0
6 2 9.830716100733316 7.989377322667378 11.590065353899465 0 0 0
7 1 9.984659658351895 12.329016124117569 4.224097391541882 0 0 0
8 2 10.398512045502962 11.95246228436346 4.993307618234846 0 0 0
9 2 9.785537941680472 13.18633123084179 4.594941316759514 0 0 0
10 1 12.68004453663455 14.123148830962808 10.93016557989984 0 0 0
11 2 13.466381224502582 14.293812442261627 10.368177054176568 0 0 0
12 2 12.263773741020893 13.413829784760438 10.431506994350597 0 0 0
13 1 14.812742121298891 5.1250327016874335 4.177020711318201 0 0 0
14 2 15.259893841389513 4.700750658749912 4.970437427282301 0 0 0
15 2 14.447800333994415 5.951909939017507 4.628952471419558 0 0 0
16 1 17.454002248375353 6.962485551710475 10.914707035876885 0 0 0
17 2 17.867282173337692 6.750187101800413 11.80852311153951 0 0 0
18 2 18.164263326445976 7.361281327395536 10.366605030985747 0 0 0
19 1 17.418282484918944 12.57056756937711 4.316158046489564 0 0 0
20 2 18.273322693482996 12.783111335128226 3.814284065969947 0 0 0
21 2 17.756833310957603 12.119280203700034 5.110680401965121 0 0 0
22 1 19.875265671652347 14.27107059096524 11.192604436696705 0 0 0
23 2 20.62637089163979 14.409902208832687 10.552935898239781 0 0 0
24 2 19.634950774519325 15.199551742047312 11.470947194271849 0 0 0
25 1 11.690259862097694 8.234700956589192 6.512154977008839 0 0 0
26 2 10.932837956345256 8.697274262364019 6.094155454530082 0 0 0
27 2 11.30990307549697 7.554085478529588 7.07315194129081 0 0 0
28 1 14.140574732011677 10.014231580233353 13.52596062121536 0 0 0
29 2 14.574797280129864 9.378613567092723 12.867182072607603 0 0 0
30 2 13.44580444780524 10.576651298822139 13.08773984546411 0 0 0
31 1 14.328117907582476 15.21184051954756 6.474604222042542 0 0 0
32 2 14.599280407870847 14.580967654369172 5.695090744066835 0 0 0
34 1 16.55826540985112 17.3214690150604 13.29920957825283 0 0 0
113 2 15.925203356289224 6.944105982377868 13.623311472101738 0 0 0
37 1 18.949382672415055 8.308839842987627 6.4852272746364 0 0 0
38 2 18.13400058040724 8.697820020605903 6.0955449656681955 0 0 0
39 2 18.59417303384927 7.671056400787463 7.14015868849121 0 0 0
40 1 21.553007413413255 10.11501468134037 13.009220685074643 0 0 0
383 2 20.47985651757737 17.214415276612886 12.236007593533582 0 0 0
42 2 20.876059055002816 10.58965234638035 12.540086223380081 0 0 0
43 1 21.839713528531835 15.300502626309504 6.637704863486491 0 0 0
5208 2 12.081146330092682 14.991496936394437 23.37730600064882 1 0 0
46 1 24.104084362062704 17.235634841303874 13.201396191818748 0 0 0
2066 2 26.149538906541814 5.542230969492397 18.68777057811846 0 0 0
45 2 22.069392234537602 14.674621950435672 5.893128742635944 0 0 0
49 1 5.28947375650019 3.907869534646618 2.705677646203793 0 0 0
50 2 5.485857963862173 3.016646214401397 2.2961932274350954 0 0 0
51 2 4.80850513550929 3.7304718390761336 3.5803684998344214 0 0 0
52 1 7.878831276341276 5.523685451447092 9.971041250057404 0 0 0
53 2 7.562540264083644 5.967336566671469 9.17377667603588 0 0 0
54 2 8.70585086858241 6.000883460289064 10.276074231012359 0 0 0
55 1 7.7902424467809155 10.798437747389679 3.1415532223811677 0 0 0
56 2 8.117199787370517 9.902990644074492 2.8325573614066197 0 0 0
57 2 8.582400974773194 11.202713392188931 3.51804335212178 0 0 0
58 1 10.524167289046359 12.668057723136341 9.873023805186932 0 0 0
59 2 10.04137474765456 13.124263371032175 9.208366832180994 0 0 0
60 2 10.64039874524409 11.7357041577846 9.576946502211985 0 0 0
61 1 12.612938013819427 3.9582161540842256 3.388577255010517 0 0 0
62 2 13.389315539452715 4.501801502489037 3.6896074425461967 0 0 0
63 2 12.127286653896078 4.401310282752073 2.640518424803095 0 0 0
64 1 15.130337691162635 5.512622842734515 9.81249982380229 0 0 0
65 2 15.88875915616389 6.003579231308306 10.206656127627793 0 0 0
66 2 15.381253717041142 4.654527777517974 9.46628950286807 0 0 0
67 1 15.252426332697931 10.635509857407481 3.0245912290649724 0 0 0
68 2 15.939374156291528 11.264675635155607 3.2868182209428056 0 0 0
69 2 15.716885804351026 9.779075583467392 2.7532741573308632 0 0 0
70 1 18.004283441648873 12.77844238814076 9.854441995710879 0 0 0
71 2 17.482816615917507 13.164518907696147 9.123273936942159 0 0 0
72 2 18.654421846459933 13.439288339687828 10.221905861675795 0 0 0
73 1 1.2220292003518858 0.93808134271285 0.6057408605961481 0 0 0
680 2 22.709523138763565 14.138422411214819 1.5062128696844397 0 0 0
1832 2 12.622689027434873 17.92910641484314 14.924033532503737 0 0 0
76 1 3.664872699069704 2.7017652066526914 7.3786767128093995 0 0 0
81 2 4.80636867570787 7.402607807892238 0.6803340011628249 0 0 0
82 1 6.3187166558192125 9.663141877691164 7.59270117632873 0 0 0
84 2 7.051095319629588 9.144286834749156 8.068827515795926 0 0 0
1568 2 19.623364134958585 19.150835022003584 20.50497123348479 0 0 0
87 2 8.514126573875997 1.402432178188161 1.5527158593184935 0 0 0
88 1 11.103118964734518 2.4961749889288924 7.670630029630135 0 0 0
90 2 11.322287102050765 3.31361263289551 7.2385180063500565 0 0 0
91 1 11.286009171514676 8.118858489514855 0.7770292680043307 0 0 0
93 2 12.086656505119992 7.549125383135854 0.9171990797158339 0 0 0
94 1 13.81864790844139 9.67330908965051 7.534092606588416 0 0 0
95 2 14.321035206030338 8.921578758221994 7.954576332333267 0 0 0
96 2 13.042852322264046 9.352044804064448 7.055363870702431 0 0 0
97 1 5.396477493972436 4.42388119781986 6.175072171784165 0 0 0
98 2 5.820875539580984 4.860950423440511 6.946953339124189 0 0 0
99 2 4.71396777985656 3.7795769065594795 6.578601416385228 0 0 0
100 1 7.6409071256389565 6.441850650502454 13.197919229201698 0 0 0
101 2 7.440653656799285 6.769105665884051 12.289583274231054 0 0 0
102 2 8.204078024817727 5.6521460427639605 13.039015836335599 0 0 0
103 1 8.163938982390485 11.499504413165438 6.424642430143589 0 0 0
104 2 7.907847629654975 11.890821734551084 5.590680213191179 0 0 0
105 2 7.494178796953065 10.839431602691608 6.649796731170499 0 0 0
106 1 9.941019497143266 13.234587558205595 12.742343640712692 0 0 0
107 2 10.215168131249788 13.81329311116064 13.504443922213264 0 0 0
108 2 10.754786874213321 12.716099734109903 12.548536029797265 0 0 0
109 1 12.689815565578808 4.5206240601275764 6.438719231552419 0 0 0
110 2 13.355808624219252 3.8481248191431754 6.106658964054765 0 0 0
111 2 12.408630974624431 4.97725743799816 5.579025202940185 0 0 0
112 1 15.512894080986237 6.252264196394258 12.993094896753183 0 0 0
114 2 14.72419800219107 5.837624058284755 13.466300413010105 0 0 0
115 1 15.447433439532622 11.27155408104935 6.25226944126621 0 0 0
116 2 14.840027501456468 10.750404435171076 6.806684831415783 0 0 0
117 2 15.732610488464712 11.994413500285582 6.878407056896243 0 0 0
118 1 17.635990748066224 13.547164297780535 13.32689002355151 0 0 0
119 2 17.031513551235268 12.898902969787883 13.767163693544186 0 0 0
120 2 17.196328145523008 13.753058173590638 12.49576108476262 0 0 0
121 1 3.1657962376473163 2.9642890338198393 4.492931484483494 0 0 0
123 2 3.6940193840184183 2.1576321243868803 4.7152661460705865 0 0 0
124 1 5.462563241743509 4.8183783818882855 11.235709790044604 0 0 0
125 2 6.334326090847571 5.335423270424731 11.028466856155362 0 0 0
126 2 5.871395613013342 4.043155325805425 11.686972457326668 0 0 0
127 1 5.687061346016813 10.078029247089274 4.435849649131546 0 0 0
693 2 31.745235778418824 14.414375838534461 1.8307673621675729 0 0 0
129 2 6.3354651797414 10.446038610734604 3.817508362969998 0 0 0
130 1 7.906374369664208 11.94101433229951 11.378425085391436 0 0 0
423 2 34.5581795032089 8.879421810723699 6.791787644597601 0 0 0
132 2 8.750969801962036 12.427433171720683 11.257370377528455 0 0 0
133 1 10.655608422173582 2.7067044606362236 4.295516049665199 0 0 0
134 2 11.071278562808573 1.8399714999338637 4.659741209791848 0 0 0
135 2 11.456955013969873 3.279991681247098 3.9873718573513712 0 0 0
136 1 12.920940849444468 4.82149756065245 11.285243823794627 0 0 0
137 2 13.665915277538751 5.331857824920761 10.958745614105055 0 0 0
138 2 12.50576774712795 5.257149987156608 12.049024170363795 0 0 0
139 1 13.213343621908857 9.800400131171726 4.523633024444098 0 0 0
140 2 13.905696922061411 10.175051236494761 3.9907052950990387 0 0 0
141 2 13.624692667400058 8.964690747433034 4.886701978541744 0 0 0
142 1 15.902759978769275 11.8248462667299 11.57745189312851 0 0 0
143 2 16.62606884108052 12.032492486602441 10.943072455384447 0 0 0
144 2 16.13536157041673 10.853315273974255 11.702198315651627 0 0 0
145 1 6.783137757298685 2.078620637205787 5.214201520644457 0 0 0
755 2 27.777589483442622 17.012422673428713 12.125657444508208 0 0 0
147 2 6.468634525644042 2.970804330024806 5.59669658239453 0 0 0
148 1 9.072811286334556 4.179076861250683 12.465629844936256 0 0 0
149 2 9.2069036136298 4.202319868235738 11.523648810900353 0 0 0
2136 2 41.54350424089378 15.120434531285412 23.420006316606944 0 0 0
151 1 9.635206278804844 9.403108613165147 5.3559894586019645 0 0 0
152 2 9.20049713726332 10.183891331054845 5.847169367692084 0 0 0
153 2 9.874659371171775 9.658850238052263 4.481436290221545 0 0 0
154 1 11.97670953888021 11.404796218257724 12.204081552993532 0 0 0
155 2 11.302538161994272 10.715507595738307 12.230832099023448 0 0 0
156 2 12.404343797767 11.40009491738444 11.34619185669028 0 0 0
157 1 14.2742055700705 2.300280422500479 5.590554351176527 0 0 0
2135 2 40.65590785848957 14.285638022817361 22.491866010408124 0 0 0
159 2 14.693508707453091 2.255287064278861 4.700115846219338 0 0 0
160 1 16.732808353322365 3.909974328600652 11.913297402121264 0 0 0
161 2 16.371204996419777 4.728547116564019 12.295014309802463 0 0 0
2918 2 38.87610703923177 18.041591593428 15.501952883837895 0 0 0
163 1 17.078125046515297 9.281064918105184 4.871480185322167 0 0 0
164 2 16.589004998696673 10.047751479987676 5.182297258870463 0 0 0
165 2 17.435962006984493 9.475221965448643 3.9829179736426426 0 0 0
166 1 19.36218801430064 11.311397051523317 12.007973103698726 0 0 0
167 2 18.809811225642424 12.033793805462967 12.364285557508603 0 0 0
168 2 19.706648729273386 11.589036783573752 11.169889710694958 0 0 0
169 1 9.206398281429326 4.372939819908387 6.023181731070704 0 0 0
170 2 9.859131622637419 3.734220726786591 5.655396428726916 0 0 0
171 2 8.523942885977997 4.529279435603988 5.309079087122212 0 0 0
172 1 11.640884895040138 6.448141657138659 13.483490331152435 0 0 0
173 2 12.068661323134632 7.2174806557514755 13.864701820980097 0 0 0
206 2 16.566027769531132 2.347051847270103 3.4728500769151185 0 0 0
175 1 11.669094262873022 11.527091072264499 6.170138023265161 0 0 0
176 2 12.268102103054662 11.030758134940697 5.54089211416867 0 0 0
177 2 12.174224125410392 12.258808331158841 6.540404728951323 0 0 0
178 1 14.242452315903277 13.276487285449535 13.101990944881786 0 0 0
179 2 13.490421219951964 13.483703139786046 12.463688031225404 0 0 0
180 2 14.874267911855005 12.76749315455574 12.62804199453409 0 0 0
181 1 16.445548391187746 4.260501752531106 6.068031867353794 0 0 0
182 2 17.074057198830186 3.6902437117956297 5.560260365672788 0 0 0
183 2 16.85987076919724 4.9303494413345454 6.578043832052046 0 0 0
184 1 18.915152951273278 6.032042593323379 13.168142118095648 0 0 0
187 1 18.830718084024564 11.362760805671515 6.395292314833672 0 0 0
188 2 18.287277195700977 11.026098532127518 7.205174072473297 0 0 0
189 2 19.14306918603156 12.254525574386346 6.62983215119098 0 0 0
190 1 21.58357898858775 13.543515333848804 13.014451670437834 0 0 0
192 2 20.84202045579797 13.692950918322904 12.325537281245024 0 0 0
193 1 8.49033848619949 2.449658973602982 2.955277090210608 0 0 0
194 2 7.897336271756252 2.067271380013837 3.6280599432235734 0 0 0
195 2 9.375449278656008 2.488233486817823 3.4682291934919913 0 0 0
196 1 10.449823294353989 4.186690132793876 9.769563955287424 0 0 0
197 2 10.58326697372659 3.604162406158837 9.005729223517148 0 0 0
198 2 11.335497785106194 4.2595958019902564 10.246600394107165 0 0 0
199 1 10.901536535719481 9.630588692591134 3.06291274499405 0 0 0
200 2 10.844560606232996 8.941408750040173 2.3659007570992836 0 0 0
201 2 11.746988775387269 9.590607598596527 3.523023324652874 0 0 0
202 1 13.405466919978945 11.478921165497962 9.494665949138996 0 0 0
203 2 14.348428803778118 11.412405772447853 9.748214153192894 0 0 0
204 2 13.275105116554293 10.786860876280015 8.824610300573717 0 0 0
205 1 15.636249776215154 2.433802306560552 3.276579147214528 0 0 0
207 2 15.631624280307541 1.9705664922579806 2.417244740253515 0 0 0
208 1 18.482380388969915 4.278624971001917 9.691247933834967 0 0 0
209 2 17.73958336750214 4.145082458038941 10.270005639530073 0 0 0
211 1 18.43310582494405 9.896888937074554 2.827196366102233 0 0 0
212 2 18.49487698537663 9.334121977940312 2.0389347959542916 0 0 0
213 2 18.293434254666867 10.830580114225254 2.4298722152479306 0 0 0
214 1 20.847696703451508 11.907535567383208 9.531274312815667 0 0 0
215 2 21.808189212608344 12.012775301600389 9.77563677906026 0 0 0
216 2 20.809716613338818 11.082764646382554 9.002596504571155 0 0 0
217 1 5.751253788419567 1.4740253668295447 1.5210582323310429 0 0 0
218 2 4.959289482744476 0.9281195232446641 1.3721219795359392 0 0 0
219 2 5.926538756864661 1.7583377992314102 0.5464054804774209 0 0 0
220 1 8.114043323672002 3.335070526155065 8.38543413127697 0 0 0
221 2 8.092538989588466 4.096438439384204 8.979853047719928 0 0 0
222 2 8.421610641790942 3.715782591587042 7.493140470357219 0 0 0
223 1 8.27491347939806 8.372739486724551 2.0059246342003094 0 0 0
224 2 8.789715569577156 7.565924979799346 2.26442322746058 0 0 0
225 2 8.52902060610007 8.614812740532475 1.0737731272551025 0 0 0
226 1 10.68657350019851 10.104552163306131 8.834731537816701 0 0 0
227 2 11.435204293135504 9.52785221524801 9.045061478748428 0 0 0
228 2 10.973808243736498 10.53902155489702 7.9998215549802225 0 0 0
229 1 13.067829814253368 1.2717829494440958 1.9261663366442465 0 0 0
1698 2 22.384655220275974 7.241427887945466 26.299469860001444 0 0 0
231 2 12.916407378976324 2.152218332437917 2.3105044667497343 0 0 0
232 1 15.504724379947623 2.941492472104157 8.651286437882641 0 0 0
2127 2 36.72990684202343 6.093866877446424 16.89955332606238 0 0 0
234 2 15.853530043915281 3.247170838893388 7.815352014604541 0 0 0
235 1 15.791265897578514 8.089795999822254 2.057168236450506 0 0 0
236 2 16.26545332077443 8.37254853011927 1.2460793539212902 0 0 0
237 2 16.395735449552156 7.407364919933842 2.486941993542059 0 0 0
238 1 17.94623654017549 10.105498821273393 8.892130357737903 0 0 0
239 2 18.630119304883337 9.51328235098606 9.239893625817018 0 0 0
240 2 18.113833950066127 11.028394239392833 9.258462463198716 0 0 0
241 1 7.72591899142755 4.29453521352664 1.1448402323918934 0 0 0
242 2 7.910897826104205 3.618512922081934 1.8590484614861598 0 0 0
243 2 6.989239996312831 4.8364073086354145 1.4350266674308205 0 0 0
244 1 10.009892789550255 6.403092417251877 7.8707629967954045 0 0 0
245 2 10.098829951184545 5.674338562359293 8.571508068736607 0 0 0
246 2 9.53457224259681 6.05991478783383 7.147100139566483 0 0 0
247 1 10.216008830957154 11.409767924495227 1.2482952182855116 0 0 0
248 2 9.7020470947157 12.087158057866803 1.7247402036064183 0 0 0
249 2 10.608038823756155 10.840197316203868 1.933152130608005 0 0 0
250 1 12.64769261893319 13.451225990701204 7.563184799478394 0 0 0
251 2 13.06333926624307 12.940343360853365 8.266645130607225 0 0 0
252 2 13.345696698609945 14.132001988839018 7.19541182596898 0 0 0
253 1 14.964392387129015 4.534544126579186 1.4058292799755638 0 0 0
254 2 15.344499879907177 4.015048925325531 2.153709891320372 0 0 0
255 2 14.381558763951222 5.211742724026899 1.8035970612923826 0 0 0
256 1 17.672511842196105 6.242927044410823 7.868108523953685 0 0 0
257 2 18.125561333400814 5.573682526843407 8.512059192505543 0 0 0
258 2 17.13922891925141 6.779569208755336 8.427885971329147 0 0 0
259 1 17.544348765160844 11.771138170471579 0.965170022390103 0 0 0
260 2 16.834892148737605 12.404438421456195 1.146748916677831 0 0 0
516 2 22.57702417716745 12.234407537972904 11.910523829089994 0 0 0
262 1 19.726104692980474 13.579208436328358 7.653715362447053 0 0 0
263 2 20.129080194775373 12.99717139852493 8.377664292111954 0 0 0
264 2 20.43071130123132 14.119673921266445 7.226248357150233 0 0 0
265 1 9.59058906024531 6.269195372820189 2.7567080414678067 0 0 0
266 2 8.952938221389903 5.688943520136173 3.2498828523112526 0 0 0
267 2 10.094446819056424 5.775532669356883 2.1217709226820163 0 0 0
268 1 12.33721288990315 7.835670312950749 9.824287556101845 0 0 0
269 2 12.6959241024105 7.251753603676489 9.192047871253813 0 0 0
270 2 11.506489941916914 7.425697382463518 10.217488814847083 0 0 0
271 1 12.37387122885187 12.930363645119986 2.9798641727392257 0 0 0
272 2 13.096017163663255 13.092071741299993 3.65007779700022 0 0 0
273 2 11.603322434563719 12.619083605942365 3.5704377712215107 0 0 0
274 1 14.987468075315006 14.756109555365121 9.451820637889096 0 0 0
275 2 14.65605696439723 15.562798433762545 9.03835385356328 0 0 0
276 2 15.675964488654262 14.963920930393845 10.131628711681165 0 0 0
277 1 17.156788808537417 6.039124411712894 3.136943429357295 0 0 0
278 2 16.380984885706383 5.698554270178885 3.6404146929851704 0 0 0
280 1 19.56156272998819 8.122019374302061 9.574386666405614 0 0 0
282 2 20.249746095158475 8.11768388690656 10.260302524637805 0 0 0
283 1 19.70595154192441 13.191950836902974 2.7934170019529097 0 0 0
285 2 20.39988873654595 13.516057057867307 3.3638257188381164 0 0 0
286 1 22.0730649842324 14.73522394994811 9.460259306493816 0 0 0
287 2 22.79682920980263 15.002858495115868 10.060321469053093 0 0 0
288 2 21.894245275637527 15.542321978265898 8.95038801890382 0 0 0
289 1 6.127908717012407 6.599925241432393 1.5618291445508208 0 0 0
290 2 5.76370613856023 6.742049789947636 2.4817056777085127 0 0 0
291 2 6.78424338739301 7.313201798280386 1.4562589257109675 0 0 0
292 1 8.46816404295761 8.694435590800277 8.80187772279704 0 0 0
293 2 8.917536338001028 7.866871203786597 8.579250237281322 0 0 0
294 2 9.223898066372781 9.339878207744738 8.664606748204529 0 0 0
295 1 8.649073231466808 13.657387010314567 2.023661068377144 0 0 0
296 2 8.168124850857213 13.588226449492675 2.859557044949118 0 0 0
2132 2 38.31976689085811 12.34485128441259 15.988199337100344 0 0 0
298 1 11.230911389134755 15.820390210907089 8.249505268717328 0 0 0
299 2 11.422460576634597 14.897516402802859 8.081643034897539 0 0 0
75 2 1.0610467434208664 1.4733098743979798 1.417537676098697 0 0 0
301 1 13.290963280306672 6.831626397055345 1.9713659590055017 0 0 0
302 2 12.899430597720478 6.8264134273376245 2.875816566818443 0 0 0
303 2 14.15849636622928 7.279725036768953 2.0801655766837674 0 0 0
304 1 15.77436676830062 8.323505940830401 8.891190412315298 0 0 0
305 2 15.397043122347183 8.163003417429355 9.753287573234623 0 0 0
306 2 16.43635008674637 9.063947695658225 9.021676924297932 0 0 0
307 1 15.972913266761621 13.731091229001844 2.0469844400203785 0 0 0
3494 2 4.585163665754386 7.637625967835133 5.726835425939282 1 0 0
1755 2 9.950130920365869 4.4165183479765675 15.701981617873544 0 0 0
310 1 18.650542719064287 15.805886982949001 9.018587734306543 0 0 0
311 2 19.090073758991974 15.103754894726768 8.47262367443975 0 0 0
3741 2 5.323875169340764 12.623910537971073 2.1223728818007124 1 0 0
313 1 3.564394764145147 4.792336857572507 0.9512887358224391 0 0 0
314 2 3.116919970277323 4.115982548025115 0.42909815035358684 0 0 0
315 2 4.260023045774996 4.438306931502541 1.5596056413752026 0 0 0
316 1 6.4252460741185144 6.445320019966559 7.773964744561883 0 0 0
317 2 6.729505942889813 7.025177661787116 7.043322332124776 0 0 0
318 2 5.860747318540632 7.0220543371045805 8.331497355117998 0 0 0
319 1 6.454561468204908 11.722404858284222 1.0056851866284577 0 0 0
320 2 6.173962105536405 11.037029650611256 0.4187305358727198 0 0 0
321 2 7.026928883395816 11.318183666045968 1.7397545657655398 0 0 0
322 1 9.027375041037255 13.7400530614997 7.937837467912608 0 0 0
323 2 8.330145715563752 14.201567163783798 8.423702166776835 0 0 0
324 2 8.69091984404172 12.855896777964995 7.610189631960323 0 0 0
325 1 11.351664297528616 4.7498250878314785 1.1969050382447437 0 0 0
1878 2 10.931953837189065 11.560498346729096 23.95254693100471 0 0 0
328 1 13.846633112166483 6.604212889005927 7.727491682157693 0 0 0
329 2 13.554213390698656 5.770991153963235 7.304501170574811 0 0 0
330 2 14.390166368286785 6.30534845008532 8.472423979658313 0 0 0
331 1 13.538468745177482 11.505904323973295 1.0088867517157594 0 0 0
332 2 13.06186831877556 11.721010658007474 1.8280650397007945 0 0 0
333 2 14.503451217372827 11.408428692603552 1.1909524548135475 0 0 0
334 1 16.569598396595342 13.378309252914816 7.674385881851084 0 0 0
335 2 16.70443710706761 13.926494354324 6.897491548911793 0 0 0
336 2 15.898353508562687 13.865406813979824 8.21470677255754 0 0 0
337 1 4.766436405482256 6.42199169474712 4.459558579813847 0 0 0
338 2 4.837341875434214 5.636454386764236 4.99410025485675 0 0 0
279 2 17.337896360849086 5.331761876164756 2.453471317616904 0 0 0
340 1 6.679151337485235 8.146131416979486 11.1323117442272 0 0 0
339 2 3.957563828561026 6.353719971070156 3.9656961095037846 0 0 0
342 2 7.334955590011009 8.366240163051122 10.455621370767634 0 0 0
343 1 7.140577928618716 13.251198220722241 4.411777894555666 0 0 0
605 2 22.45559165607912 2.453522549780562 8.91202056782744 0 0 0
185 2 19.209505215715335 6.785177215435755 13.650820987178406 0 0 0
346 1 9.626345119037532 15.453294983859715 10.895951807480351 0 0 0
347 2 10.210370688122403 15.497750990088363 10.158210566241635 0 0 0
348 2 9.97490249501421 14.764499999363263 11.479848695719902 0 0 0
349 1 11.964838187067931 6.666708458860416 4.281226382119804 0 0 0
350 2 12.024945727459222 7.266237375019017 5.068080528810514 0 0 0
351 2 11.015212744788435 6.6066004398514835 3.9210722000118676 0 0 0
352 1 14.574583774956297 8.30097919705959 11.512759450195524 0 0 0
353 2 14.903126136147193 7.481497732627604 12.006758805475402 0 0 0
354 2 13.733726492260384 8.012998760577974 11.161145164618073 0 0 0
355 1 14.477569528540405 13.385726936777592 4.6244202709608535 0 0 0
356 2 14.64707782771674 12.503709640980517 5.123065941034218 0 0 0
357 2 15.086879553263945 13.256530061175194 3.8403827647433446 0 0 0
358 1 16.958527604640746 15.521490622698263 11.13269664456654 0 0 0
359 2 16.914929964395487 16.35083791434358 11.652762922247643 0 0 0
360 2 17.5811460637965 15.68998776766224 10.412598444198634 0 0 0
361 1 7.1685106954899815 7.921276960353684 5.333412369154734 0 0 0
362 2 6.639390093013297 8.669190463746949 5.0071215648728025 0 0 0
363 2 8.103663732033407 8.186187488533939 5.263113439641698 0 0 0
364 1 9.733511961382096 9.646594060630498 12.09817786176769 0 0 0
365 2 9.114460495095274 10.30981059335777 11.81264389012604 0 0 0
366 2 9.493181251715272 9.38767022437135 13.009531559585625 0 0 0
367 1 9.708774317672638 14.71269525016943 5.285258120705026 0 0 0
2067 2 27.57584233132557 5.6343142458889055 19.29383549615725 0 0 0
369 2 9.48711326979489 14.544644432130209 6.175901365000304 0 0 0
370 1 12.176877631766521 16.48990379865762 12.353036180222905 0 0 0
431 2 38.145149514674316 17.330889167322667 12.733044443691368 0 0 0
372 2 12.384625545477734 15.680654415906384 11.819429766101631 0 0 0
373 1 14.553650918934263 7.583031818621383 5.400063953010387 0 0 0
374 2 15.458412132610782 7.9269208457845854 5.277254645673168 0 0 0
375 2 14.370399582953151 7.364046132723036 6.332455670841462 0 0 0
376 1 17.238008572652483 9.442247492861672 12.266965462928349 0 0 0
377 2 17.98969174409708 9.986986673853227 11.919913728538738 0 0 0
378 2 17.40534375226856 8.609320161570627 11.821084501392235 0 0 0
379 1 17.348396695617218 15.03405066102782 5.507524039841521 0 0 0
381 2 17.3984982523378 14.263048686685584 4.918780572299454 0 0 0
382 1 19.63387262235202 16.660613800084388 12.174269524325657 0 0 0
1619 2 10.820100318081337 12.721377540638354 20.337821445039427 0 0 0
384 2 19.395127201085792 16.361235025463195 13.087863751028811 0 0 0
705 2 20.692771921010767 10.73243187255683 0.5214920807199416 0 0 0
2129 2 38.66448179200985 7.77721643176144 23.835506727212675 0 0 0
210 2 19.298613925910963 4.226508824577175 10.305065141478272 0 0 0
284 2 20.12188144047896 12.629285591989724 2.091103298092378 0 0 0
1611 2 6.73975518952028 5.082517220209077 14.005404671998944 0 0 0
1722 2 13.599215115496706 2.0467154173211117 0.4557141358555468 0 0 1
74 2 11.623028158835185 8.720442102373802 27.119130001702473 0 0 -1
1618 1 11.367666201442685 13.222252997852413 20.90049097948689 0 0 0
468 2 20.341695754062783 9.414762855687053 7.280134023866393 0 0 0
512 2 20.145148402846996 10.458219309892383 5.366520995466002 0 0 0
3155 2 35.67420075805238 10.348519237074743 8.23135181053223 0 0 0
174 2 11.448588975380884 5.914252657984734 14.25777466630986 0 0 0
261 2 17.139934067683438 11.037035219962098 0.3404215905113923 0 0 0
186 2 18.5342478756469 5.442277086165679 13.842107517477965 0 0 0
92 2 10.538994210084633 7.575150656018837 0.5648074677944318 0 0 0
722 2 18.57847750295068 6.236709928871695 4.153767189512584 0 0 0
1617 2 8.948419117980805 12.034001269798546 13.64018958123046 0 0 0
86 2 19.117524153506803 8.709457637601936 27.270379889550927 0 0 -1
1857 2 11.297997267355537 15.744313069918558 13.615198455486587 0 0 0
1537 1 12.650860906517835 8.679525492024792 17.807665522104106 0 0 0
1538 2 12.985274447745836 8.198775275121482 18.58944843683719 0 0 0
1539 2 11.870954412449342 8.17488108812006 17.54751092107968 0 0 0
1540 1 15.01780826954196 10.635370927321363 24.411415135737776 0 0 0
1541 2 14.671904842531568 11.420843596045634 24.790554782417395 0 0 0
1542 2 14.343288442697267 10.131922232581942 23.951819811400984 0 0 0
1543 1 14.891896222770665 16.02613977304871 17.576372055665825 0 0 0
1544 2 15.38115906256121 15.48855545615508 18.14171484524299 0 0 0
1545 2 14.726973155862384 16.915273155377886 18.07546644918545 0 0 0
1546 1 17.803659162805847 17.52817750721183 24.562764197550834 0 0 0
1547 2 17.651039814776432 18.4382917934025 24.839825416257582 0 0 0
1548 2 18.11076652775491 17.100453509612986 25.37521481380461 0 0 0
1549 1 19.93138942561388 8.835973354211248 17.521157427840535 0 0 0
1550 2 20.620204688880523 9.132189270579362 16.927806504866595 0 0 0
1551 2 19.641605863913682 9.604705415309063 18.006999631146865 0 0 0
1552 1 22.57846606998822 10.842371050310238 24.740394829018562 0 0 0
1553 2 21.93832670368655 10.286054133990294 24.244633645188053 0 0 0
1554 2 22.901395330585075 10.410968396870253 25.5201428098118 0 0 0
1555 1 22.523819589131257 16.050403650507608 17.827739056651737 0 0 0
1556 2 22.044453388445504 16.879715304775537 18.102910105741582 0 0 0
1557 2 23.32593322821443 16.388824878868366 17.34698652046161 0 0 0
1558 1 25.009817282259657 17.737428096574778 24.405288928350217 0 0 0
1559 2 25.729130679128975 18.0257468021519 23.86200162696209 0 0 0
1560 2 24.603606618162978 18.507984442367103 24.821989180113167 0 0 0
1561 1 16.66704999870472 11.900492588543202 19.694731157331205 0 0 0
1562 2 16.796953781990734 11.148437355769 19.064527719141445 0 0 0
1563 2 15.914976903166767 12.356540132194397 19.390641395083875 0 0 0
1564 1 19.13489724742611 13.636577994727904 26.97160483893693 0 0 0
1565 2 19.343512091701648 13.309602571516933 26.04704955505744 0 0 0
2205 2 40.31248716701986 17.173747663547378 16.90470800983429 0 0 0
1567 1 19.144122204875462 18.60110523925057 19.884843008236768 0 0 0
1570 1 21.60321010184208 20.426579331514336 26.718164500048594 0 0 0
1573 1 24.19410590124474 11.6392300078922 19.98199041473225 0 0 0
1574 2 23.339564599138644 12.169800425628774 19.88502611569977 0 0 0
1575 2 23.880033836567193 10.831433511974396 20.38209515784172 0 0 0
1576 1 26.466059497079133 13.65255204406117 26.69465556417846 0 0 0
1578 2 25.619812319358285 13.937831163475698 26.244170089436068 0 0 0
1579 1 26.615739402445787 18.950403148964067 19.975295906515605 0 0 0
1582 1 29.12309498656014 20.824424764038877 26.76418418911993 0 0 0
1814 2 22.501510513596568 9.27136723747259 15.614433444753036 0 0 0
1585 1 10.025947793930506 7.322101346782876 16.679815812854375 0 0 0
1586 2 10.376416651830851 6.4047564112544615 16.463670813053685 0 0 0
1587 2 9.647665548718177 7.618288382373022 15.81458532050429 0 0 0
1588 1 12.749710692811977 9.25056861575036 23.222614474845972 0 0 0
1589 2 12.39837213277514 9.575176121980954 22.31361526061181 0 0 0
1590 2 13.281095269785597 8.47210589762646 23.039720611150248 0 0 0
1591 1 12.835465725228516 14.419454195389392 16.285657533879952 0 0 0
1592 2 12.05027660364243 14.228286615825146 16.809587193026104 0 0 0
1593 2 13.529404255507785 14.853203426889841 16.85128465153733 0 0 0
1594 1 15.555693103087227 16.410362424746975 23.258798405148863 0 0 0
1595 2 14.89186062284157 15.981919302680812 23.901014713206553 0 0 0
1596 2 16.226354214411725 16.816525609131478 23.85889556565399 0 0 0
1597 1 17.69303069764566 7.051533596841593 16.61889231518561 0 0 0
1598 2 18.465758637276128 7.4659332636478934 16.979212739070306 0 0 0
1599 2 17.412628769953024 7.6108547134250895 15.87829690593155 0 0 0
1600 1 20.594502696012373 9.286625878514515 23.5633033189671 0 0 0
1601 2 20.569155055032713 8.34657040907054 23.146176030617937 0 0 0
1602 2 19.891340324883046 9.195898341401175 24.20124040588166 0 0 0
1603 1 20.361788002547677 14.404890939327634 16.63842949846291 0 0 0
1604 2 21.066924906091927 15.0351227755913 16.851429724335038 0 0 0