LAMMPS data file via write_data, version 8 Apr 2021, timestep = 0

6144 atoms
2 atom types

-2.859357635190558 62.827646766372816 xlo xhi
0 28.126727560088476 ylo yhi
0 27.187904990761307 zlo zhi
10.160166563449486 10.186123913018527 7.1199373757729845 xy xz yz

Masses

1 16
2 2

Atoms # atomic

4486 1 12.287836192557819 27.16192241584045 11.743270545034976 1 0 0
1604 2 15.780878450774143 21.38117773865527 23.39719349015548 0 0 0
2378 2 11.537393133626523 22.766283948825514 6.438282227691276 0 0 0
987 2 17.768913468793233 13.750789172093064 20.88585750440296 0 0 0
225 2 5.208212607534461 1.7013368899670747 2.667232662015458 0 0 0
1537 1 9.657656342508425 18.09273441645733 17.300395150685464 0 0 0
25 1 11.736046278017948 11.931219954516871 5.408460712867707 0 0 -1
1625 2 12.401670284274378 8.899273070807832 12.70785240752844 0 0 0
4270 1 13.895443131013458 26.32474507029849 13.61796337855209 1 0 0
886 1 14.730169579863269 26.93671562014156 20.7943029044165 0 1 -1
4272 2 13.417744927284573 26.672133897182096 12.85299809949654 1 0 0
849 2 17.043807559583023 21.630923499090084 0.23607519749125933 0 0 -1
2443 1 14.362386353441543 11.093512346207664 13.076335274787866 0 1 0
358 1 9.756521949934225 22.198778737782963 0.5097319925156727 0 0 1
3500 2 13.764036437223073 24.50026603200582 24.890964886641747 1 0 -1
2432 2 15.538810958005406 30.45200648083498 24.379224624724124 0 0 0
1670 2 4.119914492531092 0.25479251380425477 0.5306142804328401 0 0 0
219 2 8.920757884506116 21.65597819761807 3.8610302680607176 0 -1 0
1064 2 25.24559831093697 27.932906152617992 22.6583676540738 0 0 -1
1894 1 4.49709845214173 14.80993085130008 2.3769573946104665 0 0 1
1740 2 12.129975394915892 15.56076248970831 3.4559986545785253 0 0 1
1916 2 21.47181436786332 27.66894589514059 13.631522945496068 0 0 0
611 2 11.213617284533544 8.514389281236996 8.56567952253081 0 1 0
1709 2 22.606130620278808 31.840886816642723 14.508342667252135 0 -1 0
227 2 3.2070212219200993 2.7099356831969157 7.00778004831613 0 1 0
2629 1 3.0684878348427906 6.3703117440666075 7.2354168304694175 0 0 0
54 2 14.302591380691727 24.05495589435055 22.138463301179687 0 -1 0
2238 2 4.448513868212584 7.078375913171083 14.096167113069637 0 0 1
80 2 9.858870483475737 29.156328177504896 7.547042069001885 0 -1 0
2564 2 12.324959548953707 11.593859434064857 1.5609076615452977 0 1 0
416 2 12.708077102331046 13.378357856869181 17.409057072553413 0 0 0
1871 2 15.341832311498528 23.771489111769835 16.7493493237938 0 0 0
610 1 11.338905094337981 7.924102752216689 7.784075404627327 0 1 0
1641 2 4.849422407651672 7.31595637715581 16.2612185133077 0 0 0
334 1 16.44108542501266 17.40526507885036 13.204280074372994 0 0 0
2337 2 10.386889436211419 9.394863179447176 17.38290963559276 0 1 0
1708 1 21.813784302781578 31.71034247558052 15.123635141636544 0 -1 0
27 2 10.806113758008074 11.707653209493452 5.271932617494873 0 0 -1
907 1 19.077689772905114 24.864327106328883 19.21198434686069 0 0 -1
99 2 8.96007833846761 8.654868034988084 5.840663799877621 0 0 0
1561 1 14.131097339600998 18.600572195235813 8.436014082583371 0 0 0
2669 2 12.491486212315277 26.038021140938298 19.586926901224448 0 0 0
174 2 25.10038036274452 29.086623554490373 17.768425591543274 0 -1 -1
1114 1 7.732799005950306 8.18720056150563 7.239872013802217 0 1 0
924 2 12.791896702451211 22.373363765923493 13.608561164742712 0 0 0
1912 1 18.922355987761062 32.827519037178725 26.92099939919661 0 0 0
224 2 3.661028097615935 1.5963791407286236 2.8823834406461484 0 0 0
874 1 17.983821512091055 27.199914673372476 12.59423363764118 0 0 0
1710 2 22.331295889915467 31.652149730577747 15.938683671027787 0 -1 0
1689 2 9.200150088589421 11.391179783935886 3.315971792391815 0 0 0
1705 1 12.172934408026293 20.439376110855132 9.086124009643784 0 0 -1
2403 2 10.62220682991505 6.897384562176001 22.192518763895674 0 1 0
1106 2 8.012687826322129 14.233583999643757 5.278982615646306 0 0 0
1570 1 9.668320200365887 11.782773621983106 15.086399674524584 0 0 1
2314 1 14.867612460734964 22.198938855074463 7.908014587350764 0 0 1
1129 1 15.260147715125644 20.54723786010685 18.903677869248174 0 0 -1
1899 2 15.887028765705388 31.479413833630247 18.75587752220958 0 0 0
2283 2 11.546645846328676 24.11248803920401 11.703979169617826 0 -1 0
1017 2 15.997282395831018 8.31753373285298 10.92345429487119 0 1 -1
3738 2 4.331888466125552 9.107138741896144 8.509447395348138 1 0 0
1855 1 12.211394479287787 28.785144950749885 5.497351446824089 0 0 0
1059 2 8.356365862603631 9.359403295166752 24.061886343032906 0 1 -1
896 2 18.668752732739758 29.352879078319837 18.24764224072612 0 0 -1
1759 1 8.576220331447868 15.678993965657408 13.903029946147987 0 0 0
1716 2 5.661539724276245 9.112164429373554 14.346771909028247 0 0 0
1571 2 10.316615532025768 12.154309353016709 14.43583144389642 0 0 1
3495 2 10.597208193145327 14.302666636935959 23.85124363881356 1 0 -1
894 2 14.162759462096066 19.050089941132374 5.006248015640782 0 0 0
1658 2 16.98209805291759 32.438408587660554 21.087798024612628 0 -1 0
2660 2 13.023891747618347 30.285116574444935 12.142320384162648 0 0 0
1113 2 14.488602812371226 15.883260650833892 10.745628138074794 0 0 0
1669 1 14.512845384623532 27.426539953165534 0.5798035865914617 0 -1 0
1063 1 24.950488385487745 27.085303663385684 23.12859832084879 0 0 -1
1671 2 24.64594025715397 34.24090479841402 26.82815312204509 0 -1 -1
1728 2 21.897250393103857 15.975369960176883 14.398757059304057 0 0 0
3498 2 5.420358604919998 9.294331879055845 11.886453359122793 1 0 0
846 2 17.359146837595407 20.71636075706041 22.07053153701615 0 0 -1
359 2 20.306599595454045 29.941994535019457 27.06838568470625 0 0 0
1739 2 10.715510639340756 15.89605995328054 4.058141447400917 0 0 1
2266 1 9.614982936617437 26.04912374189558 7.622718154408052 0 0 1
2471 2 18.812447593613957 9.682173322517704 15.91385807719251 0 1 0
1112 2 14.436291531916293 14.964274469876178 12.106899684284098 0 0 0
887 2 14.30533258054917 27.82614256574906 20.680920879499503 0 1 -1
1880 2 6.841328536136122 9.565439395780494 19.33026492410112 0 0 0
1107 2 7.554116527024017 13.017167140019431 6.173250058579458 0 0 0
2593 1 3.283115520413192 4.0760853349138415 8.701835322962951 0 1 0
223 1 4.521039113456692 1.6546937755656648 3.356857090352119 0 0 0
1917 2 21.03974980447071 29.167494741873977 13.523015163072529 0 0 0
5924 2 11.679655103765928 21.96530631761969 23.1658435081684 1 0 0
2407 1 9.514664303375369 20.036087685620576 6.809345283561561 0 0 0
1687 1 9.178228641097032 11.441264448663086 4.287591804770466 0 0 0
986 2 17.796954650172093 15.318573420321353 20.607543180363773 0 0 0
1706 2 12.972266763526196 19.924919662762047 8.786176559570713 0 0 -1
46 1 9.069621661642564 18.01802137635375 2.8466139574484703 0 0 0
1374 2 14.136643463803651 22.521177429452788 0.04883954031749724 0 0 0
1688 2 8.509152217559706 12.135723680690466 4.551463988084851 0 0 0
488 2 3.1755852234838686 15.440587326516173 1.221673560278521 0 0 0
1610 2 21.7368329666239 31.559481855972255 26.235111941410292 0 -1 -1
922 1 12.96541113241744 22.229380771501354 14.542575315476443 0 0 0
2409 2 10.210696411738411 19.43054052166094 6.448970739786155 0 0 0
845 2 18.84113627166747 21.23572179703606 22.132954337919667 0 0 -1
1563 2 14.095267960726261 18.757086751301145 7.473478998843424 0 0 0
908 2 18.513764668755538 24.184910872855124 18.793617898561145 0 0 -1
893 2 13.89697261199223 20.294320411042793 5.71424254318198 0 0 0
28 1 13.155136518291997 26.35077421786729 17.773870142130725 0 0 0
798 2 12.501950996427421 13.009539492240215 20.33691285436483 0 1 -1
1782 2 10.585958868029852 15.700396934970147 11.120328907033127 0 0 0
300 2 11.36778697445573 23.454322746336093 8.718995221632449 0 0 0
1772 2 8.933536018179243 7.348306972968476 23.559509338825734 0 1 -1
2414 2 15.210589425742722 10.198452244655284 14.515541040686804 0 0 1
47 2 8.094650439804909 17.84313072442328 2.9187355755568913 0 0 0
2441 2 16.326204112543124 24.273284432472135 12.817305330821346 0 0 1
847 1 17.21236233968318 20.66376878034156 0.214301978349777 0 0 -1
1562 2 14.916765607405715 18.911713852163913 8.870468410148092 0 0 0
1015 1 15.503220185413387 7.7095774151096705 11.487078325091078 0 1 -1
1738 1 11.60122345300968 16.313711300273237 3.7863499037179333 0 0 1
949 1 16.349050157676796 18.7025340177789 10.150434063322546 0 -1 0
30 2 13.769314712287212 27.076551466840154 17.935152768110946 0 0 0
194 2 7.539831935156141 7.25177947692794 25.77834230478598 0 0 -1
824 2 8.83387239957709 7.661056072650068 15.040449617430992 0 1 -1
3641 2 5.017046104271476 3.2383268642678353 12.15023742791428 1 0 0
2440 1 16.376273115960608 24.826080639127035 13.621200611184767 0 0 1
98 2 9.756902264965028 9.655583364420616 5.040012957651929 0 0 0
349 1 22.99714178955241 21.170548953507268 7.6897562886162785 0 -1 0
369 2 15.30388507875676 20.597456547216584 14.244514984028362 0 0 -1
1065 2 25.262547818067656 26.94947840141363 24.003744508669026 0 0 -1
1130 2 15.444840624737132 21.484890660366688 18.637696583839478 0 0 -1
2355 2 18.550857193371154 20.66624310933324 8.572779403802313 0 0 0
962 2 21.09836061717106 31.772261858919318 24.512990577594632 0 0 -1
347 2 8.853110293230621 16.906501303864538 10.69916113471421 0 0 0
988 1 6.442069106353322 7.032583974086598 21.867842067252695 0 1 0
299 2 12.708069518608902 23.793028410073255 8.141694572595194 0 0 0
626 2 10.85393924854744 4.53778603408535 1.0989254939655513 0 0 0
335 2 15.909956177958403 16.937412118139612 12.490154169624848 0 0 0
4504 1 7.123677686921732 21.302942529357843 6.768658580791014 1 0 0
2311 1 4.4123204530183 7.443899660601529 2.4218989512437528 0 1 0
1515 2 8.753537790456477 18.434007726754864 4.950192339784706 0 0 0
1896 2 5.033194708963337 14.187853695384243 1.849794339508563 0 0 1
2398 1 6.937355989351901 22.480953869343697 4.33039590819851 0 0 0
984 2 16.431233873895536 7.510108489119261 12.92845635993111 0 1 -1
588 2 8.945117877662558 12.911431674116859 8.25588027427526 0 0 0
909 2 18.49574637208436 25.59322598314444 19.516446566660658 0 0 -1
2436 2 22.40724391044418 24.840172188742578 5.514217480777167 0 0 0
2354 2 20.01105649598852 20.181726918309785 8.095403334507091 0 0 0
218 2 9.383378222383968 20.303430535013586 3.161045656109914 0 -1 0
435 2 18.760257047093685 11.172492503224811 14.549068335709194 0 0 -1
1273 1 2.37285471279192 8.431039714312218 4.020299083887436 0 0 0
1132 1 5.4268868340428975 10.679776401013957 3.029048455015478 0 1 0
2907 2 25.218717220182814 21.500727390364226 16.271697181903676 0 0 0
1781 2 9.594254128862413 15.440113882767076 12.371228791449136 0 0 0
1514 2 8.032372572884452 17.968395830794226 6.30499181151752 0 0 0
2529 2 5.520979132096957 19.21958445724394 0.7961970199242345 0 0 0
268 1 11.577468038140221 19.222774818179133 25.852972654672516 0 -1 -1
961 1 21.28284941041807 32.39779223429415 23.751802402359747 0 0 -1
885 2 21.13074866348892 30.259552113905418 8.403924325956725 0 0 -1
270 2 12.532639475569649 19.370011591811103 25.91968367615134 0 -1 -1
2316 2 14.59703718016544 22.43881003995573 6.983637411481745 0 0 1
2666 2 10.318546641172297 20.0059137603259 12.844622481316469 0 0 0
818 2 11.739554609197398 8.508353707779072 10.625145385909311 0 1 -1
775 1 15.34928517530588 28.66062072365221 8.141411542088163 0 0 0
1603 1 15.807312158225315 21.107187693690342 22.439063406531627 0 0 0
786 2 6.684295488956214 7.591268427716655 11.020296175878224 0 1 0
1605 2 15.284338902440005 20.401080882548726 22.141000295787563 0 0 0
336 2 17.333104280526577 17.623466838619716 12.887209685826951 0 0 0
77 2 9.547150918469836 25.22515862767301 4.255824229556723 0 -1 0
2531 2 17.926743938235944 16.78984696881713 16.641359678804523 0 0 0
1877 2 12.582827286130389 11.054138786182671 19.512837164665186 0 0 0
1039 1 23.6360207383191 17.738131168470964 17.05089796805382 0 1 -1
2631 2 3.3622057188013104 7.166542829935919 7.712229678952034 0 0 0
2324 2 5.560276939482367 20.471382426896103 2.4789393311123464 0 1 1
1016 2 15.82217054583166 6.781539233540284 11.182624664751927 0 1 -1
946 1 7.776749233786215 11.477067188719193 13.166968345264852 0 0 0
169 1 7.891739350718724 8.369954340833727 20.057913049157168 0 0 -1
97 1 9.832121782668551 8.79621022259246 5.456229209289437 0 0 0
57 2 15.154411669251282 31.237208227228887 15.138597445465749 0 -1 0
1657 1 16.24268057636507 32.49076823972988 20.461965039193363 0 -1 0
1513 1 8.239727966690676 17.73868678414249 5.367919843770609 0 0 0
1078 1 17.066321511971125 29.415362312500257 13.988293133869808 0 0 0
963 2 21.91584781088668 31.949175672882028 23.130892313739935 0 0 -1
1547 2 13.907614372051949 19.18727726541992 21.122519551605034 0 1 0
2353 1 19.49906112437423 20.58606125086406 8.79780129504562 0 0 0
917 2 17.202834037015357 17.13668038955223 19.80428015555106 0 1 -1
417 2 13.66945808742129 14.42127430981595 18.09698223536184 0 0 0
985 1 17.461100023878124 14.61495472157027 21.260409427391018 0 0 0
1884 2 11.192765723740713 13.473762406239507 8.38439983451835 0 0 0
76 1 10.095753248196647 24.94974718665127 5.055204108760612 0 -1 0
298 1 12.094408188402717 23.037050547273072 8.186610782587106 0 0 0
1707 2 12.320536106769264 21.38625615610253 8.841518615707798 0 0 -1
2259 2 29.50647680818661 30.936321691546052 25.067459296394247 0 0 0
612 2 10.746791991067266 8.376829108980312 7.1084045433421545 0 1 0
5179 1 8.79485309022495 14.297968347189066 16.108975623999672 1 0 0
1079 2 17.68175586548372 28.75702763711114 13.570555040929607 0 0 0
883 1 21.174939683957746 30.063063041086604 7.441620573034857 0 0 -1
2442 2 15.65257868848634 25.485790638154633 13.520136340094833 0 0 1
1915 1 21.774779714487174 28.576940063112858 13.357854944136593 0 0 0
1020 2 20.333238763561674 19.3741421475418 3.478473104952529 0 0 0
2315 2 15.677220827217763 22.84424120475842 7.943574959225953 0 0 1
5923 1 12.058665499390784 22.111820614959814 22.303987054737142 1 0 0
983 2 16.477602075137963 8.37405484952761 14.219064845913385 0 1 -1
923 2 12.208005831406474 21.70872117328248 14.838739391248138 0 0 0
2572 1 18.673559577640265 20.240526437572342 14.56283678758779 0 0 0
2168 2 19.267883765912728 23.315048589861107 12.932696241239965 0 0 0
156 2 15.263967429537384 26.693379499336483 5.928297061283091 0 -1 0
1589 2 11.33521067092066 8.305291866049595 24.952522628258325 0 0 0
1616 2 13.57090852924162 19.06366639460386 12.81563122276974 0 -1 0
1660 1 4.8972076402501505 14.53239080695663 4.968598933099701 0 -1 1
131 2 6.598698624736044 16.20641830015959 8.502634505551965 0 0 0
1448 2 18.934543394601608 16.647696694155766 0.42321209467382287 0 1 0
2445 2 14.075740782844342 12.02256086118467 13.209350097206999 0 1 0
1588 1 11.985176450318455 7.6760644575550705 25.302509714376036 0 0 0
1150 1 15.775501916318483 23.86794227903279 11.24286544824417 0 0 0
1841 2 6.929067426484992 8.13168391760983 1.3607855120354637 0 0 1
790 1 21.317197544211464 11.980143573279781 24.370916795969574 0 0 -1
1118 2 21.621234871713362 22.547762347753356 16.597954912817055 0 0 -1
1872 2 15.74331369151735 23.89531559738663 15.232684253931572 0 0 0
2613 2 15.824742348704728 28.70298999999886 14.692232723473147 0 0 1
1133 2 5.209041870260875 10.545460293858952 3.9429635261754457 0 1 0
1762 1 8.430391187320339 9.77766031195491 11.060507066685132 0 0 0
2556 2 18.637080909675852 17.425936104779208 25.468052794968198 0 0 0
2548 1 17.30032129092969 14.955598571560527 26.747322813892243 0 1 0
1870 1 16.044757073533457 23.54273715073431 16.091605364774203 0 0 0
53 2 12.944057656366642 23.54944064654047 22.507675303939337 0 -1 0
1879 1 6.300447446930417 10.369426114673212 19.079430899292802 0 0 0
1736 2 11.97895951897311 18.695020066653946 5.939666360558672 0 0 0
1659 2 15.520431216827205 32.76138943201431 21.000197695771448 0 -1 0
1109 2 17.68379825156904 10.803591397877288 17.425356995003153 0 0 0
165 2 18.930599439672225 14.83606690295263 6.3267600638801476 0 0 0
5976 2 11.310598384675679 22.68236328792514 18.99781568389353 1 0 0
2555 2 18.946023908626746 16.258604384331775 24.46876635013832 0 0 0
1046 2 17.80685563171464 3.6570350268034053 13.45683004781052 0 1 0
1801 1 14.521174948873085 23.777871620200187 18.518793241628362 0 -1 0
442 1 5.995538905116194 3.8468740402537365 5.3689579295280465 0 0 0
2601 2 19.832042049258707 17.941024844716555 10.423960554044063 0 0 0
2600 2 19.894447152807125 19.353558910435744 9.889659117062562 0 0 0
188 2 14.381639293091133 21.8506296065427 9.945824008943182 0 0 0
2444 2 13.479437958529648 10.54680812106008 13.13069451323345 0 1 0
1859 2 11.71172993780226 15.221533827103233 17.53372854376119 0 0 0
2642 2 8.72508297010977 4.603617629351196 11.931736689832949 0 0 1
2307 2 21.17840262582584 28.074858920065694 3.4205553261580017 0 -1 0
1119 2 21.199064411013282 22.833510444191855 15.148938754152384 0 0 -1
1088 2 13.830748739499032 25.955738599313733 1.6289188694059453 0 0 0
2217 2 24.37992908580266 24.945023709213697 18.622795233192946 0 0 0
1787 2 16.479751542219596 26.727307622637976 9.423114824317473 0 -1 1
2306 2 19.98861781484745 28.88934733782978 4.156157402402771 0 -1 0
198 2 5.732387560685926 7.457141423502768 8.831476903682999 0 0 0
2661 2 13.884905361084002 30.42417017903984 13.385803930281554 0 0 0
52 1 13.58395042359853 24.2280004961004 22.804250446663055 0 -1 0
2570 2 20.660117889034744 29.945177035094634 10.567134219519973 0 0 0
776 2 15.876137602425818 29.26203696423032 8.769339658024142 0 0 0
585 2 16.944731781778472 14.99001189587145 0.6328118443115056 0 0 0
3737 2 4.595618773510198 8.900089799461865 6.989608672539714 1 0 0
1103 2 13.663583741119762 16.583708230799946 23.785667131987303 0 1 -1
2604 2 18.476655294670078 20.40289309349098 19.675574766554657 0 1 0
989 2 6.117225553759654 6.128329562224597 21.730681759711047 0 1 0
1134 2 6.123919875550242 10.080876751307065 2.820263493122524 0 1 0
2644 1 18.206020786854005 12.246051692210427 20.338825716484973 0 0 0
2507 2 6.255281633446796 18.030550178193085 2.131556444422929 0 0 1
1914 2 18.759346685948586 32.439489712651 26.00562412009625 0 0 0
1735 1 11.212132192634208 18.065180113357556 5.919244956126883 0 0 0
2646 2 17.843023058050616 11.818796733902838 19.536139627860017 0 0 0
2413 1 15.495895739491996 9.512958928637717 15.166958130544486 0 0 1
895 1 18.157520014124724 29.15468553513984 19.073921585560775 0 0 -1
2603 2 18.20915575152815 21.22942577852454 18.33614610071679 0 1 0
2554 1 19.13298124913242 17.245101313213357 24.61333937773785 0 0 0
2469 2 3.6046829949079813 10.367272554704673 5.945907129682791 0 0 1
2305 1 20.830823083018952 28.440365666498764 4.270574984443636 0 -1 0
443 2 6.701117367233061 3.933043277137592 5.9962987512201416 0 0 0
294 2 4.75097596609325 6.429237261077433 4.180625101880793 0 0 0
1895 2 4.615932610566606 14.520887898701954 3.2994193679158648 0 0 1
248 2 12.155482158578728 30.158309254008294 10.128441214775414 0 -1 0
2641 1 8.324378396790102 3.7361160875067214 11.82976226470569 0 0 1
897 2 17.92328618417798 28.128824841398046 19.036188566811234 0 0 -1
318 2 19.959293766513124 24.350317388521436 20.556706427225674 0 -1 -1
725 2 13.080969860066006 12.972301763230936 26.298045085751657 0 0 0
2456 2 25.781291430834823 21.390641581371625 26.4298914169858 0 0 0
1672 1 18.332521860742567 23.761208146562364 10.110297539740989 0 -1 0
1617 2 14.894078708610163 18.413931980961443 13.476541378015591 0 -1 0
1117 1 20.970017886458695 23.03850333771917 16.0416374536192 0 0 -1
1737 2 11.338116869874064 17.51522047227447 5.1223229089855105 0 0 0
1909 1 23.36596084191936 31.8916923186928 17.59527392182972 0 -1 0
1682 2 13.580342264344019 28.798858983527165 8.886870182112562 0 -1 0
368 2 15.883371923200059 21.90698381868871 14.947510113253568 0 0 -1
197 2 4.886253205897953 6.869480466323125 9.980177835920424 0 0 0
1825 1 3.26308457224535 7.3192011640154835 11.051327647680573 0 0 0
948 2 7.264372231069632 10.81989026165198 13.702125899080347 0 0 0
444 2 5.3495336514386205 3.2276358273581254 5.668496548141586 0 0 0
831 2 11.673833170913639 28.55415352742319 12.614685044272132 0 0 0
674 2 11.648652639661716 4.035411108294189 2.951552792426086 0 0 0
4488 2 11.6992956130643 26.320375341646447 11.702769537947049 1 0 0
60 2 12.066343543159537 29.17840980403509 14.742603808602102 0 0 -1
562 1 20.51851452212105 9.10367815876453 16.251790721784868 0 0 0
1621 1 14.777599018475705 14.56891956981217 15.36934809582123 0 0 -1
1622 2 14.112681739464328 14.559780809339584 16.05015920113947 0 0 -1
1151 2 15.26161738476209 23.08297756620063 11.020401533645778 0 0 0
1691 2 13.977600119347041 23.657564184638495 1.9357352202239202 0 -1 1
316 1 20.580647011911626 24.1493266847174 21.307643528814786 0 -1 -1
2612 2 15.80344369131635 27.323080410694697 15.412560786991177 0 0 1
2491 1 9.240182526425151 15.268981663218627 4.427576703147342 0 0 1
5 2 10.476171187961878 7.678563997707646 4.278934569153986 0 -1 1
1110 2 17.21128897107301 12.353567590909558 17.372878259622983 0 0 0
1876 1 12.575934067695037 11.120868241866788 20.480717893764453 0 0 0
2563 1 12.830858125588616 10.777270984404616 1.3112065287325738 0 1 0
5181 2 8.984867933320015 13.352454781819546 15.896874537221782 1 0 0
216 2 13.729938902495391 25.01949584244857 14.813520365090957 0 0 0
819 2 10.419044878541804 9.353098775662303 10.421138781991852 0 1 -1
58 1 12.5171434652014 29.40215547878769 15.569070636728526 0 0 -1
2004 2 23.069300035830626 11.92056211431657 24.606777981884704 0 0 0
2512 1 7.043572170799208 6.1521600439792214 13.696831334955968 0 1 0
214 1 13.363474463123943 24.61985960680184 15.665655540832812 0 0 0
2508 2 6.237341803352398 16.379556433262735 2.0862431119941003 0 0 1
2819 2 32.7239834735524 32.58329166136597 26.518421365032825 0 0 0
1668 2 8.398524304965825 11.143595356214242 0.026406303409828767 0 0 1
1102 1 14.489642021066821 16.614284470340692 23.255367994391836 0 1 -1
189 2 15.35920697285206 21.245482226717503 11.120744967917734 0 0 0
844 1 18.21970575638508 20.59478182468713 21.634140869425043 0 0 -1
187 1 14.438163995904858 21.49260160309648 10.83904202541091 0 0 0
1611 2 22.470218427000496 30.24079231052506 25.7197487509814 0 -1 -1
314 2 11.899803163910992 19.479069988303756 15.67122866734508 0 0 -1
2602 1 18.054039819204302 20.37432832492948 18.815788541695696 0 1 0
4268 2 12.644493563823964 26.503896900933228 8.685230185515339 1 0 0
1560 2 11.494202946167054 26.620222814010987 1.2659524644131852 0 0 1
2408 2 9.575501998529095 20.01807404278676 7.763806762007703 0 0 0
271 1 15.043281997125167 10.15932389244824 17.67159251034295 0 0 0
1062 2 10.0125260159125 12.684070546702328 22.50661197705691 0 1 -1
784 1 6.965061043353667 7.95184767084023 11.889084517163258 0 1 0
385 1 9.339927587963377 10.828678922367223 1.5430131027627159 0 0 0
154 1 15.642758262548185 26.408885499370975 6.766591732228682 0 -1 0
29 2 13.47894387019575 25.919478051529296 16.959180118708147 0 0 0
1152 2 15.512155328857123 24.5906227665662 10.536588046894813 0 0 0
625 1 11.462018618532944 3.7678874817810692 1.0468137541432934 0 0 0
1878 2 11.729123887032184 10.819839475699222 20.811169318964897 0 0 0
1587 2 10.293217744320053 20.59848156205577 9.555375853820287 0 0 0
1615 1 14.163165527522025 19.0407636099759 13.564976280536875 0 -1 0
920 2 18.66357830374606 19.19779998835311 21.91015966796211 0 0 -1
284 2 16.55727197733894 5.261843607099868 16.33851467772677 0 1 -1
871 1 13.457154514431494 13.726459657389837 13.090898993538852 0 0 0
1089 2 12.827933561160407 25.817078088988495 2.6771765604449045 0 0 0
2567 2 29.16734515421162 30.737506239392857 19.152962138096637 0 0 0
117 2 23.399479423972544 21.65265764970153 26.883598435233477 0 0 -1
48 2 9.218658299638701 17.97663032217895 1.8779546559032505 0 0 0
2492 2 8.883447677152951 14.725414176122266 3.695094209023665 0 0 1
1085 2 22.697964987558304 21.171799347686562 23.130088256415974 0 0 -1
848 2 17.189532157890238 20.20392587719935 1.067824507174317 0 0 -1
273 2 15.30469463888059 9.344434068234019 18.15937574048928 0 0 0
1084 1 22.131825495919923 21.434406488966363 23.855580243237686 0 0 -1
1910 2 23.806197894504145 32.77061740717454 17.784029052976305 0 -1 0
1087 1 13.691498182149125 25.35175002686939 2.4003097748736595 0 0 0
193 1 17.58312968991496 35.02621827429614 26.673214612554457 0 -1 -1
196 1 5.806873695973301 6.872512302219581 9.617377023617756 0 0 0
777 2 15.050669265870628 29.285269219211706 7.432480704304875 0 0 0
308 2 15.581498701918381 8.411315007207204 19.79258162090509 0 1 -1
309 2 16.556871948876672 7.712742610102367 18.661660551892457 0 1 -1
3003 2 7.368180521961924 10.190934012102028 9.421731327878438 0 1 0
1809 2 17.24966864680976 20.21370280097024 7.069378007176511 0 0 0
880 1 15.535125223137992 23.402967273305723 21.039099668568028 0 0 0
584 2 17.68891345299751 15.0351794588606 2.0261020482832626 0 0 0
283 1 17.281975326606208 5.0331392221943725 16.899867328074478 0 1 -1
386 2 10.062891520814713 11.507650319088906 1.4734994884573593 0 0 0
355 1 19.510497730852137 29.008021273558388 23.96576712800398 0 0 -1
726 2 13.371573687284368 14.280227148125842 27.148872539147046 0 0 0
1545 2 11.383652708379131 12.397746208869343 11.983404778783315 0 0 0
821 2 12.021544565856491 17.940945291051854 2.6423564966001103 0 0 0
387 2 9.846855184926753 9.983504344781945 1.5322111539893917 0 0 0
2330 2 8.386568686584646 22.845136772134932 1.1683165785675849 0 0 0
1559 2 10.594121175205544 26.43512914159768 2.4176569671323516 0 0 1
1596 2 11.160203735418587 18.661930588173334 21.472343523611023 0 0 0
1558 1 11.452225911766082 26.826612005461463 2.2623728667620786 0 0 1
1763 2 8.240767002862313 10.483310632137819 11.747508925184576 0 0 0
2339 2 14.88948783504648 6.028130656553541 3.101083706994034 0 1 0
1827 2 3.668403254137738 8.204434338913462 11.129258839136474 0 0 0
285 2 27.093783083283757 32.62670679381494 17.73258001933764 0 0 -1
2549 2 16.73964953993524 15.667353952960747 26.318397907736244 0 1 0
329 2 22.532518674342775 17.009190437725536 23.40083855012791 0 0 -1
1802 2 14.705233986326746 23.721823397588263 19.506831457400377 0 -1 0
901 1 12.354799247764895 19.100548926576387 11.654702497597038 0 0 -1
902 2 12.557255611502562 19.62634474094557 10.802189030404733 0 0 -1
320 2 22.79122885743053 19.071610055912075 15.970635374620024 0 0 -1
2493 2 8.786533226850754 16.14238450035295 4.540352917775448 0 0 1
1661 2 5.776666889197467 14.121835546274882 5.004339567610048 0 -1 1
2645 2 19.137919589502207 12.261487236739942 20.147772132437826 0 0 0
1600 1 20.738151671485078 11.844871696055373 19.689918977596797 0 0 0
123 2 21.00331889118477 18.95784662421862 24.519091451543726 0 0 -1
367 1 16.084854218596863 21.118659329905164 14.420535534210055 0 0 -1
1583 2 10.395612190506505 6.507284808891463 14.467433405825608 0 0 1
317 2 21.154682881657973 24.901834344615875 21.5686780832081 0 -1 -1
2571 2 9.730887645901575 3.146019911137022 10.607951733848521 0 1 0
3001 1 7.175293864565609 10.370300507619753 8.54223693030152 0 1 0
115 1 24.061483382463845 20.943517044156216 27.142978317479066 0 0 -1
116 2 23.96813291762433 20.21140367006787 26.48845354140007 0 0 -1
817 1 11.326367752013741 9.220052294537817 10.07871133136109 0 1 -1
724 1 13.499049578021662 13.333299804248837 27.09775776595025 0 0 0
2415 2 15.169650174736386 9.628940457527099 16.069991871090195 0 0 1
1911 2 22.69827245785761 31.735965306032252 18.254588729979172 0 -1 0
222 2 12.514334541243624 16.467375629566128 25.638924527256666 0 0 -1
1066 1 21.242388644414675 28.802245000565943 21.967005063776387 0 1 -1
4265 2 11.686247634349112 24.850608312627383 16.22658773510556 1 0 0
1086 2 21.97812198654353 20.668148645184907 24.47055214171643 0 0 -1
627 2 10.999689121319918 2.95467457121048 0.6613508246277334 0 0 0
2667 2 9.051843128534085 20.828255166553102 12.965209223797098 0 0 0
2389 1 10.018447875725855 24.10543836056886 9.43439244787565 0 0 0
366 2 18.30876952023686 25.180038873885284 2.8468920217188898 0 -1 0
2565 2 13.633919123274342 10.763509150996663 1.8537631533026948 0 1 0
2550 2 16.861861816715365 14.099160395125702 26.448985149945063 0 1 0
680 2 10.178419564959302 4.440993719169673 5.568787736370406 0 0 0
1673 2 17.44702507005991 23.84208081644214 10.554627379378871 0 -1 0
1803 2 14.258333903334595 24.669631141446732 18.342806897533666 0 -1 0
2338 1 14.395253338723627 6.857020125546546 3.456281742533511 0 1 0
1466 2 29.431091559913543 30.76614192909316 27.129173489923414 0 0 -1
2282 2 10.370784069900303 24.609262353085573 10.912205103386258 0 -1 0
2569 1 10.521229781601761 2.7609143669024077 10.244742850378264 0 1 0
1235 2 11.974844761087358 7.633972235412024 15.261660749651188 0 1 0
788 2 17.098996820157154 30.596602091848737 9.939562090750384 0 0 0
155 2 15.592879234670455 27.124534465424773 7.401350069597178 0 -1 0
758 2 25.04851254139906 28.830245991261457 5.396042439714895 0 -1 0
1592 2 4.271926580375299 11.930675710880523 9.165279467533656 0 0 0
1234 1 12.678088591428516 8.182318028684392 15.633958423933386 0 1 0
872 2 13.871422494279944 13.994522301620448 13.967568367602603 0 0 0
1572 2 10.079443719889255 11.105735744719958 15.623280348686018 0 0 1
357 2 19.097835871097864 29.862561430944353 24.237254844640884 0 0 -1
1602 2 21.08294491280331 11.564519067611652 18.790566761053917 0 0 0
1662 2 4.51566149130787 14.224308314660156 5.804356375640386 0 -1 1
1236 2 13.020427260646247 7.7262438180952335 16.43910540692228 0 1 0
59 2 12.979551773619292 28.629295912752532 15.886434087455202 0 0 -1
272 2 15.799500179549327 10.806164691106742 17.785672627898602 0 0 0
1582 1 10.704269033683339 6.066642740170458 15.28168548117878 0 0 1
2574 2 18.93977403308762 19.6913427246533 15.34970598712751 0 0 0
2678 2 14.315060708101285 29.00759986487484 23.521718967062323 0 1 0
1595 2 11.02642557932769 17.1511594369757 21.175434839059022 0 0 0
1886 2 18.061144862247563 27.945270876450973 7.948862457844656 0 -1 0
1907 2 2.71059624663316 11.236361949813164 2.1364383146008166 0 0 1
238 1 28.484685120754357 23.39663052530038 23.774920941940106 0 0 -1
1890 2 15.302683860095353 16.9334420926134 3.769136258873433 0 0 0
1840 1 6.829083537680382 8.274867525479571 2.3218152169657893 0 0 1