LAMMPS data file via write_data, version 3 Mar 2020, timestep = 0

2016 atoms
2 atom types

0.0000000000000000e+00 1.7927106534827949e+01 xlo xhi
-1.0644244220356356e+00 4.6060584398953509e+01 ylo yhi
0.0000000000000000e+00 1.9065812881189867e+01 zlo zhi
4.4798601266299969e-02 -6.6505232621043042e+00 -2.2065206467054566e-02 xy xz yz

Masses

1 16
2 2

Atoms # atomic

579 2 2.0201603700426043e+00 4.4840925777684770e+00 1.7685776656131811e+01 0 0 0
223 1 5.4609280598309455e+00 7.7866758394895825e+00 1.6675485437042734e+00 -2 0 -1
995 2 9.5480710189767297e+00 3.3197964697605187e+00 1.0564283490605197e+01 3 0 1
654 2 1.7092894125835915e+01 7.4264599606220560e+00 9.9782524476442758e-01 -2 0 0
394 1 1.3448642211582369e+01 5.2311272537715139e+00 4.6315290728559058e+00 -3 0 -3
578 2 1.3517717119705193e+00 4.0545468891118839e+00 1.6272650384311284e+01 0 0 0
929 2 1.3999571410847187e+01 6.8533052493805782e+00 4.6680503467309800e+00 0 0 0
494 2 -7.3520890125752425e-01 9.7248294004621858e+00 4.7920518010083315e+00 -3 0 -2
705 2 -2.4078983985770517e+00 4.4079369065742711e+00 1.5070625209844351e+01 -2 0 -1
302 2 3.1586147663503423e+00 8.3574969295278123e+00 1.7495047285838613e+01 0 0 -1
299 2 -3.8272769132534723e+00 6.1801715742108660e+00 1.5616641798369949e+01 -2 0 -2
896 2 3.8672866112560600e+00 7.2197884531347913e+00 1.2140365137832330e+01 -1 0 -1
150 2 8.9028512118251477e+00 8.0020588637861536e+00 1.4332419200286926e+01 -4 0 -1
406 1 3.1613655093629580e+00 1.4116666960714088e+00 1.2650838536369674e+01 -2 0 -2
232 1 1.0140432795245538e+01 9.0440344220801627e+00 4.2214821854230529e+00 -2 0 0
596 2 1.5291892877590620e+00 5.0497078767239554e+00 6.5945829455755121e+00 3 0 -2
368 2 7.6539627674058721e+00 4.0349517123264835e+00 1.5557986151922517e+01 -2 0 -1
313 1 3.3769477708057360e-01 6.6815502524061969e+00 1.0537015347134057e+01 -3 0 -3
881 2 1.1136881069167591e+01 2.3756001000881959e+00 8.0571069005356577e+00 -3 0 2
319 1 1.0221386250208912e+01 9.4265176205681023e-01 1.4611016125188952e+01 -4 0 -3
53 2 7.0871022349567703e+00 6.4866040054836001e+00 3.9219918917660586e+00 2 0 0
634 1 2.7161120535469307e+00 8.1013092892901231e+00 6.4394216501528554e+00 1 0 -2
609 2 2.5791041258843230e+00 9.6904350104241166e-01 1.5378796767404161e+00 -3 0 0
1583 2 -3.8313094263295349e+00 8.8203906279761934e-01 1.4785376029898391e+01 0 1 1
122 2 1.1614290801699298e+01 5.6885512191055154e+00 1.0116032926505442e+01 -2 0 -1
547 1 4.2993860407322773e+00 9.4017580897614099e+00 1.4254803865819984e+01 -3 0 -4
407 2 2.7965174220174438e+00 1.1038290734448051e+00 1.3493723997145189e+01 -2 0 -2
707 2 2.7898293969907337e+00 5.4448909273721942e+00 1.5658867531476053e+01 -1 0 -1
972 2 4.0578303061490750e+00 7.9932835043113108e+00 4.0363590406447987e+00 0 0 1
448 1 5.3410150696167555e+00 8.5640250564965221e+00 9.2455787103515412e+00 -1 0 1
244 1 6.7577285109110505e+00 6.1989413919963097e+00 1.3416563666271461e+01 -4 0 -4
762 2 9.1899222355578232e+00 8.7822287176221914e-01 6.5354160073802381e-01 -3 0 2
687 2 3.4133148941523102e+00 3.6362705046629467e+00 7.6838788712073747e+00 -3 0 0
21 2 7.4502130209357951e+00 9.5811419797667021e+00 1.3519762790844169e-02 -3 0 -3
977 2 4.9993306826464607e+00 6.2907723546376926e-01 1.7694169848201948e+01 -3 0 -1
301 1 2.8262962839064567e+00 8.9880999178916454e+00 1.6796014809090387e+01 0 0 -1
149 2 7.7574939406556140e+00 8.8106419874210733e+00 1.4895102919063850e+01 -4 0 -1
270 2 -2.8875382919898129e-01 9.7327746020546257e+00 1.1932018177906281e+01 2 0 -1
463 1 8.7629365460857067e-01 8.5914835133042136e+00 4.5465662834843226e+00 2 0 0
449 2 4.4992685700053592e+00 8.0749195998003778e+00 9.4528852919737698e+00 -1 0 1
524 2 4.2520258522285799e+00 4.9843343476084128e+00 1.3777753952305051e+01 -2 0 -4
585 2 -3.8765651474259721e-01 5.5061611752092956e+00 1.1590026715149294e+01 -4 0 -4
523 1 4.8861552427773711e+00 4.4867458966859877e+00 1.3271145609100305e+01 -2 0 -4
658 1 5.2733130984938974e+00 6.5837654142339730e+00 1.6916259930026605e+01 -1 0 -2
206 2 5.1273266677359599e+00 2.7619233138387607e+00 1.1048474902039080e+01 3 0 0
96 2 -1.2586418831650139e+00 2.9824930294335381e+00 5.8240175682114428e+00 -1 0 -1
441 2 -1.5556553838995946e-01 5.3514592178519180e+00 1.5030670061011087e+01 -2 0 -1
151 1 5.3544207627440912e+00 1.5762808901497980e+00 2.3632144811633999e+00 3 0 0
781 1 3.2199964418807618e+00 4.4920920526037147e+00 1.2955198862919726e+00 -2 0 -2
880 1 1.1342705537684878e+01 1.8617992439293887e+00 8.8663127666050379e+00 -3 0 2
626 2 4.8413441011183034e+00 2.9300918102190092e+00 1.7624036835261197e+01 0 0 -1
714 2 2.8349270665157706e+00 1.7952812678349539e-01 9.6297483242686432e+00 0 0 3
703 1 -2.4194170690032357e+00 4.3745006639360167e+00 1.4111448633630587e+01 -2 0 -1
382 1 1.2349805484284957e+01 3.2503474631617681e+00 2.4135440529802730e+00 -2 0 1
250 1 1.8656651211873387e+00 9.8045019566943541e+00 8.1824229541559408e+00 -3 0 2
162 2 1.3811147188960106e+01 8.3037443357172922e+00 9.1993320343123219e+00 0 0 -5
54 2 6.4907131709499453e+00 5.2426043190557960e+00 3.0923645760619638e+00 2 0 0
160 1 1.3924586589218645e+01 8.7256635531110351e+00 1.0129011762719475e+01 0 0 -5
689 2 2.7787835252040685e+00 1.6293302715179716e+00 4.1053929261010333e+00 -2 0 0
549 2 3.4072466443030658e+00 9.4164634256250483e+00 1.4602073924508341e+01 -3 0 -4
392 2 -8.3678941994691369e-01 9.1367606855815602e+00 8.8262141982171460e+00 -1 0 -1
652 1 -1.7395626107126053e-01 6.8632097288500411e+00 6.4113065654720403e-01 -1 0 0
52 1 6.5708165401090426e+00 5.6797196523483668e+00 3.9716298663500655e+00 2 0 0
356 2 -9.5339736469768255e-01 4.5630184330050625e+00 1.7778743449437581e+01 -4 0 -3
477 2 7.6436608101916779e+00 4.7412391399360736e+00 1.0292177646962880e+01 -1 0 2
500 2 -2.5672205544178768e+00 2.1054563664367625e+00 1.2347003848124379e+01 1 0 0
367 1 7.7089394513513669e+00 4.9641504209588403e+00 1.5810737335697308e+01 -2 0 -1
540 2 1.1424963049567105e+00 1.6934402242512325e-01 3.3750297798058759e+00 -4 0 -3
186 2 6.7264962452754480e+00 8.1014724826682372e-03 1.0753585498550933e-01 -4 0 -5
810 2 1.2223276572727222e+01 4.1514380592814213e+00 7.5003559718444812e+00 -4 0 -1
930 2 1.5400313604811014e+01 7.6206452288944657e+00 4.9641259076315745e+00 0 0 0
702 2 4.9539668570281563e+00 2.2187110632809022e+00 1.5657151031208523e+01 -3 0 -3
501 2 -3.2071389176924172e+00 1.6226454384973388e+00 1.1071636832496296e+01 1 0 0
625 1 4.1490789028483634e+00 2.2008396661551117e+00 1.7485027021993236e+01 0 0 -1
776 2 5.6840909716431680e+00 4.9958878657502508e+00 1.7600076858512974e+01 -2 0 1
101 2 1.8324919286255046e+00 6.8868838253633715e+00 1.3072164184905112e+01 -1 0 -1
384 2 1.2065362260612563e+01 2.7167626668752130e+00 1.6383272647089469e+00 -2 0 1
245 2 7.4172086158379127e+00 5.9844331783844735e+00 1.2722872989171744e+01 -4 0 -4
622 1 -4.2545050849531982e+00 3.2201416935747531e+00 1.7643926713592315e+01 -2 0 -2
624 2 -4.2256921585661003e+00 3.1393535597828146e+00 1.8594213784238264e+01 -2 0 -2
179 2 4.9606865386001253e-01 7.5658072075567731e+00 1.4608563863344221e+01 -3 0 -1
230 2 2.5957058353052704e+00 1.4081518290893520e+00 7.7496615803012210e+00 0 0 -2
619 1 -6.0106201959928809e+00 8.3721855861998478e+00 1.7819514824182164e+01 -3 0 -1
276 2 1.6118648467736332e+01 -6.1325555858782188e-03 5.6699904856408156e-01 2 0 0
268 1 -8.9972498555418845e-01 9.0304595300891695e+00 1.1927173487191748e+01 2 0 -2
712 1 2.5769067036026105e+00 6.8899488491145799e-02 1.0531902805769418e+01 0 0 3
49 1 7.8518776932367107e+00 2.4985202362982597e+00 1.2818847478541199e+01 -1 0 0
183 2 8.8847610012530875e+00 4.8412961559777727e+00 1.0955081162435134e+00 -1 0 0
464 2 1.0301288824302106e+00 9.3775118357274891e+00 3.9517228292907527e+00 2 0 0
393 2 6.2480539023671700e-01 9.0925155497906935e+00 8.4873201709486956e+00 -1 0 -1
296 2 8.8786449584060421e+00 8.0842045155580315e+00 1.7684488332960516e+01 1 0 2
671 2 9.9762079945522020e-01 7.5248609344931183e-01 1.0584317000392065e+01 -3 0 -1
135 2 4.4169806976650561e-01 4.6591562129447848e+00 9.5169697504244883e+00 1 0 -1
778 1 6.9258881469349394e+00 5.6812868899158069e+00 7.4514465219330663e+00 1 0 0
366 2 9.8869260759073683e+00 9.8194089286262596e+00 1.4939225933502945e+01 0 0 0
598 1 1.3388815594436387e-01 6.8101629807062247e-02 7.6776861133519771e+00 -3 0 1
120 2 4.1868469741023873e+00 4.7503101283701152e+00 5.4774924454093554e+00 -2 0 -2
175 1 5.2670139923325650e+00 -3.8373177324609709e-01 1.3618233794413854e+01 -5 0 1
640 1 2.0103699875319130e+00 3.7574085129764887e+00 1.2322495506785740e+01 4 0 -1
753 2 -3.7149214049692842e+00 7.4590571819397997e+00 1.8933434047674556e+01 0 0 2
527 2 4.1985612707105346e+00 2.2676806704396424e-01 6.3835218658842896e+00 -2 0 0
119 2 5.2979285356727077e+00 4.8567021904595382e+00 6.6339780620246049e+00 -2 0 -2
525 2 5.7127339281059584e+00 4.9978900067144503e+00 1.3425050495174430e+01 -2 0 -4
434 2 5.6025021276463214e+00 9.0452146831117499e+00 1.5302892370473892e+01 -2 0 0
971 2 4.2218968361268283e+00 9.4597928478770488e+00 4.2933767972590609e+00 0 0 1
457 1 -5.7641308587919071e-01 -4.3349677871232561e-02 3.8896585711635558e+00 -2 0 -2
212 2 1.2660952311361640e+01 8.4307956296942592e+00 7.1825850889946450e+00 -5 0 -2
701 2 5.2894865775151718e+00 3.0690603955215323e+00 1.4488397157066014e+01 -3 0 -3
5 2 6.3217124593847691e+00 8.1627220054556933e+00 5.8055167163099677e+00 1 0 0
470 2 1.4941855026133430e+01 7.6563398875334632e-01 2.1031591414909210e+00 -7 0 -2
471 2 1.5576468444135280e+01 1.9072414220717069e+00 2.9290243824942119e+00 -6 0 -2
708 2 2.6044653175222860e+00 6.6981136266894383e+00 1.4705535738127400e+01 -1 0 -1
621 2 -5.2475895601129974e+00 8.6379062716478749e+00 1.7273000411621105e+01 -3 0 -1
46 1 1.0581563969468295e+01 6.0986900765980199e+00 4.0163007839529863e+00 -3 0 0
275 2 1.4878784032228941e+01 7.9733490740534263e-01 1.6285256717158186e-01 2 0 0
993 2 -2.5349155871200395e+00 7.3801243178014486e-01 9.2917718877221080e+00 2 0 1
627 2 3.3194553829118645e+00 2.6315937094032962e+00 1.7218793453050267e+01 0 0 -1
111 2 8.3786666080478867e-01 1.2861698131466555e+00 1.7717712143515801e+01 1 0 -4
869 2 1.3172419481443168e+01 6.1323068593212131e+00 8.0941282173665794e+00 1 0 0
16 1 9.3639549661491142e+00 4.1767615656798078e+00 2.3240625329678362e+00 0 0 2
178 1 1.2561496333780351e+00 7.9060340014877077e+00 1.4100690182225859e+01 -3 0 -1
974 2 1.1026726006519606e+01 1.4384950472548170e+00 1.6296466792410271e+01 -4 0 -2
118 1 4.5463398639816859e+00 4.2488770479027220e+00 6.2674755469444818e+00 -2 0 -2
922 1 3.0447903556525264e+00 9.8811451414810207e+00 1.0881571687601825e+01 -3 0 -3
623 2 -4.1914815470637725e+00 4.2046143148289516e+00 1.7458725687770936e+01 -2 0 -2
1668 2 5.7562924787946592e+00 7.4225491090460061e+00 1.6653469472455249e+01 -1 1 -2
644 2 1.2719216701547595e+01 5.7920888896137424e-01 1.2889846099414768e+01 -4 0 -3
721 1 -2.0592920704080697e+00 9.8374836725636197e+00 1.8591761742536523e+01 -5 0 -3
83 2 -1.0935591976325860e+00 7.0201503459765320e+00 7.7071314470552252e+00 0 0 -3
239 2 3.4787355888284335e+00 5.9304254653659578e+00 9.9790353322765597e+00 0 0 0
716 2 -2.3562293085920114e+00 3.1502574724526511e+00 1.7141915498165162e+01 1 0 1
717 2 -9.2446643775348658e-01 2.6975924191372029e+00 1.6720479491861607e+01 1 0 1
240 2 2.6988727957876555e+00 6.3894243867164944e+00 8.6739725378914248e+00 0 0 0
234 2 1.0025981575440705e+01 9.3578240507954149e+00 3.2665263761579815e+00 -2 0 0
17 2 9.8742187343097676e+00 4.7185546893778243e+00 2.9803083004049506e+00 0 0 2
779 2 6.6183577700439722e+00 5.8324944186076886e+00 8.3788947123509239e+00 1 0 0
760 1 8.5305603532032190e+00 2.4548471131712168e-01 3.3807849521881389e-01 -3 0 2
645 2 1.2044494322096988e+01 2.0985619782202458e-01 1.1605314901540563e+01 -4 0 -3
613 1 -1.3523094083987650e+00 1.7355059540461033e+00 1.4219293061269719e+01 -2 0 -1
827 2 1.1736846252655921e+00 1.0604812740057641e+01 1.1928055040558727e+00 1 0 1
238 1 3.2708333790492254e+00 6.7350837171326017e+00 9.3977014875400400e+00 0 0 0
522 2 9.4988745792331617e+00 1.1929834930156389e+00 1.0172422351268930e+01 -5 0 -2
715 1 -1.5322267433035668e+00 3.5037497472564771e+00 1.6777361876130254e+01 1 0 1
115 1 -2.1893117210782513e+00 2.1167308032002512e+00 8.3301101184815902e+00 -4 0 -5
426 2 1.5885441678231189e+01 6.0512173245781549e+00 3.3080717236233359e+00 -2 0 1
20 2 6.9472620095789228e+00 8.8502054419167244e+00 1.2638865739939693e+00 -3 0 -3
571 1 1.0593670688926849e+01 1.9360666024238729e+00 1.1012551408788362e+00 1 0 4
834 2 -2.3295064000986092e+00 9.6234970188763711e+00 1.2719977468953331e+01 -3 0 0
833 2 -3.7870357643783170e+00 9.4654163445143862e+00 1.3193080592629986e+01 -3 0 0
745 1 1.1324381386028840e+01 8.6467854114229983e+00 1.1268508651716875e+01 -3 0 0
868 1 1.2916542060870858e+01 5.2737973535270779e+00 8.5386091351985733e+00 1 0 0
829 1 -3.7222267752227953e+00 9.4459719712028622e+00 1.6382819972324530e+01 -3 0 -1
18 2 8.6520262679924169e+00 3.7606077815240271e+00 2.8759181784008359e+00 0 0 2
949 1 -3.3634055140006400e+00 6.4271883660095064e-02 1.7475199044280796e+01 -1 0 1
600 2 2.8230776172364358e-03 2.4271933110652566e-01 8.6064346798270055e+00 -3 0 1
785 2 3.7854874335175320e-01 1.6204707491226520e+00 1.3405846907818739e+00 -3 0 -2
870 2 1.3786933538672093e+01 4.9475330870431522e+00 8.8799424098733049e+00 1 0 0
211 1 1.3463176731537022e+01 7.9419893440183422e+00 7.4901656040289923e+00 -5 0 -2
387 2 6.4150655333244240e+00 3.2205929960969311e+00 1.5847342600723358e+00 0 0 -2
354 2 8.8497415188261250e+00 7.4015067631591904e+00 7.3695697730334784e+00 -1 0 0
643 1 1.1875462644622548e+01 7.2877799406821708e-01 1.2424082680678337e+01 -4 0 -3
685 1 3.0956996376640773e+00 3.0917732385469288e+00 8.4045116309873595e+00 -3 0 1
520 1 9.4207310565569209e+00 2.0831089293809280e-01 1.0332572803824190e+01 -5 0 -2
503 2 6.7383176820492281e+00 7.3250356872522926e-01 9.2922833750220057e+00 0 0 0
116 2 -1.3594992073935188e+00 2.2202726788841707e+00 7.7223687320606382e+00 -4 0 -5
224 2 4.9718818831835732e+00 8.3538596028206129e+00 2.2891293478991668e+00 -2 0 -1
845 2 7.0138151898467163e+00 -3.3189639009108618e-01 1.2814296575326994e+01 1 0 1
917 2 4.2787280209810579e+00 -7.8857032612831224e-01 4.6475317972121575e+00 1 0 3
117 2 1.5024900493790119e+01 2.4364302996660476e+00 7.7462890052202953e+00 -5 0 -5
931 1 -1.3839404604134020e+00 -2.6189930024833796e-01 1.2320749476518806e+01 -2 0 -1
429 2 9.9575842612797683e+00 6.3831596172905032e+00 1.3770153535995881e+01 -1 0 -1
385 1 6.0372656962177595e+00 4.1295145959266257e+00 1.6975537903893412e+00 0 0 -2
48 2 1.0156768555162458e+01 5.9526348617104521e+00 4.8375136914603853e+00 -3 0 0
961 1 2.0393716626844816e+00 3.5606245901838762e-01 1.4993121098423606e+01 -3 0 -1
42 2 4.9433352823499535e+00 5.9769350038804019e+00 4.1522859618982428e+00 -2 0 3
726 2 1.6269794038565895e+01 3.8752488369172431e+00 3.4584610386030818e+00 1 0 1
876 2 -3.4350482968843106e+00 7.7552421527834809e+00 1.1478223824262946e+01 -2 0 1
769 1 -2.4416551818424068e+00 4.5758143965829996e+00 9.3068939568719333e+00 1 0 -3
1002 2 1.0773643234469887e+01 9.8002779791974426e-01 2.6487297746159042e+00 -1 0 1
4 1 5.5980409219549738e+00 7.9809076649468249e+00 6.3930876950390081e+00 1 0 0
723 2 -1.2600501068963004e+00 9.4299111442165167e+00 1.8242915380730025e+01 -5 0 -3
41 2 3.3872575267922209e+00 5.6538701064572692e+00 3.6768928617468526e+00 -2 0 3
86 2 6.4018043347591402e-01 -5.2877271400478199e-01 5.4189575806695323e-01 2 0 -2
812 2 -5.0817865344459472e+00 2.8423715044846971e+00 1.5022896039047881e+01 -1 0 -1
932 2 -1.3249126527222086e+00 1.4419159922714719e-01 1.1449908636431980e+01 -2 0 -1
672 2 -4.0021259591074720e-02 1.8667288027520148e+00 1.0161352411388954e+01 -3 0 -1
213 2 1.3992512979030728e+01 7.9407254811354164e+00 6.7054003069927512e+00 -5 0 -2
976 1 5.3261110006619647e+00 -3.2862125992106928e-01 1.7799366756799166e+01 -3 0 -1
872 2 6.3215941678546930e+00 -8.7420231723903119e-01 6.3983237635553332e+00 -2 0 -1
338 2 1.1129166326841073e+00 4.5012724965102668e+00 4.5076667259555512e+00 -1 0 -1
938 2 3.0172236459654060e+00 6.5651417009500621e+00 1.9006778323586556e+01 1 0 0
969 2 5.3506207449792225e+00 4.8524782911503399e+00 1.0354578249925661e+01 -1 0 1
545 2 -2.7667578495792178e-01 3.1741265971125419e+00 1.4531862147525638e+01 2 0 1
386 2 6.1992083290932358e+00 4.6528880659649419e+00 8.4842778075294545e-01 0 0 -2
937 1 3.6369554644823303e+00 7.3163635863557648e+00 1.8791944641844939e+01 1 0 1
40 1 3.9129176692828236e+00 6.0425380470365804e+00 4.4104286111092579e+00 -2 0 3
786 2 1.3882505711231250e+00 2.6391645959571455e+00 1.7502463496185594e+00 -3 0 -2
731 2 -2.7759904520769463e+00 7.1275686484663243e+00 1.3847638728922698e+01 1 0 0
724 1 -1.1974462858402801e+00 3.0999960072290715e+00 3.7923168898822368e+00 2 0 1
784 1 4.4102771513560268e-01 2.5958286091872953e+00 1.6297728481462708e+00 -3 0 -2
967 1 4.4716117017549983e+00 4.4320313038728658e+00 1.0524728868069133e+01 -1 0 1
553 1 8.6348534112571791e+00 6.5592207219681464e+00 1.7704408868178309e+01 -5 0 -2
681 2 8.0511309732891796e+00 2.2930895451237308e+00 1.7495695497777142e+01 -3 0 -3
649 1 1.0817121533608638e+01 2.8641239796880029e+00 4.7558783146775037e+00 -4 0 0
650 2 1.1366785940177921e+01 3.2345782255192370e+00 4.0876539804097574e+00 -4 0 0
51 2 6.9468161075548593e+00 2.2129172893882383e+00 1.2517057469276233e+01 -1 0 0
221 2 -2.8569674192929995e-02 9.7467399443817566e+00 1.6554062991318812e+01 -2 0 -3
945 2 8.2477996829070648e+00 1.4173208588048261e+00 3.7593515513039151e+00 0 0 3
673 1 2.1143802973949839e+00 8.3379972268531741e+00 1.0373919999394543e+00 0 0 -3
939 2 4.3384453253944573e+00 6.9210583621239481e+00 1.8099364977280505e+01 1 0 0
397 1 1.2316345506503900e+01 7.9284083667521603e+00 1.6459775940060468e+00 2 0 0
127 1 1.3638508765445534e+01 5.7425060245386197e+00 8.3960781351847735e-01 -2 0 -1
128 2 1.3006929701283777e+01 5.0711872406623861e+00 6.9317782177391662e-01 -2 0 -1
1407 2 1.1476882103913978e+01 8.0978819699609481e+00 1.2666653067175222e+00 2 0 0
334 1 7.2482581181503019e+00 1.0461009234616512e+01 6.9857935617416178e+00 -2 0 -1
928 1 1.4397229575673922e+01 7.7489898799747898e+00 4.9708996921334059e+00 0 0 0
777 2 6.6428904130357918e+00 3.8153512084103394e+00 1.8012610323602040e+01 -2 0 1
152 2 6.1569681713711883e+00 1.6148404057620604e+00 2.9127981747772740e+00 3 0 0
439 1 -3.4828519944717673e-01 6.2502948816412527e+00 1.5430896483240389e+01 -2 0 -2
350 2 1.7339200108953857e+01 3.4641337573065689e+00 4.3971619589236355e-01 2 0 4
572 2 1.0194051516942118e+01 2.5961286368612950e+00 1.6650591728725022e+00 1 0 4
807 2 1.1265702034970474e+01 1.0106776455679880e+01 8.0948357641833013e+00 -4 0 1
783 2 4.1869288180063711e+00 4.2149161261825672e+00 1.3703176814932096e+00 -2 0 -2
148 1 8.5788277584965336e+00 8.8975815359528294e+00 1.4358595381255418e+01 -4 0 -1
994 1 8.5722439892314508e+00 3.1311909298434868e+00 1.0384215094725993e+01 3 0 1
725 2 -5.2409827358088124e-01 2.9989208441037496e+00 3.0154889809600682e+00 2 0 1
954 2 1.6088546710000266e+01 8.7937854790338257e+00 3.1081591955846792e+00 -1 0 1
129 2 1.3117983726311831e+01 6.4740595753407586e+00 1.0368224115159865e+00 -2 0 -1
291 2 6.8167359350648509e+00 8.8804147883280198e+00 3.7637230853051515e+00 0 0 3
173 2 1.1310868701677135e+01 4.4650719755891162e+00 1.5984195809115180e+01 -1 0 -2
950 2 -2.4469547113420509e+00 -2.0290042611335080e-01 1.7420720183945821e+01 -1 0 1
428 2 1.0526511377200436e+01 6.3701719442889022e+00 1.5252833057172950e+01 -1 0 -1
364 1 1.0801559503190767e+01 1.0145071967690212e+01 1.5207863123232581e+01 0 0 0
462 2 1.2025156510479963e+01 3.9211264978047113e+00 1.1584464993536876e+01 -4 0 -2
651 2 1.0716399892122631e+01 1.9056739486508358e+00 4.4880720185438241e+00 -5 0 0
996 2 8.3059064150652642e+00 2.9029685554511464e+00 1.1377507705350013e+01 3 0 1
611 2 -4.0646772180685753e+00 3.8548877869668177e+00 1.2086707840433542e+01 0 0 2
1584 2 8.2381847417096541e+00 9.6387168017968179e+00 1.2892122467234936e+01 0 0 0
857 2 1.3293565166375791e+01 9.2178648988256437e+00 4.5108784858289193e+00 -2 0 -3
919 1 1.2403495166109042e+01 -2.4003099853584597e-01 9.8754450871001893e+00 0 0 -2
102 2 2.3145485640150509e+00 5.4776178718868493e+00 1.2432131073585085e+01 -1 0 -1
497 2 1.0184241004308348e+01 5.1138033366812525e+00 7.6384058776442574e+00 0 0 1
498 2 8.6323113226080874e+00 5.5837594302290459e+00 7.7382276120720039e+00 0 0 1
395 2 1.2506154310913832e+01 5.4000032761961219e+00 4.4600309156796376e+00 -3 0 -3
272 2 1.5527407011051805e+01 -8.6423884988302513e-01 6.4026225618052344e+00 -1 0 -2
349 1 9.9975954620847176e+00 3.9125251067499276e+00 1.8982761677727527e+01 2 0 3
679 1 7.8531503181935021e+00 2.4850267732285793e+00 1.8430939840661800e+01 -3 0 -3
398 2 1.2839272872717098e+01 8.6824090679504025e+00 1.3351553715422106e+00 2 0 0
573 2 1.0702755326909140e+01 2.1979706918478241e+00 1.7930630388862984e-01 2 0 4
830 2 -3.1763794448590685e+00 8.8086747968703314e+00 1.5840818022661242e+01 -3 0 -1
321 2 1.0933681886814657e+01 1.3098349295308584e+00 1.4011860760136793e+01 -4 0 -3
943 1 7.7251833312310092e+00 2.2436856554547089e+00 3.6230460673242075e+00 0 0 3
314 2 1.3003164688389126e+00 6.6375756530468655e+00 1.0605067015237658e+01 -3 0 -3
315 2 2.1960828947274003e-01 7.2997306204564545e+00 9.7699906688835281e+00 -4 0 -3
220 1 2.0533498318878429e-01 8.9727309666901753e+00 1.7119030577072170e+01 -2 0 -3
172 1 1.1030330081912687e+01 5.2656925505679784e+00 1.6512533439626139e+01 -1 0 -2
298 1 -4.0953709029097753e+00 5.6881613635996322e+00 1.6349542324622210e+01 -2 0 -2
680 2 8.6507828832773246e+00 2.8487785227607394e+00 1.8781719301111458e+01 -3 0 -3
290 2 8.2822354136018781e+00 8.6168707962142310e+00 4.4201675304851333e+00 0 0 3
890 2 1.0779290448520214e+01 -4.6610898221301611e-01 7.1826724070547678e+00 -1 0 0
944 2 7.0976047322156557e+00 2.4434421693671697e+00 4.3803857727933453e+00 0 0 3
100 1 2.3718550919734769e+00 6.4474819931624765e+00 1.2335185148298141e+01 -1 0 -1
1667 2 4.5326681083696929e+00 6.5480825794402078e+00 1.6234560945289555e+01 -1 1 -2
352 1 8.6464842442578558e+00 8.3223679415261103e+00 7.4450547307947987e+00 -1 0 0
174 2 1.0630586106368275e+01 5.0114410406592915e+00 1.7393680385801069e+01 -1 0 -2
921 2 1.1941018797911093e+01 -9.2378696112356917e-01 9.4050803879129656e+00 0 0 -2
465 2 1.5381845539362780e+00 8.5584258141482916e+00 5.2629574402810837e+00 2 0 0
84 2 -1.8122465225197779e+00 5.6936769023464819e+00 8.0685683564398154e+00 0 0 -3
460 1 1.1306850168423797e+01 3.2515981605937174e+00 1.1253869391644912e+01 -4 0 -2
607 1 2.8998731834743507e+00 1.5055763573018868e+00 8.0064822878194741e-01 -3 0 0
991 1 -2.7628171767116791e+00 2.2530153383080154e-01 1.0064561151519957e+01 2 0 1
538 1 1.9910471396612452e+00 3.4639922864188599e-01 3.0095393425765065e+00 -4 0 -3
1994 2 3.7626295188167989e+00 1.0578343092188691e+01 8.0938755754077385e-01 -2 0 -2
595 1 1.5006766309933366e+00 5.7340681690719535e+00 7.3624783502532720e+00 3 0 -2
528 2 5.4051036934547660e+00 9.4529455232192561e-01 5.6572398411314113e+00 -2 0 -1
109 1 3.6065128978729266e-01 1.5242899947453403e+00 1.6892200821011688e+01 1 0 -4
615 2 -1.3915529278173642e+00 1.0535264403889064e+00 1.3577388096162444e+01 -2 0 -1
806 2 1.1653945394925856e+01 1.0226515165942173e+01 6.6017612010765339e+00 -4 0 1
461 2 1.1633366584479546e+01 2.3962312255297635e+00 1.1700046186686039e+01 -4 0 -2
599 2 2.1712586698786840e-02 8.9540688916067546e-01 7.0926523294172519e+00 -3 0 1
408 2 2.8263297336807298e+00 7.8638996776789383e-01 1.1982238650509244e+01 -2 0 -2
992 2 1.4237348827725853e+01 -1.5114875147006979e-01 9.8585560776790473e+00 1 0 1
182 2 7.8230677353889542e+00 5.6230668570392641e+00 1.3960110193432793e-01 -1 0 0
35 2 1.4356787152835125e+01 5.0629985075160766e-01 4.5021415520144252e+00 -2 0 0
274 1 1.5168338600804692e+01 7.5863851449547992e-02 7.6028302203177567e-01 2 0 0
559 1 8.8575647648164786e+00 -3.3444188414147913e-01 7.5477530967206894e+00 -2 0 1
475 1 7.0842161325386410e+00 5.5132419939469761e+00 1.0076325111641387e+01 -1 0 2
68 2 9.5960193879794868e+00 4.5918364749025793e+00 1.2720110868755892e+01 -4 0 -3
526 1 5.0190874902554086e+00 4.2618520192862608e-02 5.9157655703073120e+00 -2 0 0
133 1 7.3942096840503524e-01 3.7524939829356718e+00 9.6771806887991705e+00 1 0 -1
610 1 1.3256965391284005e+01 4.6110106778843951e+00 1.2282535910041883e+01 -1 0 2
675 2 1.3479140379398205e+00 7.7066812063962100e+00 1.1149082461450750e+00 0 0 -3
82 1 -1.2753063675127281e+00 6.1374781499752826e+00 7.4061774308102191e+00 0 0 -2
300 2 -5.0861095020070026e+00 5.5769030975086968e+00 1.6142057965776406e+01 -2 0 -2
233 2 1.1075958940636891e+01 9.3657926192940355e+00 4.3857147690899332e+00 -2 0 0
782 2 3.1746857627089731e+00 5.2451007807202616e+00 6.9912782014418307e-01 -2 0 -2
690 2 4.1258723390726670e+00 2.2941885189470699e+00 3.9633894817262698e+00 -2 0 0
561 2 8.7257598412894346e+00 5.9036901079391968e-01 7.2569360611989842e+00 -2 0 1
728 2 7.9444514300793774e+00 8.6928783426259795e+00 1.0926409753675413e+01 0 0 1
113 2 8.8311373749676427e+00 1.9621294425248168e+00 1.4962931832516198e+01 -2 0 -1
184 1 5.7743343232720932e+00 -5.0995298642858788e-02 2.3166874870643833e-01 -4 0 -6
620 2 1.1059440812030601e+01 8.6684825370430616e+00 1.7423383251723088e+01 -4 0 -1
222 2 1.1979746727539675e+00 8.8788689940792391e+00 1.6902511419022961e+01 -2 0 -3
805 1 1.1481894281845483e+01 9.5945015355095684e+00 7.3076145649682731e+00 -4 0 1
67 1 9.3778230523965806e+00 5.5021694258140545e+00 1.2444435651019443e+01 -4 0 -3
727 1 7.8562403406880001e+00 8.0528878501646446e+00 1.0182462701378038e+01 0 0 1
114 2 7.3328898846163497e+00 2.2268842896250503e+00 1.5206509242401028e+01 -2 0 -1
425 2 1.4826138966133527e+01 5.5464704694303446e+00 2.1863112327589169e+00 -2 0 1
544 1 4.8941610345714270e-01 3.7894531879936952e+00 1.4521885230795604e+01 2 0 1
875 2 -2.3258314340318789e+00 6.6725818912846639e+00 1.1691544582936817e+01 -2 0 1
433 1 6.2782378718376552e+00 8.8232691508846912e+00 1.5971440582546514e+01 -2 0 0
496 1 9.5345484174451141e+00 5.7406034579539797e+00 8.0411433771720056e+00 0 0 1
253 1 1.2564482571393057e+01 8.7984044364026417e+00 1.3619243709794826e+01 -3 0 -3
337 1 1.3379514633590199e+00 4.0232894287941088e+00 5.3380172681033464e+00 -1 0 -1
844 1 7.9388621607797072e+00 -1.5480899126067460e-01 1.2559156698621416e+01 1 0 1
530 2 7.8596124548950064e+00 -8.2178259218627636e-01 3.7459772482754370e+00 -1 0 0
978 2 6.2310598908671349e+00 -3.5984419522429179e-01 1.7501827570034067e+01 -3 0 -1
583 1 -1.1815259521958006e+00 4.9272573475598662e+00 1.1753185191616787e+01 -4 0 -4
584 2 -1.2189236718548577e+00 4.5769068962965891e+00 1.2712685097606304e+01 -4 0 -4
641 2 2.4411167960696201e+00 2.9097143123253031e+00 1.2454364034531492e+01 4 0 -1
110 2 9.3237879224510678e-01 1.3490303427162802e+00 1.6087805295598919e+01 1 0 -4
548 2 4.4576040640423731e+00 1.0319801118631030e+01 1.3897692073574802e+01 -3 0 -4
47 2 1.0535865966661216e+01 7.0610361626073370e+00 3.9199770983832964e+00 -3 0 0
207 2 4.6467606190077486e+00 1.6305591199536376e+00 1.1859573818992370e+01 3 0 0
808 1 1.1399970283200998e+01 3.8238370939032613e+00 7.0374369318115670e+00 -4 0 -1
34 1 1.4272115123041598e+01 4.3307336883873648e-01 5.4670823410711247e+00 -2 0 0
577 1 2.1970970438627191e+00 4.3174626033823049e+00 1.6700916898261994e+01 0 0 0
905 2 9.2253167660853119e+00 9.5651238952846800e+00 1.1302044780273670e+00 -3 0 2
1000 1 1.0801485944685645e+01 4.5732003274403477e-01 3.5106955503435460e+00 -1 0 1
294 2 -4.4867312782309554e-01 7.5707123965480729e+00 4.1990051638657038e+00 1 0 -3
732 2 -1.8716959252149845e+00 6.9549990066218008e+00 1.5081228531101008e+01 1 0 0
513 2 7.8536926631496193e+00 2.3575140801998384e-01 1.6462602699878193e+01 1 0 0
512 2 8.6177179537716153e+00 -9.0056240234280027e-01 1.7143273257978386e+01 1 0 0
813 2 1.2139649334189286e+01 3.8683494439490884e+00 1.4048019859870408e+01 -2 0 -1
912 2 1.4242061528556782e+01 2.3975005160132752e+00 5.7982825874250814e+00 -2 0 1
85 1 4.7415324715524315e-02 2.3974915230846716e-01 4.0891143187712087e-01 2 0 -2
295 1 9.1961880738991262e+00 9.0461896699502340e+00 1.7574990786542003e+01 1 0 2
771 2 -1.9926039265966851e+00 4.8031279128097246e+00 1.0203502879151239e+01 1 0 -3
269 2 -3.9806943602750211e-01 8.3432986467338708e+00 1.1448121174347973e+01 2 0 -1
809 2 1.1376294524685173e+01 3.4398835862167623e+00 6.1364589283755313e+00 -4 0 -1
866 2 7.8487678836506944e+00 4.7271553353185913e+00 5.1426888023079007e+00 -3 0 0
94 1 -5.3671538845562616e-01 2.6087599833342701e+00 6.4076296816799996e+00 -1 0 -1
225 2 4.9700321377036900e+00 7.8652803174074180e+00 8.4744491375351871e-01 -2 0 -1
770 2 -2.1586547515702783e+00 3.6244109054721916e+00 9.2132942799461777e+00 1 0 -3
123 2 1.0327745930238438e+01 6.1287952993990755e+00 9.4530337428164213e+00 -2 0 -1
440 2 9.1663831097887893e-02 6.2459926051294756e+00 1.6277082937455724e+01 -2 0 -2
383 2 1.3207631419197956e+01 2.7767238854137752e+00 2.5954501878174763e+00 -2 0 1
6 2 5.9401807591903752e+00 8.1469105341098409e+00 7.2958265144435366e+00 1 0 0
499 1 -3.4250861857569985e+00 2.1943260084994125e+00 1.1889293404016618e+01 1 0 1
910 1 1.4615511520483867e+01 3.2753910141881288e+00 6.0824960052335397e+00 -2 0 1
546 2 1.1522116579374444e+00 3.6097652104480806e+00 1.3740844035357194e+01 2 0 1
856 1 1.2569218311507004e+01 9.8760420958959152e+00 4.4929690862067844e+00 -2 0 -3
729 2 8.0673163049819454e+00 8.4146907533225299e+00 9.3162498686304627e+00 0 0 1
612 2 -4.1225783114209218e+00 5.4029190195039023e+00 1.2111404393746293e+01 0 0 1
674 2 2.3727139815699441e+00 8.5646970280689150e+00 1.9624263661264330e+00 0 0 -3
121 1 1.0834121833519980e+01 6.2584454927426361e+00 1.0301029935018466e+01 -2 0 -1
911 2 1.4137627556111248e+01 3.8811158726795609e+00 5.4803429271641209e+00 -2 0 1
424 1 1.5383131039947035e+01 5.3529405296722201e+00 2.9041892929325193e+00 -2 0 1
811 1 1.1996127758459661e+01 3.3430855987198989e+00 1.4858361411800002e+01 -2 0 -1