LAMMPS data file via write_data, version 3 Mar 2020, timestep = 1000000

1008 atoms
2 atom types

2.3597383805334360e-01 1.8163581161941600e+01 xlo xhi
8.9055718323342248e-02 2.2481333281670985e+01 ylo yhi
2.1586605055376928e-01 1.9289849949441475e+01 zlo zhi
2.3053834461895847e-02 -6.6506149592247157e+00 2.3171228718992473e-03 xy xz yz

Masses

1 16
2 2

Atoms # atomic

1 1 6.6797903828200571e+00 1.1612521903409636e+00 4.5666437024696949e+00 0 0 0
753 2 3.9991429176909197e+00 9.5644571639475409e+00 9.0896673624463435e+00 0 0 0
3 2 6.7577486150845605e+00 1.2942606945348323e+00 3.6330422664320032e+00 0 0 0
4 1 3.8661403737964655e+00 9.8706870030907501e-01 5.0667596564820219e+00 0 0 0
151 1 6.8797548306151901e+00 6.7558400576375155e-01 8.0732068993715878e+00 0 0 0
6 2 3.8329978484095859e+00 1.3326155811081495e+00 5.9593811410263786e+00 0 0 0
7 1 -4.8218386357127008e-01 6.5659408646209698e+00 4.8917940184687376e+00 0 0 0
8 2 -5.9961616581938482e-01 6.3645200101490031e+00 5.8452428611961356e+00 0 0 0
9 2 -9.1394715458530884e-01 7.4269639079090055e+00 4.7843655906663027e+00 0 0 0
10 1 2.1790035097325031e+00 6.3648856930500708e+00 4.7547264954090878e+00 0 0 0
11 2 1.2622786540529101e+00 6.6856964938472139e+00 4.7888518005422922e+00 0 0 0
12 2 2.8572881092827758e+00 7.0466647945240526e+00 4.5991940385203369e+00 0 0 0
82 1 2.7145896361087041e+00 6.0317343063717592e+00 2.5607085213247388e-01 0 0 1
485 2 1.0596340919943728e+01 5.4102850769307875e-01 8.0906969147167622e+00 0 0 0
775 1 7.0145549296530776e+00 9.9914331730209689e+00 9.6839627607097860e+00 0 0 0
237 2 1.4930087926555737e+01 7.5640547873862172e+00 7.5765507512298695e+00 0 0 0
18 2 5.8519367209716240e+00 4.9327417669059539e+00 9.1366579868412445e-01 0 0 0
156 2 1.2128899848674259e+01 4.8689606384843764e-01 2.4381366039213637e+00 0 0 0
190 1 7.1097116411719119e-01 1.0291323553274863e+01 9.2222026243469113e+00 0 0 0
21 2 7.0166375327694674e-01 2.7622834800139149e+00 7.9553563308228281e-01 0 0 0
2 2 7.3462932027171748e+00 4.5728419679925075e-01 4.7490732539618490e+00 0 0 0
217 1 6.6954075329020117e+00 1.0794259085622365e+01 6.4919019407794094e+00 0 0 0
587 2 -1.5836422444259692e+00 6.6404803592324404e+00 9.2717395150918449e+00 0 0 0
25 1 4.5367254070545648e+00 6.3243395751088940e+00 7.2313484463051410e+00 0 0 0
26 2 5.1858125642548458e+00 7.0183423719244820e+00 7.1930229179658900e+00 0 0 0
27 2 3.7074933922838054e+00 6.6582396834669044e+00 7.5301139967144870e+00 0 0 0
28 1 5.9203946042850175e+00 6.1752710174214513e+00 2.5352277328712871e+00 0 0 0
29 2 5.8783728470548890e+00 5.9088927518309475e+00 3.4918638457170985e+00 0 0 0
30 2 5.3513005457772644e+00 6.8765514222177355e+00 2.4169781365678462e+00 0 0 0
31 1 1.1850090523132222e+00 1.1605910465652978e+00 2.6006745656671728e+00 0 0 0
32 2 2.1061202702146171e+00 9.4288927772375974e-01 2.3511568072004048e+00 0 0 0
33 2 1.1686010407471292e+00 1.4363482601788828e+00 3.5171438737688066e+00 0 0 0
34 1 2.3742571743358498e-01 1.1643304839686528e+00 7.2994649702988790e+00 0 0 0
219 2 5.8418079556882994e+00 1.0655572821154378e+01 6.9887479126353123e+00 0 0 0
36 2 4.3162754387421520e-01 1.6087020379220045e+00 8.1617892642291139e+00 0 0 0
37 1 6.2595890881375906e+00 2.6212963106153775e+00 2.3170012207696558e+00 0 0 0
38 2 5.4671090606050345e+00 2.7297502277256864e+00 2.9108117314705786e+00 0 0 0
39 2 6.9041075540506425e+00 3.2923454296512396e+00 2.6950943908598517e+00 0 0 0
40 1 4.2468843855859824e+00 2.7799862988925299e+00 7.1840185428497145e+00 0 0 0
41 2 5.1600892063742929e+00 2.9820951463255323e+00 7.0431938267033924e+00 0 0 0
42 2 3.7406810035207414e+00 3.5684762318298633e+00 7.0409252311452528e+00 0 0 0
43 1 -2.7577903076121890e-01 5.1555360922696227e+00 7.4589122303404904e+00 0 0 0
44 2 -9.3768384755057532e-01 4.4775075129513651e+00 7.2286865346635896e+00 0 0 0
45 2 -5.4602650154437660e-01 5.5282544959090574e+00 8.3522463740871498e+00 0 0 0
46 1 2.0411774397867681e+00 4.7443319333313383e+00 2.6478866850130256e+00 0 0 0
47 2 1.1564271555398946e+00 4.4065609630188751e+00 2.9666035848804668e+00 0 0 0
48 2 2.3562134347123282e+00 5.1772218350280612e+00 3.4690427424134507e+00 0 0 0
49 1 6.8874523037521573e+00 3.3730797358723605e+00 6.3088843696921533e+00 0 0 0
50 2 6.2616414808532364e+00 3.9822778412833806e+00 5.8203201972252234e+00 0 0 0
51 2 6.8813551505613155e+00 2.5916466195287331e+00 5.7848033417471747e+00 0 0 0
52 1 4.0119802377725851e+00 3.0925453134829612e+00 3.6352038819905199e+00 0 0 0
53 2 3.1923985028088624e+00 3.3014456445216811e+00 3.0939685613274985e+00 0 0 0
54 2 3.9130389285595619e+00 2.1812380757606502e+00 4.0221463144725655e+00 0 0 0
55 1 -4.9410745234238973e-01 3.9924486349048278e+00 3.4352674015203606e+00 0 0 0
56 2 -7.3846220582988298e-01 4.8711816424254994e+00 3.8059311912400138e+00 0 0 0
57 2 -1.9125680881321472e-01 3.3778629893667484e+00 4.1859320140326384e+00 0 0 0
58 1 2.0836066708911813e+00 4.2766945211148482e+00 6.5571697649130218e+00 0 0 0
59 2 2.2332349285344781e+00 5.0563902870639232e+00 6.0689080858789497e+00 0 0 0
60 2 1.2223249884149641e+00 4.5056905412262331e+00 6.9736595374938286e+00 0 0 0
61 1 8.3040298206589789e+00 6.8889273343831583e+00 1.5970964889909145e+00 0 0 0
62 2 7.3767911216691981e+00 6.6820245461170504e+00 2.0544725693667365e+00 0 0 0
63 2 8.6509108078338119e+00 6.1285845023529175e+00 9.9793293716222953e-01 0 0 0
64 1 2.2200515126404468e+00 6.8904924503214611e+00 8.3483153326682000e+00 0 0 0
65 2 1.5648549307724333e+00 7.4243191552290293e+00 7.8060239769268884e+00 0 0 0
66 2 2.7022364996715145e+00 7.6162373878041780e+00 8.8660041611769653e+00 0 0 0
836 2 1.3023094144927569e+01 9.6466203451995920e+00 8.6479507962833786e+00 0 0 0
68 2 -2.5068412020987503e+00 1.3274137056244804e+00 8.9208400001004389e+00 0 0 0
305 2 1.2214918815964355e+01 1.0947816027124588e+01 2.9089461138935544e+00 0 0 0
72 2 4.1406612204996609e+00 1.5688311652457261e+00 1.2105174849328788e+00 0 0 0
73 1 5.2104694392991675e+00 5.2072131619768056e+00 4.9336976967791353e+00 0 0 0
74 2 4.7483077569351062e+00 5.6605070388283547e+00 5.6978808735485069e+00 0 0 0
75 2 4.6714839536431585e+00 4.5019307041389292e+00 4.4958559500497586e+00 0 0 0
76 1 9.1138988115637565e-01 2.3875498920791869e+00 5.0609103181820423e+00 0 0 0
77 2 4.9970631214675043e-01 1.7984879876472464e+00 5.7514678966192498e+00 0 0 0
78 2 1.4238116697096197e+00 3.0113367788495373e+00 5.6299802244723463e+00 0 0 0
302 2 1.5049399080649572e+01 1.1072835965780307e+01 7.0300763630057039e+00 0 0 0
100 1 1.4573511776015687e+01 4.9836067011444030e+00 3.4292202241252623e-01 0 0 0
482 2 -7.6190067000928507e-02 2.0813929101792233e-01 2.1597722275728688e+00 0 0 0
85 1 1.5543599847005016e+01 1.1244029652586580e+00 4.8222888106843387e+00 0 0 0
87 2 1.5568502814565417e+01 1.3508038535283573e+00 3.8688197569404386e+00 0 0 0
88 1 1.2650211863516947e+01 1.3738801239567573e+00 5.2732334419482791e+00 0 0 0
89 2 1.2353521940520961e+01 2.0859305285259460e+00 4.5976969316475609e+00 0 0 0
610 1 1.3021499344312032e+01 2.5862309380501918e+00 4.0655510713773158e-01 0 0 1
91 1 8.3570983736302136e+00 6.5317982498569345e+00 4.8909482377715339e+00 0 0 0
92 2 8.1100393425778563e+00 5.6703569303215486e+00 4.5428719585675879e+00 0 0 0
93 2 9.3251828363435223e+00 6.7508835469882458e+00 4.6632162836699491e+00 0 0 0
94 1 1.1016497250437242e+01 6.7042753721605486e+00 4.5114308051491019e+00 0 0 0
95 2 1.1555304717611353e+01 7.4111931067053121e+00 4.8163542789118061e+00 0 0 0
96 2 1.1202978805064943e+01 5.9817321628288713e+00 5.1283841197084437e+00 0 0 0
248 2 7.5384345264591852e+00 8.2869234062435240e+00 7.4640222855011285e-01 0 0 0
304 1 1.2867921527198044e+01 1.0638471675697060e+01 3.5185523787657651e+00 0 0 0
311 2 1.0970108688221469e+01 1.1023119693676170e+01 5.7075456685106474e+00 0 0 0
101 2 1.4533953715625145e+01 5.3778737146266602e+00 1.2080147484799966e+00 0 0 0
146 2 1.7463530610474354e+01 6.7461446199393951e+00 1.3917301250882204e+00 0 0 0
84 2 3.1409410978626977e+00 6.8508096552968301e+00 5.7054277583313395e-01 0 0 0
189 2 2.2646294855590696e+00 1.0468245907420224e+01 5.0611226504351292e-01 0 0 0
152 2 7.6764047492137895e+00 9.9062775089667410e-01 7.6392875665812463e+00 0 0 0
109 1 1.3800480734312995e+01 6.3980011259241945e+00 7.3251739336090935e+00 0 0 0
110 2 1.4261933543979680e+01 5.8042896872103000e+00 8.0356267266208441e+00 0 0 0
111 2 1.3043780899548713e+01 6.6930482748375040e+00 7.7902304905940873e+00 0 0 0
112 1 1.4946981950447768e+01 6.4392265180729389e+00 2.5503016063913564e+00 0 0 0
113 2 1.4375057364505466e+01 7.2520374384553730e+00 2.6877936184627202e+00 0 0 0
114 2 1.5867091191245850e+01 6.7426134690610242e+00 2.5337589511232386e+00 0 0 0
115 1 1.0435188588380012e+01 9.1979559746147677e-01 2.8376900367822091e+00 0 0 0
116 2 1.0102061188915485e+01 1.5414833084491748e+00 2.1201592641294180e+00 0 0 0
167 2 1.1123977655883310e+01 5.7167148312738352e+00 6.7042443765782989e-01 0 0 0
118 1 9.3016408347047435e+00 1.6522200723207097e+00 7.3690298648155768e+00 0 0 0
119 2 9.3737086801653540e+00 2.2347949181547655e+00 8.1419256807690132e+00 0 0 0
120 2 9.3757743011530827e+00 2.1055919399320682e+00 6.4989052432939962e+00 0 0 0
121 1 1.4958601918056866e+01 2.7809965798036513e+00 2.7878007078133735e+00 0 0 0
122 2 1.5647928506578744e+01 3.3723873856196747e+00 3.0273331879992447e+00 0 0 0
123 2 1.5166312445025120e+01 2.4798854310335612e+00 1.8852880178911866e+00 0 0 0
124 1 1.3104305929211531e+01 2.9212598942153298e+00 7.6653052077119108e+00 0 0 0
125 2 1.4023651626904812e+01 3.1690293807662240e+00 7.3817020364190160e+00 0 0 0
126 2 1.2810328615207595e+01 2.3099906816026552e+00 6.9250229591896106e+00 0 0 0
127 1 8.4021086284495965e+00 5.1767416289785677e+00 7.4134060887875624e+00 0 0 0
128 2 7.9085464986174472e+00 4.4814096755298927e+00 6.9805445059499203e+00 0 0 0
129 2 8.3795047544190417e+00 5.8416241453338866e+00 6.6868086919709624e+00 0 0 0
130 1 1.0667585213684106e+01 5.1233647799202346e+00 2.0708280446095890e+00 0 0 0
131 2 1.1181633864065772e+01 4.4356192705044997e+00 2.5404206390076278e+00 0 0 0
132 2 1.0805597959353031e+01 5.9101438498479819e+00 2.6744247359756175e+00 0 0 0
134 2 1.5073348846043505e+01 3.8813898449304460e+00 5.5580426379755590e+00 0 0 0
136 1 1.2374470132636983e+01 3.3660817189631218e+00 3.3774207247526502e+00 0 0 0
137 2 1.2715613668262961e+01 3.9372878708069492e+00 4.0632824191669723e+00 0 0 0
138 2 1.3168537790282500e+01 3.0268293292422022e+00 2.9127799543963526e+00 0 0 0
139 1 8.1210210523345712e+00 4.2904775692328059e+00 3.2541708540878100e+00 0 0 0
140 2 8.7029091798788922e+00 4.7632068187222147e+00 2.6468658819067126e+00 0 0 0
141 2 8.6418643137874174e+00 3.7547334973567863e+00 3.9053259444581099e+00 0 0 0
142 1 1.1151716359319277e+01 4.3798039372870239e+00 6.5320563807339287e+00 0 0 0
143 2 1.1900479910799572e+01 4.1080388811970323e+00 7.0896306371955848e+00 0 0 0
144 2 1.0451141427203932e+01 4.6454900911598491e+00 7.1760799350116145e+00 0 0 0
147 2 1.7112891276361019e+01 8.1374009987067897e+00 1.4161481041668496e+00 0 0 0
148 1 1.1217259808811606e+01 7.0955604471438738e+00 8.2080921427028866e+00 0 0 0
149 2 1.0960292103880533e+01 6.4462454743860924e+00 8.8785335307404427e+00 0 0 0
150 2 1.1547901931502121e+01 7.8933093591386081e+00 8.6278118958454613e+00 0 0 0
187 1 1.2635925878043646e+00 1.0438481172006437e+01 6.8293545137821066e-01 0 0 0
293 2 1.2601077120490046e+01 1.1122027257664801e+01 6.9585447258544839e+00 0 0 0
153 2 6.6378560529951551e+00 1.3546203478138108e+00 8.7180982472706958e+00 0 0 0
35 2 -6.0714693550884458e-01 6.7890298966715357e-01 7.4118764805571766e+00 0 0 0
155 2 1.3231242532163826e+01 1.2505413175474691e+00 1.5083082095458318e+00 0 0 0
583 1 3.6065184898192069e+00 1.4302510257193821e+00 9.3389556312809905e+00 0 0 0
157 1 1.4004261727485922e+01 5.1887464557489782e+00 4.8662320107945058e+00 0 0 0
158 2 1.4447388609921600e+01 5.6642103635567045e+00 4.1147942860001940e+00 0 0 0
159 2 1.4017184649878203e+01 5.7790089719430320e+00 5.5969590529707238e+00 0 0 0
160 1 9.8838136388389444e+00 2.8135868525917678e+00 4.8801161045432968e+00 0 0 0
161 2 1.0571557433365786e+01 3.4131988697227769e+00 5.3205840897665659e+00 0 0 0
162 2 1.0199125965496973e+01 2.2864732763684552e+00 4.1086167611146331e+00 0 0 0
22 1 6.6413658842547507e-01 2.4948804791812376e+00 9.3752512131032617e+00 0 0 0
97 1 1.4172945148004015e+01 5.1015387888312906e+00 9.5705662779484992e+00 0 0 0
13 1 4.9897199993385648e+00 5.1300435922847729e+00 9.5413042273204240e+00 0 0 0
169 1 6.7451722774351808e+00 8.6704351740368342e+00 4.7477572459324655e+00 0 0 0
170 2 7.4071976513951441e+00 7.9421537805521680e+00 4.9777456963926969e+00 0 0 0
171 2 6.7980073207804868e+00 9.2459907026563339e+00 5.5289274680407976e+00 0 0 0
172 1 3.9865337353900152e+00 8.4466261165123235e+00 5.2303559563353872e+00 0 0 0
173 2 3.6791192321598762e+00 9.1669105949949685e+00 4.6839065942988203e+00 0 0 0
174 2 4.8991283139623096e+00 8.3023745076408169e+00 4.9450129856366951e+00 0 0 0
693 2 -1.1952489053646287e+00 1.0422424952188884e+01 9.4607373890637536e+00 0 0 0
399 2 8.0687555063726855e+00 1.5132147310486121e-01 1.0326017644325243e+00 0 0 0
585 2 3.8264788628819675e+00 1.9939081794243048e+00 8.4922290483439635e+00 0 0 0
192 2 6.9792315577771946e-01 9.7571731232593102e+00 8.3975652368216362e+00 0 0 0
199 1 1.6047481966804320e+00 8.5164189318455978e+00 3.1376838412421924e+00 0 0 0
200 2 1.5600617151297751e+00 9.3659582722065515e+00 2.6731736294103579e+00 0 0 0
201 2 8.0403036994126220e-01 8.0812192056718839e+00 2.6961701720185642e+00 0 0 0
202 1 2.6047675116928692e-01 8.3272936941172482e+00 7.2322566064592566e+00 0 0 0
203 2 -6.0763122711763740e-01 8.3307465710395299e+00 7.6500303223631274e+00 0 0 0
204 2 1.9673100782140018e-01 9.0141218962465004e+00 6.5012953976025081e+00 0 0 0
205 1 5.8532408939342631e+00 1.0276372762970981e+01 2.6158016230267660e+00 0 0 0
206 2 5.9021474704615429e+00 9.5594720602818573e+00 3.2888060545506250e+00 0 0 0
207 2 6.1831500660527947e+00 9.9475591135214323e+00 1.7714128561690912e+00 0 0 0
208 1 4.1053275382834062e+00 1.0355067608578215e+01 7.3071169025559515e+00 0 0 0
301 1 1.5761660728759114e+01 1.1133107219962424e+01 6.3449680106938739e+00 0 0 0
210 2 3.9784144751824271e+00 9.5762447547033194e+00 6.6671233681360791e+00 0 0 0
69 2 1.4902341559081945e+01 9.6624851940389417e-02 7.9772499434918398e+00 0 0 0
486 2 1.1701752732408254e+01 6.7115085387326012e-01 9.1480059831298046e+00 0 0 0
83 2 2.4436019474116488e+00 5.6311760820001089e+00 1.1250105018559795e+00 0 0 0
5 2 4.8093615308875410e+00 6.9358085711464423e-01 4.9658486101742998e+00 0 0 0
776 2 7.9569935934381162e+00 1.0192365113231194e+01 9.6417955883940554e+00 0 0 0
235 1 -2.2166762344047313e+00 7.9819244478373452e+00 8.1087006279916913e+00 0 0 0
236 2 -2.5265158226742255e+00 8.7627868414924368e+00 8.5650007431962756e+00 0 0 0
238 1 3.7767941549145623e+00 8.1209254826454291e+00 1.4721196717533731e+00 0 0 0
239 2 3.0684268550079383e+00 8.2372548816015883e+00 2.1216717826859304e+00 0 0 0
240 2 3.8112009770403250e+00 8.9762356076337664e+00 1.0400664074200250e+00 0 0 0
244 1 6.0897240943949171e-01 9.8323531073895385e+00 5.2548031453019357e+00 0 0 0
245 2 1.0165842391582240e+00 9.3529724030479127e+00 4.4586777201548369e+00 0 0 0
246 2 1.3449858664950214e+00 1.0442794964930865e+01 5.5767148672661548e+00 0 0 0
145 1 1.7391586859443294e+01 7.4390604300906151e+00 2.0117667579558587e+00 0 0 0
165 2 1.6537288924514570e+01 8.5908585484280964e-01 8.9334409949761828e-01 0 0 0
253 1 1.5797056043994472e+01 8.7046507657517722e+00 5.0341707715640087e+00 0 0 0
255 2 1.5860074626709064e+01 9.1725836298670842e+00 4.1559827282840338e+00 0 0 0
256 1 1.2925942728459532e+01 8.6001999044020163e+00 5.4528640577365355e+00 0 0 0
257 2 1.3801615290407678e+01 8.3688443196865574e+00 5.1889690142082072e+00 0 0 0
258 2 1.2661517899650077e+01 9.2534527175785275e+00 4.8128932563391027e+00 0 0 0
220 1 3.3806053284726127e+00 1.0778311194481402e+01 3.3171684464538926e+00 0 0 0
272 2 1.0177274011387906e+01 9.8953748875504797e+00 9.6814586629873967e-01 0 0 0
254 2 1.5919942504418119e+01 9.4230172997147807e+00 5.6760347496856012e+00 0 0 0
276 2 9.7395052706928968e+00 9.7338868244339913e+00 8.7548801008620227e+00 0 0 0
283 1 1.0121340412887431e+01 8.8525504008552129e+00 2.4619080425421154e+00 0 0 0
284 2 1.0048623657126122e+01 9.1098811300251530e+00 3.3915269544614985e+00 0 0 0
285 2 9.5201219532859263e+00 8.0685556288225655e+00 2.2619965923768515e+00 0 0 0
286 1 9.0603836581016424e+00 8.2489038130507595e+00 7.1011205745830281e+00 0 0 0
287 2 9.7940601877773208e+00 7.7241157756868351e+00 7.5260051560104229e+00 0 0 0
288 2 8.2970853084337310e+00 7.7934653064363726e+00 7.4090999457105786e+00 0 0 0
289 1 1.5205876431789216e+01 1.0000579134549485e+01 2.6650934069612200e+00 0 0 0
224 2 -1.6808026697498435e-01 1.0973645596368769e+01 4.1476081457877303e+00 0 0 0
291 2 1.5311986954797511e+01 9.6610329318967967e+00 1.7797022593406475e+00 0 0 0
292 1 1.3339692669100277e+01 1.0586341900395738e+01 7.3717350831947561e+00 0 0 0
835 1 1.2969292540230803e+01 8.8698730102340111e+00 9.2881940420765261e+00 0 0 0
294 2 1.3497699154179552e+01 9.9434847522657321e+00 6.6435147537093284e+00 0 0 0
80 2 6.7996692931953850e+00 2.0951597755890066e+00 5.8937192077919942e-01 0 0 0
67 1 -2.2352989874542351e+00 5.0116928593147514e-01 8.5021345505143806e+00 0 0 0
306 2 1.3633835666538200e+01 1.0319529353282146e+01 2.9315230496376476e+00 0 0 0
671 2 8.2436814179535514e+00 5.7654665453580680e+00 8.8643477725731827e+00 0 0 0
319 1 6.4520219936291365e+00 7.8353928646561650e+00 8.3473205424211425e+00 0 0 0
320 2 6.4921213478144644e+00 8.7532823658657275e+00 8.6040471688458595e+00 0 0 0
321 2 6.8877916312855998e+00 7.3750298774082950e+00 9.0648480146387254e+00 0 0 0
322 1 1.2568520852379740e+01 7.9844479243460347e+00 1.7504056312869072e+00 0 0 0
323 2 1.1608125545504910e+01 8.0784316937280423e+00 2.0617893692444844e+00 0 0 0
324 2 1.2545066521220230e+01 7.2984224062896690e+00 1.0827862752090067e+00 0 0 0
328 1 9.8693541832956448e+00 9.7359037730533444e+00 4.9563164383899601e+00 0 0 0
329 2 9.5196226201573886e+00 9.1709640390307818e+00 5.6681184006409593e+00 0 0 0
330 2 9.1081425371833156e+00 1.0343320628028566e+01 4.7099887323368375e+00 0 0 0
104 2 9.5039269895913296e+00 3.0147947128486012e+00 8.0241150801825689e-01 0 0 1
209 2 3.3485082785094691e+00 1.0962886862455102e+01 7.1539332607596560e+00 0 0 0
70 1 3.8059593607648186e+00 7.3704168154128125e-01 1.7038485621595789e+00 0 0 0
90 2 1.3631099034802254e+01 1.2217013540950989e+00 5.0846104124101466e+00 0 0 0
133 1 1.5579731425028275e+01 3.5941394513972758e+00 6.3335982686432173e+00 0 0 0
221 2 4.1435055042648052e+00 1.0550656570604085e+01 2.7390696908766712e+00 0 0 0
247 1 6.8728245979848426e+00 9.0093204130406335e+00 5.5125877877988616e-01 0 0 0
103 1 1.0233814111598159e+01 2.3374946645857868e+00 7.6443785924056828e-01 0 0 0
135 2 1.5746291422188989e+01 2.6652394876114176e+00 6.0611666392440764e+00 0 0 0
521 2 2.0101416715681344e+00 5.4313119268087311e+00 9.2338538515645521e+00 0 0 0
290 2 1.5765490699152181e+01 1.0824385309897348e+01 2.7284511749037899e+00 0 0 0
668 2 1.2755073784481981e+01 2.3276489051839730e+00 9.1071804192338011e+00 0 0 0
24 2 -2.6757430451350928e-01 2.7358071144034315e+00 9.6068131247838391e+00 0 0 0
154 1 1.2984664162619449e+01 4.0544406006042849e-01 1.9907756526599847e+00 0 0 0
86 2 1.5916450694703451e+01 1.8983769913446158e-01 4.8547402341406061e+00 0 0 0
612 2 1.2108513374989970e+01 2.9020695176178939e+00 5.7251778379879248e-01 0 0 0
14 2 4.9011755511467090e+00 5.7431495409325528e+00 8.7935068576779098e+00 0 0 0
218 2 7.3573023108607511e+00 1.1281104361212661e+01 6.9925346495902518e+00 0 0 0
584 2 2.9567390894778405e+00 7.5868017328355941e-01 8.9903583604146089e+00 0 0 0
780 2 1.2671572955865905e+01 9.4652359569000470e+00 7.5723130055123766e-01 0 0 0
163 1 1.6007204402492338e+01 1.6210079202802341e+00 5.4845857367896833e-01 0 0 0
15 2 4.0622617041285398e+00 4.8102258819060317e+00 9.6491018066814256e+00 0 0 0
274 1 9.6365025639479498e+00 1.0092643087339844e+01 9.6396016518951786e+00 0 0 0
23 2 1.1684422453404570e+00 3.3381922175719159e+00 9.3863808239310309e+00 0 0 0
777 2 6.5825736085943145e+00 1.0865538459018557e+01 9.5618657316246196e+00 0 0 0
71 2 3.4636552002229570e+00 1.2517070155236193e-01 9.7150906991557417e-01 0 1 0
602 2 1.6586999220753132e+01 5.0865401829485126e+00 5.4028385327610895e-01 0 0 0
102 2 1.4166578536346115e+01 4.1109956812752335e+00 3.9984958470291798e-01 0 0 0
117 2 9.6329876838093469e+00 3.7060223101595341e-01 2.8237017667532447e+00 0 0 0
691 1 -2.1283766046996697e+00 1.0193340305050411e+01 9.5335425542014818e+00 0 0 0
608 2 6.1092314319396976e+00 3.4311945689395809e+00 9.6152067878025136e+00 0 0 0
670 1 8.0501418532347842e+00 6.1560047615767299e+00 9.7350553329088481e+00 0 0 0
778 1 1.2801161945400246e+01 1.0311741287055904e+01 2.2098841941352815e-01 0 0 1
751 1 3.8213491658284506e+00 8.9319344737160069e+00 9.7494847280641572e+00 0 0 0
188 2 1.0223743390406259e+00 9.6178977041634148e+00 2.4335513894528679e-01 0 0 1
692 2 -2.6928858601837842e+00 1.0983205883955838e+01 9.7387889591247099e+00 0 0 0
586 1 -8.9502149067996584e-01 6.2086404115022269e+00 9.7421439479532985e+00 0 0 0
725 2 -4.5882293337012214e-02 1.0998316185309244e+01 1.2640455860042632e+01 0 0 0
749 2 -1.6290168233487625e+00 1.0445541292558779e+01 1.4863920716577335e+01 0 0 0
714 2 1.9374029917252624e+00 1.0429776979607864e+01 1.6918686537561747e+01 0 0 0
249 2 6.1644782222267391e-01 9.6136441996106221e+00 1.9001706265559591e+01 0 0 0
81 2 -1.6349673550367072e-01 8.7726569508333208e-01 1.8743233065999419e+01 0 0 0
805 1 1.2372309557382017e+01 1.0581077709016485e+01 1.6059662174442739e+01 0 0 0
728 2 -3.4616815697378431e+00 1.0817556705017559e+01 1.3747201656032784e+01 0 0 0
906 2 -1.7834413930684923e+00 1.9920503790456451e-01 1.7206304070986825e+01 0 0 0
593 2 8.6940179951158889e+00 4.4868725879537563e-01 1.4901496850055686e+01 0 0 0
98 2 1.4380352989346111e+01 5.8141134625062456e+00 1.0180233543112651e+01 0 0 0
106 1 9.6177377790956804e+00 2.9399174909329031e+00 9.8682026975871526e+00 0 0 0
798 2 9.6184743605890901e+00 9.6315283970768633e+00 1.6129715539780381e+01 0 0 0
526 1 -2.9210581078126530e+00 2.8354381579358376e+00 1.9170776715503038e+01 0 0 0
509 2 1.0230880687279775e-01 4.5087664763474850e-01 1.4563388911403932e+01 0 0 0
620 2 6.1714520575967988e+00 4.7861327302876516e-01 1.2006696992748354e+01 0 0 0
523 1 -2.3171940603303920e+00 2.6794714202331953e+00 1.0029782072454447e+01 0 0 0
574 1 5.3811921755577519e-01 3.6431775862570892e-01 1.1261510358933920e+01 0 0 0
752 2 3.4787108827427082e+00 9.3892307193080935e+00 1.0501203698871986e+01 0 0 0
505 1 3.1116166440155730e+00 1.2194856837416754e+00 1.4118731905440617e+01 0 0 0
506 2 3.0934812669132574e+00 2.1079505814483643e+00 1.4487755791589983e+01 0 0 0
903 2 4.6674995953178744e+00 4.4609138315831165e-01 1.0539010471882982e+01 0 0 0
508 1 6.1372749490535217e-01 1.2545568502969588e+00 1.4473882799001439e+01 0 0 0
191 2 6.8327741354092408e-01 9.6059221738373886e+00 9.8927424169613669e+00 0 0 0
510 2 1.5682431572853224e+00 1.0214939628844308e+00 1.4375470392620862e+01 0 0 0
511 1 -3.9160129039323266e+00 6.4624402067104878e+00 1.4596416492878166e+01 0 0 0
512 2 -4.0423175829843387e+00 5.6698177622194637e+00 1.4010010422432758e+01 0 0 0
513 2 -3.8204673081550844e+00 6.0790066532709659e+00 1.5508175018515905e+01 0 0 0
514 1 -1.2638550195947240e+00 6.4902122885414482e+00 1.4079129108518400e+01 0 0 0
515 2 -1.0593151345003413e+00 5.7442674584256288e+00 1.4673163219049105e+01 0 0 0
516 2 -2.1703643731371081e+00 6.6892667254606719e+00 1.4352212980127089e+01 0 0 0
601 1 1.0720030017961335e+01 5.4903965584769585e+00 1.9271428727210619e+01 0 0 0
519 2 1.8115806425391652e+00 5.2281575344683855e+00 1.8058699533334014e+01 0 0 0
518 2 1.0414141050856713e+00 4.3026076962839506e+00 1.8976546894693556e+01 0 0 -1
522 2 2.1058461545807288e+00 4.9895016178039757e+00 1.0755415123804827e+01 0 0 0
696 2 -1.9835224793203219e+00 1.1255321076107037e+01 1.9163818352001229e+01 0 0 0
826 1 9.6074730832958064e+00 7.9999778771242891e+00 1.1110723216739601e+01 0 0 0
525 2 -2.1531604765988206e+00 2.3276289099515610e+00 1.0928503708838026e+01 0 0 0
694 1 -2.7292097457861488e+00 1.0584126497002407e+01 1.9193465266879734e+01 0 0 0
590 2 1.1033029710299234e+01 8.3378054888984621e-01 1.4503421151468894e+01 0 0 0
529 1 1.4954577128972604e+00 6.5122915089853954e+00 1.6834408294951537e+01 0 0 0
530 2 1.5524879140181405e+00 6.1031818182346900e+00 1.5936269331572861e+01 0 0 0
531 2 5.3132014114360793e-01 6.5013590577528975e+00 1.7044763822943523e+01 0 0 0
532 1 2.5425229278608565e+00 6.2306008342152275e+00 1.2038952540426312e+01 0 0 0
533 2 3.5164025892951640e+00 6.2002077280157808e+00 1.2038651727414988e+01 0 0 0
534 2 2.3714812964866816e+00 5.8457336937279241e+00 1.2932472932630178e+01 0 0 0
535 1 -1.9987604244067558e+00 1.1521120746355540e+00 1.2208876518541539e+01 0 0 0
17 2 -1.5003623540309849e+00 3.9804080759909617e+00 1.9035366294274766e+01 0 0 -1
537 2 -1.1216477422328426e+00 7.0404015262089259e-01 1.2024078324796271e+01 0 0 0
538 1 -3.0121070410685586e+00 1.3168547950549323e+00 1.6871079925238746e+01 0 0 0
539 2 -4.0134795290816303e+00 1.1157576301414451e+00 1.6826480027669845e+01 0 0 0
540 2 -2.8413002092222501e+00 1.8796499371342279e+00 1.6084682682352785e+01 0 0 0
541 1 3.1854394306712366e+00 2.6954086639387329e+00 1.1649087790718340e+01 0 0 0
542 2 3.1854294582449727e+00 1.9065964324126783e+00 1.2151129731292887e+01 0 0 0
543 2 3.2521295781308717e+00 2.4263966702229554e+00 1.0718990135304967e+01 0 0 0
544 1 7.4126810003827703e-01 2.6849242760022407e+00 1.6568737170471081e+01 0 0 0
545 2 6.4432641179307915e-01 2.3148575942563143e+00 1.7439627374547605e+01 0 0 0
546 2 5.7606576985883073e-01 1.9239552021492907e+00 1.5882745079914129e+01 0 0 0
547 1 -3.5004413575472069e+00 4.8291056262680927e+00 1.6854813676211300e+01 0 0 0
548 2 -4.3354203700556635e+00 4.4015696808601055e+00 1.6593042687650268e+01 0 0 0
549 2 -3.5861954640366966e+00 5.0997462911873539e+00 1.7821781337194558e+01 0 0 0
550 1 -1.4672085756831721e+00 5.0003365134742257e+00 1.1983587528695592e+01 0 0 0
551 2 -7.7548504929775808e-01 4.3090247132731143e+00 1.2157427896574339e+01 0 0 0
552 2 -1.4595577244324036e+00 5.6728162130178577e+00 1.2742994340596464e+01 0 0 0
553 1 3.2245050849981087e+00 3.4076259743422321e+00 1.5741997516707585e+01 0 0 0
554 2 2.6492706215657638e+00 3.0713641787132735e+00 1.6421607376683909e+01 0 0 0
555 2 4.0663298272190742e+00 3.7734191727477113e+00 1.6165387625235340e+01 0 0 0
556 1 6.4832213166848263e-01 3.3480761445463836e+00 1.2588135810673379e+01 0 0 0
557 2 1.3854998801626852e+00 3.1407445421924867e+00 1.1990706510571366e+01 0 0 0
558 2 5.7374281885172174e-01 2.5323910370266720e+00 1.3120440155134968e+01 0 0 0
559 1 -3.9144286891642013e+00 4.3397999231343949e+00 1.3123944744294695e+01 0 0 0
560 2 -3.2881783771274451e+00 4.5372182837497883e+00 1.2382403447529489e+01 0 0 0
561 2 -3.4638436362815854e+00 3.4947894716054955e+00 1.3549970481390735e+01 0 0 0
562 1 -9.9124248233904577e-01 4.4186080260431124e+00 1.5717325880614897e+01 0 0 0
563 2 -3.4585455439647372e-01 3.8728368704186398e+00 1.6252507895398807e+01 0 0 0
564 2 -1.7551828547227344e+00 4.5327605194425669e+00 1.6330768303937937e+01 0 0 0
565 1 5.0809672093627096e+00 7.0670748970177808e+00 1.1344696815766621e+01 0 0 0
566 2 4.7937224332621504e+00 7.8799275992624542e+00 1.0883697046057160e+01 0 0 0
567 2 5.1980959730812835e+00 6.2985307595459323e+00 1.0688918719769365e+01 0 0 0
568 1 -1.0859652911549871e+00 7.2099053828284214e+00 1.7781882848917874e+01 0 0 0
569 2 -1.4072181344077466e+00 6.4734688947830081e+00 1.8287739133696171e+01 0 0 0
570 2 -9.0400673066803172e-01 7.9539664251324842e+00 1.8420945829152132e+01 0 0 0
672 2 8.7629731265224997e+00 6.6934520715648995e+00 1.0137254781285392e+01 0 0 0
572 2 -5.9092024929715521e+00 1.1848191435913300e+00 1.8018230788057672e+01 0 0 0
990 2 7.2664044286191185e+00 1.3316825177741748e-01 1.7931192596148904e+01 0 1 0
834 2 5.8155040758019734e+00 1.0428508783287247e+01 1.4015582470437732e+01 0 0 0
576 2 6.9708665237723322e-01 1.0806663104547356e+00 1.0612571930982890e+01 0 0 0
577 1 1.7874975926170693e+00 5.3345661629578141e+00 1.4402403974090193e+01 0 0 0
578 2 1.1235250877619514e+00 4.7630133786525697e+00 1.3927859794889956e+01 0 0 0
579 2 2.3890908348155246e+00 4.6120857801815323e+00 1.4784110612451761e+01 0 0 0
580 1 -2.5403650951949652e+00 2.5508384173486083e+00 1.4482035056724801e+01 0 0 0
581 2 -2.3486691289690471e+00 1.9149984089346193e+00 1.3776810233049629e+01 0 0 0
582 2 -1.6399734674228337e+00 2.8400458157769672e+00 1.4728125815412405e+01 0 0 0
832 1 6.3503917951156073e+00 9.7092696137402736e+00 1.4384136104616253e+01 0 0 0
536 2 -2.7107353795984057e+00 4.6340084467910164e-01 1.2035524596695973e+01 0 0 0
589 1 1.2009158773043819e+01 8.8213438202255579e-01 1.4412490953427454e+01 0 0 0
273 2 4.2998178909653149e+00 1.0586012458592482e+01 1.8860179016630433e+01 0 0 0
591 2 1.2322460471303145e+01 1.5609264844233117e+00 1.5066523699521909e+01 0 0 0
592 1 9.1542318644812077e+00 1.3317958710005913e+00 1.5031045036419417e+01 0 0 0
164 2 8.7237711521301797e+00 1.0352298072350494e+00 1.9055339596863021e+01 0 0 0
594 2 8.9309916011266459e+00 1.9291476746503207e+00 1.4277945392791743e+01 0 0 0
595 1 5.2797154688373018e+00 6.4277666404106579e+00 1.4469171099450225e+01 0 0 0
596 2 5.2465102303418663e+00 5.9934725316691226e+00 1.5353267255938327e+01 0 0 0
597 2 5.1488167257198230e+00 5.7029785517946943e+00 1.3855826060944370e+01 0 0 0
598 1 7.9419708483666671e+00 6.3516224911922379e+00 1.4177190030931598e+01 0 0 0
599 2 6.9729295192020109e+00 6.5801575160008214e+00 1.4281129527257049e+01 0 0 0
600 2 8.0437008482691521e+00 6.0435646699087080e+00 1.3229578509812374e+01 0 0 0
827 2 1.0313490447861859e+01 7.5935913683929801e+00 1.1641161465583183e+01 0 0 0
603 2 1.0593516799414623e+01 5.6111755718651928e+00 1.8288259023007193e+01 0 0 0