LAMMPS data file via write_data, version 3 Mar 2020, timestep = 25650000

2016 atoms
2 atom types

0.0000000000000000e+00 1.7927106534827949e+01 xlo xhi
2.8966245302349591e-02 4.4967193731586917e+01 ylo yhi
0.0000000000000000e+00 1.9065812881189867e+01 zlo zhi
4.2719774173854870e-02 -6.6505232621043042e+00 -2.2065206467054566e-02 xy xz yz

Masses

1 16
2 2

Atoms # atomic

523 1 -1.9056203038302382e+00 6.8971936414552761e+00 1.1597857938885976e+01 0 0 -2
650 2 2.9215881685695950e+00 2.2878674858366748e+00 6.4260726204672078e+00 -3 0 0
901 1 -2.8053585613421061e-01 8.8975441137423257e+00 9.1839304794855945e+00 0 0 1
116 2 1.4780017416913758e+01 1.8356278844741358e+00 1.4613299712026218e+00 -5 0 -5
1946 2 -1.8894235777096919e+00 4.8363958791653454e+00 9.0042841667437479e+00 1 1 0
767 2 3.9156021887648675e+00 8.5312556485886617e+00 2.4553883988843785e+00 -3 0 -1
528 2 8.9318350404071154e+00 2.2049273443844575e+00 9.8327415502968201e+00 -3 0 -2
916 1 7.3957695701479587e-01 5.3862853054117901e+00 1.6796101160063710e+01 0 0 0
440 2 1.5154865976395017e+01 1.7025582077414898e+00 6.0136156789647019e+00 -6 0 -3
789 2 9.5204889531985142e+00 1.8078331280276099e+00 6.6744902295543718e-01 -2 0 -1
360 2 1.3003123123728864e+01 8.6555451570713124e+00 2.7449149495478431e+00 2 0 0
707 2 -4.0457981346045990e-01 9.7057503722518863e+00 7.8325051118524929e+00 -1 0 -3
1584 2 -6.3403507535747272e-01 1.0620885552934367e+00 4.4790668741211119e+00 -1 0 1
39 2 1.5867688242806832e+01 3.6176865017227051e+00 3.2872267072358086e-01 -3 0 0
838 1 -7.6552489322112116e-02 1.0651783480874379e+01 1.4402997735936996e+01 0 0 -1
1080 2 1.3502771541032557e+01 6.1564808166831178e+00 9.6575753955820289e+00 0 0 0
975 2 6.4209309278885289e+00 2.7370545642418391e+00 1.2848661802397826e+01 -8 0 -3
98 2 6.1970096507462280e+00 1.0127166775194066e+01 4.7621466153673122e+00 -1 0 -1
1857 2 8.2223721618976526e+00 3.6203921906573737e+00 1.1500907447586517e+01 -2 1 1
735 2 2.7747353474932339e+00 1.0207100004467673e+01 1.4854524652653595e+01 -2 0 -5
632 2 2.3294926046797881e+00 7.0182738505000830e-01 2.4272765786250989e+00 -4 0 -1
954 2 8.5132522555829215e+00 2.4889116058258067e+00 6.2280300859227529e+00 1 0 1
674 2 5.6685744886284697e+00 2.1755014210623935e+00 1.7905619366760810e+01 0 0 -4
1945 1 -1.3977274782787048e+00 5.6099993558377523e+00 9.3075485238639875e+00 1 1 1
897 2 1.4260457811201334e+01 8.2330553460472391e+00 9.6414744454318981e+00 0 0 2
166 1 1.4137221843414034e+01 5.1439516297550458e+00 2.6550563775296099e+00 -4 0 -3
1582 1 1.3856173571069097e-01 1.5857227190464374e+00 4.7448341352787642e+00 -1 0 1
613 1 1.0237688626279780e+01 6.7813889242328358e+00 2.2409976426963150e+00 -3 0 -3
37 1 8.4638413496725633e+00 3.0311185224905728e+00 1.8914798345576472e+01 -3 0 -1
1494 2 6.0259165197460032e+00 2.8738030856466512e+00 8.8038440615272027e+00 4 0 3
664 1 1.3202703565031078e+00 6.5936621156557953e+00 1.4263991091960545e+01 2 0 4
415 1 8.9720727772182194e+00 3.0994455216032337e+00 1.4426719025426181e+01 1 0 -2
922 1 5.9999574718597692e+00 1.1635653148169123e+00 6.3833303133743895e+00 -4 0 -2
885 2 1.2375535920312162e+01 1.9734082967984165e-01 4.1148486929908694e+00 0 0 -1
361 1 5.5350408169030327e+00 9.1956567869587147e+00 2.0981867592993879e+00 0 0 -1
971 2 2.4375004147196853e+00 7.7040283580584390e+00 1.5189473364299660e+01 0 0 1
258 2 1.1246049652773422e+01 9.2870047233385478e+00 1.8715050820554556e+01 -1 0 1
571 1 -3.8756044989300062e+00 3.0112127592145908e+00 1.6378559142769419e+01 1 0 4
839 2 7.4386595142364875e-01 1.1119953579873750e+01 1.4476392469808406e+01 0 0 -1
748 1 -3.7031415102093383e+00 9.0986829754597807e+00 1.8375433685192029e+01 -5 0 0
225 2 5.1696634128436445e+00 8.5639705000632027e+00 1.3631975979687095e+01 -2 0 -2
245 2 1.0928592396599718e+01 3.5232898610037218e+00 1.4072966174786801e+01 -6 0 -5
791 2 1.6903964606282242e+00 3.3194507850622998e+00 1.3924034681091738e+01 -1 0 1
766 1 3.1389643301725680e+00 8.3123782907914734e+00 2.9525437331913085e+00 -3 0 -1
343 1 9.3653411310272325e+00 1.0514091756759157e+01 2.0584990719501590e+00 -3 0 1
544 1 -1.8606903547510196e+00 7.3735064438225137e+00 1.5476038501826133e+01 3 0 2
308 2 3.5061382807264554e+00 1.0428112787789026e+01 9.8799916567794668e+00 0 0 0
351 2 1.8065653443975496e+00 6.0025485323186807e+00 1.1211657143855762e+01 3 0 4
307 1 2.7411532546079047e+00 9.8849006598153402e+00 9.5130357071371900e+00 0 0 0
734 2 2.5928727368789399e+00 1.0616900927806569e+01 1.3420249941989333e+01 -2 0 -5
1171 1 4.7479727555132625e+00 6.7879075591901472e+00 4.4826719689755015e+00 0 0 0
362 2 6.2529211415528652e+00 8.5949940718318345e+00 2.3293359208922864e+00 0 0 -1
49 1 9.0197381217586550e+00 1.8450376043607180e+00 4.4911811129426953e+00 0 0 -1
284 2 1.1070994336956822e+01 3.5887195040097568e+00 9.2272187701705199e+00 -4 0 2
914 2 -1.2062146033794847e+00 6.2833739207667634e+00 6.4004916110182597e+00 1 0 3
933 2 1.3388823587420230e+01 6.4041972988276070e+00 1.2959561508298320e+01 -1 0 1
115 1 1.4630453377257844e+01 1.6136999118687834e+00 2.3731884427369336e+00 -5 0 -5
951 2 4.1728878901591404e+00 7.4448276665143807e+00 1.6470303412644501e+01 0 0 3
708 2 -4.2360759952032057e-01 9.7790908026288204e+00 6.2356263768846238e+00 -1 0 -3
559 1 -3.0653105781164580e-01 2.8440723782466564e+00 7.0208278424868418e+00 -4 0 0
646 1 -6.4625357286419227e-01 1.2787940219355423e+00 9.3191353309072511e+00 -4 0 -1
715 1 -1.1062457138486685e+00 7.4480107462399054e+00 3.3872627100576205e+00 0 0 1
665 2 1.9228721886785634e+00 6.0611245138832661e+00 1.3692898482784576e+01 2 0 4
940 1 -1.6617877503736889e+00 4.5098641416321623e+00 1.7362189513017658e+01 -3 0 -2
421 1 -1.8903301067453584e+00 1.2263126360228982e-01 1.5432100445242691e+01 0 0 0
532 1 2.7555884331005034e+00 3.1452685612797078e+00 4.6401432437264809e+00 -2 0 0
695 2 3.5838353649054255e-01 1.0159686785237922e+01 1.5588728467254935e+00 -3 0 -2
53 2 5.0473490774212992e+00 1.5946754198674420e+00 1.4118349101721861e+01 1 0 -2
572 2 -3.6078265702465324e+00 2.5020014441029854e+00 1.7195586789155502e+01 1 0 4
1911 2 -1.1520014744102229e+00 8.6446895877348933e+00 9.5106874675307616e+00 0 0 1
1480 1 1.1385348962127463e+01 1.4346244740423491e+00 1.1788511138997272e+01 1 1 -1
156 2 1.1943162748415235e+00 6.3159126264515724e+00 1.8178605040315020e+01 3 0 -4
915 2 -1.7103771611418397e+00 7.5941004475166771e+00 6.9673433598512506e+00 1 0 3
68 2 7.0350071853948881e+00 7.5889007097756513e+00 6.7715695295760403e+00 -6 0 -4
867 2 3.1860125921523315e+00 9.4440882405786652e+00 7.8903859619448315e+00 -3 0 -1
168 2 1.5082144852624550e+01 4.9767242248783683e+00 2.3662124118375112e+00 -4 0 -3
252 2 1.4484574818426749e+01 2.2214618926993150e+00 9.1044165037422271e+00 -5 0 1
128 2 6.0071752104284704e+00 3.9440562424594039e+00 1.7077082744572092e+01 0 0 -1
688 1 7.5359647412857811e+00 5.5570733211766754e+00 9.5076410781661949e+00 -2 0 0
1002 2 6.7371036877638142e+00 8.2900390781669930e+00 1.5325140195278889e+01 -1 0 -1
178 1 8.5004877976908517e+00 1.0180594413342634e+01 1.8926981100781479e+01 -3 0 -1
197 2 3.4961349170776890e+00 3.5839286522683982e+00 1.7205733884165802e+01 -3 0 -3
92 2 -3.0393835282851702e+00 2.3091046258261434e+00 1.3158371271216209e+01 -2 0 0
483 2 6.2272528058874794e+00 4.8041403320354545e+00 8.2942415530599849e+00 -1 0 0
741 2 -2.6225871572264929e+00 1.0099902664334230e+00 1.8962829187468390e+01 1 0 3
649 1 3.1808684136868126e+00 1.6847537201132521e+00 7.1165578915155612e+00 -3 0 0
946 1 -1.1946551386783220e+00 5.2835431386818579e+00 4.8690527294665085e+00 -1 0 4
927 2 3.5850163476855950e+00 3.4565603929926523e+00 9.8340329823856365e+00 -1 0 1
16 1 5.8106344007564747e-01 2.6984264771037463e+00 2.2276894929051032e+00 0 0 1
451 1 -2.7335302878721190e+00 1.0491415025645555e+01 1.1717711706665517e+01 0 0 -3
165 2 -5.4785148632955467e+00 4.6376207531292755e+00 1.8449883956497796e+01 4 0 -1
212 2 -8.8454677625754119e-01 7.0007676312805014e+00 1.9059267208587094e+01 -3 0 -1
661 1 1.1574907310106740e+01 3.5568341787359592e+00 1.7401440762887681e+01 -2 0 -1
987 2 9.1439577284075675e+00 9.8893922569598427e+00 1.5819420071434921e+01 -2 0 -1
67 1 7.6985840865009747e+00 6.8197523739826202e+00 6.8593050046368891e+00 -6 0 -4
682 1 2.8364531271434048e+00 8.8902016409390772e+00 1.8964101088386812e+01 2 0 3
309 2 2.1514545539287564e+00 1.0643638905973241e+01 9.1716543738094352e+00 0 0 0
716 2 -6.1920943039059195e-01 7.1457328022360329e+00 2.6333920670626210e+00 0 0 1
48 2 5.6534687654803992e+00 8.0160052689711172e+00 5.3194698711254480e+00 -4 0 0
533 2 2.1966184096341737e+00 3.9354602423626059e+00 4.7363224099015486e+00 -2 0 0
798 2 -1.6205707702806738e-01 1.7472063012163446e+00 1.2954527822254201e+01 -3 0 2
883 1 1.2000274643332411e+01 9.4532036669888075e-01 3.5413306117805781e+00 0 0 -1
17 2 1.5077640220561963e+00 3.0192912194311585e+00 2.1553604555233306e+00 0 0 1
280 1 1.5293833660536134e+00 7.6055424706107013e+00 6.2810953609727109e+00 -2 0 3
157 1 1.2343055506512139e+01 1.0584619747702899e+01 9.2008057104898970e+00 1 0 -1
1173 2 4.0740020643553443e+00 7.2756555145026525e+00 3.9071927372578941e+00 0 0 0
1039 1 -3.9130444670681559e+00 1.0735279652903603e+01 1.6363609688415384e+01 2 0 0
439 1 1.4845025382229833e+01 8.3687711867650061e-01 6.3419363158466604e+00 -6 0 -3
95 2 1.5012347443925171e+01 2.6374264089199699e+00 3.9509200598374923e+00 -2 0 -1
82 1 1.5343066342193534e-01 8.7531922150215351e+00 1.6478885274757165e+01 -3 0 -4
377 2 1.5139731257073212e+01 3.6845726560018166e+00 7.1462044526216628e+00 -5 0 -3
874 1 1.1726946500637849e+01 8.9110465874708993e+00 1.1376430783056000e+01 -4 0 0
863 2 -7.6421067763359929e-01 3.7414848920233106e+00 1.3911341791485684e+01 -5 0 -5
186 2 3.5461741308810861e+00 7.7207244673806041e+00 1.2419920702904871e+01 -6 0 -5
1001 2 6.3840054902555963e+00 7.2399956719125980e+00 1.6399950383749843e+01 -1 0 -1
516 2 5.9897152388911596e+00 1.0465077803885935e+01 8.1977390171949711e+00 0 0 -1
1592 2 1.4363227678177946e+01 7.8994371061684587e+00 5.6348528138449696e+00 0 0 3
51 2 8.4961120143336508e+00 1.0984840087531536e+00 4.1300357874378273e+00 0 0 -1
382 1 1.0349246367448270e+01 6.3640473173990486e+00 1.4390630641580822e+01 -4 0 0
925 1 2.8516931233382103e+00 3.0136932014180249e+00 9.4149750558057175e+00 -1 0 1
903 2 -9.1605577895863233e-01 8.1864887790931959e+00 1.2360052290913103e+01 -1 0 0
1591 1 1.4728350433177670e+01 8.4856209325360936e+00 6.3185826333363329e+00 0 0 3
285 2 1.1381399582884647e+01 2.6330953925462026e+00 1.0392400943292373e+01 -4 0 2
432 2 5.3092612499952825e+00 5.8021647022997165e+00 3.1380579498306305e+00 3 0 5
726 2 5.8539817311547466e+00 1.9747935586872207e+00 1.4756940587419420e+00 2 0 2
31 1 2.9089767970975240e+00 9.4700431947430053e-01 1.5712763911457195e+01 -1 0 -4
407 2 -6.2756440993063682e+00 3.2750714141835358e-01 1.8921681183667133e+01 -1 0 -2
163 1 -4.9026067687006396e+00 5.2880277004478806e+00 1.8900540945392585e+01 4 0 -1
154 1 7.8778327282232965e+00 6.6888876740303775e+00 4.4519732416836752e-02 3 0 -3
385 1 -3.3364544433092291e-01 1.0294003891554116e+01 1.8863255945944299e+01 -1 0 -2
960 2 5.4513147199739489e+00 4.5911404508685409e+00 1.1103848314632732e+01 0 0 2
465 2 -4.2918159672327763e+00 3.4490314174341535e-01 1.3228069063709073e+01 4 0 0
833 2 1.0030483171901222e+01 7.7032578894174319e+00 9.5497832739813973e+00 -5 0 1
902 2 -7.6059275359374290e-02 9.7320937358704374e+00 9.8153338948047697e+00 0 0 1
1061 2 8.5731798130093164e+00 7.2636001947835744e+00 2.9796486247142715e+00 -2 0 1
109 1 1.1519390222295741e+01 8.5245263992020242e+00 1.5350912599028318e+01 -1 0 -7
65 2 1.0881590229422274e+01 4.9981647662830075e-01 6.9123820075903213e+00 -5 0 -3
693 2 1.0711910654550092e+01 3.0641999142946186e+00 1.9803785520935160e+00 -1 0 3
527 2 8.6656692912128470e+00 1.6449193651521554e+00 8.4020329949320693e+00 -3 0 -1
1994 2 8.5617164738918774e+00 8.5418198232776898e+00 1.6564476859313462e+01 -2 0 -1
899 2 1.0838123254675541e+01 5.7746209735438558e+00 1.2650812657161168e+01 0 0 2
246 2 1.2547820517679284e+01 3.7047754307475094e+00 1.4039410256149923e+01 -6 0 -5
519 2 7.2620860961581215e+00 1.0620926018716247e+01 1.1637336266059290e+01 -3 0 -3
546 2 -1.0558475647745631e+00 7.6228170714357955e+00 1.5959003330437632e+01 3 0 2
446 2 7.0798053497249569e-01 4.2261360798416758e+00 1.1255186159519440e+01 0 0 0
633 2 2.9070513896439274e+00 1.8414756344418055e+00 3.5402794282423882e+00 -4 0 -1
740 2 -4.1639878655319276e+00 1.1949335172154145e+00 1.8896861332059967e+01 1 0 3
990 2 1.5648632240546762e+01 3.3773947322255443e-01 2.9275658716937740e+00 -3 0 0
145 1 1.0100652400432878e+01 7.4131302830196688e+00 6.1044631771919198e+00 -1 0 1
167 2 1.3570825467900931e+01 4.4585370875674890e+00 2.3265793254546749e+00 -4 0 -4
1482 2 1.0517518163404247e+01 1.0789212244765902e+00 1.2040494069710567e+01 1 1 -1
679 1 1.2268269247933020e+01 8.7650621872141024e+00 7.1913104640728847e+00 0 0 -2
666 2 8.2984749420676174e-01 7.1115516782804136e+00 1.3538014342560029e+01 2 0 4
1593 2 1.4028024532101046e+01 8.6494722064935896e+00 6.9890651679844353e+00 0 0 3
598 1 4.4506546258378457e+00 6.9076723148757289e+00 8.9651879642807515e+00 -5 0 0
417 2 9.0078245009101785e+00 2.8644410142755330e+00 1.5360559472047557e+01 1 0 -3
797 2 -6.9681081890069718e-01 7.7969882762048082e-01 1.1933755035791163e+01 -3 0 2
410 2 1.1587582580005362e+00 6.1289015624447662e+00 9.0853983567022549e+00 0 0 -2
196 1 2.6811161983282741e+00 3.8237468417227389e+00 1.7607221939169264e+01 -3 0 -3
278 2 -5.0091517523296032e+00 7.3344530921524891e+00 1.6272706556505813e+01 -3 0 -1
176 2 4.0668036725547356e+00 6.1697418595796867e+00 7.3152422462530300e+00 -7 0 0
383 2 9.5817132874887729e+00 6.7755215478921116e+00 1.4063950259826759e+01 -4 0 0
543 2 9.9858196143843596e+00 5.4000023692390657e+00 8.5467267240229425e+00 -1 0 1
518 2 6.1762256031813161e+00 1.0091227069061773e+01 1.2687736989176154e+01 -3 0 -4
464 2 1.2393161220999563e+01 2.2422351185031325e-01 1.2267941687383694e+01 3 0 0
1633 1 1.4011975962552231e+01 7.0700333104575934e+00 5.1782015988679742e-01 1 0 2
691 1 9.7455409847502334e+00 2.8190037587965824e+00 2.1088163222661667e+00 -1 0 3
111 2 1.0653794351440691e+01 8.7681566192859890e+00 1.5818177798389089e+01 -1 0 -7
79 1 7.3228046867442487e+00 4.9920424336687832e+00 1.7790127464182611e+01 -6 0 1
1085 2 3.3971200419687775e-01 5.0489673353890288e+00 4.7745289307865084e+00 2 0 0
1078 1 1.3280535784505473e+01 6.9471540512277592e+00 9.1023840506727911e+00 0 0 0
431 2 6.4498149217141760e+00 5.0168679572714456e+00 2.3477660572502321e+00 3 0 5
1536 2 1.2086617496624569e+01 1.0473707063112021e+01 8.6757215936167831e-01 0 0 0
739 1 -3.3242868440123456e+00 1.6784760052062253e+00 1.8775724516555385e+01 1 0 3
579 2 2.9762620069578984e+00 1.0213377491127032e+01 5.4056003542467588e+00 -1 0 1
730 1 2.4280549503884803e+00 1.6395910083125984e+00 1.1536895243382475e+01 0 0 -1
318 2 1.1825328819987368e+01 4.4358143304104001e+00 1.0180067290520607e+00 1 0 -1
525 2 -2.8594383087854096e+00 6.9313105801497521e+00 1.1828437339044603e+01 0 0 -2
370 1 -3.3395798426291279e+00 9.2336065608906566e+00 1.4445963916803510e+01 -6 0 -4
704 2 -3.1556519970155223e+00 4.9242245835819007e+00 1.3932879596593786e+01 -2 0 -1
458 2 4.5443083754378542e+00 1.0529032562855051e+01 1.6820332198748307e+01 -4 0 -2
626 2 6.1322790349699137e+00 9.5170300178427496e+00 1.0376162049683021e+01 -2 0 -1
526 1 8.7590612759893158e+00 1.3230294025569340e+00 9.3351830961600779e+00 -3 0 -1
118 1 7.7838672706923644e+00 4.3889407234045432e+00 1.5330496546303081e+00 -2 0 -3
372 2 -3.8502220597244881e+00 8.6149689462447157e+00 1.3894104553614303e+01 -6 0 -4
1370 2 8.5120199988448295e+00 8.8902999459835652e-01 1.6526574251416317e+01 0 1 0
201 2 1.3007643042003277e+01 4.0408735792586583e+00 1.0310938466389111e+01 -2 0 -6
615 2 1.0233789904667191e+01 6.1374400432311331e+00 3.0257687963777271e+00 -3 0 -3
1369 1 9.1759794777871857e+00 1.5901893263072515e+00 1.6753073427892826e+01 0 1 0
18 2 4.8984901295839167e-01 2.2965936513862562e+00 3.1410639923504498e+00 0 0 1
164 2 2.2406380521975509e+00 4.6784435808827203e+00 3.8985317109262835e-01 4 0 1
94 1 1.5138941330741602e+01 3.1957931766018448e+00 4.7256486529161492e+00 -2 0 -1
185 2 4.4405856601963754e+00 6.5661107514808306e+00 1.3045693663520293e+01 -6 0 -6
694 1 7.8117691544324763e-01 1.0799610474006133e+01 2.1796592856494441e+00 -3 0 -2
567 2 1.2004986965367435e+01 2.9155209126654862e+00 5.9651089607558507e+00 -3 0 1
724 1 5.8868777275870485e+00 1.6120469099701116e+00 2.3851015845207986e+00 2 0 2
796 1 1.1390388991119682e-01 1.0006024004323830e+00 1.2472056530828766e+01 -3 0 2
1635 2 1.4094407026503946e+01 6.4841899564277110e+00 1.2661679221799866e+00 1 0 2
430 1 5.5300790967573743e+00 5.3075528307488673e+00 2.3211864590593314e+00 3 0 5
1665 2 -1.0749771766228999e-01 2.2585304657199008e+00 1.8058864601827874e+01 -1 1 -1
213 2 4.7419661385036207e+00 6.5888991773573986e+00 8.7401606992886183e-01 -3 0 0
147 2 9.9199843120347229e+00 8.2123947664297692e+00 5.5708848248741925e+00 -1 0 1
996 2 1.3578054657193192e+01 5.9938689687434064e+00 4.0441355107403067e+00 1 0 2
97 1 5.8388094828152575e+00 1.0834611532757856e+01 4.1724236063496631e+00 -1 0 -1
482 2 6.4492968412893994e+00 3.7751883460072611e+00 4.6598576700906191e+00 1 0 1
1172 2 4.2973779398920673e+00 6.1894073582611462e+00 5.1222681087040014e+00 0 0 1
453 2 -2.9364682272384042e+00 1.0400214946393239e+01 1.2656046922795410e+01 0 0 -3
408 2 4.7494685266983344e-01 1.5469529625113194e+00 7.3117273458111609e-01 -1 0 -1
1514 2 9.0437593056787193e+00 9.5003928278554799e+00 8.4985931053579193e+00 -1 0 3
684 2 8.8994023939027826e+00 8.1225224356342327e+00 1.8275682686463176e-02 2 0 4
3 2 1.1001591760122533e+01 4.6979431199161361e+00 4.5217556406000865e+00 2 0 -1
553 1 1.2343018798842664e+01 1.5397420174009149e+00 7.2005521085454935e+00 -2 0 0
296 2 8.4604017380258156e+00 8.7859468154966969e+00 4.1487615830716003e+00 1 0 2
600 2 3.5495756013801052e+00 7.2230969247295693e+00 9.1232177829534820e+00 -5 0 0
1954 1 2.2153358654719435e+00 9.0210360397149305e+00 1.2121039024493978e+01 0 1 1
392 2 4.1947420297002393e+00 5.6435419972866150e+00 1.5340336138019001e+01 -2 0 -3
813 2 8.6501883937049335e+00 4.9608746851076884e+00 4.6972794882175508e+00 -1 0 0
363 2 5.7544185467729196e+00 9.5453788458890010e+00 1.1717436227322886e+00 0 0 -1
1086 2 1.2166739965605617e+00 5.5011120006764482e+00 3.6512217402971903e+00 2 0 0
200 2 -3.7126869171004366e+00 4.5253182700059575e+00 1.1314624276288098e+01 -1 0 -6
1489 1 5.6308218019060927e+00 3.2216691596647622e+00 4.6279594967953113e+00 2 1 1
155 2 7.9957514019330613e+00 5.8261023246297468e+00 5.8016645204655215e-01 3 0 -3
935 2 1.6829196802811744e+01 5.3651412161836314e+00 9.1929173360467586e-01 -2 0 0
345 2 9.4566070353448950e+00 9.8006019453082001e+00 1.4540373473508832e+00 -3 0 1
651 2 3.0554804933132726e+00 2.2264703351748603e+00 7.9499083551756193e+00 -4 0 0
853 1 3.2423598461782617e+00 3.8220003568367127e+00 1.2349725636275077e+00 -2 0 0
627 2 7.1111069386411669e+00 8.9328307428644269e+00 9.4129633368397396e+00 -2 0 -1
317 2 1.2474439227258600e+01 3.0453109131308906e+00 9.7617602549686433e-01 1 0 -1
69 2 7.6969389434845183e+00 6.5422933554907798e+00 7.7799988847218646e+00 -5 0 -4
706 1 -5.3046618729032313e-01 1.0294836747299927e+01 7.0381847163870956e+00 -1 0 -3
913 1 -1.0098651364496682e+00 6.9262191675969262e+00 7.1158718943506107e+00 1 0 3
71 2 1.2317695252963603e+01 6.9602954814085596e+00 9.2056988037035588e+00 0 0 0
588 2 6.8575373336292982e+00 1.2355381734538202e-01 2.8976805732081603e+00 1 0 1
1084 1 1.2540905142870777e+00 5.2839331270431638e+00 4.5984160196902994e+00 2 0 0
908 2 1.1023779092059598e+01 1.1204865428885991e+01 1.3762181979709126e+01 -1 0 0
20 2 8.1011158239930445e+00 8.1032773016662958e+00 1.2278841280427308e+01 -3 0 -4
281 2 1.4546871602990055e+00 6.7714966583448746e+00 5.7417395549993513e+00 -2 0 3
917 2 1.5504668962105717e+00 4.8485797870163259e+00 1.6785230839976713e+01 0 0 0
824 2 1.0659030281504975e+00 9.0792219695743750e+00 5.0327904802116974e+00 1 0 2
865 1 3.5452576630085466e+00 9.1296511475245516e+00 6.9675047715313756e+00 -3 0 -1
725 2 4.9784566024109038e+00 1.3515416710661436e+00 2.5102063096843188e+00 2 0 2
349 1 1.9989656929233561e+00 5.2795625075856032e+00 1.1861613053479262e+01 3 0 4
647 2 9.6867054656279983e-02 6.2826183543077618e-01 9.4259876345731293e+00 -4 0 -1
495 2 -1.4223565823888413e+00 3.3177977866782009e+00 1.1672384022966575e+01 -4 0 -3
703 1 -4.1576682123773399e+00 4.8092516506711362e+00 1.4178908293313729e+01 -2 0 -1
1 1 1.0310094239155349e+01 5.3424014990302444e+00 4.5071461408425746e+00 2 0 -1
879 2 1.2806631583179533e+01 8.2421308688824517e+00 4.1327804611032226e-01 -3 0 0
180 2 9.3355336078146429e+00 1.0632257046195582e+01 1.9014580786315594e+01 -3 0 -1
648 2 -3.3881349221561452e-01 2.1168189036285265e+00 9.7255223728887437e+00 -4 0 -1
211 1 4.7866721007094304e+00 7.0757052227349932e+00 1.7746075580277045e-02 -3 0 0
545 2 -2.6791787217017613e+00 7.3368518144809718e+00 1.6065129770693627e+01 3 0 2
689 2 7.2030063864491805e+00 5.9246615226875337e+00 1.0360221918958503e+01 -2 0 0
782 2 -6.1523373470856590e-01 1.1060335624819908e+00 1.6060310861844322e+01 -4 0 -3
750 2 -3.0398492057674797e+00 8.4223196032467467e+00 1.8294227991164711e+01 -5 0 0
316 1 1.2175764949391739e+01 3.7039021034012229e+00 1.6113422828973181e+00 1 0 -1
854 2 3.9059118800237060e+00 4.1442644233679822e+00 1.8811098714566157e+00 -2 0 -1
85 1 1.3872337044169605e+00 4.7557962708264547e+00 7.7920510676520562e+00 0 0 -3
103 1 1.2348822460262811e+01 1.0491607468935856e+01 5.2396591540594901e+00 1 0 3
411 2 1.0324100646376859e+00 7.5822862785228784e+00 9.5652271897694359e+00 0 0 -2
288 2 1.7526715134934140e+01 7.4463609053816731e+00 1.2199708953051458e-01 0 0 -1
283 1 1.1797046067002945e+01 3.0304403162534377e+00 9.5766740407316231e+00 -4 0 2
1391 2 1.2277182928283478e+01 3.8500848661891618e-01 1.6110431349716055e+01 1 1 -1
1491 2 5.8026698281521316e+00 2.7871818619801165e+00 3.7358225612969282e+00 2 1 1
224 2 5.4984488544736694e+00 9.7422666086946652e+00 1.4898210742742304e+01 -2 0 -2
900 2 1.1835283546739262e+01 4.9672112075145138e+00 1.1681537816162662e+01 0 0 2
681 2 1.1543448063944867e+01 8.1342413317833309e+00 6.9808337654677119e+00 0 0 -2
277 1 -4.3416973822851839e+00 6.6542464885350929e+00 1.6463762727192435e+01 -3 0 -1
251 2 -2.3030590865359954e+00 1.2420203518054749e+00 9.7069889275437173e+00 -4 0 1
404 2 8.7331343379954749e+00 1.5335901066845652e+00 1.3554774917908775e+01 2 0 2
184 1 4.4733414125827702e+00 7.4595275755483357e+00 1.2536728496081841e+01 -6 0 -6
199 1 1.3432904871364856e+01 4.7894998708599008e+00 1.0830743459115476e+01 -2 0 -6
918 2 7.8762823924903902e-01 5.8366860916398666e+00 1.5903664832585156e+01 0 0 0
941 2 -1.9987989489062761e+00 5.2533921461211408e+00 1.7823553152618825e+01 -3 0 -2
7 1 2.8465824595279354e+00 1.0831407471651454e+01 1.7497188545619849e+01 -2 0 0
884 2 1.1304492463582710e+01 5.4836482527511698e-01 3.0197601600454145e+00 0 0 -1
834 2 1.0665508555452597e+01 6.6113971841363890e+00 1.0581709265485580e+01 -5 0 1
936 2 -5.6504047606574992e-01 4.0959134707546525e+00 1.7918572608767775e+00 -1 0 0
947 2 1.6100606524558781e+01 4.5749748431708097e+00 4.7321291946983246e+00 -2 0 4
958 1 4.6372107578768631e+00 4.7090973016300932e+00 1.0571873474402544e+01 0 0 2
1060 1 7.6934103627339780e+00 7.6634005695641880e+00 3.2754536176369120e+00 -2 0 1
949 1 4.8433364407098356e+00 6.7884990763975566e+00 1.6701238764747231e+01 0 0 3
717 2 1.5986220950885386e+01 7.8434001169235108e+00 3.0586916787613032e+00 -1 0 1
731 2 1.5219097019339314e+00 1.3241802792320734e+00 1.1476536569349198e+01 0 0 -1
768 2 2.9702167749764561e+00 9.1224177586318458e+00 3.5226425715588463e+00 -3 0 -1
469 1 1.0990214719183379e+01 5.4564981967227180e+00 2.0892684690561475e-01 -6 0 -1
1956 2 2.3828009816470375e+00 9.2481236511244198e+00 1.1180447650449066e+01 0 1 1
406 1 -5.8823022996469181e+00 1.1897123346677572e+00 1.8976504050490675e+01 -1 0 -2
875 2 1.1695873394750237e+01 9.5506323325756810e+00 1.2123392326078507e+01 -4 0 0
120 2 7.2123759896606732e+00 3.8306277018446737e+00 9.8544364879521151e-01 -2 0 -3
338 2 6.0929131551395814e+00 7.0119755177420364e+00 1.1739561633042175e+01 0 0 -1
286 1 1.0199821228997781e+01 6.7590556008774483e+00 1.8914228170962087e+01 0 0 -2
205 1 -1.4706927230489986e+00 5.3459856014579072e+00 1.3757963455007753e+01 2 0 1
1909 1 -1.7491377263163788e-01 8.4388271087609326e+00 1.2899584214022600e+01 -1 1 0
54 2 6.2808767325222510e+00 1.2550836484191445e+00 1.4992071927033864e+01 1 0 -2
475 1 1.4661157296872359e+01 9.1779919429308219e+00 2.4512988981575963e+00 -1 0 3
1371 2 1.0071907617230851e+01 1.1588837754351629e+00 1.6559709814096149e+01 0 1 0
995 2 1.2644392834482725e+01 7.2042340435570047e+00 4.4996888079889965e+00 1 0 2
560 2 -3.7663835177680216e-01 2.0880022525285828e+00 7.6483247128727188e+00 -4 0 0
223 1 5.8189662517867209e+00 9.1853086108174296e+00 1.4133488829302653e+01 -2 0 -2
1855 1 8.8439837531539887e+00 3.7014006627531431e+00 1.0728706220314441e+01 -2 1 1
127 1 5.1978153382667687e+00 3.3969204975504463e+00 1.6801298211437437e+01 0 0 -1
662 2 1.1523922418400902e+01 2.6616281904706978e+00 1.7783211050492849e+01 -2 0 -1
244 1 1.1776466389801813e+01 3.0449692071589971e+00 1.3908702784288099e+01 -6 0 -5
994 1 1.3303075668287855e+01 6.5365962795904169e+00 4.8391676408067275e+00 1 0 2
1931 2 1.3067719895811248e+01 5.8932768684283952e+00 7.5521475081390479e+00 0 1 1
907 1 1.1791589882940569e+01 1.0623532579159491e+01 1.3684994488878511e+01 -2 0 0
207 2 -1.2864991425800421e+00 5.7664745195334222e+00 1.2911975721568540e+01 2 0 1
250 1 -3.2349320671660697e+00 1.5656342679707544e+00 9.8157108291267523e+00 -4 0 2
441 2 -2.2639405645812745e+00 3.2826419598022494e-01 6.6111541462414456e+00 -5 0 -2
86 2 7.7261018124445346e-01 4.1818575906743671e+00 7.2620456462457410e+00 0 0 -3
393 2 3.6759329335633808e+00 4.4626320417213678e+00 1.4393665765617978e+01 -2 0 -3
359 2 1.1942255316410741e+01 9.1385660435154623e+00 3.7605150893393264e+00 2 0 0
350 2 2.9417970732963425e+00 5.0443923402012159e+00 1.1582525837775561e+01 3 0 4
675 2 4.6852023972276342e+00 1.1469893055676081e+00 1.8508978092260932e+01 0 0 -4
849 2 1.8937179807927755e+00 7.2928309265597635e+00 2.2481104318960217e+00 1 0 0
977 2 6.1848299320467257e+00 5.1276096129602884e+00 1.4212356311589081e+01 -4 0 -2
1168 1 8.9615548843233164e+00 1.0723790155647460e+01 1.4531793772793231e+01 2 0 0
542 2 1.1087855277981086e+01 4.8446923401243165e+00 7.5912648874044963e+00 -1 0 1
524 2 -1.8379343517332718e+00 6.5587927783777138e+00 1.0680975172889591e+01 0 0 -2
457 1 5.4685653832360437e+00 1.0363665711055285e+01 1.6458068361601057e+01 -4 0 -2
862 1 -1.3822729088653585e-01 3.0280105799995343e+00 1.4009861160204345e+01 -5 0 -5
46 1 6.1136385848183732e+00 8.6426182366650899e+00 5.9758264713792260e+00 -4 0 0
683 2 3.7800640432893804e+00 8.6166818530117446e+00 1.9041461777027106e+01 2 0 3
494 2 -2.6907352629017431e+00 2.5926643681025121e+00 1.0969225132592330e+01 -4 0 -3
663 2 -5.5474457172261014e+00 3.5993141858703375e+00 1.6859341861259757e+01 -1 0 -1
575 2 8.2650049200213038e-01 9.1825630531100255e-01 4.9997657191472413e+00 -1 0 1
80 2 7.9537405098312712e+00 5.3290381351964502e+00 1.7153305569466962e+01 -6 0 0
1668 2 1.0460439702202601e+01 4.6739667792507635e+00 1.6976001960564908e+01 -2 1 -3
2 2 1.0398002697686721e+01 6.0710273152451739e+00 5.1909598783700979e+00 2 0 -1
384 2 1.0118542355581887e+01 5.9324612496143141e+00 1.5202587884129926e+01 -4 0 0
177 2 4.3704169076087567e+00 4.7550609939774020e+00 7.0064112947076023e+00 -7 0 0
898 1 1.0908283716316792e+01 5.3062826337191735e+00 1.1770190072874403e+01 0 0 2
1667 2 9.9601384900325485e+00 6.0977999776525422e+00 1.7416321467829285e+01 -2 1 -3
387 2 -9.6918310638308736e-01 1.0856593628619896e+01 1.8380514851587858e+01 -1 0 -2
1930 1 1.2841576808099806e+01 5.1359756222068267e+00 6.9774654318694358e+00 0 1 1
561 2 -1.2032177393955967e-01 2.3905959485714741e+00 6.1702254638831002e+00 -4 0 0
295 1 9.0741248651956887e+00 9.5006555001641484e+00 4.4176303182333170e+00 1 0 2
749 2 -3.3745631558267868e+00 9.7844096274405494e+00 1.8962391686913836e+01 -5 0 0
287 2 1.5921966692206210e+01 7.0145150500474740e+00 1.8303634776892649e-01 0 0 -1
970 1 2.9584168210216246e+00 8.3564113056446683e+00 1.5716152196725542e+01 0 0 1
680 2 1.2299401572715787e+01 9.4131478991519053e+00 6.4319268550155186e+00 0 0 -2
978 2 7.1968808178268873e+00 6.1107593640684978e+00 1.4882050819074092e+01 -4 0 -2
732 2 2.6283604771838847e+00 2.1443551949349651e+00 1.0731937788480684e+01 0 0 -1
959 2 4.6723515285372716e+00 5.5987814704719732e+00 1.0134404032823458e+01 0 0 2
599 2 5.0624803355347989e+00 7.6880660343234393e+00 9.1816374883644620e+00 -5 0 0
391 1 4.2692314071161057e+00 5.2834165934135502e+00 1.4435586815254899e+01 -2 0 -3
371 2 -2.6377246047120440e+00 8.7030475888807626e+00 1.4865320142971216e+01 -6 0 -4
386 2 6.9856525799163665e+00 1.0907415919368503e+01 1.4193510151657440e-01 -1 0 -1
1041 2 -3.8518093118427057e+00 1.0294494836579544e+01 1.5439978016216871e+01 2 0 0
409 1 1.5971840601690990e+00 6.7808153533008850e+00 9.6805114672421446e+00 0 0 -2
783 2 9.8573879823996080e-01 1.2357944592932355e+00 1.6223675165424492e+01 -4 0 -3
376 1 1.4653863250185712e+01 3.5664969664749719e+00 7.9787364801723584e+00 -5 0 -3
565 1 1.1965425455048100e+01 3.3206565261405672e+00 5.0989167099292931e+00 -3 0 1
878 2 5.7778258237503213e+00 9.0737962877560392e+00 1.8206287640572967e+01 -3 0 -1
932 2 1.2767495944118238e+01 7.5297645260655210e+00 1.2187327307019951e+01 -1 0 1
32 2 3.6344594788839979e+00 5.2837801940934681e-01 1.6196274525566547e+01 -1 0 -4
447 2 -4.2883500297343868e-01 4.4172357380333560e+00 1.0321306908782375e+01 0 0 0
1000 1 7.1468256810417810e+00 7.6676793115043775e+00 1.5978857578941607e+01 -1 0 -1
257 2 -5.2956292951452539e+00 8.7380882152997899e+00 1.8999638667446579e+01 0 0 1
799 1 8.7656395083547860e+00 1.0430540290802504e+01 6.7511445636543161e+00 -1 0 -5