LAMMPS data file via write_data, version 3 Mar 2020, timestep = 0

2016 atoms
2 atom types

0.0000000000000000e+00 1.7946059709086533e+01 xlo xhi
-1.5496077198518847e+00 4.6545767696769303e+01 ylo yhi
0.0000000000000000e+00 1.9087405626944808e+01 zlo zhi
4.4670925670257947e-02 -6.6618837336059933e+00 -2.0927209919264556e-02 xy xz yz

Masses

1 16
2 2

Atoms # atomic

579 2 2.9984471385103566e+00 4.2729805582913194e+00 1.8333318201269833e+01 0 0 0
223 1 4.5165749619503881e+00 3.6032344264585854e+00 8.5521084676059300e-01 -2 0 -1
995 2 9.3555411849150634e+00 4.0216828370786617e+00 3.9870464189352592e+00 3 0 1
654 2 1.4906100423206682e+01 1.2130838823714285e-01 4.5265218351277996e+00 -2 0 0
394 1 1.3884454922499430e+00 4.8174596274734869e+00 1.5810898983861286e+01 -3 0 -4
578 2 4.0525402529306271e+00 4.9421196880945324e+00 1.7458691424082961e+01 0 0 0
929 2 -7.6063918787200246e-01 2.7587526045924022e+00 5.6159229147516800e+00 1 0 0
531 2 7.6620849772261090e+00 4.5831038175169558e-01 2.3926492123020440e+00 -1 0 0
705 2 -1.4664145714548771e+00 5.7649477427287588e+00 1.0786985449441492e+01 -2 0 -1
302 2 5.8749329078329726e+00 6.1129031260243183e+00 1.8581667423850153e+01 0 0 -1
299 2 -4.2763655435170884e+00 3.7512870168910872e-01 1.3758438433643621e+01 -2 0 -2
896 2 2.8758008526083305e+00 7.5702703349404530e+00 3.0621948324011203e+00 0 0 0
561 2 6.3682419432345378e+00 -8.0168118075110018e-01 5.4281605667740633e+00 -2 0 1
406 1 1.2268261976272106e+00 1.8546101824343242e+00 1.1693076471475102e+01 -2 0 -2
434 2 1.5896280125590749e+00 1.0440514327940249e+01 5.0800998870279424e-01 -1 0 1
596 2 1.6761291999788996e+00 7.1802259591584470e+00 5.7284155164787585e+00 3 0 -2
788 2 3.0541088896955317e+00 8.7765602083603635e+00 1.8618180189442025e+01 -2 0 -1
320 2 1.1330539838626990e+01 8.7988364294117538e-01 1.4021261904211858e+01 -4 0 -3
881 2 9.2335398447588020e+00 3.5756660873099921e-01 8.3693483105798201e+00 -3 0 2
179 2 4.5560890460388059e-01 8.5206015078052442e+00 1.6267837294822620e+00 -2 0 0
53 2 1.0165830016326005e+01 2.4346154839686420e+00 1.6681093638763924e+00 2 0 0
184 1 5.1079166159136191e+00 -5.7143379007158612e-01 1.0044769477978976e-02 -4 0 -6
609 2 2.8815387498494567e+00 8.2446662024554929e-01 3.9263004022014059e+00 -3 0 0
1583 2 1.0507833185465026e+01 3.4903145349432823e+00 1.3560537699171812e+01 -1 1 1
67 1 3.9229711634694677e+00 1.0147591036940511e+01 1.5741511991468290e+01 -4 0 -3
295 1 6.6029314751381574e-01 5.2972273130419243e+00 2.2709425726474080e+00 2 0 3
407 2 7.8535182573248807e-01 1.8311484616944353e+00 1.2546885116991682e+01 -2 0 -2
707 2 3.8777140933364507e-01 7.8821856173745672e+00 1.3413132394654598e+01 -1 0 -1
82 1 1.4380905588160338e+01 9.3154913756338384e+00 4.7938637936251096e+00 -1 0 -2
448 1 6.2068107073785272e-01 7.9586150937520959e+00 8.7703638234158454e+00 -1 0 1
244 1 8.1386298655665499e+00 7.0071265286190982e+00 1.4803271233471389e+01 -4 0 -4
697 1 7.7285704473588330e+00 1.0304822232452613e+01 1.8783120560262809e+01 2 0 3
687 2 1.9108253684561918e+00 9.8674925127020474e-02 1.0911634771635269e+01 -3 0 0
977 2 6.8370299975365993e+00 -1.0230765917010165e+00 1.6022614560761991e+01 -3 0 -1
457 1 4.1784949430222329e-01 4.7718603099642554e-01 4.4599673152690897e+00 -2 0 -2
301 1 5.1348296819263242e+00 6.3931452567294631e+00 1.7944588644965428e+01 0 0 -1
591 2 -2.8786713408914633e-01 8.0698249480610347e+00 1.0126586052853444e+01 -4 0 -1
385 1 1.1309624853711022e+00 -8.1348764542455676e-01 2.0268030355224904e+00 0 0 -2
237 2 7.1969822500535781e+00 9.3654300182379142e+00 7.6683211670929481e+00 0 0 1
449 2 1.5779248780368706e+00 7.9076036601155231e+00 8.6039960872980714e+00 -1 0 1
524 2 1.5011562220852275e+00 5.8642245927553489e+00 1.4252127961475384e+01 -2 0 -4
585 2 1.3177883354162788e+01 5.2484226642468714e+00 1.1826190250062586e+01 -5 0 -4
523 1 1.4397111055895451e+00 6.6040084526738685e+00 1.3634314264145539e+01 -2 0 -4
658 1 6.3670174162608904e+00 8.8916879837348883e+00 1.2998466763141586e+01 -1 0 -2
206 2 5.5446415764463257e+00 5.4612117408213541e+00 1.1799667735241316e+01 3 0 0
275 2 1.0311842699405304e+01 -2.2729073736055616e-01 2.1555404540236096e+00 2 0 0
441 2 -3.0361369277498964e+00 6.7089129705071162e+00 1.3917438658662931e+01 -2 0 -1
151 1 8.6164969607956614e+00 1.8671252649444332e+00 2.2123189645760082e+00 3 0 0
781 1 -2.2872797012878836e+00 6.3758978444631786e+00 1.7302178923909022e+01 -2 0 -3
880 1 9.9782708900838326e+00 2.0024378422349787e-01 7.7320645941181452e+00 -3 0 2
626 2 4.5146447664416369e+00 2.5762161045113245e+00 1.7304248100772824e+01 0 0 -1
904 1 6.2778406762334065e+00 8.2308786404639367e+00 1.9252593882950351e+00 -3 0 2
703 1 -1.0217195294449937e+00 4.9349091647885839e+00 1.1043349687272931e+01 -2 0 -1
382 1 4.0681231894175740e-01 2.5751973869886964e+00 2.6380426927583263e+00 -1 0 1
621 2 -2.8608253627919722e+00 9.6509778220597724e+00 1.8360837361165206e+01 -3 0 -1
433 1 1.7668595081084204e+00 1.0387389956015149e+01 1.5053687364366146e+00 -1 0 1
54 2 1.1713682586127186e+01 2.3544617397185092e+00 1.5117983884785111e+00 2 0 0
978 2 5.9079155322458279e+00 -1.2646883622454284e+00 1.7241397983366795e+01 -3 0 -1
689 2 8.9203465840211349e-01 1.7696190419793525e+00 5.6582865628071977e+00 -2 0 0
560 2 6.3034360287744882e+00 -6.7264340518058408e-03 3.9512619268667915e+00 -2 0 1
166 1 1.0918106709259932e+01 1.0366175579842711e+01 4.9455347421662692e+00 -4 0 -3
652 1 1.5063060396665385e+01 9.1253241204732172e-01 4.0119988161370062e+00 -2 0 0
52 1 1.0942174275884437e+01 2.9492216972391505e+00 1.3880131725620442e+00 2 0 0
356 2 7.3391526867508805e-01 5.7952037115577326e+00 1.6978686273425147e+01 -4 0 -3
477 2 3.8628225413968185e+00 4.1988563815239770e+00 9.2092116509428728e+00 -1 0 2
500 2 -4.2605942150245841e+00 2.1028325426288097e+00 1.2493763959515817e+01 1 0 0
367 1 1.4011540987447779e+01 6.5371831202044817e+00 2.8356796040383774e+00 -2 0 0
806 2 1.2611038771364274e+01 8.2528791503386341e+00 3.1020972531962467e+00 -4 0 1
789 2 4.4160672325704891e+00 8.1537926827224148e+00 1.8031808520293364e+01 -2 0 -1
810 2 7.8518325187312907e+00 2.8270692253931067e+00 7.2129044699868166e+00 -4 0 -1
930 2 -2.0033376417186046e+00 3.1961630127713621e+00 6.2460001148323609e+00 1 0 0
702 2 6.1635858602095208e+00 2.3301924796188440e+00 1.5829420057880919e+01 -3 0 -3
501 2 -3.1307472037479194e+00 3.0438490244467333e+00 1.1899121309435982e+01 1 0 0
625 1 4.8018623512821526e+00 1.8253156752408803e+00 1.6773558711920074e+01 0 0 -1
776 2 3.7761996061327956e+00 -6.4993075527274791e-01 1.8884225998539456e+01 -2 0 1
101 2 3.4931947472981939e+00 6.5232263961069670e+00 8.4563345378662884e+00 -1 0 -1
384 2 2.0584162235043180e-01 1.9093707660695287e+00 3.3313240937887607e+00 -1 0 1
245 2 8.1269560333002353e+00 7.9123327930934391e+00 1.5157357578008625e+01 -4 0 -4
622 1 -1.9229313487841080e+00 3.9375400384560528e+00 1.3316627961198837e+01 -2 0 -2
624 2 -1.4067488299915349e+00 4.3896340945505017e+00 1.2595120867849568e+01 -2 0 -2
321 2 1.1250615497427329e+01 -4.4942253411931077e-01 1.4718886843686812e+01 -4 0 -3
35 2 1.5523103982144304e+01 -6.0263800476784746e-01 1.3667626584257169e+00 -2 0 0
180 2 1.7127637929493879e+01 8.1974582931347264e+00 8.7052830244886914e-01 -3 0 0
539 2 -3.0926924163642684e+00 -6.4820291110785522e-01 1.6842924535696437e+01 -4 0 -4
963 2 3.3551458181022999e+00 1.0537301306178581e-01 1.4499572170825575e+01 -3 0 -1
527 2 2.9421537867327974e+00 -1.0870430191311145e+00 7.5313107927653569e+00 -2 0 0
49 1 7.0585415860034209e+00 3.2347705525240844e+00 9.8333312405078797e+00 -1 0 0
183 2 1.4369652353730359e+01 3.6306572103719521e+00 4.0207193277815980e+00 -1 0 0
599 2 -3.6458191694757902e-01 9.3315648998352874e-02 9.0708714428281443e+00 -3 0 1
921 2 1.1108112385775115e+01 -5.8536791093064611e-01 9.2237378978616391e+00 0 0 -2
274 1 1.1187960474273904e+01 -1.8619996602267497e-01 2.5896228558532677e+00 2 0 0
685 1 2.3418934527556163e+00 -6.5474520238250367e-01 1.0476813406034250e+01 -3 0 1
135 2 1.8149788508650277e+00 2.9635427298393147e+00 9.6054490920201445e+00 1 0 -1
778 1 8.3994362381017176e+00 6.9457729368109611e+00 4.5490585395126759e+00 1 0 0
949 1 2.7374383568817304e+00 8.6747467507914289e-01 3.6926818137992423e-01 -1 0 2
993 2 1.3825188833854867e+01 -8.0926742212023128e-01 9.7798525290100393e+00 1 0 1
120 2 6.0775460858888213e+00 5.1944286246346962e+00 3.6491495087955972e+00 -2 0 -2
858 2 -1.8634823565616037e+00 7.4914743885470578e+00 6.6506933355357161e+00 -1 0 -3
640 1 -2.8828548243549945e+00 8.6992769546140210e+00 9.3136099780364336e+00 4 0 -1
753 2 1.1166149892924077e+01 2.6860733341039875e+00 1.5966785251689130e+01 -1 0 2
386 2 2.5055190254070170e-01 -6.3697799218390627e-01 1.7133845696602341e+00 0 0 -2
119 2 7.0470804227527708e+00 5.6945587232068968e+00 4.7851474318268572e+00 -2 0 -2
525 2 1.7321372249851779e+00 6.3089554941563177e+00 1.2749367208625316e+01 -2 0 -4
495 2 2.4758818726549592e-01 5.6378540127755263e+00 6.9809513751935697e+00 -3 0 -2
971 2 4.7570883952577336e+00 9.5223232470765371e+00 2.3295478915733145e+00 0 0 1
387 2 1.6760963347810129e+00 -2.0017453122995743e-01 1.5508236138023928e+00 0 0 -2
212 2 1.1208682137334701e+01 3.0471109793877487e+00 7.8538432490245986e+00 -5 0 -2
701 2 7.3116825597276955e+00 3.3137507173331766e+00 1.5655753325134846e+01 -3 0 -3
5 2 4.3558091368899881e+00 6.2108694205389732e+00 2.2934680666419687e+00 1 0 0
470 2 1.1346019045522883e+01 6.2122008990896322e+00 1.4299230861903711e+01 -7 0 -3
471 2 1.1782665646852088e+01 4.8655818235222066e+00 1.5008818403421380e+01 -6 0 -3
708 2 -6.8481722215958429e-01 8.1459062013768069e+00 1.2488647347101688e+01 -1 0 -1
506 2 1.5196630594101910e+01 9.6736999416603791e+00 2.1261179938005981e+00 -4 0 -2
46 1 1.0975724013691918e+01 4.7775120297556173e+00 3.4499131726645973e+00 -3 0 0
992 2 -2.5817265846626145e+00 -5.4695258094432053e-01 9.4667705961310666e+00 2 0 1
856 1 1.5312022467943493e+01 7.2829452083584911e+00 7.1953338734910401e+00 -2 0 -3
627 2 4.0844338521857892e+00 1.6180496251241410e+00 1.6121053482539352e+01 0 0 -1
111 2 -2.2281471422820509e-01 -4.6693226864831239e-03 1.7953382675354160e+01 1 0 -4
869 2 1.3203981965554849e+01 4.4268539919150731e+00 6.1016964639898230e+00 1 0 0
16 1 7.3988598575497262e+00 2.8538456882508401e+00 1.2802493604290200e+01 0 0 1
761 2 8.5132441409406656e+00 -2.9217376317858035e-01 5.4982172063534354e-02 -3 0 2
974 2 1.1234527893444461e+01 5.8235703629932267e-01 1.7083964674760097e+01 -4 0 -2
118 1 6.5608922005858723e+00 4.9076859365355396e+00 4.5031367124844186e+00 -2 0 -2
278 2 1.2828960599454309e+01 8.3348077496753774e+00 5.8485528396936441e+00 -4 0 -1
623 2 -2.6974909191879086e+00 4.5086674904798771e+00 1.3511311007803618e+01 -2 0 -2
1668 2 5.5829446156642000e+00 8.4741538189033463e+00 1.3415006115907884e+01 -1 1 -2
644 2 1.0232598912547884e+01 -2.9149651024294654e-01 1.2513057087802428e+01 -4 0 -3
573 2 1.2603079820714274e+01 -1.4399245829293528e+00 4.5721369622013182e+00 2 0 4
950 2 3.5249608014470772e+00 3.3104143989513868e-01 5.6085321394257270e-01 -1 0 2
239 2 5.6912165961130228e+00 5.5953550257686322e+00 1.4454697158589546e+01 0 0 0
716 2 4.1523657492297072e-01 1.8434661477922640e+00 1.8706770967525518e+01 1 0 1
717 2 6.1730763236395081e+00 2.9402791634128009e+00 3.9072310496084744e-01 1 0 2
240 2 4.9785645014546880e+00 6.9084513875404099e+00 1.4993811104383656e+01 0 0 0
516 2 -3.5500388723892176e+00 8.3071865822658193e+00 1.2014207884444575e+01 0 0 -1
17 2 8.3243005409760311e+00 3.1694984436052955e+00 1.2843938867260126e+01 0 0 1
779 2 9.0740650885936986e+00 7.0326656695787015e+00 3.8035217031639328e+00 1 0 0
277 1 1.2390352531572001e+01 7.5091344168997782e+00 6.0192089878904191e+00 -4 0 -1
645 2 1.0522423687040421e+01 -6.6236410285867442e-01 1.1027457757042118e+01 -4 0 -3
613 1 -3.1700454152024196e+00 2.3921809691262172e+00 1.5997110730130476e+01 -2 0 -1
246 2 7.1788850788317795e+00 6.6827532146941220e+00 1.4699520259416767e+01 -4 0 -4
238 1 5.6324807048592866e+00 6.2003841479993644e+00 1.5249699447776329e+01 0 0 0
522 2 8.3140907312790429e+00 3.9863202051826119e-01 1.0495677086917873e+01 -5 0 -2
715 1 7.0958292219695265e+00 2.6734204365278131e+00 2.2927733673628228e-01 1 0 2
115 1 1.1533573959311706e+01 5.6129977179489137e+00 9.1169903307774955e+00 -5 0 -5
426 2 -6.3146191479125866e+00 5.7742782571457205e+00 1.8399559143172333e+01 -1 0 0
494 2 -1.0344766253833424e+00 5.2325357909880115e+00 7.7146874259335156e+00 -3 0 -2
459 2 -4.0869656774180285e-01 1.3232676175171698e-01 4.8093641168814125e+00 -2 0 -2
259 1 8.2519991896775888e+00 9.5491444485704271e+00 4.5635168667391151e+00 -1 0 0
933 2 -1.3894887302825190e+00 9.3528924068188779e-01 1.3350181612200085e+01 -2 0 -1
857 2 1.4581161708734268e+01 7.4172847668678568e+00 6.5534832506692391e+00 -2 0 -3
868 1 1.3068988079224416e+01 5.0764609055201388e+00 6.9129285740601887e+00 1 0 0
511 1 1.3703472931815035e+01 -5.9361998426341822e-01 9.4330137035756723e-01 1 0 1
18 2 7.0757616341960805e+00 2.6544910097133609e+00 1.3702252715707361e+01 0 0 1
276 2 1.1180012619739973e+01 4.8578601093151041e-01 3.2956318488976737e+00 2 0 0
310 1 7.8715580206296742e+00 7.3387083271844755e+00 1.0944515107288929e+01 0 0 -2
785 2 -4.7932595655798185e+00 4.2802389797609708e+00 1.8216060707719532e+01 -3 0 -3
870 2 1.2736266567212535e+01 5.8809093905766714e+00 6.4116471205527885e+00 1 0 0
211 1 1.1544896728298266e+01 2.2522666420252495e+00 8.2600759850947316e+00 -5 0 -2
841 1 -1.1783695708403235e+00 -1.2789283415927775e+00 1.6054949942283312e+01 -5 0 -5
981 2 1.1975654553233262e+01 8.2743375538253296e+00 1.0625992156912266e+01 -2 0 0
643 1 9.7678556687471669e+00 -3.6367252718349885e-01 1.1680256839344651e+01 -4 0 -3
600 2 -8.3442713726140827e-01 1.4258992326995976e+00 9.5657263651537097e+00 -3 0 1
354 2 8.6991853809375552e+00 9.4333942550619589e+00 9.2932445577592695e+00 -1 0 0
991 1 1.4616289115088005e+01 -1.1258379432399295e+00 9.3227021728135355e+00 1 0 1
116 2 1.1860081303933116e+01 5.3756406982407263e+00 1.0005969762653182e+01 -5 0 -5
224 2 3.9052392701729244e+00 3.7622147229777747e+00 1.2884812365696899e-01 -2 0 -1
845 2 7.1290885433669473e+00 -6.5624501793176060e-01 1.3263479006972354e+01 1 0 1
48 2 1.1847199563880480e+01 4.7248719912467694e+00 3.7702779574589007e+00 -3 0 0
117 2 1.2315999944269491e+01 5.4506773385552760e+00 8.4393973642878883e+00 -5 0 -5
931 1 -1.0544496842099012e+00 1.5941440704071672e+00 1.3958271407472557e+01 -2 0 -1
429 2 -5.5268045404362729e+00 6.6373837502656574e+00 1.6428352568058848e+01 0 0 -1
175 1 4.0485501611073271e+00 -1.2779719507579672e+00 1.3938273673368471e+01 -5 0 1
428 2 1.1739044702762762e+01 7.8254381437350773e+00 1.7226792875394128e+01 -1 0 -1
961 1 3.1566895159061303e+00 1.0302342444098818e+00 1.4739719427602044e+01 -3 0 -1
42 2 4.6370302312990948e+00 4.8244257690038088e+00 7.2259321442194615e+00 -2 0 3
726 2 -1.8425797678636502e+00 8.9390528732192776e-02 6.9600992813197076e+00 2 0 1
876 2 1.0748704752193387e+01 7.9907532353553918e+00 1.2330606462497965e+01 -3 0 1
769 1 -2.4931589264237637e+00 4.2741128291567696e+00 7.6064123686055582e+00 1 0 -3
1002 2 1.0701931582217764e+01 1.8335152535643719e+00 5.3290779105921446e+00 -1 0 1
912 2 1.3576644124849944e+01 -2.0923920221188830e-01 6.4651947300419792e+00 -2 0 1
712 1 -1.6919326754492623e+00 -4.0127187622170690e-01 1.2198631429591511e+01 0 0 3
41 2 5.3950567140872145e+00 4.8351048533132905e+00 5.8435164122945240e+00 -2 0 3
85 1 1.0068822561720832e+01 -9.1695876695627254e-01 1.7821519349698555e+01 1 0 -3
344 2 -5.0737514021640591e+00 -1.2501454266336984e+00 1.6061691877493427e+01 -1 0 1
932 2 -1.4730043107373070e+00 2.4659502845865431e+00 1.3788504138872522e+01 -2 0 -1
843 2 -4.9974958594986241e-01 -8.6576913920080778e-01 1.5445341469568051e+01 -5 0 -5
213 2 1.1014052604465293e+01 1.5148185582099165e+00 7.9025148908232525e+00 -5 0 -2
251 2 3.6565122315235361e+00 9.2533073181185710e+00 5.8568676959327179e+00 -3 0 1
575 2 9.7472141090586746e+00 9.1959623697386004e+00 1.6567276424412569e+01 0 0 0
338 2 1.9887526250358807e+00 2.5511290594417222e+00 2.6156714701925901e+00 -1 0 -1
938 2 1.3159480749525784e+01 4.0286469421968647e+00 8.9351207002785926e-01 1 0 1
969 2 -2.2522874683082206e-01 3.6794053550416175e+00 9.0333110255631830e+00 -1 0 1
545 2 2.9682844715236731e+00 2.5031790302981740e+00 1.2025859556035986e+01 2 0 1
962 2 3.5745241362465165e+00 1.5686424971363100e+00 1.4056897582273328e+01 -3 0 -1
937 1 1.3455286401404770e+01 4.9687983701886766e+00 7.6673812743374870e-01 1 0 2
40 1 4.7477486566236351e+00 4.3285440831064426e+00 6.3600508485456890e+00 -2 0 3
786 2 -3.8032565884746661e+00 3.4836421632995442e+00 1.7266457095677087e+01 -3 0 -3
465 2 7.6572256854801068e-02 9.3516098242617591e+00 8.2112175995508547e+00 2 0 0
724 1 1.5215366828448104e+01 4.7952644475100970e-01 6.8119148016211533e+00 1 0 1
784 1 -3.8665574924517809e+00 4.1386402314099753e+00 1.7972243557788254e+01 -3 0 -3
967 1 1.7933922684969250e-01 2.8023143896111353e+00 8.9883522671323846e+00 -1 0 1
553 1 1.0342125935660400e+01 6.4750016658396561e+00 1.3114692886866408e+01 -5 0 -2
681 2 7.8215203704965708e+00 1.3906709423179660e+00 1.7059029905248206e+01 -3 0 -3
649 1 6.3757700152416152e+00 1.9895903202757603e+00 6.8284261101263199e+00 -4 0 0
650 2 5.9041502658588012e+00 2.8031354086121061e+00 6.5428965890230613e+00 -4 0 0
51 2 7.7576702916970071e+00 3.8713813587917922e+00 9.6401889971007435e+00 -1 0 0
512 2 1.3116513190221758e+01 -2.9537780114719814e-01 1.6409635570296439e+00 1 0 1
945 2 2.0962126542330557e+00 4.9323290167373264e+00 4.6500843612932483e+00 0 0 3
673 1 -3.6231247321652300e+00 8.1167767305511642e+00 1.8876842674888824e+01 0 0 -4
939 2 1.3380780533881858e+01 5.4522043029314595e+00 1.6171995724918677e+00 1 0 1
397 1 1.6443455260466024e+01 5.3586478126336150e+00 4.1813100439979065e+00 2 0 0
127 1 8.9110843284859200e+00 4.0870470671721453e+00 1.8485309389631489e+01 -2 0 -2
128 2 8.1782814337763874e+00 4.4596428771568704e+00 1.9014152147587719e+01 -2 0 -2
1407 2 -1.4237537517828822e+00 4.4709268645804663e+00 4.7014096628017743e+00 3 0 0
1584 2 1.0977791520874872e+01 9.8095828902914146e+00 1.5958829297953139e+01 0 0 0
928 1 -1.7032723895780340e+00 2.8405051242143085e+00 5.3962402654455666e+00 1 0 0
777 2 4.7110817271692644e+00 3.6371702195689326e-01 1.7890504092494474e+01 -2 0 1
152 2 8.6102319643688912e+00 2.4598185066296807e+00 2.9851695755125380e+00 3 0 0
439 1 -3.5860283192177747e+00 6.1883587493901437e+00 1.3264368705791931e+01 -2 0 -2
350 2 1.6796886188088202e+01 1.2129891003234299e+00 7.1747292377299876e-01 2 0 4
279 2 1.1447646980243366e+01 7.5917551741771181e+00 6.2541027512820957e+00 -4 0 -1
392 2 3.5560803743447993e+00 8.6076875611323853e+00 1.2045539039581273e+01 -1 0 -1
783 2 -2.8688420640536392e+00 5.5727712078261398e+00 1.7419259097642882e+01 -2 0 -3
505 1 1.5052320134973797e+01 8.8851362365459501e+00 1.6549482939255780e+00 -4 0 -2
994 1 8.7696940831249233e+00 3.3894599360831625e+00 4.4365155752282188e+00 3 0 1
725 2 1.4940420851835263e+01 8.5241022345291784e-01 7.6525139160617695e+00 1 0 1
231 2 6.6830020177612512e+00 -8.1179141424024037e-01 8.9060250750253349e+00 0 0 -2
129 2 9.7200480967508227e+00 4.5707665437333347e+00 1.8781527958486912e+01 -2 0 -2
927 2 -3.1030952902118401e+00 -1.1132321103601699e+00 1.2694183905645181e+01 2 0 2
173 2 1.1144425597418367e+01 2.4816711643860874e+00 1.0069983732644690e+01 -1 0 -2
311 2 8.3301440203263617e+00 6.5274068632731730e+00 1.0592318492229253e+01 0 0 -2
905 2 6.1592235724565931e+00 7.2699347793189961e+00 1.9641405374980974e+00 -3 0 2
529 1 6.9890741218035410e+00 -2.9918911473224874e-01 2.3752216602022491e+00 -1 0 0
462 2 9.4672463831526326e+00 6.5503912437083649e+00 7.7024409053606462e+00 -4 0 -2
651 2 6.2530371680459016e+00 1.3437869760755947e+00 6.1364006489434431e+00 -5 0 0
996 2 7.8494225095298020e+00 3.8413199318111779e+00 4.4607389630944532e+00 3 0 1
611 2 9.8450714861932838e+00 5.1331303761391016e+00 9.1129496363958555e+00 -1 0 2
747 2 -2.1484532498229143e+00 7.5872055110708043e+00 1.5805194623035199e+01 -2 0 0
750 2 6.2226080192779500e+00 6.9837060634593886e+00 1.0808757079868574e+01 -3 0 1
749 2 4.7145188905327053e+00 7.2596886689796989e+00 1.0893271239639471e+01 -3 0 1
102 2 3.5956857104392350e+00 7.9339719546039760e+00 7.6915040144942193e+00 -1 0 -1
497 2 5.0240200894204765e+00 1.1066795083269532e+00 1.0650135557556462e+01 0 0 1
498 2 4.7098218143040773e+00 1.2068073693838954e+00 1.2124753611100278e+01 0 0 1
395 2 2.2411518576527545e+00 4.8233337559554768e+00 1.6350015560190467e+01 -3 0 -4
925 1 -3.9070189964940596e+00 -1.1572892158528225e+00 1.3346555569469389e+01 2 0 2
349 1 1.7006986647179232e+01 2.1197308799624257e+00 4.8697360770862397e-01 2 0 4
679 1 7.8898563982257510e+00 1.0302181245512494e+00 1.7909655241602810e+01 -3 0 -3
398 2 -1.3415797037494270e+00 6.0572178291115142e+00 4.8151022417527818e+00 3 0 0
540 2 -4.1053482518993718e+00 3.1856381863640926e-01 1.7596971955032092e+01 -4 0 -4
122 2 7.3800965931802232e+00 1.0076853644517836e+01 1.5690446509798225e+01 -2 0 -1
123 2 7.6658639044024390e+00 9.6854629594645019e+00 1.7177005196615657e+01 -2 0 -1
943 1 2.6455283146355084e+00 4.1726448895063593e+00 4.8280966364171638e+00 0 0 3
985 1 1.2819560685414499e+00 8.4534092075258034e+00 1.8993499770384954e+01 -2 0 -3
590 2 -1.8181040199620386e+00 8.1365773106186072e+00 1.0371686681313072e+01 -4 0 -1
220 1 8.7464706080267884e-01 2.2513411297178605e+00 1.5702361621670413e+01 -2 0 -3
172 1 1.0952471544856134e+01 2.4209726392831175e+00 1.1045403077755116e+01 -1 0 -2
298 1 -4.7381726098565196e+00 1.2423087324075759e+00 1.3748699253740689e+01 -2 0 -2
680 2 8.7939007763548425e+00 6.5885295753238493e-01 1.7928930701386868e+01 -3 0 -3
745 1 -2.4193047845965765e+00 8.0910331232462340e+00 1.5017377325456133e+01 -2 0 0
538 1 -3.8621651244960074e+00 -5.1816180541065737e-02 1.6739198832229448e+01 -4 0 -4
944 2 3.4283392303927416e+00 4.4676848367454980e+00 5.3951547664550707e+00 0 0 3
100 1 3.0968734286013020e+00 7.4024314823722008e+00 8.3673563117625349e+00 -1 0 -1
1667 2 7.0037742658981283e+00 8.1897850454232231e+00 1.2692617672078351e+01 -1 1 -2
352 1 8.1886092865380515e+00 8.7290069875493632e+00 8.7939069736831250e+00 -1 0 0
174 2 1.0645847265042837e+01 1.4959057740387949e+00 1.1183095357136891e+01 -1 0 -2
388 1 1.3657579680279978e+01 2.2077120508044179e+00 1.2364214748696738e+00 -1 0 0
84 2 1.5217853969537337e+01 8.7978559608135445e+00 4.5635428929835085e+00 -1 0 -3
686 2 3.2736736711880909e+00 -4.2601159706819303e-01 1.0588872960354214e+01 -3 0 0
460 1 9.6334612081209983e+00 7.3926481843635390e+00 7.2054068908382449e+00 -4 0 -2
607 1 3.3149533891002267e+00 7.2553724434936573e-02 4.3111783920984470e+00 -3 0 0
672 2 3.6588709572379896e-01 -6.1337793333367241e-01 6.9826180867127530e+00 -3 0 -1
919 1 1.1653192632366968e+01 -7.8765944676058963e-01 9.9918103712790973e+00 0 0 -2
589 1 -9.9606864145377871e-01 7.7414683996416915e+00 1.0798042125557805e+01 -4 0 -1
595 1 9.9353736885273469e-01 6.5628772183199970e+00 5.4757297272938601e+00 3 0 -2
528 2 2.6457347416304455e+00 -3.3080213919686785e-01 6.1961103151855728e+00 -2 0 -1
109 1 6.2879533291045675e-01 3.5096052457901483e-01 1.7673447341626805e+01 1 0 -4
615 2 -3.3096730669390015e+00 1.4283064220042188e+00 1.6175269103515653e+01 -2 0 -1
840 2 1.3763299590446643e-02 9.8900271464268634e+00 6.2408169659950756e+00 0 0 -2
461 2 8.9665628388007921e+00 7.3900937050631672e+00 6.4822994107047895e+00 -4 0 -2
987 2 9.5212329639760185e-01 7.6508003493915879e+00 1.8567303672539769e+01 -2 0 -3
408 2 5.9165970118074629e-01 2.1416372991033303e+00 1.1012448067096836e+01 -2 0 -2
507 2 1.4796334401350006e+01 9.1981195239360698e+00 7.4425076162900106e-01 -4 0 -2
182 2 1.3253477921083533e+01 2.5665371530253633e+00 4.5466743914421013e+00 -1 0 0
598 1 -1.0461471221326772e+00 4.9270983843289873e-01 9.6415510520976859e+00 -3 0 1
368 2 1.4428168412163780e+01 7.3224113562537134e+00 2.3913387038924410e+00 -2 0 0
1914 2 6.8312971825050690e+00 8.3855611112643498e+00 1.0981181261495698e+00 -3 0 2
475 1 4.2814127297532147e+00 5.0129593668388335e+00 8.8524277830521232e+00 -1 0 2
313 1 -3.7510592945641585e+00 1.0410811712498568e+01 1.5124609121814878e+01 -3 0 -3
526 1 2.6417228032420002e+00 -2.5217900994435194e-01 7.1476699587045092e+00 -2 0 0
133 1 2.7236780613061926e+00 2.9713660857259256e+00 9.8975917417631294e+00 1 0 -1
610 1 8.9032947521221377e+00 5.1855584893138698e+00 8.8569050031826499e+00 -1 0 2
675 2 -4.3366299525052430e+00 7.7133209091229968e+00 1.8367524382808039e+01 0 0 -4
235 1 6.6526773751248509e+00 9.8315888357807495e+00 6.9618724779092158e+00 -1 0 1
300 2 -4.5027696341858610e+00 1.7255172691672422e+00 1.4593872172729565e+01 -2 0 -2
36 2 1.6000915929901836e+01 -1.0228444896437372e-01 2.7096619934117858e+00 -2 0 0
782 2 -2.7376943265436746e+00 7.0935013553641788e+00 1.7828037601076691e+01 -2 0 -3
690 2 1.5914013554074022e+00 3.1658745337245717e+00 5.7134193285339565e+00 -2 0 0
515 2 1.3222825226582348e+01 8.7067501386077097e+00 1.2851267387372294e+01 -1 0 -1
312 2 7.9291505841305083e+00 7.8915370161731442e+00 1.0128913240164916e+01 0 0 -2
113 2 7.5133027176956775e+00 8.1751631844167694e-01 1.5125592403500258e+01 -2 0 -1
844 1 6.6020745072450513e+00 -1.0290991874384496e+00 1.2538916451048102e+01 1 0 1
393 2 3.3341060737863546e+00 9.0601054223079593e+00 1.0646690250659114e+01 -1 0 -1
222 2 1.7644283727948027e+00 1.8611478745318246e+00 1.5466940576220692e+01 -2 0 -3
6 2 5.1148149689187346e+00 4.9234664548860794e+00 1.7993565728428007e+00 1 0 0
315 2 -4.7440317244281038e+00 1.0367343682242078e+01 1.4876429598817372e+01 -4 0 -3
178 1 -1.4498590711249609e-01 7.7822617634448452e+00 1.4354767913939916e+00 -2 0 0
114 2 8.7135810839217811e+00 -8.9696858125774437e-02 1.4882508914728986e+01 -2 0 -1
425 2 2.8800576847408260e-01 5.0445848828500539e+00 6.4878742790088373e-01 -1 0 1
544 1 3.7469769676441924e+00 2.4999880636623431e+00 1.2646007439191942e+01 2 0 1
559 1 6.0044402707745146e+00 -1.2663868657043942e-02 4.8880683204174051e+00 -2 0 1
1001 2 1.1763437372893152e+01 6.9372350112418957e-01 5.2518591049616159e+00 -1 0 1
496 1 5.0360395779819402e+00 5.9660463053896651e-01 1.1460030142494873e+01 0 0 1
503 2 5.6206404897069140e+00 1.3112393972272276e+00 8.1033966498059282e+00 0 0 0
337 1 2.9704988603101610e+00 2.6269330919905451e+00 2.6740536071924952e+00 -1 0 -1
176 2 5.0175281608755569e+00 -1.1224325753382365e+00 1.3660677327980636e+01 -5 0 1
221 2 2.7458646149224109e-01 1.8537355278080185e+00 1.5033568243093427e+01 -2 0 -3
502 1 4.8331808545454233e+00 1.0696720567864788e+00 8.6234881474176799e+00 0 0 -1
583 1 1.2428249160313065e+01 4.6606667786636757e+00 1.1548556234160733e+01 -5 0 -4
584 2 1.2766058605712889e+01 3.7370197152508249e+00 1.1532163254221013e+01 -5 0 -4
641 2 -2.6822769171238452e+00 8.0070817556051956e+00 8.6012053903793095e+00 4 0 -1
110 2 4.9148941077760533e-01 9.5640595105160697e-01 1.6960679033382739e+01 1 0 -4
389 2 1.4173346110491606e+01 1.7979848073698812e+00 5.0284524556729149e-01 -1 0 0
47 2 1.0928463623994851e+01 4.0946813440937397e+00 2.7144024274994440e+00 -3 0 0
207 2 6.2399291168162403e+00 4.2808314221868482e+00 1.2682309243255489e+01 3 0 0
808 1 8.7714749134006222e+00 3.1537711312760859e+00 7.2073905501900777e+00 -4 0 -1
65 2 2.2458932813445842e+00 4.8391477859149523e+00 1.0809809798095142e+01 -2 0 -3
577 1 3.4041823920830154e+00 4.1541758736545065e+00 1.7469198295140099e+01 0 0 0
830 2 3.1252959648628886e+00 9.6758924845580054e+00 3.8958456380378808e+00 -3 0 0
1000 1 1.1306886958393459e+01 1.3724122327908979e+00 4.7219166769140610e+00 -1 0 1
294 2 1.4272089828380343e+01 2.2109464376461343e+00 9.8698546206658904e+00 0 0 -3
390 2 1.4033317862594496e+01 1.7190820415803105e+00 2.0020871676050378e+00 -1 0 0
297 2 -1.7239405853651935e-01 5.4022079190732830e+00 2.7898308551661697e+00 2 0 3
521 2 7.7747805626489850e+00 1.5492916901174842e+00 9.6072310897803774e+00 -5 0 -2
513 2 1.3348963551049087e+01 -2.2466854045765428e-01 1.3140583797060820e-01 1 0 1
33 2 9.1590890842336368e+00 9.5530937932663722e+00 2.1444070346355728e+00 -4 0 -4
1582 1 1.0723004873468209e+01 9.1779028911424696e+00 1.6686021089915997e+01 0 0 0
150 2 -7.3994199195268207e-01 8.8653434056828200e+00 4.8290428667471765e+00 -3 0 0
771 2 1.4703516541756031e+01 4.8071729418954021e+00 7.3592806263358934e+00 0 0 -3
463 1 -2.7751549091725325e-01 1.0205411920584854e+01 7.8817264853153715e+00 2 0 0
809 2 8.9189384431235013e+00 3.4064893013633704e+00 6.2835689127656398e+00 -4 0 -1
866 2 7.9419327781030740e+00 5.5649755398600247e+00 8.5967799713946524e-02 -3 0 0
760 1 9.1903756659560898e+00 -7.4061398425188263e-01 5.6475593020353032e-01 -3 0 2
225 2 3.9676658044799229e+00 3.2703733114616353e+00 1.6466011566677337e+00 -2 0 -1
770 2 -2.7953432223679049e+00 3.6824418333574007e+00 8.2580286496972786e+00 1 0 -3
20 2 1.1395770262781713e+01 1.0398575219303639e+01 1.7502327594630415e-01 -3 0 -3
440 2 -4.4022314908203919e+00 6.1318689232751877e+00 1.3858759385836546e+01 -2 0 -2
383 2 -5.3202621502669190e-02 2.3480740486445040e+00 1.8311013763671722e+00 -1 0 1
148 1 -1.2445079982970899e+00 8.0909527464032340e+00 4.4097999005097552e+00 -3 0 0
499 1 -3.8478858048571531e+00 2.4830314678108900e+00 1.1645143512277189e+01 1 0 1
910 1 1.2773999942114710e+01 -5.4075690982363533e-01 6.0493710103449674e+00 -2 0 1
546 2 4.1181531171573136e+00 3.4138224160531161e+00 1.2719986570383149e+01 2 0 1
746 2 -1.5618271600612403e+00 8.2880761557638820e+00 1.4497923950463891e+01 -2 0 0
714 2 -1.2904136413277274e+00 -1.0954674371498085e-01 1.1340859231241742e+01 0 0 3
612 2 8.8214665272380355e+00 4.3705800143126137e+00 8.1452580471890013e+00 -1 0 1
674 2 3.0978648300537523e+00 7.7882098799698500e+00 7.0484967764149087e-01 0 0 -3
121 1 7.8772575882220979e+00 9.4178790477621455e+00 1.6239488616650753e+01 -2 0 -1
458 2 8.3726827142490423e-01 -2.9008735281574416e-01 3.9512165628403237e+00 -2 0 -2
424 1 -6.5217457905808924e+00 4.9067198015665392e+00 1.8735881699542052e+01 -1 0 0
232 1 1.1918647665466395e+01 9.8769340661356750e+00 7.5293000617617212e+00 -2 0 0