LAMMPS data file via write_data, version 3 Mar 2020, timestep = 1000000

1008 atoms
2 atom types

2.2308400198180856e-01 1.8176470998014633e+01 xlo xhi
2.7351876648445739e-02 2.2543037123344103e+01 ylo yhi
1.9624185086496126e-01 1.9309474149129123e+01 zlo zhi
2.0597197657718228e-02 -6.7041157471910431e+00 -3.4246244923867721e-02 xy xz yz

Masses

1 16
2 2

Atoms # atomic

1 1 6.9276600814437801e+00 8.5144980184136365e-01 4.4606998652182019e+00 0 0 0
309 2 7.6168308583196218e+00 1.1164547653869786e+01 3.4468221913560457e+00 0 0 0
3 2 7.3224669383296952e+00 9.0107576649534626e-01 3.5699718765332045e+00 0 0 0
4 1 4.3021152602133483e+00 8.7727278888681226e-01 4.6592043143025315e+00 0 0 0
5 2 5.3027155511579398e+00 8.6300733913030336e-01 4.5576763929321320e+00 0 0 0
6 2 4.2159360005781874e+00 1.3866630447251818e+00 5.5112578556337759e+00 0 0 0
7 1 -5.7188082998359802e-01 6.7838310376545108e+00 5.0334094479401132e+00 0 0 0
8 2 -7.8366978833022127e-01 6.4956649428520237e+00 5.9149756626940286e+00 0 0 0
10 1 2.1508346703576331e+00 6.6257459831860279e+00 4.6537904700015922e+00 0 0 0
11 2 1.2544741080541328e+00 7.0156522596787259e+00 4.6980028661606275e+00 0 0 0
12 2 2.7926998645287000e+00 7.4024226309280614e+00 4.6364713984299550e+00 0 0 0
584 2 2.7704883239733733e+00 1.1719665384702223e+00 9.2880364315487078e+00 0 0 0
14 2 4.9989354715001344e+00 5.1393043232395561e+00 8.5045137456788247e+00 0 0 0
167 2 1.1423738067448705e+01 6.1987258682480233e+00 1.0657347166185853e+00 0 0 0
69 2 1.4912035568410412e+01 3.4100714513305125e-01 7.8957525308039784e+00 0 0 0
18 2 5.6548367937893227e+00 5.2458094919568117e+00 9.3482561815255161e-01 0 0 0
209 2 3.5203803819151296e+00 1.0993342749116449e+01 6.7730365949667295e+00 0 0 0
135 2 1.5874627912814722e+01 2.5935277650308941e+00 6.1985311641573739e+00 0 0 0
21 2 1.1101210478673633e+00 2.4732467236465778e+00 1.5983499326226895e+00 0 0 0
20 2 4.1622858922192663e-01 3.3857720067130725e+00 4.4108524064988830e-01 0 0 0
145 1 1.7495986769444656e+01 7.2823204839422964e+00 1.5903363959586680e+00 0 0 0
32 2 2.5564267291882725e+00 1.0274389009767619e+00 3.0853343080021127e+00 0 0 0
25 1 4.9306173519923648e+00 6.2593414641142555e+00 7.2578816859710420e+00 0 0 0
26 2 5.6396231718336782e+00 6.9175671025425931e+00 7.4871190856615604e+00 0 0 0
27 2 3.9753079430966660e+00 6.5856034886662771e+00 7.2986065206268211e+00 0 0 0
28 1 6.0931297489209841e+00 6.2633488109415127e+00 2.4561124385528181e+00 0 0 0
29 2 5.9545427419877983e+00 6.0184367855033409e+00 3.3699993479937249e+00 0 0 0
30 2 5.3731538092792679e+00 6.9530641436944549e+00 2.2536773112114323e+00 0 0 0
31 1 1.6181219216968192e+00 1.2684898376713016e+00 3.0575147866976287e+00 0 0 0
82 1 2.2931840985895886e+00 6.0592071691509437e+00 2.6550860683925726e-01 0 0 1
33 2 1.4442795905003434e+00 1.4744444699404173e+00 4.0358883396636571e+00 0 0 0
34 1 2.8910337482521564e-01 1.0467633792002908e+00 7.4236888986588925e+00 0 0 0
612 2 1.2476457176191930e+01 3.2102268022636968e+00 6.0105608831344304e-01 0 0 0
36 2 3.8123722274589600e-01 1.6705459942006888e+00 8.1633348701565254e+00 0 0 0
37 1 6.8468407671534397e+00 2.5679494797161158e+00 2.2641671452906040e+00 0 0 0
38 2 5.9239877742239857e+00 2.7979876831617507e+00 2.2289328771478707e+00 0 0 0
39 2 7.2924483372597315e+00 3.3124065384421946e+00 2.7266900951817301e+00 0 0 0
40 1 4.0773833507022967e+00 2.4666367669712348e+00 6.9144400555494707e+00 0 0 0
41 2 5.0443466757348077e+00 2.5551835555273836e+00 6.6098809053344150e+00 0 0 0
42 2 3.6040290006607112e+00 3.3571183894137948e+00 6.7313074031590769e+00 0 0 0
43 1 -1.0082655088953585e-01 4.9685587304844034e+00 7.5042770212920731e+00 0 0 0
44 2 -8.9923864589288627e-01 4.3710656684108198e+00 7.4842245184382561e+00 0 0 0
45 2 -1.7174648165240392e-01 5.3159577164146308e+00 8.3961236120054483e+00 0 0 0
46 1 1.8715553475346800e+00 4.9089323393367419e+00 2.6400937504063426e+00 0 0 0
47 2 9.4241626587638749e-01 4.6868129713052511e+00 2.7974911905636879e+00 0 0 0
48 2 1.9936057385341992e+00 5.6161226231569588e+00 3.3427121523881986e+00 0 0 0
49 1 6.6425049107218168e+00 3.0682406928800474e+00 6.3297164763957001e+00 0 0 0
50 2 6.5128830489521938e+00 3.8939920277601625e+00 5.7376289134589697e+00 0 0 0
51 2 7.0109395771125271e+00 2.3315023686650904e+00 5.8259758670267514e+00 0 0 0
52 1 4.1007428601971405e+00 3.6164176230019938e+00 3.3708740833430553e+00 0 0 0
53 2 3.2841242184628343e+00 3.9587783493607351e+00 2.9546094316955198e+00 0 0 0
54 2 3.9544401105032874e+00 2.6508457532035150e+00 3.5813023151793066e+00 0 0 0
55 1 -5.4602959524135009e-01 4.1092185658681695e+00 3.6204081171653271e+00 0 0 0
56 2 -8.0114857397566563e-01 4.9943763456655947e+00 4.0134403504326537e+00 0 0 0
57 2 -5.7888411125618378e-02 3.6314652419604272e+00 4.3468014774236705e+00 0 0 0
58 1 2.3879452289105543e+00 4.5529952759218251e+00 6.5163396939122213e+00 0 0 0
59 2 2.4119870467818352e+00 5.2950472210767909e+00 5.9174591300564856e+00 0 0 0
60 2 1.6044101802641695e+00 4.6511274576021497e+00 7.0905131686574681e+00 0 0 0
61 1 8.4926944487837748e+00 7.3236584060363237e+00 1.7056285560209563e+00 0 0 0
62 2 7.5661907323286250e+00 7.1049582561306810e+00 2.0247289910402584e+00 0 0 0
63 2 8.8490885358033253e+00 6.5184780343187274e+00 1.3133003287299609e+00 0 0 0
64 1 2.7110937463826139e+00 7.0582278484574790e+00 8.3301826233120178e+00 0 0 0
65 2 1.8240827108862954e+00 7.2623260948204589e+00 8.0444436965789272e+00 0 0 0
66 2 3.0715721313157252e+00 7.8592307426210146e+00 8.7908479301262936e+00 0 0 0
83 2 2.1050088258481416e+00 5.5028281495066267e+00 1.0671829542397460e+00 0 0 0
68 2 -2.4333738704114207e+00 1.3516940612386545e+00 9.0352391790028488e+00 0 0 0
152 2 7.0656793061730454e+00 4.8123024038015333e-01 7.8385507101478797e+00 0 0 0
72 2 4.1942307863276360e+00 1.5055793587256627e+00 1.2742299114920761e+00 0 0 0
73 1 5.7693103308346600e+00 5.1421033491760371e+00 4.9923360028571517e+00 0 0 0
74 2 5.5200626186924735e+00 5.6275007796226229e+00 5.8121815542378004e+00 0 0 0
75 2 5.0564320945355856e+00 4.5835682722584004e+00 4.5327756890818245e+00 0 0 0
76 1 9.2219140053805337e-01 2.6377477049946676e+00 5.2357835377253901e+00 0 0 0
77 2 6.0817933478300690e-01 2.0639801698908609e+00 5.9757630385343985e+00 0 0 0
78 2 1.5686727734383141e+00 3.1959714313626768e+00 5.7454742541855097e+00 0 0 0
80 2 6.9704425569118547e+00 1.7702496184495811e+00 8.4380111443574823e-01 0 0 0
86 2 -1.5056463095162977e+00 4.5818106477516518e-01 5.3049112077273932e+00 1 0 0
67 1 -2.2641059475585124e+00 5.7078264631508802e-01 8.4057302950615291e+00 0 0 0
85 1 1.5902998728181025e+01 1.2243990254369017e+00 5.1620586409020008e+00 0 0 0
87 2 1.5856753937507847e+01 1.3976464280527527e+00 4.2228230481065818e+00 0 0 0
88 1 1.2847643202028459e+01 1.2324449961264943e+00 5.2121437679341236e+00 0 0 0
89 2 1.2678323127932201e+01 1.9755752165403717e+00 4.5729727392827444e+00 0 0 0
90 2 1.3772200538718197e+01 9.2893422164530026e-01 5.0923303802952979e+00 0 0 0
91 1 8.3328025711527722e+00 6.7376191592972301e+00 5.3917572185637219e+00 0 0 0
92 2 8.1197380137171979e+00 5.9994792285952592e+00 4.7451905017150295e+00 0 0 0
93 2 9.2769021559145468e+00 6.9388134929886274e+00 5.2853876694416293e+00 0 0 0
94 1 1.0919552896884188e+01 6.5570263845760435e+00 4.7249095556007950e+00 0 0 0
95 2 1.1744997218088955e+01 6.9523325888211014e+00 5.0380295735844758e+00 0 0 0
96 2 1.0837348478713524e+01 5.7616749533586393e+00 5.2695772662718738e+00 0 0 0
9 2 -1.2132109645608189e+00 7.6071062329291248e+00 4.9559814584570923e+00 0 0 0
608 2 6.2315850075162169e+00 3.5613866720283385e+00 9.6051643781423532e+00 0 0 0
293 2 1.2403922751474509e+01 1.0553964592465247e+01 7.1604663052947677e+00 0 0 0
101 2 1.4814905190973073e+01 5.0924867673009233e+00 1.4981764895948173e+00 0 0 0
246 2 1.5363860527386146e+00 1.0438521114351969e+01 5.3701382440761529e+00 0 0 0
106 1 9.2773458863639053e+00 2.5456020047277690e+00 9.5810412162067600e+00 0 0 0
671 2 8.5678919732032117e+00 5.5244631445060826e+00 9.1527420177148002e+00 0 0 0
187 1 1.0697236640837218e+00 1.0322146456057263e+01 4.2208353021289008e-01 0 0 0
109 1 1.3736916128860262e+01 6.0091671997449918e+00 7.3876003187083130e+00 0 0 0
110 2 1.3902791145813735e+01 5.4343410887399681e+00 8.2085988671874670e+00 0 0 0
111 2 1.2828558506511678e+01 6.3279445582114997e+00 7.6303112258963415e+00 0 0 0
112 1 1.5079617465292548e+01 6.4887671562943501e+00 2.7588229237689896e+00 0 0 0
113 2 1.4444447921244505e+01 7.1663595036225711e+00 2.4577424459200437e+00 0 0 0
114 2 1.6011899952710749e+01 6.8886049459174847e+00 2.6287606531613030e+00 0 0 0
115 1 1.0533675004123678e+01 1.0191610583551394e+00 2.8857368377959949e+00 0 0 0
116 2 1.0505415893619602e+01 1.6045954756496075e+00 2.1107120844956553e+00 0 0 0
217 1 6.6732576250541218e+00 1.0815638125634258e+01 6.3520969983619295e+00 0 0 0
118 1 9.2438919038957863e+00 1.0544369801156042e+00 7.4413656059723730e+00 0 0 0
119 2 9.3944184086966249e+00 1.7917710312709429e+00 8.0995719686707375e+00 0 0 0
120 2 9.2104760399283272e+00 1.4806174265293834e+00 6.5527880750158269e+00 0 0 0
121 1 1.5390158854356649e+01 2.4461377969959983e+00 2.6171149652463432e+00 0 0 0
122 2 1.5955259582909836e+01 3.2154867381407355e+00 2.7950355633892339e+00 0 0 0
123 2 1.5612473603599836e+01 2.2089975646722171e+00 1.6880144370119405e+00 0 0 0
124 1 1.3149949065466958e+01 2.5609223916641346e+00 7.5493613689925319e+00 0 0 0
125 2 1.3960826587385954e+01 3.0738166714720143e+00 7.3276213359283808e+00 0 0 0
126 2 1.3054280364386935e+01 1.9351298818349993e+00 6.8372111695900752e+00 0 0 0
127 1 8.6258245937674065e+00 4.9007996331937118e+00 7.4856868082570323e+00 0 0 0
128 2 7.9934595999826028e+00 4.2420599123745308e+00 7.1149673258048027e+00 0 0 0
129 2 8.3761890067725062e+00 5.7196496591513295e+00 6.9570408219637159e+00 0 0 0
130 1 1.0895428150543820e+01 5.3255032442419248e+00 2.3432712295739928e+00 0 0 0
131 2 1.1638517411079713e+01 4.7474162055418709e+00 2.5461750197885631e+00 0 0 0
132 2 1.0840236973670928e+01 5.9044375255614527e+00 3.1625008728591837e+00 0 0 0
134 2 1.5433129417629269e+01 4.1458898264501904e+00 5.9980255048575506e+00 0 0 0
136 1 1.2962677557052755e+01 3.6637358827061601e+00 3.2112928378394954e+00 0 0 0
137 2 1.3326084119436400e+01 4.2496854940196931e+00 3.8983752956403652e+00 0 0 0
138 2 1.3667640706522958e+01 3.0891003247439683e+00 2.8038219270999836e+00 0 0 0
139 1 8.5028170447649707e+00 4.3937906658464305e+00 3.4073067639510186e+00 0 0 0
140 2 9.2491503486756947e+00 4.5528761670129239e+00 2.8280449583723009e+00 0 0 0
141 2 8.7941781520064595e+00 3.8268697603408977e+00 4.1604632015531564e+00 0 0 0
142 1 1.0942580803852076e+01 4.4718485104560166e+00 6.5434356317188218e+00 0 0 0
143 2 1.1668035977482083e+01 4.1357294789293197e+00 7.1438821087726385e+00 0 0 0
144 2 1.0164816563253744e+01 4.7352430033016644e+00 7.1193332922187844e+00 0 0 0
147 2 1.7001344378842091e+01 7.7992830683731551e+00 9.2453904005220799e-01 0 0 0
148 1 1.1282809126424834e+01 7.2922068806943656e+00 8.3682966291068350e+00 0 0 0
149 2 1.1179454597779012e+01 6.4399628960765840e+00 8.7741187344462190e+00 0 0 0
150 2 1.1511506431891279e+01 7.8368866732272036e+00 9.1292939893377429e+00 0 0 0
221 2 4.4832804364220644e+00 1.0521525961255261e+01 3.0356024133876849e+00 0 0 0
401 2 1.4558241986416958e+00 1.2454842178216866e-01 7.9084112798557076e+00 0 0 0
153 2 6.1878799435982508e+00 1.0549160889673095e+00 8.9766809436815294e+00 0 0 0
151 1 6.2569733273732098e+00 2.4701500254312209e-01 8.4071285154134152e+00 0 0 0
155 2 1.3133110593582906e+01 1.2927119519130998e+00 1.3697180806494975e+00 0 0 0
219 2 5.9362689026187674e+00 1.0711155992083112e+01 6.9569403483550936e+00 0 0 0
157 1 1.4486645465917022e+01 5.1764287776856523e+00 4.9995789442866512e+00 0 0 0
158 2 1.4812945022101259e+01 5.7558353217440068e+00 4.2445911556375373e+00 0 0 0
159 2 1.4183237109555877e+01 5.7420221621187064e+00 5.8027245224322179e+00 0 0 0
160 1 9.6181689942143542e+00 2.5206878058573898e+00 4.9096301990711613e+00 0 0 0
161 2 1.0354856313982474e+01 2.9251974899475881e+00 5.4625803458242324e+00 0 0 0
162 2 1.0085701209882036e+01 2.0126019280517671e+00 4.1496504500250193e+00 0 0 0
133 1 1.5654655585903020e+01 3.4300187278021697e+00 6.6486436444291499e+00 0 0 0
836 2 1.3127480819690531e+01 9.3838199167995509e+00 9.2014564073719800e+00 0 0 0
35 2 -6.3403948374649266e-01 7.5005399037626974e-01 7.6970334890499039e+00 0 0 0
169 1 6.8482783537205547e+00 8.8693914859703789e+00 4.7411256024527209e+00 0 0 0
170 2 7.3549546503978265e+00 8.0401574666000126e+00 4.8640810172273694e+00 0 0 0
171 2 6.9534485487782174e+00 9.4680615977766287e+00 5.5387355307654422e+00 0 0 0
172 1 3.8166163542665443e+00 8.5251074069727171e+00 5.1247382238579391e+00 0 0 0
173 2 3.7397545302800319e+00 9.3072714686701552e+00 4.5502070646955026e+00 0 0 0
174 2 4.7459483182510409e+00 8.2909180595309007e+00 5.0857478944278638e+00 0 0 0
70 1 4.0669553530167208e+00 6.5124581686899374e-01 1.7718855340111075e+00 0 0 0
222 2 3.0199170285727099e+00 1.1058279627655351e+01 3.0891902728771199e+00 0 0 0
306 2 1.3444213838446993e+01 1.0689562313505924e+01 2.6594325627630795e+00 0 0 0
192 2 4.7570446949495970e-01 9.9547133432073682e+00 8.5679917241312715e+00 0 0 0
199 1 1.4565144631408868e+00 8.7203133148736214e+00 2.8561511345355526e+00 0 0 0
200 2 1.3307672303994997e+00 9.2624076176872929e+00 2.0769539442604170e+00 0 0 0
201 2 8.8719441423615519e-01 8.0262501869139626e+00 2.6843055091241133e+00 0 0 0
202 1 3.6793060121606080e-01 8.4712941384079041e+00 7.5467070995218259e+00 0 0 0
203 2 -5.7895059855967901e-01 8.1667624861848758e+00 7.6119760184069891e+00 0 0 0
204 2 5.2214655341693161e-01 8.8006372215325293e+00 6.6306605555074842e+00 0 0 0
205 1 6.2392332254401106e+00 1.0321449161857688e+01 2.7601397669440284e+00 0 0 0
206 2 6.5166190992026198e+00 9.5869088128903197e+00 3.3006525137784619e+00 0 0 0
207 2 6.4338090265675785e+00 1.0098522610105645e+01 1.8188033182932093e+00 0 0 0
208 1 4.1075434173349183e+00 1.0273780291816365e+01 7.0825119856265450e+00 0 0 0
108 2 8.2691365905281504e+00 2.7751437664266225e+00 9.6910873034304270e+00 0 0 0
210 2 3.9871292162763856e+00 9.5303267518506587e+00 6.4133673872694477e+00 0 0 0
302 2 1.4775366419139432e+01 1.0242064554968197e+01 7.0711491661371744e+00 0 0 0
304 1 1.2729953892139518e+01 1.0758015068521640e+01 3.3313534372994313e+00 0 0 0
753 2 3.8098639964741694e+00 9.8308705947013273e+00 8.8713595672220151e+00 0 0 0
156 2 1.2315401239888171e+01 6.0163314020414060e-01 2.4924541710654569e+00 0 0 0
587 2 -1.4511060390506312e+00 7.0096332149482325e+00 9.4976979503386421e+00 0 0 0
235 1 -2.2854551652121833e+00 7.8968134021955843e+00 7.7252826795964653e+00 0 0 0
236 2 -2.4432859017553064e+00 8.5983185907725730e+00 8.4105945518348868e+00 0 0 0
238 1 4.0595474951890740e+00 7.7893052038640134e+00 1.5371128077904166e+00 0 0 0
239 2 3.6432397750840120e+00 8.0695867694989172e+00 2.4028001054318620e+00 0 0 0
240 2 4.0308365369056389e+00 8.5537155116174706e+00 9.5786245942348436e-01 0 0 0
244 1 8.8140412402260671e-01 9.7346501162273178e+00 5.2054963895765880e+00 0 0 0
245 2 1.1653100394442435e+00 9.2099552792246300e+00 4.4631760169560470e+00 0 0 0
482 2 1.7804171258020030e-01 5.9569963757481546e-02 2.3352309872797044e+00 0 0 0
84 2 3.0990946908910844e+00 6.5139692942754523e+00 4.6765117257875777e-01 0 0 0
23 2 7.3173423115746727e-01 3.4095834811626631e+00 9.6996089430242485e+00 0 0 0
253 1 1.5716033684385106e+01 8.7944113796317733e+00 4.7040512437078181e+00 0 0 0
255 2 1.5604818010629844e+01 9.1092865338762188e+00 3.7770294941208435e+00 0 0 0
256 1 1.2921189218898373e+01 8.3708726431687701e+00 4.8539881069881021e+00 0 0 0
257 2 1.3928007477404318e+01 8.3253746038089744e+00 4.7852840737572180e+00 0 0 0
258 2 1.2732188145887504e+01 9.0769369426934539e+00 4.2396022071788915e+00 0 0 0
585 2 3.6735590965728280e+00 2.1966859782669070e+00 8.7536803423199387e+00 0 0 0
272 2 1.0173583873852118e+01 9.7051246689579269e+00 9.6284444927549784e-01 0 0 0
301 1 1.5505416103117565e+01 1.0866376008428791e+01 6.7972687703259318e+00 0 0 0
276 2 9.5724896147816469e+00 1.0020045291269508e+01 8.8445857691988206e+00 0 0 0
283 1 1.0552112013738316e+01 8.9097991799414586e+00 2.3597007123006413e+00 0 0 0
284 2 1.0756330657573200e+01 9.1100449085497726e+00 3.2596860195601756e+00 0 0 0
285 2 9.9457709944036985e+00 8.1540498133296726e+00 2.3434496771164768e+00 0 0 0
286 1 9.4684848682824487e+00 8.9109378612127284e+00 7.3803285065334192e+00 0 0 0
287 2 1.0182504013152853e+01 8.3257007395423202e+00 7.6540173726831338e+00 0 0 0
288 2 8.7205020611188431e+00 8.3596294265868814e+00 7.5218885709102237e+00 0 0 0
289 1 1.4976916194064239e+01 1.0414921627797812e+01 2.2104146168739800e+00 0 0 0
693 2 -1.3472333270391332e+00 1.0061882213606836e+01 9.5592895017022403e+00 0 0 0
291 2 1.5175132778186660e+01 9.9260374209415225e+00 1.3788555508568934e+00 0 0 0
292 1 1.3017956512244277e+01 9.8011898764787055e+00 7.3548873240586570e+00 0 0 0
117 2 9.8080277158795433e+00 4.1866698193480001e-01 2.7107208856075538e+00 0 0 0
294 2 1.2920710505575501e+01 9.2444952702636378e+00 6.5702170729117029e+00 0 0 0
163 1 1.6114120778546038e+01 1.3581903821364112e+00 2.6756173684258810e-01 0 0 0
290 2 1.5811240223670328e+01 1.0903577820189346e+01 2.4141322458954582e+00 0 0 0
154 1 1.3085317194071370e+01 4.6102080937026280e-01 1.8810874945482863e+00 0 0 0
691 1 -2.3163923351385471e+00 9.8853204354487385e+00 9.6467177534227382e+00 0 0 0
319 1 6.9727095880074872e+00 8.0649681212280893e+00 8.1923349406135024e+00 0 0 0
320 2 6.7435845506205165e+00 8.8674092608049513e+00 8.7392941724198892e+00 0 0 0
321 2 7.3533867086153721e+00 7.3780986305153391e+00 8.7330656807768747e+00 0 0 0
322 1 1.3266973949915768e+01 8.2044889973934225e+00 1.6615875099238033e+00 0 0 0
323 2 1.2464365035212806e+01 8.1276169186953595e+00 2.2535335723073548e+00 0 0 0
324 2 1.2993365856694922e+01 7.4714098391143491e+00 1.0711655969718312e+00 0 0 0
328 1 1.0305542816519234e+01 9.9899392221226400e+00 4.8760455188191614e+00 0 0 0
329 2 1.0184857014464493e+01 9.5400751955615757e+00 5.7375684780681748e+00 0 0 0
330 2 9.5067650383474298e+00 1.0190715657959521e+01 4.3211151996384798e+00 0 0 0
604 1 1.1160347024021705e+01 4.7204267547341487e+00 9.6322209174012485e+00 0 0 0
780 2 1.3103116027083241e+01 9.6916909820998427e+00 4.2243583636345161e-01 0 0 0
13 1 5.0735668510076053e+00 4.8562897324138037e+00 9.4535349032280536e+00 0 0 0
220 1 3.7034465096648814e+00 1.0598881048635244e+01 3.5927960833048904e+00 0 0 0
237 2 1.4809297938290218e+01 7.4352457027778796e+00 7.7074375891707421e+00 0 0 0
2 2 7.3960397542456198e+00 1.1078124089454458e-01 4.8563717039361434e+00 0 0 0
668 2 1.2483898021399893e+01 2.1530581299935529e+00 9.1745388589486367e+00 0 0 0
521 2 1.9143678559573369e+00 5.5092162449534507e+00 9.2840766388941205e+00 0 0 0
692 2 -2.6922767084303363e+00 1.0764276596092998e+01 9.6569210182443630e+00 0 0 0
305 2 1.2031147227599623e+01 1.1262590782605480e+01 2.9553988140702412e+00 0 0 0
602 2 1.6555580520312319e+01 4.5287999693876451e+00 4.6066039676823245e-01 0 0 0
254 2 1.5862732783735257e+01 9.5742605150748883e+00 5.2941370717908214e+00 0 0 0
146 2 1.7663325479421843e+01 6.3595577611390972e+00 1.3208439513256007e+00 0 0 0
103 1 1.0505178830609891e+01 2.8374759131755281e+00 6.5650426028332165e-01 0 0 0
526 1 3.8426444207589530e+00 2.7708639607118672e+00 2.1291850002252261e-01 0 0 1
247 1 6.9928101130892273e+00 9.2338514571994725e+00 3.2854653239900800e-01 0 0 0
189 2 2.0463248642286951e+00 1.0372550255320476e+01 2.3814699274742360e-01 0 0 0
104 2 9.8220880304738252e+00 3.5617079068562107e+00 4.7127595270871936e-01 0 0 1
606 2 1.0669609544690273e+01 3.8769286310645543e+00 9.6066906269570236e+00 0 0 0
583 1 3.4687038784720610e+00 1.7502618224208824e+00 9.5762435279832712e+00 0 0 0
486 2 1.1396749003206587e+01 2.1394495969664618e-01 9.2830945605384372e+00 0 0 0
100 1 1.4913180731574574e+01 4.7294074562231092e+00 5.8603547197283379e-01 0 0 0
224 2 -3.2443632913664588e-02 1.0934534716592088e+01 4.0133098508467526e+00 0 0 0
190 1 3.2705182383256437e-01 1.0369553605585381e+01 9.4656104178526324e+00 0 0 0
165 2 1.6829620750755382e+01 7.5539143099881534e-01 6.8936325392809672e-01 0 0 0
248 2 7.6474894648203717e+00 8.6280205670121877e+00 7.0758118728665276e-01 0 0 0
271 1 1.0108916767944651e+01 1.0421814190304881e+01 2.6114521689482212e-01 0 0 0
751 1 3.8084733625728373e+00 9.1653481722804688e+00 9.5241630271533690e+00 0 0 0
71 2 3.4237092973341632e+00 6.5347834156257584e-02 1.2560097269376609e+00 0 1 0
22 1 1.4799863653644918e-01 2.6570313061447424e+00 9.6235984372064127e+00 0 0 0
102 2 1.4417589673270378e+01 3.8659507498886754e+00 5.8986634632446089e-01 0 0 0
19 1 9.7951060160440639e-01 2.5914717750413350e+00 6.6965434919349232e-01 0 0 0
528 2 2.8886743240480284e+00 2.8815396494180803e+00 3.2138380027791014e-01 0 0 0
610 1 1.3322613416479683e+01 2.7021244537376607e+00 4.3222234975693741e-01 0 0 1
520 1 2.1889142110778392e+00 4.6660746244402542e+00 9.7012270275177297e+00 0 0 0
537 2 -1.2671029759379620e+00 7.9020109300025532e-01 1.2264175616004831e+01 0 0 0
721 1 3.5647509235712809e+00 1.0893658419280948e+01 1.5836573652987251e+01 0 0 0
188 2 -5.8607125280596950e+00 9.4308329088301512e+00 1.9091426448436419e+01 0 0 0
331 1 9.1281049959214524e+00 8.8978516278239113e+00 1.9292094424441334e+01 0 0 -1
815 2 8.4897261013694507e+00 1.1201551493088189e+01 1.6628816515282399e+01 0 0 0
827 2 1.0427632634515662e+01 7.3390634719928212e+00 1.1558588968383569e+01 0 0 0
810 2 8.8466095578628572e+00 1.1156128540732528e+01 1.2847737538125690e+01 0 0 0
249 2 5.7731684636826497e-01 9.5327899059500574e+00 1.8549240067674511e+01 0 0 0
593 2 8.7695571908414252e+00 4.0498037796738823e-01 1.4713327936229003e+01 0 0 0
832 1 6.3013804003952876e+00 1.0009340234274475e+01 1.4294228561534760e+01 0 0 0
524 2 -3.0992016380000686e+00 3.2905656615661600e+00 1.0062613171239198e+01 0 0 0
168 2 4.4708236732566080e+00 7.1454901529401678e+00 1.8805974904155743e+01 0 0 0
275 2 9.9306577580541084e+00 9.6150711435892102e+00 1.0260554836033322e+01 0 0 0
98 2 1.3935706977677020e+01 5.5179222720019894e+00 1.0558440862455578e+01 0 0 0
588 2 -9.3689614013492362e-01 6.0111335050558159e+00 1.0697040906714449e+01 0 0 0
332 2 9.6464269785176224e+00 9.3333470331869925e+00 1.8512791885977819e+01 0 0 0
81 2 -2.8295623169266815e-01 6.1547571619159958e-01 1.9010679959723696e+01 0 0 0
517 1 1.7550204159911038e+00 4.7185267811330522e+00 1.9121951795716381e+01 0 0 0
505 1 2.8946671106633657e+00 1.0293790622404086e+00 1.4200162486846750e+01 0 0 0
506 2 3.1413612282187531e+00 1.7063790491052895e+00 1.4852029724540735e+01 0 0 0
778 1 6.1684523951132704e+00 1.0277492693566511e+01 1.8891546180111064e+01 0 0 0
508 1 2.9339782170588968e-01 9.5978821115884005e-01 1.4687740575374056e+01 0 0 0
667 1 1.2375039790977061e+01 1.5915485302757688e+00 1.0007161464479641e+01 0 0 0
510 2 1.2424915409021855e+00 6.3941168736764287e-01 1.4518566693071486e+01 0 0 0
511 1 -4.3434743639141349e+00 6.6417923396088030e+00 1.4867075284414588e+01 0 0 0
512 2 -4.0932242162292791e+00 5.9001136290217824e+00 1.4260230061054729e+01 0 0 0
513 2 -4.3072447474292463e+00 6.2745986883137892e+00 1.5756148543402373e+01 0 0 0
514 1 -1.3328658721116247e+00 6.7102138343798403e+00 1.4627871067017802e+01 0 0 0
515 2 -1.0606007460127151e+00 6.0525413611217571e+00 1.5211948911864930e+01 0 0 0
516 2 -2.2762489448599790e+00 6.9148832899757995e+00 1.4761525556384786e+01 0 0 0
777 2 6.2199653369234458e+00 1.1033720123098348e+01 9.8761965253390631e+00 0 0 0
519 2 1.6141115019811396e+00 5.5206262997711733e+00 1.8578966498555559e+01 0 0 0
696 2 -2.0665153605031410e+00 1.0516383719245974e+01 1.9017568991922428e+01 0 0 0
522 2 2.1254283159414231e+00 4.8637448733195070e+00 1.0665824306519536e+01 0 0 0
620 2 6.0669683137487240e+00 4.9142649907430347e-01 1.2101985758073949e+01 0 0 0
586 1 -6.9146965933902527e-01 6.4940566311021213e+00 9.8586199372259280e+00 0 0 0
525 2 -2.5995680641612706e+00 2.2101453156035653e+00 1.1064867928255627e+01 0 0 0
837 2 1.2591638133510910e+01 9.1700790526752805e+00 1.0705539195454113e+01 0 0 0
527 2 -2.7379582164106924e+00 2.4266488056883611e+00 1.8418825048380391e+01 0 0 0
529 1 1.3981157056008593e+00 6.5090381414371246e+00 1.7161973312950142e+01 0 0 0
530 2 1.4109739503967740e+00 6.1754329536613044e+00 1.6281141510885110e+01 0 0 0
531 2 5.6117190838998532e-01 7.0013604019213220e+00 1.7162617848561439e+01 0 0 0
532 1 2.4935279189627160e+00 6.3519912643451004e+00 1.2060852412334677e+01 0 0 0
533 2 3.3919849507485944e+00 6.5401039143244866e+00 1.1675246713858350e+01 0 0 0
534 2 2.5199011979547761e+00 6.1049899765632762e+00 1.2986221195635999e+01 0 0 0
535 1 -2.0701651806307311e+00 1.3352764720229915e+00 1.2427523257391558e+01 0 0 0
574 1 2.3692786539651634e-01 2.7726604583385728e-01 1.1145946104425411e+01 0 0 0
775 1 6.7397023184726201e+00 1.0183627735168104e+01 1.0016803670261904e+01 0 0 0
538 1 -3.1426301378064783e+00 1.0021141232539996e+00 1.7038294375218371e+01 0 0 0
539 2 -4.1192681182073230e+00 8.4728877060635033e-01 1.7049405631682273e+01 0 0 0
540 2 -3.0743030384631531e+00 1.5508398307323115e+00 1.6254183596333078e+01 0 0 0
541 1 2.7111128427108078e+00 2.7973621200161372e+00 1.2019734537772901e+01 0 0 0
542 2 2.7137815338080093e+00 1.9594144528388069e+00 1.2563756773152626e+01 0 0 0
543 2 3.0355022484609573e+00 2.6163927354362033e+00 1.1121634086236435e+01 0 0 0
544 1 7.8672048777970893e-01 2.5607940682020640e+00 1.6571940520115668e+01 0 0 0
545 2 6.8512321128403553e-01 2.1278316740371035e+00 1.7454565129534583e+01 0 0 0
546 2 4.7550188855921416e-01 1.8869480006596868e+00 1.5937957510598853e+01 0 0 0
547 1 -3.6512957712736904e+00 4.9544728527420840e+00 1.6924424249412077e+01 0 0 0
548 2 -4.3776348348350682e+00 4.3795700467139191e+00 1.6641925612469592e+01 0 0 0
549 2 -3.9269234496367789e+00 5.2889582260681207e+00 1.7833348211235855e+01 0 0 0
550 1 -1.4168836313890609e+00 5.2158765221938701e+00 1.2297105092220676e+01 0 0 0
551 2 -8.1350674936726142e-01 4.4193760844210894e+00 1.2482457756106962e+01 0 0 0
552 2 -1.3671864042518247e+00 5.7615051634320729e+00 1.3107073550341990e+01 0 0 0
553 1 3.2136733855097575e+00 3.2615670273455173e+00 1.5879838353191490e+01 0 0 0
554 2 2.3102134398953416e+00 2.9512813582997062e+00 1.6177472333333853e+01 0 0 0
555 2 3.7296058575619710e+00 3.5426333325465991e+00 1.6709008012873802e+01 0 0 0
556 1 2.0281060787271965e-01 3.2864225301134913e+00 1.3053498369388237e+01 0 0 0
557 2 1.0736819226700565e+00 3.2245335792396070e+00 1.2617544673922458e+01 0 0 0
558 2 -8.1987158563419094e-02 2.4508840829222680e+00 1.3418706290609435e+01 0 0 0
559 1 -4.0897715366980378e+00 4.6223804660220482e+00 1.3180999123403623e+01 0 0 0
560 2 -3.1646398895440573e+00 4.6740329642276217e+00 1.2723818583753751e+01 0 0 0
561 2 -3.9418682127301370e+00 3.9221344253677106e+00 1.3802715465448202e+01 0 0 0
562 1 -1.1585669101312712e+00 4.2226575510191946e+00 1.6179957843087937e+01 0 0 0
563 2 -3.1649508713569841e-01 3.8660511835991977e+00 1.6366489636140006e+01 0 0 0
564 2 -1.5583548831814467e+00 4.3293581722295018e+00 1.6986662509990509e+01 0 0 0
565 1 4.8904750129473795e+00 7.1466548852538798e+00 1.0890168610890068e+01 0 0 0
566 2 4.7521416295103398e+00 8.0547524048518220e+00 1.0494686676074993e+01 0 0 0
567 2 5.0426333839272228e+00 6.5067129592139024e+00 1.0220803110454623e+01 0 0 0
568 1 -1.1500095711696900e+00 7.3063840157900746e+00 1.7865360111136415e+01 0 0 0
569 2 -1.2485564915559664e+00 6.4047328452939523e+00 1.8216771388864164e+01 0 0 0
570 2 -9.7681687911697335e-01 7.8677092465830247e+00 1.8632326671537200e+01 0 0 0
273 2 4.3046250570426547e+00 1.0622424888713054e+01 1.9071251778285539e+01 0 0 0
572 2 -5.8207464799904347e+00 1.3756143010111748e+00 1.8518568032754334e+01 0 0 0
808 1 9.4954644911273736e+00 1.0636759833126117e+01 1.3357069276658606e+01 0 0 0
809 2 1.0264848182739554e+01 1.0317161847696816e+01 1.2902296170053887e+01 0 0 0
576 2 1.8739487016528900e-01 1.1211008422304438e+00 1.0653504253642264e+01 0 0 0
577 1 1.8467261219964195e+00 5.2937917699994150e+00 1.4557144737548400e+01 0 0 0
578 2 1.1327474677030489e+00 4.8615733030247554e+00 1.4139263698887314e+01 0 0 0
579 2 2.3557144527034906e+00 4.5163626128544845e+00 1.4839924789715234e+01 0 0 0
580 1 -2.8918201031910318e+00 2.6586851459502050e+00 1.4795435737904244e+01 0 0 0
581 2 -2.4768401832943074e+00 2.1447484547602866e+00 1.4033117033037845e+01 0 0 0
582 2 -2.1954218404557730e+00 3.2901605163619276e+00 1.5189276389433514e+01 0 0 0
658 1 9.0752878957620684e+00 2.9943510370550835e-01 1.1028178355721941e+01 0 0 0
571 1 -5.6250201476399395e+00 6.4084019940335646e-01 1.7964765859055031e+01 0 0 0
589 1 1.2120953644207374e+01 7.2357692372861293e-01 1.4441895435500854e+01 0 0 0
798 2 9.7386424443159765e+00 9.3292637164462544e+00 1.6536349200299814e+01 0 0 0
591 2 1.2568892160566058e+01 1.4943921828578624e+00 1.4850045790367945e+01 0 0 0
592 1 9.4286406342372455e+00 1.1279091578047802e+00 1.4953687243299028e+01 0 0 0
834 2 5.5316140784350818e+00 1.0468991625454338e+01 1.4009225462679504e+01 0 0 0
594 2 9.3509865466428206e+00 1.8627613855681933e+00 1.4308977919893227e+01 0 0 0
595 1 4.9459050912325564e+00 6.1657652292712157e+00 1.4941534326388812e+01 0 0 0
596 2 5.0428894927309909e+00 5.5443281145413472e+00 1.5720026723180633e+01 0 0 0
597 2 4.7307901136907820e+00 5.6164769190686981e+00 1.4196104788057662e+01 0 0 0
598 1 7.6911877316059627e+00 6.4721706450304470e+00 1.4470303255720719e+01 0 0 0
599 2 6.8032773105733080e+00 6.6669907539238382e+00 1.4784426243537743e+01 0 0 0
600 2 7.5113907475893216e+00 6.2116636346475689e+00 1.3534584362590348e+01 0 0 0
573 2 1.1491316274407987e+01 2.2756464979661342e-01 1.7504681379469503e+01 0 0 0
603 2 1.0726795593854815e+01 5.1095636010183227e+00 1.8372406030559286e+01 0 0 0
724 1 6.0192971677986939e-01 1.1042915574029411e+01 1.2862030473857622e+01 0 0 0
605 2 1.1060925079084644e+01 5.0197429178110191e+00 1.0603562264441059e+01 0 0 0
97 1 1.3841030485454917e+01 4.7316692360396368e+00 9.9122242401473724e+00 0 0 0