LAMMPS data file via write_data, version 3 Mar 2020, timestep = 31850000

2016 atoms
2 atom types

0.0000000000000000e+00 1.7946059709086533e+01 xlo xhi
-3.5705756002723454e+00 4.8566735577182897e+01 ylo yhi
0.0000000000000000e+00 1.9087405626944808e+01 zlo zhi
4.8425070645161279e-02 -6.6618837336059933e+00 -2.0927209919264556e-02 xy xz yz

Masses

1 16
2 2

Atoms # atomic

1264 1 -1.0140799338666930e+00 -1.0671618905012958e+00 1.5227062554266089e+01 2 0 1
135 2 5.7695286061140383e+00 2.3719825679546442e+00 8.9346131399603212e+00 3 0 -1
262 1 6.1187582279251185e+00 8.5712831747143259e+00 9.8090257955942679e+00 2 0 2
721 1 -2.7387016795031083e-02 4.9873137322460916e+00 1.7825261674304032e+00 -4 0 -1
1426 1 1.1798392810214851e+01 9.5182201581601955e-01 1.7056178584008922e+01 0 1 -1
1544 2 1.5343343824877593e+01 3.5381204782469950e+00 3.7387886861134092e+00 0 0 0
169 1 1.1293164325002474e+01 6.5845609334256263e+00 1.1645596162093792e+00 -2 0 2
1005 2 8.7372520256765256e+00 7.8251999914732036e+00 1.7278174479684008e-02 -3 0 1
520 1 -9.8774451599373458e-01 7.5485028229158928e+00 5.8832483758357697e+00 -2 1 -2
792 2 1.5256134715281334e+01 -2.6476896286519218e+00 3.3331481409363541e+00 0 0 1
814 1 1.4055490483208056e+01 2.0464282950290089e+00 1.0377459919221964e-01 2 0 2
2005 1 -2.4310972182176354e+00 6.0018579486015540e+00 1.2934132221414899e+01 0 1 0
806 2 -1.9717376483027877e+00 -8.6180246517782910e-01 9.8645415793151443e+00 -4 0 0
171 2 1.1691944043816644e+01 7.2753895870455789e+00 5.8162727781032519e-01 -2 0 2
1759 1 1.2317513098389101e+01 -2.9572882675483427e+00 1.7250847338318114e+00 1 0 1
646 1 1.5838016424920312e+01 4.9009411540309440e+00 8.3310967357762403e-02 -3 0 -1
722 2 1.7118223826465758e+01 4.9375222368921428e+00 1.2119083428015822e+00 -5 0 -1
133 1 5.5088112687838997e+00 2.6548466640019219e+00 8.0514632663680086e+00 3 0 -1
608 2 8.2846261561000745e+00 -8.9750435939988771e-01 1.1688982763168843e+00 -3 0 1
1407 2 1.5638414755061760e+01 4.4610756393103745e+00 6.0264598244970857e+00 0 0 -1
1050 2 4.7994484229197241e+00 -3.5638918616051445e+00 1.3685043295567858e+01 -1 0 1
1211 2 -1.8159698124263881e+00 7.6309471284060404e+00 9.9472880770953580e+00 2 0 -2
405 2 7.5187373784254081e+00 5.8254336026711631e+00 1.3795323426130190e+01 5 0 1
805 1 -2.2340546598300035e+00 -1.3133013447028081e+00 1.0740453629441864e+01 -4 0 0
1715 2 4.1361437786646009e+00 -2.4013680798320447e-02 3.9529931915651764e+00 1 0 1
1646 2 4.6687468656949562e+00 5.5404447994361607e+00 9.8624789145586167e+00 0 0 1
539 2 3.4260617275907608e+00 3.8613041415331173e-01 1.4796699270078779e+01 -4 0 -4
897 2 1.6506799037640832e+01 9.3794261020006005e+00 2.9906261694812200e+00 -3 0 -2
909 2 2.1816171894370218e+00 1.0722328591172197e+00 4.5288710663858254e+00 -1 0 -1
449 2 8.6972142426529047e+00 6.9485488716410977e+00 5.1694219123543705e+00 1 0 1
1462 1 1.3387304975642349e+01 -2.0874945527335127e+00 1.1536147617643081e+01 -2 1 -1
1110 2 3.1037472158597215e+00 6.5725004803033809e+00 3.4016279469474995e+00 -1 0 -1
1009 1 -4.3318591249308422e+00 -1.1764876873425729e+00 1.4691908038064673e+01 -1 0 -3
1011 2 -4.1849891268032069e+00 -1.4020150256950790e+00 1.5683170656781989e+01 -1 0 -3
617 2 5.3465020491009199e+00 -5.7599452439151122e-01 7.6236565289616678e+00 -1 0 -1
1545 2 1.5283004728802448e+01 5.0618269937391194e+00 4.0399304365437860e+00 0 0 0
1108 1 3.6563532569564199e+00 6.4892969112597267e+00 2.5738211979242469e+00 -1 0 -1
1963 1 1.1141189072120820e+01 -2.3944830869687963e+00 7.5229710662042466e+00 0 1 0
916 1 -4.4700611591305162e+00 2.7195240488388404e+00 1.4107021220825297e+01 2 0 2
863 2 1.2241493116500095e+01 -4.2324908020898411e-01 1.1719375857270931e+01 -5 0 -3
713 2 1.2719134438927702e+01 4.4004962187674828e+00 4.2706698894936084e+00 -1 0 3
1969 1 -4.1159775881371141e-01 -1.2996685669201220e+00 1.2554328364113607e+01 0 1 0
2008 1 1.2093275364010632e+01 -2.8681310584195394e+00 4.3339954301007868e+00 1 1 0
331 1 9.0789838593768835e+00 2.1940862294513908e+00 4.1308823946565036e+00 -1 1 -5
1979 2 6.0733228210775536e-01 1.9617407202831920e+00 1.2692604933136874e+01 -1 1 -1
1055 2 8.2382800256566746e-02 -5.6923624193505473e-01 1.6552200275295313e+01 0 0 -1
1488 2 1.8612847894509748e+00 -1.8227978671747858e+00 9.2826680518924842e+00 1 1 -1
982 1 -4.1497052399613565e+00 -2.0129974901191341e+00 1.7186565004496480e+01 1 0 -1
253 1 9.5215832615223910e+00 -5.8450968335583120e-01 1.3964918342150170e+01 -5 0 -3
878 2 2.8804467426593305e-01 1.7210726018419420e+00 7.3433576209260698e+00 -2 0 1
415 1 1.6551766012518898e+00 3.1915129887192171e+00 6.6364158619066194e-01 1 0 -3
130 1 1.3387259329158713e+01 9.8923707434543573e-01 9.4491744646792935e+00 -2 0 0
1977 2 -1.4761704622722172e+00 7.5167300368113104e+00 1.5563574962657771e+01 0 1 0
1139 2 5.9717353379584823e+00 8.3593370322593223e+00 1.5955492150717120e+01 -1 0 -1
1109 2 3.0873087296066539e+00 6.9398128067491971e+00 1.9436391032355798e+00 -1 0 -1
1958 2 1.1421875723371025e+01 1.7857328956149452e+00 1.1851975535773320e+01 0 1 0
183 2 5.4336423772775309e+00 -3.3300178057206962e+00 5.6834200366144865e+00 3 1 -1
148 1 3.1016648840170391e-01 4.7162420980736055e+00 4.6235890675765434e+00 0 0 -1
83 2 1.1965773727130227e+00 -6.2163161605637729e-01 5.2345273063383528e+00 0 0 -3
1224 2 -2.0369847463600346e+00 6.6404765166724555e-02 7.7568180860688933e+00 -1 1 0
55 1 -2.6889073270457131e+00 9.5076445780227470e-01 1.5865523155785358e+01 -2 0 1
918 2 -4.0077059259572003e+00 2.2421593651326521e+00 1.3387320439636261e+01 2 0 2
1036 1 7.8807264338565197e+00 2.2683585821948427e-01 5.6121933619168995e+00 -2 0 -1
1241 2 4.8399083835277787e+00 5.3186783810286311e+00 1.5623327416769211e+01 1 0 -2
245 2 -3.3266965952172138e+00 6.0387286030784626e+00 1.0001335218408787e+01 -4 0 -5
1927 1 -4.1720102290209491e+00 5.1303411561118981e+00 1.5110620183507596e+01 0 1 0
1760 2 1.1979083686741339e+01 -2.1302482999925720e+00 1.3859037836184251e+00 1 0 1
1111 1 3.3071409443663722e+00 4.9950622735201691e+00 1.4359532069019577e+01 -3 0 -1
1115 2 1.5484025321262118e-01 7.2505078823359419e+00 1.0827315634683721e+01 1 0 1
1983 2 1.3558523812874654e+01 8.2616160327341959e+00 1.0987410738460964e+01 0 1 0
794 2 5.6219228911353909e+00 -1.6077109048402887e+00 1.2469356566535124e+01 0 0 -1
470 2 1.3214318785759116e+00 6.0123447449557492e+00 4.7867743622722827e+00 -5 0 -1
251 2 4.7257960781798891e+00 1.6406832658404129e+00 4.6901909260347914e+00 -5 0 0
103 1 9.2214851209826776e+00 7.5844998986502681e+00 1.8281814237570391e+01 -2 0 -4
762 2 4.7576092819480973e+00 8.6290915209228576e+00 1.1380237614975854e+01 -4 0 0
1046 2 1.1787814265458215e+01 2.9056908779600565e-01 2.5021813206518719e+00 0 0 0
56 2 -3.3575207786232397e+00 9.1057550937568088e-01 1.5179091765832265e+01 -2 0 1
57 2 -2.0925185898242704e+00 3.0321910698499099e-01 1.5514574885463452e+01 -2 0 1
499 1 1.8119818644445118e+00 3.8422377843132001e+00 1.6202635219173619e+01 2 0 1
1446 2 1.4504425739773160e+01 1.5677878480217364e+00 6.7961378018552843e+00 0 1 0
1547 2 1.1367917483013272e+01 8.8944455798675737e+00 3.4433783773402844e+00 0 0 2
755 2 1.0433165549778550e+01 7.4872407672171448e+00 1.5265829013072738e+01 0 0 2
796 1 -6.0667399924062893e-01 -2.4447800980569001e+00 7.0500193304256396e+00 -3 0 0
1948 1 2.2114855205553816e+00 -2.3464259397247424e+00 1.2992927651843452e+01 0 1 0
362 2 1.8625960861084678e+00 3.7465159178030722e+00 1.1962727281876303e+01 -2 0 -3
864 2 1.2130023180913557e+01 5.0323005723126712e-01 1.0534882556706117e+01 -5 0 -3
1245 2 4.4438547420995640e+00 3.9427168360077456e+00 1.1443250503240916e+01 3 0 0
1522 1 1.1825923183522821e+01 6.9068719737661777e+00 1.4167236218860779e+01 1 0 -1
1114 1 8.5603200358672815e-01 6.8457929815322451e+00 1.1378318101377580e+01 1 0 1
1116 2 1.0442138536577943e+00 5.9666650743140046e+00 1.0998812742351559e+01 1 0 1
219 2 2.5091300460571313e+00 1.2160716726905436e+00 1.2004605779918785e+01 -3 0 0
217 1 3.4805294133378766e+00 1.0894163862095079e+00 1.1890258332594252e+01 -3 0 0
218 2 3.7978401662590091e+00 6.2783971700445829e-01 1.2756666466532112e+01 -3 0 0
815 2 6.6964196549440897e+00 2.5833262199053868e+00 1.8857415209179457e+01 2 0 1
40 1 3.5612968803567506e+00 8.1050367769018798e+00 1.7235965300883706e+01 -4 0 2
1898 2 6.9794335242635306e+00 -3.2846917828312083e-01 1.5405216070224549e+01 0 1 0
1929 2 -4.3805734625857999e+00 4.2700293030512793e+00 1.4578998948357018e+01 0 1 0
677 2 1.0698911311114003e+01 4.3288435989322229e+00 5.3637062318680231e+00 -2 0 0
252 2 3.5882220541563878e+00 2.2347491973862921e+00 5.6085789248485547e+00 -5 0 0
954 2 1.4580511124471503e+01 9.8848578069079984e-02 1.1724428150077584e+00 1 0 2
250 1 3.9941954344481063e+00 1.3525471229484385e+00 5.3881907288629858e+00 -5 0 1
756 2 9.3850726350804479e+00 7.5031666220983091e+00 1.6508817250184695e+01 0 0 2
807 2 -1.5502099836274983e+00 -1.1872325907670525e+00 1.1413860403926005e+01 -4 0 0
1649 2 3.9177277519980400e+00 -5.9537385224653061e-01 5.3316662146235194e-01 1 0 1
1651 1 9.5995604631106275e+00 -1.6119037833745833e+00 1.1194212684635772e+01 1 0 2
134 2 5.6612838454905408e+00 1.9031938670397697e+00 7.5165456410213851e+00 3 0 -1
1596 2 -1.0525378040504911e+00 -3.2674510175789391e+00 1.1701300181931035e+01 0 1 2
1444 1 1.5264434720783608e+01 9.7792123890225913e-01 6.5080595958547400e+00 0 1 -1
1097 2 8.2985879684318800e+00 5.8330006174458298e+00 1.1725035357934926e+01 -1 0 -3
1928 2 -4.9214098080607149e+00 5.7491099493018893e+00 1.4994160425100603e+01 0 1 0
132 2 1.3046171280893082e+01 1.4847946126115286e+00 8.6762805689467921e+00 -2 0 0
1048 1 5.1370935644386719e+00 -3.2918933870657172e+00 1.2844917814384541e+01 -1 0 1
1060 1 8.0901800918490103e+00 5.1296699561138972e+00 9.0115437886162297e+00 0 0 1
1546 1 1.1408835440992029e+01 7.9013815322406007e+00 3.5324269663065362e+00 0 0 2
1443 2 5.0054687255681971e+00 3.5183854065787896e+00 1.3948348758936258e+00 1 1 0
269 2 7.3151499244944116e+00 9.3474624297881785e+00 1.7342470389066982e+01 1 0 -2
301 1 -6.4079976203333517e+00 8.8202149820810369e+00 1.8830927870999719e+01 2 0 0
824 2 1.4109831877910638e+01 5.8694302139494177e+00 2.2273627690530571e+00 1 0 0
1653 2 1.0246997171866166e+01 -9.1506666763121958e-01 1.1261750423873909e+01 1 0 2
1113 2 3.5949949951936286e+00 4.5987269789965204e+00 1.3550662187531076e+01 -3 0 0
599 2 1.3128134257094821e+01 7.9116996207576538e+00 6.2482783905219250e+00 -6 0 0
1648 1 4.3975018834133595e+00 -1.1844487490761977e+00 1.1553477577562408e+00 1 0 1
54 2 6.8226292386098271e+00 -1.4188572111449451e+00 1.0516749805882206e+01 1 0 1
1148 2 1.3267145861419655e+01 -2.0877570062723070e+00 9.7675974865591595e+00 1 0 -1
1761 2 1.2159394045956731e+01 -2.8945227381953211e+00 2.6912490871736585e+00 1 0 1
1098 2 8.5019058611835341e+00 7.2603419681690848e+00 1.1086070925938547e+01 -1 0 -3
509 2 -1.7092556514494031e+00 9.1442069518829712e+00 8.2969033204546765e+00 0 0 -1
1959 2 1.0945119333612446e+01 3.1454748004669462e+00 1.2524785690762551e+01 0 1 0
113 2 7.1486117779980107e+00 -1.4259044249445596e+00 1.7232708363412222e+01 -1 0 -3
41 2 3.2319406384032741e+00 7.1698538567588184e+00 1.7000700054062538e+01 -4 0 2
417 2 1.3280113347935973e+00 2.4695332686849856e+00 1.2350341749798937e+00 1 0 -4
1042 1 -3.0893244247547487e+00 5.3114182510447208e+00 1.7635311261793394e+01 -2 0 -4
1079 2 6.5073248521321769e+00 7.8108716959766085e+00 2.5920374900007408e+00 -1 1 1
1464 2 1.3418300625544660e+01 -3.0002688282313845e+00 1.1982343534677060e+01 -2 1 -1
80 2 -2.8954396297236626e+00 4.6004150368828753e+00 8.3921548661729819e+00 -5 0 -3
315 2 -3.7826003076369448e+00 1.1663601128402412e+00 1.1252110251639767e+01 -3 0 -4
264 2 5.8628657920832943e+00 7.7141356999914965e+00 1.0051236851132357e+01 2 0 2
440 2 2.8592434507768860e-01 4.8645698552580452e-01 1.2777367377582411e+00 -1 0 -1
1976 2 -1.6104133444157895e+00 7.4296599954726190e+00 1.4069534131517006e+01 0 1 0
798 2 -9.4583383135411103e-01 -1.7463417643164860e+00 7.6333712933722797e+00 -3 0 0
1244 2 3.5947347097682227e+00 2.7367124914635150e+00 1.1975152938873102e+01 2 0 0
1552 1 7.8244217212918326e+00 5.4419001144139294e+00 4.7304341403492423e+00 -1 0 0
767 2 8.8745920122353290e+00 6.5800463423633637e+00 8.2334949675343641e+00 -3 0 0
407 2 8.9782695327876443e+00 -2.7802472122597992e+00 4.4164775196431938e+00 -5 0 -2
1543 1 1.5310872044842567e+01 4.2030372382076830e+00 4.4168226566202122e+00 0 0 0
917 2 1.2644730150985152e+01 2.1742800547299428e+00 1.4236133701405359e+01 1 0 2
1427 2 1.1756748430472403e+01 7.4479903229638378e-01 1.6145200752669211e+01 0 1 0
398 2 -1.6835637848172902e+00 5.8119014591984470e+00 6.5230216124031015e+00 1 0 -1
793 1 6.0862323716147495e+00 -8.7109077333161178e-01 1.2049320667893815e+01 0 0 -1
855 2 1.1538927445729783e+00 -2.0944967351386818e+00 1.7507337011374048e+01 -1 0 -2
237 2 2.1390319888565434e+00 5.6617053793895238e+00 1.8792517002815149e+01 -1 0 0
1223 2 -6.9782705090828934e-01 2.8566054122893103e-01 8.5891749617651545e+00 -1 1 0
1428 2 1.1953648018774054e+01 1.9126517022449274e+00 1.7167860597500255e+01 0 1 0
1010 2 -4.7305329045627298e+00 -2.0437153261182592e+00 1.4431319378528988e+01 -1 0 -3
397 1 -2.0263326558288735e+00 4.9360086594384303e+00 6.8331267113519960e+00 1 0 -1
540 2 4.8570729654903593e+00 -1.8376172198757956e-01 1.4309928015176048e+01 -4 0 -4
235 1 2.7739143514218316e+00 4.8971468486734224e+00 1.8729017034593625e+01 -2 0 0
896 2 -3.4448704320989976e-01 8.3719752334115576e+00 2.7974720307979601e+00 -1 0 -2
1442 2 4.0535077085229085e+00 4.7771232480578547e+00 1.7666430492790308e+00 1 1 0
446 2 7.2116721959251580e+00 3.5239937267636083e+00 1.1681697634053267e+01 0 0 0
503 2 -3.4592546919473297e+00 8.1775315187788085e+00 1.5215368510300495e+01 0 0 -1
969 2 1.6482807423250541e+01 2.4767910807346540e+00 2.1614595914466150e+00 -4 0 0
316 1 1.4889224412703227e+01 5.7610634310122055e-01 3.9899819392817051e+00 1 1 1
273 2 6.6219550372424480e+00 8.4779438750992657e+00 7.9478449954339423e+00 0 0 0
1974 2 1.0497232206385068e+01 -3.0659852075256975e+00 1.0468737922337240e+01 1 1 0
823 1 1.3639460913861660e+01 5.3946650959544833e+00 1.4640011528703420e+00 1 0 0
825 2 1.2827973675427106e+01 5.9349386566303721e+00 1.2986217838183376e+00 1 0 0
1614 2 -3.6580900787852682e+00 6.7755162930613118e+00 1.8159009633081649e+01 -2 0 -1
182 2 6.6315761092760210e+00 -2.6458757349284334e+00 4.9295782265228061e+00 3 1 -1
69 2 3.8903870739131006e+00 1.9225025799547879e-02 6.4171001615782890e+00 -1 0 -1
1756 1 2.2570169819313981e+00 -3.1758914560015734e+00 3.7028517951841593e+00 0 1 2
607 1 8.8817090941895476e+00 -1.5254868972959383e+00 1.6302108416832743e+00 -3 0 1
1697 2 1.6625978029428293e+01 -8.1184698221406792e-01 5.8800984145024704e-01 0 0 3
296 2 5.0465159671590891e+00 1.6187599607705012e+00 1.7824409127924312e+01 2 0 3
318 2 1.3945126805468163e+01 5.3296251614620971e-01 3.7137367632295581e+00 1 1 1
978 2 -3.2756624794444882e+00 6.4030963442627886e-01 1.7682367163497329e+01 -2 0 -1
1044 2 -2.9749128629318164e+00 4.5884072942762728e+00 1.8297169350691842e+01 -2 0 -4
1645 1 5.5075443739270842e+00 5.5024946172277716e+00 1.0453499657306967e+01 0 0 1
1650 2 4.1976127326789472e+00 -9.5701040480656996e-01 2.0790948724637097e+00 1 0 1
569 2 1.3805236052760895e+01 -3.3000894193437267e+00 1.6979744026469064e+00 0 0 2
112 1 6.3648304466672787e+00 -1.2303978682895704e+00 1.6747638251408254e+01 -1 0 -3
1950 2 2.0735357783996982e+00 -3.0818140797157954e+00 1.3632952081241855e+01 0 1 0
1165 1 -5.9313620437913102e+00 3.8374772142156326e+00 1.7288628400613081e+01 1 0 -1
1177 1 1.1868230954064543e+01 7.0935332864749956e-01 1.4336437013757331e+01 0 0 -1
1147 1 1.3438773017877802e+01 -1.6496443841951163e+00 8.9194178790427721e+00 1 0 -1
272 2 7.8440859920669208e+00 8.8214529542766780e+00 7.2603193696351331e+00 0 0 -1
150 2 -3.5770154759141093e-01 4.2576513751101448e+00 5.0904522327374977e+00 0 0 -1
1463 2 -3.6730177791496841e+00 -1.7946977718870121e+00 1.1310748423550045e+01 -1 1 -1
648 2 8.9797900944619276e+00 4.4250546137741837e+00 1.8304423107273056e+01 -3 0 -2
1292 2 3.2233828972303455e+00 3.4158653248471902e+00 7.2548963188053142e+00 0 0 1
521 2 -8.2687216923043638e-01 7.9003802992703420e+00 4.9775510606888140e+00 -2 1 -2
1291 1 3.0421197506364299e+00 3.5931564336170192e+00 6.3299610715742798e+00 0 0 1
81 2 -2.5663713896248090e+00 3.9497543186638238e+00 9.8379828186331242e+00 -5 0 -2
1643 2 8.5707537849157802e+00 3.7732202478204409e+00 1.6025291482770641e+01 0 0 1
676 1 9.8486259542757963e+00 4.0250412767814456e+00 5.6567016613497829e+00 -2 0 0
723 2 7.0088320057743725e-01 4.4809793244027283e+00 1.2109104608930337e+00 -4 0 -1
647 2 1.5006792745286544e+01 4.8957400249155008e+00 5.9359946047906154e-01 -3 0 -1
248 2 4.3481057247943875e+00 5.0220739640170216e+00 5.1651049283682617e+00 0 0 -1
390 2 5.7359764688563546e+00 6.3407660154530330e+00 1.2006703808546417e+01 0 0 -3
1100 2 7.6261714015033322e+00 4.8813879805435683e+00 3.1422487518465831e+00 -1 0 0
1691 2 1.3028280449867271e+01 4.0328620216579827e+00 2.2370327730888020e+00 2 0 2
813 2 7.0874577551340678e-01 8.2231252363622769e+00 1.2620382797069574e+00 -2 0 -2
313 1 -3.1496537993383402e+00 1.3055946011390320e+00 1.1973772134111741e+01 -2 0 -4
236 2 9.2883295001027193e+00 4.5136091401866540e+00 5.0262876789483368e-01 -2 0 1
1061 2 8.4794039366951104e+00 5.5204691402214117e+00 9.7991817607964418e+00 0 0 1
79 1 -3.2333285172352797e+00 4.4780001770651339e+00 9.3154483189010300e+00 -5 0 -2
445 1 7.8601129017600071e+00 3.8335891965435387e+00 1.2322232569394323e+01 0 0 0
1529 2 1.8386475762793264e-01 2.8273878735756162e+00 1.6076530167004830e+01 -3 0 0
745 1 -4.0402899543971760e-01 6.3921826018709194e+00 1.6679849278852281e+01 -2 0 0
246 2 -2.8339648783440881e+00 6.6412922682477600e+00 1.1478791128011963e+01 -4 0 -5
862 1 1.1586060113451440e+01 1.1297791770067489e-01 1.1253778108639017e+01 -5 0 -3
244 1 -3.1549999301553280e+00 6.9033219953558493e+00 1.0507843617021795e+01 -4 0 -5
84 2 1.8037245174907395e+00 -2.1276352522941684e+00 5.1666406121517321e+00 0 0 -3
1038 2 8.6447681441259494e+00 1.2808647200811585e-01 6.1659690706325758e+00 -2 0 -1
1530 2 -1.1691418459991638e+00 2.0775057934253525e+00 1.5631637684409132e+01 -3 0 0
1096 1 8.8232829013872518e+00 6.3185604519840854e+00 1.1058169238402208e+01 -1 0 -3
1240 1 5.5993668640140779e+00 5.0273967049312951e+00 1.6176878583299501e+01 1 0 -2
1037 2 7.9439202730200256e+00 -5.0187897337541143e-01 4.9890119060657430e+00 -2 0 -1
1980 2 5.7041844058925317e-01 1.4407657572940540e+00 1.4060751322256134e+01 -1 1 -1
1528 1 -3.2414890816895081e-01 2.4676904220227014e+00 1.5320414046063341e+01 -3 0 0
1523 2 1.2457690490797454e+01 7.5501268420065450e+00 1.4571285457016023e+01 1 0 -1
877 1 4.3391991085361958e-03 2.0872217911057618e+00 6.4409947431010348e+00 -2 0 1
247 1 5.0597259755908359e+00 4.5455959481444239e+00 4.6438122373934716e+00 0 0 -1
230 2 9.8189218715835924e-01 5.4657808382660189e+00 7.8765461984008631e+00 1 0 -2
1612 1 -3.9619603735363338e+00 7.7693367203492407e+00 1.8226623225676878e+01 -2 0 -1
1162 1 8.9459309255354498e+00 -1.8357149109749751e+00 1.6982921699119029e+01 -2 0 -2
678 2 9.5683839385579272e+00 3.2289246818481585e+00 5.0710191233624275e+00 -2 0 0
65 2 9.3933003453664679e+00 4.7833353233217153e+00 1.4191386974435886e+01 -2 0 -4
66 2 1.0860136985842175e+01 4.8981252713623196e+00 1.3860032448940295e+01 -2 0 -4
64 1 1.0199977744222171e+01 4.2246545693059296e+00 1.3971102687164104e+01 -2 0 -4
614 2 7.7482124276329003e+00 3.3346218312735489e+00 1.4108521626136728e+01 0 0 0
1975 1 -1.7546986971605336e+00 8.0267730617923281e+00 1.4781641982180753e+01 0 1 0
609 2 8.6531239109684428e+00 -2.4814642411283243e+00 1.3313514352301046e+00 -3 0 1
1516 1 9.7350015105405205e+00 2.4220700254641070e-02 7.6407632901265936e+00 0 0 -1
1970 2 5.1168746189274295e-01 -1.6661205356058026e+00 1.2414986450707319e+01 0 1 0
456 2 9.6917106023363218e+00 1.8482839054436369e+00 1.0756726520638582e+01 0 0 -1
454 1 9.1024735784532069e+00 1.5347299793778886e+00 1.0054977970804542e+01 0 0 -1
1265 2 -1.2491238883353901e+00 -1.9523146772937008e+00 1.5519157709340366e+01 2 0 1
161 2 1.2759028796373578e+01 3.3463565606625298e+00 6.3828001960059417e+00 -1 0 -5
447 2 8.6969138314421812e+00 3.5532108344566575e+00 1.2033271716170876e+01 0 0 0
811 1 9.0151850759970709e-01 7.6245112913926665e+00 2.0595412074991115e+00 -2 0 -2
747 2 -1.1823126002089879e+00 6.1275693111012774e+00 1.7187909397334650e+01 -2 0 0
746 2 2.2654226905924979e-01 6.7630694839675396e+00 1.7353986770454124e+01 -2 0 0
1568 2 6.0026485878158828e+00 3.0870747825893607e+00 4.3687259473434432e+00 2 0 0
1548 2 1.1347601298651307e+01 7.5463393892234656e+00 2.6228527371527735e+00 0 0 2
378 2 1.1632676448637930e+01 3.8223119444954365e+00 1.0533949389944013e+01 -3 0 -2
229 1 9.4049535781989624e-01 4.5145049591197335e+00 8.0939905598335820e+00 1 0 -2
1567 1 6.1121541088258766e+00 2.1211360083789499e+00 4.0555693081846247e+00 2 0 0
1293 2 2.0991550626786091e+00 3.7048941062455407e+00 6.3821246703619359e+00 0 0 1
85 1 6.8329953861692267e+00 -1.1550899659712233e-02 6.7803872007319677e-01 1 0 -2
27 2 1.1352601843947999e+01 -1.4392952695976602e-01 6.6872395542270979e+00 -1 0 -4
231 2 4.3875128946559983e-03 4.2928019134873390e+00 7.9011832087059748e+00 1 0 -2
591 2 1.4577657447406796e+01 -2.5772792971441696e+00 5.6954726124240516e+00 -2 0 -1
86 2 6.6640514518056442e+00 9.7477698963748249e-01 8.8898730998838815e-01 1 0 -2
780 2 9.3613252250544168e+00 -3.1949897472402906e+00 1.2256396712989668e+01 2 0 -1
1099 1 7.7869547895338922e+00 4.8070486906255230e+00 2.2103373471440100e+00 -1 0 0
754 1 9.5862722385632839e+00 7.8026020590048333e+00 1.5602773137879984e+01 0 0 2
879 2 -9.9925275970399241e-01 2.1609985951494197e+00 6.5552827940134861e+00 -2 0 1
295 1 4.6955180065688396e+00 6.7786677993687139e-01 1.7846541492333387e+01 2 0 3
510 2 -1.5700344214891055e+00 8.8356733040582949e+00 6.7567959126607917e+00 0 0 -1
87 2 5.9682661544370035e+00 -5.0123401282706626e-01 8.3570111184753215e-01 1 0 -2
715 1 -5.6797200221708533e-02 -3.1188190576477561e+00 2.5565474270903086e+00 1 0 2
1692 2 1.2891404362037353e+01 2.5527591345655622e+00 2.7917041779772056e+00 2 0 2
186 2 1.1916293536867486e+00 7.3356580022166007e-01 9.4114883757936330e+00 -3 0 -5
377 2 1.2757341115393444e+01 4.1358915278349713e+00 9.4718019771712605e+00 -3 0 -2
613 1 7.2375303677803684e+00 2.8831489203399840e+00 1.4796316163073769e+01 0 0 0
268 1 6.8068258666882659e+00 8.5187340123591113e+00 1.7475785356655585e+01 1 0 -3
615 2 6.6223951711466729e+00 3.6393160029275480e+00 1.4996381421659576e+01 0 0 0
2010 2 1.2781847407262688e+01 -2.6875147512648749e+00 5.0544493428410568e+00 1 1 0
895 1 -1.0941147558255486e+00 8.5742569804838720e+00 3.3266023890156795e+00 -2 0 -2
105 2 9.2898467622653698e+00 6.6234233481945068e+00 1.8397484175930824e+01 -2 0 -3
1179 2 1.2664594506694915e+01 1.1958830637531470e-01 1.4367888595601025e+01 0 0 -1
455 2 9.3023884881681003e+00 2.1149349249140732e+00 9.3048502511650497e+00 0 0 -1
1517 2 9.9820082139462709e+00 -9.1087990378730765e-01 7.8350688623829639e+00 0 0 -1
1128 2 1.0105290925279782e+01 7.8734270036501997e-01 1.7418811526667490e+01 0 0 4
297 2 3.8042671516984150e+00 8.3459588267616702e-01 1.7393114867449555e+01 2 0 3
303 2 -5.5906488785592670e+00 8.3943439538904840e+00 1.8535956117953006e+01 2 0 0
1127 2 9.0706245322223076e+00 1.7330435866678986e+00 1.6810358904209910e+01 0 0 4
1126 1 9.1310181948859999e+00 9.5989219984928731e-01 1.7366203045121981e+01 0 0 4
271 1 6.9103455034898573e+00 8.5743117544252918e+00 7.0341835565407571e+00 0 0 -1
1212 2 -1.1974552607682156e+00 8.9307510827269301e+00 1.0484566520036111e+01 2 0 -2
416 2 2.5757965947773576e+00 3.2594732047928989e+00 8.9039557715746709e-01 1 0 -4
1518 2 9.3058193365026725e+00 4.3667501667243513e-01 8.4268526396999839e+00 0 0 -1
1569 2 6.8900089628538801e+00 1.8030492664570419e+00 4.5183780180520738e+00 2 0 0
314 2 -2.7798569181562813e+00 4.5289217311380803e-01 1.2250475837454529e+01 -2 0 -4
1716 2 4.6788506134566585e+00 -1.5046909559249668e+00 4.0222105092180431e+00 1 0 1
104 2 8.3417741415129214e+00 7.8513132940122006e+00 1.7977878286345806e+01 -2 0 -3
184 1 6.3694899340269773e-01 1.4634485738233369e+00 9.0633863136779045e+00 -3 0 -6
185 2 8.1840727612265685e-02 1.9093287162989085e+00 9.7487089357305194e+00 -3 0 -6
1553 2 7.1375140867387898e+00 5.4504381763601302e+00 5.4221739530688682e+00 -1 0 0
1562 2 7.1022782228101802e+00 3.3414020256424237e+00 1.6617414921491331e+00 1 0 1
993 2 1.1751499782054250e+01 5.8744793344558612e+00 1.0847406275240447e+01 2 0 1
164 2 5.9550788094072313e+00 4.2661487033386631e+00 7.4246021152183195e+00 2 0 0
160 1 1.2889735247227648e+01 2.5384797799258250e+00 6.9128553375366826e+00 -1 0 -5
1242 2 6.3739337530405384e+00 5.6124758487786188e+00 1.5995729485850591e+01 1 0 -2
1971 2 -1.6831216218729672e-01 -3.9741668870939106e-01 1.2660731097416839e+01 0 1 0
960 2 2.3714446528323454e+00 7.7410372361085340e+00 1.0217884891363303e+01 1 0 -1
258 2 1.1128906368144520e+01 7.1045165626114404e-02 2.3577687253775545e-01 -1 0 0
812 2 4.8408312359702321e-01 6.7239691022194776e+00 1.8372271049381486e+00 -2 0 -2
257 2 1.0234117291499144e+01 -7.0604572001143673e-01 1.3722551759651660e+00 -1 0 0
766 1 9.5010496168802678e+00 7.2524100244694267e+00 7.9319049986592347e+00 -3 0 0
163 1 6.0651106174833060e+00 5.2240088795575446e+00 7.2458849838987591e+00 2 0 -1
1738 1 6.4826592345703400e+00 1.7496513033861216e+00 1.0613766632004957e+01 1 0 0
1647 2 6.2402833844496186e+00 5.0071001461791269e+00 9.9354370527508049e+00 0 0 1
162 2 1.2372557500963463e+01 1.7400417226286278e+00 6.5388680072917715e+00 -1 0 -5
714 2 1.2632499561451109e+01 5.6279298555343438e+00 5.3011213557541517e+00 -1 0 3
968 2 1.5151669847014436e+01 2.4406868885229320e+00 1.3817076194893601e+00 -4 0 0
1004 2 7.2880107284707094e+00 7.3272614351587251e+00 4.7378124953065937e-01 -3 0 1
474 2 1.8677717594372503e+00 4.9501343748319204e-01 1.6502899666720204e+01 -3 0 0
67 1 3.6039421436020294e+00 -6.0172636501486876e-01 7.1160762605576284e+00 -2 0 -1
1208 2 4.1979138349180882e+00 3.5984154538538418e+00 1.8473878016256165e+01 0 0 -1
500 2 2.2001808421359836e+00 4.0613900237330585e+00 1.7063432295967633e+01 2 0 0
472 1 2.5491978245407667e+00 1.0927861391874263e+00 1.6151252879957458e+01 -3 0 0
795 2 6.5706284043314138e+00 -4.7062228441915943e-01 1.2787639948648479e+01 0 0 -1
434 2 2.6782537714842989e+00 6.1625769424637458e+00 8.5882179758286057e+00 -2 0 1
797 2 2.8838834033090954e-02 -2.0331986688613570e+00 6.4316902535580720e+00 -3 0 0
473 2 2.3133609973518166e+00 2.0255268212825177e+00 1.6244638098117978e+01 -3 0 0
170 2 1.0595465926276891e+01 6.1261394004819572e+00 6.5980421595904748e-01 -2 0 2
957 2 2.8367964858513650e-01 7.5719621821279208e+00 8.4536936976685357e+00 -4 0 -2
1642 1 9.0678039679835365e+00 3.8020735528672134e+00 1.6812182262124026e+01 0 0 1
589 1 1.3837944629058196e+01 -2.5830264651139867e+00 6.3664390677249267e+00 -2 0 -1
330 2 -5.0806778636048833e-01 3.1868833084734387e+00 1.1197286059573520e+01 -1 0 -2
1644 2 9.9895282882218357e+00 4.1319882572723401e+00 1.6608759719604116e+01 0 0 1
1282 1 1.0130162402107059e+01 2.3632078026939656e+00 1.5379897776553091e+00 0 0 1
1207 1 5.0714801564562420e+00 3.3043135637592114e+00 1.8269745344427896e+01 0 0 -1
538 1 3.9432379022564730e+00 -6.5455886441181388e-02 1.4049861858693147e+01 -4 0 -4
1698 2 -9.4379375196077586e-02 -1.4616428874279457e+00 1.4000520204902562e+00 1 0 3
1489 1 -4.4855766343276571e-01 4.7090065135446988e+00 1.3930555564239393e+01 2 1 -1
328 1 -1.1515436863492203e+00 2.7137956011466446e+00 1.0643267045813856e+01 -1 0 -2
1209 2 5.3744224308878685e+00 3.8577791072995709e+00 1.7512054658601592e+01 0 0 -1
704 2 -2.5414563206454917e+00 -3.0815517887685990e+00 1.7013323921009849e+01 -2 0 -2
768 2 9.4543869190874652e+00 7.3355994058637481e+00 6.9241586310695480e+00 -3 0 0
1714 1 4.0326044143480253e+00 -9.2498521659152022e-01 3.5906644283610216e+00 1 0 1
665 2 6.3467110931005211e+00 -2.9421451808002339e+00 9.2884979528454341e+00 2 0 3
907 1 1.2142951457796718e+00 9.4327475901599112e-01 4.4688914807650004e+00 -1 0 -1
959 2 3.3556795022823418e+00 8.4628791125626321e+00 9.1712766889013828e+00 1 0 -1
703 1 -1.9768485258700856e+00 -3.5016070457897919e+00 1.6381725922488137e+01 -2 0 -2
1222 1 -1.4384478458494501e+00 -3.2977203916279985e-01 8.4390968358863478e+00 -1 1 0
1445 2 1.5020893894128745e+01 7.0802503340831446e-01 5.6060045181852081e+00 0 1 -1
501 2 2.4147632413730227e+00 4.1319450514253111e+00 1.5500564982843684e+01 2 0 0
790 1 1.5584623122838916e+01 -2.3801584043591859e+00 4.1812179801317155e+00 0 0 1
956 2 1.4526708608563088e+00 7.9909314679104497e+00 7.5716422040085671e+00 -4 0 -2
1283 2 1.0896987448545152e+01 2.7831834779114235e+00 1.9576957880895076e+00 0 0 1
1487 2 7.9282745012340250e-01 -2.6140599321721378e+00 8.4659454794451356e+00 1 1 -1
853 1 1.3333462262822833e+00 -3.0530485205870539e+00 1.7704372362395663e+01 -1 0 -1
270 2 6.2220231290711538e+00 8.7166859420468441e+00 1.8223159648252693e+01 1 0 -2
1965 2 1.1874741425054498e+01 -2.0718927516579617e+00 8.0515744734503514e+00 0 1 0
1043 2 -3.2404251209322390e+00 4.9874726858006380e+00 1.6765261216621429e+01 -2 0 -4
600 2 1.2495012809053357e+01 7.7348379128249789e+00 4.8504950590788045e+00 -6 0 0
716 2 -7.6704808058853702e-01 -2.9487606479003747e+00 3.1153017625015327e+00 1 0 2
433 1 2.9275233127980012e+00 5.8356748676606749e+00 9.4878979649996698e+00 -2 0 1
23 2 4.0198533663426961e+00 7.6915863666786528e+00 7.0650786925918165e+00 -1 0 1
504 2 -4.2260135455654817e+00 8.0303828966868043e+00 1.6642538888345616e+01 0 0 -2
1554 2 8.6272694101846206e+00 5.1261977662772438e+00 5.2357419842945578e+00 -1 0 0
1957 1 1.0933111431827262e+01 2.5997044144304438e+00 1.1722638797565942e+01 0 1 0
1696 1 1.7622251220857915e+01 -1.0406151544222406e+00 5.5486058530854721e-01 0 0 3
25 1 1.2072743938405688e+01 4.5024940502258914e-02 6.1039942631237150e+00 -1 0 -4
1897 1 6.9518834770818216e+00 2.1433724856964620e-01 1.4566859197880971e+01 0 1 0