LAMMPS data file via write_data, version 8 Apr 2021, timestep = 1555000

3072 atoms
2 atom types

0.12850804923513362 30.01168595076541 xlo xhi
0.17150178871885977 28.168964211275295 ylo yhi
0.05102916800311544 27.36041583198719 zlo zhi
10.040419953851254 10.10866135045114 6.982468470084659 xy xz yz

Masses

1 16
2 2

Atoms # atomic

1 1 7.481870218344165 5.239387641146195 4.2269835667997295 0 0 0
2 2 6.665775217467632 4.780055153610185 3.984178043551378 0 0 0
3 2 7.151805014782261 6.184221537410042 4.412088184141313 0 0 0
4 1 10.224695430883994 6.925335721366784 10.830756777702556 0 0 0
5 2 10.666888542212147 6.450042484618294 11.56533856612697 0 0 0
6 2 9.83672960745847 7.688130476524054 11.24180692674969 0 0 0
7 1 10.020424611323817 12.193019569273686 4.026099210950252 0 0 0
8 2 10.635279840519262 12.003570898287723 4.813453316226164 0 0 0
9 2 9.622710438751794 12.963178128914656 4.3823594941259145 0 0 0
10 1 12.44044077038918 13.91960371828124 10.898396244043676 0 0 0
11 2 13.277831407529673 14.139297017985818 10.350585374253077 0 0 0
12 2 11.833755786430277 13.308995849916807 10.4052736723682 0 0 0
13 1 15.264603526060187 5.268656138686812 4.3051230701310805 0 0 0
14 2 15.68242722867726 4.8376182321323835 5.088469413659861 0 0 0
15 2 14.87142815350275 6.078760694504486 4.634722434407438 0 0 0
16 1 17.709753321253707 7.017690363600142 10.881353495718665 0 0 0
17 2 18.187121047267865 6.618257768760584 11.619341496155732 0 0 0
18 2 18.472895509626944 7.316854430515887 10.321463462858546 0 0 0
19 1 17.66606264243312 12.356331586202321 4.087465695008012 0 0 0
20 2 18.481448073794787 12.424778222435643 3.569427858467821 0 0 0
21 2 17.979583621174598 12.048326076469586 4.936042766634178 0 0 0
22 1 19.717755860596977 14.054278982778957 10.890890266886245 0 0 0
23 2 20.477383258850747 14.296714322720247 10.286734779315278 0 0 0
24 2 19.512515318096604 14.977348376511648 11.236557023429473 0 0 0
25 1 11.767610637599702 8.175327439779016 6.303949117198095 0 0 0
26 2 10.94083799222065 8.573220514369844 5.882139563239934 0 0 0
27 2 11.39674532782476 7.460980631904833 6.862895128890223 0 0 0
295 1 8.276419105390113 13.547415629410928 1.913786961147836 0 0 0
29 2 14.441113386249594 9.27396507427023 12.320958094168967 0 0 0
81 2 4.340376781623858 7.149158764894504 0.9973471296849358 0 0 0
182 2 17.297870257467345 3.8082464772144395 5.980493249213166 0 0 0
993 2 13.413326542539721 22.828521258128575 0.9174794331527034 0 0 0
32 2 14.480177609205079 14.858235262621806 5.478629241816037 0 0 0
38 2 18.517898533141356 8.838954787241779 5.958337576530187 0 0 0
87 2 8.424823267791435 1.287355810266531 1.643306123841891 0 0 0
275 2 14.5316824097072 15.61537266608373 8.954179880466528 0 0 0
172 1 11.879975625974815 5.807414413927605 13.032471360116688 0 0 0
49 1 5.115913020267241 3.6880699166606052 3.055100064718318 0 0 0
50 2 5.511579723310599 2.8430652837198678 2.691920719317946 0 0 0
51 2 4.260991360130806 3.4437934146050257 3.4886648133440503 0 0 0
52 1 8.057326138116984 5.669222025771999 9.725267967956226 0 0 0
53 2 7.719896240766695 6.063305298293548 8.885151726105011 0 0 0
54 2 8.953813505410539 6.052603584103316 9.90923646065557 0 0 0
55 1 7.788689387825429 10.670526945854679 2.8729880567961374 0 0 0
56 2 8.21625037286878 9.825259896938666 2.7271439385218526 0 0 0
57 2 8.419485552811837 11.249736777701704 3.3358828685219746 0 0 0
58 1 10.54960165874657 12.456795855053393 9.703648472108442 0 0 0
59 2 9.975409892962633 12.969116891177546 9.059621075974867 0 0 0
60 2 10.71051208880661 11.529306181633903 9.241843527650387 0 0 0
61 1 12.865971506414146 3.7772898517114846 3.044920385575421 0 0 0
62 2 13.71866071349624 4.068122363169294 3.4431728727569864 0 0 0
63 2 12.563204162053792 4.304089960832498 2.264587925549256 0 0 0
64 1 15.340525257076505 5.312736893593069 9.78856565127735 0 0 0
65 2 16.12600567253109 5.876589581356314 9.982756833691958 0 0 0
66 2 15.601031021844072 4.396500462352526 9.635170010797626 0 0 0
67 1 15.43701841958767 10.76426958917621 2.9052514489127876 0 0 0
68 2 16.139930455123302 11.470110162864419 3.069933272249555 0 0 0
69 2 15.748103106795456 10.02309893825088 2.3949360379587747 0 0 0
70 1 17.687325787076972 12.569338106066606 9.581586232378053 0 0 0
71 2 17.455286750773148 12.980842339522551 8.72922331332733 0 0 0
72 2 18.598084932868176 12.88901639063901 9.842044257657303 0 0 0
121 1 2.996672614546941 2.926181666898914 4.421896055582488 0 0 0
229 1 13.292128169761053 1.4155984732310831 1.884941386886494 0 0 0
84 2 7.078790927330658 8.835882213212018 7.908660381762394 0 0 0
338 2 4.6388764069129955 5.542689616154262 4.789141822055356 0 0 0
310 1 18.46717030285156 15.775187285147325 8.736729498360129 0 0 0
90 2 11.635321710309313 3.4220041439433713 7.028222154107205 0 0 0
94 1 13.92895836460704 9.543136780921584 7.484634757123177 0 0 0
95 2 14.5220761820452 8.851298029819702 7.8552823498642415 0 0 0
96 2 13.212924074597325 9.07516460086875 7.021066279491 0 0 0
97 1 5.197748169282694 4.310054142423024 6.176134529458158 0 0 0
98 2 5.705443698451902 5.02422101506219 6.7304132482656716 0 0 0
158 2 15.243884651460279 2.1576004126960813 5.78728665311455 0 0 0
101 2 7.67574639814051 6.755684087293827 12.049924031354125 0 0 0
102 2 8.573160811648052 5.512584787443243 12.461197960365991 0 0 0
103 1 7.912719637081415 11.199270497879727 6.020946608754356 0 0 0
104 2 7.372170849305117 11.923819972853103 5.624514514700379 0 0 0
105 2 7.400897656288192 10.525730911621842 6.48710332010009 0 0 0
108 2 11.019998676051738 12.566068783913765 12.489174223025868 0 0 0
109 1 12.74911496404337 4.550970282049537 6.100635782879672 0 0 0
110 2 13.465073968324178 3.9423277318819503 5.723972450323462 0 0 0
111 2 12.475548264395488 5.093241537302331 5.34710597205434 0 0 0
318 2 5.838956028655141 6.7101285551358485 7.996323774913891 0 0 0
115 1 15.64024850890982 11.339497085882615 6.183750063788081 0 0 0
116 2 14.957880782812595 10.838933249605358 6.727064852478384 0 0 0
117 2 16.08183510989223 12.066197295825086 6.729337060922128 0 0 0
118 1 17.860242635535425 13.329041935765934 13.046577901120136 0 0 0
120 2 17.561579609775038 13.721331732710501 12.24496604866316 0 0 0
367 1 9.44463631646876 14.465709104231541 5.189464649696471 0 0 0
124 1 5.593248937744882 4.6606902976728355 10.770774875951385 0 0 0
125 2 6.4715610652780855 5.046207534675415 10.34227402023684 0 0 0
208 1 18.28980585849883 4.212481258840433 9.66542199703647 0 0 0
31 1 14.268791022383201 15.327785165350324 6.278240657619833 0 0 0
129 2 6.5053636163821675 10.332386092099965 3.7685138272090115 0 0 0
132 2 9.081189129877208 12.002826546794305 10.552813913944068 0 0 0
133 1 10.780823416748815 2.86433834229587 4.645571694015813 0 0 0
135 2 11.403215320841335 3.3920877857177016 4.157700063770592 0 0 0
136 1 12.984272020660267 4.492548506348654 10.95002140384762 0 0 0
137 2 13.711160485157269 5.075091415727225 10.590350798975564 0 0 0
138 2 12.667385895352972 4.798703571093712 11.816717778878484 0 0 0
139 1 13.225351467048927 9.965183675038226 4.155165992263979 0 0 0
140 2 13.935742537063742 10.404662208881808 3.6409575465395094 0 0 0
141 2 13.588549013283831 9.078269208689083 4.306701500204808 0 0 0
142 1 15.803145664960216 11.744626086628504 11.121533134155397 0 0 0
143 2 16.45304246615428 12.210076937898604 10.545113026483882 0 0 0
144 2 16.20555095295709 10.906124834707658 11.329717490712603 0 0 0
147 2 6.4628116449542246 2.8000076191708696 5.6633015184273034 0 0 0
379 1 17.39878225646627 14.768694738347516 4.983686263485838 0 0 0
149 2 9.67480958511886 4.139812934288364 10.98154265098249 0 0 0
151 1 9.390255850329169 9.084555571729323 4.859999927677692 0 0 0
152 2 9.129623314760208 10.000894597686992 5.044322736554132 0 0 0
153 2 9.914115035760771 9.183622370210315 4.056282327330403 0 0 0
154 1 11.887567698301197 11.123519995466046 11.9131040899133 0 0 0
155 2 11.255943845924415 10.32421955529178 11.978487154018598 0 0 0
156 2 12.114615569725945 11.193701869971152 10.974219395871435 0 0 0
157 1 14.389088961496986 2.380271569158744 5.338077479058443 0 0 0
123 2 3.3793849202468125 2.1524615782850565 4.850104113490194 0 0 0
159 2 14.699472128932115 2.3387005295233045 4.414627253566998 0 0 0
160 1 16.97633630260622 4.0883772875900615 11.953857048387311 0 0 0
161 2 16.68779477650445 4.980108935326247 12.12400595208426 0 0 0
163 1 17.01864181233516 9.351853068202367 5.220360215135088 0 0 0
164 2 16.53870223953639 10.045436399792173 5.681778929428963 0 0 0
165 2 17.45219095989609 9.707626444804909 4.425686639840834 0 0 0
166 1 19.417701640341118 11.245813909028096 11.949566544114766 0 0 0
167 2 18.99923723760186 12.089751541849914 12.28675481595331 0 0 0
168 2 19.925005383236236 11.419595214099306 11.177370457621183 0 0 0
169 1 9.185644512462536 4.388289640174168 6.166546201848633 0 0 0
170 2 9.814530739329749 3.885695456156296 5.64566348389607 0 0 0
171 2 8.553186795103253 4.712194831963434 5.484360439973391 0 0 0
127 1 5.701850792620592 9.950022759951418 4.212681871029162 0 0 0
175 1 11.705416859958694 11.254164408323598 6.0270863050353425 0 0 0
176 2 12.342768061532546 10.589949857468588 5.722936649414671 0 0 0
177 2 12.137010259604077 11.958258879938805 6.492978912348965 0 0 0
178 1 13.894888615708213 12.893637505491089 12.859395321429465 0 0 0
179 2 13.260226699529191 13.043931220131558 12.172280403815247 0 0 0
180 2 14.671470135036182 12.494183488952785 12.40408196670785 0 0 0
181 1 16.636427032526434 4.33684401683183 6.485706178228975 0 0 0
1089 2 11.179689946007572 24.954657628598262 0.4859333992740854 0 0 0
183 2 17.096528395537092 5.08840481774772 6.965526666124314 0 0 0
184 1 18.974466245456636 6.023487901342857 13.139847017387295 0 0 0
187 1 19.010194374769256 11.523099837252765 6.343860384072646 0 0 0
188 2 18.630882140417626 10.946227705540826 7.061772706367156 0 0 0
189 2 19.123745574757816 12.397654585583632 6.783559526184241 0 0 0
241 1 7.421125117033449 4.813322792114207 0.98684533185363 0 0 0
192 2 20.973729635259744 13.453615705060713 12.400369771967354 0 0 0
193 1 8.293392629090546 2.4632470945050913 3.114776672133656 0 0 0
194 2 7.585673384376383 2.1875658191557608 3.778046937876735 0 0 0
195 2 9.097833790380166 2.5487878837030973 3.645665635689289 0 0 0
196 1 10.799513745157043 4.515422601461387 9.427446890671913 0 0 0
197 2 10.91978206720172 3.736893314284828 8.838780983297857 0 0 0
198 2 11.65152060161119 4.549493222848092 9.968497024312184 0 0 0
199 1 10.987877659935036 9.570569873943926 2.864277345674462 0 0 0
200 2 11.062925303167306 8.789575744371268 2.2589720766129076 0 0 0
201 2 11.86368361864387 9.779749177126645 3.3186176202730913 0 0 0
202 1 13.516039059908802 11.344136337685969 9.487680170362562 0 0 0
203 2 14.28474726551317 11.497841351235419 10.070457444766244 0 0 0
204 2 13.679497690724931 10.545319403709893 8.935644521448111 0 0 0
205 1 15.601117898422716 2.6147608775627593 2.8868722162267946 0 0 0
209 2 17.63501102170635 4.093523944853727 10.450826355570932 0 0 0
213 2 18.209416479899893 10.475459288082769 2.397113868982467 0 0 0
214 1 20.79900143648846 11.472909045806052 9.62803744553009 0 0 0
1053 2 25.393724834872952 27.52533471388984 3.3787475533876257 0 0 0
30 2 13.641667011684136 10.557884658999832 12.864206227840626 0 0 0
319 1 6.414582198181758 11.767736255314997 0.559482187443811 0 0 0
221 2 8.097892105341215 3.852908745038633 9.153054615710223 0 0 0
222 2 8.42954113400879 3.625144797619914 7.641673673683738 0 0 0
223 1 8.38907030298423 8.300853628440539 1.7157695893297855 0 0 0
224 2 9.018240800802566 7.607546130886547 1.8965873881489814 0 0 0
225 2 8.552627387876225 8.594015792158231 0.7886836028341181 0 0 0
226 1 10.736077658731976 10.145204526605735 8.379798130177607 0 0 0
227 2 11.369477127354278 9.394442812579143 8.612691927653058 0 0 0
228 2 11.065449978075108 10.481268288663726 7.528141575587998 0 0 0
231 2 13.092873341275201 2.2027667976591307 2.372813295785657 0 0 0
234 2 16.028055442878404 3.112149628780029 7.8784218068826695 0 0 0
235 1 15.716554989366973 8.269912297222266 1.571218452405804 0 0 0
237 2 16.32412664951133 7.552352977266846 1.94089322579916 0 0 0
238 1 18.22888695532738 10.016783364048942 8.277840935563868 0 0 0
239 2 18.868796545990453 9.394586037403931 8.706658194831721 0 0 0
240 2 18.127108465663213 10.795038540573255 8.865815761258686 0 0 0
242 2 7.713147104889291 4.210133536095239 1.6742934107579468 0 0 0
243 2 6.703046560961965 5.294067650874857 1.468848171620845 0 0 0
244 1 10.355202659552237 6.458687757620883 7.5362181296148485 0 0 0
245 2 10.636635149945551 5.814060048434897 8.214409018049684 0 0 0
246 2 9.882874591579286 5.844423647432489 6.9646085829588325 0 0 0
247 1 10.034197970164652 11.658471925292385 0.9522113194996866 0 0 0
248 2 9.361375642306692 12.27112642511583 1.3220740682477732 0 0 0
249 2 10.50089697989594 11.211235038994637 1.7155454863395592 0 0 0
250 1 12.902593811098953 13.420204457020546 7.519283103249981 0 0 0
251 2 13.27830580857798 12.818758689531878 8.203524315331622 0 0 0
252 2 13.644694884987151 13.973064006187798 7.304834592826301 0 0 0
253 1 15.287086350439395 4.502968161420888 0.903463040352109 0 0 0
254 2 15.549376986663644 3.9282280052316843 1.6498117963227108 0 0 0
255 2 14.529107983622222 5.010676048879292 1.2038913269036393 0 0 0
256 1 17.760822290080004 6.313818016167912 7.885409933143377 0 0 0
257 2 18.037706024716112 5.740115742761259 8.627120160600928 0 0 0
258 2 17.086987977463743 6.935625500733271 8.288425777608287 0 0 0
260 2 17.024355794078136 12.52644856276409 1.1348022807248865 0 0 0
262 1 20.12046349909285 13.599459768736631 7.943974007794986 0 0 0
263 2 20.659495352779537 13.036980685748619 8.510875446322139 0 0 0
264 2 20.708987597710045 14.186263063135605 7.437688260601526 0 0 0
265 1 9.895794191238183 6.052391446041281 2.883913879116202 0 0 0
266 2 9.220916566765409 5.45166743073409 3.327318617187532 0 0 0
267 2 10.269110183575789 5.516547868692222 2.205410931095737 0 0 0
268 1 12.249038859371915 7.994837487424815 9.361276681761515 0 0 0
269 2 12.65731757311105 7.323974548792206 8.755470733857646 0 0 0
270 2 11.477996851759878 7.441505850816592 9.844053217894595 0 0 0
271 1 12.069508406207362 13.33316632816649 2.8740063625112127 0 0 0
272 2 12.809762420217083 13.508718548236983 3.4581228835777233 0 0 0
273 2 11.287877523240322 12.940516275981636 3.305267792107159 0 0 0
274 1 14.850534045460941 14.795479977709888 9.329229110319572 0 0 0
99 2 4.560847307327852 3.844978740205973 6.788005238795744 0 0 0
276 2 15.419371668068528 15.073292427438568 10.104733426592277 0 0 0
278 2 16.39040416638486 5.746011099420838 3.083018093318453 0 0 0
48 2 23.67589466507574 16.513300968811812 13.563484675183465 0 0 0
283 1 19.76070365958644 13.046053349736766 2.8185867338241657 0 0 0
289 1 5.742678689405914 6.69165913921542 2.0934004654381972 0 0 0
290 2 5.432358144149144 6.4517242312504495 2.9918764026195754 0 0 0
291 2 6.485472996147952 7.321752669262799 2.2385856276201905 0 0 0
292 1 8.534077433965441 8.115685342547684 8.616652452139455 0 0 0
293 2 9.21122067404997 7.498881089302628 8.253823907748709 0 0 0
294 2 9.10893776023663 8.898239397283803 8.670283947074571 0 0 0
1023 2 20.483277171186035 19.398479073407934 0.6264914463446672 0 0 0
296 2 7.82836295531873 13.280536543546827 2.7310324774549812 0 0 0
298 1 11.025864550720831 15.469616374614409 8.685730765951849 0 0 0
299 2 11.34157107199178 14.644951025527869 8.289572929689493 0 0 0
301 1 13.649774753477212 6.576222702671828 1.602755932525389 0 0 0
302 2 13.348727079333283 6.492087288699643 2.5691638658151734 0 0 0
303 2 14.427581791665968 7.159051491720921 1.6520326812858652 0 0 0
304 1 15.93096548032392 8.271377564660563 8.55266770980194 0 0 0
305 2 15.600801394124938 8.360617161421164 9.48985613982603 0 0 0
306 2 16.685327471169668 8.873252918719457 8.53477262849806 0 0 0
307 1 16.002292724296552 13.815213479075206 1.907155213600827 0 0 0
93 2 11.975805399964011 7.094245665302058 0.9471894215898314 0 0 0
134 2 11.296245585672352 2.0662471299439353 4.834155041324752 0 0 0
311 2 18.93240296883587 14.951311495103008 8.557858526089738 0 0 0
315 2 4.623986615143119 4.407312729314136 1.4505593620926593 0 0 0
316 1 6.580116288350464 6.390136245358033 7.485570422412355 0 0 0
317 2 6.692019414887149 7.027121256309252 6.749893045046109 0 0 0
321 2 7.043865634446809 11.421430610787036 1.2847677009171894 0 0 0
322 1 8.992727397970679 13.325472904263894 7.50500989641958 0 0 0
323 2 8.24689900908138 13.823405452122158 7.948908451449872 0 0 0
324 2 8.649561552205705 12.481403036756149 7.1208201119561405 0 0 0
325 1 11.457335619655208 4.514100437601125 0.869617219340456 0 0 0
328 1 13.764373106831759 6.455134475363118 7.780261386015246 0 0 0
329 2 13.37665826900697 5.745600250178046 7.225627226498155 0 0 0
330 2 14.477091008781057 5.999039311558243 8.275121727446617 0 0 0
76 1 3.6880917072833976 2.481906570620135 7.631507703329019 0 0 0
332 2 12.933927188026733 12.384843300172344 1.5980619883798852 0 0 0
333 2 14.143995880274547 11.389680723228548 1.5651211089736863 0 0 0
334 1 16.638241315429767 13.513877197215145 7.351230907357161 0 0 0
335 2 16.814668644904344 14.106936252337784 6.632700668532601 0 0 0
336 2 15.956701211755552 13.970217252709643 7.901651831451303 0 0 0
340 1 6.865592473530681 7.823131542283374 11.140727581877568 0 0 0
342 2 7.436244653630324 8.03639377657954 10.392760101690373 0 0 0
343 1 6.769447956929539 13.015355477751196 4.387229300117121 0 0 0
337 1 4.4394901990492 6.302574512136125 4.267042456054591 0 0 0
346 1 9.503107428545556 14.876131271050365 11.025514511970306 0 0 0
347 2 10.090869163672442 15.06780674063941 10.25691392457678 0 0 0
348 2 9.854512419094863 14.092721029990122 11.55412295950127 0 0 0
349 1 12.234988826818284 6.510176080444057 4.1393600473895455 0 0 0
350 2 12.191449204133114 7.202184261517193 4.862440960226338 0 0 0
351 2 11.34628826555826 6.418642846918709 3.7735219075612374 0 0 0
352 1 14.410035127181587 8.00390134446611 11.192885249110358 0 0 0
353 2 14.541221737633903 7.215681912510584 11.749129291768106 0 0 0
354 2 13.53313512699393 7.894300998730426 10.6646156243312 0 0 0
355 1 14.479598837933569 13.28595234162475 4.252740918598136 0 0 0
356 2 14.808074706281497 12.55549266988042 4.789770730457164 0 0 0
357 2 15.233752094219259 13.434818896738127 3.6188311730822185 0 0 0
358 1 16.750595199336736 14.942392102560035 11.106098860390698 0 0 0
359 2 16.756377883815045 15.727188342039545 11.805133867617018 0 0 0
360 2 17.374414753698925 15.07473663953522 10.367450318257692 0 0 0
361 1 7.000768089440247 7.6608431860983215 5.094424067472509 0 0 0
362 2 6.419214868241861 8.435960707000687 4.925837518156105 0 0 0
363 2 7.835715805984 8.032132249170807 4.951685545064972 0 0 0
364 1 9.569667829676122 9.2704020481146 11.954538675087903 0 0 0
365 2 9.171728552727256 10.092953539693161 11.656473053428947 0 0 0
366 2 9.158766162744296 9.124744807880923 12.77062553427347 0 0 0
211 1 18.39475462100494 9.693071971729397 2.8996652150946116 0 0 0
369 2 9.128448236689014 14.118673698927136 6.08556201733303 0 0 0
128 2 4.945723536455184 9.756087552161052 3.680251413070266 0 0 0
126 2 5.731900877036107 3.8753870275989613 11.299314909885624 0 0 0
372 2 12.354220616894079 15.78990539850072 11.394408330287034 0 0 0
373 1 14.786792338393312 7.810601177188274 4.969838401143886 0 0 0
374 2 15.670812837662384 8.24525896684247 4.917074509277985 0 0 0
375 2 14.525044566747598 7.761484572634885 5.8790901582885144 0 0 0
376 1 17.212956711036895 9.524269623638308 12.031030353482516 0 0 0
377 2 18.093266219553264 9.861187893425257 12.150960293213785 0 0 0
378 2 17.30200652943189 8.617780757406154 11.656682378258864 0 0 0
130 1 8.247053226643812 11.66559226199694 10.948069275172454 0 0 0
381 2 17.535349420051666 13.947916731591894 4.383088866422074 0 0 0
382 1 19.401198081767582 16.439033369882207 12.017958627237912 0 0 0
148 1 9.304541006438072 4.02872484161435 11.878870883887386 0 0 0
297 2 7.559369782012263 13.745859191941955 1.3391244720708082 0 0 0
220 1 8.232221759488082 3.1553970526893655 8.455580158115225 0 0 0
112 1 15.166027723865867 6.070958667669237 13.073763616029648 0 0 0
28 1 14.267862465936377 9.842555585936184 13.156649978911968 0 0 0
232 1 15.562820827414567 2.851827316405589 8.756698550903696 0 0 0
83 2 6.219861374104651 10.125260671462755 8.388702470155177 0 0 0
286 1 21.976887051505294 14.791732046244038 9.457953774536362 0 0 0
345 2 5.902447838988457 12.885493377539653 3.996372766108972 0 0 0
1113 2 11.9434959902807 28.056408907427446 4.971529931718696 0 0 0
370 1 12.222823524537466 16.54161548277641 12.007425046317591 0 0 0
860 2 15.498324072880015 21.51808212249177 0.5479640700255648 0 0 0
384 2 19.44634031055655 16.082781990605092 12.906744579851837 0 0 0
217 1 5.724330980979268 1.5182312664883437 1.9525150636903608 0 0 0
43 1 21.494458637822298 15.04626181252787 6.228252163290899 0 0 0
218 2 5.032050147431099 0.8866498341970279 1.641212416818441 0 0 0
85 1 8.433826657326433 0.8005771136988269 0.8115352134677644 0 0 0
1082 2 8.019319841847755 18.1372489721719 0.46357948877434874 0 0 0
978 2 23.53920621790418 17.81635568616569 8.765051463334164 0 0 0
1011 2 13.25383771717277 18.98900910885479 0.4588361048687123 0 0 0
669 2 5.083007382399609 12.297346570556009 1.7274993401523886 1 0 0
145 1 6.844912146320149 1.9327471109068974 5.289189988579578 0 0 0
73 1 1.3954761629652346 0.8482001850041619 0.7448121012216317 0 0 0
288 2 21.77628689875278 15.660882779949377 9.169539416168767 0 0 0
309 2 16.77270349058379 14.373597974970723 1.719433408730211 0 0 0
371 2 13.08060016980543 17.02279167224817 12.117926214211591 0 0 0
803 2 21.048361296834184 30.13195654232907 13.68520360137925 0 0 0
88 1 11.215787307374173 2.6498792109642455 7.514707867039983 0 0 0
106 1 10.343703973832607 13.174694427414018 12.775146612848419 0 0 0
92 2 10.670552139822899 7.290903595401745 0.18692419348572956 0 0 0
1068 2 16.9816012948495 30.026235285063475 8.388846399687182 0 0 0
119 2 17.109558951879954 12.729937789647565 13.382169112545972 0 0 0
215 2 21.739353052768557 11.435427055907775 9.980333386850651 0 0 0
277 1 17.099862948290617 6.273431027421278 2.649013168827668 0 0 0
236 2 16.1875262104184 8.68265778406158 0.7662773194006043 0 0 0
326 2 11.791455413924655 4.968445962360474 0.05224184898740934 0 0 0
74 2 1.8286009749406944 1.5290280743437086 0.27010593523612103 0 0 0
114 2 14.628100636366433 5.3381306017282455 13.491272132250716 0 0 0
150 2 9.936648662766768 3.6211073582769804 12.529558946551688 0 0 0
91 1 11.295207084543117 7.77719366672459 0.7440990018667336 0 0 0
259 1 17.781821027900033 11.944563078276957 0.929018821739581 0 0 0
39 2 18.57246212115427 7.679202088986153 7.040250928281503 0 0 0
82 1 6.3510503209293 9.427527993028955 7.645917995895813 0 0 0
190 1 21.750908387370014 13.253461826447031 12.959488013241556 0 0 0
1009 1 12.528773756796667 18.61778952123224 1.0289156650660103 0 0 0
383 2 20.127514932708337 17.063429401508692 11.89129063534722 0 0 0
216 2 20.857684774900502 10.810033885982843 8.90481414586096 0 0 0
881 2 20.874267758380206 20.67193757853797 13.375728085113698 0 0 0
1029 2 23.1366586835484 26.56453912886439 0.3634558193328896 0 0 0
940 1 16.454347886555595 20.29946834116144 13.06567254792911 0 0 0
86 2 8.78003521196284 1.3916316341027781 0.07211864309125589 0 0 0
80 2 3.086762826153582 7.159043981728197 0.05919560923518672 0 0 0
100 1 7.916729131872139 6.181042914009763 12.85511482800621 0 0 0
855 2 12.969978672599712 14.727938517381183 0.5885207863975893 0 0 0
312 2 17.784520573380874 15.849691738309941 8.087709634845503 0 0 0
1109 2 11.813832653120764 23.01240731311035 11.913094874541358 0 0 0
34 1 16.555908319244292 16.951756992960384 12.939881519073325 0 0 0
308 2 15.207490924673637 14.149815703831294 1.481619802113186 0 0 0
42 2 20.773974918628486 10.496749429692592 12.928217029304564 0 0 0
131 2 7.5425303299772795 11.588243428184041 10.294715676817498 0 0 0
1857 2 11.972439271901312 15.495129277968529 13.66613961588608 0 0 0
1152 2 24.119911294415125 31.130348516024608 11.706398182659015 0 0 0
882 2 19.84253388803093 19.505284583845494 13.05276755662278 0 0 0
815 2 28.583950599627293 30.25256657706292 13.675005393409077 0 0 0
79 1 3.690058183925119 7.760243257194314 0.5952784995067854 0 0 0
287 2 22.719330814178306 14.939733211824821 10.116455524900784 0 0 0
808 1 26.88931355112213 24.10625828519381 13.067473365775946 0 0 0
512 2 20.041434467212866 10.728012238878858 5.0434160994932205 0 0 0
44 2 20.77693783950874 15.522397128352036 5.727429526677632 0 0 0
816 2 18.320171218481068 3.432270064953571 12.722453414423969 0 1 0
233 2 26.326492592893594 30.252590329464816 9.14439176774445 0 -1 0
313 1 4.052633724179215 4.6578920612760495 0.68260446786103 0 0 0
851 2 11.641825291343423 24.092848176225317 7.105501714177566 0 0 0
796 1 19.129619009021603 23.700489943311297 13.219529974872868 0 0 0
37 1 19.120030558575987 8.279935780567504 6.4952633639172435 0 0 0
331 1 13.470818017481488 11.774182498111815 1.0362723964147988 0 0 0
1092 2 13.371243914730254 27.58275940475428 8.355917351155197 0 0 0
848 2 8.527325449039985 22.4279272081418 1.3620576247432854 0 0 0
987 2 9.74098112225998 15.013850182974906 1.4059638635052916 0 0 0
210 2 19.198624101762892 4.263895164364999 10.000130501024119 0 0 0
1093 1 16.140881932518948 18.663889509182027 0.9296074971816827 0 0 0
380 2 16.697862162562522 15.241175750704521 4.529249052516627 0 0 0
1079 2 24.09019748325688 30.09171150337938 8.620053756518352 0 0 0
1052 2 24.42019592242457 28.183712214375905 2.30582853353345 0 0 0
1040 2 16.765132223264402 27.9364233099817 2.7137812803948798 0 0 0
282 2 20.69165625605481 7.897238334571495 10.307802402826107 0 0 0
279 2 17.52657113917822 5.710489239463476 1.9489899251186336 0 0 0
300 2 10.323746958024582 15.829120101766529 8.075540691934345 0 0 0
185 2 19.5993598604295 6.706792828372158 13.455977065228296 0 0 0
842 2 5.620095866854926 14.598857908444797 0.10386656956422324 0 0 0
1137 2 15.341905939707429 29.19532697916704 5.160720828248508 0 0 0
47 2 23.349172995740396 17.562639975855376 12.480421615667357 0 0 0
89 2 12.021302003029666 2.1790405662214454 7.86783103444836 0 0 0
162 2 16.227125241862563 3.511204895653671 12.075426635189634 0 0 0
802 1 21.477324307335554 30.72994041154257 13.036927737502086 0 0 0
173 2 12.176934193235816 6.666253324066922 13.401652447944942 0 0 0
46 1 24.145946346690447 17.07403795700971 12.864182597103266 0 0 0
344 2 6.799057798160943 13.883913003263839 4.833100047148415 0 0 0
1004 2 20.67369531217476 22.592431015422807 1.024080904582255 0 0 0
107 2 10.72950481091045 13.839116492097757 13.436163580991497 0 0 0
1656 2 12.985838182490863 10.447636352242075 0.07070975504426427 0 0 1
1081 1 8.505106237886096 18.778573077302738 1.1205223202539272 0 0 0
859 1 16.251231749697656 21.85703190127033 1.0151647288415175 0 0 0
927 2 19.015546270697016 15.653672235749008 4.73054732476589 0 0 0
2378 2 11.667902050313145 19.038765082809935 13.439872574274098 0 0 0
813 2 26.43675702361293 28.549677407797198 7.299093152168314 0 0 0
327 2 11.164623716102511 3.6560399829874655 0.45282227526919994 0 0 0
1151 2 24.52605123697386 30.24408643175272 12.84852680393627 0 0 0
1054 1 27.264121683427916 28.91911174068768 9.448721892603787 0 0 0
219 2 6.221765260575473 1.7893359068682864 1.16720894164539 0 0 0
805 1 23.957383202289584 22.0683446938274 6.163242072295914 0 0 0
841 1 6.2987051359933615 15.066858976255597 0.5712743557320926 0 0 0
999 2 19.154188947631834 14.58779688095461 1.9408364779467502 0 0 0
900 2 12.552956815146581 25.455314863512534 10.363554533871834 0 0 0
986 2 10.989037661132588 14.670024029022189 2.219413510737103 0 0 0
2339 2 17.114750442448194 27.876351954266433 0.1466578065202015 0 0 1
853 1 13.776183964343243 15.027765565442444 1.0036025260959927 0 0 0
1087 1 11.576960113738915 25.742187504570904 0.8902830714852732 0 0 0
368 2 8.78713160316002 15.110328221796397 4.832981600841438 0 0 0
1114 1 14.54646207602596 29.12896313044233 10.753229637889627 0 0 0
1134 2 14.425757884648686 23.139636865072 12.858186186964515 0 0 0
847 1 8.714805859385848 21.929235252948807 0.5602219966755552 0 0 0
280 1 19.82459179543705 7.895426007422261 9.760802845087502 0 0 0
40 1 21.619269947097642 10.045570182392787 13.214655586998882 0 0 0
1000 1 20.756514943286888 17.098661919912256 8.345293248174109 0 0 0
1078 1 23.345992165280187 29.416648029542703 8.580464356910941 0 0 0
230 2 12.450419810136705 0.9500145339275 1.6973996843876213 0 0 0
314 2 3.62651929501745 3.857878368826393 0.29688689917974137 0 0 0
35 2 15.813900340780584 17.62419923639063 12.717506289340875 0 0 0
952 1 23.77769738316465 20.19075230251858 13.242895231658373 0 0 0
981 2 24.304875474059784 23.91033715534451 3.0325383503791223 0 0 0
990 2 12.364240143040503 16.633771204484646 8.791715899108778 0 0 0
339 2 3.6045541484782095 6.086887832516239 3.7456967410862827 0 0 0
1140 2 17.860186536480303 30.989949097705527 11.955283268962448 0 0 0
850 1 11.073264900675571 23.510977861103978 7.702898483125167 0 0 0
1048 1 25.012347530259337 21.533985047363696 9.354091139601396 0 0 0
801 2 9.916368259049687 1.9484262176330909 6.542407973131217 0 1 0
1063 1 13.506854564995646 27.883767296502672 2.0364314663827336 0 0 0
1150 1 24.88208790518913 30.631286974293584 12.051866858023576 0 0 0
889 1 8.032988581262972 16.7722490016839 4.054042546674856 0 0 0
1149 2 22.409954336216064 28.09848284162172 4.930016661709945 0 0 0
1022 2 19.45975130769564 18.186665073657657 0.4318748007422456 0 0 0
1124 2 20.114343608120514 27.461704135594324 3.6646973469513573 0 0 0
946 1 19.174370471872518 26.929093900133157 12.946877418683922 0 0 0
896 2 10.79025406561095 23.063772292190006 4.72783746370768 0 0 0
1065 2 12.825279247058567 27.98219842008439 1.2966670773179088 0 0 0
1133 2 14.562056390965571 22.522368267458962 11.50201771521785 0 0 0
1144 1 22.304541940308717 23.474855450772274 12.073438081387526 0 0 0
1142 2 19.20892304090108 22.405819544101835 4.640736971352343 0 0 0
1143 2 20.665230489016412 22.396362741072828 5.086127274198255 0 0 0