LAMMPS data file via write_data, version 8 Apr 2021, timestep = 4663000

972 atoms
2 atom types

0.11818635219632276 19.872866647791994 xlo xhi
0.1371845422734389 19.85386845773646 ylo yhi
0.24375330363416128 20.557018696381604 zlo zhi
-0.10301096635145021 -0.11683048401300053 -0.22071193319467602 xy xz yz

Masses

1 16
2 2

Atoms # atomic

22 1 2.3669474510520927 0.705503485121848 5.152332012348656 0 0 0
361 1 9.4508856798977 2.5400006278188942 7.014871967834982 0 0 0
4 1 4.208446936575452 1.6116429334691023 3.655651876281223 0 0 0
5 2 4.216522271487931 2.589691177718336 3.5452521096428247 0 0 0
20 2 0.4848022103417422 6.829143839996341 2.042256639782265 0 0 0
7 1 5.896156723718056 5.052383139267426 5.889900214145883 0 0 0
8 2 6.723745153920455 4.789834714725372 5.468964199849466 0 0 0
9 2 5.270258513681485 4.898946231312138 5.101821532285139 0 0 0
10 1 1.4241217310494354 4.145785936328397 3.806240353707815 0 0 0
12 2 1.046926810381143 4.767972542862003 3.1594428568186768 0 0 0
13 1 4.265636924476682 5.904389997424489 1.9853107650264668 0 0 0
14 2 4.020114376228211 6.770755717245669 2.417489913597165 0 0 0
16 1 4.097043754088516 4.423219628089078 4.042661196099733 0 0 0
17 2 4.125604374685161 4.868870988309527 3.1167317952923574 0 0 0
18 2 3.114759724731298 4.470058398315081 4.242034258751256 0 0 0
24 2 2.5484647526093225 1.336243893851785 5.880525695995999 0 0 0
25 1 2.7729801398760214 5.239098957226713 6.828686664286079 0 0 0
26 2 2.5344264382038117 5.973428284158841 6.21382060269969 0 0 0
27 2 3.538128361709269 5.511707027784709 7.379261932833065 0 0 0
128 2 1.024422372168587 11.988880986441933 1.339717586740715 0 0 0
60 2 7.657011370031092 1.1929844606841744 5.063300552243534 0 0 0
33 2 1.0495881374564697 2.7218271382924133 2.878128154448595 0 0 0
35 2 5.78812532800195 2.4408363168399747 1.4264421630827842 0 0 0
59 2 9.014746418771622 0.9618654117994512 4.193012133215863 0 0 0
46 1 7.699323707729535 4.02157115088899 3.9201543785521378 0 0 0
123 2 3.8770745385419567 12.662031059357167 1.0335105058078897 0 0 0
48 2 7.396903865803014 4.820630310285077 3.358491339429833 0 0 0
55 1 6.985127647559107 5.841633722736394 2.2777349561373468 0 0 0
56 2 7.188626459576965 6.826263167286301 2.391250694388888 0 0 0
57 2 6.086414796132795 5.844042905484228 2.0190452695130805 0 0 0
63 2 8.332008659431471 5.412895100168069 7.545705455065797 0 0 0
67 1 7.517150295510103 2.3101417826115616 1.9307880173601366 0 0 0
68 2 7.722365921030604 2.902782587457494 2.72850993641031 0 0 0
69 2 8.266364099235568 2.449925968592759 1.2672973869404718 0 0 0
112 1 4.0011088029837465 7.935770238346721 3.6199563981442884 0 0 0
113 2 4.784147638856784 7.838353120234091 4.233271096178542 0 0 0
114 2 4.008465488183397 8.905178788209135 3.5967313683814854 0 0 0
130 1 1.9161334342365481 7.29746834106393 5.492319142001448 0 0 0
131 2 2.4100670719601522 7.382894378280559 4.662416136194354 0 0 0
132 2 2.211881460431133 8.111785604661685 5.988965271816358 0 0 0
136 1 6.150009542534041 7.689583109217125 5.445563150633061 0 0 0
137 2 5.949839874809294 6.738202722527152 5.687726924970897 0 0 0
138 2 7.0890830353500585 7.576378947240234 5.082733761798831 0 0 0
166 1 8.83893462404969 7.192134129818953 5.164599381987571 0 0 0
167 2 9.109849023224148 7.9053339645510246 5.745439720602686 0 0 0
175 1 7.221946021806125 8.72271852368443 2.1868418168555657 0 0 0
177 2 6.359352673129517 8.968795243173057 1.7754378987553048 0 0 0
6 2 3.3457375726995995 1.2874395154664207 4.034125274834951 0 0 0
558 2 4.181933431738028 17.959512454297492 9.788560313938222 0 0 0
30 2 5.864085998860323 0.15582606556463374 5.805620466664091 0 1 0
325 1 2.836453670907593 2.389636270168637 7.183465107301322 0 0 0
326 2 2.6415221633865014 3.3533912362422593 7.000484569385674 0 0 0
327 2 3.7466471753665846 2.5064338189158124 7.5320534669273735 0 0 0
337 1 4.7870127260920174 5.748247584059248 8.778511794933657 0 0 0
338 2 4.634881881326899 5.202201070946735 9.538289710853892 0 0 0
339 2 4.568327359671424 6.667680797221535 9.134535787133911 0 0 0
343 1 0.905978716887089 6.038228298068002 8.787430883789662 0 0 0
111 2 2.1325482976239574 9.249807061543807 1.0495273904880806 0 0 0
345 2 1.48322419963844 5.592522197260007 8.086458696212633 0 0 0
357 2 1.8260508137819775 2.044410508086599 8.690014654210012 0 0 0
358 1 5.438237245269805 2.8138888368464605 7.701353445850125 0 0 0
359 2 5.604346093673727 3.6947204131731155 7.289838009855922 0 0 0
360 2 5.456444094683752 2.1925095942748043 6.928251657300779 0 0 0
363 2 8.702634341367196 2.4029951381010597 7.711429247758217 0 0 0
379 1 7.424729131507826 5.936369818121159 8.655930972934453 0 0 0
380 2 7.419943217280598 6.933360023397796 8.753056784568772 0 0 0
381 2 6.493690950963698 5.760613186266854 8.617461809911763 0 0 0
391 1 7.796814650483545 2.398171005150849 8.810109912322888 0 0 0
393 2 6.859091137551763 2.6397780156415074 8.655180826003125 0 0 0
467 2 5.684963532828055 8.645290583683316 6.699096673316307 0 0 0
247 1 0.7185824455399408 14.727426502171616 2.5566522561396257 0 0 0
499 1 7.452578534209927 8.737524472699972 9.014035817169892 0 0 0
236 2 0.7358864232083281 0.16688304442343885 2.2724454258778417 0 0 0
171 2 9.121760051295649 12.4935444728149 6.238998080659206 0 0 0
452 2 0.6561115279835295 13.64477139202639 9.031414720329959 0 0 0
168 2 9.11251186201484 6.405226978593778 5.735238687979449 0 0 0
471 2 8.773318492198948 8.80161782620772 7.622180063102108 0 0 0
170 2 9.642328654508612 11.787617879379422 7.530284496473959 0 0 0
62 2 9.075822091561644 4.213321305580466 6.784426437942519 0 0 0
15 2 3.687589587544443 5.786621700946458 1.2497675376008288 0 0 0
578 2 9.109688898792303 17.005928442946995 6.90265922692909 0 0 0
559 1 0.5121374689208738 19.13573005666118 9.052077406659205 0 0 0
129 2 0.7302933079712833 11.361467261175145 2.772891203029032 0 0 0
362 2 9.202025913592342 1.9813525965165142 6.1997312015149975 0 0 0
248 2 0.8764844354908113 13.72562224709754 2.558163568315853 0 0 0
143 2 4.088901281004553 9.57941450900941 0.4758052513174845 0 0 0
435 2 2.2518243057041056 8.771369775022594 7.801692421733799 0 0 0
557 2 3.9399759704139408 16.486674062244617 10.230302981227032 0 0 0
11 2 0.7033930566751212 4.1750986557808485 4.512919635103698 0 0 0
329 2 4.304572973411425 0.714480349701838 9.866660221483063 0 0 0
711 2 9.225956596386654 4.310928178875256 0.30604823743367565 0 0 0
433 1 2.8103390940271833 9.158709156429234 7.073551250265049 0 0 0
254 2 8.605720411431578 15.883080028457755 0.7576462883527566 0 0 0
219 2 2.762962600481145 16.983590533117543 0.7377752975221245 0 0 0
34 1 5.148662527615035 2.5748386129039 0.6977879755607274 0 0 0
553 1 4.359414622814223 19.117891129026017 8.651403830900382 0 0 0
818 2 9.537491947825313 12.265682958494313 0.5825738308722934 0 0 0
47 2 8.6498226891626 4.037580747591173 4.079540375400437 0 0 0
500 2 7.575752082139496 9.379627371918081 9.769471576806659 0 0 0
31 1 0.8449339621860598 2.01041605480092 2.255162669964479 0 0 0
501 2 6.718258500166662 9.074533242111135 8.487404888796867 0 0 0
176 2 7.266378470889924 9.242324735778997 3.056309878902207 0 0 0
23 2 1.3989274139071155 0.7663590258526438 5.074706767345174 0 0 0
29 2 5.454137003439683 1.2106570517648807 4.781492035212582 0 0 0
927 2 8.135698938049403 19.079060189515317 0.7558198719132174 0 0 0
272 2 7.611190292907617 0.7484414060986035 2.0500756561745335 0 0 0
468 2 4.500267901518541 9.307089529497233 7.436399525081322 0 0 0
273 2 6.530692503174651 19.377792136677513 1.9576076958849429 0 0 0
61 1 9.101593128386178 5.171194700501195 6.973643658802918 0 0 0
231 2 4.712397566590306 0.41126098457910476 2.4479277769218215 0 0 0
3 2 1.9428442251801408 2.3913687512206487 0.975074096083826 0 0 0
28 1 5.955308776213281 1.0783436689541 5.654924492637553 0 0 0
466 1 5.478979014556365 9.38406904288835 7.278311519806292 0 0 0
344 2 1.09543428714803 5.529380547722166 9.582901355887023 0 0 0
58 1 8.612424572592131 0.9407704103082275 5.057479953122641 0 0 0
675 2 1.6769447594633131 5.769467037803722 0.5198616908829663 0 0 0
119 2 0.7795214239341217 10.871677393534073 4.838203674219737 0 0 0
2 2 3.4569949466332934 2.57412655648976 0.6190803361244014 0 0 0
469 1 9.430833502378492 8.974838592041545 6.979672220451382 0 0 0
242 2 2.240403863631849 18.889721968167606 6.190448158185702 0 0 0
437 2 4.0650314968902785 8.998739166466837 10.237907412955224 0 0 0
139 1 0.8479318122873496 8.613067296527168 2.1429679604740786 0 0 0
443 2 1.3726647565922414 9.89933262259979 10.084749869547792 0 0 0
596 2 7.421983367067293 0.6295918422228362 8.917689668408789 0 0 0
156 2 8.654584091817169 10.543272652225118 4.211374691979226 0 0 0
140 2 0.9458805130105313 9.114495550469382 2.998936839322022 0 0 0
120 2 2.312994918482953 10.69264036296938 4.271631254745732 0 0 0
372 2 8.071329839233762 5.086154887736609 10.171348558158494 0 0 0
142 1 5.073721853395091 9.508777276339076 0.48622766979089194 0 0 0
126 2 4.718663751820781 11.08489052563921 4.396732753039442 0 0 0
434 2 2.504295823518464 10.078243090389023 6.893937850885224 0 0 0
19 1 0.4074948680502175 5.851913189578111 1.9594251020921838 0 0 0
450 2 4.396317841912011 11.25998280806519 9.611909559641258 0 0 0
573 2 0.868926565990238 15.930946296063478 9.50775956322504 0 0 0
217 1 2.7178402380658966 16.043910976200465 0.766852315120422 0 0 0
597 2 7.521319809600107 18.937563148175833 9.508094682720255 0 0 0
355 1 1.2415409692445196 1.8350925127109128 9.43710657867621 0 0 0
544 1 3.877007444738688 14.604320531011558 10.028980692652077 0 0 0
118 1 1.3696338014629 10.51059712280816 4.136491620990527 0 0 0
891 2 3.6649926234456736 19.181378385418014 0.556656913491485 0 0 0
577 1 9.19229881480831 15.977684269824008 6.989527325901505 0 0 0
571 1 0.7926596997711399 15.242963152483737 8.826116497101637 0 0 0
279 2 7.996809334006998 18.647649750531492 7.423813263083795 0 0 0
607 1 7.291024388588063 15.266760459967482 8.724572699656303 0 0 0
240 2 1.1541570529082856 14.02112454128138 5.062860256727258 0 0 0
124 1 4.040020191952453 10.921414191404935 3.7604630897636313 0 0 0
115 1 5.99586621242122 11.4956185641612 5.722702461691872 0 0 0
116 2 5.879601219771914 12.368331589476579 6.105268194634072 0 0 0
121 1 4.382977632265264 12.900386902949027 1.8250544285989259 0 0 0
122 2 5.358375490781042 12.674394591430785 1.7341663436744306 0 0 0
595 1 7.125860469086144 19.379592505478026 8.729255231860144 0 0 0
125 2 4.175851334895602 11.55456359665431 2.963388535047256 0 0 0
278 2 8.730482733525657 19.129483395575196 6.1299720588820765 0 0 0
133 1 2.2925404674087293 11.674082144678346 7.033950183900163 0 0 0
134 2 1.593206862500598 11.950800764300157 7.692955315237113 0 0 0
135 2 2.283064518498807 12.2068243472174 6.205609750864031 0 0 0
579 2 8.555258530188771 15.714201079318197 7.661288603835767 0 0 0
251 2 5.932321427303046 15.590497500786743 0.9174074741232026 0 0 0
163 1 7.024979182658478 12.648044784564465 2.2358777945613477 0 0 0
164 2 7.241850314483379 12.179238948202267 3.0687010654508624 0 0 0
165 2 7.620945656495632 12.265870157806798 1.5646204999277549 0 0 0
470 2 9.359313297531047 9.946166906015794 6.850277871383025 0 0 0
220 1 4.074307118049287 14.628947122833146 3.83402724242717 0 0 0
221 2 4.088609051679187 15.587741403906113 3.552858909649118 0 0 0
222 2 4.256584294530851 14.119328430999301 2.9714030044064126 0 0 0
223 1 5.9861723144234995 17.974968379167695 5.405964013970139 0 0 0
224 2 6.8342065067425555 17.637687113271323 4.968055920656128 0 0 0
225 2 5.805737495386748 17.328263230671435 6.160765807459056 0 0 0
226 1 0.9918513859713557 17.146076300148884 3.9848173327756458 0 0 0
227 2 0.928011329358294 17.74239969846277 3.2169639189337977 0 0 0
228 2 0.9299401700087642 16.25735630905795 3.5670027136645053 0 0 0
609 2 7.355400150746843 15.896005105064676 9.489549784703595 0 0 0
230 2 4.541408289505687 18.57370158580412 2.589139759880751 0 0 0
232 1 3.8476387684559086 17.309130756998808 3.748295700136084 0 0 0
233 2 2.865328926282738 17.357443151777947 3.7994031618411586 0 0 0
234 2 4.226507753868823 17.456536581446294 4.642781075482786 0 0 0
109 1 2.5972640838753542 9.571014200195384 0.2481532387818478 0 0 0
238 1 2.0706324861403504 13.605571864355298 5.1406931148639305 0 0 0
239 2 2.6873250984864168 14.010735343296624 4.481006362974705 0 0 0
241 1 2.270349005985905 18.345341468511055 6.985841503357121 0 0 0
243 2 2.103357056099002 17.476016277328196 6.535527406710956 0 0 0
244 1 6.166946185743854 14.311923734176336 5.741832737995595 0 0 0
245 2 5.8684994691132255 14.944934513035735 6.401917725912498 0 0 0
246 2 5.5114099158038385 14.470399229322267 5.044854568553619 0 0 0
249 2 1.2898603225854905 15.01766134986269 1.8268463006138778 0 0 0
262 1 8.15266835948718 17.301767577103465 3.5833054351397413 0 0 0
263 2 9.128505937336062 17.088715898276146 3.7238380215727354 0 0 0
264 2 8.069740870193826 18.02593246196797 2.962642172299266 0 0 0
555 2 3.7958315558385705 18.832754068572328 7.863479721022824 0 0 0
274 1 8.922899240056328 14.11670401944894 5.147835830694008 0 0 0
275 2 9.078252310332932 14.854428632022612 5.816093622805595 0 0 0
276 2 7.930854247193923 14.02234281169003 5.157470785292486 0 0 0
560 2 0.9362881798324194 18.814344889057228 8.21252794671529 0 0 0
283 1 7.283894620994886 15.3397798240094 1.9689610383775582 0 0 0
284 2 7.423366010615748 15.994556985528725 2.6643719561379466 0 0 0
285 2 7.332137411592391 14.428232768453778 2.2990512972919825 0 0 0
445 1 4.447246337257175 12.578340706964319 8.426756733657884 0 0 0
446 2 4.184160060401645 13.342855973313101 8.962007218888404 0 0 0
447 2 3.5991489067909423 12.46057733262796 7.870436473300787 0 0 0
229 1 4.911844087309757 19.27865457256818 2.0221717646937964 0 0 0
487 1 7.094649299076197 12.579969777195252 8.874357793129313 0 0 0
488 2 7.69903797510246 12.380584304010524 8.17431949009267 0 0 0
489 2 6.179143852764826 12.587999795121128 8.5223659085525 0 0 0
541 1 2.901306094101769 15.550986727025366 7.0259026701485165 0 0 0
542 2 2.1170095229765913 15.435209096298188 7.553836189847349 0 0 0
543 2 2.9676212709948517 14.812902556541175 6.437906405950858 0 0 0
574 1 5.335823670342869 16.223773567952122 7.319070818267812 0 0 0
575 2 5.846110102248356 15.749498388799624 8.010441240937325 0 0 0
576 2 4.368868014663417 15.893053440153846 7.364332308361272 0 0 0
463 1 1.092975129871712 8.803494087224422 8.983722129498977 0 0 0
271 1 7.444220681873034 19.46256633630985 2.057430986013527 0 0 0
154 1 7.726785581922289 10.428632808958922 3.985830468537793 0 0 0
237 2 1.490556739433345 18.891218539552895 1.3783715051422307 0 0 0
235 1 0.7273560073565759 18.937463377471275 1.9597419619493124 0 0 0
554 2 5.2965151694870185 19.221787581171156 8.391187433912922 0 0 0
561 2 0.8420547814575965 18.52326864268058 9.688008178408886 0 0 0
451 1 0.5953229879506162 12.689364601035356 8.871600350830382 0 0 0
356 2 1.0829943049476423 0.810086652982087 9.313293760634542 0 0 0
147 2 8.56153940921706 9.254336752871957 1.159193973471175 0 0 0
465 2 0.9706364515967205 7.832710331423074 9.175387456011576 0 0 0
155 2 7.226296882768649 10.848220461542121 4.800015982857767 0 0 0
117 2 5.875130572976168 10.820465159871489 6.430276620827414 0 0 0
608 2 7.263318773080849 14.344991982528606 9.06867210809836 0 0 0
710 2 8.673544520800352 5.520819802583648 0.9385341965326858 0 0 1
277 1 8.79173260543402 18.548860634618357 6.886828743374215 0 0 0
127 1 0.36795181589737347 11.910734845998462 2.0288770879565305 0 0 0
218 2 3.6344571483140724 15.745103732855238 0.9459957526643753 0 0 0
169 1 8.949161837101396 11.724031868955787 6.782597000677182 0 0 0
210 2 0.21836465692971962 7.23216930592151 5.561896255591906 0 0 0
436 1 4.18606575674338 8.029450844513597 10.19571537373136 0 0 0
444 2 1.203712220064447 11.458379791672087 9.930606029392765 0 0 0
479 2 7.581653469668308 11.405985651890765 10.108457305637762 0 0 0
145 1 9.137252348561569 9.33413119429369 0.3780900451375432 0 0 0
392 2 8.008854180027235 3.101348683370086 9.515509863149012 0 0 0
464 2 0.28505719482177716 8.985479716162825 8.431423540450908 0 0 0
448 1 4.1224917039922016 10.741851605031528 10.390854374694982 0 0 0
331 1 6.055734585215568 4.580024815891 12.395252684585435 0 0 0
332 2 6.8779336551441865 4.281259757364219 11.940196633046758 0 0 0
333 2 5.223835590117304 4.589925595730186 11.773948461608231 0 0 0
817 1 8.534347403797014 11.881651248058485 20.45533208295791 0 0 0
348 2 2.2087920507004046 1.5660710438663497 12.711533755023892 0 0 0
349 1 2.575859730083543 5.232094830084524 13.789319461681515 0 0 0
350 2 2.4574511084033186 5.716362340241896 12.93680006757222 0 0 0
351 2 2.4241066552155672 4.294466583199966 13.646590121376436 0 0 0
656 2 5.594828475478618 5.515381872351524 19.597685916394223 0 0 0
385 1 8.976162479800296 5.181709890961882 13.524589470620876 0 0 0
387 2 8.243877965612734 5.497777964378855 14.101438949045473 0 0 0
885 2 1.2143421226687787 18.719400512667608 16.225101685089562 0 0 0
454 1 2.1903962828773307 7.402509956459966 12.202673642709783 0 0 0
456 2 2.3589406295420488 8.159971544157935 12.836281369865544 0 0 0
460 1 6.154154685885923 7.445120838864586 12.203899095516405 0 0 0
461 2 6.101517328577025 6.505226880980864 12.372370099798946 0 0 0
462 2 7.0244384533497914 7.661937482224467 11.870179955322135 0 0 0
490 1 8.915681272063482 7.5073445830280185 11.92102037437472 0 0 0
491 2 8.929372550165157 6.602503096152707 12.296618606346334 0 0 0
649 1 2.7271202331939013 2.5405255977224517 13.849374867475303 0 0 0
650 2 3.740495861463159 2.566557175687453 14.069490485104119 0 0 0
651 2 2.2879405947744456 2.358133575715332 14.731509812016059 0 0 0
652 1 4.307830123476291 1.4254497527750334 16.667767405087893 0 0 0
653 2 4.482782061132064 2.3718706596585952 16.56188396746686 0 0 0
654 2 4.835063341998684 1.1041810936560421 17.488745877962153 0 0 0
655 1 5.755457146877638 4.564270307980939 19.50821357867328 0 0 0
657 2 6.6258760514128054 4.508489212909311 19.131347921286526 0 0 0
658 1 1.5421028063067248 4.098305702633613 17.59262322255377 0 0 0
659 2 1.4675425239595428 3.306974158455586 17.00053895164822 0 0 0
660 2 1.2538567683802158 4.906377565037991 17.022210641538333 0 0 0
661 1 4.894957287831257 6.0443241134103225 15.366453809927766 0 0 0
662 2 4.695708568409878 5.345025587832699 16.08099017575313 0 0 0
663 2 4.323596684844518 5.827386260569747 14.593366333464964 0 0 0
664 1 4.192258127798343 4.319587993087992 17.23241611155345 0 0 0
665 2 3.2505072914387383 4.30394967718396 17.400908653707337 0 0 0
666 2 4.698346116612478 4.526642079371968 18.028841400942984 0 0 0
669 2 1.545503401471512 5.760978536807952 15.047249845456122 0 0 0
671 2 2.4249719617931507 1.4581781787205155 19.15963349054388 0 0 0
682 1 5.341702626903393 2.5927972217411535 14.026603274261387 0 0 0
683 2 5.525301773454179 3.465942748590352 13.531827212578369 0 0 0
684 2 5.5519958736856925 1.7787511124124844 13.494212210427262 0 0 0
694 1 7.797814952962277 3.7329082286311692 17.82387279771247 0 0 0
695 2 8.727724520354483 3.890168057145769 17.9776334475263 0 0 0
696 2 7.769226636504793 2.897012059795187 17.322916715980288 0 0 0
703 1 7.519088773409091 5.718379827478196 15.634004830755588 0 0 0
704 2 7.658006650872379 4.912500508956481 16.18090495331638 0 0 0
705 2 6.511126986881092 5.707268795486574 15.437291425784526 0 0 0
715 1 7.441047747984326 1.7693907002874467 15.934765113271665 0 0 0
716 2 6.511118589377201 1.8764073447730567 15.650825879078697 0 0 0
717 2 7.965492336556566 2.158720216709377 15.219813858026054 0 0 0
250 1 5.327147063153654 15.486764514775365 20.456973197247066 0 0 -1
760 1 4.203886676205603 8.00577686559875 17.170706534143054 0 0 0
761 2 4.412433917813543 7.56072508639864 16.3085575619121 0 0 0
762 2 4.9065566895911665 7.758281308723824 17.828086890154633 0 0 0
778 1 2.1556168099352977 7.373879975610689 18.678791970787024 0 0 0
779 2 2.767657409980445 7.34650449649269 17.913797621898844 0 0 0
780 2 2.3787628675791077 6.562233716021676 19.20316737304067 0 0 0
784 1 5.880080481157608 7.261568148961881 19.20141573230023 0 0 0
786 2 6.816280850940259 7.293529304420804 18.949514964765424 0 0 0
791 2 5.4207432059717044 8.506676279030303 13.482431894654665 0 0 0
825 2 6.664315800651453 8.763747299633412 15.306132145248046 0 0 0
814 1 8.593594661848913 7.263466312208561 18.753865837177507 0 0 0
815 2 8.722570469237342 7.96658358066829 19.361226462171793 0 0 0
816 2 8.78010966278449 6.419715368445075 19.246818665112606 0 0 0
823 1 7.3340363533811574 8.4145641322101 15.955130569276458 0 0 0
824 2 7.371519812157479 7.4553128394787 16.058164883441563 0 0 0
775 1 0.5194735327934403 12.3536554282977 15.519492267701935 0 0 0
795 2 8.412946157856206 8.941590663025458 14.601741380836032 0 0 0
678 2 6.502675546975649 1.1636425807522408 18.879927600108086 0 0 0
370 1 8.241082267816031 4.271375399716344 10.68726113426682 0 0 0
346 1 1.9608172419802508 0.9812114874253207 11.954507197574362 0 0 0
599 2 8.963279995902782 14.04146621336372 11.197899315290362 0 0 0
493 1 9.105924408731257 11.951348319251748 13.662334513155782 0 0 0
672 2 2.8859530531814452 0.9175928677252277 17.804574465823787 0 0 0
492 2 8.880355149277255 8.09915717067066 12.693576946397025 0 0 0
767 2 0.9189029825134394 9.977378557696811 17.117826502333543 0 0 0
587 2 8.496759485361576 17.033661256287658 10.728347372304862 0 0 0
926 2 8.61134242331421 17.64605184843507 20.20091569447961 0 0 0
708 2 8.666122772002069 0.04369555776995422 19.135686588536945 0 0 0
383 2 8.77114539547584 0.0681628032803263 12.191923668974479 0 0 0
804 2 7.73183582097978 9.643341171484838 16.90877043976688 0 0 0
330 2 4.821440023204916 0.9633571148403695 11.187277368319416 0 0 0
789 2 1.05833831124131 8.802948581645785 14.94107538585436 0 0 0
883 1 0.915604297547292 19.33555054477154 15.49583406746777 0 0 0
785 2 5.670181390168509 8.063807940182103 19.662445401284135 0 0 0
438 2 5.079636121942102 7.85695154631323 10.637489941354508 0 0 0
546 2 4.6753069450236815 14.461176997537844 10.591871143094899 0 0 0
341 2 2.9435948172597453 4.268799707405139 10.978258048838521 0 0 0
600 2 8.735356332748092 14.720496863549458 12.54382911294722 0 0 0
455 2 2.727683421912725 7.614817084973187 11.413072551846398 0 0 0
794 2 9.063075208922596 10.012714448272401 13.628185445364016 0 0 0
667 1 0.9542840760238414 6.005011938819395 15.808702057309986 0 0 0
586 1 7.603227113959855 17.21792041988201 10.415256305483824 0 0 0
790 1 5.420623417614323 9.173062172950683 14.225854633002035 0 0 0
706 1 8.410593195906657 0.7631071355364121 18.449838066626622 0 0 0
757 1 2.567024991347096 9.400121872835072 13.991549130413766 0 0 0
670 1 2.28265562938419 0.7967295899691831 18.525877474853758 0 0 0
920 2 7.392030252433621 -0.017570966136442906 15.963798576099789 0 0 0
676 1 5.672840981778619 0.6758967995845557 19.02786874636889 0 0 0
352 1 6.031975007732867 0.5092767732011261 12.402700247116044 0 0 0
382 1 8.558618738041353 0.7037231805872487 11.527146112197395 0 0 0
533 2 0.4002143039012278 7.198987478384363 12.215109394509977 0 0 0
677 2 5.275901040178333 1.126752505495881 19.83954381934023 0 0 0
328 1 4.175249325343886 1.3181425174490564 10.615235585599986 0 0 0
336 2 0.41507670910235306 4.171976384705362 11.438120581738202 0 0 0
37 1 9.310510583461264 2.4781218681627095 20.342661115634627 0 0 -1
449 2 3.1175640722118385 10.819638228992835 10.539666705549655 0 0 0
758 2 3.515153228930429 9.465352423659048 14.181666982222238 0 0 0
793 1 9.126167379575968 9.055141786268345 13.924512074956453 0 0 0
353 2 6.9889459624454195 0.6526022979066726 12.091923653999176 0 0 0
777 2 0.524480818626219 13.365201774443994 15.665347615062439 0 0 0
773 2 4.204906581533356 9.65905702443503 17.13325047846459 0 0 0
674 2 2.380331806265028 4.292849231756903 20.491413569163708 0 0 0
685 1 9.16392220945392 2.48657036411085 13.916453949166428 0 0 0
39 2 9.031111310012998 2.1376763610989657 19.416753445657807 0 0 0
144 2 5.295367098877222 9.970766661108023 20.157850066518684 0 0 0
792 2 5.37474161300618 9.954281741109215 13.6118030162179 0 0 0
707 2 9.076662762062673 0.7333849766769842 17.7860579012852 0 0 0
551 2 0.6356269119135421 17.268720331222855 11.406765737697112 0 0 0
895 1 0.5673481879339268 15.286848997062043 15.722901780860589 0 0 0
253 1 9.035275781423055 16.056181447466752 20.31915397146434 0 0 -1
495 2 8.8035017360903 12.445467137365558 12.900492811468709 0 0 0
774 2 3.0511321273852507 10.58144096044288 17.489902652350732 0 0 0
668 2 0.8745226755862348 6.9869408513663664 15.938090825708786 0 0 0
687 2 8.975647958864203 1.8111440653028943 13.242526699300678 0 0 0
798 2 9.77923121427755 7.29600689843858 17.521863730793356 0 0 0
921 2 6.341733625979786 18.788203483171678 15.324517513637609 0 0 0
889 1 2.7220510150030934 18.658379541760713 20.521978436061055 0 0 0
681 2 0.9342940240448776 1.2560628562003933 16.00650357839967 0 0 0
342 2 4.130980721226053 3.2234105184374915 10.578200116812102 0 0 0
879 2 4.646197607818917 0.04892883169213001 15.723051780473497 0 0 0
545 2 3.101798176250724 14.361762088091561 10.70429846542539 0 0 0
679 1 0.9355788826137937 2.2273617186189103 15.843407163618956 0 0 0
932 2 7.559235268799288 15.52303459528631 16.299044198659644 0 0 0
334 1 1.09401489518561 4.148591365124658 10.763708028317964 0 0 0
933 2 8.148915068273581 15.363130773059924 14.867168897872352 0 0 0
901 1 9.300953497690907 15.897813062896097 13.496839765321825 0 0 0
480 2 7.121519564436746 10.8218471443581 11.443439212539094 0 0 0
819 2 8.44788929316231 12.575970815127652 19.773342997535053 0 0 0
439 1 5.582892332225231 11.463780387443917 12.447961087767824 0 0 0
440 2 5.567540675068735 12.449442729241522 12.446959536335344 0 0 0
441 2 4.969077784158925 11.240062121140058 11.648352276252837 0 0 0
876 2 0.7455234219376081 17.269849725314398 18.42219194688714 0 0 0
457 1 2.4684571953416676 11.959176077237334 13.609269538726835 0 0 0
458 2 3.3031638741516858 11.941582589273803 14.084547245737049 0 0 0
459 2 1.7466561312722526 12.119728413843252 14.312935519460583 0 0 0
494 2 8.370504010576484 11.902912707533359 14.303224564217617 0 0 0
709 1 9.09932113565251 5.029801764470455 20.516046683552403 0 0 0
931 1 7.446388227816766 15.045857195913003 15.441354504802742 0 0 0
547 1 5.857977615690013 17.38958910536165 12.474711234756292 0 0 0
548 2 5.081239199754993 17.31696062673221 11.829385600960887 0 0 0
549 2 5.6226809082871805 16.84384301828859 13.273699770011941 0 0 0
562 1 1.9866283506188185 14.03182752576434 11.744001636560276 0 0 0
564 2 2.262140098893941 13.273474459917667 12.351244546512165 0 0 0
565 1 2.507799146822466 18.614819815820958 13.598499223283826 0 0 0
567 2 3.4394974287767814 18.74477987622219 14.012270671276207 0 0 0
568 1 5.768281818192575 14.034256193263309 12.021192490524045 0 0 0
569 2 6.712305369522914 14.166425855904556 11.974043179766424 0 0 0
570 2 5.431353447275182 14.605100077254363 12.707936439230744 0 0 0
588 2 7.151653835100877 17.249996312179476 11.323696827336821 0 0 0
36 2 5.331297569715051 3.086525350117725 20.43396955168118 0 0 0
598 1 8.34901275643296 14.06493508042935 11.939892035163842 0 0 0
782 2 2.1321433216896715 10.887822622194658 20.126257324089536 0 0 0
763 1 5.810034123938099 11.362057064287969 19.181946425545355 0 0 0
764 2 5.11302156615297 11.104242491063765 18.48299412765897 0 0 0
772 1 4.031687899690108 10.601105827134097 17.35120338964235 0 0 0
768 2 1.1390276298192956 11.52863194016075 17.027993658846587 0 0 0
769 1 4.365289089507953 12.293606066159587 15.394116514568728 0 0 0
770 2 3.77539179845913 13.011948387439025 15.763302374322882 0 0 0
771 2 4.106352564749332 11.4621577117631 15.91709143293307 0 0 0
924 2 7.500868845604812 14.043043375156016 18.502821727455327 0 0 0
783 2 1.995404580500334 12.463364264606339 19.87224939282648 0 0 0
803 2 7.623467766661177 11.249624095170761 16.791820977175338 0 0 0
811 1 7.060989573575435 12.346760750495287 15.35819476827531 0 0 0
812 2 6.063201413785175 12.270852240775483 15.476277642319632 0 0 0
813 2 7.156867039487164 13.353773662581505 15.33144312400167 0 0 0
911 2 8.727273598928917 17.157217022749357 17.693079420164118 0 0 0
765 2 6.68068818008027 11.067585764289225 18.807723213316724 0 0 0
865 1 2.362681757058689 15.851506556531705 13.56394801684543 0 0 0
866 2 2.1978488554450464 16.78575712829838 13.393624143717899 0 0 0
867 2 2.2410542818882235 15.277677916856307 12.744167760901329 0 0 0
868 1 3.422373849700158 14.424922511428129 16.755584660298933 0 0 0
869 2 4.273880714500116 14.140532002694084 17.214888977081056 0 0 0
870 2 2.7244925236258046 14.129342025860158 17.40701964073294 0 0 0
871 1 5.954474750365945 17.742434289762727 19.20272747101018 0 0 0
872 2 5.9846255715112955 18.72490533033847 19.04774332845291 0 0 0
873 2 6.750407009619248 17.49036486777175 18.69677272461398 0 0 0
874 1 1.3941723405653264 17.395448614916823 17.684601372376363 0 0 0
875 2 2.3527195330488144 17.458541881076624 17.974109462271432 0 0 0
878 2 4.450363859623258 18.223888041544072 15.8903498866407 0 0 0
880 1 4.189062465915246 17.147310729986724 17.115201202282798 0 0 0
881 2 4.0021283074377845 16.17168771949413 16.998790082959456 0 0 0
882 2 4.808656789572255 17.193518806740357 17.89969072781544 0 0 0
886 1 1.5929360732501037 13.987068382269147 18.833944237406268 0 0 0
887 2 2.0507936931660935 14.622504170060845 19.39377189511194 0 0 0
888 2 0.5967493287639717 14.062886678841275 18.86476361402532 0 0 0
892 1 5.761065315209066 13.885909211736896 18.340991096792862 0 0 0
893 2 5.787253831923045 14.54369636339087 19.074997281850752 0 0 0
894 2 5.667665198331063 12.945371945257518 18.75044096175731 0 0 0
896 2 1.0319777290204706 15.56308493378961 14.89673696325938 0 0 0
898 1 5.09837433409129 15.510564549706721 14.114641678207848 0 0 0
899 2 5.7101511405604475 15.12282647591884 14.688689250196242 0 0 0
900 2 4.17302351033284 15.57777989847974 14.448345406617094 0 0 0
910 1 7.767241006981037 17.11986092259198 17.396878289382883 0 0 0
912 2 7.666835646400885 17.819896222280285 16.670112469636344 0 0 0
922 1 8.469912588978564 14.080047948682315 18.690824395743512 0 0 0