LAMMPS data file via write_data, version 8 Apr 2021, timestep = 4629000

972 atoms
2 atom types

0.10608469835461268 19.884968301624635 xlo xhi
0.07283206078410726 19.918220939227854 ylo yhi
0.14464541719331428 20.656126582838446 zlo zhi
-0.5866647226171587 -0.17338589174246036 0.14956274519098342 xy xz yz

Masses

1 16
2 2

Atoms # atomic

4 1 4.258790861920968 1.305228761716628 3.5537107240491506 0 0 0
5 2 4.223589797110985 2.2980691523632295 3.3790777970283385 0 0 0
329 2 4.455009849045045 0.515797271022699 9.55721833178813 0 0 0
7 1 5.686704348201262 4.5363774447781955 5.191660051329637 0 0 0
8 2 6.514603576672842 4.608152225980231 4.779403632506486 0 0 0
9 2 5.150084059787207 4.248688530567115 4.38625919988858 0 0 0
10 1 1.3941834921962877 4.398647247247412 3.8026936956743826 0 0 0
12 2 1.0233367695221156 5.180248124140626 3.2871626130448166 0 0 0
13 1 4.358711319645736 6.012048602949617 1.7004611014715751 0 0 0
14 2 4.168291967638096 6.705603385153257 2.3461003632236204 0 0 0
16 1 4.072077636280989 3.965563333227452 3.156875769966972 0 0 0
17 2 4.177070119718112 4.6120753858644346 2.4542146072485465 0 0 0
18 2 3.136255489755402 4.123015358257537 3.392024488410183 0 0 0
24 2 2.0141969948001774 1.7636062025553731 5.6951295625900995 0 0 0
25 1 2.7611651828483357 5.4284086659459545 6.776611629379228 0 0 0
26 2 2.4371347532910552 6.140487717434267 6.210813237598546 0 0 0
27 2 3.6189007737893615 5.579145137189915 7.178648859127986 0 0 0
35 2 5.932769748613767 2.573331541431609 0.9271641186784051 0 0 0
46 1 8.038801335654234 3.99884339796063 3.6236890439662224 0 0 0
48 2 7.992464619164483 4.771813596018677 2.9970761104094774 0 0 0
55 1 7.062705632233714 6.298458166091637 2.0313361146400104 0 0 0
56 2 7.108908519914639 7.277816635393684 1.9709807738360365 0 0 0
57 2 6.123925281469903 6.070980367135994 1.8518144012707078 0 0 0
63 2 8.378276588959833 5.729150474298569 7.680574983329883 0 0 0
67 1 7.520324488275887 1.9695476533761014 2.0622163418712085 0 0 0
68 2 7.737168998022546 2.6412316949700916 2.75058054622154 0 0 0
69 2 7.997313094897452 2.30979926708862 1.3166074669315944 0 0 0
112 1 3.5999374663805765 7.9762362971497 3.475674172632863 0 0 0
113 2 4.4355572877778044 7.74948099836015 3.9841595295569383 0 0 0
114 2 3.729319774809785 8.984286913605544 3.433038351475693 0 0 0
130 1 1.7420066748837781 7.6197420751473555 5.265221148808298 0 0 0
131 2 2.3729611471625143 7.830879918253216 4.512963330823221 0 0 0
132 2 1.831160909842602 8.43021537712572 5.818812469405969 0 0 0
136 1 5.422899885031862 7.3028591395001285 5.247727974333659 0 0 0
137 2 5.38992135845105 6.312387859838778 5.236724611201982 0 0 0
138 2 6.384836496986523 7.527065474026548 4.999759476064833 0 0 0
166 1 8.093571929300927 7.435017889188665 5.093889949493586 0 0 0
167 2 8.48877626320564 8.157293158161604 5.633202778987606 0 0 0
175 1 7.194250001343779 8.967001229947618 2.1977214065156123 0 0 0
372 2 8.194470273515504 4.732214876227931 10.052061311317221 0 0 0
6 2 3.3726837493820216 1.164672491505228 3.9908974762160048 0 0 0
325 1 2.5029611911977727 2.8853460219102898 6.98279957035159 0 0 0
326 2 2.4766514299603513 3.841422872689489 6.684012703008598 0 0 0
327 2 3.4239830207740765 2.7592575349427455 7.342347643756545 0 0 0
337 1 4.843571720096781 5.824572904193656 8.619617150152935 0 0 0
338 2 4.763037806234416 5.074361769439602 9.261041701630838 0 0 0
339 2 4.350504941920543 6.648871619014696 9.108952562229275 0 0 0
162 2 10.113633267382548 9.708532368155826 3.354084741941722 0 0 0
509 2 17.431887292533222 7.4530053961815055 9.664228986321975 0 0 0
345 2 1.6126216727669462 5.797569594652957 8.281328075793725 0 0 0
357 2 1.2683833897006527 2.6336254552743474 8.344905520170323 0 0 0
358 1 5.189231278660376 2.6291438090762393 7.446377774145486 0 0 0
359 2 5.406203948511034 3.3268115474506077 6.81222069915524 0 0 0
360 2 5.3100854022835104 1.793900086915468 6.9876154292016 0 0 0
363 2 8.548076455927974 2.4254058455612513 7.590518243806528 0 0 0
379 1 7.413447844280433 5.964678614244146 9.174799939352527 0 0 0
380 2 7.504201851834412 6.96345311960324 9.244793608762091 0 0 0
381 2 6.520793888365475 5.903199289035014 8.82811233320553 0 0 0
391 1 7.430409739271766 2.0630346143360727 8.742622577398748 0 0 0
393 2 6.550199778312692 2.3728147730430162 8.384758694346074 0 0 0
467 2 4.961557557129502 8.612410697490088 6.58291451979783 0 0 0
499 1 7.137911539852681 8.643284257182565 8.825781809788117 0 0 0
143 2 4.191392246199096 9.435978777775533 0.47143910329858135 0 0 0
139 1 0.5238797831846017 8.994887841681155 2.117656441454521 0 0 0
364 1 10.502436677477123 1.3275245000636064 10.15310639978331 0 0 0
15 2 3.7886958389827736 6.20235828611527 0.8681806958167523 0 0 0
59 2 9.067316919325052 1.0416292686179263 3.9911098751196192 0 0 0
365 2 10.793508580544032 0.6458122197491201 9.502357406087215 0 0 0
109 1 2.448709936131975 9.5159629127662 0.28293963067544536 0 0 0
47 2 8.947464704600067 4.067656110038311 3.9535947365180486 0 0 0
401 2 17.285187786728063 0.9778853044582914 9.334084346426863 0 0 0
102 2 18.373484552188817 1.1643486784468366 4.609153359789057 0 0 0
413 2 17.3763485870259 3.2099306459968098 10.29073055284663 0 0 0
62 2 9.023132256471657 4.5776546096020025 6.89232280436467 0 0 0
344 2 1.0212001705235287 5.273442295363478 9.640254116938666 0 0 0
501 2 6.224992459368832 8.638032550020444 8.433057995475458 0 0 0
61 1 8.993198588218533 5.561810544612893 6.913444855150264 0 0 0
181 1 15.409075537335005 9.408686141973535 0.2966667948109862 0 0 0
437 2 3.913200145788808 8.767015226445784 9.855708372048765 0 0 0
168 2 8.279716396522163 6.669692730419132 5.699875340784442 0 0 0
106 1 18.153804113984293 2.6731409136900863 0.5538594004163654 0 0 0
19 1 0.535900423979117 6.1109691783180216 2.035695677867113 0 0 0
374 2 10.72171270368807 5.803804152410164 7.882697106604037 0 0 0
20 2 0.5863045088487827 7.068925862317437 2.084188680530975 0 0 0
148 1 10.048637740112582 7.665378868964187 3.3861089938035764 0 0 0
210 2 0.13782704123195727 7.520222674583228 5.45006100191754 0 0 0
86 2 16.960456748739567 5.85969495137562 1.0034834043095153 0 0 0
176 2 7.325003910203081 9.604880941948066 2.9494730869189025 0 0 0
177 2 6.417697754169612 9.35304993396969 1.7880577494289642 0 0 0
356 2 0.7960873564530585 1.3879161062270258 8.982703824935681 0 0 0
178 1 11.599436647179347 9.331343459648613 0.4779133924277056 0 0 0
355 1 0.5767717743770244 2.338918632049781 8.91135142310013 0 0 0
522 2 17.169352378037864 9.704552537516863 10.273654396826323 0 0 0
23 2 0.9162423800022358 1.0068212701891024 4.975312076309196 0 0 0
74 2 16.45889423021547 2.8130617877688584 0.22364913637412945 0 0 0
463 1 0.47449215013515356 8.845603704830587 8.886841021214769 0 0 0
502 1 11.49760224297242 9.123367115342038 7.389524330834917 0 0 0
343 1 1.0399245431374349 6.001182734860154 9.017586736782938 0 0 0
31 1 0.8190290728171397 2.6675638005382685 2.026069951560332 0 0 0
77 2 17.32689429196714 1.116298195255962 2.4476505930769252 0 0 0
596 2 7.701159676069877 0.4624848268186974 8.825828053530518 0 0 0
362 2 9.205273848699001 2.1822388864954934 6.209965005193913 0 0 0
94 1 15.407925949421257 1.0432946947401014 5.064324226797292 0 0 0
361 1 9.216215612057821 2.756084843331688 6.9584411661515455 0 0 0
11 2 0.7137731730478002 4.119779868286452 4.423944858153209 0 0 0
465 2 0.6897734510181566 7.875058556282117 8.977963951959294 0 0 0
433 1 2.236116838453059 9.481503824446914 7.0759882941438415 0 0 0
33 2 0.8763570846077564 3.149410746586244 2.847278528320141 0 0 0
540 2 17.253910100902942 9.387623754670491 7.3371823833380185 0 0 0
392 2 7.73591382915408 2.634144074603141 9.458998538404089 0 0 0
111 2 1.6273591071582385 9.421550599300975 0.8278356045793078 0 0 0
66 2 13.323328873441946 1.1542492402381221 5.289875374578053 0 0 0
633 2 13.91726796151686 0.9056445423463899 9.028255651576695 0 0 0
150 2 9.313595423360512 7.330243733604352 3.9712399711577984 0 0 0
505 1 15.543351841541657 9.493024822595299 6.591182010553517 0 0 0
42 2 10.713317438167465 0.45715395697646627 2.500436638047667 0 0 0
468 2 3.9982825566704654 9.459451736198407 7.548605359370639 0 0 0
747 2 14.643489737628574 5.737007846235716 0.7172397794987366 0 0 0
214 1 18.118189612319917 9.169201916989204 0.4756564698248649 0 0 0
464 2 19.394490332882498 8.917693555682433 8.341021406733448 -1 0 0
38 2 10.122383890533024 2.548966915647727 0.47521294012664 0 0 0
147 2 8.190470207658809 9.313291206170462 0.8842059490720939 0 0 0
34 1 5.3351673696803195 2.5152835614871076 0.18142079676139578 0 0 0
504 2 11.929813392906173 9.001897854382053 8.253891956872751 0 0 0
469 1 8.969091693987131 9.322153671959844 6.844202842598025 0 0 0
41 2 11.528176223581609 0.7991577323972181 3.936930310652595 0 0 0
335 2 0.9068026323615395 3.3163413279566503 10.184321273750793 0 0 0
236 2 0.9921666759613058 0.8883977957227969 2.1139451663258755 0 0 0
473 2 10.483101080820866 7.119193431320811 9.848900045672467 0 0 0
3 2 2.3603269028274516 2.63155509625528 0.6406491151906479 0 0 0
182 2 16.335574071083304 9.205549645788548 0.4364824902108811 0 0 0
149 2 10.265519109353583 7.012152853261953 2.7435520408840377 0 0 0
28 1 6.024422499053193 0.6800154761931498 5.686353805109217 0 0 0
443 2 0.6402111479868962 10.00552857080568 10.261183918584525 0 0 0
435 2 1.603323931297074 9.42869012879661 7.819309490326062 0 0 0
272 2 7.658360813997319 0.16004494861295687 1.8803317764365814 0 0 0
536 2 14.7828806921589 8.994637963377448 8.0987218749222 0 0 0
30 2 5.3490904415167515 0.8590689076064799 4.940360905373583 0 1 0
75 2 14.951478997603397 2.750018868028698 0.7737188869491937 0 0 0
40 1 10.767094466198243 0.996040468860766 3.3378165483417197 0 0 0
212 2 14.160872491108607 9.138181103601722 1.707753304321844 0 0 0
21 2 19.383319317012283 5.92537568059638 1.7998552537372772 0 0 0
64 1 12.395331866791198 0.9056864673670326 5.477827594186394 0 0 0
211 1 13.50349842542263 8.709689862621305 2.36023845936076 0 0 0
81 2 18.89560761982993 5.626750211691524 5.514504078282852 0 0 0
22 1 1.8657097110603724 1.03974591707726 4.999784671028879 0 0 0
32 2 19.663310650854253 2.7075695706826166 1.7525481203669495 -1 0 0
96 2 16.022480833983185 1.1475987815332953 4.297830340835043 0 0 0
675 2 1.680744416973627 5.902123498157408 0.5992870906602804 0 0 0
538 1 18.185761677393295 9.1186964891283 7.406891039605753 0 0 0
79 1 18.792714551106986 4.622814781251813 5.449360791605552 0 0 0
535 1 14.087407886051032 8.820228670095403 8.805117307393587 0 0 0
431 2 18.607814703984694 3.5989263175734214 6.547282886376986 0 0 0
537 2 14.090687571252916 7.873619834644656 8.852907247537049 0 0 0
51 2 10.129241258670456 5.460245120928737 0.7687958788567582 0 0 0
506 2 15.389772078179112 8.980718761411463 5.774538882076474 0 0 0
43 1 12.407618718265885 4.702999683948021 5.6610712662985465 0 0 0
44 2 12.457305771150114 5.7031915064697785 5.777319447551708 0 0 0
45 2 12.232948010489476 4.36864134607857 6.552533037272312 0 0 0
49 1 10.77106034943406 5.442649052890106 1.4949592927924096 0 0 0
50 2 10.609807537633593 4.7263981147342395 2.116555543228099 0 0 0
53 2 11.454882728338287 3.98833962466361 4.652683608099277 0 0 0
471 2 8.324443458268712 9.306310790908974 7.562168179611644 0 0 0
71 2 12.472077840072957 2.502981022192598 1.2509009771828838 0 0 0
539 2 18.261269449273296 8.480811671550882 6.649839562117122 0 0 0
76 1 17.221671742588544 1.6401257084553424 3.2427711951644573 0 0 0
78 2 17.099892921775652 2.6131728981015994 3.068595935655051 0 0 0
80 2 18.15625072788477 4.546356437559078 4.65228637715545 0 0 0
82 1 14.311911273099684 4.5069143841386605 3.820902859325358 0 0 0
83 2 13.79783753420526 4.687319543696393 4.624672542916789 0 0 0
84 2 13.92392514674548 4.934564229023693 3.0492623813005593 0 0 0
85 1 17.736940416901163 6.092693351392223 1.589913738827925 0 0 0
87 2 17.439385110510294 6.834365457365879 2.1432355463015256 0 0 0
88 1 16.891923469502824 4.286569203013339 3.597839772548063 0 0 0
89 2 17.12933096077316 4.939236358447153 2.8646218770253085 0 0 0
90 2 15.901088563642904 4.439326686392693 3.790093553271963 0 0 0
91 1 13.471301415323257 6.033438125581075 1.6953732483688475 0 0 0
92 2 13.436817758175083 7.015448933091298 1.9420655265251894 0 0 0
93 2 12.505162791180286 5.760846220029918 1.4923116725531897 0 0 0
97 1 15.51510101549432 5.652526330480686 6.683748786175856 0 0 0
98 2 16.27001302141752 6.04644717544578 7.214943387558983 0 0 0
99 2 15.832527680842885 4.705922862905243 6.5216572925376495 0 0 0
103 1 13.971999502423849 2.113915092780848 2.1646890996333696 0 0 0
104 2 13.997860853944541 2.671096564410345 2.9512011340333646 0 0 0
105 2 13.973655751639797 1.1795485418017553 2.433234682186643 0 0 0
172 1 12.205773798707204 7.341553251229548 5.157759160258255 0 0 0
173 2 11.898259248054497 8.002774774729701 5.837385219282748 0 0 0
174 2 11.405796386637503 7.236269377629293 4.568194333095073 0 0 0
184 1 17.153437545722127 8.002793682209449 3.3834945430347334 0 0 0
185 2 17.265437253763842 8.979609906591957 3.3525951489423518 0 0 0
186 2 16.152840160294428 7.885859882149711 3.6625689623049866 0 0 0
202 1 14.951280037290921 7.701412523379088 4.830760700935783 0 0 0
203 2 14.000004750533188 7.672611750572688 4.615675452359242 0 0 0
204 2 15.166762403272113 6.902976283971258 5.359865032485647 0 0 0
209 2 18.66581809764742 7.726181209645399 4.532915255667142 0 0 0
213 2 12.625028809165839 8.857678812763899 1.9445931922740647 0 0 0
373 1 11.264591119375652 5.691913230530143 8.668052975716849 0 0 0
375 2 12.243269488630581 5.821696209610963 8.511987731053695 0 0 0
394 1 11.805745730714948 2.921690237206667 7.357609814786745 0 0 0
231 2 4.817061666586765 0.4585472554325917 2.05531350364078 0 0 0
396 2 12.123623564614524 2.2657554105722504 6.651518013563274 0 0 0
397 1 15.769997511601769 3.056553196774146 7.047530911295621 0 0 0
398 2 16.641528692286368 2.758189918937218 7.31354005056051 0 0 0
399 2 15.593227705518172 2.4303247553830825 6.2932831382464185 0 0 0
140 2 0.7405086763867266 9.587414683333739 2.834819176070216 0 0 0
409 1 18.160318456522862 5.993049462885183 8.355313949903257 0 0 0
410 2 18.056023804070463 5.303654323716715 9.061636224858146 0 0 0
411 2 19.14182177161289 6.091337816532987 8.205414017382173 0 0 0
415 1 13.913675814904131 6.130844572819272 8.760440938500736 0 0 0
416 2 14.499746790114061 5.8632766142214185 8.013519282818518 0 0 0
427 1 13.80732061840432 2.520150366165446 9.05876115055115 0 0 0
428 2 12.965169888172646 2.7849927989398924 8.694687450305414 0 0 0
429 2 14.473036673468835 2.5786131151906626 8.327864275804716 0 0 0
430 1 18.400981238369997 2.7358193209665993 7.0080904393360965 0 0 0
417 2 14.210026469723065 5.6045151379325855 9.539362135663238 0 0 0
208 1 18.969564035163405 7.321303873561931 5.345660040780687 0 0 0
101 2 18.67936865855717 1.339340852063273 6.015503891795924 0 0 0
503 2 10.517000140161915 9.007975808726572 7.562692003105788 0 0 0
60 2 7.665006293502301 0.9492840028206024 4.820829079411526 0 0 0
52 1 10.756072619209402 3.7065242361731188 4.005002700077339 0 0 0
54 2 11.074228956767499 2.9305040808793 3.5904120385684424 0 0 0
395 2 10.804395634384434 2.893051741486287 7.1908644188408095 0 0 0
432 2 18.91954807589503 2.697204948218923 7.871144932705597 0 0 0
466 1 4.967744240643231 9.219517148094852 7.334986496720298 0 0 0
58 1 8.620761690138904 0.7994326741693509 4.8021524840211205 0 0 0
141 2 19.4193559370134 9.275012860654254 1.8795116909560468 -1 0 0
70 1 11.81036660304267 2.7089270123967557 0.5834981121211202 0 0 0
400 1 17.31580122428426 1.5276336768123469 10.150560237945005 0 0 0
500 2 7.07464484087008 9.320273433996176 9.498644384963175 0 0 0
100 1 18.841274225510002 0.6984540950768121 5.301291087420621 0 0 0
342 2 4.156405360815439 2.725628910006004 10.17121033513446 0 0 0
378 2 11.061586260476409 4.737202992505041 10.111553876762963 0 0 0
710 2 7.981780165540789 5.607811245907077 0.7419460757157722 0 0 1
95 2 15.534965269365488 0.1490829015450072 5.429582404017699 0 0 0
180 2 10.607795467900157 9.142188335342288 0.4780628913543852 0 0 0
366 2 10.625108503283737 2.218714025682342 9.86770722796245 0 0 0
142 1 5.15452260438098 9.533904971495295 0.4326331478132395 0 0 0
37 1 9.178958150631232 2.661336202350094 0.20317537536300173 0 0 0
436 1 3.780147767291874 7.842503550587021 10.157754839748012 0 0 0
515 2 14.031676825994191 9.96117253534724 10.220424454459385 0 0 0
145 1 8.921786234062727 9.367186911118097 0.16090898106558255 0 0 0
328 1 4.219739073584398 0.9726077542856622 10.386478727213508 0 0 0
331 1 5.878239218637598 4.51406267719232 12.279539853897687 0 0 0
332 2 6.61891616245084 4.384850781942055 11.68002626696049 0 0 0
333 2 5.058327548701927 4.140187230839426 11.769501663281376 0 0 0
348 2 2.2057847366702727 1.6431013078415186 12.473263254233272 0 0 0
349 1 2.210182865511299 5.293205070306834 13.85350981805355 0 0 0
350 2 1.8277153653783884 5.6430691069596195 13.01158365994409 0 0 0
351 2 2.051541089356248 4.292172440577861 13.77347647335402 0 0 0
656 2 5.472063595569418 5.655896366230825 19.3511780376129 0 0 0
387 2 7.966554903781628 5.6769348043201004 14.425681723382308 0 0 0
454 1 1.59394754294206 7.440118770920796 12.169517706397924 0 0 0
456 2 1.767377245872814 8.20299975613837 12.711214329764857 0 0 0
460 1 5.665823043677569 7.583522420899025 12.067035838538372 0 0 0
461 2 5.798943092332788 6.656605553787437 12.199147630021379 0 0 0
462 2 6.608323068152424 7.942208476238758 11.92193333410552 0 0 0
490 1 8.503241585655596 7.8807918917664965 12.170842234447148 0 0 0
491 2 8.459223880079895 7.134391038658225 12.82493501148596 0 0 0
649 1 2.5820492966929836 2.5076450219939046 13.872614675271574 0 0 0
650 2 3.5198490068462043 2.5241597383435552 14.122679985977298 0 0 0
651 2 2.141366840631241 2.506227003354966 14.734785108371343 0 0 0
652 1 3.863715776463542 1.442700563098353 16.965600229549587 0 0 0
653 2 3.79835416589035 2.424012081098898 16.943576499129932 0 0 0
654 2 4.628106585311086 1.2815268319953195 17.516872096877535 0 0 0
655 1 5.521144891113166 4.694885451985056 19.206823170835385 0 0 0
657 2 6.428508675730061 4.475895229452135 18.918234911385294 0 0 0
658 1 1.1083000016434423 4.341206825776002 17.46848239187994 0 0 0
659 2 0.9374363521371931 3.458554241120895 17.108455883347634 0 0 0
660 2 0.9883994826147664 5.062282527252284 16.759784553862893 0 0 0
661 1 4.398982705934459 5.94088467460472 15.376635989411424 0 0 0
662 2 4.077780644054874 5.260436724540641 16.05674105741081 0 0 0
663 2 3.6517986478322406 5.845709273693613 14.766484890792716 0 0 0
664 1 3.6903815547056253 4.0446717171878745 17.224997707930537 0 0 0
665 2 2.7555561371285147 4.212932088764647 17.481341822958615 0 0 0
666 2 4.214713027200793 4.327756378701033 17.98385154181069 0 0 0
669 2 1.2226710572519361 5.854736216351091 14.937965440196725 0 0 0
671 2 1.9996971310056624 1.82257247143205 19.13292704806957 0 0 0
682 1 5.27246722294116 2.713543280771911 14.158144618359799 0 0 0
683 2 5.556678453866686 3.5281113343098887 13.732611614041375 0 0 0
684 2 5.420966174046914 1.9585166122934903 13.536175873947366 0 0 0
694 1 7.681774924003879 4.111310530313345 17.535190671608923 0 0 0
695 2 8.650473598877149 4.265453690138431 17.643542427959925 0 0 0
696 2 7.636392561632515 3.365370753949936 16.922128268149233 0 0 0
703 1 7.19656773681775 6.055107795702686 15.983841874045558 0 0 0
704 2 7.341880826644224 5.291744810694542 16.572556798230636 0 0 0
705 2 6.265058397119129 5.970507363983108 15.691030572863914 0 0 0
715 1 7.510356124443472 2.228165897278292 15.751318985115395 0 0 0
716 2 6.616206722730131 2.3686879806974277 15.397011984990325 0 0 0
717 2 8.051278246047195 2.486230771765761 14.97606692098885 0 0 0
760 1 4.102454707759393 8.05802736304462 16.904916287407087 0 0 0
761 2 4.042018743703196 7.334720816588356 16.18987515635964 0 0 0
762 2 4.798366203205536 7.786510034743788 17.43108520136002 0 0 0
778 1 1.7757034519418895 7.875575598716437 18.618334387686453 0 0 0
779 2 2.5200787680024073 7.8882648307281364 17.978035310788453 0 0 0
780 2 1.9457785048566327 7.055407646954657 19.206799386242885 0 0 0
784 1 5.7270496681789 7.387251841331509 18.931508983368936 0 0 0
786 2 6.675624175569148 7.57752199060048 18.777565704831982 0 0 0
791 2 5.333333294248989 8.503416637912554 13.509131197997993 0 0 0
825 2 6.348675754503462 8.881008342073013 15.214832268531048 0 0 0
814 1 8.302432830847087 7.5320414678436425 18.8101463308291 0 0 0
815 2 8.44140910918602 8.338061417655998 19.377058267500907 0 0 0
816 2 8.422211008812265 6.770071822947163 19.3685596590183 0 0 0
823 1 7.148531931972577 8.68396996209452 15.77758299072788 0 0 0
824 2 7.17725504636316 7.738915529214104 15.954815712607871 0 0 0
674 2 2.1782523479844302 4.97267724752812 20.245902985554565 0 0 0
371 2 9.259700649662957 3.974203987027081 10.905386461898544 0 0 0
827 2 10.616952723415935 9.36230975650861 14.223680147123531 0 0 0
712 1 11.93997999600439 0.894193002709537 18.80150025670279 0 0 0
340 1 4.031589958674936 3.6056539231759928 10.508678219897146 0 0 0
346 1 1.8882282497202683 1.0654878958061433 11.736698050882815 0 0 0
492 2 8.694957212860949 8.68538039188829 12.736966681410003 0 0 0
347 2 2.70884200122013 0.9029255598891914 11.227472351709816 0 0 0
789 2 1.485097460779096 9.102692287037982 15.137597406756027 0 0 0
110 2 2.1361273166132877 9.089142356133763 20.003868914443473 0 0 0
750 2 18.048068485539833 1.1119951478951395 18.465951135428757 0 0 0
858 2 -0.16633806551805316 7.68868231884921 18.71064006668741 0 0 0
408 2 14.450436211526869 3.6195009729520375 10.415483012858976 0 0 0
2 2 3.500188722775418 3.09296908723046 20.53678227107397 0 0 -1
706 1 8.462166160256098 0.9687149882602437 18.856452318236173 0 0 0
672 2 2.410012941864476 0.8944338338908768 18.032974101257622 0 0 0
336 2 0.8165844337426779 3.992330219347038 11.640563009764248 0 0 0
685 1 9.13570639925748 3.09183484989901 13.784158207434276 0 0 0
681 2 0.5615945365965095 1.0701777151361054 16.044594649737455 0 0 0
533 2 -0.13657261178408595 7.41650668319534 12.060570372120338 0 0 0
485 2 10.217028305993423 9.54287974026542 10.572130662708567 0 0 0
474 2 9.660180401477872 7.66861402161254 11.078110829214685 0 0 0
679 1 0.7157720983560882 2.025432324231688 16.008978260694654 0 0 0
822 2 11.939933777011989 8.537580106903675 19.58758909848838 0 0 0
687 2 8.919151829948566 2.3768763866219285 13.200659063915285 0 0 0
713 2 11.683737893128647 1.387867329841169 19.608853143435734 0 0 0
744 2 15.229159436435614 1.1836887105112286 18.16267995823238 0 0 0
742 1 14.67407389184558 0.9947177945223888 18.88300962398709 0 0 0
879 2 4.28042962611178 0.3381235640868386 15.615894128811334 0 0 0
455 2 2.093709926091062 7.5061888151246805 11.35058888392762 0 0 0
385 1 8.719748590946377 5.627204687620915 13.744269254617539 0 0 0
748 1 18.651691789676015 0.8731186146102523 19.254321490495986 0 0 0
830 2 16.46774922796045 9.109940284793419 14.394375500893815 0 0 0
353 2 6.944718376702984 0.8850920371193947 12.038547880136058 0 0 0
795 2 8.451443106038386 9.254534756815707 14.808637245400572 0 0 0
767 2 0.8299131115667384 9.783465114812156 17.529990337155372 0 0 0
793 1 9.13078691374593 9.61316722974647 14.146535722627041 0 0 0
424 1 19.100125077968332 0.7049623510912766 12.173991223044887 0 0 0
386 2 8.810074357917609 4.62836726345124 13.662240087878258 0 0 0
711 2 8.67491467016061 4.5419770304403295 20.599715444391176 0 0 -1
728 2 -0.014328834650858088 4.691654542951792 18.8161226146949 0 0 0
677 2 5.449811376088311 1.3618593342447847 19.56345243644172 0 0 0
707 2 8.921812752250826 1.1715125351243105 18.000194823420596 0 0 0
330 2 4.89433029446675 0.7060501775202823 11.105153844482762 0 0 0
668 2 0.8243193965241359 7.0251074671346085 15.834993795925326 0 0 0
790 1 5.251953434187689 9.240026848753011 14.173776552844155 0 0 0
787 1 0.8532230386913148 8.698634013970041 15.833069461557985 0 0 0
749 2 19.56284258419746 0.9922695603499871 18.8515587642616 -1 0 0
667 1 0.5686425416932094 6.089310855720286 15.654965246983187 0 0 0
382 1 8.762332458045194 1.2440569301726834 12.16014027692596 0 0 0
510 2 17.871217139451257 7.750452765416883 11.202439874977602 0 0 0
714 2 12.899987197721112 0.9853218041506764 18.716862775297695 0 0 0
798 2 9.540681754316866 7.756554425558035 17.386086255021628 0 0 0
670 1 1.7268888615126756 0.9321633171798478 18.756109713570336 0 0 0
418 1 15.273182656820298 1.0633182502448129 11.728452909310008 0 0 0
700 1 10.350205144561821 4.353162836575026 17.329140990408327 0 0 0
788 2 -0.004935864506943444 8.791958340434764 15.273963454625008 1 0 0
390 2 11.982968919397974 0.9258304775265211 11.420409834622973 0 0 0
389 2 13.478791156591173 1.0355934270144018 11.965587946889375 0 0 0
680 2 -0.07843035015228345 2.3451217995136795 15.543111496767178 0 0 0
785 2 5.291833322780375 7.989740092550753 19.572506996658877 0 0 0
829 1 15.57927128010624 9.345294415590793 14.061042641451333 0 0 0
404 2 18.94390223460457 4.0137160968141625 13.318034171697464 0 0 0
826 1 11.617045293411447 9.447970602235674 14.299479560799103 0 0 0
426 2 0.26918635630068166 0.8617415995496291 11.83950957385013 0 0 0
384 2 9.448264912424897 1.4048073654150688 11.408031228653172 0 0 0
861 2 14.319498181246699 8.88623195650437 15.92242441080696 0 0 0
701 2 10.368377386617118 4.762249591393152 16.42865176681346 0 0 0
438 2 4.367242842088297 7.778588475163252 10.917563225562356 0 0 0
406 1 14.659108290929673 4.485640821418545 10.7201706108419 0 0 0
352 1 6.000708756855004 0.7686200202818887 12.407089191392819 0 0 0
773 2 3.488784026251058 9.721931787888085 16.934589137306702 0 0 0
692 2 12.292724925799535 5.894441897437896 19.275106021864595 0 0 0
758 2 3.3621297188314943 9.70751135492496 14.02233984848702 0 0 0
699 2 10.052898417194529 5.83189957459253 14.630936882146324 0 0 0
702 2 10.289500526128695 3.3762649691899242 17.15352316351317 0 0 0
863 2 18.499038621962566 8.491634533241971 13.619082287372839 0 0 0
753 2 14.01555061569735 1.4157340155097435 15.93605282266611 0 0 0
183 2 14.945022576682463 8.91749885581902 20.082144260350493 0 0 0
534 2 18.529626104285285 6.540329476250258 12.629865424665162 0 0 0
39 2 8.871820159328072 2.1344753094692295 19.990601992532362 0 0 0
498 2 11.831877322941509 7.506597939121872 11.83056551554534 0 0 0
846 2 16.635852168389878 10.057159087669795 17.677132843518145 0 0 0
689 2 10.902354061045067 1.3228846210181047 17.443597536269372 0 0 0
402 2 16.52222335211436 1.339313799728672 10.71746227775057 0 0 0
859 1 13.47626684323053 8.662898084813348 16.387055530188476 0 0 0
860 2 12.762535108314783 8.933023705488035 15.754604490996867 0 0 0
796 1 10.368312199880496 7.8725984574895 16.908060480105235 0 0 0
797 2 10.506794376567388 8.852915930488953 16.70713498368142 0 0 0
403 1 19.12287223135237 4.7627296917369994 12.73307040693222 0 0 0
425 2 18.478841004088057 0.8434601284614505 11.452291859409524 0 0 0
832 1 16.642959990353766 8.190682563565208 17.35230970478049 0 0 0
367 1 12.748234535934664 4.599379157483398 12.624700580926007 0 0 0
368 2 12.570757383441983 5.548625264944722 12.803585619778161 0 0 0
369 2 12.386671294275358 4.082890669373966 13.398783667055142 0 0 0
850 1 14.86096804071756 7.699794871807354 19.198192223955267 0 0 0
831 2 15.38560011252598 8.842460873490548 13.237965572084036 0 0 0
828 2 11.984760236472674 8.770471257228753 13.70665912975998 0 0 0
407 2 13.997198761987246 4.6132940872068815 11.439141636196252 0 0 0
405 2 18.634995577807697 4.716847971196299 11.918636388629146 0 0 0
852 2 14.849959061021917 6.8598500960260615 19.66277633952916 0 0 0
420 2 15.522410873776149 1.5139987123938587 12.582323390096498 0 0 0
421 1 15.420136276895517 5.529731981088978 13.787047165686023 0 0 0
422 2 16.193500823858738 5.513801420917257 14.435534261622896 0 0 0
423 2 14.636838131431638 5.719175365832152 14.285262674577911 0 0 0
727 1 18.97723246753987 4.831334381803352 19.404602399017993 0 0 0
496 1 12.396890502437584 7.286001375104671 12.646236491347572 0 0 0
497 2 13.36354920162033 7.635829523308011 12.458468306159823 0 0 0
36 2 5.384826626829384 3.5084445084075946 20.152235548125088 0 0 0
526 1 15.129366235817407 7.5836567489954465 12.084646634518815 0 0 0
527 2 15.305986926375047 6.7382013272887535 12.587550688321421 0 0 0
834 2 15.965264305903967 8.01474848218272 18.052954179436576 0 0 0
851 2 13.981878698004321 7.76026392284711 18.801484292312104 0 0 0
691 1 12.363390926053542 4.902581670448147 19.199901566575193 0 0 0
693 2 11.724401368503782 4.719713217207435 18.44701229051217 0 0 0
697 1 10.909468542210528 5.90592798574899 15.220136964022505 0 0 0
528 2 15.716003080132891 7.710758002151289 11.300180856611439 0 0 0
862 1 18.418694136601854 9.154994782471661 14.34649051411104 0 0 0
718 1 11.870576459082312 2.525327504382797 14.260464112395615 0 0 0
719 2 12.616970263956974 2.4001657997938985 14.862527430351811 0 0 0
720 2 12.061175414058653 1.9428356546291352 13.488693686537752 0 0 0
721 1 15.799807372148317 2.867855566367059 13.628158647272553 0 0 0
722 2 15.388019927171882 3.701727459673255 13.28813944261976 0 0 0
723 2 15.332730165214317 2.7324415259158625 14.45193573625355 0 0 0
724 1 16.94812552087116 1.45553128533977 17.374177164073945 0 0 0
725 2 17.02266157187909 2.4178630514941335 17.15130848644296 0 0 0
729 2 18.230811015608758 4.5941913885699215 18.8301318083628 0 0 0
730 1 14.46344039148131 4.146156969673039 17.697931548626297 0 0 0
731 2 13.877896054835178 4.501855354265417 18.410602925125144 0 0 0
732 2 14.275807252886578 4.688396241784048 16.93440970310715 0 0 0
733 1 17.507355394409917 6.075320365776252 15.530378247295976 0 0 0
734 2 18.483937110842565 6.081579954558532 15.397000328136272 0 0 0
735 2 17.210924493257185 6.85829381812771 15.990258314441709 0 0 0
736 1 17.130918362287087 3.9807741616396735 17.29940451334863 0 0 0
737 2 16.208382265336528 4.155155910092278 17.695147610168732 0 0 0
738 2 17.437554605866456 4.777304565252013 16.85007208963753 0 0 0
739 1 13.515323189305638 5.916479695209027 15.620993056187904 0 0 0
740 2 12.575799145149855 5.797663776414981 15.414617915738043 0 0 0