LAMMPS data file via write_data, version 8 Apr 2021, timestep = 200000

6144 atoms
2 atom types

-0.03699124214346951 59.94542562277467 xlo xhi
0.1372514832717191 28.203214516728245 ylo yhi
0.09563654002682989 27.315808459973322 zlo zhi
10.159073762562752 10.240234476688425 7.134025722573892 xy xz yz

Masses

1 16
2 2

Atoms # atomic

1 1 7.532533286372747 5.123042633101116 3.9770541295856963 0 0 0
2 2 6.671864150103583 4.688059271121377 4.001262225466726 0 0 0
3 2 7.366515651851635 6.083637885397769 4.254285457926017 0 0 0
4 1 9.886604778158878 6.8836226301691354 10.638736423695054 0 0 0
5 2 10.271415456057248 6.570062049022759 11.51257990794769 0 0 0
6 2 9.570174012263246 7.798210610893269 10.82936995998369 0 0 0
7 1 9.784460618657953 12.232756366667875 3.9320901765852017 0 0 0
8 2 10.006223966588689 11.794210512754063 4.774107496037294 0 0 0
9 2 9.598430685571964 13.113641340095464 4.134359993301907 0 0 0
10 1 12.108667099827622 14.028851877879436 10.905935055883011 0 0 0
11 2 12.899665036868033 14.103057111294696 10.35529114680937 0 0 0
12 2 11.563722542464129 13.273317267484641 10.548311037456367 0 0 0
13 1 14.576224883461608 5.035628284661096 4.075860618810887 0 0 0
14 2 15.132752994204726 4.536149677320926 4.729937455659507 0 0 0
15 2 14.457767573995973 5.93494906292662 4.516707446618034 0 0 0
16 1 17.28566723826842 6.829666470456351 11.10593169187687 0 0 0
17 2 17.566073944182143 6.499673356993407 11.975714050496228 0 0 0
18 2 18.052929774202255 7.016011546680348 10.538152318559195 0 0 0
19 1 17.11474201553264 12.236544753632606 4.193436767192963 0 0 0
20 2 17.926706429968075 12.448117197288239 3.704789991822621 0 0 0
21 2 17.4952228100955 11.758733960685394 5.0359665735213 0 0 0
22 1 19.925038004228902 14.10147674101984 10.89417193865893 0 0 0
23 2 20.67411905643554 14.405791572885946 10.323931101112327 0 0 0
24 2 19.50080355163513 14.906937588501378 11.230610079875841 0 0 0
25 1 11.397846573449657 8.017720798623285 6.516327371808734 0 0 0
26 2 10.608941365234058 8.510695832657502 6.12979142649392 0 0 0
27 2 11.035819443493594 7.225814395032428 6.981477645384597 0 0 0
28 1 14.275188837447958 9.95866577599664 13.14802063435989 0 0 0
29 2 14.331965437938537 9.236261610292042 12.47052876025481 0 0 0
30 2 13.429819507977532 10.406484610890924 13.036111177560509 0 0 0
31 1 13.883107764912515 14.962872895046281 6.490750001585486 0 0 0
32 2 14.16955913420305 14.513589828416476 5.634488176417049 0 0 0
542 2 29.97938349833147 2.1831099855609613 5.6581264650042655 0 0 0
113 2 15.164258380531242 6.677191440149718 13.510041531946205 0 0 0
37 1 18.69951423124437 8.17899291070765 6.3916742193619855 0 0 0
38 2 17.788158721242503 8.527518972930373 6.370065576133043 0 0 0
39 2 18.540644865091018 7.414500985340256 6.996839179917158 0 0 0
40 1 21.63285853717146 9.896728524636256 13.134954964896929 0 0 0
1619 2 10.517972865479635 12.425711839660213 20.44738693827086 0 0 0
42 2 20.796934361510306 10.341514830738396 12.77591584970559 0 0 0
43 1 21.669858932850392 15.134441087607062 6.327708327198623 0 0 0
1616 2 8.176203471032094 10.689546732715394 13.74326702199285 0 0 0
1665 2 10.024991467042948 13.283747112961855 17.13606924890542 0 0 0
339 2 3.3668331553664097 6.5110602735301395 3.678914720296721 0 0 0
45 2 21.771967943834177 14.45701543100273 5.552357905788364 0 0 0
49 1 5.004254922936127 3.766019056695239 2.989806384736644 0 0 0
50 2 5.089693741872745 2.8443424418692462 2.7073819922113285 0 0 0
51 2 4.242888302586453 3.7926941871133377 3.570062045912399 0 0 0
52 1 7.540558895170086 5.2488148419939495 9.693310924977698 0 0 0
53 2 7.117689432941084 5.665629872592204 8.914318058926698 0 0 0
54 2 8.468441280913229 5.662174438229208 9.743299104766507 0 0 0
55 1 7.8521432858223825 10.728057442064792 2.478714982873124 0 0 0
56 2 8.32502717160984 9.866411700405568 2.340108385103793 0 0 0
57 2 8.522472872032585 11.30879794359454 2.9373028548041917 0 0 0
58 1 10.059792481512714 12.399413140014559 9.815452032074441 0 0 0
59 2 9.511946063783189 12.77212570072942 9.09997628960196 0 0 0
60 2 10.355184256218575 11.507600436280516 9.447959475732407 0 0 0
61 1 12.480819208157811 3.4822410431142155 2.8342358338866287 0 0 0
62 2 13.02890888493376 4.212601908438536 3.2151906779258677 0 0 0
63 2 12.05720234235791 3.858650112058254 2.01687322477612 0 0 0
64 1 14.95130796501588 5.338607113511861 9.890430682276575 0 0 0
65 2 15.713098443668569 5.62896798789828 10.434512461578755 0 0 0
66 2 15.284994528096664 4.41146765702471 9.62312900701263 0 0 0
67 1 15.0571578586424 10.497472557764077 3.1043537367808947 0 0 0
68 2 15.749790466587859 11.031695757591805 3.48798288450204 0 0 0
69 2 15.512425785805123 9.702067496733212 2.7395713435235614 0 0 0
70 1 17.75730543678492 12.369346159976454 9.500219518769011 0 0 0
71 2 17.13168282364721 12.738959227545784 8.789806447626345 0 0 0
72 2 18.417981571104903 12.955988041020145 9.840229425344173 0 0 0
73 1 0.9023766734501458 0.7668579309025929 0.6823619341097228 0 0 0
76 1 3.6617171395051002 2.6831624274161854 7.27315022512206 0 0 0
79 1 3.8334138465024585 7.931793877660333 0.5961917835165865 0 0 0
309 2 16.166985823402985 14.191347110021178 1.7970361078452604 0 0 0
81 2 4.575975590606815 7.3626514425787875 0.8436898215985424 0 0 0
82 1 6.322459369364561 9.575865942479602 7.3187343361282435 0 0 0
84 2 7.050318029779126 8.984805687243096 7.756150397212678 0 0 0
85 1 8.531271584410966 0.8112499269654109 0.62037864531746 0 0 0
87 2 8.37831266314216 1.4420081916501055 1.306573380622131 0 0 0
88 1 10.933426177361973 2.578873500858257 7.313303090073761 0 0 0
90 2 11.083611550553524 3.2348136641581453 6.671336962178326 0 0 0
91 1 11.152597643427224 7.831736877847174 0.42532869169932547 0 0 0
93 2 11.851009598870318 7.4342227658595466 0.9979090133999335 0 0 0
94 1 13.481705905306496 9.43970204573336 7.633066713151629 0 0 0
95 2 14.194959465570996 8.92786655383267 8.060607327773907 0 0 0
96 2 12.949972567416564 8.779781056648972 7.1210761490947325 0 0 0
97 1 5.457407985566564 4.217692232211785 5.858533583550206 0 0 0
98 2 5.63554878362773 4.981195531500195 6.420161961618807 0 0 0
99 2 4.734060889078904 3.704969303356245 6.256482761063041 0 0 0
100 1 7.974716828728179 6.16852424934158 12.679064660113642 0 0 0
101 2 8.08400171724877 6.631982104401354 11.816544363341105 0 0 0
102 2 8.64325820648358 5.445543532855057 12.594300416956841 0 0 0
103 1 7.57403795173218 11.436462906111892 6.127871511769682 0 0 0
104 2 7.190314527277919 11.870737072751659 5.35382790332252 0 0 0
105 2 6.964173385254699 10.731235517158433 6.384826025078657 0 0 0
106 1 9.992642431429937 12.98139247619104 12.75048500842815 0 0 0
107 2 10.579748054435585 13.652582492236839 13.181490257392488 0 0 0
108 2 10.651063982222196 12.317750258979682 12.469047953628172 0 0 0
109 1 12.422170308051241 4.6494374877151365 6.147934611638382 0 0 0
110 2 13.049594048620413 4.007181405452364 5.685321946656217 0 0 0
111 2 12.173484050942355 5.310316284820779 5.48199579238826 0 0 0
112 1 15.05921450423231 5.885962934386194 12.879983392630074 0 0 0
114 2 14.420178712475954 5.2818333084740665 13.343999790376513 0 0 0
115 1 14.841087450200856 11.52669219015984 6.306533550139712 0 0 0
116 2 14.272843449050846 10.893471266061711 6.827151914320586 0 0 0
117 2 15.109868030088533 12.158414880559784 7.001936302940258 0 0 0
118 1 17.875143692469884 13.217939602284433 12.838167819745351 0 0 0
119 2 17.175080634149214 12.761016399037981 13.36349088088951 0 0 0
120 2 17.399786602528863 13.672146479613211 12.154758344879497 0 0 0
121 1 2.859356559119659 2.9484321163777323 4.482114301696629 0 0 0
123 2 3.3812991947772764 2.1620138132220164 4.888477988968605 0 0 0
124 1 5.3296103158571455 4.31822829163209 11.219814967555559 0 0 0
125 2 6.220097156346042 4.701137512078228 11.092421072508387 0 0 0
126 2 5.564613364245912 3.443039503940998 11.523777214528984 0 0 0
127 1 5.48985938404889 9.96479738354382 4.054566476889407 0 0 0
2067 2 27.404123229173056 5.9943396735459835 18.96961234776399 0 0 0
129 2 6.367396194643783 10.039584409980781 3.589288092074142 0 0 0
130 1 7.656925479596229 11.524127571828934 11.234126764584419 0 0 0
4730 2 37.63181780793497 7.262775208599621 18.673279260692333 0 0 0
132 2 8.418390285812862 12.031858510546527 10.925235920087466 0 0 0
133 1 10.43211710056668 2.416666895877153 4.365711577974475 0 0 0
134 2 10.872599900503728 1.6788066208840564 4.768209900784405 0 0 0
135 2 11.216723542526417 2.7833850338357182 3.928096772201563 0 0 0
136 1 12.716875999508911 4.432379646631794 11.158106195003741 0 0 0
137 2 13.514408952378313 4.939080085200368 10.99148234572701 0 0 0
138 2 12.35766115852907 4.694614317197434 12.024307278674806 0 0 0
139 1 12.690972204474727 9.872861294799495 4.621384453638381 0 0 0
140 2 13.524824489996297 10.261779101936153 4.318857110352805 0 0 0
141 2 12.946513960936581 8.981513973853287 5.020719650494342 0 0 0
142 1 15.48518761743066 11.550818990269857 10.933837903681315 0 0 0
143 2 16.340750837625617 11.920748206396542 10.618287072403408 0 0 0
144 2 15.767961621903515 10.864674165254769 11.504148403842096 0 0 0
145 1 6.717770415874243 1.9098972969701908 5.137455785027463 0 0 0
618 2 29.626161670416572 2.6660699609223695 8.228994712374845 0 0 0
147 2 6.432270970346245 2.723401969653372 5.464902165772697 0 0 0
148 1 8.961287227113043 3.609600427186526 12.03417577321915 0 0 0
149 2 9.436748873140136 3.771193908576227 11.132248746202897 0 0 0
3072 2 33.96183052856785 7.02996653738791 25.08063122087468 0 1 0
151 1 9.169650432407028 9.081676880854745 5.163990917935711 0 0 0
152 2 8.841975037750545 9.900058817669754 5.463177736742652 0 0 0
153 2 9.59601510701401 9.117561144450892 4.281605255892883 0 0 0
154 1 11.824924331945407 10.91916113013417 11.920038542258107 0 0 0
155 2 11.08177409645016 10.24643557170996 11.7514229587681 0 0 0
156 2 12.345386500340672 11.038946355625788 11.115567904961619 0 0 0
157 1 14.152788156139248 2.249252088611484 5.29320537155164 0 0 0
2139 2 26.045732543320444 4.252134704207519 15.454862112647428 0 0 0
159 2 14.143311213165598 2.467943158217695 4.380881284354867 0 0 0
160 1 16.66044249963764 3.7157192918580773 12.041254081591532 0 0 0
161 2 16.3726359801254 4.5757141473090925 12.401707029772073 0 0 0
1667 2 12.71270230372571 15.74660523416202 25.15568897094036 0 0 0
163 1 16.326110622183716 9.309384506055034 5.739314797794628 0 0 0
164 2 15.848348164860544 10.147206002071727 5.924287359501709 0 0 0
165 2 16.87077258216378 9.418556732866712 4.907993936828384 0 0 0
166 1 19.286386997913212 10.856329696359557 11.864549594135378 0 0 0
167 2 18.959671626235206 11.698650732471442 12.284434160684366 0 0 0
168 2 19.7082510427457 11.172365739934857 11.054096641480411 0 0 0
169 1 9.013450622709406 4.171440040822059 5.997443541791204 0 0 0
170 2 9.550693180207332 3.6846904964013025 5.37703266822679 0 0 0
171 2 8.264851942951099 4.540859042606446 5.434409221911685 0 0 0
172 1 10.85574897877059 5.99542669744139 12.988313662231302 0 0 0
173 2 11.316447074580887 6.678899299161557 13.52723794504472 0 0 0
206 2 16.488046349152153 2.641480519426318 3.23492598968959 0 0 0
175 1 10.97224227240552 11.449304601882728 6.309249668489755 0 0 0
176 2 11.715444887766195 11.097721034143413 5.791062584238625 0 0 0
177 2 11.321035231811873 12.183530462230324 6.876884055322323 0 0 0
178 1 13.902322757810834 13.216889418512132 12.670422887868844 0 0 0
179 2 13.132927401997748 13.468457711177 12.103493304811119 0 0 0
180 2 14.467306059180979 12.683599557927034 12.080295037254846 0 0 0
181 1 16.317371095200688 4.230320634109187 6.361798903438159 0 0 0
182 2 17.107036731820248 3.868373650384873 5.95649065532173 0 0 0
183 2 16.725028363993264 5.054192359701963 6.791783786035929 0 0 0
184 1 19.010044919832293 5.8620362022918115 13.281705411769927 0 0 0
187 1 18.65483609377978 11.32916262838737 6.260146016214985 0 0 0
188 2 18.29987854344038 10.791404784143724 6.965553883663061 0 0 0
189 2 19.112303741679163 12.066931623345733 6.720034776816941 0 0 0
190 1 21.518867853256875 13.212114562729699 12.859290092675236 0 0 0
192 2 20.765683188051284 13.50853587123676 12.291903366840968 0 0 0
193 1 8.243947573225775 2.3707515183029595 2.8065229401522123 0 0 0
194 2 7.603352348693216 2.287181825522592 3.553041781995893 0 0 0
195 2 9.20580384678651 2.3707753023194424 3.0842498888296563 0 0 0
196 1 10.603460917145142 4.005167750611433 9.65348064815469 0 0 0
197 2 10.712867695629052 3.319953567279844 8.955641174943606 0 0 0
198 2 11.466252487559615 3.9759704444602173 10.118301241482111 0 0 0
199 1 10.612509789100793 9.664219288126652 2.7902782800349413 0 0 0
200 2 10.768168632608482 8.955757498084253 2.1838997046044666 0 0 0
201 2 11.3283390930973 9.781027066943974 3.4364295085895216 0 0 0
202 1 13.21257577200653 11.413013212293366 9.476653110494663 0 0 0
203 2 14.150269631057204 11.355970352317266 9.682707816337786 0 0 0
204 2 13.084785610965195 10.569162630580106 8.869604850647297 0 0 0
205 1 15.640255350608953 2.7936987536825444 2.7426571340124033 0 0 0
207 2 15.593401398305488 2.100338298669439 2.0398997516225177 0 0 0
208 1 18.35878951058366 4.35970635265714 9.46608352067434 0 0 0
209 2 17.664041830910797 4.053841978852537 10.051355370979461 0 0 0
211 1 17.889100503024178 9.352069337443362 3.1782957179614377 0 0 0
212 2 17.88935036834007 8.82878351560679 2.3438100218369677 0 0 0
213 2 17.792838594663785 10.250716656737119 2.744725170747011 0 0 0
214 1 20.5574240702427 11.32245225558542 9.584647307522703 0 0 0
215 2 21.46250508183247 11.361278249250274 9.879999482571844 0 0 0
216 2 20.456000977289793 10.50335906255709 9.010523464040507 0 0 0
217 1 5.266174974065745 1.130208341362542 2.040809080718283 0 0 0
1698 2 22.996977296106433 6.997303634243531 25.925855232244743 0 0 0
219 2 5.484910408574404 1.3500246514322225 1.1306776125299227 0 0 0
220 1 8.012493472528657 2.9054697808396828 8.380697649457398 0 0 0
221 2 7.846594403572745 3.7331126652257005 8.916685247651465 0 0 0
222 2 8.418138928927826 3.248357147023396 7.579666939201499 0 0 0
223 1 8.27834230039632 8.22842252145004 1.6373943418990935 0 0 0
224 2 8.821607870233578 7.52234961228662 1.996674356532513 0 0 0
225 2 8.554694080858958 8.325227444223437 0.6770315704412306 0 0 0
226 1 10.309600679940587 9.932333724383232 8.534022741381833 0 0 0
227 2 10.994519279451067 9.339660710423127 8.880779775760063 0 0 0
228 2 10.718016574494284 10.41606793182683 7.796723571654976 0 0 0
229 1 13.231513977290652 1.1313592916062953 2.0386668811384574 0 0 0
681 2 23.776254732725 14.328697943054303 1.8812371692827565 0 0 0
231 2 13.185161611406214 2.05258231110951 2.3199834482216426 0 0 0
232 1 15.253034144671236 3.058641932455219 8.695410233581855 0 0 0
2918 2 38.93030047005865 18.135679761603523 15.709937999239711 0 0 0
234 2 15.669663477205454 3.3323416382824385 7.839621756982345 0 0 0
235 1 15.348306521482375 8.333277084044324 1.4035867372580235 0 0 0
236 2 15.61462005549985 8.731969529484394 0.5433755040573031 0 0 0
237 2 15.771717146950131 7.4811994929069225 1.4956826624567143 0 0 0
238 1 17.88505674967269 9.917870660847447 8.564422898699 0 0 0
239 2 18.529441633000854 9.290438398718514 8.97494551622129 0 0 0
240 2 17.943777570625215 10.73858425677353 9.120158338840447 0 0 0
241 1 7.5388764325748 4.212495196141521 1.0184801484740826 0 0 0
242 2 7.637389355562845 3.601383936196177 1.7672738510858437 0 0 0
243 2 6.731170660117239 4.688608297056364 1.2755147869802086 0 0 0
244 1 9.925772131161748 5.929436425139878 7.858252032601397 0 0 0
245 2 10.257543628178562 5.354422073855686 8.557569412692981 0 0 0
246 2 9.614945498009025 5.342738589376651 7.122277114922426 0 0 0
247 1 9.836565259805425 11.40336465215333 0.6481025474170561 0 0 0
248 2 9.351055295214682 12.152056108265738 1.0521495308790811 0 0 0
249 2 10.208865292338716 10.860064608927749 1.3638179740250165 0 0 0
250 1 12.163893051203608 13.40622838228682 7.808660142523124 0 0 0
251 2 12.621322385921637 12.675909744470092 8.272821661194055 0 0 0
252 2 12.897634132716465 13.82230826146642 7.334198573293102 0 0 0
253 1 14.81760889063467 4.576135570212891 0.9794160594880329 0 0 0
254 2 15.286722587006967 4.030945737980192 1.689160065077927 0 0 0
255 2 14.214805455112579 5.243728351081247 1.4044763717360549 0 0 0
256 1 17.171343774130698 6.207783586582655 7.7325639304519065 0 0 0
257 2 17.695301233801185 5.6990210868428335 8.391860578651302 0 0 0
258 2 16.547831361072813 6.730995972229438 8.254558521453411 0 0 0
259 1 17.522993015279052 11.425204867765823 0.9854385316175363 0 0 0
260 2 16.84070423834459 12.068149081363106 1.230728168991825 0 0 0
516 2 22.556766990421444 12.378219788501335 11.639363837984815 0 0 0
262 1 19.774264514570877 13.293432797900058 7.844254385054265 0 0 0
263 2 20.04599466732817 12.692723284107771 8.581046102881073 0 0 0
264 2 20.608236237346546 13.683973377655844 7.601967992391477 0 0 0
265 1 9.701517112013041 5.847975419563015 2.559982540583297 0 0 0
266 2 9.05816194303765 5.210476495925388 2.887226736225599 0 0 0
267 2 10.150369222872952 5.52507487757139 1.7487312031884596 0 0 0
268 1 12.052392999614245 7.786913159698097 9.591705034591493 0 0 0
269 2 12.65456882304821 7.208580379425937 9.113736992094909 0 0 0
270 2 11.236877209927489 7.255946539781778 9.902774646119035 0 0 0
271 1 11.866199362117435 12.731815359582466 2.319790985375707 0 0 0
272 2 12.598405611240171 12.914034874489612 3.0150652999095837 0 0 0
273 2 11.255140327420552 12.27238167597009 2.9610255321825876 0 0 0
274 1 14.409078255544026 14.795225093778011 9.662254835152865 0 0 0
275 2 14.066159331624664 15.707203223397467 9.757836925151226 0 0 0
276 2 15.25862390855283 14.756675779025908 10.087961296953193 0 0 0
277 1 17.092618344216593 6.177505605989181 2.8135552887160657 0 0 0
278 2 16.34858431657239 5.7207185804696845 3.253679787992673 0 0 0
280 1 19.367523318604558 7.753022743815151 9.555218857431727 0 0 0
282 2 20.07156364676138 8.013993741722265 10.140477265264343 0 0 0
283 1 19.430520103804295 12.97322929994925 3.0970015582204815 0 0 0
285 2 20.005616098204065 13.112133064716382 3.8281861454755624 0 0 0
286 1 21.884548474378317 14.78957529027276 9.262366209899122 0 0 0
287 2 22.618591132277775 15.004954495977751 9.913179093284246 0 0 0
288 2 21.55827753313534 15.688381152399122 9.01184567321565 0 0 0
289 1 5.970771611613431 6.580136718007049 1.667392755355779 0 0 0
290 2 5.659516392216839 6.872816949993762 2.557346037898621 0 0 0
291 2 6.798024842409135 7.088360207521442 1.5119766843377547 0 0 0
292 1 8.451112151711852 8.178495295307968 8.610885600674766 0 0 0
293 2 8.884785558078466 7.355884752514003 8.375567329649597 0 0 0
294 2 9.210849882033628 8.870315573104746 8.560882197394134 0 0 0
295 1 8.17131545720548 13.672953024081794 1.8716794585849643 0 0 0
296 2 7.674803840712125 13.591968606195453 2.7378777360651823 0 0 0
4682 2 35.83329131257641 5.08805584100743 15.01423599290315 0 0 0
298 1 10.856454264568168 15.920955359697775 8.810858045661146 0 0 0
299 2 11.183555439404618 15.022987053491965 8.54968027137232 0 0 0
2229 2 35.22437914953417 17.91395184122111 15.397550877688069 0 0 0
301 1 13.106927271194595 6.745572372492749 1.955563991288013 0 0 0
302 2 12.699567318716392 6.731235374214451 2.8936012680813943 0 0 0
303 2 13.69085432641894 7.520085840607331 1.7764763469927398 0 0 0
304 1 15.75649876417627 8.279064828304314 8.778830792946092 0 0 0
305 2 15.293738268186283 8.049469451731 9.656081783120586 0 0 0
306 2 16.50036810897139 8.949205042121658 8.69144246276035 0 0 0
307 1 15.589499339646189 13.41282866385258 1.743849506149039 0 0 0
1618 1 11.101456229760934 13.011981237080429 20.958923891914733 0 0 0
2733 2 36.04840582833883 5.427086112337591 19.48788844260942 0 1 0
310 1 18.345306360623496 15.566499546056601 8.642305867923856 0 0 0
311 2 18.758438882616414 14.763072927860451 8.165849324012825 0 0 0
2127 2 36.72989237039345 6.3008272397417695 16.97653098597341 0 0 0
313 1 3.5572296749659267 4.637659392816531 0.5639713807064309 0 0 0
314 2 3.168099615215262 3.744870758446333 0.24543297789073934 0 0 0
315 2 4.1762001199256185 4.469949031817292 1.2964138745546332 0 0 0
316 1 6.091355068702177 6.3325778577640595 7.655893559080525 0 0 0
317 2 6.388636523605703 6.872535148359113 6.919601129838816 0 0 0
318 2 5.483211689890377 6.907109854481545 8.140782656548444 0 0 0
319 1 6.075264165881723 11.808554066502781 0.6686546519416202 0 0 0
320 2 5.8150118890827605 10.99684681093215 0.18172505606047368 0 0 0
321 2 6.783302205827637 11.439773409173005 1.2681459670210682 0 0 0
322 1 8.67376754830565 13.222219304547467 7.702990224894892 0 0 0
323 2 7.904238050525934 13.689316576783657 8.119490332304629 0 0 0
324 2 8.11575265467238 12.496174033197914 7.163564476618831 0 0 0
325 1 11.316880751544657 4.2510488687413925 0.7163483721253172 0 0 0
2526 2 19.022427488848635 19.857820005191297 22.37532417104497 0 0 0
328 1 13.73763313153235 6.3138941507523825 7.7939088588022125 0 0 0
329 2 13.222745643513086 5.556147472965657 7.43423490328973 0 0 0
330 2 14.426598110140509 6.01086570222337 8.42282082570326 0 0 0
331 1 13.754473224418309 11.295146812818318 0.7346189482401453 0 0 0
332 2 13.027081867799295 11.747993141951405 1.2306102726459482 0 0 0
333 2 14.393907597063514 11.14262668711191 1.4639077326013583 0 0 0
334 1 15.935221239903306 13.35143710156999 7.853833937862816 0 0 0
335 2 16.235749288857193 13.896819245403407 7.103294161938463 0 0 0
336 2 15.2959154033828 13.809233551935343 8.397491623794 0 0 0
337 1 4.2587708334141325 6.785378021235259 3.955409220533029 0 0 0
338 2 4.723970166888677 6.0775079820159394 4.431299928126817 0 0 0
279 2 17.424138791990604 5.610273952642251 2.1289124766418612 0 0 0
340 1 6.732793020199388 7.948255462472892 10.790647042275083 0 0 0
3735 2 2.393926045471782 5.450267649527785 1.812450197476199 1 0 0
342 2 7.30564356420139 8.16008246498846 9.990026432517606 0 0 0
343 1 6.669900942261713 13.391612017020243 4.160430802679776 0 0 0
1568 2 19.67046730513305 19.139968112421492 20.337610537379266 0 0 0
185 2 19.4152000752152 6.746980747602352 13.539630853356007 0 0 0
346 1 9.224782874349641 15.09524181172128 10.710208123877297 0 0 0
347 2 10.002246959522102 15.367303182574434 10.116616652635868 0 0 0
348 2 9.548354000168448 14.3322074677287 11.190093898529947 0 0 0
349 1 11.72194216896114 6.600997621515786 4.085779468126771 0 0 0
350 2 11.473472667614683 7.144932344742884 4.900193966451263 0 0 0
351 2 10.923350606983295 6.306121607103108 3.553737043716736 0 0 0
352 1 14.21916486173348 8.046402597492584 11.114965902066066 0 0 0
353 2 14.638418254745089 7.201707603833178 11.350704971609899 0 0 0
354 2 13.351588588304814 8.031269685359225 10.686686480279377 0 0 0
355 1 13.93030144887725 13.292088898731535 4.207202185825066 0 0 0
356 2 14.164509398629262 12.685968052665336 4.928659097536107 0 0 0
357 2 14.700520909089986 13.237889703610323 3.550783293132306 0 0 0
358 1 16.948989066869725 15.01260769236925 11.053850132728932 0 0 0
359 2 17.253256033214072 15.679675850907199 11.67657498110965 0 0 0
360 2 17.502363699185015 15.113520309995332 10.20085967503825 0 0 0
361 1 6.8677584574104875 7.698649511056313 5.171637459548621 0 0 0
362 2 6.2385869951555994 8.441397505398088 4.969797676301102 0 0 0
363 2 7.732104765161707 8.079415883122328 5.25110559516418 0 0 0
364 1 9.59028859216137 9.212641950645876 11.812569083481279 0 0 0
365 2 8.852369582781344 9.831723662282787 11.636242795639603 0 0 0
366 2 9.364624939246626 8.800010841363118 12.679432379844194 0 0 0
367 1 9.384063264423414 14.492976247401698 5.488965250322705 0 0 0
158 2 15.114885597566081 2.028024532311727 5.4901366928968764 0 0 0
369 2 9.04940124720351 14.09147548202803 6.330798675910703 0 0 0
370 1 12.179722269854159 16.618727121771705 12.06149991275843 0 0 0
344 2 6.38706933992022 14.049566196431703 4.799223469469501 0 0 0
372 2 12.045977326397148 15.818899797159425 11.571731524930344 0 0 0
373 1 14.35886114523514 7.530357984407438 5.338494161897966 0 0 0
374 2 15.14999485322857 8.18003293788945 5.486446284739565 0 0 0
375 2 14.262933203410736 7.1113852899211984 6.249648983238135 0 0 0
376 1 17.11235589703544 9.349873693119253 12.15837554878162 0 0 0
377 2 18.019411173290063 9.710450200857485 12.085684264960719 0 0 0
378 2 17.100177963067487 8.407752819785271 11.771013349724722 0 0 0
379 1 16.89254774946452 14.630964398950288 5.646399300952009 0 0 0
381 2 17.02146671176864 13.751869581602733 5.188722242437773 0 0 0
382 1 19.58432873837968 16.71035561077297 11.69771683798994 0 0 0
34 1 16.84586884949454 16.872554457104513 13.098609369951923 0 0 0
384 2 19.4249446083773 16.498219942767854 12.60843826264348 0 0 0
1880 2 11.831511842601836 17.498945169172845 18.541464877486337 0 0 0
2205 2 40.56591780718324 16.60514792645652 17.034587180391412 0 0 0
210 2 19.1794974412475 4.413962949292527 10.01905620919454 0 0 0
284 2 19.85134293189049 12.451269639589988 2.3481167633606996 0 0 0
1611 2 6.506718757217416 4.963572106924248 13.45922523586893 0 0 0
1722 2 13.510467672807371 1.9324151433862042 0.34425066854556435 0 0 1
74 2 11.709601604000065 8.444301897110295 27.3050958333969 0 0 -1
3200 2 34.598976164263355 9.885568283750949 4.154856796950088 0 0 0
468 2 20.140056912317757 9.17982498129845 7.167805288005777 0 0 0
512 2 19.76371256157072 10.522946460099863 5.139304892594432 0 0 0
131 2 7.109002230192377 11.352140395391993 10.460129091046962 0 0 0
174 2 10.658574870302308 5.329133407593513 13.705946346479351 0 0 0
261 2 17.125492622761172 10.818461839082197 0.30023196630498517 0 0 0
186 2 19.01012980509042 5.324763643285975 14.114336885333872 0 0 0
92 2 20.896865920304283 14.224853284473383 27.30405936352219 0 0 -1
722 2 18.4475542768387 6.5490506942028475 3.9361862129565526 0 0 0
1617 2 9.29874827487973 11.916290925825335 13.685840606047403 0 0 0
86 2 19.28553564505997 8.431867145054596 27.106909966137124 0 0 -1
1857 2 11.662882007531051 15.450749100314564 13.80964373854413 0 0 0
1537 1 12.63044211738335 8.809034917934154 17.587454485561803 0 0 0
1538 2 12.97120438359953 8.42832773359865 18.348594396100637 0 0 0
1539 2 11.843411584903787 8.247418682706424 17.275491451375448 0 0 0
1540 1 15.129903853890807 10.42481240930654 24.253553341723936 0 0 0
1541 2 15.00715458647717 11.344147677935418 24.70518736950557 0 0 0
1542 2 14.211593472793178 10.250639427719927 23.92510236751181 0 0 0
1543 1 15.006514745805138 15.970610500526611 17.42545505321177 0 0 0
1544 2 15.256795888671897 15.709470640644332 18.32525885676213 0 0 0
1545 2 14.453999930812765 16.672191667411738 17.680396422265858 0 0 0
1546 1 17.685019394130897 17.640222152149782 24.36679666297579 0 0 0
1547 2 17.57504974585193 18.577588038501826 24.514889755693723 0 0 0
1548 2 18.19121533923018 17.336238741538477 25.17140941591687 0 0 0
1549 1 19.837557294506354 9.06075998947947 17.544479203490912 0 0 0
1550 2 20.653580753135262 9.235048558564943 16.906130202679684 0 0 0
1551 2 19.844884059905258 9.926855539068962 17.998768631423346 0 0 0
1552 1 22.590219250131593 10.508475349557427 24.45866746135797 0 0 0
1553 2 21.939329463521748 9.834108075099449 24.024804946892502 0 0 0
1554 2 23.065560681522022 10.142264174656333 25.25693420369334 0 0 0
1555 1 22.419810346714684 15.724918956220867 18.07083175253123 0 0 0
1556 2 22.230212119867222 16.690501355531925 18.15524525905259 0 0 0
1557 2 23.171836277307065 15.628130461943137 17.44705970810198 0 0 0
1558 1 24.901165882303854 17.707175448215207 24.436014103298938 0 0 0
1559 2 25.74162759425793 17.763530990151242 23.94972678188776 0 0 0
1560 2 24.735150810207884 18.615683179595393 24.778865850674908 0 0 0
1561 1 16.40707499114963 11.773733182336866 19.76828298947581 0 0 0
1562 2 16.86729635373591 11.05486722350592 19.240411625656545 0 0 0
1563 2 15.76659582060594 12.178079387293993 19.107622866244434 0 0 0
1564 1 19.099885025166056 13.328056446708256 26.564168474803168 0 0 0
1565 2 19.385514822248357 12.69592280518256 25.85435526928481 0 0 0
2199 2 37.911521616874445 9.914111931879058 17.15105927472103 0 0 0
1567 1 19.1340950681377 18.465364956624892 19.92367364562137 0 0 0
1570 1 21.842445856164385 20.528554416690202 26.479780320443787 0 0 0
1573 1 24.03234843032714 11.737962856622266 19.95720044939662 0 0 0
1574 2 23.172867937232116 12.23256506422083 19.76338430219857 0 0 0
1575 2 23.682788404173927 10.845806718735577 20.214647293047225 0 0 0
1576 1 26.503792700093094 13.45153615925713 26.81074657581347 0 0 0
1578 2 25.851242359326896 14.003122992441444 26.304841284363693 0 0 0
1579 1 26.63982117576617 18.95309107930772 20.069185155026158 0 0 0
1582 1 29.122264304207867 20.593361542333902 26.913654059041942 0 0 0
1814 2 22.696666535639665 9.317634891089133 15.342219936384208 0 0 0
1585 1 10.504314225517746 7.392773965795961 16.56863682775478 0 0 0
1586 2 10.627816089161268 6.53065849136423 16.170247720721765 0 0 0
1587 2 9.984808972678278 7.964607902741697 15.99100065983222 0 0 0
1588 1 12.914114046334964 9.429369308695094 23.237392815267405 0 0 0
1589 2 12.521805763957321 9.881273989591989 22.508615849855964 0 0 0
1590 2 13.089706709017369 8.437932897407673 22.92843757260755 0 0 0
1591 1 12.785212043078845 14.386489177547361 16.44575621537676 0 0 0
1592 2 12.058894560064996 14.115516247329696 17.024320419789635 0 0 0
1593 2 13.52986100709336 14.915506731383907 16.837481607959 0 0 0
1594 1 15.540502985534372 16.18620520549714 23.246034082967853 0 0 0
1595 2 14.900656631725285 16.140480058347386 23.960885431682893 0 0 0
1596 2 16.243384631474083 16.785042580519953 23.544202396500513 0 0 0
1597 1 17.61347319266108 7.53937892634986 16.509988082119907 0 0 0
1598 2 18.39108481740613 8.032544824194932 16.791076357295807 0 0 0
1599 2 17.158405336611235 7.921495416827025 15.711773782856064 0 0 0
1600 1 20.50084187179328 9.05490100937078 23.05816847036495 0 0 0
1601 2 20.611737857268956 8.156939993940714 22.716110120423775 0 0 0
1602 2 19.71191472568184 9.03881659242773 23.663401782891395 0 0 0
1603 1 20.25162125663738 14.171190456668764 16.54291459107437 0 0 0
1604 2 20.85453691847533 14.621955631381818 17.09238074252165 0 0 0
1605 2 20.055891609330235 14.746670063931672 15.788909240269588 0 0 0