LAMMPS data file via write_data, version 8 Apr 2021, timestep = 0

6144 atoms
2 atom types

-2.682412570219281 62.65070170140321 xlo xhi
0 28.136188198924046 ylo yhi
0 27.19850480761352 zlo zhi
10.1689293544811 10.189388604893466 7.125540443652085 xy xz yz

Masses

1 16
2 2

Atoms # atomic

1595 2 13.36367104355773 15.488998742004568 25.385042351378896 0 0 0
940 1 15.753393869052903 19.913077813460276 23.000928624242764 0 0 0
1711 1 9.293910149224176 12.924558473519584 14.48996035413044 0 0 0
987 2 13.970037104388414 6.27618887470228 22.84813251572156 0 0 0
225 2 15.244714006016135 28.93579330304321 5.796013986819333 0 -1 0
4501 1 7.170320712752263 16.123094212039057 4.5432969659461735 1 0 0
25 1 9.573067005309058 11.27030002540414 2.039185716208299 0 0 -1
1625 2 15.490587022348926 10.575064648206409 17.476277482130588 0 0 0
5273 2 9.602770938369547 6.582039542490662 21.67223816333171 1 0 0
948 2 10.629266490022653 10.906610871014136 20.61227365818977 0 0 0
1633 1 11.614626798985226 13.50202310718341 11.39243746431449 0 0 0
849 2 21.369861240083303 17.18777582930603 11.95670114637627 0 0 -1
2443 1 14.350152702032268 13.071603936754094 17.02206591631436 0 1 0
358 1 16.639064773420955 15.153488801813852 20.76824584472557 0 0 0
5274 2 10.228478776304025 5.532408413908516 20.594333687129776 1 0 0
1895 2 14.387644401395022 17.01589621257048 10.979231739507007 0 0 1
1670 2 7.21496455698391 3.021826720960918 3.9954070895530913 0 0 0
1634 2 11.636649765859904 14.124875838148624 12.105296547666773 0 0 0
895 1 14.58760175742438 27.58165920742933 22.073080032443247 0 0 -1
1894 1 15.261490682309887 16.624100827570135 11.058216744027586 0 0 1
1740 2 19.95036147869667 18.327331082591595 23.163357648218703 0 0 0
1916 2 14.674990959817027 26.091267649824058 15.158149422882952 0 0 0
611 2 10.201884326944052 13.161994611007033 17.24904752778969 0 1 0
1709 2 12.740121883259134 5.495695672079137 20.055397662287607 0 0 0
487 1 18.46976825652738 18.778130159514404 20.355011773056496 0 0 -1
2597 2 11.298576442446025 17.585358015575682 18.069365873655126 0 0 0
1587 2 13.933101841027042 8.087651831627186 11.49221006759007 0 0 0
1586 2 15.25871398506115 8.83077197644853 11.776753940052654 0 0 0
226 1 12.604958443027744 27.55184270397436 2.653487342828385 0 0 0
2564 2 10.479721581760336 10.41966251879164 8.465205794082667 0 1 0
946 1 10.308874566372877 11.248141115254041 21.493741400859502 0 0 0
2598 2 10.189848779652362 16.723989515847283 18.529369675702238 0 0 0
610 1 11.004911412681153 13.725545379836541 17.169800072531064 0 1 0
1275 2 2.4205042495640985 3.843784821370141 4.199915528141183 0 0 0
217 1 9.573435066267688 22.295250597078102 5.4816099929630875 0 -1 0
1701 2 10.233226666312 14.5941885769781 25.574533292335154 0 0 0
1708 1 11.944803264240184 5.786203547421708 19.560043420640614 0 0 0
27 2 10.527412303844153 11.126407092882113 2.3011006734335626 0 0 -1
907 1 21.22158086013094 22.563264958475212 19.129008700256733 0 0 -1
99 2 22.089221031591517 30.0142975327186 7.797097850743766 0 -1 0
2412 2 9.27985933979767 24.936213290885416 2.980989715153104 0 0 1
558 2 18.599808604068286 18.613129378314223 18.78097721062254 0 0 0
174 2 16.57296436769621 5.342164624037971 16.060980451997416 0 0 -1
785 2 16.661372378958852 29.250381303027098 16.11574769361963 0 0 0
924 2 16.154614798483248 12.179653814109349 14.216548214771606 0 0 0
129 2 3.0350793668221723 7.748671275380297 9.393450855140943 0 1 0
224 2 16.50242578850607 29.320061845502547 4.828752413676897 0 -1 0
1879 1 7.790168930377309 9.74368761710189 18.668701404588816 0 0 0
1710 2 12.150878577278407 6.724459490519152 19.283211478526727 0 0 0
1742 2 11.297133044191686 12.013565539237828 22.847717135832095 0 0 0
3002 2 3.987730345972598 4.501033590665074 11.736805782003717 0 1 0
1773 2 9.632600140980436 21.783895280904222 1.843563183672924 0 0 0
2643 2 4.962423847861013 5.618617555639447 6.293545659342204 0 0 1
382 1 10.553807675685041 23.58238296368286 15.890325413210963 0 0 0
2314 1 18.976790009826633 18.656836488772363 13.409024389999397 0 0 1
3504 2 9.849094581843183 15.38194155319494 10.38322135525229 1 0 0
5967 2 9.051449127394273 13.17111181273742 19.77309016497787 1 0 0
1635 2 12.520954311760734 13.363736754711702 11.068355629883763 0 0 0
55 1 15.79886025026012 30.02197858823723 13.395459625743342 0 -1 0
56 2 15.153558111850646 29.485421598163366 13.939532809659276 0 -1 0
354 2 6.911817774375972 9.611590011107085 11.067594926864416 0 0 0
1251 2 22.028752495014984 23.088529754962497 2.800909485676145 0 0 0
1699 1 10.367793154693386 14.533775865705547 24.59242684466447 0 0 0
783 2 2.090695274457956 7.185673035657647 7.373236537637692 0 1 0
1590 2 16.589149627437838 31.84343861203132 25.411534503083594 0 -1 0
1422 2 25.02186675251632 25.875325803929723 10.746748687068575 0 0 0
221 2 10.711212069885704 29.463825996220983 5.476637783804023 0 -1 0
894 2 11.861510495034954 13.553489586694852 15.863539703904642 0 0 0
2452 1 4.330240876591242 11.884844300161497 6.280080709109213 0 0 1
1274 2 3.029804585128236 2.8870722114263 5.230252086533202 0 0 0
2321 2 15.363072371035376 14.13008754277725 20.73048398657484 0 0 0
1669 1 7.323262638515715 2.059142978424585 3.940112943913384 0 0 0
1129 1 11.369117806232476 16.555387397321606 23.057359515748608 0 0 -1
1671 2 7.0677337174320805 1.9064289755198234 3.011061129763134 0 0 0
989 2 18.04926886310303 31.189223514127544 21.053774685608353 0 0 0
1001 2 7.8079323083147205 11.926510250736063 5.289214854192606 0 0 0
846 2 3.40917368994264 10.066914388131355 0.6960866146464805 0 0 0
1059 2 9.9941341259094 7.346520473705089 26.381613413217664 0 1 -1
1739 2 19.469857541941234 19.739980620054784 23.547571625726405 0 0 0
2337 2 20.861863176418534 32.537899429872745 23.605910827810394 0 0 0
2471 2 18.485616299796902 9.986708213832213 22.532820922092633 0 1 0
4480 1 7.632245709880843 15.787680058462993 1.0126768481842927 1 0 0
197 2 5.192966885528519 5.333320564329357 17.292897780319606 0 0 0
833 2 16.39381964820179 23.061854841618665 23.823703050879796 0 0 -1
54 2 11.243868756969057 22.750121198111454 12.771882377052547 0 -1 0
2410 1 8.941349890394273 25.682781263128366 2.3648607011054 0 0 1
223 1 16.112458079563552 28.65093430746939 5.482243463176581 0 -1 0
1917 2 15.38824229000154 24.882401837223576 14.627457166863712 0 0 0
5798 2 12.67282726460374 25.639643882896088 20.74982695526646 1 0 0
2407 1 9.860332587524965 16.765803249844126 3.0573908347295804 0 0 0
5950 1 17.727604531068703 31.242695544190894 24.24972699192044 1 0 0
986 2 22.97264870965868 33.35569520289921 22.939222352249597 0 -1 0
1677 2 12.051670310012645 15.359458967149076 19.553403096251646 0 0 0
1703 2 13.15287524921419 11.365111153557807 19.088998684399716 0 0 0
1374 2 11.613787792171639 17.347821583656177 3.5609266866442937 0 0 0
4482 2 8.30221793174085 15.142414895105004 1.3302552637703806 1 0 0
2594 2 11.492704029100487 7.146136946047774 11.076308419163928 0 1 0
1610 2 5.508936747538863 11.063838445958492 4.911016501134366 0 -1 0
922 1 16.789502134361083 11.453671488526208 13.878488400324596 0 0 0
2409 2 9.585867827009285 17.61184067578881 3.376390673967405 0 0 0
845 2 4.456885654291339 11.094671884917839 1.1157053585771521 0 0 0
2562 2 16.25978500879076 32.16313053566029 20.825068095092373 0 0 0
908 2 21.205112968797465 21.72083198317918 18.636482991150345 0 0 -1
893 2 12.00395085439415 14.398405648738786 14.601110897913983 0 0 0
28 1 22.29767218781486 24.884489438488135 18.544716936415067 0 0 0
5206 1 8.910355663577832 9.235498473669947 23.074660635362264 1 0 0
722 2 25.575148586537782 28.851063059344057 9.77922138780374 0 -1 0
300 2 11.205740544977694 16.83977290979127 9.103357888245021 0 0 0
1585 1 14.708577278703437 8.132597247517507 12.150995496818474 0 0 0
154 1 1.307947684605197 2.6283639685573235 8.784977162254823 0 0 0
1513 1 18.765770050040498 13.381224021704448 3.2958683875649113 0 0 0
2441 2 14.365971548186682 19.650198109632054 14.877334500272184 0 0 1
847 1 20.489992988371533 17.096104420010587 11.505012531085528 0 0 -1
840 2 30.53453631908845 32.054238957204475 21.886590844140944 0 0 0
1188 2 20.421719304892363 6.335865057853318 21.826740732689867 0 1 0
1738 1 19.938844306555605 18.93993059600195 23.90646331036779 0 0 0
784 1 16.187388455298713 28.501384838130647 16.549510458377025 0 0 0
30 2 22.043644096756445 24.076989017780424 19.018622181569157 0 0 0
105 2 9.061259975285122 9.996411453252984 12.184109214946025 0 0 0
1713 2 10.195527423000255 12.871841445378294 14.216742493706393 0 0 0
1110 2 7.6599799438686205 6.510934657831452 23.580085355331537 0 0 0
2440 1 15.291028934964562 19.46306668853917 14.556951556681065 0 0 1
98 2 21.76175406478345 29.835198032424817 9.204189370506471 0 -1 0
2408 2 10.244472849832633 16.993101237492517 2.204161992167058 0 0 0
2073 2 9.128470348951312 24.315675070969625 1.2275300167533778 0 0 1
3043 1 23.97811210469751 26.59767424911135 4.386305551524608 0 0 1
1012 1 1.2571113530206999 5.5509748930489735 0.8735792765255803 0 0 1
2355 2 9.623192782742029 4.773087484813692 14.777201526312954 0 1 0
830 2 9.532159070806136 23.92559410352646 7.947787299301858 0 0 0
5968 1 18.757043891339954 20.972620925744355 22.049677589510196 1 0 0
3501 2 4.867038952142999 8.564003563313502 8.246971035535337 1 0 0
299 2 12.093134872225086 18.05789437085655 8.784748653957502 0 0 0
626 2 6.903050557654204 7.426743489587093 5.643955190331656 0 0 0
1688 2 5.776884279405543 6.841297747033323 13.986245132995975 0 0 0
332 2 24.045599316703573 30.32707035155527 14.944123715932378 0 0 0
2311 1 9.392093589329598 8.888839889566604 5.503301009688569 0 1 0
1515 2 17.73868166399179 13.292173185969938 3.3210644953230672 0 0 0
1896 2 15.65961119409894 16.648998504018007 10.181059490481038 0 0 1
353 2 5.910745698912059 8.831470165274851 10.104103527830867 0 0 0
5970 2 19.525258522175786 21.596915330033415 21.8522315769968 1 0 0
588 2 6.599970150042758 5.037352557917684 12.904514461044746 0 0 0
909 2 21.123732856566132 22.345659181319455 20.074629233618843 0 0 -1
2668 1 22.566729103081816 26.948001171427695 13.523080241914808 0 0 0
2354 2 19.207173901757812 31.55850610212254 15.213936019933236 0 0 0
2560 1 15.319350518896155 32.151740335047904 20.501476303192458 0 0 0
5038 1 5.568503430846217 12.609210829166255 2.2735781301888625 1 0 1
1273 1 3.235146501495148 3.3768636673598427 4.4312390210473085 0 0 0
1132 1 12.456201554315601 26.065930201295767 9.487048464770352 0 0 0
1088 2 24.11309882462727 29.073793951914315 21.05286505457551 0 0 -1
1235 2 7.060503436074239 10.051400402328849 20.16457903098477 0 1 0
5976 2 14.660535958173927 23.335361935269074 20.980134010434536 1 0 0
1078 1 13.695118336764033 29.0652289293436 15.192002682911715 0 0 0
1899 2 8.417627991781583 19.180381985152756 11.632865801232569 0 0 0
961 1 27.437733713272568 23.397324016077267 26.779475089196577 0 0 -1
885 2 27.40769984644456 29.683705491321934 18.708773111009645 0 0 -1
489 2 18.65277271742403 19.58358607942343 20.859060698396767 0 0 -1
2316 2 19.530893337383667 18.203952266201018 12.78586515486336 0 0 1
1107 2 20.543102537616647 29.25425588146351 25.367404749400432 0 0 -1
818 2 21.070768791981905 26.064138813020364 19.13064183373683 0 0 -1
775 1 6.404425263617842 15.734394411433762 7.616312815855164 0 0 0
2404 1 19.398519809040618 24.49056112309954 15.746953967331073 0 0 0
234 2 14.568753388739598 20.98046972850411 18.349220302449957 0 -1 0
2402 2 6.204169902742668 22.41777125059071 1.1429871081023237 0 0 1
227 2 12.087794760070874 28.36742084404965 2.8354113749099845 0 0 0
43 1 4.33829563719856 18.570163260543158 0.284706929681449 0 0 0
155 2 0.9939235393672803 3.384095746528622 8.286382238367379 0 0 0
1877 2 21.417123611847945 30.07799731132881 20.813011435928555 0 -1 0
2669 2 22.54333949801127 27.715212995819456 12.877535381373459 0 0 0
415 1 18.861454679953845 13.806558090342062 20.031759888185718 0 0 0
1622 2 6.2041723358401715 4.765822223873823 0.7506010560155557 0 0 0
156 2 2.254180225760215 2.839386445160499 8.959777113438378 0 0 0
2283 2 10.338483598237527 15.824436509740448 12.680210244858294 0 -1 0
875 2 1.449172833913324 2.455872144779094 2.127228406525931 0 1 0
97 1 21.936202646507706 29.285754635564057 8.433435359378707 0 -1 0
3496 1 13.445232206384034 26.700910401296152 16.681883239414724 1 -1 0
2456 2 15.820359011759756 26.264592743248112 26.254945430549263 0 0 0
267 2 6.605679942615874 13.186563897932631 13.689592333337847 0 0 -1
2642 2 4.5540781557699415 4.653053458644476 5.151260249594614 0 0 1
963 2 27.32637980115105 24.32466875566649 27.154591495345226 0 0 -1
2379 2 4.743409923003415 15.725716996618814 2.554426238048257 0 0 0
2353 1 20.016175565319127 32.03888345386388 15.185720283396094 0 0 0
233 2 14.730792335408442 19.70810601650177 19.218839821775784 0 -1 0
417 2 19.5769613446106 14.3975840598613 19.704337359351474 0 0 0
985 1 23.98008835637843 33.48039643349344 23.093546272611785 0 -1 0
1884 2 16.688126465887844 16.4301315739027 14.860181620324619 0 0 0
5037 2 14.80761349334254 25.77637335888054 17.611744774648855 1 0 0
298 1 11.473691461791688 17.712977367688925 9.417974965059443 0 0 0
702 2 20.942512028822104 9.942888016323916 27.02583085377898 0 1 -1
2169 2 17.96961940151215 8.711456964716504 13.940735846686271 0 0 0
612 2 10.681191928974519 14.595369534158248 17.43186858933253 0 1 0
1881 2 7.252031913278781 9.715169851697379 17.851737115741273 0 0 0
2414 2 9.469567105772224 15.485490279686447 14.825084507517762 0 0 1
883 1 27.897535165693096 29.723588412091388 17.902685646982743 0 0 -1
2442 2 15.767739654781508 18.926726752341818 15.26766192612928 0 0 1
1915 1 15.504527813503028 25.838099467610668 14.703936868463847 0 0 0
2451 2 16.566149172401012 22.92445629391128 20.49628950161285 0 0 0
2315 2 18.090847534002176 18.37074125810619 13.16562524103304 0 0 1
83 2 13.471348439960938 21.440825752936945 20.251296779634217 0 0 -1
218 2 9.028356720259788 23.06084101158492 5.649714677727134 0 -1 0
923 2 16.94785604837644 10.97835159480979 14.73363832767391 0 0 0
4430 2 3.413897135078196 12.093910274879807 4.29939744177395 1 0 0
872 2 10.955606785530083 19.69459360605608 18.061352376048653 0 0 0
1754 2 23.675508888470333 21.93758980933266 12.427072246086803 0 -1 0
897 2 15.526488676133521 27.71923733465577 21.755774912613674 0 0 -1
1616 2 22.862210151665337 21.08047510426467 14.545626964758085 0 -1 0
1050 2 13.363355159216436 17.187408145274183 4.899581026097654 0 0 0
1081 1 21.606648850914272 11.392141115114345 24.484641771726277 0 0 -1
1594 1 13.81933403512377 14.720285211179451 25.847973864275744 0 0 0
2445 2 14.78513363246579 12.964736846147057 16.17685213481516 0 1 0
2596 1 11.124056270609525 16.66073873186115 18.266886399448918 0 0 0
1150 1 20.193568654826073 22.481647292152996 24.994282823021276 0 0 0
934 1 20.274876640323544 22.95083533192755 6.971462270930721 0 0 0
313 1 14.880723728807805 13.48596574236272 14.294027921925357 0 0 -1
793 1 26.249479494578654 16.698756967997603 25.774593016203756 0 0 -1
916 1 8.440841438922789 7.7281375225097815 27.08638376990409 0 1 -1
2613 2 18.694186249819786 22.07609724618746 13.414977954132349 0 0 1
1133 2 11.742966053069749 25.660545734252267 10.08096236299366 0 0 0
1762 1 15.605613804933615 16.33998808140268 18.373003089664657 0 0 0
2556 2 23.271860846337955 21.78881264173877 24.437751497093398 0 0 0
2548 1 18.996799934778785 7.477641629661301 19.58706112845777 0 1 0
5179 1 8.550778188851648 12.315232754436375 18.567688066927754 1 0 0
1662 2 6.22030318078221 9.071054112368815 4.142169987696607 0 -1 1
1636 1 9.582516357536008 7.761410289400345 18.733468273606995 0 0 0
1736 2 16.543751958592235 9.836898927741748 5.349452295492374 0 0 0
376 1 12.337762506082552 19.557503179809675 14.9221611807657 0 -1 0
2363 2 12.185544950576157 24.82570717323812 18.726641362404955 0 0 0
372 2 19.16365521577979 12.21258010660128 26.6787083520559 0 0 0
333 2 24.397657273188287 28.93649233079294 14.40664646993693 0 0 0
2555 2 23.288182676732916 23.279050046426924 24.894757066581278 0 0 0
374 2 15.226159575459437 14.989279674846607 26.797762353919154 0 0 -1
1801 1 13.467545111660058 15.758772235805084 17.016116345447283 0 -1 0
442 1 7.6777560383377725 6.618165648145734 10.539599820121586 0 0 0
2601 2 20.08235044556232 18.663157478182693 10.270505330606706 0 0 0
2600 2 18.715769709792966 19.294713454853646 9.93603995408007 0 0 0
188 2 10.523772499562368 24.426087000571236 11.400555356367862 0 0 0
2444 2 13.811115551359638 13.854329922618554 16.959615691786116 0 1 0
1859 2 14.830099636176229 12.306143762079174 23.63303628872422 0 0 0
1043 2 3.631790614571303 8.201430146505833 11.481482053692151 0 1 0
1497 2 27.286323081432815 30.4033503384513 10.315387532161063 0 0 -1
5181 2 7.963610546441119 12.618240464721111 17.8556100515822 1 0 0
1914 2 15.112906218565008 9.603858972626401 24.377481168950027 0 1 0
3498 2 13.158222499459988 27.078792327235682 17.492311706564976 1 -1 0
269 2 13.370041205684888 16.346061126186008 15.241146483008446 0 -1 -1
1606 1 14.781787907776526 24.700906804212018 5.212492183599663 0 -1 0
5797 1 13.235463039877077 26.0225075126835 20.045568707158132 1 0 0
1089 2 24.00810474199482 29.35857824289614 22.626734715612226 0 0 -1
2468 2 8.271705270220028 14.159825562972921 11.71331223386188 0 0 1
1369 1 22.527683600783245 18.279907113634735 25.74370297876143 0 1 -1
1897 1 7.971822174172052 19.252527368735755 12.456061104819298 0 0 0
2584 1 15.15649246473966 15.816494953360134 23.09861168053022 0 1 0
2629 1 17.451993138160418 30.985931264668864 15.137683376857298 0 -1 0
1103 2 12.90944768284262 10.837280563209836 26.34465219229562 0 1 -1
2604 2 19.717242070006794 13.137692984978806 23.852240924885677 0 1 0
5223 2 8.155418672997678 6.479843459647363 14.371054067591434 1 0 0
1134 2 13.368091433744734 25.84624358984921 9.728043607605105 0 0 0
2644 1 17.204494234953163 13.20980831141474 17.97958973386372 0 0 0
1700 2 10.881819648558725 13.7388005175334 24.394616173117033 0 0 0
1123 1 10.137147559286007 6.182206440733333 11.767063632920358 0 1 0
1735 1 16.884081550173295 9.021228611926142 5.670541014077078 0 0 0
2646 2 16.309960711075515 13.40602618219371 17.773223059170732 0 0 0
536 2 13.018377885576468 22.465214328565484 14.42421084323492 0 -1 0
169 1 1.2257986862783707 4.830888970328369 3.3401050282294467 0 0 0
2603 2 20.137543875642542 12.868743065966209 22.34360370637272 0 1 0
2554 1 23.84837676235218 22.509204767382077 24.68693517782594 0 0 0
2336 2 21.246882676524415 31.519090260116904 22.438378129214765 0 0 0
5180 2 8.496251413860035 11.309753129148119 18.632961719013807 1 0 0
443 2 7.229768918791271 7.474286017897287 10.852816109495532 0 0 0
4440 2 10.104742878881261 20.04022289236173 10.39405909789324 1 0 0
2341 1 18.038658202800363 15.18278003466952 23.370907075783204 0 1 0
4503 2 7.583304048634378 16.234636776675455 5.416761975086721 1 0 0
1743 2 12.721345862962758 12.58758571769579 23.27067259249808 0 0 0
1788 2 9.917170229415744 18.508133738292273 12.605558037131802 0 -1 1
318 2 18.33686646975582 24.80120341978724 24.349652300437178 0 -1 -1
725 2 16.557181316840403 29.064597912674316 7.482340903114642 0 -1 1
2411 2 9.768138757128334 26.050388867104108 2.0473079320516434 0 0 1
5221 1 9.0604314292611 6.22371217922375 14.296056445311581 1 0 0
1617 2 22.79969606018888 22.237144952513628 15.656664106878514 0 -1 0
77 2 7.1485361796695575 21.67339699045932 3.088745522689609 0 -1 0
3057 2 15.695784152956271 5.5114483396880605 1.3961329959089668 0 1 1
1909 1 15.181105646161082 7.400590088747962 20.659389776135026 0 0 0
31 1 6.375474939295177 18.452402026175328 6.650887200471569 0 0 0
2377 1 5.090242985962166 15.231155933992909 1.818960041027623 0 0 0
2640 2 20.811227940196428 20.392706748530202 5.475062050402598 0 1 0
3503 2 8.601261866410532 16.178973869776854 10.949878565111941 1 0 0
2237 2 11.167505267431478 4.694558409753403 16.449931306043084 0 0 1
444 2 7.511622714914889 6.552731640250176 9.573802725345578 0 0 0
1002 2 9.06010326550315 12.90386539567924 5.082028062327679 0 0 0
3030 2 17.728173336202342 8.120673637989006 25.33995359781322 0 1 0
2522 2 10.899992950641881 25.073510790917826 15.490801928629336 0 0 0
2467 1 7.836932049901963 13.49382398292081 12.305449753257598 0 0 1
1596 2 13.83110069835455 14.00768299218357 25.20532703400706 0 0 0
1621 1 5.888438790677469 4.014161643202448 0.18489681558972057 0 0 0
1829 2 10.714875754273981 15.755583476251793 7.010746752175716 0 -1 0
1151 2 19.262002184859483 22.30919589912791 25.167612460384927 0 0 0
1691 2 14.04259182348536 16.301728931903607 1.7962545234142278 0 -1 1
316 1 17.59593334999492 24.65890486518198 23.737882747801052 0 -1 -1
2612 2 18.44385954369826 20.57976583376087 13.590265693536926 0 0 1
2413 1 8.584493134823198 15.683076213564162 15.251478503233251 0 0 1
219 2 9.612958379253081 21.763033912492038 6.283187935533071 0 -1 0
4439 2 10.087977109090003 18.533792857441153 10.203164616888884 1 0 0
1876 1 20.669479073680833 30.328368778927405 21.40832841438462 0 -1 0
2563 1 10.041035822768476 10.345293227989234 9.354952377145231 0 1 0
1638 2 10.129432240365599 8.576065105691692 18.962224700722505 0 0 0
216 2 22.391516845250106 27.48351899912589 15.05393732174199 0 0 0
819 2 19.87539391055124 25.9754369953201 20.067181436402173 0 0 -1
373 1 5.661328030541757 8.039891627799216 0.3457324858790681 0 0 0
1049 2 13.79564642000166 15.964120110907983 5.71020832590036 0 0 0
6019 1 10.915170809425625 28.133306229173524 8.581460697405507 1 0 0
214 1 22.3027406339478 27.536115819507124 16.032592253807255 0 0 0
1900 1 11.537382599279818 20.242408179523352 5.129968636364964 0 -1 1
375 2 5.219560668180952 8.61363465330593 0.9939225880163496 0 0 0
2320 1 14.548539956918475 13.560297993776091 20.857198018678048 0 0 0
2439 2 12.564408519276947 7.56248285288591 9.254494658034396 0 1 0
1518 2 21.620995459568533 27.622067557927945 6.20426929978271 0 0 0
844 1 4.339513427898805 10.102431850636695 1.0970135275064883 0 0 0
187 1 10.591621082095429 25.422685187077967 11.129234050661452 0 0 0
1611 2 6.188488104865117 11.384486988764104 3.627190273917737 0 -1 0
314 2 13.931573983900979 13.634977629311493 14.53073611978495 0 0 -1
2602 1 19.376904145533327 12.925543590574392 22.937031034295643 0 1 0
2281 1 11.070642382198683 15.633616435067811 13.29797463344663 0 -1 0
199 1 21.42784268197979 21.226191568605678 10.562836744926477 0 0 -1
3493 1 12.894105497894444 17.73813305360982 24.935271328191114 1 0 -1
271 1 3.675926022314493 2.4050176726228716 1.8817048744367841 0 0 1
5039 2 5.46940033991857 13.565138858275484 2.2715408376641033 1 0 1
1828 1 10.341325894637963 16.204965325395378 6.139591516951823 0 -1 0
385 1 16.5305882689193 25.851327691934195 1.831005965248557 0 -1 0
339 2 21.710552694596625 17.036414444273824 25.056506878210097 0 0 -1
29 2 22.063714456192894 24.63184298806601 17.64739450566699 0 0 0
1152 2 20.28141246837769 22.236866532424457 24.053997153265797 0 0 0
625 1 7.301247229156536 7.461661272299954 6.513487093055385 0 0 0
1878 2 19.918977354708133 29.76858270203085 21.172703535460712 0 -1 0
2437 1 13.04955973321212 7.335175436207856 8.342562222209216 0 1 0
1615 1 23.051154872239696 21.349457798234894 15.477499861159192 0 -1 0
3497 2 13.52563934086854 27.472125071807525 16.097306936914485 1 -1 0
284 2 14.480070786919718 9.83902751187223 15.153690905933997 0 1 -1
2576 2 5.767670338179617 5.250968437335903 8.335017491047939 0 1 0
1608 2 15.129653001377239 24.79438423453777 6.12654328723566 0 -1 0
2670 2 21.75109624108694 26.417428898675496 13.476497002007449 0 0 0
117 2 18.551437973565147 10.380915772961776 25.557518459810925 0 0 -1
2577 2 4.504269279868184 4.473449952590772 8.540798078297676 0 1 0
953 2 28.908325375445507 27.626165976748176 26.54268021078145 0 0 -1
1085 2 18.919887702266216 27.90298380787792 23.949881468949183 0 0 -1
848 2 19.93039561575318 16.452228155931877 11.919972969518167 0 0 -1
273 2 3.7785911922131197 2.5716825830520986 2.8134566509529373 0 0 1
1084 1 17.99525278033706 28.1217132257397 23.7508228652057 0 0 -1
1910 2 15.803419712891472 6.885955797294909 20.032596342327366 0 0 0
1087 1 24.182787836664183 28.68918799128434 21.93219023623746 0 0 -1
360 2 17.547284092693406 14.735835414982276 20.644632505096165 0 0 0
1131 2 11.538714912002197 16.304389900918306 22.177153970031327 0 0 -1
777 2 7.078598902314781 15.018221201357116 7.726188628563917 0 0 0
308 2 13.854816017962342 8.052891225732983 19.521710105295973 0 1 -1
309 2 13.488436333350432 7.878274574859101 17.9133863788652 0 1 -1
3003 2 5.535433057902846 3.9817412091906217 11.892078269542584 0 1 0
1809 2 21.911508212870284 24.414158860827104 26.872555057338463 0 0 -1
880 1 15.679922065126739 18.566984353449804 20.12269072385059 0 0 0
315 2 14.841381066164644 13.750624866961605 13.35005163072334 0 0 -1
283 1 13.890542284672158 9.256566258311059 14.567265521478745 0 1 -1
386 2 16.56572810888214 25.860121804458732 0.8639186700039455 0 -1 0
3499 1 5.751615178689374 8.916906366699218 8.432283808926254 1 0 0
726 2 16.735060081068806 28.704134990156074 8.91120517801363 0 -1 1
352 1 6.2680370312135345 8.869947231730086 11.027126628154727 0 0 0
2772 2 27.42509972422068 33.786751609807865 23.656358954850827 0 0 0
387 2 17.464634392720104 25.759492226576665 2.1262126831017762 0 -1 0
319 1 16.627997186663535 17.711664757754505 16.306795546287418 0 0 -1
2328 2 27.844202757622313 29.637606393420757 25.434439391224902 0 0 0
1683 2 4.85823147959484 2.4487392310388136 8.647784564444702 0 0 0
1880 2 8.358651992049706 8.92611356826269 18.63825064506497 0 0 0
1763 2 15.58852255340473 17.189827624144883 18.90177535010622 0 0 0
1819 1 28.81777876140811 24.977016074307368 24.931545426997335 0 0 -1
2523 2 12.142584602878362 26.146098703503853 15.829706060157049 0 0 0
285 2 14.426881057385966 8.845120946865533 13.896774369565556 0 1 -1
2549 2 19.11606384628864 7.112556382293663 18.651818893220007 0 1 0
222 2 0.8547680080566904 2.2319160825432576 4.3370928771188275 0 0 0
1802 2 14.243241693250969 15.968497511855654 17.663518045875808 0 -1 0
901 1 16.827877160054726 24.791865585698833 12.317609725354664 0 0 -1
902 2 16.415131284799923 25.42749243801353 12.890093186232344 0 0 -1
320 2 16.207447688180796 17.090241320162693 16.970196717304578 0 0 -1
290 2 12.646327770354485 18.05548905713929 10.568047163463433 0 -1 -1
200 2 21.769905436378792 22.080019597326896 10.32292719600682 0 0 -1
2645 2 17.663757215903132 12.922343477719602 17.172415291803677 0 0 0
1787 2 11.06781744023177 18.9333045417305 13.616707520164105 0 -1 1
123 2 17.448445024012912 9.882777858807437 19.560791469428853 0 0 -1
2982 2 12.900021198051377 2.333175138932014 0.056354062103959345 0 1 1
1583 2 11.800079841941471 12.479768754102171 7.644357201491484 0 0 1
1558 1 12.254018634413587 9.844194188064332 25.15294376075997 0 1 0
176 2 19.86567745886419 21.2366477988302 7.269497114961956 0 -1 0
3001 1 4.5837081128609105 3.742563919661628 11.600065407029355 0 1 0
115 1 18.898567095609767 11.271496314187313 25.453044126412 0 0 -1
116 2 19.768542622689964 11.23449953698667 24.99914302592733 0 0 -1
817 1 20.581015316341635 26.570903857315212 19.730803960799555 0 0 -1
724 1 16.503889438691612 29.462760936600784 8.361656227113468 0 -1 1
1058 2 21.143434518267 34.3891796125426 26.86483587109582 0 0 -1
1911 2 15.684664302776355 8.26477589850166 20.615446657304588 0 0 0
1048 1 13.582377788815876 16.89940446318287 5.825834784564137 0 0 0
1066 1 26.68432316125729 32.49752719522057 26.32420940902533 0 1 -1
331 1 23.70558832178146 29.571399318499207 14.466326668940885 0 0 0
1086 2 17.425092782164956 27.720717486959977 24.35234737066612 0 0 -1
627 2 8.129065853660627 7.866341866251483 6.21503433092075 0 0 0
1083 2 21.94310588850764 10.826240662181736 25.209633404558147 0 0 -1
4268 2 7.161854244427278 17.529321013433215 3.4800439852393072 1 0 0
2143 1 20.223370096472134 13.333779625605983 9.170917113037797 0 0 0
2565 2 10.191158965887812 9.411825005776691 9.615059188297288 0 1 0
2371 1 16.137308177288777 6.938232102538456 2.0815994842678602 0 1 0
5222 2 9.667896795295157 6.781071438164556 14.832209365211805 1 0 0
57 2 15.176489865610883 30.630579567529363 12.969781309902812 0 -1 0
1803 2 12.56749240756403 16.04279225495833 17.388581021938364 0 -1 0
289 1 13.12999538410133 18.464420261257214 11.340572852934786 0 -1 -1
2438 2 13.078171067338495 6.336884565846233 8.414168418043587 0 1 0
2358 2 22.917615527650195 13.083064114337526 21.959625182132672 0 1 0
564 2 16.583402890803 5.642897293732632 18.43732784857263 0 0 0
4438 1 9.487356500408579 19.325293278181043 10.258103636192404 1 0 0
239 2 26.02668000101088 19.081528432319256 24.57762961389883 0 0 -1
392 2 19.023158392042745 18.48136281460243 1.1455064173418377 0 0 0
190 1 23.799014211326014 12.545302344542026 26.233621845625784 0 1 -1
2681 2 10.085903244833771 14.961073294705002 4.902440343228781 0 0 1
938 2 15.727186467277495 24.51246651126263 2.336277764173033 0 0 0
2362 1 11.403526369554779 24.489732947369898 18.35034556902013 0 0 0
293 2 3.5173059766812367 15.346103051652108 0.41539467122298906 0 0 0
2682 2 9.833995647339943 14.222000373247392 3.5354194123944542 0 0 1
1026 2 17.911148121709683 12.720774540802921 6.99347735468527 0 0 0
2680 1 10.176981921680188 14.052180088655897 4.48327260836922 0 0 1
6040 1 25.597505515153333 25.861408622480763 20.951367681668778 1 0 0
4481 2 7.758084119980753 16.60616057351109 1.4690780524910663 1 0 0
272 2 3.9352291779057893 3.295648412471827 1.4375818932684303 0 0 1
1582 1 12.374452097652968 13.168199759920899 8.040931251335516 0 0 1
5272 1 9.440069155141911 5.978817206656918 20.943202862752504 1 0 0
435 2 21.906297712955134 17.45992141794113 15.847331763919474 0 0 -1
6020 2 11.31191343938756 28.99712726252181 8.614152114677221 1 0 0
1886 2 17.65076769715653 6.315716370317061 11.324616038421302 0 0 0
1907 2 16.667544904452146 11.068250283494805 23.777449817883845 0 0 0
1125 2 9.391789634765509 6.387219837771911 11.197479129507492 0 1 0
1890 2 17.853173400459074 12.79002724890792 14.778426199304256 0 0 0
1682 2 4.644675094370955 2.9707954826557645 10.039490173609579 0 0 0