LAMMPS data file via write_data, version 8 Apr 2021, timestep = 500000

384 atoms
2 atom types

0.10162746624914853 14.968470533750903 xlo xhi
0.059310413126362684 14.110922586873578 ylo yhi
0.11700709113472944 13.588715908865353 zlo zhi
5.087742529581894 5.057176961217855 3.5385052236857346 xy xz yz

Masses

1 16
2 2

Atoms # atomic

1 1 7.648543329991993 5.252601784172374 3.9870396631984315 0 0 0
2 2 7.564406611589528 6.134028325437707 4.43829227041136 0 0 0
3 2 6.916922777558167 5.169463975221138 3.409220113848103 0 0 0
4 1 9.962011546169185 6.820986174373159 10.811467505241364 0 0 0
5 2 9.59236370795525 7.700591823770341 11.013946507650644 0 0 0
6 2 10.537706383962728 6.652558452830196 11.595149435151118 0 0 0
7 1 9.936753537126304 12.203685862364804 4.079500239629797 0 0 0
8 2 10.382056754439478 11.859247999799388 4.882940771812352 0 0 0
9 2 9.60102150786654 13.051498153974617 4.290306678699005 0 0 0
10 1 12.335248263312254 13.947898922857695 10.890996679779132 0 0 0
11 2 13.149052335491854 14.013262479917405 10.328657106434108 0 0 0
12 2 11.68152952911777 13.51560423394617 10.34478378079665 0 0 0
25 1 11.408360421667183 8.200843574677883 6.189561377513814 0 0 0
204 2 13.35141906065325 10.840215745797787 8.710632760209839 0 0 0
27 2 11.094135456048967 7.567432444227092 6.916927516906533 0 0 0
28 1 14.030571691114076 9.997145011189806 13.184470189348596 0 0 0
29 2 13.369702912203547 10.5015769225253 12.692342739562124 0 0 0
47 2 9.44495315107302 16.281808842699522 12.353589634114773 1 0 0
31 1 14.014650214561195 15.054314633408941 6.415523448596848 0 0 0
339 2 3.707889505133914 6.3437515991083275 3.6775698540656467 0 0 0
33 2 13.374174190247462 15.643541753686383 6.032472885072363 0 0 0
34 1 16.716431923012237 16.889105460973997 13.221469862510471 0 0 0
341 2 6.907594836508337 8.854181289296502 11.615202432503336 0 0 0
372 2 12.91880893676944 16.814739213585245 11.948703519328674 0 0 0
49 1 5.047169306060636 3.564137544044462 2.925055839636837 0 0 0
50 2 5.371813959142787 2.682879992847906 2.5056972522024994 0 0 0
51 2 4.678335957687456 4.093494719671281 2.164925188232599 0 0 0
52 1 7.748486275695993 5.567915367726095 9.654940856551855 0 0 0
53 2 6.966871641789005 5.300464808565563 10.207875232508515 0 0 0
54 2 8.377409717805289 5.915779739816234 10.266196053904261 0 0 0
55 1 7.713585570469181 10.68244296165373 2.9463937275306242 0 0 0
56 2 8.08788089564954 9.83249086128307 2.824240704138131 0 0 0
57 2 8.459981530213323 11.195987878795107 3.3944010074550044 0 0 0
58 1 10.37188339733765 12.408154615852892 9.686713795835743 0 0 0
59 2 9.951525044344475 12.827901551091259 8.925720386858513 0 0 0
60 2 10.768385249100158 11.597100961125445 9.296117961587482 0 0 0
73 1 1.0004285214094268 0.787931259330648 0.7692108439974583 0 0 0
74 2 1.8317098352254657 0.31215123385205323 0.9717270114327682 0 0 0
368 2 8.875767415647232 15.259517383294344 4.662659051229413 0 0 0
76 1 3.7050038207081597 2.614189536330579 7.374302496030876 0 0 0
194 2 8.29440433566235 1.9069554074891562 2.0064083417015253 0 0 0
78 2 9.441374977014565 16.00088305762387 7.6712859579539945 0 -1 0
79 1 3.5552874150049965 7.8809835925300815 0.6184271179696356 0 0 0
80 2 4.248262436608098 7.3147645068538685 1.0447129858990893 0 0 0
131 2 7.754486155547895 11.37053288857048 10.187086506696671 0 0 0
82 1 6.413560378541083 9.540455072664145 7.290276007318931 0 0 0
371 2 12.013319344653326 15.591557803549579 11.614282356395195 0 0 0
77 2 3.0495137738363196 2.1789437701695493 6.891416710324002 0 0 0
97 1 5.165884804624878 4.433951515141387 6.186411222941171 0 0 0
98 2 4.700804363473742 4.817942723481897 5.419798445897701 0 0 0
99 2 4.525209980637491 3.8169219978464675 6.646558005995311 0 0 0
100 1 7.974988924348078 5.833011570946597 12.758695536034397 0 0 0
101 2 8.239407699415278 6.58042599316102 13.348686243959692 0 0 0
102 2 7.303077937462608 5.323007767841009 13.230106834672942 0 0 0
103 1 7.971519400682445 11.317044332377279 5.876177995699422 0 0 0
104 2 7.295489174163216 10.707904427495198 6.2019883601838695 0 0 0
105 2 7.714820634017055 12.019788861896217 5.231677078997375 0 0 0
106 1 9.978795678242133 13.26400620514668 12.664170636351843 0 0 0
107 2 10.35447208468514 13.94447272238219 13.314238160988623 0 0 0
108 2 9.455069231605371 12.54198299145 13.102204254030461 0 0 0
121 1 2.8910360203587926 3.0663212820682633 4.279248072677178 0 0 0
122 2 3.708522530196764 3.336895713347937 3.805806313998877 0 0 0
370 1 12.04085468062546 16.459227022367603 12.037473641618528 0 0 0
124 1 5.445520793633085 4.570947162612722 10.805035809755374 0 0 0
266 2 10.442904245362632 6.30011763646373 3.2198805995630404 0 0 0
126 2 5.713775616943203 3.7265129117025113 11.203284666122835 0 0 0
127 1 5.754619812550496 9.699617761971043 4.543573236114356 0 0 0
128 2 6.202118403874277 8.874052404571517 4.881082968693073 0 0 0
129 2 6.419241850461002 10.184904355817928 4.038383930777822 0 0 0
130 1 8.317292599170983 11.540962859912558 10.988696182350061 0 0 0
282 2 5.232572318004561 7.4814022003146645 8.711593415413267 1 0 0
132 2 9.127523912118763 11.91138439821515 10.565011228686817 0 0 0
145 1 6.906177692316222 2.3020704767398246 5.0967872498832065 0 0 0
146 2 6.330872709803678 3.0762628646343786 5.250666893954057 0 0 0
147 2 7.3332746951504175 2.3914584011704973 4.212984594473398 0 0 0
148 1 9.367955075028252 3.729914063742475 11.761649745298351 0 0 0
149 2 9.134485489002417 4.642180939801863 11.968768777185522 0 0 0
150 2 10.112623250751353 3.471163601217164 12.371129729753072 0 0 0
151 1 9.392414130915306 9.145206815893193 4.937175945384946 0 0 0
152 2 9.170097136534759 9.992201541409495 5.283664371782068 0 0 0
153 2 10.071095746502 8.743332905953427 5.557376802381664 0 0 0
154 1 11.852967598708556 11.053543905392244 11.68603755628054 0 0 0
155 2 11.495712318946397 11.843620992908235 12.053569374314439 0 0 0
156 2 12.144678575577753 11.229641812691998 10.788498735467106 0 0 0
169 1 9.029603917450306 4.146863931249652 6.315947248295231 0 0 0
170 2 8.276013352782403 4.247330358281044 5.650252069034249 0 0 0
171 2 8.505768838021629 3.8776210431128955 7.109188520454949 0 0 0
172 1 11.404891268894042 5.974624273997103 12.986675145303598 0 0 0
173 2 12.015007528409024 5.287798554803961 12.553855007617145 0 0 0
174 2 11.84628373606511 6.693704490094986 13.40153506711398 0 0 0
175 1 11.512826325593249 11.145370653998466 5.935229173684723 0 0 0
176 2 11.42208025152724 10.56967785526597 6.716190631866843 0 0 0
177 2 12.095366779646092 10.64947505619273 5.324784217602689 0 0 0
178 1 13.985594967130293 13.204394192289055 12.936857031146003 0 0 0
179 2 13.082050826795767 13.45102823709048 12.624342838261827 0 0 0
180 2 14.40647524103973 12.651395024382483 12.23596417426833 0 0 0
193 1 8.13761561568405 2.4864539579880036 2.743594640784963 0 0 0
367 1 9.642532367230045 14.775457824245475 4.928846814409571 0 0 0
195 2 7.956833023284421 3.3642678192371944 2.3609714417529473 0 0 0
196 1 10.930179080669777 4.253839789429087 9.595231613847584 0 0 0
197 2 10.383003508746219 4.039819695504278 10.376944977065392 0 0 0
198 2 10.734751882096214 5.171676717655955 9.262459308268001 0 0 0
199 1 11.114992722041164 9.669489963572671 2.768340302120133 0 0 0
200 2 10.764124603366035 10.513229516911258 2.367650365298088 0 0 0
201 2 10.431492696626382 9.414634407661866 3.435510348324974 0 0 0
202 1 13.17548406404814 11.52745172416947 9.331165184735859 0 0 0
203 2 12.886229188883439 12.20354480115352 8.585955692375913 0 0 0
125 2 4.668566718164688 4.3216653936687415 10.227031215603477 0 0 0
217 1 5.4526401714055055 1.2423075975021132 1.6055124680120814 0 0 0
218 2 11.091014251244589 14.588596575422535 1.9895205725926852 0 -1 0
219 2 5.85797446189807 1.5226946787621594 0.7146984842218591 0 0 0
220 1 8.070132191388561 3.0289131238285245 8.55038499241824 0 0 0
221 2 7.957702654743842 3.826290815552722 9.093865600502555 0 0 0
222 2 7.190265084669258 2.5165806049849953 8.522084027307061 0 0 0
223 1 8.140856173440582 8.216402488878137 1.7377012176507525 0 0 0
224 2 8.83059250576375 7.515239045597572 1.7109521278830224 0 0 0
225 2 8.320865275921168 8.766665391380736 0.9628702800476885 0 0 0
226 1 10.735513573204413 10.02528435698838 8.489180759488827 0 0 0
227 2 11.32296013057378 9.42951549178859 8.948725924744386 0 0 0
228 2 9.870133424619988 9.665089582292623 8.754005897721846 0 0 0
241 1 7.365925389501937 4.5706957312574845 0.9137193639729615 0 0 0
242 2 8.027921044478212 5.091554723377914 0.47616306788808505 0 0 0
243 2 6.6062078238699 5.103919321426077 1.0819335012071545 0 0 0
244 1 10.231217608302074 6.2268081425704205 7.827483982275695 0 0 0
245 2 9.500671825387261 6.812100929158541 8.115749698597078 0 0 0
246 2 9.769584078419074 5.677578400112941 7.178132514331171 0 0 0
247 1 10.141632845311419 11.743923466184457 1.047023196635911 0 0 0
248 2 10.851502422061287 12.288008919045092 0.5461037009407343 0 0 0
249 2 9.670695824567098 11.16968071475884 0.4157019992532085 0 0 0
250 1 12.434085414739839 13.12813270322477 7.389070655449128 0 0 0
251 2 13.10232457643325 13.641034685188126 6.966653777370342 0 0 0
252 2 12.004887262756094 12.572962618069258 6.7158039564089576 0 0 0
265 1 9.91591893771343 6.01607742578786 2.434899664245271 0 0 0
26 2 12.113381610241737 8.794326897280405 6.611964298788395 0 0 0
267 2 9.071722289789127 5.773564300840212 2.8560761368820886 0 0 0
268 1 12.406979421880244 7.612163200945629 9.334769397972018 0 0 0
269 2 11.569051488443447 7.260804626327559 9.67467106585508 0 0 0
364 1 9.816108134384875 9.340640278692929 12.110508645968322 0 0 0
271 1 11.90024081022889 13.279612204817552 2.7285889702335884 0 0 0
272 2 11.18397471946875 12.804723058421253 3.2640925453296123 0 0 0
32 2 14.674784493872279 15.55326788735687 6.914375729779415 0 0 0
274 1 14.573692063239962 14.773230313307291 9.625376887850422 0 0 0
275 2 14.15556151628463 15.559821741908799 9.13767398797624 0 0 0
369 2 10.446505754447067 15.304444786411542 4.867631672904738 0 0 0
289 1 5.810137332678458 6.784646774491222 1.8569269279415137 0 0 0
290 2 6.58850902046543 7.413583251560187 1.9167812917542626 0 0 0
291 2 5.465752728220654 6.805637841512397 2.7810809157507976 0 0 0
292 1 8.46621828773573 8.343594876023829 8.478843454726475 0 0 0
293 2 7.679144200485949 8.803608753456993 8.16703055192337 0 0 0
294 2 8.269963697913369 8.219511934685457 9.440120443990015 0 0 0
295 1 8.446360708677496 13.789075968266145 1.8366832247782447 0 0 0
296 2 8.87696879641164 12.932504346041513 1.641940089296705 0 0 0
297 2 9.264072372220038 14.41834735224807 1.7514001267656478 0 0 0
298 1 11.023006888278415 15.390708536263896 8.389837297130153 0 0 0
299 2 10.746817786329515 15.169908298355654 9.320019269833725 0 0 0
300 2 11.665405349829847 14.743806312561196 8.126844316124302 0 0 0
313 1 3.7822375843523224 4.471182899215501 0.7278602114780319 0 0 0
314 2 9.226849485151584 8.667929121692447 13.547795649915424 0 0 -1
315 2 2.923372518261929 4.837660941912739 0.9998737176515319 0 0 0
316 1 6.48892488376935 6.474389780725947 7.535476138807081 0 0 0
317 2 6.144129071567467 5.672529064706613 7.0632094445487965 0 0 0
318 2 6.978350672883187 6.18353605111199 8.372196710836693 0 0 0
319 1 6.058030185751904 11.703185527583946 0.9111796883822676 0 0 0
320 2 6.6926401006486405 11.517357533203882 1.652721647701682 0 0 0
321 2 6.508367120326317 12.301852956458633 0.30798226691032865 0 0 0
322 1 8.842376255599635 13.190157524660144 7.552727481796277 0 0 0
323 2 9.111109436432184 13.701138773829298 6.740121008247475 0 0 0
324 2 8.506403588938111 12.407890582562748 7.0884308051424725 0 0 0
337 1 4.536764347114761 6.277674071262268 4.238787893330051 0 0 0
348 2 8.684177880014495 15.15595416633169 10.305683147823117 0 0 0
365 2 10.675720562325958 9.829070423085106 12.053939023594062 0 0 0
340 1 7.018475429228054 8.122075942154577 10.960919594737545 0 0 0
273 2 12.697088773688543 13.33674251131835 3.2588177224118593 0 0 0
342 2 7.3181373082128385 7.365675636361214 11.481707210632873 0 0 0
343 1 7.083575819464257 13.277472707346503 4.179343281085956 0 0 0
363 2 8.071154868220315 8.222985258338648 5.256539283677313 0 0 0
345 2 7.5869027944504 13.476098132174805 3.3349980822537812 0 0 0
346 1 9.523785962886958 15.20445964001536 10.82408932779938 0 0 0
347 2 9.566714070269771 14.351804764014277 11.262202368873574 0 0 0
366 2 9.188517972908786 10.036229147976568 11.81416757871514 0 0 0
361 1 7.25524940420041 7.609418848680361 5.208765725664924 0 0 0
362 2 7.065188000335137 7.389798166882355 6.136202315807621 0 0 0
84 2 5.612303523621568 9.036902932659848 7.056127123412842 0 0 0
338 2 4.420981093623666 7.033420160017424 4.833566254602146 0 0 0
344 2 6.191093147850411 13.34795736785821 3.7920399889390395 0 0 0
83 2 6.0884744781251925 10.098281324988287 7.994127959516631 0 0 0
30 2 14.82022816321584 10.594671470286794 13.383044028236286 0 0 0
276 2 14.926656872541313 14.163599561513166 8.963036666499946 0 0 0
35 2 17.52252665996241 17.44978500928855 13.428164144380238 0 0 0
144 2 14.424807528563115 11.62913772793091 10.399561121222751 0 0 0
270 2 13.093291464081885 7.783226399793555 10.012473473095634 0 0 0
13 1 14.821986267957659 5.308212872220682 4.025007120957619 0 0 0
14 2 14.080348264043419 4.6692343667385705 3.6900550367734217 0 0 0
15 2 15.20756230522992 4.988303777888141 4.879293550871191 0 0 0
16 1 17.291717809310093 7.163058028524785 10.727867154725649 0 0 0
17 2 16.60105235508172 6.624542683926509 10.358097527319288 0 0 0
18 2 18.11134121652137 7.2851204662740985 10.160226068079911 0 0 0
19 1 17.28524690276557 12.383649479736246 4.3131617080748095 0 0 0
20 2 18.117279576578564 12.499101237834907 3.7615077244327364 0 0 0
21 2 16.76073747073059 11.754941553512335 3.7289122821235794 0 0 0
22 1 19.90086176307147 14.176872492288114 10.63770277879692 0 0 0
23 2 20.6261203588577 14.468681332197566 10.059149059864373 0 0 0
24 2 20.334414952159403 13.794831551178087 11.43564805114567 0 0 0
37 1 19.114326285353126 8.031277860677951 6.304682414468104 0 0 0
38 2 18.341614302128054 8.656792860142618 5.991571431186417 0 0 0
39 2 18.658841120135023 7.355993227745731 6.8812068390168974 0 0 0
40 1 21.36669572829855 10.05470431564035 12.887259523180038 0 0 0
376 1 17.196665388128313 9.578146972447033 11.972157444447399 0 0 0
42 2 20.657541851920822 10.730507166777887 12.681893814580075 0 0 0
43 1 21.647192833399465 15.100679747696612 6.328031270295002 0 0 0
44 2 15.859239679166512 1.674567171820316 6.040749998401179 0 1 0
138 2 12.533232652396125 4.242578649507482 10.461160576114136 0 0 0
46 1 23.95385134881421 16.680854527597823 13.136892507610684 0 0 0
377 2 16.997042923905948 8.764248579842707 11.47846860153145 0 0 0
379 1 17.29409859407439 14.92027624655734 5.365663177048509 0 0 0
61 1 12.791602838669034 3.632985424991503 2.9102711658622704 0 0 0
62 2 12.021751326081743 3.428200595198861 3.509040583581809 0 0 0
63 2 12.314641527762547 4.12821204205344 2.1550917172846096 0 0 0
64 1 15.273243346357097 5.523546807341881 9.570810992634867 0 0 0
65 2 14.891973686367955 5.69273008969279 8.662111264780545 0 0 0
66 2 14.443165558643932 5.27614748065499 10.090442737338302 0 0 0
67 1 15.326993725195885 10.768055762464629 2.957358272569451 0 0 0
68 2 15.518528603136456 9.925106256748723 2.537061590657098 0 0 0
69 2 14.585977506558732 10.603281629795001 3.537449519732195 0 0 0
70 1 17.50915340800057 12.542530636382917 9.88339174212925 0 0 0
71 2 18.07917991241916 13.156282447676569 10.384399314143707 0 0 0
72 2 17.854506043034213 11.668120235521528 9.735109842521283 0 0 0
48 2 24.66029159380337 17.163530474608798 13.575192761420258 0 0 0
86 2 14.444416645447905 14.334555315578202 0.991655636071363 0 -1 0
141 2 12.509755718572258 9.97722076810452 3.6208952509843404 0 0 0
88 1 11.19740019492047 2.4498757927150674 7.488968291576136 0 0 0
384 2 19.55699625312689 15.607469449774705 11.706185694957426 0 0 0
90 2 17.065106122761545 16.01625572625236 7.805934354174464 0 -1 0
91 1 11.19756183529967 8.102491819652013 0.495850579306185 0 0 0
92 2 11.92502419290223 7.573256339704722 0.9207531204221974 0 0 0
383 2 19.62347190587426 16.100775366478167 13.126206052573547 0 0 0
94 1 13.58000451678113 9.723538931273213 7.470627107316051 0 0 0
95 2 14.312013433260743 9.28155968463695 7.9644439897558295 0 0 0
96 2 13.97488575519231 10.348275555342706 6.816304389545711 0 0 0
109 1 12.726166148773617 4.179323053942687 6.168998491579032 0 0 0
110 2 12.078711699768737 3.6091144542232225 6.657408952729875 0 0 0
111 2 13.433524841800589 3.5234111271843447 6.033470741588343 0 0 0
112 1 15.42577865906527 5.986583054654219 12.544116257328733 0 0 0
113 2 16.01776645322994 5.287884937114126 12.18742283259758 0 0 0
114 2 15.870950403908482 6.667458262329928 13.045269850980748 0 0 0
115 1 15.161444177374465 11.435180284477426 6.101337407566497 0 0 0
116 2 14.906495375279498 12.030240054980624 5.389018206909788 0 0 0
117 2 15.682044868858425 12.0795284813269 6.732078805361274 0 0 0
118 1 17.857615632138906 13.2901056405123 12.728409243931843 0 0 0
119 2 18.297453605718015 13.859199555259123 13.385726047222562 0 0 0
120 2 17.131489568550318 12.720133992708119 13.152077690712675 0 0 0
133 1 10.554386433068917 2.634885142671242 4.599531020902137 0 0 0
360 2 16.114275345263774 15.049379429225835 10.625621894022414 0 0 0
353 2 14.31835415797086 8.706700373501047 11.694883947327924 0 0 0
136 1 13.230211653913376 4.583507734908008 11.100163710341413 0 0 0
137 2 13.7564384094963 3.7616200857316655 11.353493433745871 0 0 0
374 2 14.64365924087626 6.9531783028178955 4.598220195035394 0 0 0
139 1 13.211693586424827 10.136971509712502 4.299300820007079 0 0 0
140 2 13.630234098137397 9.330904074040976 4.597458221219045 0 0 0
89 2 11.025637454590631 3.0038087032339567 8.240065347800861 0 0 0
142 1 15.159929133803544 11.546618658709702 11.031855950914563 0 0 0
143 2 15.92430342553422 11.88355327636939 10.544752053677543 0 0 0
87 2 14.308398778050222 5.081604690388512 13.54206142280127 0 0 -1
157 1 14.470089152649129 2.2547843735220265 5.303697765930954 0 0 0
158 2 13.638260763344794 1.760719809215507 5.349393325401282 0 0 0
159 2 14.61961446395519 2.484294213488718 4.3694674756562115 0 0 0
160 1 16.78525746378496 3.7660801650331126 11.621595095975074 0 0 0
161 2 15.993721888490429 3.269128829516071 11.986819295619492 0 0 0
162 2 17.543187522584926 3.6162116106570554 12.230041834401309 0 0 0
163 1 16.9638258823369 9.18923588236966 5.223380015846624 0 0 0
164 2 16.26901259723526 8.498222264380244 5.137274220617288 0 0 0
165 2 16.441485549864954 9.920387488020884 5.5499936552838305 0 0 0
166 1 19.298388211361775 11.160791613307376 11.880032123472015 0 0 0
167 2 18.537502080941007 10.568575212030291 12.018803786986869 0 0 0
168 2 19.053561086805523 11.996879563930332 12.330086780059967 0 0 0
181 1 16.25237957967523 4.383862584804818 6.109358826678286 0 0 0
182 2 16.069342383649605 3.785803399238971 6.870064184543035 0 0 0
183 2 16.669498500355207 5.154349329574884 6.554126042945397 0 0 0
184 1 18.959531940924933 6.251720003956779 12.760833439213059 0 0 0
185 2 19.548135579262446 5.76448042038091 12.168360885809166 0 0 0
186 2 18.243414775031393 6.5809223683319 12.163027192808979 0 0 0
187 1 18.95715704612301 11.288434183498085 6.222688575959945 0 0 0
188 2 19.689354902729548 10.908893375102377 5.596128231846847 0 0 0
189 2 18.262054893276417 11.639858631666863 5.5956536011958065 0 0 0
190 1 21.434435612616717 13.069142211481854 12.790871200967642 0 0 0
191 2 22.111791321258938 12.521712990546007 12.28525578875754 0 0 0
192 2 21.900915960951853 13.931614283342526 13.120806667429896 0 0 0
205 1 15.657808248680775 2.6148753518245007 2.8789442693838683 0 0 0
375 2 14.214682873422971 7.547218041259767 5.903688574164841 0 0 0
207 2 15.48459208976996 3.46426558041844 2.4328652105949224 0 0 0
208 1 18.11603959294249 4.22542947167514 9.421591074115046 0 0 0
93 2 11.075641069383515 8.704512845541647 1.2542943773357853 0 0 0
210 2 17.58256485729134 3.8742056138949943 10.202367970353766 0 0 0
211 1 18.436980467665737 9.562007924741298 2.7103739928588113 0 0 0
75 2 15.764962259039267 1.269396493365816 1.6160367507783853 -1 0 0
213 2 17.77393163704729 9.382529412464294 3.452904563449517 0 0 0
214 1 20.839331497407706 11.248271448975025 9.380440683215012 0 0 0
215 2 20.141553792233676 11.09159027190397 10.0158053564623 0 0 0
216 2 20.799966256757795 12.216426859496742 9.248812456616896 0 0 0
229 1 13.047448826177497 1.274927317677148 1.444917354138746 0 0 0
230 2 12.917596468809776 2.16640483599871 1.7869300709378035 0 0 0
231 2 13.522372202447446 1.5553525899017537 0.6540762439683443 0 0 0
232 1 15.649923434898469 2.852984494344434 8.44868157137975 0 0 0
233 2 15.516559844305043 3.6474980684967577 8.969864767242234 0 0 0
234 2 14.80692797845117 2.3824928267112027 8.331671458313156 0 0 0
235 1 15.45673710767302 8.474277771765905 1.6204601962161247 0 0 0
236 2 15.788968598326878 8.782529976354983 0.7360472053251733 0 0 0
237 2 14.585987407657559 8.070227345620266 1.6199842511757838 0 0 0
238 1 17.913446774164616 10.080811310856896 8.427455885202844 0 0 0
239 2 18.510497378680604 9.323330167593351 8.652913635363005 0 0 0
240 2 18.3603110619957 10.470381689451553 7.614350419922374 0 0 0
253 1 14.622236493012027 4.751616693649975 0.9778820214370394 0 0 0
254 2 15.375695920203375 5.238165553006294 0.6406984991497753 0 0 0
255 2 14.465194982469617 4.0589309536947535 0.3531966655045441 0 0 0
256 1 17.367866325192704 6.311840603247842 7.525022798930824 0 0 0
257 2 16.79485500369765 7.0111789973468435 7.796362047319172 0 0 0
258 2 17.514478517457754 5.752132415588351 8.318058738416413 0 0 0
259 1 17.364401265257253 11.486224565366955 0.9252531176271385 0 0 0
260 2 18.12285515304938 11.909249578648437 0.532744033801088 0 0 0
261 2 17.703049655166254 10.845466157418032 1.5827446099293456 0 0 0
262 1 19.891669743709482 13.40140432867198 7.75572670378131 0 0 0
263 2 20.516410559994362 13.968097690935005 7.256510299038218 0 0 0
264 2 19.51300777965607 12.628399981740932 7.2233676700506795 0 0 0
277 1 16.896249246287297 6.2602964899594955 2.6902889067591036 0 0 0
278 2 16.099499726969192 5.8375036673822684 3.156720432802193 0 0 0
279 2 16.414142772113436 6.9898741641134965 2.2434755594439424 0 0 0
280 1 19.673358542387557 7.987254552710119 9.38979547525866 0 0 0
378 2 16.512984877307638 10.21440857480684 11.7443362640466 0 0 0
356 2 14.439875508255184 14.144155557674827 4.765338739637281 0 0 0
283 1 19.543294711347855 13.098384618694062 2.9691838464973817 0 0 0
284 2 19.1016485710598 13.869159638917903 2.6691218136769104 0 0 0
382 1 19.74742869327287 16.438892872801414 12.218209271442703 0 0 0
286 1 22.186105775641725 14.727032835659536 9.369535556339521 0 0 0
287 2 21.828444337515755 15.582975074663786 9.118883798336364 0 0 0
381 2 17.30917844501509 14.034630505167293 4.903856030146876 0 0 0
301 1 13.170486671733633 6.995561010555202 1.9010529813070784 0 0 0
302 2 13.673552495070203 6.189112451374819 1.7907625176242636 0 0 0
303 2 12.677594617242166 6.779631571697475 2.651348681314742 0 0 0
304 1 15.782694061742502 8.630361197061267 8.649893589745869 0 0 0
305 2 15.385244083210557 8.32004284262547 9.492177819674136 0 0 0
306 2 16.469509316573095 9.278420209109402 8.753861671489242 0 0 0
307 1 15.92586154795137 13.733006791730904 1.6464511885440356 0 0 0
308 2 16.606322623772954 14.41037118324589 1.5388612476307808 0 0 0
309 2 16.347524244879786 12.886557604155605 1.5091197873135687 0 0 0
310 1 18.28441821014429 15.352412681802287 8.572140318785875 0 0 0
311 2 18.824829553111417 14.578243027689288 8.30292572373152 0 0 0
312 2 17.97053322543834 15.305311497881926 9.534562432746515 0 0 0
325 1 11.218893105631624 4.440224051706976 0.6536873628606633 0 0 0
326 2 10.5873945799891 5.063613817289012 1.1069283790480204 0 0 0
327 2 16.634096054914213 8.613163668185997 13.43388978349055 0 0 -1
328 1 13.905293034782602 6.339974608174039 7.540249016558694 0 0 0
329 2 13.181031072207062 6.786753357974277 8.035671792258384 0 0 0
330 2 13.441795900937356 5.52143364718564 7.284569328737828 0 0 0
331 1 13.73062634234522 11.668934368167903 1.0597546512426497 0 0 0
332 2 12.958950123269565 12.134347925975952 1.408179987324818 0 0 0
333 2 14.342992615815463 11.356432307353622 1.7807034445311003 0 0 0
334 1 16.27624075403615 13.244359637428767 7.663862265742159 0 0 0
335 2 16.937294088050596 12.946731604406173 8.339482960237765 0 0 0
336 2 16.675929903671015 13.993439539616439 7.147057072859404 0 0 0
349 1 11.588237435762366 6.211318349572529 4.496268232247075 0 0 0
373 1 14.681018652645895 7.764815064806817 5.075279209230664 0 0 0
351 2 11.896794214661524 5.5190966233186485 5.068065936290649 0 0 0
352 1 14.38778946766027 8.08572062561283 10.984820275001384 0 0 0
134 2 10.315567407970189 3.2895652524845977 5.302209602416606 0 0 0
354 2 14.837729479240034 7.321816111687312 11.41721219431671 0 0 0
355 1 14.349263941755463 13.3612545264457 4.2007248739246545 0 0 0
85 1 8.687921812606486 0.9670267925304131 0.6622383372833273 0 0 0
357 2 15.023234233766543 13.471727950532435 3.4718845464929817 0 0 0
358 1 16.952982765895552 15.370689976925766 10.987886185025284 0 0 0
359 2 17.135154285469913 14.505648002353613 11.46937295166516 0 0 0
380 2 11.461323038077364 1.4808198782891866 5.014640984360738 0 1 0
285 2 19.900571769452878 12.661095700487294 2.1791312683934145 0 0 0
281 2 20.38732941017905 8.130638380521876 9.985431077646481 0 0 0
209 2 18.089955807053148 3.5764543828238575 8.686859634536027 0 0 0
350 2 11.601851058335672 7.012339944780978 5.078313821661808 0 0 0
206 2 16.494750828324396 2.7868288360897435 3.419713993821175 0 0 0
41 2 22.168618988937435 10.531796083619506 13.293894087392927 0 0 0
81 2 18.176957300326567 8.526118702495806 1.304983357997385 -1 0 0
135 2 9.804269960228178 2.447008970553173 4.007157611769971 0 0 0
45 2 21.720211906967865 14.520324240059864 5.540784635251269 0 0 0
288 2 22.443235895620802 14.33390059237226 8.534415762072555 0 0 0
212 2 19.273382994547674 9.671217884069122 3.1542019610570704 0 0 0
123 2 17.63815219851279 3.623621595623919 5.040879650660111 -1 0 0
36 2 16.91188645376414 16.443027782371527 12.373347329960142 0 0 0

Velocities

1 -7.6649725597032345 -0.7643479698259735 0.6259173652934753
2 -9.952333627126414 -9.54133566992493 -3.3782768475601026
3 11.973407115579906 -6.867009740980825 5.279307275101456
4 1.6939378000755037 -0.3998215526875369 3.670055773066591
5 -12.84953938375354 4.849160331901348 2.9303558899811804
6 11.147598928401166 -3.9566188106582705 -11.32097181626414
7 1.0156535641092355 3.897613006169582 -0.16219592875105174
8 4.878752477607007 2.4594444207839112 8.267476356003014
9 -10.23349113795327 1.3499395345319574 8.625709451423397
10 6.848098083694716 -4.415197962573052 0.4595693754545651
11 26.88913183019756 -8.954059763697904 8.615111267244645
12 20.753231209085648 -19.352506076432256 -2.812634244061364
25 1.3075481189269034 0.4348470431859282 1.9505589360140303
204 18.46648586828828 12.851425846575127 -2.402210781542523
27 10.733954798887991 -7.240416939273318 14.441428693142797
28 -4.163952829279411 0.7109368959758819 -0.25874595807873263
29 -2.1545178505821134 0.2057613547472618 6.013023279337193
47 10.698480134695233 5.230017345518577 13.916870424636
31 -0.4249674962590425 -2.2730493246400028 1.9293393844490478
339 -22.071657884750515 16.56754102801551 5.4009721511462265
33 -10.026536794998227 25.152933821375704 0.1993994127984107
34 1.673723346419102 -3.2805985863995155 -9.406340926309554
341 -14.02451059664231 7.6831050268174845 -15.374990394568142
372 1.1494602479918803 9.184700148982783 -14.713388551004167
49 -0.6730532043972314 10.949496561925258 -7.55872439874546
50 12.028532880740661 -7.7157485546975355 3.241695092695174
51 0.5551826217415662 12.558831769190368 5.404612570679409
52 -6.989248412899639 0.770569833546063 -4.489899109650649
53 -16.2708462706576 14.351670415012771 9.169104211281276
54 -2.4818897836724796 -3.5805626077692327 -9.414208927330336
55 0.17022058421449893 2.526150581591871 1.8314302349392422
56 10.128921976394675 -6.091955646899251 -8.47792677830638
57 10.26844004469727 -14.22910076999755 6.1511802139592255
58 5.384034364387264 1.985432609344793 -3.138520194397655
59 -6.803615471675592 -1.584213654643716 -3.062628892793445
60 5.0135397013984795 11.64286780133598 8.554515254758508
73 -7.71735179943951 -4.8981238265438645 -6.988192449449801
74 -2.6326790267004037 -14.846778297949502 11.457723785234192
368 4.107127000533886 -6.268707004118607 -0.3233311725703774
76 -1.4949020709167955 -0.3145542238438134 4.389447641677699
194 11.506543106041105 -25.817585297604435 -3.4206921588142123
78 10.999433937208753 13.583700341378073 -6.634029663296362
79 5.3730842469944795 2.078572733168802 -0.48050722864327505
80 -19.813225291831497 9.302227601440364 -7.082705446175375
131 -13.275614251889483 -4.16009639134026 -2.4832829173675797
82 3.7970795500956736 -2.344027377919345 0.017600947554508434
371 22.108611139682647 -15.119070468860587 6.489322114638031
77 -7.157372996267509 5.312060236434011 -14.340874355450664
97 -3.507962568520587 -3.131808056537812 4.463866653186921
98 0.8350883378899867 -0.09794592277868472 0.04968871623465306
99 9.454932085320774 4.178671112937571 8.48483324085028
100 4.643598000766134 -0.7154638033503582 -0.2702444640379746
101 3.8257262908394507 -1.0971621205016837 4.645589728967927
102 11.88111039562795 -5.411026205315537 -12.725337934661333
103 1.603776342974173 3.348303894003822 -3.0087666815271894
104 14.335429061870062 -1.4009065047781062 4.496582617615796
105 -10.188412896633414 -13.601133090893558 2.9104474253462014
106 2.582357020583 -3.5614637126528326 3.194445377849882
107 -12.070596000252435 -4.272443308258466 7.34254448068022
108 4.709105533969654 -11.052569080805858 -4.8331235187119495
121 2.5397389540988655 -0.737774871912065 4.353516587666434
122 14.858439727851927 -9.683919172677069 5.979595460094214
370 3.925475924266183 3.1303441536049834 0.5544887258674007
124 3.386673619812861 0.5396145932658711 2.6127450940928565
266 -3.8952498845132024 -2.1363711965794168 4.744302144720209