LAMMPS data file via write_data, version 8 Apr 2021, timestep = 0

768 atoms
2 atom types

-1.075361388633053 31.018708332087087 xlo xhi
0 14.137759043917843 ylo yhi
0 13.522428968127139 zlo zhi
5.098912720668639 5.062031757205113 3.5528890607926957 xy xz yz

Masses

1 16
2 2

Atoms # atomic

161 2 15.797181243923609 3.354055977362286 12.036643984606801 0 0 0
26 2 6.03251122773757 6.526737416926189 12.78796219956713 0 0 -1
295 1 7.894862312750239 7.484736167123065 6.204377531920155 0 1 -1
297 2 8.787127665568386 6.9918666493240265 6.10723735078532 0 1 -1
164 2 16.131509303316747 8.516089851895355 4.734574322746698 0 0 0
220 1 6.260825858636836 3.6087695210427433 0.2712897926261656 0 -1 0
371 2 5.011137132350049 2.351825139976338 4.216147151123639 0 1 1
467 2 20.69490646312498 10.065966508511897 8.216788720373728 0 0 0
352 1 10.010685368878352 5.7929784215645865 6.127349163961027 0 0 1
150 2 7.803813725737785 4.597320142242357 3.185512536178676 0 0 1
298 1 13.00889159176112 8.29059265916793 7.91492345449675 0 1 0
101 2 6.846363642167075 8.38581332453616 8.568325615987668 0 0 0
60 2 11.283291722321053 15.65634286581706 7.795664758423718 0 0 0
148 1 7.286477684544827 4.963318077221572 2.4695528540700344 0 0 1
106 1 1.1633870714977645 4.198653702866976 0.5067666564006416 0 1 0
105 2 10.600381066414432 3.3563719087941783 7.5631986769397335 0 0 -1
39 2 18.33291377225983 7.187765134862144 7.06882447074146 0 0 0
723 2 18.26699828627658 6.291544968522658 3.9406784723185146 0 0 0
162 2 17.263411188861582 3.8121551093180726 12.58255300178993 0 0 0
41 2 16.59854754611138 6.982885141887133 0.07701115611296175 0 0 1
58 1 6.416760787284333 2.2893759645992593 7.269111480513618 0 1 0
59 2 6.16743807945588 3.043834648451319 7.809129179824072 0 1 0
149 2 7.8438908965920655 5.560796139031455 1.9214680452023163 0 0 1
50 2 12.742564283019624 7.119331958352065 2.1373299317073426 0 0 -1
127 1 8.53714832791861 5.208555156803907 12.590222447798318 0 1 -2
507 2 17.307874290721582 3.053509935725827 5.029618417394785 0 0 0
124 1 2.630513184629547 8.587113551788306 0.8181434782679987 0 -1 1
218 2 8.861054893667971 6.942702151823095 9.846017452247414 0 0 -1
351 2 12.92632471804226 5.267627966148072 4.005535210283794 0 0 0
54 2 4.92421629391872 7.79389624452817 9.961629598551884 0 2 0
3 2 9.173716253377941 14.687327177185606 13.483128058569488 0 0 -2
170 2 3.261379018247041 3.508174951274636 4.89119192502939 0 -1 0
353 2 10.765565578836906 6.4224956034446254 5.9454314140384765 0 0 1
219 2 10.432473113221715 7.096751760067786 10.172089773202801 0 0 -1
61 1 8.862590499711171 3.985569600011786 4.390387261596257 0 0 0
315 2 6.430591219613879 6.766049751887914 3.02780272544082 0 0 0
92 2 4.011663928570046 5.824002211575755 1.4197094354168442 0 0 0
324 2 11.463784171617904 16.789144968833455 11.763435577485602 0 0 -2
65 2 14.510923426264057 5.1766905252734015 10.942737367006007 0 0 0
233 2 15.47215332776321 2.975138886908391 7.963011218788623 0 0 0
217 1 9.61575837070989 6.654449069305937 10.46019444987448 0 0 -1
257 2 16.440800369181442 6.358941344794312 8.090361920427153 0 0 0
38 2 18.135828389208505 8.46468329903703 6.144039627878501 0 0 0
94 1 12.307334028819787 7.2178225400216105 5.435713761180686 0 0 0
108 2 2.0751000180801347 4.6006431669235885 0.38040569181196005 0 1 0
128 2 7.595572427434399 5.080046984370067 12.553477859577638 0 1 -2
372 2 5.225792187117496 2.7448102650680832 5.679163523530751 0 1 1
274 1 6.64489652725976 14.05211255232978 2.6376816522849196 0 -1 1
140 2 5.001478306766491 6.516292347614828 4.470745679986372 0 -1 1
100 1 6.0716417459433 8.780375898482365 9.022327515084347 0 0 0
63 2 8.706088442787904 3.110528342501618 4.8815494331536495 0 0 0
129 2 8.78253097300574 5.904615005026336 11.985230539915495 0 1 -2
222 2 6.40470983314367 4.173241298049823 1.0579592386205692 0 -1 0
64 1 14.8767621164021 5.156424125933535 10.080694399472772 0 0 0
111 2 7.7468038128473315 2.7407574100149725 1.3698464514599116 0 0 1
13 1 15.040905731035254 6.9367437354896095 5.365969676323597 0 0 0
62 2 9.269922160576742 4.616868217889521 5.018927014297471 0 0 0
332 2 11.54030286390099 4.999834539071414 1.4409216149967823 0 0 0
275 2 1.4328074128447945 0.9111012009165846 2.6315606348385088 0 0 1
250 1 9.633973254367245 4.306073299457889 8.557538625238816 0 1 0
368 2 6.930656949070843 5.758077955372555 8.777318725559812 0 1 -1
102 2 5.5172791375036185 9.271402527330403 8.378538786088717 0 0 0
349 1 12.682929240218652 5.480885730051505 3.0486292571877884 0 0 0
81 2 4.557916892586761 1.226074745326983 0.42800722694507487 0 0 -1
85 1 13.90055590832682 10.096840374151668 11.354122408047342 0 -1 0
302 2 13.438668016126895 8.41605738709443 11.628692059125552 0 0 -1
301 1 13.059119206967042 7.591277825066722 11.92042082864292 0 0 -1
103 1 10.982662856870466 2.7586943701599984 6.876368589594052 0 0 -1
6 2 10.209511274930183 3.137420132358091 3.402877942064156 0 -1 0
303 2 13.81962995620645 7.012373441340938 12.201397896922808 0 0 -1
305 2 16.16673997341984 8.829923694440758 8.04967685167498 0 0 0
239 2 18.13834758730487 9.336598235285502 8.858217745763731 0 0 0
11 2 4.0381804407228366 5.780495096373398 6.805373938296351 0 1 0
333 2 16.440211918573446 9.180580466953607 13.437285825538138 0 0 -1
346 1 5.6464309155779375 4.545703547021324 9.070486027320854 0 1 0
110 2 9.071153319033208 2.277635951534838 0.8131995090577426 0 0 1
331 1 11.03718776845291 5.0630385071834185 0.643480226359848 0 0 0
9 2 13.21946148186983 5.154758657616184 7.345351520564686 0 0 -1
4 1 11.111538475615708 3.1798278507242426 3.092362972638889 0 -1 0
8 2 13.479305397193528 5.492728033295633 8.826203377514032 0 0 -1
5 2 11.49074975248713 3.9982934357634567 3.4798430425452533 0 -1 0
7 1 12.845547074080741 5.60194993855398 8.129380021100136 0 0 -1
377 2 16.889511324517226 8.636062200094836 11.396085869436371 0 0 0
112 1 15.193732502591333 6.234509683465192 13.196659746224212 0 0 0
304 1 15.654871303717327 8.018484189374641 7.9000339876483885 0 0 0
367 1 7.807839751064297 6.212052469133264 8.54687052926942 0 1 -1
350 2 13.407143196324043 5.070421644446515 2.463728675367456 0 0 0
113 2 15.781714893238613 5.455071768374567 13.030519626323631 0 0 0
376 1 16.72176044174144 9.494227553752502 11.844456179650601 0 0 0
114 2 15.707794865501468 7.039017313035726 13.392422038869984 0 0 0
66 2 14.950837493934989 4.192180408567927 9.925321455219066 0 0 0
14 2 15.196447257080704 7.341544741176177 6.213013566311716 0 0 0
296 2 7.41265800912145 7.3394906258952135 5.388157654456268 0 1 -1
369 2 7.627543913812247 6.618901266692328 7.660121098730546 0 1 -1
280 1 19.365186721000754 7.566174755817375 9.485417275215443 0 0 0
109 1 8.417577540854944 2.033987400085105 1.5116768204256719 0 0 1
87 2 13.983447418451414 10.418399673404009 12.238202891934305 0 -1 0
184 1 18.662655974305817 5.962317421222583 13.006594069996348 0 0 0
277 1 16.84684608834069 6.3647825860266805 2.931964281446132 0 0 0
93 2 3.254441216322199 6.138819891658256 2.737950616194093 0 0 0
15 2 14.08773011955147 6.915410242444723 5.234232659470896 0 0 0
299 2 12.745703980456625 7.438002541409408 8.353760857785415 0 1 0
281 2 20.1005121979218 7.593018219983487 10.10000869591033 0 0 0
160 1 16.47442624564464 4.1426885012993 12.144439457419866 0 0 0
17 2 16.322219947075496 6.298862722080799 10.72430915405653 0 0 0
37 1 18.811778828026718 7.881357374951737 6.544475022771008 0 0 0
18 2 17.71993917192397 6.958246704884057 10.251985975577602 0 0 0
231 2 12.959978070961274 1.4084320457426185 1.0447734860530042 0 0 0
104 2 11.788778356988953 2.369864306604075 7.293272037234419 0 0 -1
205 1 15.59817430018528 2.494132299723595 2.5645029759104983 0 0 0
210 2 17.629528615119952 3.471549440865175 10.587803702052959 0 0 0
186 2 17.926313246490807 6.245418439442268 12.408646222241241 0 0 0
232 1 15.103285233864485 2.6642591752220643 8.789206441301845 0 0 0
354 2 10.160704127591735 5.473500017124855 7.05211054137386 0 0 1
44 2 20.622285126793837 15.347369497705893 6.115878026035621 0 0 0
183 2 16.533514168654442 4.64197965297589 6.769851741066807 0 0 0
40 1 21.03861181289986 9.936604064536219 13.157893922275276 0 0 0
207 2 15.344315971192126 3.3340840419369835 2.1449829069471913 0 0 0
208 1 18.19994966473557 3.7978104772651404 9.840342350966388 0 0 0
279 2 16.567503257215535 7.152670592753566 2.377968515752718 0 0 0
254 2 14.767727622102152 5.281341896935721 0.8094193479944478 0 0 0
181 1 16.16741472093373 3.8720947472710514 6.245948833054025 0 0 0
182 2 15.438698359358446 4.291030295681992 5.780121779807188 0 0 0
256 1 17.12572390541948 5.689897649843283 7.895688057570214 0 0 0
255 2 13.905331237793458 3.900894209115762 0.5050628414375526 0 0 0
253 1 14.370891175073316 4.501793355630735 1.2123705300423364 0 0 0
157 1 14.052820188039005 1.761129455624224 4.894849237980441 0 0 0
185 2 19.343348919099334 5.656353061866884 12.404095955422653 0 0 0
278 2 16.125720103324824 6.339557257671452 3.558706893572131 0 0 0
159 2 14.386865067224162 1.8223951172412662 3.958085479739964 0 0 0
16 1 17.012492323172268 7.001704109620801 10.930247263478115 0 0 0
258 2 17.25497148920096 5.21547467232574 8.750352497940034 0 0 0
370 1 4.855933610430202 3.0790496174050452 4.8481617206430485 0 1 1
80 2 5.804501311220041 2.0219276069227026 0.6868246183474116 0 0 -1
306 2 14.726302490012701 8.230575207847481 7.894075924043937 0 0 0
79 1 5.316567685668452 1.239776045201605 0.9902812939783379 0 0 -1
246 2 7.716388789593592 8.46721237174769 2.2296567672350136 0 0 0
459 2 15.645908408328717 1.2490381756825009 1.4105537585256653 0 0 0
300 2 12.52556697407442 9.024783408445877 8.28219765064178 0 1 0
221 2 12.047634618313186 7.38151059180273 13.106495596011648 0 -1 -1
348 2 4.770097747335149 4.938441024391294 9.041601378624252 0 1 0
251 2 10.029345602200435 4.396592182238149 9.48142635495418 0 1 0
139 1 5.043462503821832 6.011459630843874 5.271739315599465 0 -1 1
276 2 5.862437696190761 13.691204100637655 3.129799759946472 0 -1 1
313 1 6.673016597622294 7.651769146518994 3.3648045777611935 0 0 0
252 2 8.876330027867642 4.975957695643481 8.635957012939297 0 1 0
91 1 3.9999597421690067 6.412499561786568 2.217844486361044 0 0 0
195 2 13.678704564601766 3.277549232357583 5.4617187431502625 0 0 0
229 1 12.503782613310433 1.0967259780154 1.7885317971534456 0 0 0
194 2 12.383581853361862 3.9358970197099343 6.0382689221831765 0 0 0
193 1 13.199050847352487 4.118252698686879 5.57766039237504 0 0 0
141 2 5.4644989315384 5.176344076660858 5.001319815584281 0 -1 1
234 2 14.236528304654438 2.3364109084396576 8.582940317725402 0 0 0
96 2 12.516897216887436 7.686019444773037 6.247873156010833 0 0 0
34 1 12.798537988728746 4.445426013438218 12.27895102442123 0 1 0
380 2 16.088974552978883 14.680319278004113 4.443584951121361 0 0 0
158 2 13.19047237161316 1.3346400070606899 4.830969093261495 0 0 0
27 2 5.237626062451178 5.993175759781468 11.65167653705467 0 0 -1
35 2 12.965991294288623 4.817688063715906 13.149314018893394 0 1 0
267 2 9.384047933494491 1.888372416870722 6.315994685958375 0 0 0
266 2 7.75116419541171 1.9476230876500975 6.359528523014812 0 0 0
1 1 4.006244340379595 11.84086598069751 0.6605209733968679 0 0 -1
86 2 13.503123250540149 10.879085954495022 10.85879172585274 0 -1 0
226 1 12.726525239551638 11.220081645328321 5.4842318355017365 0 0 1
77 2 10.885398580977682 12.005261376718803 7.865511328693769 0 0 0
227 2 12.02952908236604 11.332748583483577 6.189999972181365 0 0 1
82 1 12.557576714487356 12.168353252514876 10.296528051082243 0 -1 -1
166 1 19.084488793070356 11.007999418185442 11.887402952798862 0 0 0
228 2 12.774134875797152 12.135877142734204 5.102212468937259 0 0 1
330 2 12.290855951220085 9.99446317525851 4.525841789699293 0 0 1
132 2 8.441000423247921 8.97219596638283 7.148825273660045 0 0 1
174 2 6.740539937251589 10.18502829583656 10.019050906519224 0 -1 1
120 2 17.818386999907897 13.898696213638543 13.440661448278284 0 0 0
176 2 9.591812613430983 14.077222070789247 11.107083363417068 0 -1 -1
294 2 9.82780473920309 9.842789104679467 10.652993417536472 0 0 1
270 2 10.423781221353254 14.191376257066317 8.881756448845659 0 0 -1
118 1 17.466253128567462 13.060993222244726 13.082603055551631 0 0 0
322 1 11.152065037007205 16.680980799606015 10.811516431301966 0 0 -2
238 1 17.48288557494933 9.981941340378276 8.559208004892728 0 0 0
2 2 4.635087039640644 12.51813852875013 0.516232465292239 0 0 -1
196 1 13.755605444868584 11.939597881459761 0.5656737924013101 0 -1 0
83 2 12.692452527965186 12.717155117532116 11.153235401035454 0 -1 -1
290 2 8.953615542067451 7.323099041789391 1.1149624542465277 0 0 0
334 1 15.808991138151056 13.11624214084124 7.33239102977946 0 0 0
285 2 18.796152167820214 13.576520362815486 2.2814495943401543 0 0 0
169 1 2.290709791649964 3.736886914181226 4.981900203022949 0 -1 0
147 2 13.894756475485519 15.989394543317069 11.529604613879286 0 -1 1
364 1 5.54014149935844 9.9668245815725 2.7328114647507693 0 0 1
320 2 8.027988783582085 13.38090525898165 3.343249835254381 0 0 0
344 2 14.322017268614331 13.801780846364531 7.830979712223829 0 0 0
242 2 8.861794684243508 12.528974591892023 13.152451741506887 0 1 0
209 2 18.16216321757073 3.17886555692207 9.133186769365432 0 0 0
45 2 21.560098601392138 14.231002087663835 5.636128262617118 0 0 0
282 2 19.713087966041986 7.003777905008654 8.799956447098138 0 0 0
56 2 9.761924619471538 11.73798061962929 3.357409407626042 0 0 0
168 2 18.603080279796384 11.834516868759264 12.204734644075918 0 0 0
245 2 8.77747176446368 9.592398408392295 2.1449199454830836 0 0 0
145 1 13.836751345297817 15.45589928222301 12.345751500217421 0 -1 1
57 2 10.467399756563962 11.58891822624654 2.0148901765456055 0 0 0
328 1 11.920073338723842 9.35181945182487 3.804492276601184 0 0 1
199 1 7.372308316551924 10.672480253550757 4.958047238197031 0 0 1
28 1 10.878663441078888 12.637816597843488 0.7529698374357108 0 0 1
336 2 16.13390650735095 13.79744468242658 6.675093883250895 0 0 0
366 2 5.344452675332318 10.56793338951787 2.0100085383393207 0 0 1
287 2 21.43266536437821 15.386857448318423 9.066448837796356 0 0 0
224 2 11.37596445704804 14.515751507475821 3.829986845400817 0 0 0
55 1 10.215079199013635 11.064946445988078 2.809332478059687 0 0 0
216 2 20.200084816682736 11.979257830153875 9.150853828375833 0 0 0
329 2 11.216475066718347 9.915419871938663 3.3225371879285803 0 0 1
33 2 8.836551675008486 8.917250233282424 12.629108684820972 0 0 1
312 2 17.61960353615892 15.23065351903944 9.17541691403684 0 0 0
335 2 16.495070609779635 13.15567590835438 8.050695165821137 0 0 0
97 1 12.91204458832166 13.696111561946452 4.3496673148755 0 -2 0
268 1 10.726981488679021 14.04506373660684 7.9085374915496 0 0 -1
98 2 13.643350812486327 13.611639487448837 3.719555987667383 0 -2 0
310 1 18.006500205476996 15.306443188336953 8.294333771995642 0 0 0
273 2 9.004191843887416 2.8673466746633856 9.386792082030082 0 0 0
197 2 14.151322588471649 11.685883376557165 1.420692418162766 0 -1 0
241 1 9.45645880955516 13.004429962018596 12.492520389910132 0 1 0
345 2 12.772866798656196 14.062543295969906 7.790727797499885 0 0 0
319 1 8.736809855491869 12.96079226536033 3.917510367703515 0 0 0
272 2 13.652133011914787 15.56264308162211 9.317517388156181 0 -1 0
264 2 19.394442899641728 12.536259841721577 7.335304029133121 0 0 0
142 1 15.280544472037429 13.397610889139784 11.51958713995991 0 0 0
263 2 20.399801850047755 13.694608851013895 7.20482088472441 0 0 0
121 1 6.860479999664479 13.099671340343022 0.22259883982754042 0 0 -1
269 2 9.965496157808401 13.97016868283541 7.367142052532295 0 0 -1
317 2 1.1302816627514505 3.177116334643271 1.8073047189620903 0 0 0
215 2 19.99160860817736 10.858198540327612 10.257770854623146 0 0 0
271 1 13.539102735768482 16.406405348579447 9.878418931564145 0 -1 0
262 1 19.852837822204894 13.250878236402475 7.827966264803866 0 0 0
167 2 18.387499945128432 10.31182943645525 11.873341065435913 0 0 0
192 2 21.65920037239137 13.765433081106217 13.435611991197925 0 0 0
214 1 20.564188111607876 11.105463693894778 9.519580950350273 0 0 0
240 2 17.91156156283982 10.521247613146095 7.86207475181505 0 0 0
321 2 9.387480435520901 13.697123862870644 3.8714787059688445 0 0 0
343 1 13.502097978211257 14.137858408325217 8.36275627093802 0 0 0
153 2 11.299834318184791 4.208859620267229 11.663037462235488 0 0 -1
230 2 12.14407062737503 1.9149240031228076 2.264664516047198 0 0 0
291 2 9.505252024398192 5.894628180832551 0.7811103291553109 0 0 0
173 2 8.028891644882982 10.79873565960286 10.603305841954214 0 -1 1
51 2 12.322628192247297 8.550993515145276 2.2994426706603193 0 0 -1
200 2 6.454946059166152 11.014644687689831 5.145961718936987 0 0 1
88 1 11.306839186144545 9.665055959944661 9.58683536246246 0 0 0
198 2 12.927132336821929 12.388370394708794 0.7413089918865872 0 -1 0
84 2 12.761415015247763 12.845254473257551 9.61514093190964 0 -1 -1
152 2 9.665392210853346 4.033935292189345 11.559852692095697 0 0 -1
311 2 18.551862492381737 14.514475568728905 8.22134626718619 0 0 0
359 2 16.626484904514857 16.52854381588128 10.82942894453374 0 0 0
265 1 8.505834837353005 1.5875037495989277 5.890154893753393 0 0 0
318 2 1.3851854591632817 3.106495823927465 3.4028598116298685 0 0 0
72 2 17.509077664617458 11.483043508370638 9.737546935639251 0 0 0
42 2 20.365240080950056 10.408766797054637 12.57306730943026 0 0 0
177 2 10.201289781999037 15.431644523803147 10.524975951426761 0 -1 -1
190 1 21.140951875626545 13.095122869599876 12.932125508153659 0 0 0
223 1 10.496389561953853 14.940910940164862 3.561684310253632 0 0 0
191 2 21.76327737797243 12.575546171869556 12.341013405699513 0 0 0
382 1 19.725090206372382 16.509497658292158 11.983833014532294 0 0 0
19 1 17.293911617102307 11.945577586064099 4.150575246570638 0 0 0
20 2 18.019136935120596 12.071209793193182 3.472911008024106 0 0 0
21 2 16.53445000510989 11.517646285537326 3.752049967402511 0 0 0
379 1 16.909343016005888 14.523204950263064 4.932892725105804 0 0 0
43 1 21.40789569559107 14.856311529620628 6.43575558527202 0 0 0
381 2 17.075926087428062 13.575457256171067 4.684357665636498 0 0 0
67 1 14.80962046580365 10.990314234322334 3.1174826130632547 0 0 0
68 2 14.213053626089277 10.517552117406487 3.70661574215979 0 0 0
69 2 15.051580607705029 10.232061208907561 2.5634978621129014 0 0 0
119 2 12.407182767041292 8.843089068247165 0.3099821788868192 0 0 1
146 2 14.252613299693856 14.602105166532667 12.050889981427675 0 -1 1
360 2 16.45797284500025 14.985133209700919 10.807010030634082 0 0 0
115 1 15.3616232998502 10.64719235294486 6.340072916564185 0 0 0
116 2 14.439644897404603 10.793031610541917 6.142137956609572 0 0 0
365 2 6.405525873470933 10.318345199864236 3.0733266374526877 0 0 1
136 1 12.094431567466753 13.466497652160166 12.857261500245995 0 0 0
144 2 15.546450871472958 12.906903576442815 10.70611673124972 0 0 0
383 2 19.437986206422494 15.808527575611057 11.398287305699506 0 0 0
163 1 16.902095194616223 9.137639747860367 4.9544510747859505 0 0 0
286 1 22.059649051798438 14.637136235441618 9.30237185024128 0 0 0
165 2 16.47144196326945 9.789936401759443 5.585887687910417 0 0 0
187 1 18.594439079297256 11.337065632341128 6.438187252851102 0 0 0
188 2 19.203012453424986 10.859337884940441 5.821838148681104 0 0 0
189 2 17.907350051141112 11.659271968223598 5.842265760683175 0 0 0
30 2 15.813224749659055 15.997497726032593 13.350682226803155 0 0 0
211 1 18.32473868179429 9.919611833852128 2.7812816447149293 0 0 0
213 2 17.530805901665417 9.692007181936175 3.435861043431404 0 0 0
235 1 15.512263665363983 8.52130791668178 1.970032581042872 0 0 0
236 2 15.749028485034232 8.820281736807248 1.0765564001873267 0 0 0
78 2 10.097937228906959 10.674996692697164 7.331914106198476 0 0 0
260 2 18.06437331310436 11.823069423672454 0.0654640381776359 0 0 0
465 2 18.339341159016307 8.658462502146374 1.298020598076542 0 0 0
259 1 17.520733112499215 11.299561704020183 0.731430981458144 0 0 0
117 2 15.657600490946065 11.463401696614842 6.80897335512637 0 0 0
261 2 18.091023533529306 10.985001591703433 1.4370101806510935 0 0 0
283 1 19.449210554488104 12.897017878703142 2.6715546411793833 0 0 0
347 2 5.571126004902906 3.838527849159258 9.76877462829524 0 1 0
171 2 2.1350505162240427 4.6142936599764255 4.519304149056675 0 -1 0
307 1 15.12611271793706 14.239056745425305 2.7154452995009475 0 0 0
89 2 12.042247274953196 9.97065040928971 10.157675220756122 0 0 0
309 2 16.032408917248432 14.371221245935336 2.408879561231066 0 0 0
29 2 10.680299361096324 13.640059401531298 0.7639669590846333 0 0 1
49 1 12.809990607236939 7.956546202491639 1.6973596709933438 0 0 -1
175 1 9.648111442435466 14.656875502623866 10.308300189094425 0 -1 -1
326 2 7.414159497284225 15.05389175860083 6.696738468469031 0 0 -1
358 1 17.090101635272706 15.695172263332195 10.728191456684621 0 0 0
289 1 8.735573003650053 6.486755143532549 0.7457641661016735 0 0 0
22 1 19.48328155834476 13.884529926346687 10.756174448723987 0 0 0
23 2 20.2129162577634 14.140189057099956 10.192059154625438 0 0 0
24 2 20.046459870528924 13.599480179069216 11.530868584069763 0 0 0
143 2 16.035388268164194 13.299856535876337 12.123513310510205 0 0 0
46 1 24.06520210044341 17.038705629882177 13.05567059068687 0 0 0
70 1 17.198227749596025 12.423503299476495 9.799821031870042 0 0 0
71 2 17.993268627960763 12.83043553400432 10.2017124418575 0 0 0
325 1 7.914629495400107 14.217292949126769 6.660186645493602 0 0 -1
130 1 8.671013183388222 9.921364637550264 7.128693100166099 0 0 1
151 1 10.550951025278641 3.7387961178337674 11.210322881223153 0 0 -1
201 2 7.84618688536401 11.427760609614797 4.567307063197097 0 0 1
323 2 12.005176475880933 16.659702069173598 10.379993860886259 0 0 -2
131 2 8.176203204770367 10.335939822940306 6.399130130389307 0 0 1
76 1 10.972797052939201 11.11967810695629 7.438871664559912 0 0 0
327 2 7.896820531437522 14.033252499346359 5.699431680980305 0 0 -1
32 2 4.046236491677816 4.059834340222386 0.049074669251500905 0 0 2
293 2 10.10405402729732 10.642393925935368 11.8216870042334 0 0 1
243 2 10.411718439486544 13.06389710864165 12.847210416424456 0 1 0
25 1 5.70932318642446 5.716604041736334 12.429896115603158 0 0 -1
99 2 13.256423406002233 14.410826605712726 4.9224249822779 0 -2 0
384 2 19.571324285614665 16.14783345104559 12.914576849411253 0 0 0
172 1 7.098605030769018 11.062920223644662 10.258892186674812 0 -1 1
122 2 7.7638103564626695 12.866892940779454 0.1628715547275692 0 0 -1
244 1 8.198305116393783 9.041819444065988 1.5896902350705988 0 0 0
314 2 5.934555763315134 8.218984576594353 3.1214872325731693 0 0 0
292 1 9.350424753477865 10.20785951780217 11.47694716242789 0 0 1
180 2 6.97497030533136 13.087612625145933 7.943879904071942 0 -1 1
123 2 6.686913844564327 13.467735611167097 1.0801072498818731 0 0 -1
90 2 11.243190774465774 10.307784030198071 8.891594792793772 0 0 0
48 2 24.874137547255764 17.323525144280765 13.47581747747354 0 0 0
308 2 9.50984661008156 0.7635993312640557 2.2915349134810787 0 1 0
137 2 12.30178560928705 14.381268146162512 12.59659745243147 0 0 0
125 2 2.9984267522899932 7.855174071041805 1.3737382634806312 0 -1 1
378 2 15.868743576705763 9.874344190877506 11.46918651315751 0 0 0
36 2 13.413407007903754 3.684709085449294 12.101132862070004 0 1 0
316 1 1.150297241182115 2.5910817897239413 2.618762705166721 0 0 0
225 2 5.4108566556477316 0.9238932408944504 2.570321649975183 0 1 0
31 1 3.6460428792742627 4.917754093548778 0.00957085685624673 0 0 2
138 2 7.426454957039431 9.82752538476789 0.2435298556042028 0 0 1
95 2 12.251102657516205 7.899116314203859 4.716705482104611 0 0 0
237 2 14.593287654145216 8.163586869123138 1.8341388701088304 0 0 0
212 2 19.112381988297244 9.874986322999415 3.3752577558104 0 0 0
74 2 4.435095220297899 4.762754615016581 13.377541796848588 0 0 -1
134 2 7.722918056418716 15.375582418755267 10.228809436184669 0 -1 0
178 1 6.193459836243811 12.63288251706168 8.270301317726933 0 -1 1
179 2 6.531186084070568 11.992967922998995 8.91039704782803 0 -1 1
288 2 22.424902862530967 14.336226947787868 8.465370227610176 0 0 0
206 2 16.33384475505206 2.719975442906503 3.2211611825153934 0 0 0
284 2 20.07436492855222 12.74595086329258 1.927845134877109 0 0 0
10 1 3.394471620166886 5.597671987789822 7.5168483929124195 0 1 0
247 1 5.2031815785874 11.694730443009828 5.952615563363581 0 0 0
248 2 5.377687395795116 12.16742240548246 6.748212036921695 0 0 0
375 2 4.048750810319733 10.162227903982838 3.7807371268660184 0 1 0
468 2 20.06250417375528 8.9363660557479 7.2931009014875805 0 0 0
47 2 24.29946034066485 16.54169370201747 12.205839136450933 0 0 0
12 2 2.766757670171656 4.999809494390207 7.126416281381053 0 1 0
385 1 22.06054111551795 5.1992255917349235 4.1125232019554945 0 0 0
386 2 21.788286608396056 6.109628218785376 4.443892510140916 0 0 0
387 2 21.22278285280357 4.7516983681810965 3.691925591301319 0 0 0
409 1 26.215628443242725 7.965499226241111 6.123560646022186 0 0 0
483 2 19.218088224200585 3.8115891385975793 6.731219872685791 0 0 0
425 2 36.650890237484816 10.142057376603088 12.527928471121642 0 0 0
470 2 29.018000089517933 14.384530949297178 1.1976485931342886 0 -1 0
433 1 20.061185760685422 3.77511780226372 3.053577645758338 0 0 0
434 2 20.30618127471326 2.9555258847298633 2.5786358068541366 0 0 0
435 2 19.552669134124184 4.254405779369629 2.2700528455739373 0 0 0
602 2 20.997682624684682 0.6612149838830181 1.985197248184289 0 0 0
204 2 33.092615731775936 6.090492267797679 3.456084847675757 -1 1 0
677 2 22.0697821541604 8.855913678406873 8.427459176861532 0 0 0
481 1 19.90277237493412 4.357458532001717 6.252303846992415 0 0 0
482 2 19.531486854182145 4.817705272325287 5.536572521637442 0 0 0
650 2 25.02606610689518 6.386543682161944 3.328776248370932 0 0 0
505 1 17.7405187082985 2.526520623129592 4.378010276586577 0 0 0
506 2 18.566804039189556 2.977237799813447 4.057310751714857 0 0 0
529 1 21.496102168975245 2.1757441137853686 5.358897147877889 0 0 0
530 2 21.042915177250535 3.0160525919237795 5.6078585806299035 0 0 0
531 2 21.67241950698669 2.2176675783138444 4.428246861467746 0 0 0
553 1 23.957621257255397 4.253604455997253 5.850491370218482 0 0 0
554 2 23.196161363291534 4.605089641183192 5.369148191084696 0 0 0
745 1 22.00391386048702 7.714521872758053 5.076355059512699 0 0 0
577 1 22.864586761882897 2.5353377986783525 2.725069302477641 0 0 0
579 2 22.719822785849626 3.3688068578751333 2.2501859343355837 0 0 0
601 1 20.35324141341686 1.326037974474358 1.630694433026261 0 0 0
666 2 34.905771515913 7.298428599212146 9.852574386738937 0 0 0
603 2 20.709185919701206 1.515703659959494 0.7638353182391244 0 0 0
410 2 26.90155406416584 8.48521589915853 6.645581680527708 0 0 0
625 1 22.229616040198632 4.688073413131084 0.9779557142200808 0 0 0
627 2 21.747049670005957 5.372941952214201 1.4759492969758088 0 0 0
649 1 24.31741598090381 6.117121696839371 2.6605434503882983 0 0 0
578 2 22.891334234344658 1.923966191102359 1.9875668451901292 0 0 0
651 2 23.57037711241905 5.729142995428837 3.1614360586479955 0 0 0
673 1 20.551695213461496 6.851385249411376 2.1286936063078343 0 0 0
361 1 36.6479436929314 13.290241935929078 4.0927578867660666 -1 0 -1
675 2 20.292055186725822 6.700267059220363 3.056586767339034 0 0 0
697 1 18.539337926226302 4.7403914202714 1.0550113414287652 0 0 0
593 2 32.2712391412206 4.080336137235205 9.574000261432055 0 0 0
699 2 17.776767799619872 5.249603192704098 1.4654083532499191 0 0 0
746 2 21.830490921325755 7.443940854420217 6.020129688855361 0 0 0
721 1 19.06738152005091 6.198024668515346 4.421231860957759 0 0 0
626 2 23.062867239635867 5.146622956466071 0.692799363501496 0 0 0
75 2 30.795919001215097 1.0732745475719168 1.2581946121014569 -1 0 0
411 2 25.707837577865085 7.4598118700101 6.8062601665535505 0 0 0
678 2 22.616268494435715 8.343827855548664 9.75029374130212 0 0 0
388 1 24.501888103248607 7.178355839661973 10.825560987414788 0 0 0
389 2 24.347198257190886 8.093706440312346 11.230101027608807 0 0 0
390 2 25.0670543611399 6.7365641313014155 11.540137723689266 0 0 0
412 1 29.06374158851944 9.938763711125812 13.028927136179373 0 0 0
107 2 32.67270186729434 4.909698802748899 0.8158557583813894 -1 1 0
436 1 22.409276430864306 5.543261430710483 9.678728296022335 0 0 0
437 2 21.59173543110158 5.445047483282435 10.219450829631496 0 0 0
438 2 22.95190056258166 6.182106588995645 10.18551884612514 0 0 0
337 1 33.39719098695285 2.469673228656727 7.097417250920038 -1 0 0
654 2 27.636164503310447 7.773030881275871 10.0698680908137 0 0 0
748 1 24.488679839275925 9.585254860529504 12.04688269235555 0 0 0
485 2 17.87942156084403 3.331377538261604 0.29883212010825855 0 0 1
484 1 22.641473871504516 6.306154943874597 13.103792657791896 0 0 0
508 1 20.376059382436612 4.794948380906213 11.092951454469164 0 0 0
510 2 20.75723136728402 4.028769954453638 11.508694860602262 0 0 0
558 2 26.81944849009339 6.913144958750901 13.03472121003852 0 0 0
532 1 23.86647037572328 4.043320732824808 12.077907507379862 0 0 0
533 2 23.511622542205746 4.955754074363422 12.283289830525666 0 0 0
342 2 34.42470336856302 4.727204284197156 9.912175259429667 -1 0 0
556 1 26.424952176015623 6.087668281283638 12.705154535340183 0 0 0
557 2 27.13572260012401 5.625410688326814 12.244708767121729 0 0 0
580 1 25.532098272430808 4.370403118269524 9.535904369207358 0 0 0
581 2 24.810675706649217 4.368051321979699 10.163069802591929 0 0 0
582 2 25.394699572748593 5.194075203273843 9.048579395267245 0 0 0
630 2 24.24203195760678 5.677366097804363 6.830204549474155 0 0 0
604 1 22.772955332909547 3.0877046173673404 8.318687675388833 0 0 0
605 2 22.62971199140299 3.906776298259427 8.806193348689657 0 0 0
756 2 27.793740842219815 17.16187041428523 12.033811190704192 0 0 0
462 2 24.2553396001132 16.03053096644864 7.729027944545738 0 -1 0
628 1 24.580850873241545 6.298534778062759 7.497036739238281 0 0 0
629 2 23.82065355189848 6.751596918475229 7.8350595371746445 0 0 0
509 2 19.59215495705216 4.457348506260436 10.495536266772742 0 0 0
542 2 28.362526802687295 1.4373332001753412 4.951635405043986 0 0 0
652 1 26.889236252702887 7.631054290102803 9.43278067239687 0 0 0