LAMMPS data file via write_data, version 3 Mar 2020, timestep = 1000000

1008 atoms
2 atom types

2.2715189272842018e-01 1.8172403107265090e+01 xlo xhi
4.0058878518781427e-02 2.2530330121477235e+01 ylo yhi
1.7448044510416238e-01 1.9331235554888778e+01 zlo zhi
1.3170949708458000e-02 -6.6996539719343140e+00 -3.7524624489397973e-02 xy xz yz

Masses

1 16
2 2

Atoms # atomic

1 1 6.6736132391033891e+00 9.4676580579608316e-01 4.9579153691126523e+00 0 0 0
248 2 7.5657799604595306e+00 8.2509450666142286e+00 4.5995805883235674e-01 0 0 0
3 2 6.7892498757660293e+00 1.3271044321082459e+00 4.0248053930736827e+00 0 0 0
4 1 4.0402408221668553e+00 1.1587345494251200e+00 5.2475669258390782e+00 0 0 0
5 2 4.9900887240203557e+00 9.9407075282729951e-01 5.0673621560691000e+00 0 0 0
6 2 4.0060086836454563e+00 1.5383820417715057e+00 6.1500067555885831e+00 0 0 0
7 1 -4.4895645953149543e-02 6.3987473126538141e+00 4.7807242252255211e+00 0 0 0
8 2 -1.8332702424178304e-01 5.9810568473974906e+00 5.6464391263158840e+00 0 0 0
9 2 -5.4069540607678646e-01 7.2407580775137763e+00 4.8060920852746367e+00 0 0 0
10 1 2.6453702871142117e+00 6.4572749417794553e+00 4.6960729861456549e+00 0 0 0
11 2 1.6709601756641936e+00 6.5601157741378175e+00 4.6636560480513110e+00 0 0 0
12 2 3.1610822681361683e+00 7.2659030696242644e+00 4.7804156857508504e+00 0 0 0
780 2 1.3246268124199034e+01 9.4198234958841827e+00 5.0651846487938368e-01 0 0 0
14 2 5.4167561212814430e+00 5.0745048932112260e+00 8.7729483054295603e+00 0 0 0
20 2 6.0456835364795947e-01 3.4425648455600619e+00 4.7959794038758147e-01 0 0 0
16 1 5.8926482717947062e+00 4.7139032381711390e+00 3.0537896864827685e-01 0 0 0
18 2 5.7124267757029425e+00 5.0771034253715888e+00 1.1482033139468302e+00 0 0 0
2 2 7.1702194933913885e+00 1.2291085362665338e-01 5.0467041913633963e+00 0 0 0
220 1 4.1065127264075301e+00 1.0900059585443458e+01 3.3520240710996911e+00 0 0 0
21 2 1.2389080721464407e+00 2.3602335843167279e+00 1.4405232008986180e+00 0 0 0
19 1 1.3284642252606489e+00 2.7558913795501185e+00 5.6053458898588882e-01 0 0 0
587 2 -1.6912485183167525e+00 6.9811804981262009e+00 9.1560977788006497e+00 0 0 0
25 1 5.0239413707878970e+00 6.1527713542375171e+00 7.3216020141777962e+00 0 0 0
26 2 5.5711347039587453e+00 6.9226988982788438e+00 7.6051235361562162e+00 0 0 0
27 2 4.1495570845946084e+00 6.5573266309503309e+00 7.1762475878253342e+00 0 0 0
28 1 5.9830453883774508e+00 6.2717857691162306e+00 2.5864608884348304e+00 0 0 0
29 2 5.8151289521576475e+00 5.8569675541660393e+00 3.4477444804699031e+00 0 0 0
30 2 5.2511473895183709e+00 6.8791002227308971e+00 2.3663071331155798e+00 0 0 0
31 1 1.4338743074654874e+00 1.3159185414779213e+00 2.7401078924457472e+00 0 0 0
32 2 2.3541129724223819e+00 1.0001013970678696e+00 2.6985693691248742e+00 0 0 0
33 2 1.2848817245487554e+00 1.6956070138608448e+00 3.6167319284022641e+00 0 0 0
34 1 9.8798066283489749e-02 8.7757885402268787e-01 7.5067487597348066e+00 0 0 0
35 2 -8.4863052143713436e-01 5.6845972027042824e-01 7.6604605314225802e+00 0 0 0
36 2 3.1061260252554446e-01 1.6537789356874630e+00 8.1381807812884617e+00 0 0 0
37 1 6.5548462703651209e+00 2.5429286415226584e+00 2.6271995111355837e+00 0 0 0
38 2 5.6257828156772725e+00 2.7756665093582606e+00 2.7611707364412701e+00 0 0 0
39 2 7.0672086589103245e+00 3.3040968157047863e+00 2.9909860859423438e+00 0 0 0
40 1 4.1579729029519861e+00 2.5849627157788504e+00 7.5124406554789598e+00 0 0 0
41 2 5.0828227007205076e+00 2.8656764804345896e+00 7.4314408084987171e+00 0 0 0
42 2 3.5660839999789324e+00 3.2663059191158181e+00 7.2703251260307429e+00 0 0 0
43 1 -2.7600433404783176e-01 5.0092812094386003e+00 7.2085549675437726e+00 0 0 0
44 2 -9.5289747703134831e-01 4.2758852773796443e+00 7.0685537353600418e+00 0 0 0
45 2 -5.0949120371349954e-01 5.5244793830360051e+00 8.0270244997219162e+00 0 0 0
46 1 2.0069986727279985e+00 5.0158516617030902e+00 2.3016630492123125e+00 0 0 0
47 2 1.1696971856268250e+00 4.6722533539254378e+00 2.5944116779487105e+00 0 0 0
48 2 2.3960718759132260e+00 5.6323426854760967e+00 2.9148496588405850e+00 0 0 0
49 1 6.7296502584746580e+00 3.1580393746743232e+00 6.5485310847634208e+00 0 0 0
50 2 6.4561882344839816e+00 3.7952543227665263e+00 5.8598660643044127e+00 0 0 0
51 2 6.9318381636596262e+00 2.3227965372249768e+00 6.0444248749605416e+00 0 0 0
52 1 3.9437800280730735e+00 3.4550496148961733e+00 3.5881101420411610e+00 0 0 0
53 2 3.2579862954187853e+00 3.5819594886817980e+00 2.9336674363444635e+00 0 0 0
54 2 3.7872574909662839e+00 2.6425356040406296e+00 4.1218108742639075e+00 0 0 0
55 1 -6.2379445918193244e-01 4.1724296390815629e+00 3.4403279341036779e+00 0 0 0
56 2 -7.1714268586567220e-01 5.1370427927009477e+00 3.7680325952305918e+00 0 0 0
57 2 -2.6280962830397470e-01 3.6235691971259567e+00 4.1797477650376882e+00 0 0 0
58 1 2.4560354397881397e+00 4.4800960806265486e+00 6.5267707417710747e+00 0 0 0
59 2 2.5075839930135633e+00 5.1864466280425967e+00 5.8551347888300320e+00 0 0 0
60 2 1.8256173706905074e+00 4.8716986952134294e+00 7.1443962219356294e+00 0 0 0
61 1 8.4623584281762358e+00 7.0462538872947071e+00 1.5473569483055611e+00 0 0 0
62 2 7.6711954951020864e+00 6.7280446876687074e+00 2.0973647172362173e+00 0 0 0
63 2 8.6828647757899748e+00 6.3281643502497280e+00 9.1141702589811602e-01 0 0 0
64 1 2.1830897749357807e+00 7.1592191170473995e+00 8.2070110874892279e+00 0 0 0
65 2 1.3188723940696292e+00 7.4954276895652425e+00 8.0032009064701501e+00 0 0 0
66 2 2.6425304759427655e+00 7.9561226422651323e+00 8.6204834801110017e+00 0 0 0
482 2 1.2347223588704237e-01 1.4688294578567432e-01 2.2108815944119069e+00 0 0 0
68 2 -2.4938800361172921e+00 1.5090124679420094e+00 8.7807842332106389e+00 0 0 0
584 2 2.8051273333177043e+00 7.9241146292732811e-01 9.3336351118215841e+00 0 0 0
72 2 4.1618981588683326e+00 1.2638334196437000e+00 9.9888933781950084e-01 0 0 0
73 1 5.5859741611228175e+00 5.1278656653897334e+00 4.9154797683103224e+00 0 0 0
74 2 5.4762118935957949e+00 5.5729529934803370e+00 5.7748119207938133e+00 0 0 0
75 2 4.7895787270238417e+00 4.7801062981126403e+00 4.4932711408113200e+00 0 0 0
76 1 7.2855264589865265e-01 2.5745628529569160e+00 5.1740284068946352e+00 0 0 0
77 2 3.7956830678844478e-01 1.8815759939622279e+00 5.8155167382237849e+00 0 0 0
78 2 1.1760957692545979e+00 3.2905528880770309e+00 5.6906925814309739e+00 0 0 0
293 2 1.2519393787525852e+01 1.0960385614725197e+01 6.9556560266979695e+00 0 0 0
217 1 7.0581483116121202e+00 1.0837241868454127e+01 6.3603842481761541e+00 0 0 0
302 2 1.4932368280445489e+01 1.0515360671934843e+01 7.3551643567769656e+00 0 0 0
85 1 1.5197671821454543e+01 1.0004249788800375e+00 5.0450903530898250e+00 0 0 0
87 2 1.5295557364269191e+01 1.4615331411207551e+00 4.1615567497721351e+00 0 0 0
88 1 1.2606289157034526e+01 1.0726647429794141e+00 5.5549027033710807e+00 0 0 0
89 2 1.2360809860161234e+01 1.9294801123074035e+00 5.1048763787772131e+00 0 0 0
90 2 1.3540847439067361e+01 1.0079054714499196e+00 5.2622810532571549e+00 0 0 0
91 1 8.4088044893529297e+00 6.4748183114925961e+00 4.9639131480980003e+00 0 0 0
92 2 8.2565600294099557e+00 5.6932030856043792e+00 4.4225569483789675e+00 0 0 0
93 2 9.4024903600623890e+00 6.6289603168752222e+00 4.8850382461008959e+00 0 0 0
94 1 1.1072363937216318e+01 6.3030578578604821e+00 4.6264980928871697e+00 0 0 0
95 2 1.1763617403699483e+01 6.9269700750136751e+00 4.8385588466183798e+00 0 0 0
96 2 1.1197604708985315e+01 5.6324608838608938e+00 5.3344317651822406e+00 0 0 0
331 1 1.5967920555337281e+01 8.7785774929020732e+00 3.8091773501354076e-01 0 0 0
668 2 1.2619693390387441e+01 1.8003858569157805e+00 9.2844594541329073e+00 0 0 0
305 2 1.2277857820040401e+01 1.1087490691579838e+01 2.8686475229043022e+00 0 0 0
101 2 1.4766863854488934e+01 5.1638147081488013e+00 1.3552996507389421e+00 0 0 0
528 2 3.0359220413665851e+00 2.9524197863321984e+00 3.8002399755258265e-01 0 0 0
835 1 1.2322186933571542e+01 8.8892423402934408e+00 9.4836758408822170e+00 0 0 0
83 2 2.3453698866702126e+00 5.9672551257475410e+00 8.6062175655425821e-01 0 0 0
753 2 4.3025987622903727e+00 9.6403158995665290e+00 8.8968411026987653e+00 0 0 0
109 1 1.3627744279156483e+01 6.3821665983581308e+00 7.3566375296755506e+00 0 0 0
110 2 1.3651586615346526e+01 5.8267679466274842e+00 8.1851853188137031e+00 0 0 0
111 2 1.2690943153153761e+01 6.6179734494267874e+00 7.3230067530940737e+00 0 0 0
112 1 1.4980280177592629e+01 6.3702120906127000e+00 2.7183402452199843e+00 0 0 0
113 2 1.4366346077074184e+01 6.9852440084584186e+00 2.3186294310614106e+00 0 0 0
114 2 1.5858159387991014e+01 6.4342568195536991e+00 2.4071898411952026e+00 0 0 0
115 1 1.0133602168975621e+01 1.3904834767983489e+00 2.5182775465708134e+00 0 0 0
116 2 9.8383100977695666e+00 2.0841703083202296e+00 1.8632771458744963e+00 0 0 0
601 1 1.7378507016226685e+01 4.5442260030548010e+00 1.9094900497239867e-01 0 0 1
118 1 9.0995986621717808e+00 1.4107918700473481e+00 7.6353577865029996e+00 0 0 0
119 2 9.3010259494437868e+00 2.0510624407749258e+00 8.3769260981578508e+00 0 0 0
120 2 9.3134593472223326e+00 1.8212927069437630e+00 6.8074565498563846e+00 0 0 0
121 1 1.5249058218315291e+01 2.4860847548416856e+00 2.8475176192827090e+00 0 0 0
122 2 1.5963954239619442e+01 3.2508108233559465e+00 2.9482315114516222e+00 0 0 0
123 2 1.5303326541840587e+01 2.0597490704732833e+00 1.9542353427607437e+00 0 0 0
124 1 1.3016753460530420e+01 2.5771600960926695e+00 7.8592683400758636e+00 0 0 0
125 2 1.3916983634795983e+01 2.9235027238172164e+00 7.6386490622214058e+00 0 0 0
126 2 1.2858952791216238e+01 1.9293180551898921e+00 7.1403259725566075e+00 0 0 0
127 1 8.6544752669270348e+00 4.7531594971045097e+00 7.3142993354489585e+00 0 0 0
128 2 7.9975257346403694e+00 4.0346895952388806e+00 7.1923709771112616e+00 0 0 0
129 2 8.5533143268220275e+00 5.4828310305288372e+00 6.6009631105921489e+00 0 0 0
130 1 1.0865050051877081e+01 4.8792056860949664e+00 2.3979418734627433e+00 0 0 0
131 2 1.1502336264673579e+01 4.1832314604585257e+00 2.5847718848521315e+00 0 0 0
132 2 1.0988949777225862e+01 5.4658256161453824e+00 3.1664170871500099e+00 0 0 0
134 2 1.5222143172714484e+01 3.8636633469009967e+00 5.9345328977138978e+00 0 0 0
136 1 1.2842781948361523e+01 3.2793803654028206e+00 3.5992002018098184e+00 0 0 0
137 2 1.3211419872543587e+01 3.9994511530083998e+00 4.1743455960129694e+00 0 0 0
138 2 1.3664808323848225e+01 2.8942825145687903e+00 3.2721063977750480e+00 0 0 0
139 1 8.3197297810300750e+00 4.2838304055999936e+00 3.5041268400762582e+00 0 0 0
140 2 9.1192074752003105e+00 4.7306709839185173e+00 3.0340131030361510e+00 0 0 0
141 2 8.8998409254274904e+00 3.6717053816660963e+00 4.1293323321684099e+00 0 0 0
142 1 1.1018669461111827e+01 4.1454121404715014e+00 6.3066592344039156e+00 0 0 0
143 2 1.1678455419895384e+01 3.7745421486755077e+00 6.8670369580931876e+00 0 0 0
144 2 1.0144419147778418e+01 4.3363815684799070e+00 6.8318301387045164e+00 0 0 0
147 2 1.7005099760644640e+01 7.5494999936696736e+00 1.3006117025860573e+00 0 0 0
148 1 1.1002093746374307e+01 6.8349034622623641e+00 8.1514160047823978e+00 0 0 0
149 2 1.1014283207847704e+01 6.0411312355391447e+00 8.7314720376902670e+00 0 0 0
150 2 1.1449345109534038e+01 7.4914778299406946e+00 8.6849942905315718e+00 0 0 0
151 1 6.5420954841066328e+00 4.5222736419375065e-01 8.3381355138995357e+00 0 0 0
290 2 1.6245481910973908e+01 1.0668529893818514e+01 2.8456811944653095e+00 0 0 0
153 2 6.3138438783634054e+00 1.2167143721736906e+00 8.9477828387340885e+00 0 0 0
254 2 1.5953388470551012e+01 9.1278317175949528e+00 5.8368962270006977e+00 0 0 0
155 2 1.3029196043125234e+01 1.3640623361577808e+00 1.2580389924560598e+00 0 0 0
301 1 1.5655853283682744e+01 1.0772889718280817e+01 6.7479827392858951e+00 0 0 0
157 1 1.4182167139143994e+01 5.0908944716944831e+00 5.0394279929479930e+00 0 0 0
158 2 1.4624572168176368e+01 5.5718853423203543e+00 4.3047431440766104e+00 0 0 0
159 2 1.4123197809853275e+01 5.7423487557932154e+00 5.7768333914479006e+00 0 0 0
160 1 9.6183809483620362e+00 2.3410848969725331e+00 4.8674752606057137e+00 0 0 0
161 2 1.0179092429949096e+01 3.0262618083715069e+00 5.2972622817077593e+00 0 0 0
162 2 1.0016194527261963e+01 1.8737478188684384e+00 4.1034952731139906e+00 0 0 0
146 2 1.7608343753293475e+01 6.1103393469830829e+00 1.1196400233811903e+00 0 0 0
80 2 6.7467215567348129e+00 2.0467385134964609e+00 8.4652650522753459e-01 0 0 0
586 1 -9.8791994989534615e-01 6.3161949851515722e+00 9.3990784833919250e+00 0 0 0
169 1 7.0279529762094786e+00 8.7037754690151719e+00 4.3476095714574088e+00 0 0 0
170 2 7.6017661147902968e+00 7.9661588370613892e+00 4.6712125329300225e+00 0 0 0
171 2 7.1046285348365892e+00 9.4799451929969347e+00 5.0203857112292134e+00 0 0 0
172 1 4.2635628837031518e+00 8.6213493166106741e+00 4.9888706096149527e+00 0 0 0
173 2 4.0153720558926107e+00 9.2774054864256517e+00 4.3214437976598115e+00 0 0 0
174 2 5.2377212959089761e+00 8.4764628532923076e+00 4.8104339983092634e+00 0 0 0
84 2 3.2558377165131955e+00 7.1818608811260329e+00 2.9455480823105051e-01 0 0 0
152 2 7.3622557736231435e+00 7.2052640404299340e-01 7.8430413809557731e+00 0 0 0
585 2 3.9708745819634510e+00 1.6361382703039276e+00 9.0099488354118478e+00 0 0 0
192 2 4.1577173745364959e-02 9.9647584377066067e+00 8.7303413561567105e+00 0 0 0
199 1 1.5703870486684135e+00 8.6657666952089230e+00 2.6810681249656345e+00 0 0 0
200 2 1.3644392274392523e+00 9.3518512143281018e+00 1.9513422108331520e+00 0 0 0
201 2 1.0240832142528302e+00 7.8703807158579631e+00 2.5077448034550121e+00 0 0 0
202 1 1.5343560969195025e-01 8.7895235653990742e+00 7.5923619592368086e+00 0 0 0
203 2 -6.5937094745349145e-01 8.3103679623432285e+00 7.6092369133635911e+00 0 0 0
204 2 3.1691741687286079e-01 9.0808145240527907e+00 6.6924718583873970e+00 0 0 0
205 1 6.5932007839446287e+00 1.0414518423771048e+01 2.3392501566826871e+00 0 0 0
206 2 6.6786956699529076e+00 9.7496265029548752e+00 3.0223901703326073e+00 0 0 0
207 2 6.7504474200328213e+00 9.9867871151489851e+00 1.5292227359111112e+00 0 0 0
208 1 4.5847195465950215e+00 1.0244132121646505e+01 7.2331566768967344e+00 0 0 0
751 1 3.7676987473758263e+00 9.0490896942783916e+00 9.4285994049173372e+00 0 0 0
210 2 4.4624672094824218e+00 9.4772091079919178e+00 6.6048771111830575e+00 0 0 0
167 2 1.1222899054190485e+01 5.6501146357972551e+00 7.2504919577603488e-01 0 0 0
190 1 -3.3139350494663766e-02 1.0517836269444137e+01 9.5418521211851939e+00 0 0 0
224 2 9.2801728409092732e-02 1.0764771311134286e+01 4.2271751160874533e+00 0 0 0
836 2 1.2560467179266572e+01 9.5815726966165844e+00 8.8420809918113239e+00 0 0 0
235 1 -2.5397984183552089e+00 8.1591296939415159e+00 8.3744001593864930e+00 0 0 0
236 2 -2.6106939434179632e+00 8.9528043132734787e+00 8.9379563361684014e+00 0 0 0
238 1 3.8660810254753799e+00 8.0862533691344893e+00 1.4889104873648804e+00 0 0 0
239 2 2.9935727524542570e+00 8.1542854481264815e+00 1.9426976173194135e+00 0 0 0
240 2 4.0787890765404473e+00 8.8998128801003222e+00 1.0522840536202565e+00 0 0 0
244 1 1.0551733627936219e+00 9.7045923633017850e+00 5.1486221855288727e+00 0 0 0
245 2 1.3039185100736388e+00 9.3316861763385841e+00 4.2550864421832690e+00 0 0 0
246 2 1.6732536140860497e+00 1.0434604094509519e+01 5.3955246952293461e+00 0 0 0
100 1 1.4892450198117263e+01 4.6986650226110021e+00 4.7671572363114195e-01 0 0 0
671 2 8.6810978672840591e+00 5.4985188040992252e+00 9.0467698638629219e+00 0 0 0
253 1 1.6005797465843433e+01 8.4354147598580145e+00 5.1633180147680582e+00 0 0 0
255 2 1.5976358342909586e+01 8.8381382530957513e+00 4.2675564813223943e+00 0 0 0
256 1 1.3043872070519937e+01 8.5347606033058341e+00 5.1984817936783330e+00 0 0 0
257 2 1.3974905701904060e+01 8.2664218997218963e+00 4.9671675404705820e+00 0 0 0
258 2 1.2791321590109291e+01 9.1942706585654488e+00 4.5033443063645073e+00 0 0 0
17 2 5.2428062029597768e+00 4.0044278906451094e+00 1.8108680696076496e-01 0 0 0
272 2 1.0477169449066096e+01 9.5737471360826749e+00 9.3646683091786254e-01 0 0 0
133 1 1.5667352405252410e+01 3.2974377729071285e+00 6.6144188368952914e+00 0 0 0
276 2 9.3464322001984090e+00 1.0015068841398135e+01 8.6312081484890992e+00 0 0 0
283 1 1.0493441163005189e+01 8.2591983676272278e+00 2.3516745548388802e+00 0 0 0
284 2 1.0206109623271102e+01 8.6447666668577750e+00 3.1850032546172420e+00 0 0 0
285 2 9.6715190646980798e+00 7.6894941448547947e+00 2.1184352720091337e+00 0 0 0
286 1 9.2557358948689625e+00 8.6788503667778016e+00 7.0802809436754659e+00 0 0 0
287 2 9.8302247239049834e+00 7.9442007256577618e+00 7.4905658844597109e+00 0 0 0
288 2 8.3714034481376078e+00 8.4508917217988238e+00 7.4703574404226627e+00 0 0 0
289 1 1.5624865476608864e+01 9.9382973873291558e+00 2.7398809958661485e+00 0 0 0
156 2 1.1998029791491129e+01 8.7870503106581044e-01 2.2995263820756753e+00 0 0 0
291 2 1.5761581740247289e+01 9.6661035613176818e+00 1.7684336585613405e+00 0 0 0
292 1 1.3173453717357649e+01 1.0347652433893886e+01 7.3107267096244790e+00 0 0 0
311 2 1.0707111570763418e+01 1.1046212208263448e+01 5.8897155338259966e+00 0 0 0
294 2 1.3265334764073252e+01 9.6847258485876928e+00 6.5827982317742304e+00 0 0 0
209 2 3.8467214970682857e+00 1.0868830224021732e+01 7.0044464261741473e+00 0 0 0
304 1 1.2905030037121405e+01 1.0497144857454485e+01 3.3675630037607824e+00 0 0 0
306 2 1.3701290871764380e+01 1.0336330808830080e+01 2.8790351914409666e+00 0 0 0
154 1 1.2838097244175589e+01 6.3732361956111583e-01 1.8133068429325148e+00 0 0 0
319 1 6.8446658618539029e+00 8.0231280652690344e+00 8.2814381626694029e+00 0 0 0
320 2 6.6349209147356474e+00 8.7977447386347123e+00 8.8709457438884733e+00 0 0 0
321 2 7.2857773717060521e+00 7.3933967249985519e+00 8.8546134943744850e+00 0 0 0
322 1 1.3083699863753026e+01 8.1087913359194381e+00 1.4991207756101894e+00 0 0 0
323 2 1.2249496084441255e+01 8.2556241364940206e+00 1.9987042026575270e+00 0 0 0
324 2 1.2672394565868428e+01 7.4268833844268265e+00 8.9588351786351927e-01 0 0 0
328 1 1.0077941878985962e+01 9.8124612879492190e+00 4.8305397811858839e+00 0 0 0
329 2 9.5936417932225666e+00 9.3493934534809302e+00 5.5392418628709086e+00 0 0 0
330 2 9.5074287656631356e+00 1.0461353342836697e+01 4.5078251653005648e+00 0 0 0
399 2 8.1451514594922507e+00 4.4572760482948656e-02 1.0044287917765646e+00 0 0 0
22 1 4.1939025151864051e-01 2.7556634538260800e+00 9.5495530106651376e+00 0 0 0
70 1 4.0986020349840757e+00 6.3414394347853775e-01 1.7391868777928796e+00 0 0 0
145 1 1.7439237687651463e+01 6.8364022172581915e+00 1.7758118388321344e+00 0 0 0
602 2 1.6440488795787005e+01 4.3388559754633134e+00 4.2164405765949708e-01 0 0 0
274 1 9.4577578146048484e+00 1.0404031144302561e+01 9.5453021896903074e+00 0 0 0
521 2 2.3063807034821631e+00 5.6004927533875382e+00 9.1303126360099025e+00 0 0 0
13 1 5.1115543910015564e+00 4.6933084354287038e+00 9.6321210454631139e+00 0 0 0
135 2 1.5597438507496383e+01 2.3412035845093375e+00 6.2739895674901680e+00 0 0 0
163 1 1.5819455731146540e+01 1.4712854961765227e+00 5.0329222883001035e-01 0 0 0
237 2 1.4524369503752185e+01 7.7847720680750765e+00 8.1900053737099459e+00 0 0 0
102 2 1.4180389898683552e+01 4.0217115976272719e+00 4.5954296017719748e-01 0 0 0
15 2 4.1493759535803800e+00 4.5549083949001599e+00 9.5884377548659732e+00 0 0 0
117 2 9.4992264612452271e+00 6.0975383309111320e-01 2.4432964129879644e+00 0 0 0
221 2 4.8837280831755026e+00 1.0527577556218812e+01 2.8475928570450417e+00 0 0 0
103 1 1.0057826957468425e+01 2.7584306215041030e+00 2.6223256043415788e-01 0 0 0
86 2 1.5883185789721022e+01 3.3457811182991837e-01 4.9911194937905092e+00 0 0 0
520 1 2.3959573122292817e+00 4.7623232843098675e+00 9.5715699547687247e+00 0 0 0
67 1 -2.3517575956552523e+00 5.9473099829409404e-01 8.4747901193277571e+00 0 0 0
222 2 3.5499358482720353e+00 1.1266275051516050e+01 2.6341948007096012e+00 0 0 0
486 2 1.1340332982078618e+01 2.9745644670459581e-01 9.1846295383737928e+00 0 0 0
165 2 1.6586957240989619e+01 8.8372092544331593e-01 7.7079122714563941e-01 0 0 0
219 2 6.1624868904898644e+00 1.0686379323095295e+01 6.6900046312701829e+00 0 0 0
69 2 1.4805699314547821e+01 2.7832439438960183e-01 8.0061811526050448e+00 0 0 0
670 1 8.1797999048912686e+00 6.0453224842435853e+00 9.6335452322361430e+00 0 0 0
23 2 8.1657798552409222e-01 3.6251091625060092e+00 9.3471529324116283e+00 0 0 0
24 2 -5.2735277691469840e-01 2.9357532798136243e+00 9.5941871851872058e+00 0 0 0
97 1 1.3813189911384937e+01 4.6244172012980327e+00 9.7276924820943211e+00 0 0 0
807 2 1.2619587621323662e+01 1.0230646383227965e+01 1.5335451746594767e+01 0 0 0
517 1 1.8317518955765255e+00 5.0900203590683093e+00 1.9107873496543810e+01 0 0 0
168 2 4.3895727942479796e+00 6.6537071106986181e+00 1.8686857613598910e+01 0 0 0
164 2 8.5657771308278878e+00 7.6007765233186408e-01 1.9169260585774808e+01 0 0 0
607 1 6.3473797035489783e+00 2.3391966278343528e+00 1.0089240034322566e+01 0 0 0
776 2 7.5604043771801202e+00 1.0582020512813797e+01 9.8723098300895131e+00 0 0 0
526 1 -2.7629126466692502e+00 2.7640998937432477e+00 1.9235495211029573e+01 0 0 0
604 1 1.1074209634323138e+01 4.7210420226782936e+00 9.8344459199290188e+00 0 0 0
332 2 9.7307423693744290e+00 9.2845726242338689e+00 1.8828072272389175e+01 0 0 0
828 2 8.6627502655879933e+00 8.0350075978746052e+00 1.1839310067130588e+01 0 0 0
693 2 -1.7593291069733117e+00 1.0597584104276995e+01 9.8583108682041996e+00 0 0 0
694 1 -2.8018829658426219e+00 1.0389066968241041e+01 1.9168484597935695e+01 0 0 0
588 2 -1.2020441584440658e+00 5.8014880708131402e+00 1.0187265883679707e+01 0 0 0
98 2 1.3779825385217846e+01 5.3872794981556353e+00 1.0325468395944284e+01 0 0 0
273 2 4.5853511919659891e+00 1.0261558334566852e+01 1.9030049095507771e+01 0 0 0
191 2 5.8382137705118797e-02 9.7826354014409791e+00 1.0199732076389969e+01 0 0 0
752 2 3.3696006977587105e+00 9.5766925355476964e+00 1.0154787842040802e+01 0 0 0
333 2 8.7770280013225985e+00 8.1376293259459693e+00 1.8998600303109836e+01 0 0 0
505 1 3.1197654050458201e+00 1.2369196948300956e+00 1.4217239228700093e+01 0 0 0
506 2 3.3807493121966736e+00 2.0140906182341958e+00 1.4793735954056341e+01 0 0 0
696 2 -1.9938268819996896e+00 1.0994196312014251e+01 1.9137549884784871e+01 0 0 0
508 1 2.7063026111915089e-01 1.3218192624090512e+00 1.4600865333284318e+01 0 0 0
691 1 -2.6755350792935473e+00 1.0233708953563339e+01 9.8608954165165930e+00 0 0 0
510 2 1.1479865378032112e+00 1.1498469746093145e+00 1.4112718971885636e+01 0 0 0
511 1 -4.0380583658588991e+00 6.5073033634872344e+00 1.4612087586464577e+01 0 0 0
512 2 -4.2093942635488064e+00 5.7986432976539080e+00 1.3936613317743850e+01 0 0 0
513 2 -3.9728722436378154e+00 6.0470548893111085e+00 1.5477222713697149e+01 0 0 0
514 1 -1.3363261134533642e+00 6.9570910671310413e+00 1.4603472617051166e+01 0 0 0
515 2 -1.0079411580639936e+00 6.1932003396108550e+00 1.5143712017437146e+01 0 0 0
516 2 -2.2804807822232260e+00 6.8480461033454496e+00 1.4799489191448593e+01 0 0 0
188 2 -5.7380976527732157e+00 9.4019743903249697e+00 1.8576653017787748e+01 0 0 0
519 2 1.8623209115298485e+00 5.5522293256965130e+00 1.8196591780511838e+01 0 0 0
834 2 5.7576253913774789e+00 1.0371035732470569e+01 1.3883983162615797e+01 0 0 0
522 2 2.2121313705480641e+00 4.9167021561033204e+00 1.0550069632704471e+01 0 0 0
247 1 2.9855914466028466e-01 8.8628129105983575e+00 1.9184350370849582e+01 0 0 -1
823 1 3.5643279477865493e+00 7.8319761383744551e+00 1.7574834393798376e+01 0 0 0
525 2 -2.1624095047885650e+00 2.1727274104025431e+00 1.1028593279036862e+01 0 0 0
658 1 9.2334011914352931e+00 4.1239417441992465e-01 1.1274140358583406e+01 0 0 0
527 2 -2.8792605971378893e+00 2.3144560479893168e+00 1.8380396306317042e+01 0 0 0
529 1 1.4828236137194377e+00 6.3374977236173269e+00 1.6778052307992894e+01 0 0 0
530 2 1.4398655150980311e+00 5.8251296870297633e+00 1.5947434521507864e+01 0 0 0
531 2 5.5654111548462204e-01 6.5514728237859536e+00 1.7002525358617362e+01 0 0 0
532 1 2.0537292448928142e+00 6.6102205213430230e+00 1.1825813563220075e+01 0 0 0
533 2 3.0222196748585599e+00 6.7994240687157097e+00 1.1952236668223151e+01 0 0 0
534 2 1.8050295964296525e+00 6.1295836527178995e+00 1.2641669692086838e+01 0 0 0
535 1 -2.1679782608574794e+00 8.8388147360305114e-01 1.2511179355917541e+01 0 0 0
81 2 -7.3023689115125912e-02 1.0907577099244092e+00 1.8678707176143927e+01 0 0 0
537 2 -1.3647166623910563e+00 4.9752577003311399e-01 1.2198566098986865e+01 0 0 0
538 1 -3.0342689357861494e+00 1.0941265954345583e+00 1.6933426067932423e+01 0 0 0
539 2 -3.9765425117635758e+00 9.3196001551746410e-01 1.7115434111506783e+01 0 0 0
540 2 -2.9862072564344668e+00 1.5733668829318861e+00 1.6078406214899534e+01 0 0 0
541 1 2.8030114519632621e+00 2.7402769335199553e+00 1.1954551823800003e+01 0 0 0
542 2 2.9281468194539926e+00 2.0817778754753604e+00 1.2674084456573679e+01 0 0 0
543 2 2.9660693522300114e+00 2.1917003009307523e+00 1.1121386793275375e+01 0 0 0
544 1 8.2728398909216239e-01 2.8380837621891550e+00 1.6904595526560723e+01 0 0 0
545 2 5.9377480771152324e-01 2.6757654518538976e+00 1.7879391510096173e+01 0 0 0
546 2 7.3057321512215267e-01 1.9752755098261918e+00 1.6467902515494373e+01 0 0 0
547 1 -3.5184699250047831e+00 5.1061023203377216e+00 1.6738450081932047e+01 0 0 0
548 2 -4.1529427345221954e+00 4.3479934259401851e+00 1.6782583311314525e+01 0 0 0
549 2 -3.5824185156419541e+00 5.5708134041096562e+00 1.7594699635913198e+01 0 0 0
550 1 -1.6516686057043857e+00 5.4278350042570800e+00 1.2285955486531785e+01 0 0 0
551 2 -1.0802155148175050e+00 4.6825896446949447e+00 1.2623434044679508e+01 0 0 0
552 2 -1.4422551833533217e+00 6.2206098371998948e+00 1.2867405044594998e+01 0 0 0
553 1 3.1448304454173037e+00 3.4868892685512072e+00 1.5785460554831095e+01 0 0 0
554 2 2.4236595799508036e+00 3.4590742932997522e+00 1.6462427552024831e+01 0 0 0
555 2 3.8466552134931948e+00 4.0682108895252425e+00 1.6129509428062434e+01 0 0 0
556 1 1.1690092777362615e-01 3.3815664483894321e+00 1.2803414852057786e+01 0 0 0
557 2 9.4450821987559586e-01 3.2568268754485983e+00 1.2309183515225177e+01 0 0 0
558 2 -1.1593930993749701e-01 2.5453608410420041e+00 1.3261056220429472e+01 0 0 0
559 1 -4.1093257093100819e+00 4.3859258484085055e+00 1.2974164439083822e+01 0 0 0
560 2 -3.3791301814533443e+00 4.8116335434583588e+00 1.2554528540811685e+01 0 0 0
561 2 -3.6993381836189525e+00 3.5662274370753120e+00 1.3397558897102945e+01 0 0 0
562 1 -1.1908800079254949e+00 4.3430809324071973e+00 1.5690829330783091e+01 0 0 0
563 2 -5.5417033882098288e-01 3.7354514887672670e+00 1.6181275014550838e+01 0 0 0
564 2 -1.8776432224705046e+00 4.6379008067527625e+00 1.6345826969652844e+01 0 0 0
565 1 4.8586229195800090e+00 7.0667336593391488e+00 1.1245858107114545e+01 0 0 0
566 2 4.4948944539577518e+00 7.7123943339215897e+00 1.0617420462987447e+01 0 0 0
567 2 5.0228594424448509e+00 6.2347995517275514e+00 1.0770622010573723e+01 0 0 0
568 1 -1.0891659750151472e+00 7.1097445182328709e+00 1.7760148186078631e+01 0 0 0
569 2 -1.4145312099555989e+00 6.3236788976347640e+00 1.8257361772878827e+01 0 0 0
570 2 -7.9868044568087093e-01 7.7453788156710397e+00 1.8403919806448606e+01 0 0 0
610 1 6.2716931250187145e+00 2.9526735102452015e+00 1.9049056628086213e+01 0 0 0
572 2 -5.7262286978893897e+00 1.3859444725572003e+00 1.8714987973159538e+01 0 0 0
105 2 3.1981952255157085e+00 1.9715313485612027e+00 1.8759322245846143e+01 0 0 0
573 2 1.1512456621625434e+01 2.1079824451094231e-01 1.7866984636435621e+01 0 0 0
576 2 7.7775211713246950e-01 1.2401600103480346e+00 1.0644379948706018e+01 0 0 0
577 1 1.6443361704466097e+00 5.1127974748662215e+00 1.4368439587752539e+01 0 0 0
578 2 1.0658106784240378e+00 4.3835795548321732e+00 1.4020890187536574e+01 0 0 0
579 2 2.3397481925852421e+00 4.5759069097160401e+00 1.4722250933697755e+01 0 0 0
580 1 -2.8704096289240448e+00 2.5526604530358470e+00 1.4635969070007002e+01 0 0 0
581 2 -2.5714946808897263e+00 1.9508844444155837e+00 1.3931755162110012e+01 0 0 0
582 2 -2.1763604150608309e+00 3.2475261637644635e+00 1.4862092380727681e+01 0 0 0
778 1 6.3744611532087507e+00 1.0131338362339692e+01 1.9060246490652933e+01 0 0 0
672 2 8.8128380292045616e+00 6.7491819257405075e+00 1.0045553838129168e+01 0 0 0
589 1 1.2016429169953119e+01 1.1274366599227650e+00 1.4469795890370170e+01 0 0 0
590 2 1.1137503859506998e+01 9.1797017603668540e-01 1.4860758034189285e+01 0 0 0
591 2 1.2355596810800833e+01 1.8414011840161200e+00 1.5076186321526642e+01 0 0 0
592 1 9.4323531428728788e+00 8.8170356163123298e-01 1.4839454271164536e+01 0 0 0
825 2 3.3827497296721676e+00 8.6626724893727207e+00 1.7988268673845955e+01 0 0 0
594 2 9.0945493766651566e+00 1.5927491699319376e+00 1.4262870033499754e+01 0 0 0
595 1 5.0577543964550866e+00 6.9154965089630220e+00 1.4518650973196909e+01 0 0 0
596 2 4.8579494866712469e+00 6.4316269958392196e+00 1.5384051513360442e+01 0 0 0
597 2 5.0816377799536872e+00 6.2294666103454919e+00 1.3814472667440548e+01 0 0 0
598 1 7.9185569900985158e+00 6.4208502577215052e+00 1.4634126304916707e+01 0 0 0
599 2 6.9694857849726590e+00 6.7212927722832836e+00 1.4697425438015623e+01 0 0 0
600 2 8.0045563765019665e+00 5.9408352446601338e+00 1.3770227691967561e+01 0 0 0
574 1 6.6761822838664475e-01 5.3325116453141641e-01 1.1295627948649265e+01 0 0 0
603 2 1.0626246333390085e+01 4.9922262371903914e+00 1.8455608823309372e+01 0 0 0
990 2 7.1249206112350763e+00 4.9579217559838429e-01 1.7560968643420317e+01 0 1 0
605 2 1.0882101974067126e+01 5.1788098493570782e+00 1.0652426349452218e+01 0 0 0
794 2 1.2413780774178511e+01 1.0779258953747897e+01 1.1837605131715490e+01 0 0 0
620 2 6.3203774719901684e+00 3.8639677639286446e-01 1.2330280571920831e+01 0 0 0
507 2 3.7581284395170931e+00 5.3697190719650956e-01 1.4439519247513333e+01 0 0 0
609 2 6.3020242369356598e+00 1.9585278223912634e+00 1.0944566284681185e+01 0 0 0
837 2 1.2031928725029715e+01 9.3839612302004767e+00 1.0297145086418402e+01 0 0 0
611 2 6.3799825192991868e+00 2.8094202077658190e+00 1.8085145460725734e+01 0 0 0
613 1 1.0489266277819334e+01 6.1307410870817280e+00 1.6809433438167208e+01 0 0 0
614 2 1.1180152495277786e+01 6.7302241635122266e+00 1.7123635992830181e+01 0 0 0
615 2 9.6460119872931536e+00 6.4763464796642634e+00 1.7046841080426553e+01 0 0 0