LAMMPS data file via write_data, version 3 Mar 2020, timestep = 40000000

2016 atoms
2 atom types

0.0000000000000000e+00 1.7941418564104143e+01 xlo xhi
1.8414227999543797e-01 4.4812017696899730e+01 ylo yhi
0.0000000000000000e+00 1.9079487087436867e+01 zlo zhi
4.4239167417253554e-02 -6.6837208541667970e+00 -2.2477096007555986e-02 xy xz yz

Masses

1 16
2 2

Atoms # atomic

902 2 3.1687311855557887e+00 3.5604496698779236e+00 1.2121455421566873e+01 -1 0 -1
849 2 -5.9368126179884673e-01 5.7156432622219970e+00 8.4974728473053247e+00 2 0 0
450 2 8.0368480577048995e+00 1.1280048373992253e+00 3.2960564119595297e+00 -1 0 1
784 1 -3.8230415010298504e+00 5.6702470049596823e+00 1.7309970740645948e+01 -3 0 -3
943 1 1.0384266762063001e+01 8.4642209278533809e+00 6.7198822276323877e+00 -1 0 2
198 2 1.3964421584959775e+01 2.9132582935702933e+00 3.9821587123097286e+00 -3 0 -1
544 1 -1.9015930263653642e+00 1.1184055774506851e+00 1.6264593947243291e+01 2 0 1
805 1 1.1046303402898573e+01 4.5347952879877651e+00 1.7821045521348882e+01 -3 0 1
847 1 -5.6718135039902462e-01 5.1222508424099997e+00 7.7825983536528973e+00 2 0 0
141 2 3.7430934609960231e+00 2.1445519840667662e+00 8.3401587649191917e+00 0 0 -2
175 1 1.0749763859135911e+01 3.6249189069051972e+00 1.2349121046206969e+01 -6 0 2
671 2 1.4484114346707999e+01 6.4406355276392615e+00 3.3346917303305368e+00 -4 0 -1
77 2 1.0088849641312507e+01 9.8642808710067911e+00 1.3817433862181471e+01 -1 0 -3
633 2 -1.5691515149674617e+00 4.3199291078506565e+00 1.4754998929262756e+01 -3 0 -2
176 2 1.0597395347045897e+01 3.1379676047775131e+00 1.3203648466848792e+01 -6 0 2
583 1 -1.7563514220167129e+00 1.0550829466582741e+01 1.0039522490592754e+01 -3 0 -4
762 2 9.6802500611719822e+00 3.8807732488205930e+00 1.7289146085624253e+01 -4 0 1
929 2 2.8264751829306825e+00 1.4079440187906032e+00 1.0290132510391285e+01 0 0 0
866 2 1.9225921217208457e+00 4.9592482156547452e-01 7.4582050859235798e+00 -2 0 1
184 1 1.1653547115193335e+00 8.9260880963715099e+00 1.0386411758733185e+01 -5 0 -7
725 2 4.4571001729498070e+00 2.5178386895298019e+00 4.6374338886332085e+00 1 0 0
435 2 1.5784856679710440e+01 6.5866927270245368e-01 3.2599192798990075e+00 -2 0 2
526 1 1.0086220653465777e+01 2.1628221631815068e+00 1.4596005764913135e+01 -3 0 -1
600 2 -4.4530038591952970e-01 6.1770418746278279e+00 1.8982112052081455e+01 -4 0 1
490 1 9.5390828355007576e-02 7.0664426334081076e+00 1.9638048806215802e-01 3 0 1
977 2 -3.5919299919736503e-01 6.1908459713728314e+00 1.4311365228143204e+01 -3 0 -1
723 2 1.3329968527476078e+01 3.0226213485991504e+00 1.1344512849461983e+01 -5 0 -4
127 1 -2.5310869571788688e+00 2.0881432184237401e+00 1.2552811648403271e+01 -1 0 -1
60 2 8.7687219506564862e+00 6.3661351372784658e+00 1.0325388919515243e+01 -1 0 2
412 1 1.2766379715738173e+01 3.1336321536671292e+00 8.0015973370366176e+00 0 0 0
974 2 5.9068565613332309e+00 3.4704243568967024e+00 2.8837966880167638e+00 -4 0 -2
101 2 4.9041832701734602e+00 1.0100754585130961e+01 4.6906175926499936e+00 0 0 -1
598 1 5.8013895675858604e+00 5.8501729399343079e+00 7.1153782492242967e-01 -4 0 2
824 2 -1.4501498408160884e+00 9.4096174637111538e+00 4.6431303083399067e+00 1 0 2
654 2 9.7184309626692347e+00 4.4981460765185917e+00 8.0588074654888810e+00 -2 0 0
100 1 4.5912302824742515e+00 9.4435709978510456e+00 5.3219627968540930e+00 0 0 -1
406 1 9.0059927434045459e+00 7.1248274330916104e+00 1.7120884048378066e+01 -2 0 -2
878 2 -2.3524837382142874e+00 3.5604918280416595e+00 9.8098461725951474e+00 -2 0 -1
1940 2 7.0434083676152408e+00 2.5117648439457945e+00 1.0706918515521535e+01 1 1 0
501 2 3.2133266553138795e+00 6.0170584035517711e+00 6.8015617639506418e+00 1 0 0
520 1 1.1389795527474522e+00 9.5085450868533172e+00 1.5011334260327041e+01 -4 0 -3
301 1 1.0403088465934808e+01 1.1267450212716804e+01 8.6472743700363015e+00 1 0 0
945 2 9.7147402235529263e+00 8.6990519859943447e+00 7.3792196826883290e+00 -1 0 2
522 2 1.4478870913070132e+00 1.0022086586840507e+01 1.4212738876695681e+01 -4 0 -3
573 2 -5.0072030527751341e+00 8.6563717439216745e+00 1.7168568240905767e+01 3 0 3
467 2 9.1012606723423151e-01 1.9693685391825444e+00 1.1145398131275950e+01 0 0 3
677 2 9.3297933614195152e+00 5.9085904157742659e+00 3.9615796653314699e+00 -2 0 0
503 2 3.2449963462817322e-01 3.2376039357817161e+00 5.3233147936430223e+00 1 0 1
3 2 8.1796062908999865e+00 7.5177198038337583e+00 4.8834146615892244e+00 0 0 -1
718 1 1.2775911344609296e+01 1.0458703480298023e+01 7.7185484874960686e+00 -3 0 -3
458 2 2.9556412667348959e+00 6.8334571002919402e+00 1.1369391160363924e+00 -2 0 -2
540 2 5.8551889893447164e+00 3.5573232152335197e+00 1.4719880661989516e+01 -4 0 -4
414 2 1.1789420062977161e+01 3.4344850331016179e+00 7.9156532387810365e+00 0 0 0
539 2 6.8991818715040445e+00 2.7487195471734700e+00 1.5394591121434800e+01 -4 0 -4
626 2 7.4374046431283372e+00 1.0055781324441117e+01 1.4997701883092656e+01 -1 0 -1
721 1 1.3164224345088190e+01 3.9591282664890941e+00 1.1711662165081876e+01 -5 0 -4
213 2 3.4888299338073283e+00 3.9983230476858096e+00 1.5098957777625399e+01 -4 0 -3
599 2 6.5708832180440231e+00 5.3988342275297052e+00 1.0953054612188353e+00 -4 0 2
840 2 1.1518715051193176e+01 5.6724398981929225e+00 1.3938094508866952e+01 -1 0 -4
618 2 2.8387235097413290e+00 4.3247494295258733e+00 1.8700745080340731e+01 -3 0 -2
782 2 1.2264516975974390e+01 7.9284607429623275e+00 4.3073478448478202e+00 -3 0 -4
688 1 1.0140438693250616e+01 1.9383925078964692e+00 1.0248652474985409e+01 -2 0 0
830 2 5.4884648736558592e+00 6.5132414546607924e+00 3.5570491069398620e+00 -4 0 0
527 2 9.3370818727427469e+00 1.6591645594112339e+00 1.4121351591685107e+01 -3 0 -1
693 2 -4.0109581289108469e+00 8.8964796700181790e+00 1.2785075788711499e+01 2 0 2
799 1 8.5758863394742253e+00 5.0404531961965198e+00 1.1467871821511288e+01 0 0 -4
129 2 -3.4853480789330042e+00 1.8668366753817516e+00 1.2786738445592441e+01 -1 0 -1
126 2 5.6165348824894989e+00 8.4851703748600116e+00 6.1655015577655963e+00 -1 0 1
545 2 -1.0927489864307844e+00 7.4674485866363882e-01 1.6745783116488372e+01 2 0 1
151 1 -1.3727944605326876e+00 3.1460523755402838e+00 5.3904712445709686e+00 4 0 -1
604 1 7.8252051734629644e+00 2.0053563152239473e+00 7.4992041694124500e+00 -1 0 2
468 2 4.1257365766109944e-01 7.9363539798332916e-01 1.0239112041157069e+01 0 0 3
842 2 -1.7511255653029287e+00 8.0454306983597910e+00 7.5881400224271189e+00 -5 0 -5
351 2 1.3558776117460768e+01 2.1384199956537535e+00 1.6092058460256995e+00 2 0 3
807 2 1.1057121236782599e+01 5.4278115824499400e+00 1.8191845499993402e+01 -3 0 1
980 2 -2.1133993591593088e+00 9.9662804922651684e+00 1.3133786249404023e+01 0 0 0
769 1 9.6708555382968919e-01 1.7660060027567559e+00 3.0286790284177774e+00 2 0 -1
516 2 1.4476739757171847e+01 5.5618678269010715e+00 9.1125091792841744e+00 -1 0 -1
997 1 5.8235700287402752e+00 6.7726745224052864e+00 1.0080704861922550e+01 -3 0 3
1 1 8.9105877459890976e+00 6.8893640673000114e+00 5.2404341798484335e+00 0 0 -1
363 2 -2.3974790619999937e+00 7.9704876192450254e+00 1.5762870641825076e+01 0 0 -2
692 2 -4.5243084039385053e+00 8.1826991976111181e+00 1.4071393817575848e+01 2 0 2
95 2 9.2030977338335873e-02 8.2461400212403859e+00 1.3960197744630417e+01 -2 0 -2
448 1 7.3065093211889938e+00 1.1117791018717060e+00 3.9157355509340417e+00 -1 0 1
1000 1 -5.6160618209962276e-01 4.9323317519767276e+00 1.1714939975224834e+01 0 0 1
1584 2 1.0463665698184927e+00 1.0830612456409360e+01 9.2640883230757556e+00 1 0 1
586 1 8.4179942239613812e+00 5.5060292441620167e+00 7.4206786643824589e+00 0 0 0
2 2 9.5152798258488467e+00 7.4620628899693608e+00 5.7040006254093232e+00 0 0 -1
404 2 1.2050117188506460e-01 6.2103979757997347e+00 3.4509828779312457e+00 3 0 0
116 2 3.3489737327100055e-01 6.8902481157155435e+00 5.7860758036266642e+00 -3 0 -5
811 1 7.9403404874762096e-01 1.0571239948144845e+01 1.7315291349096579e+01 -2 0 -1
294 2 2.2044310821699598e+00 4.9915271246466260e+00 9.4641517567165927e+00 2 0 -2
976 1 -3.6574785036519231e-01 5.5988745980024923e+00 1.5091866594258532e+01 -3 0 -1
843 2 -1.4346823029251958e+00 9.4006097674035374e+00 7.1111138856261409e+00 -5 0 -5
705 2 4.6514173855753569e+00 8.1994770673587514e+00 1.0075963762050467e+01 -2 0 0
848 2 -1.4758662467031389e+00 4.7336568935778756e+00 7.6953204144148089e+00 2 0 0
437 2 4.7182447664906633e+00 6.1501568628373082e+00 1.6207045036874497e+01 -4 0 -2
875 2 -1.9741127683052406e+00 5.4808244354511784e+00 1.2453825377854443e+01 -2 0 1
617 2 2.2700944157854988e+00 5.7133201758045766e+00 1.8305878006569269e+01 -3 0 -2
459 2 3.3943539779772927e+00 8.1554180549049278e+00 3.9597215521052959e-01 -2 0 -2
899 2 6.5218950437913090e+00 2.6147163533847699e+00 1.3009176195472218e+01 -1 0 2
505 1 1.1672501250505466e+01 7.1132272135623174e+00 2.4330944804644758e-01 -4 0 -2
578 2 -1.4054663298064196e+00 6.9281960451616733e+00 9.8861140679219481e+00 0 0 0
241 1 7.2030384364079900e+00 1.1204541749979246e+01 1.8268637948378352e+01 2 0 0
772 1 7.7310677751605565e+00 9.2649283000117233e+00 4.5473056362420122e-01 1 0 -2
429 2 1.7166270688763980e+01 8.3726958012572634e+00 4.1780144435504873e-01 -1 0 0
832 1 2.4182825121962006e+00 5.2626469103592042e+00 1.4750332839529014e+01 -4 0 0
65 2 1.2313709070342632e+01 8.7089162590480189e+00 1.0276478810487468e+01 -3 0 -3
963 2 1.2121921462036549e+00 2.9091492688537715e+00 9.3142175235344205e+00 -3 0 -2
499 1 3.2992855829609526e+00 6.6790058536958554e+00 7.5226694871852491e+00 1 0 1
256 1 1.1084830304346243e+00 1.8263158187304287e+00 1.4790669490391119e+01 -1 0 0
152 2 -1.3915217150825823e+00 2.2743031946700616e+00 4.8460456720135152e+00 4 0 -1
278 2 1.2017490184570915e+01 6.2032353111131195e+00 9.3320359092436327e+00 -3 0 0
7 1 2.9203784234577981e+00 5.1210585388250829e+00 5.2992108849620392e+00 -1 0 -1
962 2 5.0217496272884610e-01 3.9874787093619184e+00 8.4331614180475007e+00 -3 0 -2
115 1 -1.6853806019759854e-01 6.3825024445698402e+00 5.1608031957930542e+00 -3 0 -5
478 1 6.6941923838962403e+00 4.0226796711233135e+00 1.8185597562141059e+01 -1 0 -6
366 2 1.2942770577070100e+01 1.0101198597631337e+01 1.4285610483373778e+01 1 0 0
886 1 1.4489883637698586e-01 7.0359495600739992e+00 1.7454886872013191e+01 -1 0 -2
187 1 1.5073135457426623e+01 7.3745554302311831e+00 6.6839858533485472e+00 -6 0 -5
210 2 9.3627856143576853e+00 1.0871730073487212e+01 5.1764831156936042e+00 4 0 -1
41 2 1.2789396059204398e+01 1.4194720095966638e+00 4.9059996114298183e+00 -4 0 3
189 2 1.5049587621817388e+01 6.4851264442982073e+00 6.1531507683717006e+00 -6 0 -5
927 2 1.6849839490428831e+01 3.3151326058119821e+00 1.3829124195482068e+00 0 0 2
258 2 5.1535019483395761e-01 1.1967065810581519e+00 1.4261809218721270e+01 -1 0 0
177 2 1.0290027272830510e+01 2.9885792881032094e+00 1.1714345070640348e+01 -6 0 2
985 1 1.2029285558740776e+01 5.1528413470693595e+00 5.6301630878214421e+00 -3 0 -3
653 2 1.0815042909518972e+01 4.6348915837845794e+00 9.1991604545729970e+00 -2 0 0
913 1 7.5173083340819620e+00 8.6427742442178150e+00 3.5092610951578362e+00 0 0 2
761 2 8.1875198759698193e+00 3.3581359535494992e+00 1.7248166541865551e+01 -4 0 1
53 2 4.0412621015895551e+00 2.2769384049805810e+00 1.6674213235500961e+01 2 0 -1
342 2 1.2452890507193136e+01 6.2389102233890954e+00 7.1272169706130502e+00 -3 0 0
644 2 8.7345589447748972e-01 3.6767689474944727e+00 2.1066873642424780e-01 -4 0 -2
871 1 1.4956077627956169e+01 5.8609479460255196e+00 5.2637453915150878e-01 -2 0 0
475 1 4.9093285906470507e+00 9.2442632829069105e+00 7.0094472741546254e-01 -1 0 3
577 1 -4.0063992357529044e-01 6.8221961985074806e+00 9.8186862628765397e+00 0 0 0
112 1 2.6076681416382410e+00 7.5435005363196153e+00 1.6322405429671178e+01 -2 0 -2
212 2 3.8266317462098742e+00 2.5702736834083986e+00 1.4401655488402046e+01 -4 0 -3
1941 2 6.7371860842072477e+00 3.7215271659745981e+00 9.7564617301436236e+00 1 1 0
930 2 3.9973979371005917e+00 2.3917105290218053e+00 1.0642383556965163e+01 0 0 0
140 2 2.9974178440870385e+00 3.3849114865308971e+00 7.8147959317253255e+00 0 0 -2
834 2 2.5132057247527539e+00 6.0333034823974039e+00 1.5384703592806074e+01 -4 0 0
971 2 7.7468691219204153e+00 9.7258167287975592e+00 8.6786257478418083e+00 -1 0 2
405 2 -3.5739410406098715e-01 5.0665545623534314e+00 2.4219691209331864e+00 3 0 0
502 1 1.2705563051587874e+00 2.9987930714740063e+00 5.2405457714638422e+00 1 0 0
242 2 7.1763909483992778e+00 1.0395568682658944e+01 1.8907835144579003e+01 2 0 0
340 1 1.2505808385638321e+01 6.9134860132974785e+00 7.8405314958333490e+00 -3 0 0
285 2 3.7220669583817569e+00 7.4578693967696275e+00 3.6340201630824960e+00 -4 0 1
698 2 4.3994570417592724e+00 1.0712072536312931e+01 1.5531428387078307e+01 1 0 2
320 2 1.0064077383943282e+01 1.2680896434340034e+00 7.6300717392587734e+00 -4 0 -3
965 2 4.1570134509574750e+00 1.1022678502346732e+01 8.0305707862186608e+00 -2 0 -1
763 1 9.9634154896016955e+00 1.9658896779974955e+00 2.7841085533453453e+00 -4 0 -2
635 2 9.5206948627939969e-01 4.0516757113028259e+00 1.2262852340168539e+01 2 0 -2
736 1 1.0371242739947569e+01 9.1827692302321662e+00 1.0162090804672991e+01 -1 0 0
270 2 2.3225573139205693e+00 6.4964611371955998e+00 1.1556600505315119e+01 1 0 -1
284 2 3.1163808008826166e+00 8.1440486460692725e+00 4.7874472881194281e+00 -4 0 1
547 1 1.6566351054454799e+01 1.8787841350025254e+00 1.6930987454725550e-02 -4 0 -3
841 1 -1.1827186640807807e+00 8.8206713680182567e+00 7.8398824278519772e+00 -5 0 -5
632 2 -1.7661619490591480e+00 2.8722658861383019e+00 1.5391136210941573e+01 -3 0 -2
581 2 8.6869061203755429e+00 8.1417052770824156e+00 1.3729405285950953e+01 -1 0 0
44 2 4.5580538386069893e+00 2.3376327511482926e+00 2.2140866644251522e-01 0 0 1
610 1 1.3161979571215078e+01 9.0977334114302408e+00 5.3889342472622923e+00 0 0 3
882 2 7.7062376738374381e+00 8.1293379062149889e+00 1.6214580572931254e+01 -3 0 1
349 1 1.3498865747941910e+01 1.7233385415164615e+00 7.0689313080772065e-01 2 0 3
839 2 1.0402502838020839e+01 4.9517530486876806e+00 1.4671883300981824e+01 -1 0 -4
636 2 1.4852991670587654e+00 2.9198960622316568e+00 1.3262541075630937e+01 2 0 -2
268 1 2.1745277365780389e+00 6.6865934363746904e+00 1.2516045641861455e+01 1 0 -2
806 2 1.1539683219127994e+01 4.6299061101160666e+00 1.6973905406828894e+01 -3 0 1
513 2 1.0420544152344275e+01 9.8216053069471787e+00 3.5940395771727354e+00 2 0 0
295 1 7.2357911249055853e+00 3.4200215552347446e+00 5.4324872466484573e+00 3 0 3
362 2 -2.6234526516886332e+00 9.0316421791528878e+00 1.6772529650967233e+01 0 0 -2
407 2 8.7518301877765445e+00 6.7864332861829908e+00 1.7998910823594898e+01 -2 0 -2
511 1 1.0119723817823413e+01 9.3245268076576124e+00 2.8028044494692406e+00 2 0 0
455 2 2.6228999342629038e+00 4.4682873091561204e+00 1.4289301147329496e+00 0 0 1
825 2 -1.0271667624552090e+00 7.9302139639534905e+00 4.4953281363201922e+00 1 0 2
774 2 1.1178087013838223e+00 9.5929782879963490e+00 1.8641811760475665e+01 1 0 -3
186 2 1.2467827450456537e+00 9.2503173054248222e+00 1.1323693815445059e+01 -5 0 -6
1489 1 1.1530251915659424e+01 3.8830921848334143e-01 1.6312883888152392e+01 0 1 -1
989 2 -2.3929509751260367e+00 6.2726633961216560e-01 7.4310791192848171e+00 0 0 0
438 2 3.9779637187153414e+00 5.2656310852322061e+00 1.7192981249424587e+01 -4 0 -1
1962 2 -1.3070726809961684e+00 2.3587232544165593e+00 8.6521471370560707e+00 2 1 1
113 2 3.1812508592473208e+00 8.1969626655871100e+00 1.6801975191494158e+01 -2 0 -2
642 2 6.8949524664325539e+00 5.3341082541349785e+00 1.2331807062110581e+01 4 0 -2
168 2 5.8801814340600931e+00 1.2801240870951898e+00 1.7257350424556396e+01 -4 0 -3
571 1 -4.3597986238017619e+00 9.3341775911605964e+00 1.7284711347479902e+01 2 0 3
975 2 4.5366331992410620e+00 4.2582056909491826e+00 2.8961004816075278e+00 -5 0 -2
978 2 5.2040395383646576e-01 5.1660504829780125e+00 1.4965231611813188e+01 -3 0 -1
538 1 6.8241134603591753e+00 3.3876676713013780e+00 1.4678685194222568e+01 -4 0 -4
952 1 8.9983570631494985e+00 6.9358972499962031e+00 8.1616382529393261e-01 0 0 1
506 2 1.0752255986784853e+01 7.1645591176746040e+00 4.5521927550526103e-01 -4 0 -2
283 1 2.8353663793947232e+00 7.6000863700989552e+00 4.0671192717381235e+00 -4 0 1
944 2 1.0481517417178061e+01 9.3114217285596510e+00 6.2216881867623082e+00 -1 0 2
787 1 -2.9734839326630729e+00 6.8328711709665919e+00 1.0212797201898461e+01 -1 0 -1
45 2 4.7843446051866074e+00 2.2424280152224840e+00 1.7294317136321529e+00 0 0 1
914 2 7.4927952581648611e+00 9.4877618511315340e+00 4.0558060865860943e+00 0 0 2
867 2 1.3754897460357238e+00 1.5945574988525750e+00 6.5544104374842727e+00 -2 0 1
672 2 1.5349823203997882e+01 7.7863434852454771e+00 3.4012107432505707e+00 -4 0 -1
738 2 9.6733420562598162e+00 8.5241089167196442e+00 1.0102380010606637e+01 -1 0 0
690 2 1.0209400795205498e+01 2.7271142474702770e+00 9.6677664294743213e+00 -2 0 0
643 1 1.5708368539925495e+00 3.2542617487806949e+00 6.5917019969094670e-01 -4 0 -2
481 1 -4.9169367559320509e+00 3.0981258933510518e+00 1.5453077529163687e+01 -2 0 -1
336 2 8.0905617043240134e+00 4.6334038397028632e+00 1.4973134865654107e+01 -3 0 -3
162 2 -1.3202749311022597e+00 3.7765531543366277e+00 1.7585395797915687e+01 0 0 -7
269 2 2.5952649470350808e+00 7.5735355353553100e+00 1.2674560905313937e+01 1 0 -1
689 2 1.1056039963131303e+01 1.6450437297193403e+00 1.0368834338370844e+01 -2 0 0
704 2 3.9732428866159255e+00 9.3986876471327765e+00 9.1459077036599528e+00 -2 0 0
634 1 1.5523663760390631e+00 3.2684658156595501e+00 1.2361056790460804e+01 2 0 -2
224 2 6.9234392661313384e+00 9.8473553380900203e+00 1.2996935952864739e+01 -2 0 -2
52 1 4.0668007856809032e+00 1.6151303836682533e+00 1.7471089538110306e+01 2 0 -1
197 2 1.3652929697898898e+01 4.0116001061194648e+00 2.8508710313290297e+00 -3 0 -1
582 2 8.9971710426683575e+00 7.1555437473647379e+00 1.2609042999597357e+01 -1 0 0
831 2 5.4479461629800037e+00 6.8205056563084128e+00 2.0084460855315998e+00 -4 0 0
697 1 4.2055885357731304e+00 1.1018657042483452e+01 1.4687475451643630e+01 1 0 2
567 2 -4.4130745940429117e+00 2.0940880687290830e+00 1.6914848723753007e+01 1 0 1
257 2 1.7003412245589224e+00 1.1640697905805175e+00 1.5167580875425045e+01 -1 0 0
428 2 9.8591070699785099e+00 9.5760696948400650e+00 1.8718303509024278e+01 -1 0 -1
491 2 1.0676413978938697e+00 7.2389849313703234e+00 5.4184697211022835e-02 3 0 1
196 1 1.4179950876425245e+01 3.2287405714793218e+00 3.0553837731098965e+00 -3 0 -1
214 1 4.4354139065820553e+00 9.4828909856336043e+00 1.6933968612691007e+01 -1 0 -3
724 1 4.1641441120583655e+00 1.8131726661406882e+00 5.2512027039476026e+00 1 0 0
413 2 1.2964152712788110e+01 2.8588727464302219e+00 7.0201403273248797e+00 0 0 0
171 2 1.1211518035197344e+01 1.1230282176022303e+01 1.2072998105442423e+01 -3 0 1
833 2 2.5871035472083390e+00 5.6611629884821149e+00 1.3878903024919822e+01 -4 0 0
760 1 9.1034936903749450e+00 3.1793859549559684e+00 1.6958772091918650e+01 -4 0 1
670 1 1.4850119855653693e+01 7.1446890158332605e+00 2.8131172506788595e+00 -4 0 -1
587 2 8.4540701409566950e+00 6.0248559355268494e+00 6.5471576987591176e+00 0 0 0
424 1 7.3062612743555047e+00 1.7573314748138691e+00 4.4360023311978358e-01 -2 0 1
71 2 6.2216849791018181e+00 4.6910010130870621e+00 5.0414715281954550e+00 0 0 0
54 2 4.1242868318502168e+00 2.2714864537876798e+00 1.8197152465079821e+01 2 0 -1
785 2 -3.3582501802749940e+00 4.8677104194486702e+00 1.7714955988495678e+01 -3 0 -3
938 2 2.4439664867342814e-01 9.1557602995609830e+00 3.2488836396791587e+00 1 0 1
55 1 1.2734534788866712e+01 1.5858382730346119e+00 1.0371398462051639e+01 -3 0 2
623 2 -4.7081979316104707e+00 1.0068013746502974e+01 1.8777799638376706e+01 -3 0 -1
953 2 8.5800646738869393e+00 7.8118757007535393e+00 6.8989179335778250e-01 0 0 1
823 1 -1.3031733843491107e+00 8.7465096862207492e+00 4.0018439017260139e+00 1 0 2
620 2 1.0278788469339727e+01 2.5546023199517487e+00 5.6812816249458677e+00 -4 0 1
215 2 4.5957858296758980e+00 9.9210141290739831e+00 1.7815669495360140e+01 -1 0 -3
958 1 3.6998385098913911e-01 3.2976923759419159e+00 1.7137972373136577e+01 0 0 0
292 1 2.7887964702215782e+00 5.6258416712508499e+00 9.9735943211586271e+00 2 0 -2
579 2 -1.0555064147180104e-02 7.6907304425724874e+00 9.8637856312398409e+00 0 0 0
888 2 -4.8944946954727531e-01 7.7653732955600363e+00 1.7208097184915953e+01 -1 0 -2
393 2 1.1127154516081882e+01 4.0639191862978095e+00 1.0140893564201390e+00 -1 0 -1
707 2 1.3810740514049737e+01 4.9184761355655899e+00 5.3157302136521469e+00 -1 0 0
297 2 7.2246245328151577e+00 2.9753414992419347e+00 6.3286074414184270e+00 3 0 3
925 1 1.6482194095808733e+01 4.0144262202851539e+00 1.9887502895559321e+00 0 0 2
277 1 1.1699312339553284e+01 5.8961332870973928e+00 1.0154338127914313e+01 -3 0 0
341 2 1.1816873186468031e+01 7.5757317570411082e+00 7.5600348298522189e+00 -3 0 0
838 1 1.1356352729112640e+01 5.1623666978927085e+00 1.4780714364887954e+01 -1 0 -4
167 2 7.3286978298895011e+00 9.5593359928247335e-01 1.7022703669465471e+01 -4 0 -4
706 1 1.4740313741820417e+01 5.1943040919484984e+00 5.0778614571787068e+00 -1 0 0
813 2 -1.0940312601700253e-01 1.0900150294927316e+01 1.7305382634081930e+01 -2 0 -1
479 2 7.1803285832314367e+00 4.7507928573873643e+00 1.8653545988827588e+01 -1 0 -6
606 2 7.1087699066692789e+00 1.3139318891691865e+00 7.4526985868634545e+00 -1 0 2
722 2 1.2224170668677274e+01 3.8695015610034842e+00 1.1975030655702286e+01 -5 0 -4
966 2 2.6929014459122653e+00 1.0648648416442123e+01 7.9486466431422453e+00 -2 0 -1
901 1 3.9989590689358163e+00 3.8030948064053889e+00 1.1690523634900012e+01 -1 0 -1
321 2 1.0271758885770849e+01 5.4631830244381074e-01 6.3255183999237623e+00 -4 0 -3
887 2 -1.4017801158088794e-01 6.2980653991757976e+00 1.6860142442807835e+01 -1 0 -2
766 1 1.3628842912491123e+01 9.0730318200895343e+00 7.8167787684083179e-01 -4 0 -1
185 2 2.0925939649459893e+00 8.8010686881329363e+00 1.0106231560348800e+01 -5 0 -7
102 2 4.1422929899389871e+00 9.9228297476881426e+00 5.9893494587651803e+00 0 0 -1
43 1 4.6153629065326998e+00 1.6680530259980384e+00 9.3207996659133763e-01 0 0 1
161 2 -1.6773003583150237e+00 4.6542502674660549e+00 1.8816278741319895e+01 0 0 -7
585 2 -1.8815897083125459e+00 1.0252630251885062e+01 1.0965254612364044e+01 -3 0 -4
139 1 3.8032616151603267e+00 2.8693433793109566e+00 7.6286331038511639e+00 0 0 -2
877 1 -1.6695234274310595e+00 3.0650481524936404e+00 1.0269848222891250e+01 -2 0 -1
188 2 1.4212821433061691e+01 7.3308251949940040e+00 7.0904574624002059e+00 -6 0 -4
961 1 1.4159193158158541e+00 3.6623516582804387e+00 8.6760198501327483e+00 -3 0 -2
619 1 1.0046317602634545e+01 3.3324804848300502e+00 5.2328676610655336e+00 -4 0 1
786 2 -3.7467385248139840e+00 6.3044960653478119e+00 1.8065048199640202e+01 -3 0 -3
905 2 1.1593939181989636e+01 7.6635632641039519e+00 1.2815477568262304e+01 -3 0 1
800 2 8.2581950320851512e+00 4.3295350594589195e+00 1.0860479376172654e+01 0 0 -4
996 2 5.0213945193676004e+00 4.1976449472095121e+00 8.4008908054772409e+00 3 0 1
917 2 1.2253803053611311e+01 5.9828111308522516e+00 2.9262086029255521e+00 1 0 3
1002 2 -3.1677092088384207e-01 5.6676192794379565e+00 1.1051982477294169e+01 0 0 1
783 2 1.1015628784417537e+01 7.9767245067453993e+00 3.3996077606405999e+00 -3 0 -4
251 2 7.5801968070912835e+00 3.2370546475732596e+00 1.4556786820542325e+00 -3 0 2
279 2 1.2405804157869580e+01 5.3732888391607094e+00 1.0558714805984978e+01 -3 0 0
250 1 7.3645961694193298e+00 4.0224520754458108e+00 2.0038992410278542e+00 -3 0 3
1001 2 -9.4986920614582937e-01 4.2183614517735659e+00 1.1122138198338071e+01 0 0 1
392 2 1.0027029036922194e+01 3.0072425602810555e+00 1.4324035018860899e+00 -1 0 -1
699 2 5.0655378191806184e+00 1.1261989870018127e+01 1.4336950865216828e+01 1 0 2
652 1 1.0385053320885863e+01 4.0510217830114552e+00 8.5837219237813898e+00 -2 0 0
1490 2 -3.9458756383277347e+00 3.3464102232938280e+00 1.5435714667060459e+01 -3 0 -1
252 2 8.1636506136830267e+00 4.3413093966493737e+00 2.4490539297711469e+00 -3 0 2
973 1 4.9057342946229419e+00 3.3934539337681158e+00 3.1934295116298141e+00 -4 0 -2
78 2 1.0627381527151382e+01 8.8214649997604226e+00 1.4782426568248546e+01 -1 0 -3
1914 2 1.1150013535043648e+01 6.5472067270030374e+00 1.1635897809256461e+01 -3 0 1
565 1 -4.1455245028916989e+00 1.5858697286178804e+00 1.7710020389749239e+01 1 0 1
1078 1 5.7246888254122998e+00 5.5293662759892364e+00 4.9391738159278544e+00 0 0 0
869 2 -3.7211201908578575e+00 6.3864411205764107e+00 1.5800148735862750e+01 2 0 1
931 1 5.2301303811497819e+00 6.8832397165473607e+00 1.4575332714436129e+01 -2 0 -1
361 1 -1.8520372342863651e+00 8.6913784139575565e+00 1.6250183210342964e+01 0 0 -2
900 2 5.5472417005990282e+00 1.6779973905173704e+00 1.2278840323256942e+01 -1 0 2
872 2 1.4945204095282330e+01 6.4800339667423952e+00 1.3378336571473550e+00 -2 0 0
926 2 1.5712744452958491e+01 3.7099688122545103e+00 2.4651008107251506e+00 0 0 2
514 1 1.4715793769260513e+01 4.7566069790417247e+00 8.6192840362556229e+00 -1 0 -1
211 1 4.0939441025464873e+00 3.2207037067246751e+00 1.5121454024264056e+01 -4 0 -3
153 2 -1.6125223175116394e+00 2.9712601078125345e+00 6.3560680723815528e+00 4 0 -1
79 1 1.2199281873579935e+01 4.1963572342246669e-01 3.8978676236672163e+00 -4 0 1
114 2 1.7254613857535368e+00 7.5581196021315549e+00 1.6751443439491400e+01 -2 0 -2
829 1 5.0960554741531388e+00 7.0925059443872680e+00 2.9150001466025817e+00 -4 0 0
483 2 1.2568679661932293e+01 3.9384765277638341e+00 1.5303117993209224e+01 -3 0 -1
691 1 1.3094367076393004e+01 8.6808111892240110e+00 1.3305055359601322e+01 1 0 2
946 1 1.1705833054867205e+00 8.2578119323920589e+00 6.7926643199817338e+00 -1 0 3
172 1 8.4866035194473923e+00 4.8733348972934160e-01 1.3360851010001229e+01 -1 0 -2
708 2 1.5245712866573873e+01 4.3275086559798792e+00 4.9366368643888316e+00 -1 0 0
904 1 1.1074240544493771e+01 6.9095726652131795e+00 1.2601417026095403e+01 -3 0 1
918 2 1.2418389802776801e+01 5.7481734691442083e+00 1.4283772066111506e+00 1 0 3
40 1 1.3401126292759459e+01 1.9594028701045976e+00 5.5201084720516684e+00 -4 0 3
480 2 6.1517643482298263e+00 4.5893059687562721e+00 1.7588508226266224e+01 -1 0 -6
1516 1 1.1595059287200957e+01 7.6688350065497426e+00 1.6150618434063873e+01 0 0 0
296 2 7.0533981570804674e+00 2.6700138988281901e+00 4.8245758442044924e+00 3 0 3
124 1 5.9546726361360491e+00 7.7736780960766616e+00 6.8408209454474802e+00 -1 0 1
676 1 9.3981996167840975e+00 5.4517009230346707e+00 3.1126955378973906e+00 -2 0 0
1939 1 7.4850272708773211e+00 3.0942021189672562e+00 1.0043670750762226e+01 1 1 0
457 1 2.7230482648222702e+00 7.4829439373044293e+00 4.5077708783578535e-01 -2 0 -2
216 2 5.3587332259151612e+00 9.2619587265650054e+00 1.6763926300161415e+01 -1 0 -3
166 1 6.5452928294748807e+00 1.3265449420763691e+00 1.6569840347141096e+01 -4 0 -3
408 2 8.8210796691110360e+00 6.5188635530921024e+00 1.6421705952397417e+01 -2 0 -2
8 2 2.7249897903059610e+00 5.7627388906657471e+00 4.6284127469185572e+00 -1 0 -1
507 2 4.9719772479399564e+00 6.6726857884561719e+00 1.8454099207624200e+01 -4 0 -3
916 1 1.2207024902959336e+01 5.2337411456373095e+00 2.2769625454037028e+00 1 0 3
873 2 1.5456912744253918e+01 5.1223473623758196e+00 7.7053022717855812e-01 -2 0 0
580 1 8.2984157502153693e+00 7.4323626890011392e+00 1.3264343701872336e+01 -1 0 0
915 2 6.6180527460518652e+00 8.3311828809104753e+00 3.3917819146526753e+00 0 0 2
954 2 9.0175293586371286e+00 6.6094355457956624e+00 1.7376834648867860e+00 0 0 1
876 2 -3.5616778245419387e+00 5.0516495247523956e+00 1.2623827058693024e+01 -2 0 1
9 2 2.2070202476923679e+00 4.4411034170653974e+00 5.2092296336499029e+00 -1 0 -1
476 2 4.9202007622135326e+00 9.5357113490428773e+00 1.6324408892667595e+00 -1 0 3
498 2 7.7217376056503975e+00 1.0741934095528450e+01 1.4841910429577068e+00 -1 0 1
337 1 1.6299158073218294e+01 1.1063114290868826e+01 2.2510762652620837e+00 -2 0 -1
737 2 1.0232816533369412e+01 9.7135688709298140e+00 1.1008518847471317e+01 -1 0 0
334 1 8.7112656359506158e+00 5.3748406886268754e+00 1.4994288625494031e+01 -3 0 -2
612 2 1.3361106226269404e+01 9.7158598547085635e+00 4.6342548166505448e+00 0 0 2
970 1 7.9787226540330689e+00 9.2742125580365986e+00 7.8550380831567193e+00 -1 0 2
641 2 5.4470524078674032e+00 4.6672383403756657e+00 1.2268826548177756e+01 4 0 -2
66 2 1.3182035666383317e+01 9.4552138033284354e+00 9.2157628471091453e+00 -3 0 -3
770 2 1.1897588516670059e+00 2.2769320189589415e+00 2.1763283932423896e+00 2 0 -1
870 2 -3.0588907564258916e+00 6.4758479239735420e+00 1.4317261706354307e+01 2 0 1
767 2 1.3042774805287577e+01 8.3523054808788579e+00 5.2921231753060627e-01 -4 0 -1
456 2 1.9065009573450094e+00 5.5470652691777138e+00 2.2669994188178539e+00 0 0 1
59 2 8.7713265292244404e+00 6.7367779437522799e+00 8.7780975156820684e+00 -1 0 2
492 2 1.0313470844434902e-01 6.4497841803394032e+00 9.2326612616155135e-01 3 0 1
288 2 1.0492092804426415e+01 9.9485940678873632e+00 1.1943589468369442e+00 1 0 -2
999 2 6.8073587512386524e+00 7.0382498154653090e+00 9.9978581047034538e+00 -3 0 3
391 1 1.0389816464068243e+01 3.5441264039354077e+00 6.7920224343164648e-01 -1 0 -1
881 2 6.3560368247139403e+00 7.8638149494888197e+00 1.5412414616216543e+01 -3 0 1
998 2 5.7861314381678444e+00 6.3656373161231103e+00 1.0995311223847674e+01 -3 0 3
335 2 8.4207913992314705e+00 6.0974725680786603e+00 1.4325398630007175e+01 -3 0 -3
809 2 6.7735601164768076e+00 9.8838498375526065e+00 1.0623969410103445e+01 -4 0 -1
1994 2 1.1389571265109398e+01 4.4118596432675430e+00 5.3749216684633323e+00 -3 0 -3
611 2 1.4015156358399560e+01 8.7560568965450596e+00 5.6956185672031765e+00 0 0 3
605 2 7.9277032772542704e+00 2.2795662442810003e+00 8.4335213476959510e+00 -1 0 2
584 2 -1.3090101464904023e+00 9.8950048819384548e+00 9.4581656196893285e+00 -3 0 -4
1911 2 3.6066043353916251e+00 4.4429238800919615e+00 1.1045546133893788e+01 -1 0 -1
781 1 1.1652268855804047e+01 7.3548444202751604e+00 3.8482652928939958e+00 -3 0 -4
773 2 6.7687495200517906e+00 9.0965022919558631e+00 4.3465834280096310e-01 1 0 -2
588 2 7.5749017702998760e+00 5.0386707602828062e+00 7.5897595908684128e+00 0 0 0
293 2 3.3710224898490511e+00 6.0765069966318288e+00 9.2956304348747274e+00 2 0 -2