LAMMPS data file via write_data, version 3 Mar 2020, timestep = 12500000

2016 atoms
2 atom types

2.6347673145808415e-01 1.8136078268534170e+01 xlo xhi
-1.8508136320813691e+00 4.6846973608998013e+01 ylo yhi
2.3223839647244837e-01 1.9273477603519957e+01 zlo zhi
2.7301972425579232e-02 -6.7357240001104168e+00 -7.9925172863761773e-02 xy xz yz

Masses

1 16
2 2

Atoms # atomic

579 2 2.9601809221471269e+00 3.8711163173092134e+00 1.7078015822877909e+01 0 0 0
223 1 -1.4540487815026966e+00 6.6958230748031120e+00 1.8040332075609484e+01 -2 0 -2
995 2 7.8102443353548807e+00 5.2533215606304466e+00 8.8448922365151219e+00 3 0 1
654 2 1.6069856723415132e+01 6.2514001419294072e+00 4.9396464002631424e+00 -2 0 0
394 1 9.4747050992216533e+00 4.6726687873981758e+00 3.4623630414977233e+00 -3 0 -3
578 2 3.0553824261915485e+00 5.4130431447606702e+00 1.6601791138706218e+01 0 0 0
929 2 1.3888631712599082e+01 3.0269565891501182e+00 6.2629179147023137e+00 0 0 0
513 2 8.3510465126853006e+00 -9.9561875970922975e-01 1.5702107011691085e+01 1 0 0
705 2 -2.5779127853661405e+00 5.8963261366790940e+00 1.3442636753767232e+01 -2 0 -1
302 2 8.7913139663047435e+00 6.6139401660414077e+00 1.3253469584367377e+00 0 0 0
299 2 1.2101869821646847e+01 6.2578574914358764e-01 1.6896769918934737e+01 -3 0 -2
896 2 1.6647899025002562e+01 7.0901690780521971e+00 1.3203885434332199e+00 -1 0 0
150 2 1.0839484536322049e+01 7.1277069539280777e+00 1.7157795395714224e+01 -4 0 -1
406 1 1.8739117643250167e+00 6.6333726691264605e-01 1.1158979358720227e+01 -2 0 -2
457 1 -6.8592177689106215e-01 -1.5923168980066826e+00 3.3092357675317969e+00 -2 0 -2
596 2 2.0715456152911815e+00 5.4645299349676408e+00 5.8821157925475918e+00 3 0 -2
368 2 1.4910022729967769e+01 9.7140839625368240e+00 3.0007759930241193e+00 -2 0 0
670 1 -2.6454790602820322e-01 -1.3638017621379390e+00 6.8497106965949683e+00 -3 0 -1
881 2 1.1996496662180210e+01 1.7030583390442851e+00 9.1127648604917884e+00 -3 0 2
319 1 1.0934865102902805e+01 -7.5604030648334719e-01 1.4440341188186650e+01 -4 0 -3
53 2 1.1059125761412847e+01 3.4386876903869554e+00 1.2751308279861586e+00 2 0 0
926 2 -3.0689101981934979e+00 -1.4530957092227852e+00 1.2628382005170872e+01 2 0 2
609 2 4.3805862137800187e+00 4.8388667275489317e-01 2.9476070391685352e+00 -3 0 0
1583 2 -4.0831287174669209e+00 7.8751709254234159e-01 1.5266574913085574e+01 0 1 1
122 2 8.2978769161992947e+00 5.0597705245210012e+00 1.5532210493996329e+01 -2 0 -1
295 1 1.6877908159702304e-01 8.0617706587721560e+00 2.5422057093194890e+00 2 0 3
407 2 1.1619349139036244e+00 7.7055143952471061e-01 1.1810180264817790e+01 -2 0 -2
707 2 1.6680231629732019e+00 6.3418543321623613e+00 1.5113564632177473e+01 -1 0 -1
972 2 3.9041892514715704e+00 6.5575256137633087e+00 2.0646959349261289e+00 0 0 1
448 1 5.5680486099235562e+00 6.1555532584874779e+00 1.0539720559675411e+01 -1 0 1
244 1 1.1182015543672215e+01 6.8835695886133266e+00 1.3803643429440982e+01 -4 0 -4
762 2 9.6075325465412895e+00 -8.6324277522647552e-01 7.2215553829445112e-01 -3 0 2
687 2 2.4963536431668549e+00 -8.5904606787755811e-01 1.0384103707678848e+01 -3 0 0
977 2 5.3695885244246107e+00 -9.6289992143504688e-01 1.8220752308897175e+01 -3 0 -1
713 2 -6.4816525524260271e-01 -1.7589258318135166e+00 1.2378716894604400e+01 0 0 3
301 1 9.0215362417182998e+00 5.6857688278587881e+00 9.5066422822154217e-01 0 0 0
149 2 9.6030012377617702e+00 7.4371025904203840e+00 1.8020320888198519e+01 -4 0 -1
270 2 -5.5470116155933624e-01 8.4559247949304055e+00 1.4926405392127394e+01 2 0 -1
463 1 3.1838887446078599e+00 6.5350955087591682e+00 6.8258481540594120e+00 2 0 0
449 2 5.4061624971158899e+00 7.1280541845917345e+00 1.0620212528041151e+01 -1 0 1
524 2 2.2768786784510784e+00 3.1718336279940340e+00 1.3380138011921277e+01 -2 0 -4
585 2 -2.5441195705016950e+00 7.9052406700795554e+00 1.2803680592443763e+01 -4 0 -4
523 1 2.1134113851843637e+00 3.9427898866050395e+00 1.2776680993061499e+01 -2 0 -4
658 1 5.9997204605984225e+00 1.9217257137337147e+00 1.4381932147026923e+01 -1 0 -2
206 2 3.5063413368526675e+00 1.0188395444780860e+00 1.2164270929416793e+01 3 0 0
96 2 -1.0487515326482786e+00 3.9697138504587528e+00 7.7865572449357829e+00 -1 0 -1
441 2 9.6702966011002811e-01 4.5416741563530039e+00 1.3698335717676683e+01 -2 0 -1
151 1 7.6433107831610103e+00 4.8572870551072134e-01 3.8645016374359247e+00 3 0 0
781 1 2.3306291428217194e+00 3.5015273905116127e+00 1.1189809380933868e+00 -2 0 -2
880 1 1.1506426813685991e+01 1.2913005992767403e+00 8.3887965154343451e+00 -3 0 2
626 2 2.4024876515140106e+00 1.5523025810452098e+00 1.7956385303286204e+01 0 0 -1
978 2 6.2496593679274284e+00 -1.5296123220504181e+00 1.7094007991240389e+01 -3 0 -1
703 1 -2.1457749941694120e+00 5.1306043875837855e+00 1.3920990280612132e+01 -2 0 -1
382 1 1.6608323190100535e+01 4.8845371916889064e+00 2.0830536927391585e+00 -2 0 1
21 2 9.6753040131659613e+00 7.5758509258119577e+00 3.6243637653323519e+00 -3 0 -3
230 2 2.5398269778276208e+00 -1.4195705531017959e+00 8.0025034671751278e+00 0 0 -2
54 2 1.0858338161371197e+01 2.2643814945609178e+00 2.3042368953805701e+00 2 0 0
963 2 2.4064183681258644e+00 -1.6698352338147442e+00 1.5404334983594090e+01 -3 0 -1
689 2 7.4737535941852817e-01 1.8189560428111813e+00 6.0210448930114921e+00 -2 0 0
336 2 8.9135037747064860e+00 9.3950489276343809e+00 9.2088969080326635e+00 -2 0 -2
392 2 2.6733693105855556e+00 6.5336953351664171e+00 1.1823675269933998e+01 -1 0 -1
652 1 -8.4572010151692822e-01 6.2943081196253630e+00 4.6261749983225648e+00 -1 0 0
52 1 1.1031386933149811e+01 2.4431755997661035e+00 1.3420979994888280e+00 2 0 0
356 2 -2.3300682047261931e+00 5.8970090726938924e+00 1.7123365170021493e+01 -4 0 -3
477 2 8.1090755919278372e+00 5.2910381803722339e+00 1.2750838499112101e+01 -1 0 2
500 2 -7.9424031439170539e-01 1.6303215375427964e+00 1.2333845070656865e+01 1 0 0
367 1 1.4479663975516063e+01 9.2236837448897617e+00 2.2292320510442623e+00 -2 0 0
806 2 1.0740112961859275e+01 7.1066089609947749e+00 7.9419464299099047e+00 -4 0 1
789 2 5.3571548835703018e+00 8.2137910583939089e+00 2.1288090810739657e+00 -2 0 0
810 2 6.9611218933890626e+00 4.0207336562983569e+00 7.3717060937505403e+00 -4 0 -1
930 2 1.4815215266766877e+01 2.1326775083696812e+00 5.3839145834686644e+00 0 0 0
702 2 5.1553827130096073e+00 5.5312783497222773e-01 1.6851570808288855e+01 -3 0 -3
501 2 -7.5643313309013260e-01 1.4701774180751381e-01 1.2305426562003591e+01 1 0 0
625 1 3.0550469429208729e+00 2.3286365393330684e+00 1.7951588346873706e+01 0 0 -1
776 2 1.1557141370842166e+01 -1.0534649759148651e+00 1.6152702707792947e+00 -2 0 2
101 2 4.6703559601047635e+00 5.9259863840410416e+00 1.1968285587543354e+01 -1 0 -1
384 2 1.7084646093214282e+01 5.2703817310770571e+00 2.8490404976358863e+00 -2 0 1
245 2 1.1731365782253874e+01 7.3652165258430315e+00 1.4435288834151022e+01 -4 0 -4
622 1 -3.1885424050420705e+00 2.6435518261943374e+00 1.8051008286160567e+01 -2 0 -2
624 2 -2.2372821280888924e+00 2.3589076668631925e+00 1.8113752611072094e+01 -2 0 -2
179 2 5.6004792312869833e+00 5.2714284560658600e+00 1.9202473768356278e+01 -3 0 -1
1584 2 8.5271062347182855e+00 9.2586779542578022e+00 1.5359086818212401e+01 0 0 0
925 1 -3.8593387910311217e+00 -1.6276732388909119e+00 1.3154748081180841e+01 2 0 2
344 2 1.2212493132732384e+01 -1.9093941257764184e+00 1.5533888742984374e+01 -2 0 1
268 1 -1.0190264579709649e+00 8.5744505871645469e+00 1.4089298436522126e+01 2 0 -2
600 2 2.3434212750224948e-02 1.5142967825540321e-01 9.9319779174839873e+00 -3 0 1
49 1 9.5325179032779701e+00 2.2953515453528643e+00 1.0853455260642313e+01 -1 0 0
183 2 1.1748477395840993e+01 3.6403329495678696e+00 6.5110235266775200e+00 -1 0 0
464 2 3.5078101236253501e+00 7.1808335858847894e+00 6.1639636531173663e+00 2 0 0
393 2 1.6665567128061651e+00 7.6762453355070637e+00 1.1724536869052718e+01 -1 0 -1
1582 1 9.4518212122455942e+00 9.2273436887221081e+00 1.5053964261994372e+01 0 0 0
671 2 4.4074169675412556e-02 -4.0199115942327746e-01 6.7323312518812859e+00 -3 0 -1
135 2 -1.0878771656120225e+00 2.7674131276833807e+00 9.6209346691598228e+00 1 0 -1
778 1 6.6753788758314556e+00 8.0291927592977181e+00 4.9639115432353442e+00 1 0 0
949 1 -3.4963926702943686e+00 -1.4233612813338006e+00 1.7551983368360531e+01 -1 0 1
598 1 -6.6775993813555701e-01 -4.1286055622941986e-01 9.5557104474635342e+00 -3 0 1
120 2 5.9266629407498446e+00 3.2037230849114486e+00 3.0641380765810449e+00 -2 0 -2
858 2 -7.9342629125774811e-01 6.6087256712153177e+00 7.3204849112380934e+00 -1 0 -3
640 1 -7.6555298197852117e-01 5.3124050208692752e+00 1.1347458943797600e+01 4 0 -1
753 2 -4.5137238909180670e+00 5.9557090258823786e+00 1.7053613729076901e+01 0 0 2
527 2 3.8608460009387211e+00 -1.2808112221656152e+00 6.0384755378550636e+00 -2 0 0
119 2 4.7324857858370217e+00 4.0878128396097004e+00 3.6477011415375640e+00 -2 0 -2
525 2 2.7902413055062283e+00 4.6004255776556535e+00 1.3057948657852211e+01 -2 0 -4
495 2 8.9894153592527548e-01 7.7132156283432831e+00 8.3850881802103530e+00 -3 0 -2
971 2 3.3830022273240390e+00 7.7141641093091895e+00 1.1714643840228300e+00 0 0 1
559 1 8.8826137643871075e+00 -1.2607427821992596e+00 7.4069266052860101e+00 -2 0 1
212 2 9.5168635202240317e+00 4.0594324495873915e+00 6.9801537598063002e+00 -5 0 -2
701 2 4.3456883196569693e+00 1.9119976972747947e+00 1.7008816629856135e+01 -3 0 -3
5 2 4.9379328354080103e+00 8.7381702093490183e+00 5.3482866047571429e+00 1 0 0
470 2 1.6791076390867573e+01 3.2323079788157258e+00 2.5266982294888090e+00 -7 0 -2
471 2 1.6297189815912120e+01 1.8212490122698850e+00 1.9316868632922342e+00 -6 0 -2
708 2 1.6954107296583265e+00 7.5495544964528740e+00 1.5976440917645002e+01 -1 0 -1
85 1 1.7117298028486367e+01 -1.5048293625713591e+00 3.7690330291963275e-01 1 0 -2
46 1 1.0072841274848559e+01 6.2003554942670860e+00 6.7717028507382855e+00 -3 0 0
992 2 1.4613266733659589e+01 -1.0095820969794214e+00 8.8601951197246418e+00 1 0 1
856 1 -5.8327670467321191e-01 7.4626803651835054e+00 7.7200377062076520e+00 -1 0 -3
627 2 3.4711800969303068e+00 2.2677681603161020e+00 1.8834695131969283e+01 0 0 -1
111 2 1.6401105658614892e+00 -5.2201891636458941e-01 1.8280507472543434e+01 1 0 -4
869 2 1.1827990463497921e+01 5.1343617537642556e+00 9.8157528841243931e+00 1 0 0
16 1 1.8948035408739372e-01 3.0934005271618119e+00 1.6317915154787222e+01 0 0 1
178 1 4.7127283355013363e+00 4.9453387621536784e+00 1.9269244108521839e+01 -3 0 -1
974 2 1.0524291423543302e+01 -8.3121348796292738e-02 1.6060144701238627e+01 -4 0 -2
118 1 5.4694024088093602e+00 3.4999027531112370e+00 3.8732711704297862e+00 -2 0 -2
922 1 4.1855246843052738e+00 8.6337084189692437e+00 1.4965774209410206e+01 -3 0 -3
623 2 -3.7501005058570911e+00 2.0132788506815720e+00 1.7605453371062097e+01 -2 0 -2
1668 2 6.0020996297787166e+00 2.8536919705213410e+00 1.4147848547272840e+01 -1 1 -2
644 2 1.1686061663910234e+01 3.3270354436161886e-02 1.1474615704506366e+01 -4 0 -3
334 1 8.6171089826198948e+00 9.9996205200379595e+00 8.4296784200236896e+00 -2 0 -1
83 2 1.4045711747771145e+01 7.1285552418306413e+00 7.1219520707907193e+00 -1 0 -3
239 2 4.8470674369791524e+00 4.5832381875316441e+00 1.5648727220685378e+01 0 0 0
716 2 6.3880135160807026e+00 2.1772855029001343e+00 1.1610422871042050e+00 1 0 2
717 2 7.0845957310578864e+00 3.5860189362379273e+00 1.2156231795614119e+00 1 0 2
240 2 6.0817380401956793e+00 5.4010665295378528e+00 1.5290332719728063e+01 0 0 0
904 1 8.6706480646089918e+00 8.2283600811213802e+00 2.0310611780706589e+00 -3 0 2
17 2 2.2575188354188569e-01 3.7227396031756648e+00 1.5544331606085308e+01 0 0 1
779 2 6.5172068505864189e+00 8.4038181601789805e+00 4.0644776873153639e+00 1 0 0
760 1 8.7810233355735310e+00 -1.4033245618182881e+00 6.2276999140570499e-01 -3 0 2
645 2 1.0844132607905438e+01 1.2766995518643807e+00 1.1777898598383398e+01 -4 0 -3
613 1 -1.0662552989518463e+00 1.1108475495345327e+00 1.8472938325198825e+01 -2 0 -1
246 2 1.1353940713280155e+01 5.9582465298882488e+00 1.3710249303445522e+01 -4 0 -4
238 1 5.4530926776785122e+00 4.7088803419066760e+00 1.4945396342725735e+01 0 0 0
522 2 8.1785534429308218e+00 -3.2730261672359440e-01 1.0722651421103945e+01 -5 0 -2
715 1 6.9691776851262786e+00 2.7618550844999668e+00 1.6960128655603683e+00 1 0 2
115 1 1.3396309943487024e+01 3.4037950111756183e+00 1.3298476333462702e+01 -5 0 -5
426 2 1.3589692028966354e+01 1.3417880917068752e+00 2.9899697029290904e+00 -2 0 1
494 2 1.8777592530227087e+00 7.5707701108039807e+00 9.6138352346946441e+00 -3 0 -2
165 2 9.4565822140821520e+00 9.6965454433180920e+00 1.1720330910127595e+01 2 0 0
250 1 5.0844285931528663e+00 8.7422000671700726e+00 1.0769717160274681e+01 -3 0 2
933 2 -1.6862605303857561e+00 9.1758210315245448e-01 1.5081953224083289e+01 -2 0 -1
857 2 -6.0117047132536006e-01 8.1404504928176635e+00 6.9994950239745188e+00 -1 0 -3
868 1 1.2596857855746441e+01 4.6705923385193868e+00 9.2988716967298526e+00 1 0 0
291 2 9.8167169940449597e+00 9.2016677790859802e+00 5.6219341615018221e+00 0 0 3
18 2 -2.5108051756702920e-01 2.3099651645599275e+00 1.5954199490535666e+01 0 0 1
736 1 1.3613394945462774e+01 1.0058282616561490e+01 6.5552255287911949e+00 -1 0 1
504 2 5.7572544861954738e+00 -6.8136522699688884e-01 9.2342587655225792e+00 0 0 -1
785 2 6.4620044537721832e-01 1.6524491799551444e+00 2.6967272600416559e+00 -3 0 -2
870 2 1.3350157295770991e+01 5.2250034607260076e+00 9.4826889885586176e+00 1 0 0
211 1 1.0021986285227994e+01 3.2106652849266499e+00 6.8638923174970614e+00 -5 0 -2
387 2 1.8166830004483716e+00 3.3648277676225113e+00 5.0424385125090856e+00 0 0 -2
591 2 1.5060708899057555e+00 9.9092229714040201e+00 1.1900965105501072e+01 -4 0 -1
643 1 1.1577592305347995e+01 6.8644709352513678e-01 1.2176522809641426e+01 -4 0 -3
459 2 1.7018473502458985e+01 -1.3574580115819046e+00 2.4311172891297468e+00 -3 0 -2
747 2 -3.8165960767183087e+00 9.2240961925713165e+00 1.5161203064507808e+01 -2 0 0
289 1 8.8757276119444768e+00 9.3328708542664298e+00 5.8886289041180824e+00 0 0 3
116 2 -4.2577637634196659e+00 2.5280832332584895e+00 1.3645814174582741e+01 -4 0 -5
224 2 -7.1098706816192081e-01 6.0971836471604011e+00 1.8237189803388475e+01 -2 0 -2
845 2 7.8908083113263663e+00 -4.2389424074177473e-01 1.3082316440989018e+01 1 0 1
48 2 9.1258388977918692e+00 6.3458624176655789e+00 6.9452059916728350e+00 -3 0 0
117 2 -3.7547787196426725e+00 3.9707531882381506e+00 1.3620595460127534e+01 -4 0 -5
931 1 -7.7070834025838231e-01 6.7027690291712005e-01 1.5295039559008409e+01 -2 0 -1
429 2 -5.2843599685713620e+00 7.6422165894508236e+00 1.6306990641351739e+01 0 0 -1
385 1 2.0014483074113976e+00 2.3767263882502467e+00 5.1132006517543109e+00 0 0 -2
919 1 1.1467788619669648e+01 -1.0056192751703659e+00 9.8334148601198041e+00 0 0 -2
961 1 1.8911205711766295e+00 -9.5156559426535381e-01 1.4952529037773683e+01 -3 0 -1
42 2 3.8546641730772340e+00 5.3505676024768780e+00 8.0377355579600636e+00 -2 0 3
726 2 1.4652075203718731e+01 1.2707277699009518e+00 9.3027963559350315e+00 1 0 1
876 2 1.1915561361334078e+01 7.7606051067195825e+00 1.2275606965342305e+01 -3 0 1
769 1 -2.7865452812243925e+00 5.8667830928631375e+00 9.4776073728718160e+00 1 0 -3
1002 2 9.2691490252308011e+00 1.2667567138579958e+00 3.7893198329911582e+00 -1 0 1
4 1 4.0967814690921589e+00 9.1886593385891757e+00 5.7523888217187897e+00 1 0 0
905 2 9.1316493774023009e+00 8.9083727063223126e+00 1.5215373330852719e+00 -3 0 2
41 2 4.6925110961744387e+00 4.0544534950710576e+00 8.4810335259468204e+00 -2 0 3
976 1 5.3283794188660361e+00 -1.2109138704631941e+00 1.7241628225684316e+01 -3 0 -1
812 2 1.0994908177550911e+01 4.6436964016896312e+00 1.2252826998487599e+01 -2 0 -1
932 2 -3.6000954113048156e-01 6.6403387321323537e-01 1.4432964090004377e+01 -2 0 -1
279 2 7.1693377321428926e+00 1.0111902504136649e+01 8.7915023596610826e+00 -4 0 -1
213 2 9.3175947479441703e+00 2.6130299378295563e+00 6.4859358427730278e+00 -5 0 -2
290 2 8.2424556563928810e+00 8.7280273975782023e+00 5.4744704497510090e+00 0 0 3
685 1 2.8158994564632454e+00 -1.6537461899003651e+00 9.9863223508972307e+00 -3 0 1
338 2 2.6868272224392569e+00 5.2388929104182074e+00 3.9141249060202132e+00 -1 0 -1
938 2 1.2029922822266865e+01 6.9620606493200068e+00 3.3745484095292650e+00 1 0 1
969 2 1.7897714268076368e+00 3.7030431856141819e+00 1.1048991766703717e+01 -1 0 1
545 2 1.7670854760637562e+00 2.0764663107656558e+00 1.5369952893244180e+01 2 0 1
386 2 1.9510577773197557e+00 2.0674757487933610e+00 4.1892024804808266e+00 0 0 -2
937 1 1.2992834611561367e+01 6.8142478161190816e+00 3.1550304971699181e+00 1 0 2
40 1 4.0919142753095414e+00 4.7512213981263791e+00 8.7973179860165942e+00 -2 0 3
786 2 1.9067335103102003e+00 2.0448246442927021e+00 2.1486936369409220e+00 -3 0 -2
184 1 5.6646537035134914e+00 -1.3130071619823016e+00 6.5981424192989047e-01 -4 0 -6
724 1 1.5190765227189207e+01 9.3265041043523444e-01 8.5520255849470690e+00 1 0 1
784 1 1.5703732397497241e+00 1.3568893216163720e+00 2.6585102435473615e+00 -3 0 -2
967 1 1.8184528084531681e+00 3.6448194848143229e+00 1.0073814408692442e+01 -1 0 1
553 1 9.3488977312064634e+00 2.6334689996299963e+00 1.7369535640796720e+01 -5 0 -2
681 2 1.3724887870460455e+01 3.5039892060531823e+00 2.3709344998815809e-01 -3 0 -2
649 1 8.0993595495760040e+00 1.2123155216283021e+00 6.2957851367450326e+00 -4 0 0
650 2 7.3881149755187181e+00 1.6002030750956333e+00 6.8094975928513160e+00 -4 0 0
51 2 9.1198404990982134e+00 1.5578127229413865e+00 1.0371228476517881e+01 -1 0 0
36 2 -1.3876745895461176e+00 8.1639174591688191e-01 5.5024900943988335e+00 -1 0 0
945 2 3.7564507636605313e+00 1.9877175153365241e+00 5.5728059065360460e+00 0 0 3
673 1 1.8589013871196836e+00 8.2922091639069695e+00 5.0799606354802296e-01 0 0 -3
939 2 1.3393765550874367e+01 7.6844537255415357e+00 2.9066184992110511e+00 1 0 1
397 1 1.4277030061210107e+01 6.2380288400184796e+00 5.5130466856911573e+00 2 0 0
127 1 1.3989624661467886e+01 4.3140067775391335e+00 2.1319648336548473e+00 -2 0 -1
128 2 1.3626480913712161e+01 3.5952403163440270e+00 2.7422557148580204e+00 -2 0 -1
1407 2 1.3828990326075179e+01 6.4421033246760881e+00 4.6611401813025033e+00 2 0 0
34 1 1.6083691591278107e+01 5.8490718715573431e-01 4.6723989601404110e+00 -2 0 0
928 1 1.4741881441711795e+01 2.5869410194636639e+00 6.2069451595415348e+00 0 0 0
777 2 1.1518312272085403e+01 4.0375597623407256e-01 1.0707286916221364e+00 -2 0 2
152 2 6.7907862228950560e+00 7.6514659882785541e-01 3.4283986990151414e+00 3 0 0
439 1 5.5882591492146627e-01 5.0510106661680219e+00 1.4453529730911836e+01 -2 0 -2
350 2 1.4792539687993445e+01 5.7727519544267247e-02 1.3568491207149032e+00 2 0 4
714 2 -1.3888597858885676e+00 -1.4297002844186877e+00 1.1001591070349139e+01 0 0 3
176 2 4.6529006842232388e+00 -8.4650578008822119e-01 1.2850583173705813e+01 -5 0 1
783 2 2.9730425687271365e+00 3.1580708300904723e+00 3.6920056500496745e-01 -2 0 -2
148 1 9.9154432594415027e+00 7.3438697289756547e+00 1.7106551721461564e+01 -4 0 -1
994 1 8.1125388376395087e+00 5.3237571921421836e+00 9.7927551847622816e+00 3 0 1
725 2 1.4877795833579444e+01 1.4978048397133765e+00 7.7999841844190012e+00 1 0 1
160 1 -1.2273160756429586e+00 8.6572730264227680e+00 1.0027963918688551e+01 1 0 -5
129 2 1.3603639529784763e+01 5.1540004786156945e+00 2.4142158818634627e+00 -2 0 -1
589 1 6.7017990593341992e-01 9.4165645154540485e+00 1.2147578698713009e+01 -4 0 -1
173 2 9.8223048900106846e+00 3.8751590744998001e+00 1.4310081156348161e+01 -1 0 -2
1664 2 4.5113868309235450e+00 8.8586257783506355e+00 1.8212861373851887e+01 -3 1 -1
428 2 1.2053519061483978e+01 9.0745617706919699e+00 1.6169070983881532e+01 -1 0 -1
746 2 -2.3375503345099333e+00 9.4136307416191922e+00 1.4439369616225092e+01 -2 0 0
462 2 9.7160406971006648e+00 5.4473127022311969e+00 1.0200138325061504e+01 -4 0 -2
651 2 7.7453306102418402e+00 1.1895726439152252e+00 5.4111756323441176e+00 -5 0 0
996 2 7.3383331778481402e+00 5.6025830018827607e+00 1.0357075797008607e+01 3 0 1
611 2 1.3123151575391429e+01 3.3063426925892623e+00 1.0210320544664459e+01 -1 0 2
962 2 1.4782160489742617e+00 -1.4413933660631009e+00 1.4196541480419208e+01 -3 0 -1
750 2 6.0524672255951479e+00 8.6707825558069196e+00 1.2351207324446190e+01 -3 0 1
749 2 5.7493315659612225e+00 8.3858641978393464e+00 1.3830611009480439e+01 -3 0 1
102 2 4.6221453511524739e+00 5.6236616860669812e+00 1.3493973939746205e+01 -1 0 -1
497 2 5.8429071735003983e+00 2.1024698957152039e+00 8.6029685297668266e+00 0 0 1
498 2 5.3771970660340420e+00 2.3492713501113398e+00 7.0919857066816503e+00 0 0 1
395 2 9.3392830238491431e+00 4.7789876537846840e+00 2.5156182588347371e+00 -3 0 -3
924 2 3.3990131691183239e+00 7.9949441001199091e+00 1.4967601852699564e+01 -3 0 -3
349 1 1.4784303671271552e+01 9.7260944117246906e-01 1.6622928871298421e+00 2 0 4
679 1 7.0427001888182028e+00 2.6542256054853981e+00 1.8720441121630380e+01 -3 0 -3
398 2 1.3776860092067382e+01 5.4958476822529949e+00 5.9279956183606810e+00 2 0 0
540 2 2.4002890367325382e+00 -1.4172508919008897e-01 1.4699904030788551e+00 -4 0 -3
745 1 -3.2287441695101844e+00 9.8248719160420439e+00 1.4558352335922347e+01 -2 0 0
321 2 1.1173829391892586e+01 -3.2327810268752599e-01 1.3627887385303493e+01 -4 0 -3
943 1 4.6637293983368346e+00 1.5926094328592950e+00 5.7704310618661454e+00 0 0 3
229 1 2.5779413131036164e+00 -1.6819657124248280e+00 7.0743532949786845e+00 0 0 -2
572 2 1.2923295549923580e+01 -1.8530982883144613e+00 3.5716350238515187e+00 1 0 4
220 1 2.3980805902391022e-01 8.4359308106609436e+00 1.6771040856603875e+01 -2 0 -3
172 1 8.9873403745210538e+00 3.5571242416544617e+00 1.4816314382719066e+01 -1 0 -2
298 1 -4.7976784664809760e+00 9.1667338287584288e-01 1.6942658937816411e+01 -2 0 -2
680 2 6.2023136772780312e+00 2.6006955697808696e+00 1.8158021133027638e+01 -3 0 -3
831 2 2.6522668246320071e+00 9.3718606276873988e+00 4.8008258643521140e+00 -3 0 0
538 1 3.0903243244737868e+00 -7.9904244089227783e-01 1.2112142438725679e+00 -4 0 -3
944 2 5.1499832689320755e+00 2.0760354007992947e+00 5.0091303626118764e+00 0 0 3
100 1 4.0392336027572995e+00 5.8178029144498495e+00 1.2755125539017959e+01 -1 0 -1
1667 2 5.6350624140447811e+00 1.8979974059336779e+00 1.5314570078275171e+01 -1 1 -2
352 1 9.2795913508603434e+00 8.4450329292097965e+00 1.0443508750200449e+01 -1 0 0
174 2 8.3645061990839498e+00 3.7031242955592081e+00 1.4081414686682892e+01 -1 0 -2
388 1 1.3867569066324862e+01 -8.4621471727136477e-01 4.6543565514921967e+00 -1 0 0
465 2 2.7583321120785036e+00 7.1916492023746095e+00 7.4484243016092266e+00 2 0 0
84 2 1.4245985314177561e+01 7.1770640070701948e+00 8.6350094138826901e+00 -1 0 -3
460 1 1.0596923727019433e+01 5.4938566514003524e+00 1.0674523774409531e+01 -4 0 -2
607 1 5.3291144126932348e+00 5.1793495133972156e-01 2.7462872298553318e+00 -3 0 0
167 2 1.1442046286120378e+01 8.4277444122527658e+00 4.9574075612759589e+00 -4 0 -4
320 2 1.0475178940518528e+01 -1.5416972666058717e+00 1.4139905457967506e+01 -4 0 -3
590 2 1.4709205133587977e-01 9.4616628241485703e+00 1.1306873558799818e+01 -4 0 -1
595 1 1.3992160182554092e+00 5.1064463033379273e+00 5.2354275506093870e+00 3 0 -2
528 2 4.6691381850453411e+00 -7.5135405598995453e-02 5.4395540964317357e+00 -2 0 -1
109 1 1.4560654310321164e+00 1.6698016357380707e-01 1.7592823544795507e+01 1 0 -4
615 2 -3.3320623042872199e-01 8.7587191242277251e-01 1.7940630741229569e+01 -2 0 -1
251 2 5.5693156130168386e+00 9.4034926915440131e+00 1.0080163392797731e+01 -3 0 1
461 2 1.0840555388801402e+01 6.3836132285150367e+00 1.0940364717562449e+01 -4 0 -2
599 2 -1.3365556330106505e+00 2.2986956883755427e-01 9.1920800808896566e+00 -3 0 1
408 2 1.8490313056967400e+00 1.4061295353728842e+00 1.0575537163059703e+01 -2 0 -2
20 2 1.0171418366424401e+01 6.1046680941094911e+00 3.8610108372459124e+00 -3 0 -3
182 2 1.2565429587812059e+01 4.1551982433323147e+00 7.7052050780305095e+00 -1 0 0
35 2 1.6353963952373931e+01 1.2378990554549349e+00 3.9523790115059865e+00 -2 0 0
216 2 3.4937020713327782e-01 9.4984077600107710e+00 5.3487037910729462e+00 0 0 -2
531 2 8.6301602991572821e+00 -1.6972618260727401e+00 2.5925209153006183e+00 -1 0 0
475 1 7.7247691559068601e+00 4.3326133486700424e+00 1.2736250086179354e+01 -1 0 2
68 2 7.2336801842873086e+00 6.0376056429248504e+00 1.7808965493787554e+01 -4 0 -3
526 1 4.5883613854069516e+00 -1.0477045971887393e+00 5.3782299211363300e+00 -2 0 0
133 1 -3.9929836956049547e-01 2.8671391365668120e+00 8.9254123257721663e+00 1 0 -1
610 1 1.3257762615065424e+01 2.3495284357676800e+00 1.0474291784263867e+01 -1 0 2
675 2 -5.1158697094428467e+00 7.5817104981390422e+00 1.8875970958939234e+01 0 0 -4
82 1 1.4031356925974791e+01 7.7055863275816971e+00 7.8906978208392839e+00 -1 0 -2
300 2 -4.4308173599346263e+00 -6.9304943240737771e-03 1.7067102551685167e+01 -2 0 -2
214 1 -5.5743983526611496e-01 9.1446652856212687e+00 5.4067348564030091e+00 0 0 -2
782 2 1.5322446848327194e+00 3.8631198585661455e+00 6.3824672242822067e-01 -2 0 -2
690 2 -1.0288033744385139e-02 1.8800752375784282e+00 7.3559233466710028e+00 -2 0 0
561 2 8.5623452539676013e+00 -5.1074464365231642e-01 6.8207791941880602e+00 -2 0 1
728 2 7.8408398872250036e+00 7.4284799370921437e+00 1.3231242645543549e+01 0 0 1
113 2 8.8469347432676848e+00 1.5132797344302165e+00 1.4353999669650644e+01 -2 0 -1
829 1 1.9740387920819078e+00 9.4047962913742182e+00 4.0971373106505187e+00 -3 0 0
950 2 -3.3859453809696793e+00 -1.2519761037956736e+00 1.8559968025180481e+01 -1 0 1
222 2 2.3265442233307532e-01 9.1859403583410035e+00 1.7374554495640339e+01 -2 0 -3
335 2 8.9110928933164661e+00 9.5556297574477043e+00 7.6195073007078102e+00 -2 0 -2
67 1 6.8390207977567430e+00 6.4888881568796304e+00 1.8545940300830303e+01 -4 0 -3
727 1 8.5788020906016751e+00 6.9966245712317718e+00 1.2703374672152886e+01 0 0 1
114 2 7.4939343062302690e+00 1.1515087108354618e+00 1.4665901279915364e+01 -2 0 -1
425 2 1.2574111682539913e+01 1.6265511018825798e+00 4.0598440180568174e+00 -2 0 1
544 1 2.4323024100826620e+00 1.7840742163931247e+00 1.4776110864113267e+01 2 0 1
875 2 1.2424724767843118e+01 8.5746068002573619e+00 1.0988319558654144e+01 -3 0 1
1001 2 1.0494591753366420e+01 1.6594937687172400e+00 4.6023852759570536e+00 -1 0 1
496 1 5.8849052732751446e+00 2.7381519543205295e+00 7.8438041313503666e+00 0 0 1
655 1 5.1434881670973738e+00 8.4242772797881980e+00 1.7580225351717829e+01 -3 0 -1
337 1 3.3220863866788681e+00 4.9873351419409371e+00 3.2344393430824812e+00 -1 0 -1
511 1 7.8948341677437419e+00 -1.6704732312974639e+00 1.6299844409267969e+01 1 0 0
221 2 -4.3324138249109723e-01 7.8537647593381497e+00 1.7129352909366510e+01 -2 0 -3
844 1 7.8576464295980379e+00 -9.7758739333735456e-01 1.2246155952200251e+01 1 0 1
583 1 -2.9110784902195928e+00 7.2187728802558162e+00 1.2232681669543013e+01 -4 0 -4
584 2 -3.7966586621924057e+00 7.5210439360007282e+00 1.1984582949811461e+01 -4 0 -4
641 2 -9.3556940431977331e-01 5.9437506071817801e+00 1.2079556842817848e+01 4 0 -1
110 2 1.5435919583708140e+00 -2.9620661680596139e-01 1.6723038609998163e+01 1 0 -4
389 2 1.3303206042924140e+01 -2.3089802270550575e-01 5.0786784993250444e+00 -1 0 0
47 2 1.0195326673721453e+01 6.5376810452842040e+00 5.8513647776936200e+00 -3 0 0
207 2 4.8630626404037223e+00 1.3716050929631378e+00 1.2985996747117470e+01 3 0 0
808 1 7.6141101442014456e+00 4.7451553107732449e+00 7.2095493969442250e+00 -4 0 -1
840 2 1.6830892650049417e+01 1.0299047626824111e+01 5.9699563587485072e-01 -1 0 -2
577 1 3.5540764018885094e+00 4.6352882464478329e+00 1.6825958676888114e+01 0 0 0
19 1 1.0322466767997980e+01 7.0411790558570448e+00 4.1194299322271473e+00 -3 0 -3
1000 1 1.0011645099067977e+01 1.9515779369529276e+00 3.8380863846749933e+00 -1 0 1
294 2 -1.5245994797875912e+00 3.6322246161989593e+00 1.1360832591136706e+01 1 0 -3
390 2 1.4677622675708015e+01 -3.3291937614107936e-01 4.4343437669388797e+00 -1 0 0
297 2 -2.3646803194001131e-01 8.9341164221163680e+00 2.1456086407026893e+00 2 0 3
521 2 8.5898812767016537e+00 -5.5747352729372546e-01 9.1668081993259758e+00 -5 0 -2
813 2 1.1860121088276982e+01 3.7630008377848450e+00 1.3183200322226075e+01 -2 0 -1
912 2 1.1519886589752808e+01 -3.2030370751291493e-01 5.7072266953888775e+00 -2 0 1
549 2 6.4380881651672883e+00 9.4196454799267393e+00 1.6798490401965154e+01 -3 0 -4
369 2 1.3893682150273099e+01 9.8849725447433503e+00 1.8947525236847849e+00 -2 0 0
771 2 -2.0731607773498997e+00 5.8447129275933500e+00 1.0112471912570301e+01 1 0 -3
161 2 -9.2488840964622154e-01 8.2397910973165001e+00 9.2181658615173880e+00 1 0 -5
809 2 7.3513302982636848e+00 4.8745965751146469e+00 6.2358900645515813e+00 -4 0 -1
866 2 1.0724042036792563e+00 4.9908813722063528e+00 1.9014989990522793e+01 -3 0 -1
94 1 -1.5182541468146049e+00 4.8027934801753815e+00 7.4087823257993373e+00 -1 0 -1
225 2 -1.9517523065558633e+00 6.8560688974252795e+00 1.8882491829505625e+01 -2 0 -2
770 2 -2.3580835148799952e+00 5.5557419552721914e+00 8.6779126198740553e+00 1 0 -3
123 2 8.6558486996655262e+00 6.3539389355487188e+00 1.6155263058013077e+01 -2 0 -1
440 2 -3.9298306942978734e-01 5.1659785441591097e+00 1.4285857552498976e+01 -2 0 -2
383 2 1.5652188810529786e+01 4.7576923731382825e+00 2.2208304668789269e+00 -2 0 1
6 2 4.3518271907636992e+00 9.9415816441593385e+00 6.2169067001543192e+00 1 0 0
499 1 -2.6847458918475109e-01 8.8755528037140019e-01 1.2685418245619731e+01 1 0 1
910 1 1.1670662612257740e+01 6.3371619745918695e-01 5.5599874274723762e+00 -2 0 1
546 2 2.2446384840634739e+00 8.2275488940901687e-01 1.4715447997817652e+01 2 0 1
168 2 1.2187760266220534e+01 9.5670758973337602e+00 5.6032717596425679e+00 -4 0 -3
729 2 9.4034418858551092e+00 7.0121035135163368e+00 1.3231010543972250e+01 0 0 1
612 2 1.2877557120981699e+01 2.2313750962506989e+00 1.1398249524137420e+01 -1 0 1
674 2 1.2271588951418613e+00 8.0765255723900040e+00 1.2316986546580690e+00 0 0 -3
121 1 7.8864204648324083e+00 5.8357461339491232e+00 1.5931936245349805e+01 -2 0 -1
911 2 1.1811140168413557e+01 9.3182731666288721e-01 6.4540070518680466e+00 -2 0 1
424 1 1.3229746925187058e+01 2.0667013211318865e+00 3.5315731742887571e+00 -2 0 1
811 1 1.1066546527594191e+01 4.2929043337856196e+00 1.3207640767199942e+01 -2 0 -1