LAMMPS data file via write_data, version 3 Mar 2020, timestep = 0

2016 atoms
2 atom types

0.0000000000000000e+00 1.7941418564104143e+01 xlo xhi
-2.0107512567795460e+00 4.7006911233696812e+01 ylo yhi
0.0000000000000000e+00 1.9079487087436867e+01 zlo zhi
4.8590719523616183e-02 -6.6837208541667970e+00 -2.2477096007555986e-02 xy xz yz

Masses

1 16
2 2

Atoms # atomic

579 2 3.1512528260031543e+00 3.8917079099044880e+00 1.7005973774450712e+01 0 0 0
223 1 -1.0956614798483155e-01 6.0994763571321275e+00 1.8691405751282947e+01 -2 0 -2
995 2 9.4795311710505157e+00 7.2038200320975037e+00 1.3123964447037180e+01 3 0 1
654 2 -9.2817746697201753e-01 5.8550217146389230e+00 3.6597199036504509e+00 -1 0 0
394 1 1.0450560697470083e+01 3.1842283332410766e+00 4.5686218671686474e+00 -3 0 -3
578 2 3.9548041019728846e+00 5.0862103079606600e+00 1.7626618505130860e+01 0 0 0
929 2 1.4013493732658114e+01 2.9573581478789386e+00 1.9015491932112707e+00 0 0 0
513 2 7.4491590286643135e+00 -8.7888739808562155e-01 1.5066616837132372e+01 1 0 0
705 2 -2.9664091260003858e+00 2.3190276096465920e+00 1.4525083989561082e+01 -2 0 -1
302 2 9.1501843881401435e+00 6.2293746037961011e+00 1.4831421773746687e+00 0 0 0
299 2 -5.8332894103454942e+00 8.9924560038903234e-01 1.7019189961885093e+01 -2 0 -2
896 2 1.5863077660551321e+01 6.9310184191105400e+00 7.5240974438685859e-01 -1 0 0
150 2 -6.4609830939028621e+00 9.7602296960850339e+00 1.8842460063211707e+01 -3 0 -1
406 1 1.3776310186376595e+00 1.3104638151728594e+00 1.1079051337881777e+01 -2 0 -2
274 1 1.4202108183243643e+01 -1.2959937982268164e+00 1.2250443856693183e+00 2 0 0
596 2 2.3765574648116874e+00 5.3424552222766515e+00 5.0912045443392087e+00 3 0 -2
1914 2 5.5077448848284938e-01 9.1060064713677598e+00 1.8028265019056274e+01 -3 0 1
87 2 1.0265352784158171e+01 -2.0072633030097031e+00 1.8605277859319358e+01 1 0 -3
881 2 1.2023883256594969e+01 2.9462104163540213e+00 9.6090645714563152e+00 -3 0 2
319 1 1.0629313945476660e+01 -5.5211572341364712e-01 1.4321577497364967e+01 -4 0 -3
53 2 1.1703911145549798e+01 1.5988772749275548e+00 2.2106619720325376e+00 2 0 0
991 1 1.4036118164385405e+01 -1.2483180979126409e+00 9.4417900173232034e+00 1 0 1
609 2 5.4491699235360684e+00 2.3442757567244055e+00 4.9096382755942107e+00 -3 0 0
1583 2 -4.6470815379519417e+00 1.0709407827867929e+00 1.5427122387436290e+01 0 1 1
122 2 8.0147340727052558e+00 6.5438020414893732e+00 1.5008632932851636e+01 -2 0 -1
295 1 -6.8901757990747514e-01 8.5650984092009512e+00 3.4590916421145694e+00 2 0 3
407 2 6.0224406979650791e-01 1.4149460751864673e+00 1.1685258021746288e+01 -2 0 -2
707 2 2.6333565924709506e+00 7.0451894420300487e+00 1.7308024314125930e+01 -1 0 -1
972 2 3.7777370461273914e+00 5.7061792086894325e+00 1.1981432166339128e+00 0 0 1
448 1 7.2382416852624321e+00 3.9456741559363229e+00 1.0152689456886026e+01 -1 0 1
244 1 1.0503876515547079e+01 5.2042859582292698e+00 1.6672950526660404e+01 -4 0 -4
952 1 1.5312312995349894e+01 9.4651253520207757e+00 6.3047372784155451e+00 -1 0 1
687 2 1.6533668897989693e+00 -5.6411431404148504e-01 1.0243511445194063e+01 -3 0 0
600 2 -1.9013675219788295e-01 4.1210089003497385e-01 9.4955117045391333e+00 -3 0 1
1582 1 1.0008929215254074e+01 9.5688122742120996e+00 1.6115302071115952e+01 0 0 0
301 1 9.4787980685308018e+00 5.3066121390985570e+00 1.4835702675166931e+00 0 0 0
149 2 1.0168057291832527e+01 8.6166748742328156e+00 1.8932789039972661e+01 -4 0 -1
270 2 -9.9113266376335485e-01 8.3480338763056974e+00 1.5347693123509412e+01 2 0 -1
463 1 2.8532842643374430e+00 6.3334671967384395e+00 6.3796651549936332e+00 2 0 0
449 2 6.8397438267923256e+00 4.8607760125686053e+00 1.0133048295091452e+01 -1 0 1
524 2 2.3546239748960076e+00 4.5980099993922776e+00 1.1923909204402218e+01 -2 0 -4
585 2 -2.9617990714025213e+00 5.8882601407563602e+00 1.4929945224226373e+01 -4 0 -4
523 1 2.9723109079946934e+00 5.1319438749765904e+00 1.1343915325745433e+01 -2 0 -4
658 1 5.1780427307431349e+00 1.6410506743963400e+00 1.4615902614498310e+01 -1 0 -2
206 2 3.0680792558636449e+00 1.2511047856053672e+00 1.1915691443341400e+01 3 0 0
96 2 -1.9193284663499977e+00 5.7108806909319059e+00 6.2743658887471536e+00 -1 0 -1
441 2 1.0056841485095322e+00 3.2675508703313012e+00 1.3274185540667647e+01 -2 0 -1
151 1 8.7691193150421611e+00 3.4344357283763616e+00 8.0703410633305861e+00 3 0 0
781 1 -1.8468592092918827e+00 4.1384966641993817e+00 1.8100276316810657e+01 -2 0 -3
880 1 1.2551471787450465e+01 2.2977922464062646e+00 9.0514142127689841e+00 -3 0 2
626 2 5.7943257949456761e-01 3.8793812327108856e-01 1.8489875630950490e+01 0 0 -1
84 2 1.2930688337073549e+01 5.1850574355140280e+00 7.3900972827182070e+00 -1 0 -3
703 1 -2.0174511672593933e+00 2.4750156277126392e+00 1.4530126815638868e+01 -2 0 -1
382 1 1.6212704662838473e+01 5.2388951904731780e+00 1.1484092984222487e+00 -2 0 1
21 2 8.4838680281391756e+00 8.6384490213729155e+00 6.8366898963255696e-01 -3 0 -3
335 2 9.5856472888000326e+00 8.5046012419064834e+00 9.0178755644114350e+00 -2 0 -2
54 2 1.0799734932943601e+01 7.4289224835199352e-01 3.0842763361451393e+00 2 0 0
712 1 -1.8044781034189232e+00 -8.6367651940195644e-01 1.1758124823235100e+01 0 0 3
689 2 6.1597588474750009e-01 1.4357030300504734e+00 5.0962304859037424e+00 -2 0 0
166 1 9.9100333367931004e+00 8.8602327663463853e+00 5.7130319756155075e+00 -4 0 -3
392 2 3.3992758670014034e+00 7.9280693924816816e+00 1.1729301174409690e+01 -1 0 -1
652 1 -1.4276555846692995e-01 5.9652641519931189e+00 3.2087892423016933e+00 -1 0 0
52 1 1.0778399800410556e+01 1.5549003932875327e+00 2.5296361273753707e+00 2 0 0
356 2 -9.0702979961120000e-01 5.6304030885220486e+00 1.5708851412256848e+01 -4 0 -3
477 2 8.8679928159260903e+00 5.4446239214715195e+00 1.2442869085560796e+01 -1 0 2
500 2 -1.3067404667610152e+00 2.0437306943589864e+00 1.3065702290711704e+01 1 0 0
672 2 -3.1606396466590025e-01 -1.1711805685388226e+00 7.6401956985775206e+00 -3 0 -1
806 2 -2.9615020847199154e+00 7.6016979552448145e+00 8.7993258292531920e+00 -3 0 1
789 2 5.9356120006166435e+00 8.8666970959686306e+00 9.0826425178757364e-01 -2 0 0
810 2 5.6198131081218605e+00 7.1642015997860948e+00 1.0177844430067648e+01 -4 0 -1
930 2 1.3938320660256679e+01 3.8071729788075208e+00 3.2090672401994080e+00 0 0 0
702 2 3.9529574239170975e+00 -3.3140651722696313e-01 1.7135627405467968e+01 -3 0 -3
501 2 -1.4400346410512523e+00 2.2406891210653486e+00 1.1457182226977368e+01 1 0 0
625 1 1.4592947686588014e+00 7.2722720737120605e-01 1.8792889936371239e+01 0 0 -1
86 2 9.6749647782215362e+00 -8.5516699073256319e-01 1.7706007118460580e+01 1 0 -3
101 2 6.3632687797541463e+00 5.2087946747072893e+00 1.2521637253191713e+01 -1 0 -1
384 2 1.6952375656387840e+01 5.5517860571259900e+00 1.7230450206693735e+00 -2 0 1
245 2 1.0856165802844227e+01 4.6838225798486626e+00 1.5948066171212570e+01 -4 0 -4
622 1 3.4803365452904034e+00 1.9604400642858129e+00 1.6381041281949418e-02 -2 0 -1
624 2 -2.5421148090961010e+00 1.3114876052340625e+00 1.8770989008777249e+01 -2 0 -2
179 2 1.2539951678846720e+01 5.9888172466793206e+00 7.0082409385199163e-02 -3 0 0
291 2 7.2074013223070672e+00 8.6148423887922370e+00 4.0182934557335388e+00 0 0 3
981 2 1.2201370026295873e+01 8.9336397792193747e+00 1.3028864213829086e+01 -2 0 0
607 1 6.2870426543279576e+00 2.6254470367556735e+00 4.4139364054551962e+00 -3 0 0
268 1 -1.1384496218455324e+00 8.4473996527936990e+00 1.4403839877477722e+01 2 0 -2
230 2 2.1028605423621132e+00 -1.3131163710990088e+00 8.1475836822047114e+00 0 0 -2
49 1 9.1446591508662891e+00 1.9901015270225066e+00 1.1463366300673458e+01 -1 0 0
183 2 1.3531586508100759e+01 3.2776196409982310e+00 5.6844322115330934e+00 -1 0 0
464 2 3.0385724346207890e+00 7.2239752683293990e+00 6.0780205422684865e+00 2 0 0
393 2 2.6289200287896399e+00 6.8334856931994903e+00 1.2290205905702106e+01 -1 0 -1
925 1 -4.2276268961677168e+00 -1.4427820613074549e+00 1.3257108072264355e+01 2 0 2
671 2 -1.9269229288071710e-01 -3.1229848604136090e-01 6.3718620856593020e+00 -3 0 -1
135 2 -1.0009978605094199e+00 3.8746765177636897e+00 7.2317754278860722e+00 1 0 -1
778 1 5.4518650562149524e+00 7.6098364037690622e+00 3.9272329010287561e+00 1 0 0
641 2 -1.3635889598721493e+00 1.0108193237992387e+01 1.1188221521433050e+01 4 0 -1
598 1 -8.0672958255306648e-01 -2.9816170927704144e-01 9.2256003493844894e+00 -3 0 1
120 2 7.0087071045178870e+00 3.9413878702581382e+00 5.2416117742519317e+00 -2 0 -2
858 2 9.5049421203625029e-01 6.9117679512804173e+00 8.3689255704157564e+00 -1 0 -3
951 2 -3.1921821435019915e+00 -1.8444266262931439e+00 1.6839290647017904e+01 -1 0 1
753 2 -6.0004445392827499e+00 7.6161259090129168e+00 1.8268420152967526e+01 0 0 2
760 1 9.2116411732231036e+00 -1.3253814201263445e+00 1.1942336796054989e+00 -3 0 2
119 2 6.5646001353246559e+00 4.8680639037609721e+00 6.3791572135944357e+00 -2 0 -2
525 2 3.8098926530277550e+00 5.1207951876561522e+00 1.1853750670907759e+01 -2 0 -4
495 2 7.3101830715887139e-01 5.9479760041219372e+00 1.0128506442795809e+01 -3 0 -2
971 2 2.6646508194696410e+00 6.0827887092343662e+00 5.1938231397926179e-02 0 0 1
962 2 1.3384052903574553e+00 -1.5243767855773098e+00 1.3747231440496625e+01 -3 0 -1
212 2 1.0340913650387069e+01 3.3581909706270645e+00 1.1050123931848544e+01 -5 0 -2
701 2 2.8289696409002101e+00 6.8662239902252553e-01 1.7523121718800351e+01 -3 0 -3
5 2 4.3282444505478983e+00 8.4997212026133599e+00 4.8644360072103936e+00 1 0 0
470 2 1.6983832773442533e+01 1.6206946150179053e+00 4.4120783938925529e-01 -7 0 -2
471 2 1.6747778848812558e+01 1.0130034623751882e-01 4.2880758561600468e-01 -6 0 -2
708 2 2.6492632928777198e+00 7.2896753450858220e+00 1.8808058286758609e+01 -1 0 -1
85 1 9.5098109744996009e+00 -1.3961687299525856e+00 1.8529941865760335e+01 1 0 -3
46 1 1.0180392036389602e+01 5.6328292069135228e+00 8.8379223677393313e+00 -3 0 0
992 2 1.4237589423869325e+01 -6.5848528242600213e-01 8.6833273191941984e+00 1 0 1
856 1 4.5324361088492582e-01 7.3368509370254866e+00 7.6165200719662023e+00 -1 0 -3
627 2 8.4503116897960560e+00 6.3405458997343622e-02 3.2998692734264701e-01 0 0 0
111 2 1.3532790229485716e+00 3.3947030865846086e+00 1.7586256673437649e+01 1 0 -4
869 2 1.3449546902650873e+01 3.1286114829631861e+00 7.9725579572195882e+00 1 0 0
16 1 7.3152737867384587e-01 5.6725508332542356e+00 1.5124168932410560e+01 0 0 1
178 1 1.2205781330740621e+01 5.7640016381602255e+00 9.4405486292576357e-01 -3 0 0
974 2 1.0502923609361597e+01 2.3886159167302168e-01 1.5808166793255904e+01 -4 0 -2
118 1 7.3262353179149287e+00 4.5889321988653444e+00 5.8492669227138903e+00 -2 0 -2
922 1 5.9130630306581287e+00 7.8410865718674430e+00 1.4076824592479136e+01 -3 0 -3
623 2 -3.9978009626226743e+00 1.7574740243026770e+00 1.8525676154585643e+01 -2 0 -2
1668 2 5.4929354573096703e+00 2.5455989754115542e+00 1.4758568138218664e+01 -1 1 -2
644 2 1.1097315643515270e+01 -1.9521879133717590e-01 1.1291245973658024e+01 -4 0 -3
843 2 -1.3698329203861137e+00 -1.5486094363658496e+00 1.5826640652301689e+01 -5 0 -5
83 2 1.2135174902027659e+01 6.3420883827585541e+00 6.5995384712443022e+00 -1 0 -3
239 2 4.9013780255001489e+00 4.3716892800608029e+00 1.5798835733589916e+01 0 0 0
716 2 4.9556256543865915e+00 2.4039223524669433e+00 1.2562459350695605e+00 1 0 2
717 2 6.1912765390377107e+00 3.2965996324948250e+00 1.1010336664994713e+00 1 0 2
240 2 6.4248817689371771e+00 4.5599441692141349e+00 1.5286555239272023e+01 0 0 0
713 2 -1.1660290840382523e+00 -1.5117886754015899e+00 1.2055574253913822e+01 0 0 3
17 2 5.8876838396409337e-01 5.3479593553503388e+00 1.4207517778570342e+01 0 0 1
779 2 5.3649363416972342e+00 7.8153453075776440e+00 2.9139548560157378e+00 1 0 0
976 1 4.9802103830748168e+00 -1.9493453059052914e+00 1.7144421962779653e+01 -3 0 -1
645 2 1.0335952498056418e+01 1.0647974201615242e+00 1.1902469631234371e+01 -4 0 -3
613 1 -1.2708449663740993e+00 3.0215006865111871e-01 1.8341786758413413e+01 -2 0 -1
246 2 1.0587356290803488e+01 4.5148129209039194e+00 1.7398802558360934e+01 -4 0 -4
238 1 5.5756084244435202e+00 4.1766378630682590e+00 1.5077733495204567e+01 0 0 0
522 2 7.5797071782729937e+00 -7.6531268139811770e-01 1.0200558112761158e+01 -5 0 -2
715 1 5.5210677318993140e+00 3.0764911925279961e+00 1.7101524966708046e+00 1 0 2
115 1 1.3751797530488123e+01 9.5779742179876814e-01 1.1074921852412352e+01 -5 0 -5
426 2 1.4816382981757807e+01 -3.9086020912458364e-01 3.8069913299650247e+00 -2 0 1
494 2 2.1797612656471124e+00 5.6201180801064163e+00 1.0074900356643091e+01 -3 0 -2
502 1 4.8674577219848896e+00 -1.3971458642729377e+00 1.0195287120859925e+01 0 0 -1
250 1 4.4735500190840174e+00 8.2012372977415904e+00 1.0565122405972295e+01 -3 0 2
334 1 1.0009034286631483e+01 9.2449357431174288e+00 8.5182525078228277e+00 -2 0 -1
857 2 -1.5775547361596631e-01 7.9869905278450783e+00 7.9618435213148571e+00 -1 0 -3
868 1 1.3844972031808181e+01 3.8458720268621391e+00 7.3644028537661832e+00 1 0 0
829 1 1.3634113630274307e+00 9.8751834902372178e+00 4.6030742277085199e+00 -3 0 0
18 2 1.3675192390382147e+00 6.3924387878470572e+00 1.5072968330288699e+01 0 0 1
589 1 2.5910783874265686e+00 7.7467330972473061e+00 1.5160107931236917e+01 -4 0 -1
276 2 1.5081814353229515e+01 -1.4184701397542598e+00 8.9456193627702085e-01 2 0 0
785 2 9.5621649094433625e-01 9.2419802662382544e-01 1.5157676070154720e+00 -3 0 -2
870 2 1.4707476446432601e+01 4.0562804416626133e+00 7.6799551251953408e+00 1 0 0
211 1 1.1073581600610126e+01 3.9547501265643934e+00 1.0836927754106696e+01 -5 0 -2
387 2 2.0540221812854909e+00 3.0114613486799602e+00 4.3940760497645366e+00 0 0 -2
297 2 1.6578458604279319e+01 9.3128062648249301e+00 3.3482264410103659e+00 1 0 3
643 1 1.1147844731970634e+01 4.2567644346168843e-01 1.2046660190365213e+01 -4 0 -3
670 1 -1.4288990062933404e-01 -1.2550617227866843e+00 6.6833830704443926e+00 -3 0 -1
367 1 1.3571448192284073e+01 9.1368670631883848e+00 1.7362526218882384e+00 -2 0 0
527 2 4.1827431597882949e+00 -1.7449766714143071e+00 4.7901907162140942e+00 -2 0 0
116 2 1.2992855602659759e+01 7.7394554598376697e-01 1.1673267194013450e+01 -5 0 -5
224 2 8.4720239501393824e-01 5.8747805027318716e+00 1.8527015742247205e+01 -2 0 -2
845 2 6.9728353166990669e+00 -7.4780956710870905e-01 1.2597043110607434e+01 1 0 1
48 2 1.0991303921208130e+01 5.9470374563709312e+00 8.4200914879845943e+00 -3 0 0
117 2 1.3835933616416920e+01 7.8002117043272978e-02 1.0719377694193312e+01 -5 0 -5
931 1 -6.4861449438273588e-01 1.8053712629397056e-01 1.5725771709167212e+01 -2 0 -1
504 2 4.8558076763943507e+00 -7.8302996487061649e-01 1.0933130646242864e+01 0 0 -1
385 1 2.0395109220111447e+00 2.0486916888288773e+00 4.2863365023684192e+00 0 0 -2
289 1 8.0469044142227606e+00 9.0708426177396984e+00 3.7205886454757846e+00 0 0 3
961 1 1.8023625739785931e+00 -1.0368159273456858e+00 1.4435796161601829e+01 -3 0 -1
42 2 4.5513231792528410e+00 5.5889023854961559e+00 7.2654499095642118e+00 -2 0 3
726 2 1.3951695530745781e+01 1.5334631378501395e-01 6.6549773666705718e+00 1 0 1
876 2 1.1460829107879547e+01 7.8954064450595833e+00 1.5160186524662855e+01 -3 0 1
769 1 -2.8214147947630241e+00 7.0565419485858492e+00 1.1570215374542384e+01 1 0 -3
1002 2 1.0073597184920073e+01 1.7685859689941825e+00 5.3895438700788008e+00 -1 0 1
4 1 3.7677977347623219e+00 8.8166322779884201e+00 5.6680016796470998e+00 1 0 0
531 2 7.5101625202698878e+00 -1.2489909546412283e+00 3.5416806338788769e+00 -1 0 0
41 2 4.8494662227323495e+00 4.2379136927813486e+00 7.8569180444206772e+00 -2 0 3
167 2 9.7907869369426272e+00 8.8151643116639793e+00 6.6874086489757252e+00 -4 0 -4
812 2 1.2042499523085629e+01 4.0230874402524224e+00 1.3736160887967374e+01 -2 0 -1
932 2 -1.1031183242583547e+00 8.7494372625412309e-01 1.5156219161499219e+01 -2 0 -1
269 2 -1.8243481837635214e+00 7.8044257540716995e+00 1.4184144103419255e+01 2 0 -1
213 2 1.0570849489433371e+01 4.6328795478061195e+00 1.0318951167634729e+01 -5 0 -2
590 2 2.7264721084731667e+00 8.0162887325103096e+00 1.4241452639315060e+01 -4 0 -1
993 2 1.3041835336600842e+01 -1.2481738958064135e+00 9.4447813953489206e+00 1 0 1
338 2 3.2970014212924870e+00 5.1071452331286737e+00 3.2735333050502797e+00 -1 0 -1
938 2 1.0586001805580707e+01 6.4362105358426174e+00 4.8383338919177463e+00 1 0 1
969 2 1.2286181209932585e+00 4.0508757687374590e+00 9.3405065266283014e+00 -1 0 1
545 2 1.7811069699070989e+00 8.8718530834606302e-01 1.4543423063347985e+01 2 0 1
386 2 1.9725953535559060e+00 1.8144414956689308e+00 3.3424442899329687e+00 0 0 -2
937 1 1.1424661834876291e+01 6.7758574798198996e+00 5.2307824499623674e+00 1 0 2
40 1 5.2873915440781118e+00 5.0913241899995505e+00 7.6165645386346776e+00 -2 0 3
786 2 2.5245399500805252e+00 1.4115694287887095e+00 1.2584607763193574e+00 -3 0 -2
277 1 7.2856553901650631e+00 9.8345917470720465e+00 9.0352203589196201e+00 -4 0 -1
724 1 1.4620473014189356e+01 1.2847591077978127e-01 7.3401602852225079e+00 1 0 1
784 1 1.8556146238369886e+00 9.5972837147332024e-01 1.8850177938122816e+00 -3 0 -2
967 1 1.3461884825552453e+00 3.0391702469253650e+00 9.1186504833811579e+00 -1 0 1
553 1 8.2899047166541475e+00 2.4182481377381748e+00 1.7070542038627206e+01 -5 0 -2
681 2 5.1606591650250948e+00 2.8602048481199827e+00 1.7935188588638688e+01 -3 0 -3
649 1 7.7465382877157820e+00 1.9450705175162231e-01 4.7488506875699228e+00 -4 0 0
650 2 7.3260839912829248e+00 1.0050766987624384e+00 4.4097423951777310e+00 -4 0 0
51 2 8.6940925492332362e+00 1.4198232924151126e+00 1.0694761059854027e+01 -1 0 0
36 2 -1.2834315536941794e+00 1.0226284930520739e+00 4.2177492954915952e+00 -1 0 0
945 2 3.2400272568979229e+00 1.6411196216314892e+00 5.2821104034735358e+00 0 0 3
673 1 -3.2975422029221266e+00 8.6554278381872187e+00 1.7915514568045360e+01 0 0 -4
939 2 1.2083658519336367e+01 6.7451828368522655e+00 4.5067149249182004e+00 1 0 1
397 1 1.5079279501441253e+01 6.7952463049880514e+00 5.3757208280798290e+00 2 0 0
127 1 1.3195883938753411e+01 7.0393304638749150e+00 3.1577126560554589e+00 -2 0 -1
128 2 1.2844068853968693e+01 6.4854558437068981e+00 2.4156186873067305e+00 -2 0 -1
1407 2 1.5252805597249740e+01 7.7522850957905742e+00 5.5004877141642377e+00 2 0 0
34 1 1.5989132598565419e+01 9.5399153071675435e-01 3.4844789677234473e+00 -2 0 0
928 1 1.4259893030055755e+01 3.8634489583085543e+00 2.2684322975836699e+00 0 0 0
507 2 1.0523412141355745e+01 8.7899167677441206e+00 1.4319791423394581e+00 -4 0 -2
152 2 8.1925054704204214e+00 3.7440420726692771e+00 7.3320697171026286e+00 3 0 0
439 1 9.8229978428740949e-01 4.1819071986566287e+00 1.2919931614580722e+01 -2 0 -2
350 2 1.3852133171413284e+01 6.4339713486896999e-01 1.3008554045468061e+00 2 0 4
714 2 -1.4422037674589046e+00 -7.0509908059608772e-02 1.2083618473736902e+01 0 0 3
176 2 3.5645858472148637e+00 -1.3365478256898404e+00 1.3251487592928962e+01 -5 0 1
783 2 -2.3857326518854487e+00 4.8716319360394946e+00 1.8518515009121753e+01 -2 0 -3
148 1 1.0973057196913398e+01 8.9765800311414221e+00 1.8474994425127012e+01 -4 0 -1
994 1 9.9456161717494886e+00 6.7034221316921450e+00 1.2359447566872223e+01 3 0 1
725 2 1.5390667458359911e+01 4.5047892076114593e-01 6.8921899702585074e+00 1 0 1
1994 2 3.8075235893830319e+00 9.6920351019253275e+00 1.6669635966597607e+00 -2 0 -2
129 2 1.3326039019230260e+01 7.9593461741512339e+00 2.6610765935564227e+00 -2 0 -1
549 2 6.8172989165295990e+00 1.0157442296165273e+01 1.6600951393926575e+01 -3 0 -4
173 2 9.8911641840833404e+00 3.0094449605638598e+00 1.4391676765002174e+01 -1 0 -2
1664 2 4.8555699911632431e+00 9.2223641475622387e+00 1.7039662287075483e+01 -3 1 -1
777 2 1.0543492095691040e+01 -1.2309100154987997e+00 4.4675908932159434e+00 -2 0 2
526 1 4.3134391117280497e+00 -1.2225047999212557e+00 5.6043440236059769e+00 -2 0 0
462 2 1.2045332630480473e+01 4.9550479786750756e+00 1.2117645666344249e+01 -4 0 -2
651 2 8.6432770419859626e+00 5.2312423696839971e-01 5.0820283969866828e+00 -5 0 0
996 2 9.4937640188724295e+00 6.9404679447449631e+00 1.1529710034022663e+01 3 0 1
611 2 -1.3957763607008093e+00 2.7091002181389578e+00 9.2776951084883841e+00 0 0 2
468 2 1.2220593712473216e+00 8.8129570780756747e+00 1.2343327667351961e+01 -1 0 2
890 2 9.6978598188452061e+00 -1.7044328861636302e+00 7.1325006219500020e+00 -1 0 0
336 2 1.0930819688850328e+01 9.3258689099136554e+00 8.9243956714153203e+00 -2 0 -2
102 2 5.3663647021553160e+00 4.7894864363582323e+00 1.3575314077550233e+01 -1 0 -1
497 2 4.4324936509334751e+00 2.2719720905117029e+00 8.6666043910506421e+00 0 0 1
498 2 4.0696541223502818e+00 2.2560688705206910e+00 7.1530684213226614e+00 0 0 1
395 2 9.8550865274848789e+00 3.9556562221297904e+00 4.4426987988427511e+00 -3 0 -3
924 2 5.4600429457946937e+00 7.0276535595359206e+00 1.3785101242515328e+01 -3 0 -3
349 1 1.3341305573921799e+01 1.5108793862741550e+00 1.3710492641360785e+00 2 0 4
679 1 5.7976734243038450e+00 2.1549327403925087e+00 1.8059809843858890e+01 -3 0 -3
398 2 1.4507182779776310e+01 6.6498761935772528e+00 4.5890152089323193e+00 2 0 0
540 2 1.9277103688056365e+00 -1.0058483603920079e+00 2.0729032062275814e+00 -4 0 -3
980 2 1.2061685663101992e+01 9.5767004850540918e+00 1.1553091559776943e+01 -2 0 0
321 2 1.0977310811726646e+01 -1.0371749222170568e-01 1.3504233671864606e+01 -4 0 -3
943 1 4.1462942482371057e+00 1.4794864158638648e+00 5.6345769303959559e+00 0 0 3
559 1 7.8221051435053166e+00 -1.2762562680032059e+00 7.1516654382070159e+00 -2 0 1
844 1 7.1135123727295708e+00 -1.6114434421858401e+00 1.2164772919758324e+01 1 0 1
220 1 -7.9309371301834464e-01 7.9830266775940366e+00 1.7080479900910028e+01 -2 0 -3
172 1 8.9135684020210029e+00 2.9080306028507970e+00 1.4399542095174901e+01 -1 0 -2
298 1 -4.8667802017304247e+00 9.8184648806540364e-01 1.7114281859486546e+01 -2 0 -2
680 2 5.2546080906960784e+00 1.3979954343739935e+00 1.7734363308208444e+01 -3 0 -3
636 2 1.9148358128880831e+00 8.8345036593581430e+00 8.7037773130660696e+00 1 0 -2
251 2 4.9852891693166015e+00 8.9425826937296797e+00 1.0934802128799834e+01 -3 0 1
944 2 4.2728936349701829e+00 4.9550296453655385e-01 5.3963261393653195e+00 0 0 3
100 1 5.4230934406541635e+00 5.3522882665370828e+00 1.2777465848248452e+01 -1 0 -1
1667 2 4.7090410992694745e+00 1.3745832884561304e+00 1.5395987628706846e+01 -1 1 -2
352 1 8.8452193904247807e+00 7.3772367153525789e+00 1.0042026499549513e+01 -1 0 0
174 2 8.5954998170377763e+00 3.5962195049141492e+00 1.3817368669833142e+01 -1 0 -2
388 1 1.2707700883069144e+01 5.5966772354794836e-01 5.5242733515120825e+00 -1 0 0
465 2 1.9837697439555328e+00 6.4494851122374772e+00 6.7531172155271681e+00 2 0 0
279 2 8.0273577475124274e+00 1.0027187118929255e+01 8.4799771675972870e+00 -4 0 -1
460 1 1.2494364809868646e+01 5.5356254680032464e+00 1.2784383627534753e+01 -4 0 -2
978 2 5.6685954088311208e+00 -1.7133831273548001e+00 1.6533449345078647e+01 -3 0 -1
919 1 1.1021275633944965e+01 -1.2139534838750992e+00 9.7572756373985818e+00 0 0 -2
954 2 -1.8783281455145000e+00 1.0148427320183728e+01 6.3131418005982871e+00 0 0 1
466 1 4.6712348065974485e-01 9.4727215698674172e+00 1.2285943715081473e+01 -1 0 2
595 1 2.1343478008540329e+00 4.8534861014756219e+00 4.2433561246671969e+00 3 0 -2
457 1 1.6777110013010063e+01 -1.8029295816151316e+00 2.5866252033494885e+00 -3 0 -2
109 1 1.5703280469991947e+00 3.4553585984478383e+00 1.6599002332020671e+01 1 0 -4
615 2 -1.1677480675750180e+00 3.0918338856871852e-01 1.7364716355880280e+01 -2 0 -1
710 2 4.4913155454358833e+00 9.3153234992914076e+00 1.3560363981252065e+01 -3 0 -2
461 2 1.1860771398238414e+01 6.2451437721633543e+00 1.2782871318586203e+01 -4 0 -2
599 2 -1.1831585978662975e+00 -5.6471368043745929e-01 1.0058104739986481e+01 -3 0 1
408 2 1.3506011229400721e+00 2.0950399916868312e+00 1.0478428050736069e+01 -2 0 -2
20 2 8.6378264956334370e+00 8.3704025020476447e+00 2.2533196774298609e+00 -3 0 -3
182 2 1.2332722655530993e+01 3.4453960389029987e+00 4.8575933853814135e+00 -1 0 0
35 2 1.6331839849439582e+01 1.3327489231654179e+00 2.6145274678737955e+00 -2 0 0
216 2 -1.7352706573875913e+00 9.4114069963680933e+00 9.2299794979715344e+00 0 0 -2
698 2 2.5726674060234602e+00 1.0123167433574002e+01 1.7977659878262880e+01 2 0 3
475 1 8.1385219643994198e+00 4.7414207794945424e+00 1.2487300620320877e+01 -1 0 2
68 2 7.2849407045831729e+00 6.1143181694559381e+00 1.7203782037709075e+01 -4 0 -3
505 1 1.1023078257504974e+01 9.6064497645996223e+00 1.4878775795422317e+00 -4 0 -2
133 1 -8.5854705156355804e-01 2.9187593762695743e+00 7.5147190671063679e+00 1 0 -1
610 1 -1.9157132211235792e+00 3.0939514596351456e+00 1.0019743220949579e+01 0 0 2
675 2 -3.1142077510610586e+00 8.9673863290072369e+00 1.8786499618815590e+01 0 0 -4
82 1 1.2428163528818985e+01 6.0243547851144399e+00 7.5487766505098923e+00 -1 0 -2
300 2 -4.5816684207649114e+00 -1.0415161945755536e-02 1.7229103200664994e+01 -2 0 -2
214 1 -1.5297605335221929e+00 8.7109797401969367e+00 8.5362310357506637e+00 0 0 -2
782 2 -2.3857173899232587e+00 3.3707928532627403e+00 1.8063644343437144e+01 -2 0 -3
690 2 -5.0949562344500587e-01 1.7878036129685606e+00 6.1040883850233669e+00 -2 0 0
561 2 7.5299226934962400e+00 -7.3791940005350454e-01 6.3491255445193859e+00 -2 0 1
728 2 7.6608038099609557e+00 8.5071125408719279e+00 1.3848416751474376e+01 0 0 1
113 2 8.0674782407105852e+00 1.0956404873215253e+00 1.4197071184524207e+01 -2 0 -1
953 2 1.4511116999901605e+01 9.9758170071817673e+00 6.1622019223387223e+00 -1 0 1
775 1 1.0716420070868633e+01 -1.0667825327212956e+00 3.5404847262219672e+00 -2 0 2
222 2 -1.6464028520908807e+00 8.2162657477317342e+00 1.7380973390959728e+01 -2 0 -3
979 1 1.2072190352220971e+01 9.7407474760558639e+00 1.2501032899344835e+01 -2 0 0
67 1 6.8673978789929322e+00 6.6739439934278568e+00 1.7896216513950083e+01 -4 0 -3
727 1 8.5824055360897837e+00 8.2156677182197377e+00 1.4125548636974468e+01 0 0 1
114 2 6.4939401315593477e+00 7.8432098598826716e-01 1.4225614334927622e+01 -2 0 -1
425 2 1.3377305814177449e+01 -6.5751477834391414e-01 4.4319723046030921e+00 -2 0 1
544 1 1.6295770549976609e+00 1.8238804854749811e+00 1.4376711682855525e+01 2 0 1
875 2 -5.0282374096894573e+00 7.3340640011170812e+00 1.4861859533937523e+01 -2 0 1
1001 2 1.0163748130413483e+01 7.7347648614431597e-01 6.5640952154197070e+00 -1 0 1
496 1 3.8849479974052499e+00 2.7244672349508585e+00 8.0310660102620517e+00 0 0 1
655 1 5.6974820607417822e+00 8.9068482316462916e+00 1.6612067218561819e+01 -3 0 -1
337 1 4.1773962048438644e+00 5.2580445506536773e+00 2.8162510818941460e+00 -1 0 -1
215 2 -1.8857634496145401e+00 9.0740938743551709e+00 7.6863355215127838e+00 0 0 -2
221 2 -5.3695696313978303e-01 7.1129854555385421e+00 1.7490771007078429e+01 -2 0 -3
467 2 -1.2309820077555500e-01 9.2134142210174357e+00 1.3023373972517570e+01 -1 0 2
583 1 -3.5598144432314935e+00 6.4097117140834285e+00 1.4348668952569703e+01 -4 0 -4
584 2 -4.2231102953730790e+00 5.8256517777454970e+00 1.3794548539143117e+01 -4 0 -4
344 2 1.1547541198152906e+01 -1.9016666528277053e+00 1.5074620227795975e+01 -2 0 1
110 2 1.1810475360112749e+00 4.2435626348250182e+00 1.6149131620154389e+01 1 0 -4
389 2 1.1749165166710574e+01 5.3185087154047972e-01 5.4856909126764348e+00 -1 0 0
47 2 9.8506339955093249e+00 4.8257519345192472e+00 8.3721582567462676e+00 -3 0 0
207 2 4.2921373655125068e+00 1.4131255830425560e+00 1.2862325784382849e+01 3 0 0
808 1 6.2653165682519791e+00 6.5121105066225446e+00 9.7787460690290331e+00 -4 0 -1
369 2 1.2664939275723887e+01 9.4465061956709224e+00 1.3382127567953246e+00 -2 0 0
577 1 4.0883023517254315e+00 4.2571302486367903e+00 1.7150673728780653e+01 0 0 0
19 1 8.9358148075483257e+00 8.0626960961149088e+00 1.3184351925332267e+00 -3 0 -3
1000 1 1.0059302266978079e+01 7.8521734672953780e-01 5.5575007469362321e+00 -1 0 1
294 2 -1.6213704783191161e+00 6.0200504060914568e+00 1.1304427633133775e+01 1 0 -3
390 2 1.2879289814701353e+01 1.4111655118905930e+00 5.0734085444030690e+00 -1 0 0
278 2 6.4719426845026700e+00 9.8761590332409614e+00 8.5067324986327595e+00 -4 0 -1
521 2 7.9428107285638916e+00 -4.2107490161055194e-01 8.7458127406401811e+00 -5 0 -2
813 2 1.1980815419399171e+01 2.6591499011214808e+00 1.4431570300794691e+01 -2 0 -1
912 2 9.6239477287064883e+00 1.7079874761715113e+00 8.0941248519233202e+00 -2 0 1
6 2 4.3102862956208599e+00 9.4318394795087563e+00 6.2447898166613021e+00 1 0 0
634 1 2.6543308228381242e+00 9.3323877435415241e+00 9.0568461127310567e+00 1 0 -2
771 2 -3.3564059063448370e+00 6.8547292421104036e+00 1.2355235640193355e+01 1 0 -3
933 2 3.0173275979088210e-01 2.1669454953705758e-01 1.5492110265540296e+01 -2 0 -1
809 2 5.8447537782459644e+00 6.2752015592251151e+00 8.9053211588870127e+00 -4 0 -1
866 2 8.4019854981514790e+00 3.6380961995678502e+00 7.4090174750190374e-01 -3 0 0
94 1 -1.3083006382289208e+00 5.2610701936376669e+00 6.9387129342928189e+00 -1 0 -1
225 2 -5.0354740483708937e-01 5.2052787500347577e+00 1.8524933668499042e+01 -2 0 -2
770 2 -3.3565009121543992e+00 7.0212930715175634e+00 1.0709420429614768e+01 1 0 -3
123 2 8.8901404628296312e+00 5.6382075021629676e+00 1.5809462927741604e+01 -2 0 -1
440 2 1.4453417004814284e-01 4.1916202358561234e+00 1.2431971474696045e+01 -2 0 -2
383 2 1.5522052160951310e+01 4.7120946848546188e+00 1.6516228095241727e+00 -2 0 1
528 2 3.5239993843506334e+00 -1.1488627690625988e+00 6.1403550826271829e+00 -2 0 -1
499 1 -1.0379204174064380e+00 1.6542237849087678e+00 1.2142596613533616e+01 1 0 1
910 1 1.0307741496814527e+01 9.8315303352843975e-01 8.1050513987316197e+00 -2 0 1
546 2 1.6166019441426238e+00 2.3601820618741325e+00 1.5234441429996139e+01 2 0 1
165 2 1.3245136426688530e+01 8.9316802619068678e+00 9.5284273501418397e+00 2 0 0
729 2 8.9243011915525159e+00 8.9750591762109906e+00 1.4677036040981310e+01 0 0 1
612 2 -2.7468026630175810e+00 2.6255735601913281e+00 1.0143044726307815e+01 0 0 1
674 2 -4.0214814007469304e+00 7.9599512013146292e+00 1.8027231857884779e+01 0 0 -4
121 1 7.9621146969441945e+00 5.6931235552980075e+00 1.5443845514112301e+01 -2 0 -1
911 2 1.1199493622342032e+01 1.3752557927377143e+00 8.2242348247571702e+00 -2 0 1
424 1 1.4133933591282899e+01 -1.0917587726310287e+00 3.9809492320338604e+00 -2 0 1
811 1 1.1605636603005131e+01 3.5338710202505812e+00 1.4464955625928543e+01 -2 0 -1