LAMMPS data file via write_data, version 3 Mar 2020, timestep = 1000000

1008 atoms
2 atom types

2.2680751899342333e-01 1.8172747481000215e+01 xlo xhi
8.3132738189432231e-02 2.2487256261803282e+01 ylo yhi
2.0324724490597745e-01 1.9302468755086412e+01 zlo zhi
1.2931736091485688e-02 -6.7280002978122946e+00 -4.9480403523808794e-02 xy xz yz

Masses

1 16
2 2

Atoms # atomic

1 1 6.3924384627365818e+00 9.3999387091524778e-01 5.0450282294624769e+00 0 0 0
156 2 1.2011692998135405e+01 7.6694294852691403e-01 2.0432391490396924e+00 0 0 0
3 2 6.6803380465399291e+00 1.2676286053943426e+00 4.1336533423858839e+00 0 0 0
4 1 3.7087539785803569e+00 1.1308966461987422e+00 5.2249033335992978e+00 0 0 0
5 2 4.7056126179147277e+00 1.0273230064676242e+00 5.1004302000593285e+00 0 0 0
6 2 3.7082073683392816e+00 1.6692005430568573e+00 6.0402089615399888e+00 0 0 0
7 1 -2.9133448094220493e-01 6.4641242703242492e+00 4.8719616122994429e+00 0 0 0
8 2 -3.7094846534820025e-01 6.2174693006529420e+00 5.8415067658901414e+00 0 0 0
9 2 -8.4052639588676747e-01 7.2690724571410321e+00 4.7679666736395605e+00 0 0 0
10 1 2.3734262564387789e+00 6.2293294033808015e+00 4.6788999242304632e+00 0 0 0
11 2 1.4790569338257069e+00 6.5584529099956210e+00 4.7529359309545587e+00 0 0 0
12 2 2.9323181932522733e+00 7.0483663431501933e+00 4.7205372859995913e+00 0 0 0
218 2 7.5952705189949130e+00 1.1105155990548074e+01 6.5490086912668204e+00 0 0 0
14 2 5.1642916171543334e+00 5.2682619105765509e+00 8.8293273557834553e+00 0 0 0
311 2 1.1055224512226483e+01 1.0998032158634381e+01 5.7224331565035751e+00 0 0 0
35 2 -3.7617687605561700e-01 1.1762530081576332e+00 7.6529516241367741e+00 0 0 0
18 2 5.4067611909151605e+00 5.3476310413348029e+00 1.0746780975340722e+00 0 0 0
302 2 1.5094352409756274e+01 1.0380924076513580e+01 6.7791013397156066e+00 0 0 0
56 2 -6.0844698027203270e-01 5.0568055101109897e+00 3.7970717921971491e+00 0 0 0
21 2 9.8598815218232150e-01 2.3284937726451584e+00 1.4315832062236791e+00 0 0 0
587 2 -1.6203625722062205e+00 7.1072130263245343e+00 9.4801662271464924e+00 0 0 0
83 2 2.4625890917327640e+00 5.6428370269615584e+00 8.6024880675671955e-01 0 0 0
254 2 1.5842943275861840e+01 9.0837434169349702e+00 5.2896953784361882e+00 0 0 0
25 1 4.9135101532710577e+00 6.2432438791230451e+00 7.3302598630722118e+00 0 0 0
26 2 5.4605416656160353e+00 7.0813255287650039e+00 7.4723693797800301e+00 0 0 0
27 2 3.9579321714004680e+00 6.4149465805178654e+00 7.4944122290557980e+00 0 0 0
28 1 5.8978117039238613e+00 6.5835740173117330e+00 2.3327336974178299e+00 0 0 0
29 2 5.7362487715739849e+00 6.0959612391097515e+00 3.1904476730716964e+00 0 0 0
30 2 5.1677285902163401e+00 7.2723683175687475e+00 2.1938423660230306e+00 0 0 0
31 1 1.0863187636356804e+00 1.1728521712815960e+00 2.8879318447486813e+00 0 0 0
32 2 2.0898399589152352e+00 1.0485125770462518e+00 2.7899341593667875e+00 0 0 0
33 2 1.0784068944283511e+00 1.6155895657299879e+00 3.7792353395173741e+00 0 0 0
34 1 4.9607739688222630e-01 1.4834018365111667e+00 7.4429269032542660e+00 0 0 0
151 1 6.9306165787742859e+00 4.4505310960333966e-01 8.2391579500818182e+00 0 0 0
36 2 8.2220248136792407e-01 1.9175969369098851e+00 8.2673438738558556e+00 0 0 0
37 1 6.4821150923302966e+00 2.6245970101022622e+00 2.5896487247971081e+00 0 0 0
38 2 5.5651846793353315e+00 2.9845673797468222e+00 2.8234459169452641e+00 0 0 0
39 2 7.0370234893262174e+00 3.3749357379545084e+00 2.8217510746042982e+00 0 0 0
40 1 4.2765722350297910e+00 2.7677427126633520e+00 7.4659604188943431e+00 0 0 0
41 2 5.2196962294027358e+00 2.9531401186695563e+00 7.3923387052103262e+00 0 0 0
42 2 3.9391516083082032e+00 3.6162375955215103e+00 7.1587975205501539e+00 0 0 0
43 1 -6.6076411722564732e-02 5.3621465913934339e+00 7.4054515613197083e+00 0 0 0
44 2 -5.7452813807308534e-01 4.5263129925655274e+00 7.2108664512488225e+00 0 0 0
45 2 -3.8751223726255413e-01 5.7228914812306479e+00 8.2685737730822773e+00 0 0 0
46 1 1.9994575876042211e+00 4.7312683931994046e+00 2.4172124207060928e+00 0 0 0
47 2 1.1922147670498178e+00 4.2679910686899687e+00 2.6299367989930844e+00 0 0 0
48 2 2.0166159123783518e+00 5.4077364126682470e+00 3.1683292231621061e+00 0 0 0
49 1 6.7002588371737630e+00 3.2867708539936187e+00 6.5246347330079297e+00 0 0 0
50 2 6.3142604343344662e+00 3.7321238823300185e+00 5.7366463394357732e+00 0 0 0
51 2 6.9471486876839972e+00 2.4581404692899382e+00 6.0577806645090302e+00 0 0 0
52 1 4.1216898075586546e+00 3.2397533138608492e+00 3.2265930103951055e+00 0 0 0
53 2 3.4806716878506165e+00 3.3150775758902227e+00 2.5208049469892457e+00 0 0 0
54 2 3.7101821394466361e+00 2.5128449057912015e+00 3.8327104985311009e+00 0 0 0
57 2 -1.0898019477086218e-01 3.5480691440120391e+00 4.1339247222957880e+00 0 0 0
58 1 2.4580039492036048e+00 4.4739608595416644e+00 6.6259502922673557e+00 0 0 0
59 2 2.4816194417383657e+00 5.3067459076918144e+00 6.0585781692841563e+00 0 0 0
60 2 1.7478605987129061e+00 4.5965202564003542e+00 7.2983313978337465e+00 0 0 0
61 1 8.3282811146358693e+00 7.3516857837264364e+00 1.2746902030387035e+00 0 0 0
62 2 7.5325216033619542e+00 7.0732868335744516e+00 1.7708618651014501e+00 0 0 0
63 2 8.6119078354899283e+00 6.4694453009531045e+00 8.5325095461769929e-01 0 0 0
64 1 2.2751951107366617e+00 7.0070592726948764e+00 8.2319140447385859e+00 0 0 0
65 2 1.4447778873916781e+00 7.1443101819572830e+00 7.7604310571744852e+00 0 0 0
66 2 2.6819246873046594e+00 7.8048686481438994e+00 8.7108084151575440e+00 0 0 0
80 2 6.9123555116313327e+00 1.8081756509908420e+00 9.8923194800767122e-01 0 0 0
68 2 -2.1378305914304798e+00 1.4258279125972999e+00 8.8503095753953307e+00 0 0 0
751 1 3.4658709031586987e+00 8.8533268210150151e+00 9.6085852150802413e+00 0 0 0
72 2 3.8877470557526443e+00 1.3922346903769300e+00 1.3590152409781786e+00 0 0 0
73 1 5.4032530137527672e+00 5.0747946469608838e+00 4.9550140974037902e+00 0 0 0
74 2 5.1697344984861378e+00 5.3999663362313921e+00 5.8264499467685225e+00 0 0 0
75 2 4.6421622995574632e+00 4.6656738282483365e+00 4.5268295172973740e+00 0 0 0
76 1 1.0981836935151241e+00 2.7632804219122495e+00 5.1161330572083701e+00 0 0 0
77 2 6.4396940951564674e-01 2.3465627409858016e+00 5.8715427389089490e+00 0 0 0
78 2 1.7125895650822698e+00 3.3586926946051414e+00 5.5765281353737022e+00 0 0 0
165 2 1.6670269800317158e+01 6.2733092618165864e-01 8.4819235089776890e-01 0 0 0
601 1 1.7424085406900083e+01 4.8429379845101703e+00 2.4725361925936210e-01 0 0 1
836 2 1.3029093307659407e+01 9.4737016305536841e+00 9.2376044707918190e+00 0 0 0
85 1 1.5647982117590672e+01 1.0115733673742824e+00 5.3651992462391194e+00 0 0 0
87 2 1.5671009461423159e+01 1.5191302444369326e+00 4.4939207806342623e+00 0 0 0
88 1 1.2858456808517207e+01 1.1300211123255957e+00 5.3358083295417948e+00 0 0 0
89 2 1.2904562891486853e+01 1.9659607328395257e+00 4.7697258927925059e+00 0 0 0
90 2 1.3835530496024800e+01 9.1388697249058604e-01 5.4781304583011279e+00 0 0 0
91 1 8.5354890897691895e+00 6.7853370390964098e+00 4.5009767109727337e+00 0 0 0
92 2 8.4311320686668747e+00 5.8774835633469662e+00 4.0973095109915914e+00 0 0 0
93 2 9.4617925038913011e+00 6.9640678814362413e+00 4.5470522689922737e+00 0 0 0
94 1 1.1141884103635542e+01 6.4818638127255923e+00 4.7080810558446720e+00 0 0 0
95 2 1.1851983150286031e+01 7.1762149267552102e+00 4.9272371239192383e+00 0 0 0
96 2 1.1434300862259482e+01 5.7649268340535613e+00 5.2969148243661532e+00 0 0 0
55 1 -4.2502695897248655e-01 4.1350058543809913e+00 3.3579739698251259e+00 0 0 0
670 1 8.2826028064811847e+00 6.1151339726193648e+00 9.4755710154382680e+00 0 0 0
274 1 9.4585421822281095e+00 1.0220333325934250e+01 9.4715817100781834e+00 0 0 0
101 2 1.4448318696824154e+01 5.1186051645615418e+00 1.0263468001045952e+00 0 0 0
248 2 7.3530312468036954e+00 8.6540245832534985e+00 5.5528872248930250e-01 0 0 0
217 1 6.8874643732311105e+00 1.0584775712704253e+01 6.1668996318083158e+00 0 0 0
69 2 1.5245522209171568e+01 3.6041101314777191e-01 7.7964274556119131e+00 0 0 0
304 1 1.2944339142183070e+01 1.0344059070844418e+01 3.7050946934743427e+00 0 0 0
109 1 1.3947984460933929e+01 6.3064104797758294e+00 7.3851494781686275e+00 0 0 0
110 2 1.4139123322713543e+01 5.6911360412931691e+00 8.1130035141351389e+00 0 0 0
111 2 1.2938547015153715e+01 6.3783477437542455e+00 7.5562367737501477e+00 0 0 0
112 1 1.4412054713374756e+01 5.8954187043241095e+00 2.5667355156933622e+00 0 0 0
113 2 1.3815832583955782e+01 6.6540391533840673e+00 2.5618053981619067e+00 0 0 0
114 2 1.5292880818237874e+01 6.2966985459562661e+00 2.4031665377593816e+00 0 0 0
115 1 1.0163627289275176e+01 1.3130285534961137e+00 2.3889058093116167e+00 0 0 0
116 2 1.0019115154507777e+01 1.9619976322259243e+00 1.6921823616743927e+00 0 0 0
133 1 -2.0877729215612777e+00 3.5466201405130793e+00 6.9307166963657183e+00 1 0 0
118 1 9.2982823323602357e+00 1.2359186949063112e+00 7.1280909161161334e+00 0 0 0
119 2 9.5427214215403389e+00 1.8454111099326433e+00 7.8768230385622555e+00 0 0 0
120 2 9.6105612714783764e+00 1.6394872375317193e+00 6.2813384750597923e+00 0 0 0
121 1 1.5351245334048473e+01 2.5552576783793466e+00 2.8289819010759412e+00 0 0 0
122 2 1.6067486633892511e+01 3.1610387050071003e+00 3.1094784172987557e+00 0 0 0
123 2 1.5594395700706244e+01 2.2512462218211913e+00 1.9666969572735371e+00 0 0 0
124 1 1.3324653923997383e+01 2.7502772982991948e+00 7.5848151010793572e+00 0 0 0
125 2 1.4246531505658345e+01 2.9138698110297914e+00 7.4575869792118112e+00 0 0 0
126 2 1.3038086879859547e+01 2.0078629310546452e+00 7.0253116032770277e+00 0 0 0
127 1 8.6736023022498880e+00 5.1496845920718810e+00 6.8545217109459777e+00 0 0 0
128 2 7.8625676420110029e+00 4.5724897432423655e+00 6.9208329237869082e+00 0 0 0
129 2 8.4628554816854891e+00 5.8399818978955471e+00 6.1600328956449530e+00 0 0 0
130 1 1.1115748224311206e+01 5.1954801941741069e+00 2.4090889757927147e+00 0 0 0
131 2 1.1658118672318142e+01 4.4520418609520567e+00 2.7279955577262740e+00 0 0 0
132 2 1.1285287162242208e+01 5.7642864412120618e+00 3.1840693733458680e+00 0 0 0
134 2 1.5524859099635012e+01 3.7503179979801700e+00 6.0839248023298085e+00 0 0 0
136 1 1.2827883627673748e+01 3.2297230254988811e+00 3.5355808746683843e+00 0 0 0
137 2 1.3284270187429813e+01 3.9179613948449763e+00 4.1079812003495242e+00 0 0 0
138 2 1.3549919456693376e+01 3.1129951629430330e+00 2.8879926365015733e+00 0 0 0
139 1 8.6243379831141738e+00 4.3936050642554063e+00 3.3505999231339447e+00 0 0 0
140 2 9.3897095519955123e+00 4.6285300827879867e+00 2.8375915453648157e+00 0 0 0
141 2 8.9984641332671060e+00 3.7653050076761287e+00 4.0029837428024067e+00 0 0 0
142 1 1.1396354345827694e+01 4.2209390491087593e+00 6.2266497230977347e+00 0 0 0
143 2 1.2130503845319465e+01 3.8662419394233134e+00 6.8065248115476633e+00 0 0 0
144 2 1.0681883428695583e+01 4.5494679385303280e+00 6.8640250750330072e+00 0 0 0
147 2 1.6720299926526629e+01 7.6359654173645124e+00 1.4805567737839482e+00 0 0 0
148 1 1.1561486627635874e+01 7.0014815768065093e+00 8.3433369600217500e+00 0 0 0
149 2 1.1316201662558251e+01 6.2557002935861110e+00 8.9724360780071510e+00 0 0 0
150 2 1.1922588558285890e+01 7.6976748628202589e+00 8.9345957250057637e+00 0 0 0
163 1 1.6175569962993336e+01 1.2971446164966935e+00 3.0129903908913896e-01 0 0 0
671 2 8.7531754172275011e+00 5.8713045593803548e+00 8.6190820443616598e+00 0 0 0
153 2 6.6332478657606124e+00 1.1962173721813409e+00 8.7870377257513077e+00 0 0 0
187 1 8.2761379271067326e-01 1.0232070435130547e+01 7.6734970490353249e-01 0 0 0
155 2 1.2858756424191697e+01 1.0510853948988295e+00 7.9629912510457490e-01 0 0 0
106 1 9.4279896715255465e+00 2.9156292149123573e+00 9.6820782455711356e+00 0 0 0
157 1 1.4501521638192569e+01 4.9395717855284493e+00 5.0018520954925743e+00 0 0 0
158 2 1.4629971280854745e+01 5.4680062314831046e+00 4.1542833104845336e+00 0 0 0
159 2 1.4273314744800937e+01 5.5914921897369734e+00 5.7513410480262674e+00 0 0 0
160 1 1.0092850573284350e+01 2.4190078239343080e+00 4.9232986357350468e+00 0 0 0
161 2 1.0571867583746521e+01 3.2814786230483368e+00 5.2047926016866430e+00 0 0 0
162 2 1.0333748060188981e+01 2.0914139361560817e+00 3.9998388103325073e+00 0 0 0
237 2 1.4968315723783059e+01 7.8038297173095277e+00 8.1046631884040128e+00 0 0 0
19 1 1.0080969806741829e+00 2.5931406857555359e+00 5.0522392922826409e-01 0 0 0
521 2 1.9682005828259408e+00 5.6363878959157114e+00 9.3658139251377079e+00 0 0 0
169 1 6.4559491748644486e+00 8.5381705122520870e+00 4.6251484990530871e+00 0 0 0
170 2 7.1209492451967344e+00 7.8357449553873213e+00 4.5656849504074604e+00 0 0 0
171 2 6.7327825171970357e+00 9.2678298283605365e+00 5.2198517964272622e+00 0 0 0
172 1 3.9091049348178566e+00 8.3083779802370472e+00 5.1059221195340987e+00 0 0 0
173 2 3.6306436598903202e+00 9.0084204070763416e+00 4.4423589281233609e+00 0 0 0
174 2 4.8972347753662211e+00 8.2287787501205862e+00 5.0325287360917654e+00 0 0 0
776 2 7.6278289575197959e+00 1.0696653651935955e+01 9.4905864072683670e+00 0 0 0
146 2 1.7399694439287664e+01 6.3446287477455590e+00 1.7560938991961186e+00 0 0 0
780 2 1.2684493805391545e+01 9.5513198287521348e+00 6.6556637508626992e-01 0 0 0
192 2 2.4860270814074736e-01 9.9325965933739830e+00 8.7252950340615829e+00 0 0 0
199 1 1.2175062478977421e+00 8.6302137972432131e+00 2.7734033071910087e+00 0 0 0
200 2 8.1413902514522041e-01 9.3129045515485629e+00 2.1500874950430404e+00 0 0 0
201 2 5.8507660886822443e-01 7.9889433276051669e+00 2.9305962530741918e+00 0 0 0
202 1 1.9412864986215927e-01 8.8077139040512478e+00 7.4180814595694446e+00 0 0 0
203 2 -7.3785805858250808e-01 8.6125635014697419e+00 7.6182271037435161e+00 0 0 0
204 2 3.5636049310873785e-01 9.3020393271856232e+00 6.6122291105080775e+00 0 0 0
205 1 6.1812622179097563e+00 1.0443654540493606e+01 2.4207860585306684e+00 0 0 0
206 2 6.4152988777268645e+00 9.7402083388328276e+00 3.0393206787048630e+00 0 0 0
207 2 6.3587134355535015e+00 1.0187568762533465e+01 1.4770582837929711e+00 0 0 0
208 1 4.2399127186762007e+00 1.0033951431387752e+01 7.3547738591868184e+00 0 0 0
2 2 6.9816684332745389e+00 1.5135412358163031e-01 5.2753681793297940e+00 0 0 0
210 2 4.0428026526063316e+00 9.3099040239309812e+00 6.7126120780726266e+00 0 0 0
668 2 1.2903466736547324e+01 1.8917056205749863e+00 9.0416184780943780e+00 0 0 0
70 1 3.5952184219645651e+00 6.3893938990648103e-01 1.8733682339103577e+00 0 0 0
222 2 2.8237425640692617e+00 1.0923741187786280e+01 3.0186365140068121e+00 0 0 0
13 1 4.9400152819098526e+00 4.8375250869683120e+00 9.6399184142656100e+00 0 0 0
145 1 1.6788001121531600e+01 6.9650818698924146e+00 2.1631869955671039e+00 0 0 0
235 1 -2.1780046160707522e+00 8.2866216521877920e+00 8.3845807775301449e+00 0 0 0
236 2 -2.5157177505577351e+00 9.0680901246212837e+00 8.9581121859514443e+00 0 0 0
238 1 3.9095151755669320e+00 8.2597767441406393e+00 1.7308636409266740e+00 0 0 0
239 2 3.0209105160791951e+00 8.3727394421738115e+00 2.1015103294306821e+00 0 0 0
240 2 3.9820928715284052e+00 9.0367708610019655e+00 1.1330034144097580e+00 0 0 0
244 1 8.1579779592483903e-01 1.0066384527427214e+01 5.1063073391278673e+00 0 0 0
245 2 1.0356047454974986e+00 9.5347201085354012e+00 4.3266302553101772e+00 0 0 0
246 2 1.5368444711639191e+00 1.0594791721194618e+01 5.5854329235235483e+00 0 0 0
67 1 -1.9049853334246021e+00 6.4428796208372496e-01 8.2884784033370345e+00 0 0 0
290 2 1.5894141906276209e+01 1.0629612266214783e+01 2.7461884789658204e+00 0 0 0
253 1 1.5887808931153687e+01 8.3727117903193715e+00 4.6118811042094698e+00 0 0 0
255 2 1.5765740232813842e+01 8.8501886897238720e+00 3.7910222656718342e+00 0 0 0
256 1 1.3273560809852695e+01 8.1872086481550177e+00 5.2254249546418556e+00 0 0 0
257 2 1.4193871529320129e+01 8.0331876452413429e+00 4.9817890478255524e+00 0 0 0
258 2 1.3082027118825183e+01 9.0041704604772352e+00 4.6478649650808812e+00 0 0 0
16 1 5.5947667191393542e+00 4.8893959777513816e+00 2.1851243872323162e-01 0 0 0
272 2 1.0025843206392425e+01 9.9346902466610469e+00 1.2760087869707137e+00 0 0 0
209 2 3.5421765163130390e+00 1.0748470521393076e+01 7.1822090696229646e+00 0 0 0
276 2 9.7629403438236064e+00 9.6204814677142636e+00 8.7492754259234431e+00 0 0 0
283 1 1.0221121366972188e+01 8.6378370709488159e+00 2.3914745889587352e+00 0 0 0
284 2 1.0074016444300378e+01 8.8086310437607107e+00 3.3506756659223016e+00 0 0 0
285 2 9.4482021380901617e+00 8.0556788232453442e+00 2.0237464056265990e+00 0 0 0
286 1 9.5272780646089590e+00 8.7169451933894795e+00 7.0860375096145205e+00 0 0 0
287 2 9.9945991660870046e+00 7.9065369488005866e+00 7.3427800391968745e+00 0 0 0
288 2 8.5734010649693531e+00 8.5881694038657628e+00 7.1754748622548910e+00 0 0 0
289 1 1.5288395140987799e+01 9.9081323287209742e+00 2.4520116050878529e+00 0 0 0
271 1 9.8432217981463843e+00 1.0243592301681126e+01 3.6178438256007850e-01 0 0 0
291 2 1.5536078964068087e+01 9.6037551607163465e+00 1.5523031289165998e+00 0 0 0
292 1 1.3522778201093601e+01 1.0103184513824765e+01 7.3863618039279064e+00 0 0 0
167 2 1.1665572401605223e+01 5.7272124047987196e+00 7.0816310610134148e-01 0 0 0
294 2 1.3264978278299996e+01 9.3146687744342902e+00 6.8186021618806212e+00 0 0 0
189 2 1.7102488609177573e+00 1.0501547929818381e+01 6.0893251236961143e-01 0 0 0
221 2 4.3417214683382896e+00 1.0495458023390830e+01 2.8720613683472509e+00 0 0 0
306 2 1.3592076479719458e+01 1.0011219932968181e+01 3.0479291768014147e+00 0 0 0
224 2 -2.1527112341641863e-01 1.1033669883075808e+01 4.1340291558851856e+00 0 0 0
319 1 6.9699327714728856e+00 7.9847753283784666e+00 8.0155012569954849e+00 0 0 0
320 2 6.6416924384956424e+00 8.7173658993209635e+00 8.6091710807987560e+00 0 0 0
321 2 7.4052504656950360e+00 7.3527838754458363e+00 8.6272654514388432e+00 0 0 0
322 1 1.2662123047140197e+01 8.3363709843893865e+00 1.5983917626311308e+00 0 0 0
323 2 1.1733663383248990e+01 8.1706435827324313e+00 2.0521128390498258e+00 0 0 0
324 2 1.2763679167265080e+01 7.6268687561897774e+00 9.4830379751175864e-01 0 0 0
328 1 1.0020499316461560e+01 9.8126181902122305e+00 4.8097158660394781e+00 0 0 0
329 2 9.6477151833659978e+00 9.3824782832861313e+00 5.6188794475798547e+00 0 0 0
330 2 9.3638972755164414e+00 1.0490489611177887e+01 4.4951754987774670e+00 0 0 0
152 2 7.7386618493357195e+00 7.9799105177843954e-01 7.8403746347036334e+00 0 0 0
86 2 1.6229219506282689e+01 1.8157003502882463e-01 5.2250711344671732e+00 0 0 0
293 2 1.2969412731157052e+01 1.0851976177665041e+01 7.1032557668217571e+00 0 0 0
309 2 7.6277821930622558e+00 1.1252498943725653e+01 3.0203757324138816e+00 0 0 0
108 2 8.4849530592940692e+00 3.1296804561540217e+00 9.7147726430705550e+00 0 0 0
20 2 2.1839178322907371e-01 3.1403213337414164e+00 3.0355657380512113e-01 0 0 0
117 2 9.6811574521322186e+00 4.7592816746350997e-01 2.2370125268965282e+00 0 0 0
135 2 -1.7664295361153040e+00 2.6456335847234915e+00 6.8495239724203438e+00 1 0 0
753 2 3.7475722886245975e+00 9.4697683284401517e+00 8.9375429049117514e+00 0 0 0
585 2 3.8348992355398916e+00 2.0415583635548042e+00 9.0242160926935338e+00 0 0 0
220 1 3.5515399505377196e+00 1.0437869456530150e+01 3.4597911420211345e+00 0 0 0
219 2 6.1122189138367258e+00 1.0447985412043881e+01 6.8038109765643853e+00 0 0 0
84 2 3.3099505516335901e+00 6.8852766910940506e+00 6.7557231407682516e-01 0 0 0
584 2 3.1862725312970048e+00 6.8578406264755454e-01 9.3087266897813290e+00 0 0 0
301 1 1.5857263184828742e+01 1.0792041427059768e+01 6.3472043901805515e+00 0 0 0
15 2 4.0037995358529184e+00 4.8011228075551058e+00 9.7325920743800935e+00 0 0 0
305 2 1.2130019896028783e+01 1.0671541143817604e+01 3.3214317137966822e+00 0 0 0
154 1 1.2662158558987013e+01 2.9514878238843684e-01 1.4646265980806792e+00 0 0 0
97 1 1.4067518938454548e+01 4.7004186997529365e+00 9.6645079927340074e+00 0 0 0
602 2 1.6474239906068519e+01 4.7668361151635334e+00 5.8883063883810660e-01 0 0 0
486 2 1.1443470884763471e+01 1.5892567032254162e-01 9.0368291092595641e+00 0 0 0
190 1 2.9553831080903947e-01 1.0453855521865492e+01 9.6395335983732533e+00 0 0 0
79 1 7.3376759248292451e+00 1.1952832635988679e+00 3.9319919534790537e-01 0 0 1
99 2 1.3066568107515540e+01 4.5106384994494615e+00 9.7236246008369900e+00 0 0 0
164 2 8.7078942204521415e+00 7.6704852321507055e-01 1.8963984455138281e+01 0 0 0
828 2 8.5017799758641512e+00 8.2547168952883769e+00 1.1435862746910040e+01 0 0 0
574 1 4.5379118053337075e-01 3.3979276710278938e-01 1.1089404105402135e+01 0 0 0
17 2 -1.7778149476622547e+00 4.1045147070843431e+00 1.9256560715005929e+01 0 0 -1
583 1 3.6691926436872695e+00 1.4259427228453267e+00 9.7774085107837347e+00 0 0 0
832 1 6.4794027483564793e+00 9.8852903499306528e+00 1.4335300475260194e+01 0 0 0
249 2 5.1992588106542836e-01 9.4935898291079415e+00 1.8305732293942349e+01 0 0 0
749 2 -1.7447877266724392e+00 1.0460673898611896e+01 1.5016914815190265e+01 0 0 0
694 1 -3.2312124683607690e+00 1.0324780629827774e+01 1.9222071767774139e+01 0 0 0
826 1 9.4413311894519669e+00 8.0736926681450889e+00 1.1143503866972015e+01 0 0 0
721 1 3.6881090497430815e+00 1.0883658432953158e+01 1.5811115838472121e+01 0 0 0
807 2 1.2600008897582919e+01 1.0099429922822990e+01 1.5621068138451740e+01 0 0 0
805 1 1.2477973936418644e+01 1.0917694165208824e+01 1.6160972409615127e+01 0 0 0
107 2 9.5561357829291342e+00 2.1129731112947692e+00 1.0313016237352425e+01 0 0 0
81 2 -1.0766761095382105e-01 6.7531938582144202e-01 1.9129153249979630e+01 0 0 0
188 2 -6.1223550627632219e+00 9.5219013861436377e+00 1.9145638825014924e+01 0 0 0
571 1 -5.3941118808317583e+00 4.5612833547526055e-01 1.7727735127947170e+01 0 0 0
247 1 4.3048247424115615e-03 8.9723848872804037e+00 1.8989636971193814e+01 0 0 -1
505 1 3.1999772777242059e+00 1.1121578223303099e+00 1.4197356645014212e+01 0 0 0
506 2 3.3907928583612357e+00 1.8632247320101816e+00 1.4798808743975719e+01 0 0 0
604 1 1.1402528479784779e+01 4.8476464050094306e+00 1.0025845317214475e+01 0 0 0
508 1 5.3922676368704003e-01 1.1197688505516421e+00 1.4326851272153366e+01 0 0 0
743 2 1.0101854549446854e-01 7.6122812368484105e+00 1.0570537340580323e+01 0 0 0
510 2 1.4439909936509174e+00 7.9463383716920610e-01 1.4082817869273820e+01 0 0 0
511 1 -3.9985328892231156e+00 6.4776665569240883e+00 1.4804836470403197e+01 0 0 0
512 2 -4.1699060124122269e+00 5.8195842521633896e+00 1.4089552916523976e+01 0 0 0
513 2 -3.9390249527163981e+00 6.0535681469721094e+00 1.5662706874960149e+01 0 0 0
514 1 -1.3163418126178623e+00 6.2602100999128689e+00 1.4632951166090184e+01 0 0 0
515 2 -1.3046061459161002e+00 5.6615965794367114e+00 1.5435325809998446e+01 0 0 0
516 2 -2.0886918096800793e+00 6.7770953745689404e+00 1.4713614556813530e+01 0 0 0
166 1 5.2585852150082264e+00 6.1597192651190138e+00 1.9021667712054334e+01 0 0 0
519 2 1.9867810796044454e+00 5.4316166557979759e+00 1.7957503087752560e+01 0 0 0
728 2 -3.4157845189396174e+00 1.1005986295841183e+01 1.3589938232686894e+01 0 0 0
522 2 2.2636297314349361e+00 5.3135002938719484e+00 1.0912893198092755e+01 0 0 0
98 2 1.4276550169080524e+01 5.4850186961155565e+00 1.0285380907374472e+01 0 0 0
536 2 -3.1826357412423252e+00 4.3208911543728112e-01 1.2133388951485459e+01 0 0 0
525 2 -2.3283880604900906e+00 2.0987088570888384e+00 1.0782469807977598e+01 0 0 0
507 2 3.8640981407589123e+00 4.0983186436633035e-01 1.4279157151103540e+01 0 0 0
527 2 -2.9254151863623097e+00 2.3689500407828596e+00 1.8232060215590725e+01 0 0 0
529 1 1.4212768922338768e+00 6.2911771392084050e+00 1.6655406757462373e+01 0 0 0
530 2 1.5909054546477250e+00 5.9882619037595051e+00 1.5754843706726449e+01 0 0 0
531 2 4.7037931722968640e-01 6.5183918744219520e+00 1.6768386066650823e+01 0 0 0
532 1 2.5897390307865438e+00 6.5618544713520217e+00 1.2281513597981938e+01 0 0 0
533 2 3.4788035985004440e+00 6.8485172245980950e+00 1.2056595291226690e+01 0 0 0
534 2 2.5643113034031160e+00 6.0921462117679761e+00 1.3116340485507990e+01 0 0 0
535 1 -2.2850956566089544e+00 9.3331590594537228e-01 1.2129996059188901e+01 0 0 0
517 1 1.9993464750083012e+00 4.9584538895189434e+00 1.8797257874734527e+01 0 0 0
537 2 -1.6111170447530636e+00 2.9671128702806943e-01 1.1939369604978371e+01 0 0 0
538 1 -3.1182656878546298e+00 1.5013630229996837e+00 1.7094284021867018e+01 0 0 0
539 2 -4.0323441374879323e+00 1.1678407849187522e+00 1.7165519860968850e+01 0 0 0
540 2 -2.9682177008574899e+00 1.7823073730391499e+00 1.6180177282217489e+01 0 0 0
541 1 2.7525106077418000e+00 2.7729454998649290e+00 1.1869385212049091e+01 0 0 0
542 2 2.9001632750301827e+00 2.1140591596810796e+00 1.2573987041601763e+01 0 0 0
543 2 2.8819006837930594e+00 2.2050277629134598e+00 1.1037503882444550e+01 0 0 0
544 1 1.3085952377700449e+00 2.4121313686779526e+00 1.6674235939192457e+01 0 0 0
545 2 1.1458367471702067e+00 1.8856005483922149e+00 1.7506907722115315e+01 0 0 0
546 2 1.0862021626637057e+00 1.8237349529987186e+00 1.5930777231779770e+01 0 0 0
547 1 -3.4935435356715034e+00 4.9685473188938722e+00 1.6873660379384521e+01 0 0 0
548 2 -4.1021802322882799e+00 4.2173185735235457e+00 1.6593599698704324e+01 0 0 0
549 2 -3.7389352286936424e+00 5.3603740008313547e+00 1.7700734832443434e+01 0 0 0
550 1 -1.6498666987662274e+00 5.1505918198413152e+00 1.2270968613737928e+01 0 0 0
551 2 -1.0550847740716987e+00 4.3658189319030294e+00 1.2383534810157110e+01 0 0 0
552 2 -1.4944661817395510e+00 5.6468781521964511e+00 1.3121213676486004e+01 0 0 0
553 1 3.5307303653834499e+00 3.2054081015191085e+00 1.5643612636242516e+01 0 0 0
554 2 2.8535317289410314e+00 3.0523285773550612e+00 1.6415186362184940e+01 0 0 0
555 2 4.3306041873331811e+00 3.4958015947536749e+00 1.6073961744952445e+01 0 0 0
556 1 2.8684207967158226e-01 3.3907727929448961e+00 1.2847196165620804e+01 0 0 0
557 2 1.0112503942746915e+00 3.2220517594965825e+00 1.2198253983827302e+01 0 0 0
558 2 2.0146163830839203e-01 2.5289067589936627e+00 1.3331284152581569e+01 0 0 0
559 1 -4.0289806532580190e+00 4.1749223909397495e+00 1.3156021252789843e+01 0 0 0
560 2 -3.2065155875723876e+00 4.4838227843426122e+00 1.2755808282084521e+01 0 0 0
561 2 -3.6847767853225006e+00 3.4013687209128065e+00 1.3704755385841171e+01 0 0 0
562 1 -1.1303827371593407e+00 4.1976737657700127e+00 1.6113225663948306e+01 0 0 0
563 2 -3.4908415304876517e-01 3.8864632705272308e+00 1.6657071152256854e+01 0 0 0
564 2 -1.9229240746656875e+00 4.2807048832332724e+00 1.6648083769364970e+01 0 0 0
565 1 4.9293111291630360e+00 7.1548200698812030e+00 1.0977421966166087e+01 0 0 0
566 2 4.5479705101389634e+00 7.8383040772016521e+00 1.0307619938991312e+01 0 0 0
567 2 4.9971281349627095e+00 6.3049936429251821e+00 1.0487313326118709e+01 0 0 0
568 1 -1.1882167368321213e+00 6.9733670631657896e+00 1.7694444501145497e+01 0 0 0
569 2 -1.3207512570677071e+00 6.1571922055855799e+00 1.8251599913120568e+01 0 0 0
570 2 -6.2318104445877331e-01 7.5803879091308470e+00 1.8266530724299873e+01 0 0 0
794 2 1.3003016432100795e+01 1.0830817168030347e+01 1.2263370985738831e+01 0 0 0
572 2 -5.6393202442230912e+00 1.0916449842855684e+00 1.8455391465085825e+01 0 0 0
620 2 6.3024161270849870e+00 5.6059057686211267e-01 1.2103547840493933e+01 0 0 0
827 2 9.9022629596271816e+00 7.5122356749019339e+00 1.1775826140109155e+01 0 0 0
576 2 7.2809631259557639e-01 1.1806634472379445e+00 1.0650422438189839e+01 0 0 0
577 1 1.8897580424081895e+00 4.9697332786373103e+00 1.4310803045807079e+01 0 0 0
578 2 1.2818344148011498e+00 4.2610200272915764e+00 1.3984777870049049e+01 0 0 0
579 2 2.6459850042378399e+00 4.5475582642131762e+00 1.4777701129579947e+01 0 0 0
580 1 -2.4885694800391622e+00 2.2618939038288195e+00 1.4613554931921326e+01 0 0 0
581 2 -2.1433802265769533e+00 1.7685896877291472e+00 1.3847624653424903e+01 0 0 0
582 2 -1.8383550680058942e+00 2.9386991097139283e+00 1.4773841151658102e+01 0 0 0
24 2 -2.4399030820664569e-01 2.9689352571305592e+00 9.9288715895206821e+00 0 0 0
332 2 9.5236836609224849e+00 9.3180090449755966e+00 1.8488355524245677e+01 0 0 0
589 1 1.2023855973248610e+01 8.9514215171628964e-01 1.4303948208728201e+01 0 0 0
590 2 1.1208868801181341e+01 4.8607391462355953e-01 1.4702741277196154e+01 0 0 0
591 2 1.2302210609913230e+01 1.5735873797424400e+00 1.4980277812806666e+01 0 0 0
592 1 9.3212986869574195e+00 1.0676031167042572e+00 1.4810020740878949e+01 0 0 0
593 2 8.7274664745950243e+00 3.0621932456236550e-01 1.4701277097254867e+01 0 0 0
594 2 9.0616859233554532e+00 1.7448966692521133e+00 1.4140254723897216e+01 0 0 0
595 1 5.0850933458165271e+00 6.4155271817565565e+00 1.4302919510426142e+01 0 0 0
596 2 5.0276718084360326e+00 5.9396006693803951e+00 1.5155517431018778e+01 0 0 0
597 2 4.9522064284070906e+00 5.7447297734274203e+00 1.3604730276422194e+01 0 0 0
598 1 8.1511081913315699e+00 6.3858231126834841e+00 1.4211337568534040e+01 0 0 0
599 2 7.1915286439583985e+00 6.6958654880951656e+00 1.4394360813812156e+01 0 0 0
600 2 8.1171837739026405e+00 6.1356208895184396e+00 1.3258340670844843e+01 0 0 0
82 1 -3.8821994149255890e+00 6.1749489921988454e+00 1.9288933978928796e+01 0 0 0
603 2 1.0547252416377544e+01 4.9635534646723931e+00 1.8361879376482843e+01 0 0 0
906 2 -1.8741390947065968e+00 2.0356848657731710e-01 1.7543464463966878e+01 0 0 0
605 2 1.1244700908798945e+01 5.1045625479390546e+00 1.0972974314260277e+01 0 0 0
809 2 1.0185697298784238e+01 1.0709245925130624e+01 1.2352753904185818e+01 0 0 0
607 1 6.7498902206200295e+00 2.7361753233581458e+00 9.8341757828499663e+00 0 0 0
837 2 1.2492043478483501e+01 9.4738921117472454e+00 1.0714747173360857e+01 0 0 0
609 2 6.7039505517581510e+00 2.4048892936473001e+00 1.0763735726796028e+01 0 0 0
509 2 -8.3297526033747182e-02 3.6133236555446663e-01 1.4321005428027487e+01 0 0 0
611 2 6.3442352904235770e+00 2.0437192263816222e+00 1.8243067022363171e+01 0 0 0
613 1 1.0281919467158653e+01 5.9618652051369327e+00 1.6792065937083173e+01 0 0 0
614 2 1.0978665167569888e+01 6.6183145080523644e+00 1.7022647475003534e+01 0 0 0
615 2 9.4669477961725121e+00 6.4623860233332682e+00 1.7078183979278371e+01 0 0 0
616 1 1.1412791244174775e+01 5.9949267279766527e+00 1.2239187979007363e+01 0 0 0
617 2 1.1344544924963573e+01 5.5366021863124679e+00 1.3136058686722413e+01 0 0 0
618 2 1.2379339917966128e+01 6.2240936686404931e+00 1.2216675585444271e+01 0 0 0
619 1 6.9349524387902139e+00 1.3179799124383338e+00 1.2274893036575671e+01 0 0 0