LAMMPS data file via write_data, version 3 Mar 2020, timestep = 69450000

2016 atoms
2 atom types

0.0000000000000000e+00 1.7954580218219846e+01 xlo xhi
-5.7489549090841230e+00 5.0745114885973692e+01 ylo yhi
0.0000000000000000e+00 1.9094533916723584e+01 zlo zhi
5.4567113164178178e-02 -6.6877184494963942e+00 -2.4073890513562901e-02 xy xz yz

Masses

1 16
2 2

Atoms # atomic

634 1 7.4060710836993398e+00 -2.1483445719279484e+00 1.2112434712836075e+00 0 0 -3
1883 2 8.2379911868158722e+00 5.0480191023836518e+00 1.5366028560605175e+01 -1 1 0
1002 2 -1.3285853740771776e+00 6.8315481256837156e+00 1.7933877961657540e+01 -2 0 0
1910 2 1.1391470461106078e+01 2.8699661372147762e+00 1.2019677605501732e+01 -1 1 -1
704 2 -3.3794299268189789e+00 4.6604593495687876e+00 1.5274083609868701e+01 -3 0 -1
1368 2 1.6787890611076545e+01 -3.2503808594826125e+00 2.3038441480882970e+00 -2 1 0
2008 1 3.5918112669100086e+00 3.8783686446873489e+00 6.9169519318240598e+00 -1 1 1
182 2 -3.0435412995596041e+00 5.0216566667639544e+00 1.0753667031715674e+01 -1 0 0
1963 1 8.9877513101334205e-01 9.6021542239386193e-02 1.3338824021178617e+01 1 1 0
397 1 -1.8026367260938700e+00 4.9610266414547546e+00 7.1272037010757376e+00 3 0 -2
1882 1 8.7497776098918099e+00 5.8182968178930032e+00 1.5650838298115477e+01 -1 1 0
970 1 1.6127977039341150e+01 6.3739637712990227e+00 8.4435031741571498e-01 0 0 3
152 2 5.8492604794268628e+00 8.1947782345305846e+00 1.3376153486661331e+00 5 0 2
115 1 -5.3904718599596961e+00 -1.8298798801122222e+00 1.5525589627726575e+01 -4 0 -5
613 1 1.5441335687210488e+01 -4.3410606049740874e-01 6.7168695206854236e+00 -5 0 1
369 2 3.0752946425131324e+00 7.9846548186675399e+00 2.8330149844138713e-01 -2 0 0
109 1 1.1363823366374934e+01 2.1377481931559501e+00 1.5210213725859255e+01 1 0 -2
987 2 5.7936262440415378e+00 8.5363990364651698e-02 1.3340961819011136e+01 -4 0 -3
519 2 2.9503160935150006e+00 7.5432408831636817e+00 2.9552672219020146e+00 -3 0 -2
1894 1 1.5474887276186484e+01 1.1607872775031343e+00 4.6082345270995955e+00 -1 1 0
875 2 8.4821451996120896e+00 -8.3018219107081226e-01 4.0383276241005328e+00 -1 0 1
917 2 7.9072774723525727e+00 8.1033883943412999e+00 4.3837785414388142e+00 1 0 2
962 2 4.6322223995755243e+00 3.3632954204351790e+00 1.5619229653932956e+01 -3 0 -3
758 2 -4.3120346123604236e-01 -1.3948537986624565e-01 2.7958560233793239e+00 -2 0 -1
655 1 1.3816809188151847e+01 -3.2733425595274084e+00 1.0820279144792813e+01 -3 0 0
874 1 7.9100658662553469e+00 -1.2294198361776143e-01 3.7247119555419248e+00 -1 0 1
759 2 1.7145855093596349e+01 1.1780087099304906e+00 2.0988115083904013e+00 -3 0 -1
1893 2 1.3602674851425792e+01 -1.7270619022522977e+00 3.7720106832118359e+00 -2 1 0
1933 1 9.6074909968973579e+00 3.2961142424520897e+00 4.3070874460460642e+00 0 1 -1
92 2 -3.1312031028697351e-01 -4.8351675737747524e-01 1.5914227471044624e+01 2 0 2
353 2 1.3280490778073017e+00 6.1321761588550459e+00 5.5042852957767279e+00 0 0 2
499 1 7.1328131850654337e+00 -4.9531909970543797e+00 2.6277734637077206e+00 -2 0 0
1458 2 5.8290397300363512e+00 3.1865374379318414e+00 1.8574159635382511e+01 1 1 0
500 2 6.8307300387558554e+00 -5.0838416499278685e+00 3.5893322762716200e+00 -2 0 -1
87 2 1.0233321549163714e+01 4.8508051867807378e+00 3.4446210415073777e+00 2 0 -2
931 1 1.3687675430129060e+01 8.5717294449750892e-01 9.9534884883839183e+00 -1 0 -1
1441 1 3.3011648662872535e+00 -1.6006344397395731e+00 3.2615748522369623e+00 2 1 1
1376 2 1.3785704178790169e+01 -4.4568425991775946e+00 9.8400061166748980e+00 -1 1 -1
1965 2 2.9459030975460809e-01 1.6208060185653483e-01 1.4121426048442068e+01 1 1 0
327 2 4.2661219046623007e+00 6.8666211457792183e+00 1.1717254331293232e+01 0 0 -1
1590 2 1.2369733048652895e+01 1.3837251667322379e+00 1.0541775284185197e+00 -1 0 -1
1511 2 -1.1160758250963125e+00 -1.8244193273997484e+00 1.1167386602658842e+01 0 1 1
398 2 1.5222982837358872e+01 5.2391555475842306e+00 6.8351245233454128e+00 2 0 -2
1896 2 1.6040165505074540e+01 7.3855022254789571e-01 3.9138572355563692e+00 -1 1 0
1895 2 1.4638867412626087e+01 1.3249355506706895e+00 4.1389069881138925e+00 -1 1 0
749 2 -1.1102707544430994e+00 6.9935404155240199e+00 1.3343764409292191e+01 -4 0 1
217 1 -2.5093163217077685e+00 2.9521671488617542e+00 1.8258049683057965e+01 -2 0 -4
876 2 7.6630610534690549e+00 3.7528730391115239e-01 4.6347116073500851e+00 -1 0 1
1192 1 5.6985214801151161e+00 5.3564060571746754e+00 1.7949470999197974e+01 0 1 -1
1598 2 1.1661263258102537e+01 -4.3327341381011273e+00 5.4289549863817683e+00 1 0 1
1992 2 5.6081466462540241e+00 -2.3081729777101612e+00 1.3182508799279523e+01 0 1 1
908 2 4.3945481240906190e+00 2.0226358165771607e+00 6.5132011244457622e-01 -2 0 2
777 2 -1.0730188125412674e+00 -4.5808548647780416e+00 1.3997944743473109e+01 -1 0 1
1121 2 7.5784544976543682e+00 4.9439340073098865e+00 8.3236199494485401e+00 0 0 0
211 1 6.8197344014544052e+00 -3.0829631260578663e+00 1.7982516177108465e+01 -6 0 -2
717 2 1.1734678659506045e+01 5.2346413561215446e+00 1.6333621805575167e+01 -1 0 2
1936 1 6.7935393904719570e+00 -5.4365760215385439e-01 1.5988582438495966e+01 0 1 0
1979 2 2.7686689469774199e+00 -4.3903456872414806e+00 1.1710331280764843e+01 1 1 -1
1448 2 8.3746675169582332e+00 2.2191783048512121e+00 1.3107819770320319e+00 -1 1 0
620 2 1.0810469643130492e+01 4.0124391988316912e+00 1.8102028642304173e+01 -2 0 0
635 2 6.7712997710076452e+00 -1.5453161808609721e+00 1.6841499807951181e+00 0 0 -3
1460 2 -4.5653191799659014e+00 -4.3002808074606840e+00 1.3897438118142787e+01 0 1 -1
836 2 9.1956209048523618e+00 2.7610451271075576e-01 1.8109063649486750e+01 -2 0 2
218 2 -2.7755197969791872e+00 3.1855313598962702e+00 1.7378045861416727e+01 -2 0 -4
94 1 3.5306359272250329e+00 8.0942492198321716e+00 1.5889675785399042e+01 -1 0 -1
1097 2 8.5221160598373107e+00 -3.7950399162008761e+00 7.2024790368137337e+00 0 0 0
214 1 2.5231572132157689e+00 -2.0104195591015612e+00 1.3887371342411310e+01 -3 0 -5
1447 1 8.1848024542529885e+00 2.9903855272417452e+00 7.5642197626052154e-01 -1 1 0
1947 2 2.8718488155282493e+00 5.5346876299803398e+00 5.0622974656294761e-01 0 1 0
1123 1 1.1300398683968131e+01 -3.5357012643629804e+00 1.8023413547071868e-01 -2 0 -1
669 2 1.4510591681189204e+01 -5.5652846090787280e+00 7.7267534058948808e+00 -4 0 -2
885 2 1.2498608698210516e+01 -3.2070827643561257e+00 7.1966282830346335e+00 -1 0 -2
1913 2 9.8811483785765226e+00 7.0029633245274336e+00 8.6953776506490552e+00 0 1 -1
488 2 7.7670008140184335e+00 2.1738791344390647e+00 1.8457568798913631e+01 -6 0 0
1597 1 1.1332502332981184e+01 -4.1288781013976488e+00 4.5002770859252941e+00 1 0 1
1193 2 4.9262447959007849e+00 5.0025122507358510e+00 1.8480979413858400e+01 0 1 -1
1304 2 -6.9875370362932987e-01 3.9932033003983847e+00 8.4332435112857596e+00 1 1 1
1934 2 9.4815123106897037e+00 2.7138556861735701e+00 3.5200960156814305e+00 0 1 -1
972 2 1.5729309409511393e+01 6.8385220865485667e+00 7.1575722183903456e-02 0 0 3
791 2 -1.1705347558637040e+00 -4.3496927850912410e+00 1.8373306839679106e+01 -2 0 0
72 2 3.9859695251534522e+00 -4.8432381741544983e-01 1.8097631171107622e+01 -1 0 -1
247 1 1.3184558174846119e+01 4.6172577883089403e+00 4.2361065812269851e+00 -1 0 0
1011 2 4.1247334325181706e+00 -8.0758280573100460e-01 1.0162648154263836e+01 0 0 1
621 2 1.7552068100953267e+01 3.4473621300215562e+00 4.6874425404290671e-01 -2 0 1
909 2 3.2262038851170201e+00 1.1728611452890618e+00 1.2696656864441003e+00 -3 0 2
100 1 9.5213862781204206e+00 -2.0964418466082981e+00 5.1151872434972923e+00 -1 0 0
932 2 1.4530972982320749e+01 9.2680154812342952e-01 9.4898087586305344e+00 -1 0 -1
1127 2 1.3449809930223472e+01 5.4543681792945051e+00 5.5715410863896766e+00 0 0 0
615 2 1.5422447877935255e+01 9.4322665220256674e-02 5.8939652031582002e+00 -5 0 1
788 2 6.3472695068938503e+00 1.8830920304443675e+00 1.1483723908170171e+01 -1 0 1
1664 2 -3.1704220540261518e+00 -2.9997010933010619e+00 1.0916445065695106e+01 -2 1 0
1194 2 5.6382912493932125e+00 4.8781777879218140e+00 1.7076361192722235e+01 0 1 0
835 1 9.5736169948121592e+00 -6.2237548177697910e-01 1.7999255058114517e+01 -2 0 2
1628 2 8.3896937585283951e+00 -4.5658437991479097e+00 1.5782429968417558e+01 0 0 -1
549 2 2.7529023341524708e+00 3.1255076844136713e+00 8.1080221160864827e+00 -3 0 -3
1001 2 -3.3892422733617611e-01 6.0229561039621355e+00 1.6986566600896786e+01 -2 0 0
181 1 -3.4257848055375777e+00 5.8817432362632136e+00 1.0580344814115920e+01 -1 0 0
760 1 1.3106428008511591e+01 2.0217351676763844e+00 3.9447525590426205e+00 -2 0 1
282 2 6.5421829634837447e-01 6.7241276977708218e+00 1.1847743696903583e+01 -4 0 2
1128 2 1.3480277926768718e+01 6.8928427327900863e+00 6.3685181887233977e+00 0 0 0
837 2 1.0076496567645574e+01 -8.1610139414089655e-01 1.8808858859575615e+01 -2 0 2
1079 2 5.3965428287725032e+00 -2.8587815070694944e-01 1.7218172033699943e+01 -1 1 -1
1891 1 1.3558067820497481e+01 -2.3356025246388668e+00 4.5575933759290956e+00 -2 1 0
561 2 3.9593398866637575e+00 -1.7679903617174730e-01 7.2826809352283561e+00 -2 0 1
32 2 2.5836804460493537e+00 1.1468331239783423e+00 8.9311387727141724e+00 -3 0 -5
2009 2 3.0121493767495351e+00 4.4719615750600639e+00 6.4275679534997536e+00 -1 1 1
219 2 -1.7419377435656935e+00 3.4648260705476073e+00 1.8572985491828501e+01 -2 0 -4
215 2 3.4750662023001446e+00 -1.7758900267249178e+00 1.3645731997858249e+01 -3 0 -5
362 2 3.3599178073518701e+00 9.2175475051749967e-01 5.4060990443762611e+00 0 0 -1
919 1 3.9348919987222719e+00 5.9099303654129560e+00 8.4846715287643768e+00 0 0 -4
243 2 1.7150590024257939e+00 3.2724197653801461e+00 1.3760944876218971e+01 3 0 1
619 1 1.0373306933011843e+01 3.9529063039913517e+00 1.8945526184812728e+01 -2 0 0
280 1 1.3776407631463954e+00 7.3600883103867183e+00 1.1745181387475528e+01 -4 0 2
746 2 1.0046776793718237e+01 -4.3239226147094767e+00 1.4007864847604630e+01 -2 0 0
1142 2 1.0390720071486573e+01 6.7802026903967576e+00 1.0601753568399838e+01 0 0 -1
33 2 2.4595596475705590e+00 -3.6135951843983527e-01 9.2304985718540067e+00 -3 0 -5
1061 2 6.5892429830909656e+00 6.8155047482987676e+00 2.8433268450698082e+00 0 0 0
323 2 2.5306350238010653e+00 -5.5666019602582981e+00 8.4726419027966280e+00 2 0 -2
325 1 3.6818602543208732e+00 6.1060901707084501e+00 1.1851057487576581e+01 0 0 -1
212 2 7.4610604839739292e+00 -2.8994524885254696e+00 1.8681304027444810e+01 -6 0 -2
1584 2 -1.4315603683883693e+00 4.0379432372924295e+00 5.6104954264486926e+00 -2 0 -1
522 2 5.0292987524029820e-01 -9.1599998421665507e-01 4.5896019341681127e+00 -3 0 0
856 1 1.6813497052042026e+00 9.9208164169088509e-01 2.3809883142009725e-01 0 0 -3
1372 1 5.9283993084153135e+00 -4.7564885797443130e+00 5.1761991832900822e+00 0 1 -1
739 1 1.3635266267721051e+00 3.4263102829434651e+00 4.1181093441236172e+00 0 0 0
907 1 4.1434586215253990e+00 1.4880807476507663e+00 1.4560870242493991e+00 -3 0 2
857 2 1.4239829720475443e+00 3.4748163221351547e-02 3.5764229407201992e-01 0 0 -3
951 2 3.9485234093461843e+00 1.3606448327154705e+00 1.6480526799167738e+01 -1 0 2
1461 2 -3.0452019030779773e+00 -4.5204174120174905e+00 1.3994862824723203e+01 0 1 -1
332 2 7.0729897253569636e+00 6.6188685112023879e+00 1.8176756859922794e+01 -1 0 -1
354 2 1.7699371840986815e+00 4.7493719376783936e+00 4.8463741660855302e+00 0 0 1
1630 1 1.4271965166287586e+01 -9.4082800470550509e-01 2.2795573521548134e+00 1 0 1
1060 1 5.9082572560418880e+00 6.7056311797044863e+00 2.1340947924349010e+00 0 0 0
968 2 -4.5339729592181301e+00 6.1879068483459161e+00 1.3990368176752590e+01 -3 0 1
1125 2 3.9112967738002675e+00 -2.9168339210641481e+00 1.9031381455558151e+01 -2 0 -2
363 2 2.1118488821616426e+00 4.3170760901590022e-01 4.6234043967653573e+00 0 0 -1
1122 2 7.9505476817724139e+00 4.7553310233862334e+00 6.7845087451110082e+00 0 0 0
903 2 1.1702636006779882e+01 2.6131583846034658e+00 1.3588802441922084e+01 -1 0 -1
528 2 7.2947966065214160e+00 -4.9534389618705603e+00 1.0200809290062482e+01 -4 0 -1
431 2 1.0432683386064481e+01 -4.5432451408572199e+00 7.4640639736106289e+00 -2 0 5
237 2 8.2531692923702327e-01 1.9230195080404524e+00 1.1923040611452775e+00 -1 0 2
248 2 1.3956879109837780e+01 4.9258201909426269e+00 3.7132537543324200e+00 -1 0 0
440 2 1.5969301661006611e+01 4.8882361568235702e+00 3.5627789687734777e+00 -4 0 -2
326 2 3.6347299075909358e+00 6.0812044130070184e+00 1.2873178081394911e+01 0 0 -1
459 2 -2.0182170779622757e+00 1.0592304478989760e+00 1.5168903975238743e+01 -3 0 -3
1652 2 5.1938022060771605e+00 3.6367617739428439e+00 4.1473872713507083e+00 0 0 0
879 2 4.2264843307308873e+00 5.2506029695824594e+00 1.4760063703046008e+01 -4 0 0
1677 2 6.3604146421223220e+00 -2.6269729731385993e-01 3.2024303440237425e+00 -1 0 1
878 2 3.4082400412173159e+00 6.6322101134870124e+00 1.4973192762092939e+01 -4 0 0
534 2 1.1891486722158371e+00 -4.5130329667160600e+00 7.4347359523574763e+00 0 0 -1
532 1 9.7634981824558320e-01 -5.4422154603814006e+00 7.6953911265811019e+00 0 0 -1
349 1 3.9071095422419146e+00 -2.8834612562853592e+00 5.5011381821418608e+00 4 0 4
949 1 3.5392261406081351e+00 2.0905376525936354e+00 1.5947562050069692e+01 -1 0 2
220 1 -3.3639597658703364e+00 1.9626812669205469e+00 1.2373216483999554e+01 -5 0 -3
178 1 6.7660974664898763e+00 -4.6300769106143473e+00 1.5883450929215520e+01 -3 0 0
2010 2 4.3253202339119037e+00 3.7508452806143264e+00 6.2562145313220459e+00 -1 1 1
113 2 3.8504756997072915e+00 -5.1963078191812393e+00 1.5134563390090854e+01 -3 0 1
310 1 -1.6330852356620396e-01 -4.7569483840685134e-01 1.0982683815993621e+01 -1 0 -2
311 2 6.4080974594498841e-01 -8.8211407913541162e-01 1.0594684203849507e+01 -1 0 -2
130 1 7.5755366780806490e+00 2.1254758359427131e+00 8.2346973675458042e+00 -1 0 -1
703 1 -3.0248821368983658e+00 3.8511659265378686e+00 1.5726864196422611e+01 -3 0 -1
859 1 1.8272970011683856e+00 -2.9430742840187083e+00 7.2186996557008252e+00 -2 0 2
1909 1 1.2015952652170844e+01 3.0474906784959312e+00 1.2779112803994988e+01 -1 1 -1
278 2 8.1559957682294417e+00 2.7153073304772501e+00 1.4737466108627792e+01 -3 0 -3
457 1 -2.8291911811398962e+00 1.4090738838309411e+00 1.4857982969550314e+01 -3 0 -3
920 2 3.8058188716060246e+00 5.0804021607274983e+00 8.0143388364240238e+00 0 0 -4
692 2 -3.4682067115869151e+00 -3.1123154006676108e+00 1.8084641032567252e+01 2 0 1
1118 2 2.2047475493279638e+00 -3.8395808593616234e+00 1.6421593128575978e+01 0 1 -1
1050 2 1.0329287686104625e+01 9.8642655953211555e-01 2.1687558565037728e+00 -1 0 -1
60 2 5.2494674838660105e+00 3.9695088589616514e+00 1.4846150110946383e+00 -2 0 0
482 2 1.0462799147221803e+01 2.7461673209711464e+00 5.5908826376300587e+00 1 0 -1
460 1 5.6590055887959190e-01 5.7014819970555770e+00 2.4792323487916286e+00 -4 0 1
350 2 4.7143509536835140e+00 -3.4522818400572155e+00 5.5063579369595503e+00 4 0 4
729 2 1.2915742022882712e+01 -4.2640395648782015e-01 1.0119600061594403e+01 0 0 3
2014 1 -5.9456071317595605e-01 7.6239454971996707e+00 7.6297637825712297e+00 0 1 0
1456 1 6.0593998845948605e+00 2.2801604377729170e+00 1.8509153776369601e+01 1 1 0
281 2 2.1897690258027049e+00 6.8325691386895020e+00 1.1667154244898931e+01 -4 0 2
955 1 9.9566873413160106e-01 -1.4221025514559109e+00 2.8405729739135993e-01 -1 0 -2
351 2 4.0254341264009836e+00 -2.5704479034690748e+00 4.5780006208740112e+00 4 0 4
93 2 1.0078573812982494e-01 9.4642407217567914e-01 1.6506697041159949e+01 2 0 2
540 2 1.2141311319725125e+01 -4.5380620328865877e+00 3.0822497618863216e+00 -8 0 -4
58 1 5.8654982722623750e+00 4.2992356558660365e+00 7.6764312054142614e-01 -2 0 0
921 2 3.0437739261100005e+00 6.3023595073254732e+00 8.6497841642143758e+00 0 0 -4
776 2 -1.5570367129584124e+00 -3.3804809789357937e+00 1.3187863564524601e+01 -1 0 1
1675 1 5.6443875165915545e+00 -5.5093436758642067e-01 2.6470848792279833e+00 -1 0 1
461 2 7.8347528112539333e-01 5.6683693196600036e+00 1.5435613319221966e+00 -4 0 1
715 1 1.1041464607002307e+01 4.5876796789241947e+00 1.6335219922451198e+01 -1 0 2
1964 2 1.4467961856533886e+00 -7.3620256811394302e-01 1.3482040259362082e+01 1 1 0
727 1 1.2371345635939788e+01 -1.2310516694061855e+00 1.0201826047330995e+01 0 0 3
969 2 -3.3030609415071241e+00 7.0274878649522368e+00 1.4374078525674300e+01 -3 0 1
1459 1 -3.9266862658568744e+00 -5.0352004415540641e+00 1.4200466768459584e+01 0 1 -1
1946 2 2.9007392407086341e+00 4.0154708954962750e+00 1.6684078317445766e-01 0 1 0
883 1 1.2226168932225470e+01 -4.1663575605508738e+00 7.0861118281673194e+00 -1 0 -2
986 2 -1.1581540402927741e+00 4.3306986278209845e+00 1.6054719032721582e+01 1 0 0
971 2 1.6345326805364888e+01 5.4891312519783408e+00 5.0044343494509380e-01 0 0 3
762 2 1.2552788477371577e+01 1.7572342900933320e+00 3.2034205424007185e+00 -2 0 1
1442 2 4.1359630767891913e+00 -1.1608344692045813e+00 3.0818381709147773e+00 2 1 1
1676 2 5.3201202902599301e+00 1.5661169721292811e-01 2.0505263404277572e+00 -1 0 1
1027 1 -1.4340682943375516e+00 8.0061615656881013e-01 8.8568812764822304e+00 2 0 -1
132 2 7.9612785230899288e+00 3.0010555366104796e+00 8.0902138273503041e+00 -1 0 -1
501 2 7.1689982937596790e+00 -4.0136515670726522e+00 2.6023144518506731e+00 -2 0 -1
614 2 -2.0886746695708789e+00 7.0591176760214758e-02 7.4692896767974846e+00 -4 0 1
789 2 5.2488469735367325e+00 2.4701904739854967e+00 1.0654334020044107e+01 -1 0 1
1405 1 7.7517316563557523e+00 4.9783080041290546e+00 5.0672186614176464e+00 -2 1 -1
1653 2 5.8059725343352806e+00 2.6884678546653333e+00 5.2655951263489262e+00 0 0 0
958 1 -4.8124213647811578e+00 7.7307130204414243e-01 1.6498159378847863e+01 0 0 -1
1310 2 3.7823602723028458e+00 -4.5776670532562536e+00 9.7269595484248246e+00 0 1 -1
1627 1 9.3928775022485791e+00 -4.4204122589554915e+00 1.5734973660198444e+01 0 0 -1
792 2 -1.1574982276538899e+00 -2.8905139856945441e+00 1.7809979261374536e+01 -2 0 0
1049 2 8.9180853355795513e+00 6.8571281953280661e-01 2.7677226288695382e+00 -1 0 -1
884 2 1.2720916213823024e+01 -4.6003730391948618e+00 7.8134587051474220e+00 -1 0 -2
787 1 5.9513451267257720e+00 1.8339358482603698e+00 1.0586145921751832e+01 -1 0 1
1878 2 6.8072652470308608e+00 -3.5668360052382742e+00 1.1699842788011125e+01 0 1 0
395 2 -1.0155554766873811e+00 -1.5417526344382519e+00 6.1089711432612894e+00 -2 0 -2
761 2 1.3312037966721309e+01 2.9904266010418326e+00 3.8569016329249761e+00 -2 0 1
1668 2 1.5413048179345289e+01 7.2329493463775201e+00 3.8928923261551076e+00 -3 1 -2
1014 2 8.9470993936468943e+00 3.8867248018489455e+00 1.1367640395036295e+01 0 0 1
830 2 6.8111302244730734e+00 8.3596174335259761e+00 8.9628376964528602e+00 -1 0 1
565 1 4.0984323804162379e+00 3.8668640226937327e+00 2.7429724311342540e+00 0 0 2
737 2 1.3714299215972432e+01 -1.1007519364892371e+00 7.2519775856697004e+00 0 0 0
59 2 5.9448485395124848e+00 5.1987203388402801e+00 1.1174683967031329e+00 -2 0 0
1359 2 1.3136588110160684e+01 -3.2934493408250063e+00 1.2397558660168192e+01 0 1 0
950 2 2.6455087411017759e+00 2.2749739978124133e+00 1.6412029500521683e+01 -1 0 2
738 2 1.2774769071222604e+01 -1.4164931933439737e+00 8.4903792924523565e+00 0 0 0
1086 2 8.5755633797003572e+00 8.4568025431754279e-01 8.4601511575599240e+00 -2 0 -1
1512 2 -9.8761793286003829e-01 -3.2786499471159480e+00 1.0703703868670013e+01 0 1 0
267 2 9.5945813092407413e+00 -1.1995219691314603e+00 1.6366900227970870e+01 -3 0 -3
1085 2 9.8331515468238067e+00 -8.8549688874674182e-02 8.0307014574857991e+00 -2 0 -1
1141 1 1.0710270408249574e+01 7.4148215359279313e+00 1.1316767176636795e+01 0 0 -1
825 2 -1.3027055554355558e+00 3.4702708784237721e+00 1.0424057752627094e+01 1 0 1
934 1 2.5764867258853776e+00 -5.4493318316004560e+00 1.6525709436670002e+01 -3 0 -2
597 2 7.9182089680168142e+00 -8.5200022071169279e-02 1.3364314759728879e+01 2 0 -2
367 1 -3.2793583799957027e+00 7.1888941102527983e+00 1.8823172885479568e+01 -2 0 -1
8 2 1.0378507115730418e+01 -5.6056350309706735e+00 1.6434649248214470e+01 -1 0 -1
1084 1 9.0998211966397609e+00 3.5704722016805412e-02 8.6690035768371541e+00 -2 0 -1
448 1 7.2693882808014614e+00 -1.6436500822577695e+00 9.0020222915544608e+00 -2 0 1
450 2 7.9530845081151806e+00 -9.3375440455825398e-01 8.7994427447822954e+00 -2 0 1
449 2 6.3866914390659097e+00 -1.2546314778444074e+00 9.2687856358498379e+00 -2 0 1
992 2 2.7302175057346467e-01 -2.4713867088964592e+00 1.6160964035707057e+01 1 0 1
222 2 -3.6735293413995644e+00 1.2808746824949058e+00 1.1653975110688569e+01 -5 0 -3
1510 1 -1.5922996764483859e+00 -2.7012559088406376e+00 1.1264549412612491e+01 0 1 0
1098 2 7.5800623885315908e+00 -2.5583145053753791e+00 7.4877744995238604e+00 0 0 0
361 1 2.5592837430909539e+00 1.2100220066117213e+00 4.9628687433755658e+00 0 0 -1
963 2 5.9859264133269781e+00 3.9703153188280762e+00 1.5018385112371341e+01 -3 0 -3
653 2 3.1144193141740963e+00 2.1049982151927029e+00 1.3989298393481606e+01 -3 0 0
180 2 6.0637418513540160e+00 -4.6691980329452170e+00 1.5215120079820169e+01 -3 0 0
1439 2 -1.7496432556552919e+00 -4.9446357696953003e+00 9.0999206813998370e+00 1 1 2
998 2 8.6654186807738416e+00 -1.7055461336247824e+00 5.1635873535646679e-02 -2 0 2
526 1 7.9536029246682549e+00 -5.6350552845927693e+00 9.8971817396532611e+00 -4 0 0
1012 1 8.1807340164922415e+00 4.3388232082048468e+00 1.1809242451409705e+01 0 0 1
244 1 1.2660443289999067e+01 5.7802431577118405e+00 1.2562900896739912e+01 -2 0 -4
201 2 1.2355597987444323e+01 3.6579009254265191e+00 8.7956105578727524e+00 -2 0 -5
213 2 5.9730928270037147e+00 -3.1837159096553718e+00 1.8496386487882447e+01 -6 0 -2
959 2 -4.9711278872986764e+00 -1.3660046526883995e-01 1.6276210701714632e+01 0 0 -1
538 1 1.2587217888968052e+01 -4.6728332556276984e+00 2.2285639584153194e+00 -8 0 -4
1978 1 2.3328394999042583e+00 -4.4812082678902749e+00 1.2587946697160090e+01 1 1 -1
786 2 1.2869201258600585e+01 5.4008664054120423e+00 7.7897266654325454e+00 -4 0 -2
439 1 1.5410505458731608e+01 5.6205958966912366e+00 3.2419885516891149e+00 -4 0 -2
1884 2 8.9420438671766682e+00 6.4252852208552724e+00 1.4857834823740314e+01 -1 1 0
567 2 3.9261695609271676e+00 2.9522261778617587e+00 2.3343014248121365e+00 0 0 2
1407 2 -1.2303996336941796e+00 5.7809623458235588e+00 7.1250884859062866e+00 3 0 -2
575 2 1.6189997150461696e+01 2.7167405301724621e+00 4.8304947643143983e+00 -3 0 -1
1599 2 1.0587938004452397e+01 -3.4624543420124216e+00 4.6842356552782993e+00 1 0 1
747 2 1.0072878222659419e+01 -5.0656095979339284e+00 1.2591048509324878e+01 -2 0 0
693 2 -4.4169214467553317e+00 -4.1002307961996642e+00 1.7428294288673438e+01 2 0 1
906 2 9.3402321444729282e+00 5.5521299856530621e+00 8.5002394440796873e+00 0 0 -1
1463 2 4.1345934602306293e+00 -3.6577750466393919e+00 1.0007572866973760e+00 0 1 0
331 1 7.9108348297991977e+00 7.1376339365414676e+00 1.8034634766374495e+01 -1 0 -2
1977 2 9.5269904753658388e+00 4.1567019217838652e+00 4.8423283684151280e-01 0 1 1
579 2 1.1751258212345544e+01 -7.7515369594335137e-01 7.0193458898635459e+00 0 0 3
1629 2 9.5121303166906817e+00 -3.4607627978405331e+00 1.5863099246500660e+01 0 0 -1
964 1 -4.8084046304401040e-01 5.5983609559874932e+00 1.2516631196140864e+01 1 0 0
1358 2 1.1678213126414303e+01 -3.5114029341977977e+00 1.3012243686824595e+01 0 1 0
1117 1 1.9324554267177092e+00 -2.8518686996159603e+00 1.6329786061282935e+01 0 1 -1
249 2 1.2301437361770065e+01 4.8424908256494454e+00 3.8638075939303427e+00 -1 0 1
757 1 1.6793524543768442e+01 2.4457139919387050e-01 2.2290704018985794e+00 -3 0 -1
1877 2 6.7443294559628661e+00 -2.9782413593419141e+00 1.0219682723992634e+01 0 1 0
548 2 2.7938121494323780e+00 3.1841563801173525e+00 9.6164198041580828e+00 -3 0 -3
291 2 1.5534178573309552e+01 -4.8599219891356560e+00 4.2830910355158878e+00 -1 0 3
333 2 8.2448135526696795e+00 6.8536741999083848e+00 1.7164533146784915e+01 -1 0 -1
290 2 1.4500494767026893e+01 -3.6133699179333525e+00 4.6737919208750549e+00 -1 0 3
1449 2 7.2924298676422499e+00 3.4101835575001047e+00 8.6100631183051735e-01 -1 1 1
652 1 2.7301566323862865e+00 2.0105066456423213e+00 1.3113901760047449e+01 -3 0 0
1409 2 -5.5495319647438865e+00 7.9436957666362940e+00 1.6948970002702310e+01 1 0 0
668 2 1.4924414555729884e+01 -5.1817648965997654e+00 6.2048168254387832e+00 -4 0 -2
1665 2 1.3412417304555174e+01 -2.4007126546994253e+00 1.0604269494552176e+01 -3 1 0
1582 1 -1.2645658872103374e+00 3.5856676883309255e+00 4.7754995437368182e+00 -2 0 -1
1994 2 6.1950897514621026e+00 1.5105779215723274e+00 1.3885015830712938e+01 -4 0 -3
200 2 1.1858121947432556e+01 2.4085917721631667e+00 8.0118791135887726e+00 -2 0 -5
985 1 6.3620353447643145e+00 8.8501834583386696e-01 1.3130281631588161e+01 -4 0 -3
189 2 8.6034605681360254e+00 1.5859023070566742e+00 1.6493439359478273e+01 -6 0 -5
1937 2 7.1913214328529333e+00 -1.2355840519543513e+00 1.6485007454381559e+01 0 1 0
101 2 8.8285775653324521e+00 -2.5291784079437507e+00 5.6707963737163007e+00 -1 0 0
745 1 1.0100218151758479e+01 -4.2167544659450131e+00 1.3037119708338164e+01 -2 0 0
399 2 7.8412529851800166e+00 5.7994539872495601e+00 4.5966522728913075e+00 -2 0 -1
183 2 1.3853623681387671e+01 5.6691936530354248e+00 9.8957508995689434e+00 -2 0 0
481 1 1.0095678633508143e+01 2.3922086215326122e-01 1.1109622357133986e+01 -4 0 -1
1374 2 6.5447841571146332e+00 -4.4253906111960193e+00 5.8200797886460984e+00 0 1 -1
1632 2 1.4402327922123410e+01 -1.7467973384652433e+00 1.7221258879135013e+00 1 0 1
188 2 9.7750643729236018e+00 1.5436260610240753e+00 1.5456559034719559e+01 -6 0 -4
221 2 -4.2582278191387308e+00 2.3808407979176049e+00 1.2598816860312578e+01 -5 0 -3
246 2 1.3407594496099930e+01 5.8839601327409508e+00 1.1944730949342958e+01 -2 0 -4
1309 1 3.6840723364131751e+00 -3.8365382944089061e+00 1.0309720187802808e+01 0 1 -1
1571 2 9.6019314563206777e+00 7.1855501644606754e+00 1.2405744786156996e+01 0 0 -1
424 1 3.5230536752253294e+00 3.5137842478223735e+00 1.0944985577572814e+01 -2 0 2
517 1 3.5606141508313192e+00 6.9149102558520923e+00 3.3671656830213768e+00 -3 0 -2
510 2 4.3674972165879389e-01 3.0769214345347642e+00 1.7056762163609591e+01 -1 0 -2
41 2 6.9601440686632259e+00 6.4622832137331976e+00 9.6015582737680347e+00 -4 0 3
728 2 1.1524898849883588e+01 -9.0520631876693702e-01 1.0539751157140891e+01 0 0 3
462 2 1.0175209350561003e+00 4.9291803679486641e+00 2.9307479372761880e+00 -4 0 1
1435 1 1.5014705550883688e+01 -3.3782474929260351e+00 1.2802496697878805e+00 0 1 0
748 1 -1.7261031214021965e+00 7.6366890720444314e+00 1.3805425953511341e+01 -4 0 1
150 2 2.4502813110413566e+00 -2.4849192106447053e+00 1.0253780410141566e+01 -3 0 1
187 1 8.8019902366561897e+00 1.3068126706567380e+00 1.5589200140157262e+01 -6 0 -5
245 2 1.2377387359699242e+01 4.8157725562221767e+00 1.2529530465403170e+01 -2 0 -4
116 2 1.2796056206156928e+01 -2.1573818532890829e+00 1.4634514629247617e+01 -5 0 -5
654 2 2.0596100816293461e+00 1.3043245572524524e+00 1.3136902333403857e+01 -3 0 0
1311 2 4.5687656675814274e+00 -3.6987114064704114e+00 1.0688023054097188e+01 0 1 -1
1373 2 5.5090615822963898e+00 -5.5500625923901135e+00 5.6007281874116446e+00 0 1 -1
458 2 -2.9554217796691189e+00 1.3238057251965172e+00 1.3865477831807416e+01 -3 0 -3
636 2 6.8166925609038120e+00 -2.6500678253863144e+00 5.6732597136350360e-01 0 0 -3
131 2 6.9839104280658946e+00 2.1485852440087863e+00 8.9920900348941988e+00 -1 0 -1
430 1 9.5319897008054397e+00 -4.8365306685791634e+00 7.6518770564982548e+00 -2 0 5
1124 2 4.1777393858322487e+00 -4.4372867928740778e+00 1.9070426713483982e+01 -2 0 -2
117 2 -4.8137983043564416e+00 -2.3538382213682687e+00 1.6119743225050705e+01 -4 0 -5
712 1 1.4860496935558201e+00 -5.2779892954968073e+00 3.2875086932950532e+00 1 0 3
1858 1 1.0288981461469227e+01 2.8894550076588370e+00 1.0879970077941563e+01 -2 1 0
1436 2 1.5528287839853775e+01 -4.1108026565815994e+00 9.4140389078556630e-01 0 1 0
1991 2 5.0025740533239409e+00 -1.3902465712179009e+00 1.2046887943616415e+01 0 1 1
1119 2 2.2750861248226188e+00 -2.3452174450033807e+00 1.5508343511674163e+01 0 1 -1
91 1 -2.6824832868341630e-01 5.1653000926427151e-01 1.5695968264698186e+01 2 0 2
148 1 1.8205135853011654e+00 -1.8696222999670589e+00 9.8283479316389908e+00 -3 0 1
566 2 3.4314952492748310e+00 4.4537657370865613e+00 2.3096009475311541e+00 0 0 2
409 1 -1.8661211188730595e+00 8.0173980990972193e+00 1.0126331392821854e+01 -1 0 -2
1938 2 7.4837816777487252e+00 7.9950965518936989e-02 1.5800706567734855e+01 0 1 0
1572 2 8.6363085068287440e+00 6.0522227281114116e+00 1.2686840051501406e+01 0 0 -1
289 1 1.5319985444599569e+01 -4.1499511179445516e+00 4.9452271088839668e+00 -1 0 3
1438 1 -9.2862530487857997e-01 -4.8896430258155341e+00 9.5675528312720708e+00 1 1 2
508 1 1.0916876220734375e+00 2.4210436124899228e+00 1.7291920267232584e+01 -1 0 -2
1462 1 3.6014366689953676e+00 -3.8250442412509011e+00 1.7864915572446343e+00 0 1 0
1995 2 2.6245278168628694e-01 4.4440746318888422e+00 1.5487580244024494e+01 1 1 0
933 2 1.3138492964215125e+01 1.7114480996378738e+00 9.6883663468453136e+00 -1 0 -1
266 2 1.0771073228720571e+01 -1.6263738051389209e+00 1.5440267077366581e+01 -3 0 -3
1935 2 8.7265306228920068e+00 3.6305976560451594e+00 4.4703354553674037e+00 0 1 -1
705 2 -3.1503510477400893e+00 3.0145239284919345e+00 1.5219723787013544e+01 -3 0 -1
1443 2 3.2377366167639829e+00 -2.2538529361030526e+00 2.6129747356080775e+00 2 1 1
1437 2 1.4209897444657491e+01 -3.8465372396798747e+00 1.6210979635454639e+00 0 1 0
216 2 2.3093868598403651e+00 -2.8562268631855185e+00 1.3390653327089483e+01 -3 0 -5
40 1 6.6815301423297235e+00 5.5065929571521810e+00 9.5752837878358914e+00 -4 0 3
595 1 8.5645582104979461e+00 -7.5885345228629220e-01 1.3086969325914307e+01 2 0 -2
1588 1 1.2155535103893344e+01 6.6302656294230822e-01 1.6769339307119051e+00 -1 0 -1
487 1 8.7210088396276646e+00 2.0283692005081448e+00 1.8403666055383109e+01 -6 0 0
400 1 -5.1760681651922607e+00 7.0251823698934981e+00 1.6939629568416137e+01 1 0 0
596 2 8.9996383595783769e+00 -1.0194807191060429e+00 1.3929838803788572e+01 2 0 -2
957 2 -5.1960786976581890e+00 -2.0710347302221486e+00 1.8816758452978799e+01 -1 0 -3
784 1 1.2530156329201089e+01 5.2784782634313139e+00 8.7411159989932798e+00 -4 0 -2
1029 2 -1.0408152493613416e+00 1.7335798887310876e+00 8.7883369882630067e+00 2 0 -1