LAMMPS data file via write_data, version 15 Apr 2020, timestep = 6245000

6144 atoms
2 atom types

-3.9162056836503112e+00 6.3884494829866583e+01 xlo xhi
0.0000000000000000e+00 2.8152048567939691e+01 ylo yhi
0.0000000000000000e+00 2.7215753231799624e+01 zlo zhi
1.0161498259329406e+01 1.0185531771458315e+01 7.1241035476498560e+00 xy xz yz

Masses

1 16
2 2

Atoms # atomic

953 2 8.4975937459641990e+00 1.7829432758618196e+01 1.1032320294790612e+01 0 0 0
1630 1 5.7750549266557218e+00 1.5947399639846621e+01 1.0352718053028333e+01 0 0 0
703 1 1.2583780191811563e+01 2.3599824729118016e+01 2.4805654709865035e+01 0 1 -1
2977 1 1.2531326202846085e+00 5.6865666361572789e+00 1.3744689248258795e+00 0 1 0
849 2 1.6345875951127098e+01 3.1701123176752237e+01 2.5346872182762485e+01 0 0 -1
5153 2 1.5865800728970669e+01 2.9796547243399480e+01 2.6816592601273666e+01 1 -1 0
1647 2 3.0680635875551650e+00 1.0249698301052597e+01 2.8480120851738104e+00 0 0 0
874 1 1.2429378094624337e+01 2.5969158128719108e+01 1.7453095465759333e+01 0 0 -1
1883 2 9.4692785303737566e+00 2.0054721906880683e+01 1.2130794413427958e+01 0 0 0
3639 2 7.8637457062568750e+00 1.1866549115025995e+01 2.6165685361736855e+01 1 0 -1
1014 2 8.5156698612523520e+00 1.4705438607077966e+01 1.4915770087939215e+01 0 0 0
1676 2 5.9447433408903532e+00 9.1473102749514794e+00 1.8298158925333990e+01 0 0 0
2457 2 1.1666469865478144e+01 3.0899666252088394e+01 1.0597250256207390e+01 0 0 1
219 2 1.5298148018608217e+01 3.1019782431850761e+01 1.5999587631157258e+01 0 -2 0
241 1 4.2442171756819445e+00 1.1110273072276161e+01 1.9338238311305578e+00 0 0 0
2681 2 1.0269039243055415e+01 2.9091882660595211e+01 3.6055019110209874e+00 0 -1 1
1646 2 3.0757162156347118e+00 8.7410988228868653e+00 3.2208410333806361e+00 0 0 0
384 2 9.5677352383673888e+00 2.2328128521697469e+01 3.2422833369715152e+00 0 0 0
1124 2 1.8623437760328962e+01 3.3255297498568282e+01 2.6953584046991296e+01 0 0 0
753 2 7.4568993605191416e+00 1.3221903412992665e+01 1.8055434310798596e+01 0 0 0
773 2 6.1144272940411106e+00 5.9376262846693155e+00 1.7712673029707680e+01 0 1 0
5971 1 1.1083886032496984e+01 1.4990192959904208e+01 2.4202349569824062e+01 1 1 -1
4431 2 1.1326152824973125e+01 2.0520648478752669e+01 2.5693482426137425e+01 1 0 -1
4416 2 1.2345433336678823e+01 2.5400433620612326e+01 1.3823688716359534e+01 1 0 0
1998 2 5.1686826478019707e+00 1.3363314631489519e+01 7.9787299795209830e+00 0 0 0
3694 1 1.6413628076710438e+00 8.9118495481364537e+00 6.9807995261670008e+00 1 0 0
2363 2 7.1074027115315097e+00 1.9192661474669588e+01 1.4037725516444274e+01 0 0 0
2316 2 1.2123379686178410e+01 1.8309744700625163e+01 2.2272790301549183e+01 0 0 1
5204 2 6.8039174174584254e+00 1.1899274911439393e+01 1.4471504580719531e+01 1 0 0
3664 1 7.3411548877520829e+00 1.9860931053121110e+01 9.8907554586784485e-01 1 -1 0
5039 2 1.1457422613938540e+01 1.6211190383726652e+01 2.5302572327606295e+01 1 0 0
3742 1 7.7729478201746538e+00 1.6508397495748174e+01 1.5247366996446125e+01 1 0 0
633 2 9.9808066793375474e+00 2.1899665008402941e+01 1.5985888025801508e+01 0 0 0
242 2 4.9107051168065787e+00 1.1595776389110918e+01 2.4963966928482964e+00 0 0 0
2680 1 9.4218179733054512e+00 2.8698358438841890e+01 4.0204797731513073e+00 0 -1 1
820 1 5.3401001589069210e+00 7.8053575018169354e+00 1.7292346409811344e+01 0 0 0
2260 1 1.5248418872733232e+01 2.6223049444924815e+01 2.6735097823592039e+01 0 -1 1
680 2 1.0287390951073718e+01 1.8251283676649166e+01 1.9868433888162155e+01 0 0 -1
4429 1 1.2043042539043601e+01 2.0883325007359268e+01 2.6217862085953811e+01 1 0 -1
629 2 5.5535471244376868e+00 1.1079906912822667e+01 1.1694540788437569e+01 0 0 0
1617 2 1.3820772988094845e+01 2.2131671678912433e+01 2.1325940274280075e+01 0 -1 0
5031 2 8.5175716999338320e+00 1.2797814289857968e+01 1.3694335147852806e+01 1 0 0
1760 2 1.1535368883053785e+01 2.4863174176390924e+01 1.1968979971772198e+01 0 0 0
5973 2 1.1142634423378874e+01 1.4153700625240909e+01 2.4727693193924438e+01 1 1 -1
2985 2 1.3977239599835173e+01 2.9631886622710411e+01 1.9507187835416016e+01 0 1 0
1909 1 1.0287859182259094e+01 2.4253323021137714e+01 6.1549325344120964e+00 0 0 0
2314 1 1.1546935054377288e+01 1.9074849323171982e+01 2.2411231688249046e+01 0 0 1
1996 1 5.0297639217566861e+00 1.2416355683919983e+01 8.0175357641669436e+00 0 0 0
5176 1 6.9146543345636520e+00 2.6987698339964869e+01 4.8732881655700921e-01 1 -1 1
1664 2 1.2631587251431853e+01 2.4103318174209143e+01 1.7920748739714522e+01 0 0 0
2414 2 4.0935057373339081e+00 9.9301656937950256e+00 9.1442089423546822e+00 0 0 1
1708 1 1.0987664131841182e+01 1.2684540042036815e+01 2.5367156833507799e+01 0 0 0
218 2 1.6084495142229251e+01 3.2351636384586371e+01 1.6289794107799633e+01 0 -2 0
1910 2 9.7184669689936118e+00 2.3469187426578983e+01 6.1966284637066646e+00 0 0 0
1639 1 8.3678339960457482e+00 1.0411447632144142e+01 2.2581276674060273e+01 0 0 0
439 1 1.4765946736276277e+01 2.9493426810387476e+01 1.6594352913959227e+01 0 0 -1
4414 1 1.2788525493168091e+01 2.4822734187946576e+01 1.3130917760518830e+01 1 0 0
2450 2 1.6141419159077479e+00 5.0801379801781010e+00 5.3384029925752960e+00 0 1 1
890 2 1.4642283629507233e+01 3.2869731005592371e+01 1.8462134117478278e+01 0 0 -2
1369 1 1.0133482799793285e+01 1.4936039873718851e+01 1.8813815851749755e+01 0 1 -1
1718 2 5.1779071097664300e+00 1.5446007691196403e+01 8.9740501003598698e+00 0 0 0
2219 2 9.8697562060769108e+00 2.6125623514225666e+01 8.7679659281325115e+00 0 0 1
103 1 3.3163504204535990e+00 5.2387541892093328e+00 1.4746522891574372e+01 0 0 0
1619 2 5.4060649266482148e+00 1.5791627157244722e+01 2.6083841222555475e+00 0 0 1
5277 2 9.5784947022839404e+00 1.9450733084464517e+01 1.6442750376815624e+01 1 0 0
774 2 1.7011553933285281e+01 3.2889590230003684e+01 1.8403560701671466e+01 0 0 0
1098 2 7.7744860082711753e+00 2.3514718067080409e+01 3.4214784373659173e+00 0 0 0
798 2 3.9284852656025215e-03 4.6046740119037297e+00 2.6006586221241643e+00 0 1 0
610 1 8.1540008810537312e+00 8.1604176946817031e+00 2.4840941697456742e+01 0 1 -1
1618 1 5.6042042180276592e+00 1.6190504363746367e+01 3.4560069099407063e+00 0 0 1
5972 2 1.1583184068680200e+01 1.4788590637045944e+01 2.3364075657559681e+01 1 1 -1
2682 2 8.7762023065764865e+00 2.8906165957469241e+01 3.2985038957415651e+00 0 -1 1
1649 2 1.1927675521928961e+01 2.0821790204054089e+01 2.2872177958277856e+01 0 0 0
611 2 8.0747778946016595e+00 8.9579545888278318e+00 2.4252253367277437e+01 0 1 -1
1717 1 4.8430925989618228e+00 1.5041044332166098e+01 8.1151036417393723e+00 0 0 0
370 1 1.1943874493847328e+00 8.2634425076098061e+00 1.0187322889173374e+00 0 0 1
2192 2 8.9321460942563053e+00 2.4098811913711181e+01 9.2513724361143552e+00 0 0 1
104 2 3.9584037435830215e+00 4.5796536003308006e+00 1.5037899329672948e+01 0 0 0
56 2 1.5929594784415634e+01 3.4155827225803620e+01 2.5109473875816551e+01 0 -1 -1
5040 2 1.1476231865816338e+01 1.6335584140497886e+01 2.6755332190293604e+01 1 0 0
2144 2 1.3309734446546077e+01 1.7077439538079751e+01 2.5482037674470273e+01 0 0 0
630 2 5.3828059074564294e+00 1.2638964782884958e+01 1.1544615324971168e+01 0 0 0
3493 1 -2.1797024262255453e+00 6.5014789935576456e-01 1.8598481666858411e+00 1 0 0
257 2 6.5964475619654444e+00 8.4135421868129345e+00 1.2298203176312416e+01 0 1 1
236 2 5.5047720890397276e+00 1.8682886425111807e+01 6.9247251007394333e+00 0 -1 0
1640 2 7.9192254301981180e+00 9.7440042143822190e+00 2.2023467723646203e+01 0 0 0
843 2 3.4550601964837284e+00 6.8538884929045416e+00 1.1459475710930324e+01 0 0 0
476 2 1.0313045254841580e+01 2.2575662064489705e+01 8.8892630256971810e+00 0 0 1
796 1 -3.1511149728360177e-01 3.7578605714500317e+00 3.0314751433995255e+00 0 1 0
825 2 9.8599389135278201e+00 2.5710627917662858e+01 4.7448837279316987e+00 0 0 0
1655 2 -2.9045855445491409e-01 4.2103233828634714e+00 4.5388211613774407e+00 0 1 2
1007 2 8.0322601339343223e+00 1.9966092654464422e+01 5.0805226265886478e+00 0 1 0
2191 1 9.1299305448557799e+00 2.3219378117615999e+01 9.8288912690243233e+00 0 0 1
2386 1 9.3066437485376916e+00 8.9767301499176249e+00 2.7141997604072635e+01 0 1 -1
5029 1 8.1837202170517713e+00 1.1893398539566158e+01 1.3384349182164000e+01 1 0 0
1123 1 1.9426976803142768e+01 3.2665276176707728e+01 2.6908304375840391e+01 0 0 0
823 1 9.5047282130607194e+00 2.6016277163386629e+01 3.8885041165951257e+00 0 0 0
5152 1 1.6461823034003245e+01 3.0056346259805061e+01 2.6054517030057610e+01 1 -1 0
876 2 1.3297308974199908e+01 2.6198215235259351e+01 1.7815886260458697e+01 0 0 -1
1719 2 5.3307512334797753e+00 1.5450582926719139e+01 7.3634166008539861e+00 0 0 0
1788 2 9.6818792089635846e+00 1.6917051275191206e+01 1.5848466987513342e+01 0 0 1
2315 2 1.0899820233738222e+01 1.8940447282820742e+01 2.1747204157274563e+01 0 0 1
2141 2 1.1285050169823556e+01 2.7982890462108472e+01 8.7230178617205372e+00 0 0 0
2790 2 1.6406370213029504e+01 2.8627096414487600e+01 2.4999874254332067e+01 0 0 0
235 1 6.1435404961436220e+00 1.8925099447705026e+01 7.5879771587179086e+00 0 -1 0
1645 1 2.4708160532659917e+00 9.4788391810235701e+00 3.1725529592079114e+00 0 0 0
5030 2 7.4496501486974580e+00 1.2183693672203773e+01 1.2795684687621218e+01 1 0 0
5154 2 1.7376519355305334e+01 3.0004380569733009e+01 2.6445118606245451e+01 1 -1 0
383 2 8.4347593794561959e+00 2.1186614879300418e+01 3.2635274109335395e+00 0 0 0
5038 1 1.1714853348642860e+01 1.6881128870648844e+01 2.5974580772253379e+01 1 0 0
5208 2 1.1816938903579072e+01 2.2858147144412772e+01 1.9661959414731367e+01 1 0 0
902 2 5.4726357794618430e-02 2.9868331166349251e+00 5.9583223423861105e+00 0 0 0
3665 2 8.0742504009590039e+00 1.9847190916044354e+01 3.6437875561702171e-01 1 -1 0
5206 1 1.1237479299210296e+01 2.2814616993132731e+01 2.0487138242481777e+01 1 0 0
2142 2 1.1342642464308037e+01 2.6820404611050620e+01 9.7662078134250887e+00 0 0 0
2218 1 9.2783354235870554e+00 2.5431693554884664e+01 8.3576163332406690e+00 0 0 1
3494 2 7.6102720994209001e+00 2.8050368471623663e+01 1.3776935770138972e+00 1 -1 0
382 1 8.6242985722573486e+00 2.2096373327520165e+01 2.8981793328487733e+00 0 0 0
1112 2 3.7662108596591555e+00 1.4417100249802886e+01 1.5676522893443114e+00 0 0 1
631 1 1.0765277535375098e+01 2.2475390464536346e+01 1.6146986521384477e+01 0 0 0
842 2 2.3177471455727030e+00 7.9356231030022091e+00 1.1844376144653136e+01 0 0 0
217 1 1.5630334469360488e+01 3.1882608202035279e+01 1.5606041914555409e+01 0 -2 0
1727 2 5.6023877129582331e+00 1.2871608242612625e+01 4.2654672831111649e+00 0 0 0
2979 2 1.0825497644725770e+00 5.4499839479554844e+00 4.7111301551337853e-01 0 1 0
995 2 3.6433524684565111e+00 5.5760561038149650e+00 8.2022476004244975e+00 0 1 0
1786 1 1.0345711109254204e+01 1.7512977884010223e+01 1.6259735246546686e+01 0 0 1
2455 1 2.1687437180416405e+00 3.4253881830748591e+00 1.0546015718458635e+01 0 1 1
1006 1 7.5496408112423392e+00 1.9996110869054409e+01 4.2479225003080163e+00 0 1 0
130 1 7.0730413520927655e+00 8.5078392409866552e+00 2.1331326211554455e+01 0 0 -1
628 1 6.0249349547957607e+00 1.1889104874569917e+01 1.1714978227467565e+01 0 0 0
847 1 1.6397156951173361e+01 3.2454864690050641e+01 2.4765905923754850e+01 0 0 -1
1370 2 1.0483590156720233e+01 1.5858105517023525e+01 1.8855135233651740e+01 0 1 -1
2140 1 1.0859378640882795e+01 2.7591718715684294e+01 9.5209425730883765e+00 0 0 0
681 2 9.5753673117545812e+00 1.9646278253193209e+01 2.0081494488826380e+01 0 0 -1
520 1 8.8633613083230820e+00 2.1754829633035218e+01 6.1715486362855136e+00 0 -1 1
2978 2 1.0532892111773275e+00 6.6324117791104831e+00 1.3383801096954151e+00 0 1 0
263 2 1.0885593485091654e+01 1.7376869767513895e+01 1.7769132543314544e+01 0 1 -1
2413 1 3.3750954115595402e+00 1.0563638803503734e+01 9.1793892540240893e+00 0 0 1
131 2 6.6639802114137172e+00 8.8238968655879457e+00 2.0496415101072294e+01 0 0 -1
372 2 1.6569962387757649e+00 8.7730905211115822e+00 1.6800595889963867e+00 0 0 1
1880 2 7.8928979515438336e-01 2.3036948859942346e+00 2.7461019115592307e+00 0 0 1
848 2 1.7067766800988341e+01 3.2192025070425757e+01 2.4121671095058936e+01 0 0 -1
2494 1 7.3581686209720552e+00 1.1486771502145290e+01 1.7463369995781427e+01 0 1 1
952 1 8.3874812802326097e+00 1.8805589848187502e+01 1.1189067467815502e+01 0 0 0
134 2 1.4018496636788662e+01 2.6075042674951458e+01 2.1175724694769450e+01 0 -1 0
752 2 8.5883125211573894e+00 1.4241553230932958e+01 1.8436727584539330e+01 0 0 0
51 2 2.4436734741113399e+00 7.5781825965770775e+00 7.9919535924858387e+00 0 0 0
232 1 5.3774996748651276e+00 7.1019399280286386e+00 1.4646823804148511e+01 0 0 0
521 2 7.9671306788926337e+00 2.1691948590012995e+01 6.5276186811847703e+00 0 -1 1
2220 2 9.8480152824893477e+00 2.5150806097766058e+01 7.6381703208349840e+00 0 0 1
1709 2 1.0239748656585359e+01 1.2248781581005716e+01 2.5762397694971092e+01 0 0 0
2984 2 1.4550595947782433e+01 2.8250207062144021e+01 1.9046758352666725e+01 0 1 0
2495 2 8.1925717515169225e+00 1.0973299245759112e+01 1.7386284437648314e+01 0 1 1
440 2 1.5089741554912507e+01 2.9518252298036206e+01 1.7485618782929691e+01 0 0 -1
679 1 9.7752029458515288e+00 1.8801746131849534e+01 2.0514731168712601e+01 0 0 -1
1012 1 9.2270627244644174e+00 1.4066305695633400e+01 1.4606384206673585e+01 0 0 0
612 2 7.2538471119629193e+00 7.8192275340485997e+00 2.4900052030021467e+01 0 1 -1
2508 2 5.6565531770302044e+00 1.5005472678064383e+01 4.7595077141874880e+00 0 0 1
2456 2 2.7445844200926324e+00 2.9877396553047113e+00 9.9016143020497616e+00 0 1 1
1008 2 7.5888231997406237e+00 1.9091571246559010e+01 3.8266440197001130e+00 0 1 0
102 2 1.1142719103723810e+01 2.9183091216560619e+01 6.8364671836142623e+00 0 -1 0
954 2 7.4923212597849176e+00 1.9020677132599278e+01 1.0908751956221185e+01 0 0 0
3666 2 6.4776874448733164e+00 1.9556886619909559e+01 5.6065859441124166e-01 1 -1 0
522 2 9.4814893054322482e+00 2.1566097450200530e+01 6.9339558593846258e+00 0 -1 1
18 2 1.0727623622991466e+01 1.8312692043931666e+01 2.5322545071587037e+01 0 0 0
824 2 9.4230509436922087e+00 2.7008594717344938e+01 3.9583047976107406e+00 0 0 0
772 1 6.1526685912022305e+00 4.9653507357609987e+00 1.7838750383185374e+01 0 1 0
1111 1 4.5401269635934867e+00 1.4945584618976371e+01 1.3717049385737439e+00 0 0 1
237 2 7.0291647013209371e+00 1.8744541613808458e+01 7.1362893765770803e+00 0 -1 0
4430 2 1.2820420203175274e+01 2.0745249672679535e+01 2.5630894446785437e+01 1 0 -1
1663 1 1.2476535585994512e+01 2.3134637580508688e+01 1.8061028524957905e+01 0 0 0
1086 2 3.0802070633642398e+00 1.1530268395138519e+01 5.3927828269149654e+00 0 0 0
1620 2 6.4207685576015621e+00 1.6651231071193855e+01 3.1723904958294198e+00 0 0 1
1884 2 9.4152532117183938e+00 2.1343292363389722e+01 1.2915018764870826e+01 0 0 0
1665 2 1.1719236588728252e+01 2.2949518005329480e+01 1.7440717201494152e+01 0 0 0
1602 2 4.2611070795782631e+00 9.0796189875681002e+00 1.1850919856835825e+01 0 0 1
2193 2 8.2916655664250385e+00 2.2819714259370201e+01 1.0053299778376484e+01 0 0 1
2506 1 5.3946135018004160e+00 1.4401079513189234e+01 5.5476227634058430e+00 0 0 1
2388 2 9.0493268333838728e+00 9.9493379217132194e+00 2.7115438636903942e+01 0 1 -1
16 1 1.0361929366883881e+01 1.9135908744820416e+01 2.4921794139243026e+01 0 0 0
2415 2 3.7976624601084543e+00 1.1454696065467022e+01 8.9957895597452389e+00 0 0 1
1761 2 1.0361486392150939e+01 2.4167600644407809e+01 1.1104134492589015e+01 0 0 0
17 2 1.0708846520706631e+01 1.9133037847900820e+01 2.3954454968484654e+01 0 0 0
1759 1 1.0752182353816078e+01 2.5061082291604400e+01 1.1418032673100093e+01 0 0 0
1601 2 4.3198658868256903e+00 1.0082202615214996e+01 1.3123861472406421e+01 0 0 1
1600 1 4.8340301945404569e+00 9.6755229728370331e+00 1.2401261029896189e+01 0 0 1
1648 1 1.1701962909464818e+01 2.1738233695799025e+01 2.2999237022100360e+01 0 0 0
2496 2 6.7488291237031000e+00 1.1045896443839347e+01 1.8103041399930859e+01 0 1 1
5150 2 1.1954588206222162e+01 2.7184390759020218e+01 1.4530057419067900e+01 1 -1 0
1650 2 1.1707010025256295e+01 2.2118230490131662e+01 2.2061849928238029e+01 0 0 0
49 1 2.5970297525080177e+00 6.9806504932121172e+00 8.8145319479074828e+00 0 0 0
50 2 2.8217207069832462e+00 7.4145180601910710e+00 9.6781551628536402e+00 0 0 0
2444 2 2.3954035127190672e+00 1.3318346836324865e+01 3.9930341722154000e-01 0 1 0
243 2 3.6815180344588123e+00 1.1843041782794053e+01 1.5824166532063926e+00 0 0 0
1631 2 6.7255498224685049e+00 1.5943823627480052e+01 1.0586794334746410e+01 0 0 0
5275 1 8.9482555697584552e+00 2.0123716326826440e+01 1.6750693333398289e+01 1 0 0
5203 1 6.1697756774740355e+00 1.2022343492371451e+01 1.5172830638015206e+01 1 0 0
1113 2 4.4105438693061458e+00 1.5428719397794596e+01 5.7136982707210771e-01 0 0 1
4480 1 1.4708623439827612e+01 2.3532157968307359e+01 2.6425069509009422e+01 1 0 -1
132 2 7.3364911505719270e+00 7.5795347511124964e+00 2.1082978778619317e+01 0 0 -1
901 1 6.6554255382173189e-02 2.0339788628101170e+00 6.1437073387498744e+00 0 0 0
2261 2 1.4922868825616682e+01 2.5246807870141311e+01 2.6775681633290375e+01 0 -1 1
1096 1 7.2801408481247414e+00 2.4368629088318226e+01 3.6784181880591902e+00 0 0 0
841 1 3.1125161336973672e+00 7.7551067010244248e+00 1.1298448746621371e+01 0 0 0
4481 2 1.5630476791477328e+01 2.3376737656732633e+01 2.6089947887970954e+01 1 0 -1
2595 2 5.3480830101259755e+00 8.2319259500817914e+00 2.2199390401408468e+01 0 1 0
751 1 7.6363564048620134e+00 1.4024607708951180e+01 1.8582544643508157e+01 0 0 0
2983 1 1.4856351333209798e+01 2.9160927195219212e+01 1.9265874530895630e+01 0 1 0
3743 2 7.5688838536432037e+00 1.7195645828635527e+01 1.4593342833221969e+01 1 0 0
2387 2 8.9711452269161960e+00 8.6580550251208184e+00 2.6271047924265417e+01 0 1 -1
2364 2 7.6547437425377645e+00 1.8650981630389676e+01 1.2666965381466174e+01 0 0 0
1513 1 1.2908963841545940e+01 2.7229987954946161e+01 2.1556386705426583e+01 0 0 -1
3495 2 -1.6012441439121106e+00 1.1482661979181306e+00 1.2145455959087506e+00 1 0 0
105 2 2.6704604273457324e+00 4.7678951611536595e+00 1.4202802505782646e+01 0 0 0
3617 2 1.6682141504805053e+00 3.8076308632975300e+00 1.2296411586544169e+01 1 0 0
4482 2 1.4022066345200130e+01 2.3557218256659610e+01 2.5675951289978887e+01 1 0 -1
351 2 1.2824188545742160e+01 2.8757207351828519e+01 1.3641380063747258e+01 0 -1 0
2507 2 6.2926383936659072e+00 1.4334213714353627e+01 5.9794020389725997e+00 0 0 1
55 1 5.8740380919046427e+00 6.9626754460748161e+00 2.5268219822058647e+01 0 0 -1
903 2 -4.9407490495470086e-01 1.6886921219329794e+00 5.4547305335492453e+00 0 0 0
845 2 3.5612062298523330e+00 1.4761548551024948e+01 5.8470294484907139e+00 0 0 0
3616 1 1.3818196688758713e+00 3.8466382980461842e+00 1.3227046943639134e+01 1 0 0
5205 2 6.5854440484548995e+00 1.1665515053436330e+01 1.5998793847412569e+01 1 0 0
233 2 5.0552095682438694e+00 7.8939567366825383e+00 1.4187433503369393e+01 0 0 0
875 2 1.1828615854584662e+01 2.6379094374718576e+01 1.8084149361891836e+01 0 0 -1
377 2 6.1064751782401743e+00 2.0564471643571959e+01 3.0582989932936169e+00 0 -1 1
1084 1 3.7771978766798133e+00 1.1095991945544210e+01 5.9131015659146886e+00 0 0 0
797 2 -1.2042004976443881e+00 3.5434048713591406e+00 2.6232891060983170e+00 0 1 0
1085 2 4.1827722932708582e+00 1.1732406343019255e+01 6.5751927102522494e+00 0 0 0
4406 2 4.0145852859456532e+00 1.7109462258323504e+01 3.3797156974919962e+00 1 0 0
1654 1 -9.2085551691607037e-02 4.5358895024504919e+00 5.4577380444373107e+00 0 1 2
632 2 1.0397760144995580e+01 2.3352787141227342e+01 1.5988824144132710e+01 0 0 0
1641 2 7.6953661144761440e+00 1.1125198837851759e+01 2.2606179071090406e+01 0 0 0
5178 2 1.6748601280504367e+01 3.4416773671105808e+01 2.6856719333496734e+01 1 -1 0
5151 2 1.2049619335598782e+01 2.6374042216272819e+01 1.5818198958994390e+01 1 -1 0
349 1 1.1909399678950223e+01 2.8956780266907906e+01 1.3945098821151394e+01 0 -1 0
2027 2 1.2073799744584957e+01 3.1122756945820019e+01 1.6552808178966746e+01 0 0 0
2443 1 2.6526224778898939e+00 1.2953770782222744e+01 1.3152614323107832e+00 0 1 0
704 2 1.2362779096539519e+01 2.2957482817177379e+01 2.4043921008576259e+01 0 1 -1
4511 2 -4.8624245542689915e-01 3.0630683527262899e+00 8.0799507336447309e+00 1 1 0
3029 2 1.0576633622184417e+00 6.0330982642954982e+00 9.1306001630570020e+00 0 1 1
776 2 1.0339960096051831e+01 2.9121943721429727e+01 1.0190448956397640e+01 0 -1 0
821 2 5.4413873795353052e+00 7.6197809869563233e+00 1.6369670121578796e+01 0 0 0
775 1 1.0025799684662406e+01 2.9890885765739597e+01 1.0693342260086025e+01 0 -1 0
3637 1 8.6447172314553651e+00 1.1645831375877767e+01 2.6693040900752074e+01 1 0 -1
376 1 5.1903091825199006e+00 2.0651725940922770e+01 2.7068954706578481e+00 0 -1 1
2262 2 1.4417400631207244e+01 2.6672197443895552e+01 2.6491989682466702e+01 0 -1 1
5149 1 1.1621722969681429e+01 2.6309167455313005e+01 1.4924119534243689e+01 1 -1 0
2672 2 9.5277343882229193e+00 1.5276042997297790e+01 2.3570809707585429e+01 0 1 -1
378 2 5.0065901966885242e+00 1.9760302803834112e+01 2.4183687718827040e+00 0 -1 1
2445 2 1.8256122119950842e+00 1.2622907832128568e+01 1.6459867135742265e+00 0 1 0
1568 2 9.5084969595346358e+00 2.5899792049043761e+01 1.1957655443670998e+01 0 1 0
1675 1 6.0701778802499646e+00 9.7520651263504341e+00 1.9040558925847968e+01 0 0 0
6017 2 1.0069882204568660e+01 2.5419213015531717e+01 1.5458694942302531e+01 1 0 0
2362 1 7.1090781193752992e+00 1.8438151041332780e+01 1.3436728587629473e+01 0 0 0
2585 2 5.9615365478363476e+00 2.0536212024901801e+01 7.3221203217592272e+00 0 0 1
5276 2 8.2903310334651188e+00 2.0319668149934355e+01 1.5994143956578510e+01 1 0 0
3695 2 2.3163136781704354e+00 9.6230229766042026e+00 7.0658982349145694e+00 1 0 0
1632 2 5.5437740294369355e+00 1.6868783361016654e+01 1.0505984617967531e+01 0 0 0
4509 2 5.6389750682977660e+00 1.9100285804686301e+01 9.4988942370285407e+00 1 0 0
2026 1 1.2275756360906236e+01 3.0271527692430983e+01 1.6219201099229529e+01 0 0 0
4269 2 1.1861310383777441e+00 9.2401022542204263e+00 4.0603538252356186e+00 1 1 0
1097 2 8.0048707174938141e+00 2.5049526795893325e+01 3.7562825632216574e+00 0 0 0
3744 2 7.4263723443634824e+00 1.6853200133631965e+01 1.6089558049653792e+01 1 0 0
705 2 1.2379143740017817e+01 2.4526055452383989e+01 2.4470133247562579e+01 0 1 -1
350 2 1.1962145369644773e+01 2.9534876869536639e+01 1.4753923888882799e+01 0 -1 0
234 2 4.7789071491863364e+00 6.3679676103702061e+00 1.4499037230213117e+01 0 0 0
2584 1 6.0846577276415665e+00 2.1492023682977852e+01 7.4660353552620116e+00 0 0 1
3638 2 -1.8366585339824173e+00 4.8144533797132292e+00 3.6654327356600330e-01 1 0 0
5207 2 1.0465927245557818e+01 2.2290125784568076e+01 2.0097000779976234e+01 1 0 0
2289 2 1.1838749788955877e+01 2.7276739236636747e+01 2.0118627839191824e+01 0 0 0
731 2 1.2809307253857288e+01 2.6884078003072773e+01 2.4505097421892394e+01 0 0 0
193 1 1.3382497274259112e+01 2.9764817099479625e+01 2.2636176860358177e+01 0 -1 -1
4607 2 1.0343990177474591e+01 2.8790229386348855e+01 1.3373111950030335e+01 1 0 0
5177 2 6.2919887988025032e+00 2.6343778500365641e+01 9.6812418052871085e-01 1 -1 1
3734 2 5.4091764328319929e+00 1.3479363709230707e+01 1.5421238065588147e+01 1 0 0
371 2 2.2405807536041955e-01 8.5020310860647168e+00 9.9267734867671531e-01 0 0 1
356 2 4.8343388211375711e+00 2.2065240124692870e+01 1.5075403065028250e+00 0 0 0
2671 1 8.6428511455452899e+00 1.5501779852664423e+01 2.3231692780120252e+01 0 1 -1
1626 2 1.2055518291812625e+01 6.2830252191244114e+00 5.8158476191191024e+00 0 1 0
1515 2 1.3203195781152381e+01 2.8135995996555838e+01 2.1705282235340857e+01 0 0 -1
1677 2 5.2187476556852666e+00 9.6948137930670484e+00 1.9468702673612853e+01 0 0 0
1861 1 2.3205381790004012e+01 3.3547378991213506e+01 2.5986898897594578e+01 0 -1 -1
264 2 1.2178441228091621e+01 1.7214491321582809e+01 1.8576557893838292e+01 0 1 -1
1077 2 9.3966211548207585e+00 1.8393694555339010e+01 6.0729635667640043e+00 0 0 0
2912 2 1.1791158882477408e+01 2.2842723646010800e+01 3.1864024358454981e+00 0 0 0
334 1 1.0571969196772159e+01 6.8426660077126487e+00 2.1150932311501858e+01 0 1 0
1571 2 1.7605378230491695e+01 2.4730108640695541e+01 1.8826473087685272e+01 0 -1 1
3010 1 1.6381409983008730e+01 2.2563957915602657e+01 2.2769685546115408e+01 0 0 0
4 1 1.4345920596259901e+01 1.9767301197462920e+01 2.5089427838455904e+01 0 -1 -1
852 2 1.6717977655791849e+01 1.7338765459154612e+01 2.7115599928644311e+01 0 1 -1
196 1 3.3754721022931502e+00 2.2253033738135559e+00 8.4734816067007426e+00 0 0 0
46 1 1.0734899175374844e+01 1.9399238982740215e+01 9.0877703318541538e+00 0 0 0
3054 2 1.5227639157926394e+01 2.6968162905161886e+01 1.1587372993747525e+01 0 0 1
3012 2 1.7002648607974599e+01 2.3237587519690983e+01 2.2534095006995909e+01 0 0 0
2425 1 1.7219776155154062e+01 2.5701420377640513e+01 1.7567160749419649e+01 0 -1 0
1236 2 1.6823694803414401e+01 2.8509422986987438e+01 1.4397927113268462e+01 0 0 0
1059 2 4.3657577815311548e+00 8.0636591479313555e+00 5.3982802383834914e+00 0 1 0
47 2 1.1172124757265243e+01 2.0256253546603570e+01 8.8885812343735520e+00 0 0 0
834 2 9.8539186275761637e+00 1.5174745036245669e+01 1.3492465797293725e+01 0 0 0
340 1 1.9432013437889800e+01 2.4195187037015664e+01 2.5538210298380971e+01 0 0 -1
1907 2 3.3274838510357689e+00 3.2356331701920324e+00 4.0474056778415255e+00 0 1 1
291 2 1.2809732697219502e+01 2.1838766260390273e+01 1.3635897759974075e+01 0 -1 -1
1787 2 1.1091598151822803e+01 1.7608623464205586e+01 1.5584505464955779e+01 0 0 1
2374 1 7.5596027845228200e+00 1.4285565315583387e+01 7.1128998683729030e+00 0 1 1
1755 2 1.0483765913106808e+01 2.5950693954874477e+01 2.5404220514381439e+00 0 -1 0
221 2 5.4653094045384769e+00 7.8247178813225133e+00 8.9716371452360821e+00 0 0 -1
1773 2 1.9163572466571331e+01 2.5565646225291424e+01 2.4765679743578989e+01 0 0 -1
5923 1 1.2734191652498751e+01 2.1203024030907322e+01 1.2045486654561808e+01 1 0 0
1110 2 1.0207688115498346e+01 1.0592382829271939e+01 1.6796652000079405e+01 0 0 0
477 2 1.1865180296273648e+01 2.2430372647205463e+01 8.9185222597391540e+00 0 0 1
791 2 1.0594730542673972e+01 7.9998349741870722e+00 1.8471324815546353e+01 0 1 -1
1687 1 1.3966943693352640e+01 1.4895134664206157e+01 1.6575197081272268e+01 0 0 0
2268 2 9.1424428825788873e+00 1.5867894805589849e+01 1.1322154984089119e+01 0 0 1
324 2 1.6307287565010895e+01 2.8177308612745492e+01 5.8196754916862758e+00 0 0 0
22 1 3.8574318633840008e+00 7.2108061101853398e+00 3.7947128541187034e+00 0 1 0
3740 2 8.6127032233118044e+00 1.4395996927238826e+01 3.3156451387593062e+00 1 0 0
2532 2 1.9755922051146296e+01 3.0108510864412910e+01 2.1436106326226426e+01 0 0 0
2427 2 1.7280261875174713e+01 2.5388305898611261e+01 1.6650852408617943e+01 0 -1 0
21 2 1.3635061785852226e+01 2.7523406575153277e+01 7.0826318807386750e+00 0 -1 -1
1076 2 9.4545398888791965e+00 1.8577339237113005e+01 7.5975608775635681e+00 0 0 0
826 1 6.6021424577297694e+00 4.5459696643045948e+00 8.1180101072455866e+00 0 1 0
1615 1 1.4417861835903111e+01 2.2763856731893167e+01 2.0961785550260704e+01 0 -1 0
290 2 1.2314826333178928e+01 2.2221298054336597e+01 1.5127727074822342e+01 0 -1 -1
5798 2 4.6547026812358787e+00 3.4165040243051696e+00 2.0881150366487091e+00 1 1 0
998 2 1.1882108133712130e+01 8.1885337775759073e+00 2.4480538121755654e+01 0 1 -1
117 2 1.3577995126321838e+01 1.8067265733566746e+01 8.0689451492018840e+00 0 0 0
1148 2 1.6030441367897616e+01 2.5066199692203941e+01 1.2103778231731805e+01 0 0 0
2285 2 1.4259686068256791e+01 1.7192395744592460e+01 2.0998681924983003e+01 0 -1 1
2449 1 2.6382856270465629e+00 5.1501480243431335e+00 5.1052177622612431e+00 0 1 1
2549 2 1.1774839109371456e+01 1.0587984121300424e+01 1.3781386193520152e+01 0 1 0
1751 2 1.6578646151375484e+01 3.1484846925325954e+01 1.2928016597964508e+01 0 0 0
5803 1 1.5796327556649146e+01 2.8940328746549362e+01 8.8906909034070321e+00 1 0 0
2628 2 1.3988466415290468e+01 2.2421000184896045e+01 1.7349158802377111e+01 0 0 0
442 1 1.1715673679843453e+01 1.8734095602201009e+01 1.4218937992965543e+01 0 0 -1
2342 2 1.8255352743988347e+01 3.2940079888669068e+01 2.2477145476856894e+01 0 1 0
1758 2 9.8842095476097995e+00 1.0617510041926522e+01 2.1694686184811086e+01 0 0 0
1002 2 2.9990044456657747e+00 5.8517157151975239e+00 1.2997160677672406e+00 0 0 0
2282 2 1.6724039474753134e+01 2.2680145649374520e+01 2.4607237168125828e+01 0 -1 -1
1863 2 2.2599578687287504e+01 3.4141309848787273e+01 2.6446979769954737e+01 0 -1 -1
2604 2 1.8315764463682584e+01 2.8127854827545864e+01 1.8786179065546303e+01 0 1 1
467 2 1.6225349303850621e+01 1.9954594449984310e+01 2.4095188790624405e+01 0 0 -1
4501 1 9.6145798825845752e+00 1.5294062606726358e+01 4.7488748455804348e+00 1 0 0
2603 2 1.8689719271443071e+01 2.8472682055960682e+01 1.7308290087699689e+01 0 1 1
1843 1 1.3322889658473137e+01 1.7021048968168586e+01 2.2366468813721966e+01 0 0 0
231 2 4.4961464711922439e+00 4.5658981729984962e+00 1.1950926902432432e+01 0 0 0
3059 2 1.6753123967439080e+01 2.7341392179066229e+01 2.3180545292604808e+01 0 0 0
369 2 1.8804056763414128e+01 3.2297116150215608e+01 1.7994589172083966e+01 0 0 -1
1609 1 1.7712390727795764e+01 2.9672191374860692e+01 1.3567946008125883e+01 0 -1 0
5799 2 5.0146670724643023e+00 4.5830216315524925e+00 1.0195099306501545e+00 1 1 0
101 2 1.2364250786906574e+01 2.9301641540312829e+01 7.8190056590121770e+00 0 -1 0
1070 2 8.5972547322194686e+00 2.2578267422099398e+01 1.1120818853340180e+00 0 0 0
2500 1 8.1492286594348720e+00 6.1232045079083299e+00 2.1036362207740705e+01 0 1 0
441 2 1.5015148529469773e+01 2.8721922175242682e+01 1.6101227489613546e+01 0 0 -1
6047 2 1.3230831889100532e+01 2.3802077123598977e+01 9.9952491138744826e+00 1 0 1
1140 2 1.3635300343945865e+01 2.3650944106384959e+01 5.7247551654899311e+00 0 0 -1
1926 2 1.4749311751874469e+01 1.3101861550534220e+01 2.4553463011173012e+01 0 0 0
443 2 1.1000264329882819e+01 1.9270747859867924e+01 1.3814059107136350e+01 0 0 -1
2072 2 1.0807017212667791e+01 2.0475507121752496e+01 2.8393460795998542e+00 0 0 1
2531 2 1.8486121331910084e+01 2.9924706443958296e+01 2.0824436145352756e+01 0 0 0
1103 2 1.2026344148199515e+01 2.4820263505472038e+01 1.7440762047495431e+00 0 0 0