LAMMPS data file via write_data, version 15 Apr 2020, timestep = 500000

3072 atoms
2 atom types

1.2583729825309220e-01 3.0014356701743463e+01 xlo xhi
1.0410431335586523e-01 2.8236361686638553e+01 ylo yhi
1.2500770685333684e-01 2.7286437293139727e+01 zlo zhi
1.0133998971329683e+01 1.0191024495703191e+01 7.0879271772100223e+00 xy xz yz

Masses

1 16
2 2

Atoms # atomic

1 1 7.4951885380312016e+00 5.2612804473690362e+00 4.1578524612873196e+00 0 0 0
2 2 6.6535028046450053e+00 4.9899779481377999e+00 3.7156406254926724e+00 0 0 0
3 2 7.4330609507888692e+00 6.1711754677505573e+00 4.4514224220401282e+00 0 0 0
4 1 1.0100675745231339e+01 6.9205840843859558e+00 1.1080530369437474e+01 0 0 0
5 2 1.0434454261635114e+01 6.5298852379334615e+00 1.1949103845517161e+01 0 0 0
6 2 9.7095646888650879e+00 7.7598133427795783e+00 1.1401957236937241e+01 0 0 0
7 1 9.8371511551110871e+00 1.2544218526464574e+01 4.2469212679187596e+00 0 0 0
8 2 1.0329305298232828e+01 1.2264689941922487e+01 5.0711544123422794e+00 0 0 0
9 2 9.6454752991132242e+00 1.3465412311446812e+01 4.4681798066464040e+00 0 0 0
10 1 1.2407855790805707e+01 1.3819433058944961e+01 1.0997918461258466e+01 0 0 0
11 2 1.3303707140024652e+01 1.4008521040794367e+01 1.0723002527873744e+01 0 0 0
12 2 1.1886014801401906e+01 1.3207032773832474e+01 1.0395652232278174e+01 0 0 0
13 1 1.5003026238381391e+01 5.0662189611504278e+00 4.1582600509454029e+00 0 0 0
14 2 1.5515354055058490e+01 4.5766776300958849e+00 4.8455563687388477e+00 0 0 0
15 2 1.4688583681424870e+01 5.7927438614901163e+00 4.6870516619139417e+00 0 0 0
16 1 1.7418362444033345e+01 7.1175706289309417e+00 1.1146981641939687e+01 0 0 0
17 2 1.7984621591205201e+01 6.7553302714796342e+00 1.1894034963549268e+01 0 0 0
18 2 1.8000468828925690e+01 7.3554880721467493e+00 1.0389274790836009e+01 0 0 0
19 1 1.7396528662120236e+01 1.2452088082999662e+01 4.2706296598430979e+00 0 0 0
20 2 1.8195311862194298e+01 1.2623860979236508e+01 3.7086122154098837e+00 0 0 0
21 2 1.7839503899735444e+01 1.2219171721032794e+01 5.1229823394386518e+00 0 0 0
22 1 2.0222689585307432e+01 1.4021548547995629e+01 1.1191412925444919e+01 0 0 0
23 2 2.1033134255153922e+01 1.4182300194463309e+01 1.0617671658905543e+01 0 0 0
24 2 1.9958103570773904e+01 1.4893852737476363e+01 1.1596375035780287e+01 0 0 0
25 1 1.1903752246721194e+01 8.1818633170675987e+00 6.2680000629216632e+00 0 0 0
26 2 1.1111871169667914e+01 8.6704163344506870e+00 5.9374157094681523e+00 0 0 0
27 2 1.1530251855281815e+01 7.6223146805737727e+00 7.0124984451991592e+00 0 0 0
1109 2 1.2100471672325400e+01 2.3001306441172940e+01 1.1602043651053016e+01 0 0 0
29 2 1.4386298743378921e+01 9.3597140824160689e+00 1.2646574087214603e+01 0 0 0
30 2 1.3389995820497873e+01 1.0416033157208483e+01 1.2911308378967542e+01 0 0 0
31 1 1.4156913787522569e+01 1.5323778012148333e+01 6.6688663500781606e+00 0 0 0
32 2 1.4576919153570902e+01 1.4885419143877234e+01 5.9468030876519204e+00 0 0 0
33 2 1.3445554676365060e+01 1.5833668940714119e+01 6.2202470931897897e+00 0 0 0
34 1 1.6484214610344068e+01 1.6983526460487823e+01 1.3270677752440593e+01 0 0 0
35 2 1.5646485909552620e+01 1.7420378216655536e+01 1.3091714486733190e+01 0 0 0
185 2 1.9552037803620660e+01 7.1517350556018213e+00 1.3217805505627057e+01 0 0 0
190 1 2.1778799958525877e+01 1.3187800466439020e+01 1.3528188661716406e+01 0 0 0
38 2 1.8250727799399005e+01 8.6018163031320842e+00 6.2401510040653445e+00 0 0 0
39 2 1.8831296747063249e+01 7.3455762940233136e+00 6.9216758079335934e+00 0 0 0
40 1 2.1680306664517634e+01 1.0029775088811281e+01 1.3335057197487050e+01 0 0 0
1152 2 1.3946390506452325e+01 3.3116970859646302e+00 1.1930806348569202e+01 0 1 0
42 2 2.0897519244765572e+01 1.0443977100064345e+01 1.3104991306407664e+01 0 0 0
43 1 2.1662020990353746e+01 1.5342426091339179e+01 6.6020691946301184e+00 0 0 0
44 2 2.0818647602951071e+01 1.5661482372498934e+01 6.0812992570901745e+00 0 0 0
1151 2 2.4507179981024198e+01 3.0412698318656251e+01 1.3012721252348575e+01 0 0 0
46 1 2.4331880381398381e+01 1.7280219220699816e+01 1.3202776069976368e+01 0 0 0
47 2 2.3428421646043041e+01 1.7506568232955029e+01 1.2942438636996940e+01 0 0 0
461 2 1.8360993272556556e+01 3.4400475241618880e+00 8.1152353408956870e+00 0 0 0
49 1 5.2111499138853494e+00 3.8046957153407575e+00 2.7308271458607698e+00 0 0 0
50 2 5.4378172628959396e+00 2.9036764945365610e+00 2.4631077355784869e+00 0 0 0
51 2 4.4994851065900301e+00 3.6954810197232129e+00 3.3865332645393300e+00 0 0 0
52 1 7.9891752912488210e+00 5.4860823390584628e+00 9.5695129453647532e+00 0 0 0
53 2 7.6740118620385269e+00 5.8772115238597999e+00 8.7292858826808342e+00 0 0 0
54 2 8.7353236254500430e+00 6.0338996763376196e+00 9.8477185884125635e+00 0 0 0
55 1 7.8028526712998065e+00 1.0995089203910803e+01 2.9594920979774448e+00 0 0 0
56 2 8.3364051648643560e+00 1.0286059205128032e+01 2.5490141502213297e+00 0 0 0
57 2 8.4540074862885426e+00 1.1636988772123038e+01 3.3990985193366758e+00 0 0 0
58 1 1.0231063493303337e+01 1.2437669417708680e+01 9.9481827437997303e+00 0 0 0
59 2 9.8945708397316174e+00 1.2863674098676368e+01 9.1517395598842430e+00 0 0 0
60 2 1.0368869423890372e+01 1.1474246177674210e+01 9.6756233475442919e+00 0 0 0
61 1 1.2771443503929863e+01 3.9903993456008506e+00 2.9004023654467921e+00 0 0 0
62 2 1.3429958427162616e+01 4.6293959496522588e+00 3.1790857816843885e+00 0 0 0
63 2 1.2318794901263955e+01 4.3848724284099996e+00 2.1316418264418013e+00 0 0 0
64 1 1.5294094958954537e+01 5.4136208276586455e+00 9.9770338476618932e+00 0 0 0
65 2 1.6034546132451695e+01 5.8775245588308831e+00 1.0429723525255183e+01 0 0 0
66 2 1.5709361172723490e+01 4.6315229150229662e+00 9.5687693545149433e+00 0 0 0
67 1 1.5395122043446527e+01 1.0594661904060493e+01 2.9176003809848212e+00 0 0 0
68 2 1.6137223347734029e+01 1.1138654490819729e+01 3.2788117628671971e+00 0 0 0
69 2 1.5813169415209085e+01 9.7077967069191207e+00 2.7498293592920913e+00 0 0 0
70 1 1.8033701364468349e+01 1.2761392038302079e+01 1.0080627878516019e+01 0 0 0
71 2 1.7717477118873969e+01 1.3328892974862063e+01 9.3605445370743645e+00 0 0 0
72 2 1.8915596045836711e+01 1.3217269834345560e+01 1.0326328322867560e+01 0 0 0
186 2 1.8931967586410178e+01 5.6988830897946281e+00 1.3576926702255472e+01 0 0 0
282 2 2.0257647602189415e+01 7.8239197728621264e+00 1.0473391004549670e+01 0 0 0
959 2 2.7120807349092573e+01 2.6333965960873499e+01 1.2333597429282742e+01 0 0 0
79 1 3.8703910194389062e+00 8.1715015307056635e+00 8.4759168728992185e-01 0 0 0
77 2 1.4758040839220666e+01 3.0213034314613246e+01 8.0864341649725375e+00 0 -1 0
114 2 1.4303547506858891e+01 5.5136134414630025e+00 1.3550662352436476e+01 0 0 0
981 2 2.4158232374733807e+01 2.3721230126379186e+01 3.1259023196258204e+00 0 0 0
855 2 1.2968185248740388e+01 1.4715366324269100e+01 3.3844617198356497e-01 0 0 0
81 2 4.4737960922184712e+00 7.5626455537469770e+00 1.3153849705769294e+00 0 0 0
82 1 6.2781672283849481e+00 9.4220798408228212e+00 7.4313140670396756e+00 0 0 0
1150 1 2.4763511221149695e+01 3.0787734945744170e+01 1.2140049528616222e+01 0 0 0
84 2 7.1008166157832679e+00 8.9957449854903544e+00 7.7313801061330478e+00 0 0 0
73 1 1.2524485559274365e+00 8.8223981826973286e-01 3.9581081452914796e-01 0 0 0
1082 2 8.4441884686281554e+00 1.8090547905216528e+01 4.8547685968221893e-01 0 0 0
87 2 8.6223497332833254e+00 1.5403250352572868e+00 1.5049279382780913e+00 0 0 0
88 1 1.1235286526313027e+01 2.5296302240473723e+00 7.4736095395757074e+00 0 0 0
89 2 2.2032326298558353e+01 3.0123954593902766e+01 7.9332170733200433e+00 0 -1 0
90 2 1.1712682251141896e+01 3.0990559753123845e+00 6.8260571698848569e+00 0 0 0
91 1 1.1306543862430946e+01 8.1026676829079030e+00 8.0134750401468724e-01 0 0 0
1028 2 2.2356806319925333e+01 2.5270942479753860e+01 3.7664440614227745e-01 0 0 0
869 2 1.3149479823204965e+01 2.0771014463410371e+01 1.3045849185454701e+01 0 0 0
94 1 1.4088723022582137e+01 9.8111060601716726e+00 7.7765106284194143e+00 0 0 0
95 2 1.4899089924260716e+01 9.2561008509099079e+00 8.0800744448780275e+00 0 0 0
96 2 1.3507622037594134e+01 9.1097316679959928e+00 7.4026290414749427e+00 0 0 0
97 1 5.2581738529347124e+00 4.2766701796934576e+00 6.1948396939699322e+00 0 0 0
98 2 5.5815800835476352e+00 5.0921381839482782e+00 6.6441770224893935e+00 0 0 0
99 2 4.7305818167044187e+00 3.7343452543573736e+00 6.8507308937510611e+00 0 0 0
100 1 7.8474041935303962e+00 5.9561770049413294e+00 1.2892295624646948e+01 0 0 0
101 2 7.6050117149924095e+00 6.6066336826824212e+00 1.2201780967801250e+01 0 0 0
102 2 8.5860691138008143e+00 5.3949534798114698e+00 1.2431098165340250e+01 0 0 0
103 1 7.9296457498274053e+00 1.1483995821234384e+01 6.3903372305427411e+00 0 0 0
104 2 7.6574367389447762e+00 1.1859270521595132e+01 5.5505560581456717e+00 0 0 0
105 2 7.2966621761671320e+00 1.0831250942585898e+01 6.6899463863769704e+00 0 0 0
106 1 1.0120395982586700e+01 1.3104437543606632e+01 1.2946384007272924e+01 0 0 0
1584 2 1.8820389543192121e+01 1.2632340325940527e+01 1.7654427724904120e-01 0 0 1
108 2 1.0850539820765881e+01 1.2539841233344605e+01 1.2653853048061890e+01 0 0 0
109 1 1.2537960152548548e+01 4.3208156395360113e+00 6.0083290476264510e+00 0 0 0
110 2 1.3141528550110678e+01 3.7913364530112261e+00 5.5250153616082898e+00 0 0 0
111 2 1.2264559866972300e+01 4.9794964776052364e+00 5.3365129809696858e+00 0 0 0
112 1 1.4976690061640376e+01 5.9184428744984174e+00 1.2963625587728940e+01 0 0 0
341 2 6.6550811296175505e+00 8.9509220782032326e+00 1.1516138972650994e+01 0 0 0
37 1 1.9149115991839903e+01 8.2349192473938757e+00 6.5277704208232095e+00 0 0 0
115 1 1.5524391029233382e+01 1.1401295064033340e+01 6.2070170317054938e+00 0 0 0
116 2 1.4900281084775763e+01 1.0770323154085702e+01 6.7287938701218533e+00 0 0 0
117 2 1.5712465377725600e+01 1.2031201474945268e+01 6.8805785883133330e+00 0 0 0
118 1 1.8034318621957336e+01 1.3358013128591006e+01 1.3167808095364220e+01 0 0 0
119 2 1.7460398038606385e+01 1.2660614241933565e+01 1.3552609415792118e+01 0 0 0
120 2 1.7424928605274598e+01 1.3700357653507302e+01 1.2410833396954438e+01 0 0 0
121 1 3.1576292384392488e+00 2.8286924191648390e+00 4.2027242868954309e+00 0 0 0
1149 2 2.2581695699889835e+01 2.7824934543347918e+01 4.9203509115368140e+00 0 0 0
123 2 3.4744002687614417e+00 2.0219581593819211e+00 4.6168906685612745e+00 0 0 0
124 1 5.8734375576796660e+00 4.4190155108737397e+00 1.0973654458577345e+01 0 0 0
125 2 6.6334275252454056e+00 4.9665368402189642e+00 1.0690559750926097e+01 0 0 0
126 2 6.2828603145021837e+00 3.7238294881238549e+00 1.1411260176761214e+01 0 0 0
127 1 5.5189984653883890e+00 1.0027308991572392e+01 4.3959626086727690e+00 0 0 0
236 2 1.5945358291866913e+01 8.2904501086910773e+00 9.1608428945475706e-01 0 0 0
129 2 6.1900399894778229e+00 1.0595084609529003e+01 3.9843410533639032e+00 0 0 0
130 1 8.0017775455169211e+00 1.1688958494328345e+01 1.1204424682591647e+01 0 0 0
1023 2 2.0895552726498821e+01 1.9027753731148522e+01 7.0588594766511281e-01 0 0 0
132 2 8.7936835565263571e+00 1.2122369280861079e+01 1.0842165506394300e+01 0 0 0
133 1 1.0929213838739177e+01 2.5208002693085598e+00 4.2350542031503666e+00 0 0 0
134 2 1.1302571058632660e+01 1.7447092239767616e+00 4.7545458016523332e+00 0 0 0
135 2 1.1660751692760035e+01 3.0253333211200815e+00 3.7567390424369114e+00 0 0 0
136 1 1.2871850592279646e+01 4.7765745209448394e+00 1.1204123818343430e+01 0 0 0
137 2 1.3728423196037635e+01 5.1470830773528427e+00 1.0815842423463334e+01 0 0 0
138 2 1.2602786451678879e+01 5.3983812976738701e+00 1.1916785323330945e+01 0 0 0
139 1 1.3077904999460538e+01 1.0210146457376398e+01 4.4195781024011058e+00 0 0 0
140 2 1.3916350568582144e+01 1.0620696389981447e+01 4.0729532645042053e+00 0 0 0
141 2 1.3382181427276056e+01 9.4142770356169017e+00 4.8676358009309721e+00 0 0 0
142 1 1.5515329194241916e+01 1.1591702397383912e+01 1.1374583905468825e+01 0 0 0
143 2 1.6164351878625201e+01 1.2110276073155195e+01 1.0888448489784524e+01 0 0 0
144 2 1.6004255403993426e+01 1.0752646813270482e+01 1.1539956715445395e+01 0 0 0
145 1 6.9073154057741490e+00 2.2644176690156490e+00 5.2825762234029536e+00 0 0 0
146 2 7.6249117218549269e+00 1.9134326939310859e+00 5.7853786316532378e+00 0 0 0
147 2 6.6446532608400357e+00 3.1393255801129678e+00 5.6872870151267989e+00 0 0 0
148 1 9.6265921128675682e+00 3.9499286767984536e+00 1.1940528041140178e+01 0 0 0
149 2 1.0180283760948196e+01 4.0372310827258460e+00 1.1107910411090202e+01 0 0 0
150 2 1.0316856793922302e+01 3.6359075765141071e+00 1.2640294235478647e+01 0 0 0
151 1 9.4898468592749250e+00 9.2903777685761746e+00 5.2111161770907728e+00 0 0 0
152 2 9.1685988402578076e+00 1.0111338799433767e+01 5.6530605856105636e+00 0 0 0
153 2 9.7681282681023056e+00 9.6994890057778953e+00 4.3533639254894485e+00 0 0 0
154 1 1.1901497939657109e+01 1.1009280611553974e+01 1.2079849656444708e+01 0 0 0
155 2 1.1108418417494974e+01 1.0431755411672549e+01 1.1829473054717095e+01 0 0 0
156 2 1.2400385157008330e+01 1.1266738400798255e+01 1.1276225138786883e+01 0 0 0
157 1 1.4373041671820209e+01 2.0965470648186111e+00 5.2088065735550835e+00 0 0 0
158 2 1.5147365874211536e+01 1.8357125934784211e+00 5.7279558803384791e+00 0 0 0
159 2 1.4859004223151896e+01 2.2141761539522458e+00 4.3295309889641116e+00 0 0 0
160 1 1.6931977707031567e+01 3.9713750379626127e+00 1.2290021724058599e+01 0 0 0
161 2 1.6460781994388487e+01 4.7584121955827836e+00 1.2554398600131739e+01 0 0 0
162 2 1.6256601566263424e+01 3.2957892507374553e+00 1.2260132573739284e+01 0 0 0
163 1 1.6942308834976735e+01 9.0399112998147420e+00 5.2827628392407782e+00 0 0 0
164 2 1.6461056940218903e+01 9.8205086806969213e+00 5.6297556877678270e+00 0 0 0
165 2 1.7235463665712896e+01 9.3848058765581239e+00 4.3952839461286759e+00 0 0 0
166 1 1.9575377544371328e+01 1.1050057498337758e+01 1.2140919847860172e+01 0 0 0
167 2 1.9142506591864684e+01 1.1929185735939205e+01 1.2405774166282022e+01 0 0 0
168 2 1.9885699477381262e+01 1.1333703490887000e+01 1.1255720486147522e+01 0 0 0
169 1 9.1901388994052322e+00 4.4663138846847055e+00 6.1942288864250337e+00 0 0 0
170 2 9.7711552712271725e+00 3.8008529095763182e+00 5.8517769067555854e+00 0 0 0
171 2 8.5319305035969979e+00 4.6443565224623375e+00 5.4359042052891295e+00 0 0 0
172 1 1.1352048998147996e+01 6.2226258171784945e+00 1.3470219270257218e+01 0 0 0
663 2 2.7282015104890687e+00 5.7230316973664177e+00 1.8405321822381935e+00 1 0 0
1611 2 6.5048184238649283e+00 4.9009604889117373e+00 1.3622409817462620e+01 0 0 0
175 1 1.1274781380511293e+01 1.1488359171141909e+01 6.3387141163740930e+00 0 0 0
176 2 1.1953554788038190e+01 1.1116879849250221e+01 5.7204635950866400e+00 0 0 0
177 2 1.1676080392817138e+01 1.2328764742648849e+01 6.6465260611222652e+00 0 0 0
178 1 1.3744872632179117e+01 1.3217697232363658e+01 1.3227914421891203e+01 0 0 0
179 2 1.3240212474300236e+01 1.3411523531650971e+01 1.2417461378980114e+01 0 0 0
180 2 1.4493455927998451e+01 1.2791401020860320e+01 1.2874514250030190e+01 0 0 0
181 1 1.6304888103608725e+01 4.2206053830802741e+00 6.2646934484879582e+00 0 0 0
182 2 1.7034385678281058e+01 3.6827454339103163e+00 6.0391232430784756e+00 0 0 0
183 2 1.6749947884670878e+01 5.0267631592570137e+00 6.5951278291887894e+00 0 0 0
184 1 1.9112843264784015e+01 6.3690483475807804e+00 1.2909535157401059e+01 0 0 0
261 2 1.7226227571265948e+01 1.1273694161839829e+01 5.6837987230962495e-01 0 0 0
339 2 3.5785294494611914e+00 6.2204443377835217e+00 3.9145944229052154e+00 0 0 0
187 1 1.9108444685253165e+01 1.1436867649930281e+01 6.2078064754958602e+00 0 0 0
188 2 1.8880796058486030e+01 1.0919228435203145e+01 7.0283897629947303e+00 0 0 0
189 2 1.9609325363387246e+01 1.2241661053102625e+01 6.4970509954608477e+00 0 0 0
28 1 1.4121864756229121e+01 9.9750218883965438e+00 1.3324052971343450e+01 0 0 0
809 2 2.6724450546170516e+01 2.3239101973904798e+01 1.2209326750411806e+01 0 0 0
192 2 2.1158504002773189e+01 1.3120029142015568e+01 1.2726558550524135e+01 0 0 0
193 1 8.6434353306100586e+00 2.6963039035461112e+00 3.0600802539843626e+00 0 0 0
194 2 7.9450472732588606e+00 2.7429874418658517e+00 3.7029388461375095e+00 0 0 0
195 2 9.5673913615926818e+00 2.6099400773242509e+00 3.5196437461467176e+00 0 0 0
196 1 1.0796216666282245e+01 4.4569285153439147e+00 9.4797224458527474e+00 0 0 0
197 2 1.0854526025245455e+01 3.6547536735354482e+00 8.9648792801626183e+00 0 0 0
198 2 1.1655727439929708e+01 4.6092516939224133e+00 9.9404012939124300e+00 0 0 0
199 1 1.0928706692165189e+01 1.0138292594104787e+01 2.7445049006426698e+00 0 0 0
200 2 1.0971206578301837e+01 9.3394274691468144e+00 2.2149300966295065e+00 0 0 0
201 2 1.1736341678981614e+01 1.0157728761549013e+01 3.3400690841223262e+00 0 0 0
202 1 1.3222212769298082e+01 1.1377974457185864e+01 9.8533343575333205e+00 0 0 0
203 2 1.4117692302645231e+01 1.1479533494056213e+01 1.0320577189239897e+01 0 0 0
204 2 1.3459468075901560e+01 1.0841631605424595e+01 9.0383551862540852e+00 0 0 0
205 1 1.6122210962126466e+01 2.6106134869986146e+00 3.1012026424197061e+00 0 0 0
897 2 1.0509710396236065e+01 2.4254264620436054e+01 4.9577554048708707e+00 0 0 0
860 2 1.5669067572756132e+01 2.1689181721438171e+01 3.9284670898472307e-01 0 0 0
208 1 1.8273201527504167e+01 4.4368833998136390e+00 9.6445764621237178e+00 0 0 0
209 2 1.7698026703467992e+01 4.2543895511135892e+00 1.0459698783250735e+01 0 0 0
216 2 2.1024204025369457e+01 1.0530872634109759e+01 8.9419255998163027e+00 0 0 0
211 1 1.8066398179902926e+01 9.6731951351186733e+00 2.6980827022109888e+00 0 0 0
847 1 8.5674699923615698e+00 2.1563347759041509e+01 7.3368876980538444e-01 0 0 0
213 2 1.8187264660382613e+01 1.0464966386649353e+01 2.2046871035248512e+00 0 0 0
214 1 2.0804477580086125e+01 1.1345272831942388e+01 9.5153902305520734e+00 0 0 0
284 2 2.0002388594433938e+01 1.2533786631980416e+01 2.2419703322511086e+00 0 0 0
212 2 1.8298148823899243e+01 8.9867015991640447e+00 2.0151489194476460e+00 0 0 0
217 1 5.9387661750332574e+00 1.1564178508605187e+00 1.7401959515045038e+00 0 0 0
218 2 5.0572783539912507e+00 7.6749794223680923e-01 1.5798769050871020e+00 0 0 0
219 2 6.1486286657130780e+00 1.5435860895674209e+00 8.7649240913474291e-01 0 0 0
220 1 8.4787783788445594e+00 2.8497550247098791e+00 8.6199161146902341e+00 0 0 0
221 2 8.3879926538361111e+00 3.6607093923520999e+00 9.2101436403360104e+00 0 0 0
222 2 8.8680583106284097e+00 3.2195124733760139e+00 7.8284782322335742e+00 0 0 0
223 1 8.4460043575313115e+00 8.4113753618320981e+00 1.7687624380450713e+00 0 0 0
224 2 8.9666458703628091e+00 7.5647749882139053e+00 1.9200466219979324e+00 0 0 0
225 2 8.6591026965715905e+00 8.8082741286082467e+00 9.1889698996112268e-01 0 0 0
226 1 1.0594173743242003e+01 1.0109736931292552e+01 8.7077203664153267e+00 0 0 0
227 2 1.1293002587713989e+01 9.4454755913249429e+00 8.9252023591413625e+00 0 0 0
228 2 1.0834283261592951e+01 1.0509772491902599e+01 7.7836601810966570e+00 0 0 0
229 1 1.3463506311526732e+01 1.6111825738572692e+00 1.5026849653135579e+00 0 0 0
230 2 1.2691965197924272e+01 1.0351668823269025e+00 1.7325132131271714e+00 0 0 0
231 2 1.3275694658125333e+01 2.5081436979562293e+00 1.8388077958184392e+00 0 0 0
232 1 1.5486874575985331e+01 3.2400577510867059e+00 8.6916605366591160e+00 0 0 0
233 2 1.5906762376410086e+01 2.4307966631793558e+00 8.9014113765660579e+00 0 0 0
234 2 1.5684195271939066e+01 3.3982270213732173e+00 7.7326399319497368e+00 0 0 0
235 1 1.5711870163396910e+01 8.1211320439340344e+00 1.7964117640016630e+00 0 0 0
1571 2 1.1175138088228543e+01 1.2976253017249787e+01 2.2090007679986670e-01 0 0 1
237 2 1.6407166373949156e+01 7.4904330881849503e+00 2.1723065701326787e+00 0 0 0
238 1 1.8198838414908341e+01 1.0149493638508394e+01 8.7052000346795211e+00 0 0 0
239 2 1.8893766932664033e+01 9.5160880995867299e+00 8.9953072181976399e+00 0 0 0
240 2 1.8151212185370184e+01 1.0945148317521305e+01 9.2755165380346263e+00 0 0 0
241 1 7.5358556925508937e+00 4.3452634217360337e+00 1.0587318784626261e+00 0 0 0
242 2 8.1088252007583215e+00 3.8576732353616978e+00 1.7452727182030769e+00 0 0 0
243 2 6.7529346153548850e+00 4.6016067260932987e+00 1.6085655762058211e+00 0 0 0
244 1 1.0103213914773644e+01 6.3872555754345681e+00 7.7583623176540391e+00 0 0 0
245 2 1.0317359568886829e+01 5.7581170307190916e+00 8.4831523976457994e+00 0 0 0
246 2 9.8800638774524501e+00 5.6147799932311999e+00 7.1216044112611359e+00 0 0 0
247 1 9.9080133764671849e+00 1.1796510248589147e+01 8.3081884773688286e-01 0 0 0
248 2 9.1594019240757838e+00 1.2352438664635047e+01 1.1835197609529784e+00 0 0 0
249 2 1.0349030246149157e+01 1.1302617849846690e+01 1.5122613618731537e+00 0 0 0
250 1 1.2555450786707423e+01 1.3418099957036844e+01 8.0119822664933871e+00 0 0 0
251 2 1.2987550691940143e+01 1.2752493452602970e+01 8.5785951123743960e+00 0 0 0
252 2 1.3230808763145212e+01 1.4039322779847318e+01 7.6209706711570853e+00 0 0 0
253 1 1.4997903361145616e+01 4.3852573228179494e+00 9.2672481378238736e-01 0 0 0
254 2 1.5553138380307027e+01 4.0031821483610432e+00 1.6572822545142945e+00 0 0 0
255 2 1.4467996219684164e+01 5.0958082764799331e+00 1.3447617525079609e+00 0 0 0
256 1 1.7422917324230227e+01 6.1764018675117232e+00 7.7603907066064179e+00 0 0 0
257 2 1.7808219682713297e+01 5.7250202169306377e+00 8.5856408592186479e+00 0 0 0
258 2 1.6779227479104090e+01 6.8784800071342831e+00 8.0501462271917408e+00 0 0 0
259 1 1.7466367752338329e+01 1.1945447514672246e+01 1.2035918527645466e+00 0 0 0
260 2 1.6742747406628379e+01 1.2620711992772065e+01 1.2321189968479163e+00 0 0 0
1113 2 1.2203852722385294e+01 2.8294347919738339e+01 4.5929580905178904e+00 0 0 0
262 1 1.9978264186373199e+01 1.3607769158114564e+01 7.6061843971580352e+00 0 0 0
263 2 2.0406972132514944e+01 1.2947987415277655e+01 8.1749531910077806e+00 0 0 0
264 2 2.0715866422417903e+01 1.4103398016542812e+01 7.2191926314442449e+00 0 0 0
265 1 9.5389435455975935e+00 6.1957286919911594e+00 2.6772157131644314e+00 0 0 0
266 2 8.8511134143413575e+00 5.6745533443783831e+00 3.0499704517635262e+00 0 0 0
267 2 1.0021270341045421e+01 5.6329513295545715e+00 2.0106066313334185e+00 0 0 0
268 1 1.2334617550331332e+01 7.9195952398855862e+00 9.5593002328764864e+00 0 0 0
269 2 1.2687330490698553e+01 7.2587286529916337e+00 8.9585488142066918e+00 0 0 0
270 2 1.1503525471087849e+01 7.4626789727989484e+00 9.9134162541985322e+00 0 0 0
271 1 1.2317125196358887e+01 1.3126307607568133e+01 2.7646959796499480e+00 0 0 0
272 2 1.3011942238912628e+01 1.3327390768763619e+01 3.4698737998029805e+00 0 0 0
273 2 1.1784930851502670e+01 1.2480828174736336e+01 3.2439587625987785e+00 0 0 0
274 1 1.4585957773702125e+01 1.4617821463067463e+01 9.7960146641758694e+00 0 0 0
275 2 1.3994068228698623e+01 1.5406991003451349e+01 9.5674798057434707e+00 0 0 0
276 2 1.5279665203795073e+01 1.5034377321968908e+01 1.0476590804203200e+01 0 0 0
849 2 9.0335815681873441e+00 2.2229612162575354e+01 2.0360484711869384e-01 0 0 0
278 2 1.6395831646230889e+01 5.6026804392269112e+00 3.3891156444344044e+00 0 0 0
48 2 2.4092063526027854e+01 1.6491066608869769e+01 1.3646602101430888e+01 0 0 0
280 1 1.9766577682194541e+01 7.7673421004979115e+00 9.6447245559493382e+00 0 0 0
1140 2 1.8004175684117374e+01 3.1106558763045062e+01 1.2038501059858739e+01 0 0 0
1089 2 1.1150336213413413e+01 2.4736522222412720e+01 3.2276603953578031e-01 0 0 0
283 1 1.9672372901815937e+01 1.3218251195467447e+01 2.9061423413539220e+00 0 0 0
953 2 2.4293852466599716e+01 2.1007028953284955e+01 1.3399199383145827e+01 0 0 0
1051 1 2.4871857593989194e+01 2.7021084874095511e+01 2.6232871516531926e+00 0 0 0
286 1 2.2269259444121136e+01 1.4893289397086352e+01 9.5232930537352320e+00 0 0 0
806 2 2.4886323071928128e+01 2.2839021916966864e+01 6.5145243577904344e+00 0 0 0
288 2 2.1925757677777426e+01 1.5757892793353449e+01 9.2913228225456130e+00 0 0 0
289 1 6.1606643917439436e+00 6.9721010233543446e+00 2.2784205062711274e+00 0 0 0
290 2 5.8101993364681714e+00 6.7765490966852759e+00 3.1489929387493376e+00 0 0 0
291 2 6.8392832644203914e+00 7.6593562413176643e+00 2.2946286871664938e+00 0 0 0
292 1 8.5910571217754494e+00 8.4964719373058983e+00 8.5683268534811550e+00 0 0 0
293 2 8.9474194122634962e+00 7.6428460803185700e+00 8.1527248135951016e+00 0 0 0
294 2 9.3502164752151806e+00 9.1559500544955501e+00 8.5609757133250586e+00 0 0 0
295 1 8.2101457022780941e+00 1.3765124726891671e+01 2.0275319449895797e+00 0 0 0
296 2 7.6702880415352759e+00 1.3532107021643871e+01 2.8209394782745725e+00 0 0 0
297 2 7.6253521148865699e+00 1.4325280106483062e+01 1.4494376606540817e+00 0 0 0
298 1 1.0942502640306470e+01 1.5584107109324613e+01 8.7947502633150805e+00 0 0 0
299 2 1.1353059432151133e+01 1.4710941499421365e+01 8.5500035058767274e+00 0 0 0
300 2 1.0174998180806266e+01 1.5751729636950428e+01 8.1702601917033544e+00 0 0 0
301 1 1.3417966653165085e+01 6.8087630861869117e+00 1.9448573486981802e+00 0 0 0
302 2 1.3123974309725831e+01 6.6598938884163523e+00 2.8609712547337254e+00 0 0 0
303 2 1.4171075726702050e+01 7.4073358977685837e+00 2.0415076178312326e+00 0 0 0
304 1 1.6115758250790901e+01 8.2949811313536621e+00 8.6993522257176092e+00 0 0 0
305 2 1.5852892040674805e+01 8.2687691372826126e+00 9.6327891914794819e+00 0 0 0
306 2 1.6754302956639474e+01 9.0061331230320025e+00 8.7191097338172234e+00 0 0 0
307 1 1.5869642544218433e+01 1.3941967640925631e+01 1.9876591425126089e+00 0 0 0
308 2 1.5112135136217548e+01 1.4254858287642103e+01 1.3887205635342812e+00 0 0 0
309 2 1.6554767895356772e+01 1.4624526062386515e+01 1.8370493232217271e+00 0 0 0
310 1 1.8612493921570586e+01 1.5436374767962709e+01 9.0477174283116355e+00 0 0 0
311 2 1.9022689340302012e+01 1.4816096711726596e+01 8.3426344030942055e+00 0 0 0
312 2 1.7795982276667015e+01 1.5635699170672421e+01 8.5461414744846156e+00 0 0 0
313 1 3.7142999528739882e+00 4.9555911785395077e+00 8.6050523080268082e-01 0 0 0
128 2 4.7543645842484086e+00 9.9372454726335455e+00 3.7713257380310781e+00 0 0 0
315 2 4.3290524791649601e+00 4.6155713295806367e+00 1.5976546774737597e+00 0 0 0
316 1 6.3741052226581534e+00 6.3876825775174257e+00 7.5583109499930989e+00 0 0 0
317 2 6.7153014899337711e+00 7.0172533385860199e+00 6.8473495578816497e+00 0 0 0
318 2 5.7956539230651671e+00 6.9462173659408633e+00 8.1449103426590934e+00 0 0 0
319 1 6.4378112695092202e+00 1.1990153334361686e+01 7.1211225315333815e-01 0 0 0
814 1 2.9259737139953149e+01 3.0773691254262925e+01 1.3162125624278360e+01 0 0 0
321 2 7.0989276654844264e+00 1.1909920053757373e+01 1.4504793252794284e+00 0 0 0
322 1 8.9331078228930902e+00 1.3765099387464231e+01 7.8232369017056431e+00 0 0 0
323 2 8.2217104079413090e+00 1.4122336281623763e+01 8.4199297756817479e+00 0 0 0
324 2 8.5397676866766226e+00 1.2986330343308259e+01 7.3942005147055356e+00 0 0 0
325 1 1.1231370711331707e+01 4.8403097501943471e+00 7.4316929929951792e-01 0 0 0
1011 2 1.3682854040131588e+01 1.9003267993613161e+01 6.1805315794638149e-01 0 0 0
80 2 3.1873485590366335e+00 7.6038424055085994e+00 4.0614295097914943e-01 0 0 0
328 1 1.3717822398031172e+01 6.3414876878976090e+00 7.8724089951725968e+00 0 0 0
329 2 1.3277437065365545e+01 5.5593185711446695e+00 7.4653402366083519e+00 0 0 0
330 2 1.4363329190359398e+01 6.2169346248664388e+00 8.6473374809593633e+00 0 0 0
331 1 1.3934591070584885e+01 1.1786198336780357e+01 8.3913604135280950e-01 0 0 0
332 2 1.3358236214422055e+01 1.2401269927592956e+01 1.3529514462677010e+00 0 0 0
333 2 1.4579619353860101e+01 1.1426239874882326e+01 1.5518135297273945e+00 0 0 0
334 1 1.6328656845910842e+01 1.3453376493265885e+01 7.9074755705093960e+00 0 0 0
335 2 1.6762634606609982e+01 1.4024583717749517e+01 7.2836631383260277e+00 0 0 0
336 2 1.5632019477376117e+01 1.3940251675811265e+01 8.3619622376959928e+00 0 0 0
337 1 4.4226062521419003e+00 6.2444154960099683e+00 4.3488452566326066e+00 0 0 0
338 2 4.5270151201955713e+00 5.2984728933733809e+00 4.7862493753854745e+00 0 0 0
344 2 6.8698491327207654e+00 1.3940952990152702e+01 5.0501064583234498e+00 0 0 0
340 1 6.6530202544189176e+00 8.2981797269247437e+00 1.0837805457816927e+01 0 0 0
215 2 2.1595783739391539e+01 1.1512208762921517e+01 9.9934133282447668e+00 0 0 0
342 2 7.3646121080393367e+00 8.4585192443999109e+00 1.0186751825211156e+01 0 0 0
343 1 6.8218786662973923e+00 1.3303607891757164e+01 4.3278421050572780e+00 0 0 0
876 2 1.5851204880782216e+01 2.8158214348995234e+01 1.3509629344887285e+01 0 0 0
1056 2 2.7950019290525475e+01 2.9341377034776340e+01 1.0065618012395706e+01 0 0 0
346 1 9.4125473102054826e+00 1.5116190120715736e+01 1.0978255419585802e+01 0 0 0
347 2 1.0041225961397897e+01 1.5349276750148620e+01 1.0226227798009241e+01 0 0 0
348 2 9.6511044333147957e+00 1.4212557329453197e+01 1.1314501564308442e+01 0 0 0
349 1 1.1710852131853255e+01 6.3372779992253463e+00 4.3253342617457671e+00 0 0 0
350 2 1.1727142787413328e+01 7.0799368351615586e+00 4.9770000123686380e+00 0 0 0
351 2 1.0830443103543782e+01 6.3143806151732225e+00 3.8938072357833229e+00 0 0 0
352 1 1.4701061419098707e+01 8.2976097052554252e+00 1.1115670860066501e+01 0 0 0
353 2 1.4890073671319946e+01 7.4201730766588785e+00 1.1591295981202443e+01 0 0 0
354 2 1.3923221990809784e+01 8.0310600358134021e+00 1.0586144911752339e+01 0 0 0
355 1 1.4646243464053434e+01 1.3737040078518511e+01 4.3113406218762238e+00 0 0 0
356 2 1.5046886221403769e+01 1.2943214472914164e+01 4.6345135180120653e+00 0 0 0
357 2 1.5072194020339099e+01 1.3810307114393991e+01 3.4457780344131819e+00 0 0 0
358 1 1.6723895800636821e+01 1.5260188253966039e+01 1.1273807796284562e+01 0 0 0
359 2 1.6715068074189212e+01 1.6042641990752053e+01 1.1793177101672203e+01 0 0 0
360 2 1.7555751249833378e+01 1.5353586741533562e+01 1.0771769478477365e+01 0 0 0
361 1 7.1985074108754290e+00 7.8590964000621355e+00 5.0628836045401400e+00 0 0 0
362 2 6.5657814071587763e+00 8.5463069666017475e+00 4.7815021011538033e+00 0 0 0
363 2 8.0531994580777955e+00 8.3839572358033188e+00 5.0754364064087092e+00 0 0 0
364 1 9.5623050750510750e+00 9.4767772473912668e+00 1.1966128343196019e+01 0 0 0
365 2 8.9578367051766357e+00 1.0202962366503787e+01 1.1772832136278762e+01 0 0 0
366 2 9.4219814036539482e+00 9.2169310522544983e+00 1.2869777582038143e+01 0 0 0