LAMMPS data file via write_data, version 15 Apr 2020, timestep = 0

6144 atoms
2 atom types

-1.9627661417751625e+00 6.1931055272954993e+01 xlo xhi
0.0000000000000000e+00 2.8152048567939691e+01 ylo yhi
0.0000000000000000e+00 2.7215753231799624e+01 zlo zhi
1.0161498259329406e+01 1.0185531771458315e+01 7.1241035476498560e+00 xy xz yz

Masses

1 16
2 2

Atoms # atomic

1595 2 2.1316918811430401e+01 2.4272611398544861e+01 1.7064057316287222e+01 0 0 0
1604 2 1.5139861284880368e+01 2.0737556056415315e+01 2.3352367688659626e+01 0 0 0
870 2 7.3090864171757879e+00 1.6224398867780682e+01 8.6780033875476654e+00 0 0 0
987 2 1.0629902182586019e+01 1.2065155146561491e+01 1.7917872176524707e+01 0 0 0
225 2 9.7555082099831552e+00 6.8626675225838074e+00 5.9945820665229634e+00 0 0 0
52 1 1.4814158716994612e+01 2.9903003056691222e+01 8.3259867171672006e+00 0 -1 0
25 1 8.7290524383924790e+00 1.3820544973036098e+01 1.0106675919117929e+01 0 0 -1
1625 2 1.4444208708714275e+01 2.2041721362882772e+01 1.6403177775157047e+01 0 0 0
2464 1 1.2626447051643060e+01 2.1473736920557965e+01 5.3374061075955419e+00 0 1 0
886 1 2.2691593364478845e+01 2.1385727199519245e+01 1.5490726321265326e+01 0 1 -1
1633 1 1.5335900774913483e+01 1.4690704493887681e+01 2.1849822419779674e+01 0 0 0
849 2 1.5754033394043887e+01 2.0146341224354014e+01 1.2868030996369137e+01 0 0 -1
2443 1 1.4256741801445337e+01 1.7794859227413866e+01 8.3439327334398534e+00 0 1 0
358 1 1.5963988486710900e+01 2.7195847058002180e+01 2.5152579284369658e+01 0 0 0
2466 2 1.3435780112325491e+01 2.0976252335451445e+01 5.4338686611288409e+00 0 1 0
1895 2 9.6597527541321018e+00 1.3207501430549520e+01 9.0101284069213481e+00 0 0 1
1670 2 6.0125759857918588e+00 6.7872365260018279e+00 3.2761942057916809e+00 0 0 0
1634 2 1.5531249694121712e+01 1.4009816569912491e+01 2.2515498654655421e+01 0 0 0
1064 2 1.9828513136676992e+01 3.0279186230264454e+01 2.0655488895043160e+01 0 0 -1
1894 1 1.0253654828830989e+01 1.2527045279803623e+01 8.5837569729766763e+00 0 0 1
1740 2 1.1808815504982650e+01 1.6596303892582632e+01 4.1084357710074455e+00 0 0 1
1916 2 2.0676037752158365e+01 2.5702644852545991e+01 1.4725447489339333e+01 0 0 0
611 2 8.4119770828536780e+00 7.1596728736262225e+00 1.3407196139790686e+01 0 1 0
1709 2 1.1087690458479617e+01 9.4328921411547739e+00 2.0609794993910707e+01 0 0 0
487 1 1.5233123700213518e+01 2.5259038092744358e+01 2.2559606891548814e+01 0 0 -1
53 2 1.5083832167655828e+01 2.9096064069012940e+01 8.7747366129392734e+00 0 -1 0
1587 2 1.4906639248307336e+01 1.3864563671662459e+01 1.1949994866179111e+01 0 0 0
1586 2 1.5700234041908487e+01 1.3684874290794722e+01 1.0592906538561550e+01 0 0 0
1675 1 9.9959275124656308e+00 1.6515526978524530e+01 1.6204381163342557e+01 0 0 0
2564 2 9.2131942334378092e+00 1.1412278252954504e+01 3.6715232709969023e+00 0 1 0
1622 2 7.8127613778343097e+00 1.0570377116347228e+01 1.8942353379038746e+01 0 0 -1
1871 2 1.4666301241423607e+01 2.7650254965154769e+01 1.6960101405498836e+01 0 0 0
610 1 7.4465271660809123e+00 7.3183686476555119e+00 1.3403213682489522e+01 0 1 0
1275 2 5.4443176957797172e+00 3.7974790768351676e+00 4.0587106011594702e+00 0 0 0
2598 2 1.2274106513663618e+01 2.2905593142233684e+01 2.0867307694742582e+01 0 0 0
2450 2 1.7506650980056335e+01 2.6958997101969114e+01 1.9316940935996488e+01 0 0 0
1708 1 1.0433165384660608e+01 9.3011241552390835e+00 1.9892544705133755e+01 0 0 0
27 2 9.0734301493589129e+00 1.3830960129803977e+01 1.1034108144049730e+01 0 0 -1
907 1 1.7628312060572689e+01 2.1220473444226958e+01 1.8455343757292365e+01 0 0 -1
99 2 1.3481943725211678e+01 8.6779043006589891e+00 6.0002701891619532e+00 0 0 0
1561 1 1.1063405463378814e+01 1.7784224557897062e+01 1.4106422235789671e+01 0 0 0
1901 2 2.0779789340768520e+01 3.3392706116729372e+01 2.7119445290977566e+01 0 -1 0
1661 2 5.6906932739727516e+00 1.6536900526395840e+01 4.2124282250840563e+00 0 -1 1
2321 2 1.1644602154939481e+01 1.9352302233359531e+01 2.1623239468500834e+01 0 0 0
924 2 2.1198314961738120e+01 2.2048995816501424e+01 1.1666302573211292e+01 0 0 0
2391 2 1.0219935210759228e+01 2.7783363748212096e+01 7.0469271721787958e+00 0 0 0
224 2 9.7511020959792010e+00 5.5687963860280316e+00 6.8926939747161491e+00 0 0 0
1781 2 9.4530554634868054e+00 1.0669342280560972e+01 1.4595627604368264e+01 0 0 0
1710 2 1.0613518844041350e+01 8.3963991519877403e+00 1.9631797349799175e+01 0 0 0
1689 2 1.2493409389793399e+01 9.2963150543894351e+00 1.2811803884104599e+01 0 0 0
1705 1 1.4768777751760105e+01 1.6924372633906259e+01 1.8580791539460623e+01 0 0 -1
1773 2 1.9197148515926653e+01 2.9149991458260196e+01 2.5779259572511407e+01 0 0 -1
1514 2 7.7814739228013394e+00 1.9056001078906185e+01 5.3231294054952389e+00 0 0 0
1570 1 1.3696190080652677e+01 9.9564976027170466e+00 1.7322559577168818e+01 0 0 1
2314 1 1.9071140733490367e+01 2.7848448637288904e+01 1.4681080788089535e+01 0 0 1
1129 1 1.1259273543145175e+01 1.4944208012300010e+01 2.3081865633331745e+01 0 0 -1
2360 2 1.0844341761403481e+01 1.5434509353367410e+01 1.1761176933174919e+01 0 0 0
1635 2 1.5172516508143588e+01 1.4092313089309066e+01 2.1062199226945644e+01 0 0 0
1017 2 9.2169197294844771e+00 5.4410611849910984e+00 1.7105508611008336e+01 0 1 -1
134 2 2.4053594273250944e+01 2.6353736849056759e+01 1.3871846626844420e+01 0 -1 0
821 2 1.9175603511268818e+01 2.4325945605640527e+01 2.7037382984091959e+01 0 0 -1
1059 2 1.3563336748918289e+01 7.8261698403675881e+00 2.6803478796236750e+01 0 1 -1
896 2 2.2348278339550038e+01 2.8070308849677549e+01 2.2862653140381791e+01 0 0 -1
943 1 4.6902059379213785e+00 1.4717339594847667e+01 2.3576221965299116e+00 0 1 0
2423 2 1.8974391533937066e+01 5.1624291123906776e+00 1.3312231791080730e+01 0 1 0
1571 2 1.3783303502375258e+01 1.0874547950216321e+01 1.6875054342784441e+01 0 0 1
1659 2 1.8471351569368039e+01 2.7364573251150173e+01 2.1717101841302128e+01 0 -1 0
894 2 1.3670841270830756e+01 2.0176511005278215e+01 1.0092001504305992e+01 0 0 0
287 2 2.1987213426222073e+01 2.0468917039622209e+01 4.1058933804177551e+00 0 0 0
1274 2 6.5072260847030030e+00 4.5138589180418247e+00 5.0444731254586070e+00 0 0 0
1113 2 1.5143610089372455e+01 2.3835144140545093e+01 1.0903973094851969e+01 0 0 0
1669 1 6.2241968189601025e+00 6.8554719843005927e+00 2.3560203542039688e+00 0 0 0
1063 1 2.0483986320298293e+01 3.0079857771289745e+01 2.1363713394453988e+01 0 0 -1
1671 2 6.4209882125713573e+00 5.9598525704941290e+00 2.0451008007799123e+00 0 0 0
1791 2 3.8925273134969895e+00 7.2549516074198612e+00 4.9590435302874321e+00 0 0 1
1001 2 6.2096994705144883e+00 1.4340652887987241e+01 5.0591174897730751e+00 0 0 0
846 2 1.6448571603865219e+01 1.6560857929165273e+01 2.6659830727504371e+01 0 0 -1
562 1 1.6925104657916695e+01 3.0166550811486870e+00 1.0898577298644895e+01 0 0 0
1739 2 1.0394089424208548e+01 1.6620465590793707e+01 3.6670883260172373e+00 0 0 1
822 2 1.7656292947261875e+01 2.4207422422812382e+01 2.6948188928549207e+01 0 0 -1
2471 2 1.8611319660462435e+01 8.7637777071621485e+00 1.8802044584377317e+01 0 1 0
1112 2 1.3749034557659677e+01 2.3334023833898357e+01 1.1417081746873793e+01 0 0 0
887 2 2.3094631216354632e+01 2.0888951172482916e+01 1.6201197710828559e+01 0 1 -1
2465 2 1.2233263484877567e+01 2.1536729986057306e+01 6.2209136414625972e+00 0 1 0
54 2 1.3879316523291470e+01 2.9985156110825827e+01 8.6451166998570415e+00 0 -1 0
102 2 5.4520417589700827e+00 7.4081100904537251e+00 7.6716604684067686e+00 0 0 0
223 1 9.3659700629545064e+00 5.9241576494639911e+00 6.0904840745981730e+00 0 0 0
1917 2 2.0153445412515559e+01 2.4236232473797987e+01 1.4499202174050724e+01 0 0 0
353 2 6.6714839173505815e+00 1.0634589951206916e+01 8.3646672497191350e+00 0 0 0
2407 1 1.0259007651744714e+01 1.9319376039911596e+01 8.3207415195135361e+00 0 0 0
1687 1 1.2527588599234964e+01 8.5403855408741176e+00 1.3414960007350741e+01 0 0 0
986 2 1.1179489654606289e+01 1.3516942944789918e+01 1.7437849724654093e+01 0 0 0
1706 2 1.4820526093766492e+01 1.6126356345314960e+01 1.8022496263552839e+01 0 0 -1
1703 2 8.5625045264153670e+00 1.2625193811888279e+01 1.5186679384174210e+01 0 0 0
1374 2 1.9367970899476106e+01 2.0129245327746197e+01 2.9864418203316734e+00 0 0 0
1688 2 1.3456819467684387e+01 8.4923861578126640e+00 1.3673944223989812e+01 0 0 0
1002 2 5.8653706719820082e+00 1.3628082063388030e+01 6.3702278441555578e+00 0 0 0
1610 2 8.8018925761380231e+00 1.6725170674671798e+01 1.9505230758365182e+00 0 -1 0
922 1 2.2007197058527503e+01 2.2012226555215562e+01 1.2237110896440212e+01 0 0 0
150 2 9.3343072250764152e+00 8.4666786242377210e+00 2.6393185907895184e+01 0 0 -1
845 2 1.5570963272979924e+01 1.6165164283015649e+01 2.5537670792102038e+01 0 0 -1
1563 2 1.0346963739258729e+01 1.8391935721065309e+01 1.3850264026457143e+01 0 0 0
908 2 1.7219745205209982e+01 2.0773448648847076e+01 1.9212037337906313e+01 0 0 -1
893 2 1.4018186300877524e+01 2.0323163584572619e+01 1.1601397225264623e+01 0 0 0
28 1 2.2885823736938782e+01 2.2903647015494819e+01 8.6756919094150522e+00 0 0 0
792 2 2.5418179889260752e+01 1.5526100580124305e+01 2.1409177987718397e+01 0 0 -1
10 1 2.5841431577226022e+01 1.4500633233323363e+01 2.6300710507604812e+01 0 0 -1
300 2 1.1058041857505266e+01 2.2389549405333103e+01 8.6641161278021901e+00 0 0 0
1585 1 1.5448601064262178e+01 1.3240602158009116e+01 1.1399583627662830e+01 0 0 0
2414 2 1.2294983139904684e+01 1.8414553277998955e+01 1.4915764471511860e+01 0 0 1
1829 2 1.0500483007019044e+01 2.6420218418324261e+01 9.1448772788397026e+00 0 -1 0
2441 2 1.8185496353577246e+01 2.1309276734403685e+01 1.1596074889280235e+01 0 0 1
847 1 1.5257282635443673e+01 2.0981274454362183e+01 1.2761408752827833e+01 0 0 -1
1562 2 1.0615315785647194e+01 1.7079395540309584e+01 1.4657904426571369e+01 0 0 0
1015 1 8.5324243450912540e+00 5.8861517443506743e+00 1.6573523988278808e+01 0 1 -1
1738 1 1.0928462156399760e+01 1.6273716474436217e+01 4.3658968585732580e+00 0 0 1
948 2 7.9381415960546668e+00 1.0221096962042701e+01 2.1446326237929739e+01 0 0 0
30 2 2.3695970050876237e+01 2.3063261376312141e+01 9.1205674755820798e+00 0 0 0
12 2 2.5178470255270138e+01 1.4849742429436734e+01 2.5657571638886335e+01 0 0 -1
754 1 1.1379012341262136e+01 2.5336416420619170e+01 1.4511773934031293e+01 0 0 0
944 2 5.3494896846474962e+00 1.5272754850771014e+01 2.8983582640606147e+00 0 1 0
2440 1 1.8445115076922775e+01 2.0492458338466243e+01 1.2103682824595339e+01 0 0 1
98 2 1.4054275205704045e+01 7.3571535971624931e+00 5.5145797093446269e+00 0 0 0
2408 2 1.0200370859856420e+01 1.8472790804272602e+01 7.8187681266671092e+00 0 0 0
369 2 1.7097161483122605e+01 1.2434161563300965e+01 1.4816806556208748e+01 0 0 -1
1065 2 2.0074023725868273e+01 3.0519725359183489e+01 2.2085077767369118e+01 0 0 -1
1003 1 1.9429379180015285e+01 1.4877440154080416e+01 1.4583066088520524e+00 0 1 0
2355 2 2.0148270223675425e+01 2.3552012934807820e+01 2.1576307012682417e+01 0 0 0
962 2 1.2592089192220401e+01 2.2875611567214399e+01 1.3331501729473438e+00 0 0 0
888 2 2.3352612557585992e+01 2.1880931527536344e+01 1.5002115628576199e+01 0 1 -1
1135 1 2.1275988352827611e+01 3.4143732863784059e+01 2.5494066623217428e+01 0 0 -1
299 2 1.0991231570860773e+01 2.0894445984121312e+01 8.1374544856249322e+00 0 0 0
626 2 2.3331308034644216e+01 1.5431461599459407e+01 2.4253553988384116e+01 0 0 -1
873 2 1.2279358786863027e+01 1.4203328302456175e+01 1.5673758136826113e+01 0 0 0
105 2 6.9143235774303218e+00 1.2613899296619900e+01 9.6008120829600010e+00 0 0 0
2311 1 1.0510866927576117e+01 7.6182600665005955e+00 8.3193578455523420e-01 0 1 0
2652 2 2.7808111553487315e+01 2.0310893111131001e+01 2.6306304344875510e+01 0 0 0
1896 2 9.6987761331428075e+00 1.2105703640133648e+01 7.8108607181069827e+00 0 0 1
1546 1 1.3961106551922674e+01 1.4688827294731913e+01 2.5548609562617226e+01 0 1 0
984 2 1.6262620871849386e+01 4.0978067103566653e+00 1.2170539656196235e+01 0 1 -1
588 2 6.6041998770948425e+00 1.0292702426027549e+01 6.2063561943270198e+00 0 0 0
909 2 1.8572720640348116e+01 2.1083067032831583e+01 1.8473152881109591e+01 0 0 -1
2668 1 2.2461795301840091e+01 2.7402798018630314e+01 1.9552822264706812e+01 0 0 0
2354 2 2.0554165732709762e+01 2.3867063210481881e+01 2.2981614803164589e+01 0 0 0
218 2 1.2375084928306180e+01 2.1701051305800785e+01 1.1443603932257135e+01 0 -1 0
675 2 2.2977270527433681e+01 7.0435706223179615e+00 2.3707136639706277e+01 0 0 -1
1273 1 6.3873251627861585e+00 3.8058852871584086e+00 4.3590277017742896e+00 0 0 0
1132 1 9.9921911785946094e+00 7.9970615103008864e+00 9.8540319465778552e+00 0 1 0
1780 1 8.7211496226745631e+00 1.1334431309394864e+01 1.4382746719391255e+01 0 0 0
898 1 1.4060659635189388e+01 2.6868891012738803e+01 1.5128426586730484e+01 0 0 0
1623 2 7.2469959666602630e+00 1.1331169193518694e+01 1.7747943791738418e+01 0 0 -1
2580 2 1.9140427624287597e+01 1.3703302249230742e+01 6.9498570979054852e+00 0 0 0
352 1 6.9360845255709727e+00 9.7756499518221212e+00 8.0655362310707552e+00 0 0 0
961 1 1.3246622130137723e+01 2.3219559683968367e+01 6.6594471375843145e-01 0 0 0
885 2 1.2166050380145812e+01 7.1634909789376309e+00 1.5545246742913527e+01 0 1 -1
679 1 1.5178272840811267e+01 4.9520020299290062e+00 3.0096866518585852e-01 0 0 0
2316 2 1.9161561781878696e+01 2.8707851846839205e+01 1.5117395182231775e+01 0 0 1
975 2 1.2584422860440085e+01 2.8484656021232439e+01 8.7535108846650349e+00 0 0 0
818 2 2.0100572745949805e+01 3.2037304527121506e+01 1.8285556134418425e+01 0 0 -1
775 1 1.1551684006483406e+01 2.5942686701249599e+01 3.8787341981414518e+00 0 0 0
1603 1 1.6053390754435455e+01 2.1017813207288071e+01 2.3162199233503873e+01 0 0 0
78 2 9.5517776649269184e+00 2.7254260154484150e+01 1.6994963788465083e+00 0 -1 0
1605 2 1.6589651772392791e+01 2.0385813841143435e+01 2.3685519949841652e+01 0 0 0
2532 2 1.3769397686494720e+01 2.4452698786257042e+01 1.7013433228884111e+01 0 0 0
77 2 9.6515586213798876e+00 2.8475927854660689e+01 2.7656441926947664e+00 0 -1 0
100 1 4.6267528122063357e+00 7.4004350226779803e+00 8.1317262044976673e+00 0 0 0
1877 2 9.8114469056461928e+00 7.5721717065553236e+00 2.2665894053226165e+01 0 0 0
2669 2 2.1591700677183717e+01 2.7558285187555356e+01 1.9149722497714144e+01 0 0 0
2323 1 7.4469622955315646e+00 1.9884222776171534e+01 5.3089232578663292e-01 0 1 1
20 2 2.0213949477762984e+01 7.2973912477615084e+00 2.2198369378036841e+01 0 0 -1
1016 2 8.2828811308105905e+00 6.6773242460060347e+00 1.7178642575600154e+01 0 1 -1
322 1 7.8287649950908698e+00 2.0295463472687231e+01 8.1464200869188446e+00 0 0 0
995 2 3.4286911868793624e+00 1.0041420764800492e+01 1.8727667377386525e+00 0 1 0
97 1 1.4184544500987393e+01 8.2960508282709604e+00 5.4332211400651635e+00 0 0 0
2361 2 1.1289221988667723e+01 1.6876173431998836e+01 1.1415310192053518e+01 0 0 0
708 2 2.0169684983875239e+01 1.1003806855022539e+01 1.6436570807199711e+01 0 0 0
899 2 1.3267154662906403e+01 2.7413220013911577e+01 1.4903343518323704e+01 0 0 0
1078 1 1.4678877463977546e+01 2.4816400592948789e+01 1.3996393041549762e+01 0 0 0
963 2 1.3959929110074144e+01 2.2546570765598634e+01 4.8667140083618671e-01 0 0 0
1547 2 1.4145373208045864e+01 1.4065977313954100e+01 2.4758149189328368e+01 0 1 0
2353 1 2.0120914612062283e+01 2.3138959852990684e+01 2.2471146445888373e+01 0 0 0
917 2 3.1275552016801456e+00 5.5748460026573428e+00 5.8103331010103354e-01 0 1 0
753 2 1.0068018752076718e+01 2.0200743657841116e+01 1.6428428393573657e+01 0 0 0
985 1 1.0488422409057145e+01 1.3016520832777076e+01 1.8012524007964583e+01 0 0 0
1884 2 1.0556001547883923e+01 1.9157363780724253e+01 1.1566525449899366e+01 0 0 0
76 1 9.0512385308905152e+00 2.7887293493600957e+01 2.2620676635861883e+00 0 -1 0
298 1 1.1359682331975055e+01 2.1801035565026737e+01 7.9497689190585170e+00 0 0 0
1707 2 1.4063300053123829e+01 1.7522934650684419e+01 1.8304112445579548e+01 0 0 -1
70 1 9.0911658962981630e+00 2.0098636517241367e+01 1.2626136351853296e+01 0 0 0
612 2 7.0449966762413467e+00 6.4682061179689452e+00 1.3560715679968032e+01 0 1 0
2396 2 1.3249827357858946e+01 3.1015253286553946e+01 1.2271840187938285e+01 0 0 0
1079 2 1.5046369454280732e+01 2.4262753304146958e+01 1.4711633968160069e+01 0 0 0
883 1 1.2206970241099590e+01 6.6339410429317294e+00 1.6333793978912492e+01 0 1 -1
2442 2 1.8110594405210961e+01 1.9806526641725707e+01 1.1497592447571060e+01 0 0 1
1915 1 1.9963181286931341e+01 2.5160731247185232e+01 1.4355788898406137e+01 0 0 0
2451 2 1.6732147106913864e+01 2.5674159712743990e+01 1.8819990398983293e+01 0 0 0
2315 2 1.8141587772725519e+01 2.7756058349475737e+01 1.4516463320404048e+01 0 0 1
1006 1 1.2982421311866595e+01 3.9839562416077019e+00 1.2044712277017414e+01 0 1 0
983 2 1.5652271806898341e+01 5.4735270577928148e+00 1.2323630766943419e+01 0 1 -1
923 2 2.1591384257063098e+01 2.1987908951099630e+01 1.3144792516666469e+01 0 0 0
2572 1 1.6607475592061792e+01 2.3824689855856171e+01 1.8390843557079272e+01 0 0 0
354 2 7.1539926575737258e+00 9.2612259660751342e+00 8.8709278241654452e+00 0 0 0
156 2 1.1713974798734682e+01 3.2331281539233765e+00 1.0991683673066847e+01 0 0 0
1589 2 1.0061976231251929e+01 2.4974346579286994e+01 3.6183615513446075e+00 0 -1 1
1616 2 1.1026945716119272e+01 2.2471050613619411e+01 1.4436215267569789e+01 0 -1 0
1050 2 1.7093665758418371e+01 2.4044723912571662e+01 4.8791553454943983e+00 0 0 0
1081 1 1.7698890387300782e+01 1.5900149482205332e+01 2.1222151706756183e+01 0 0 -1
1594 1 2.0439121787857651e+01 2.3879249447491684e+01 1.7373587459591434e+01 0 0 0
2445 2 1.3900426993128793e+01 1.8685601168262753e+01 8.2805099876591193e+00 0 1 0
1588 1 9.5404649867022986e+00 2.4283412291016099e+01 3.1963867416861866e+00 0 -1 1
1150 1 1.8203355212450184e+01 2.0565902473108650e+01 1.5051975869140394e+01 0 0 0
1841 2 1.9987816565962476e+01 1.7957865526951174e+01 2.6240379301784717e+01 0 0 0
313 1 1.2555995411480252e+01 1.8664283740434101e+01 1.8027727869583927e+01 0 0 -1
1118 2 2.2838160358328622e+01 2.5446846183137062e+01 1.9069962562553318e+01 0 0 -1
2624 2 1.0492979434936284e+01 1.6542547624212673e+01 2.0521942034950765e+01 0 0 0
2613 2 1.6176519365158185e+01 2.5888223503734352e+01 1.3728394892196057e+01 0 0 1
1133 2 1.0467933755283498e+01 7.8579544270101040e+00 8.9652630550713486e+00 0 1 0
1762 1 1.1752633369360041e+01 1.1161237337799085e+01 1.2286617711418831e+01 0 0 0
2556 2 1.9053101744207865e+01 2.0572143253848335e+01 2.3778044289073442e+01 0 0 0
2548 1 2.2734461359090268e+01 1.4199195195421584e+01 2.1039496811115384e+01 0 1 0
1870 1 1.4880032317078744e+01 2.8099692215473571e+01 1.7754086780370205e+01 0 0 0
1662 2 7.1671616226475710e+00 1.6338882228674471e+01 3.6821625374217066e+00 0 -1 1
1136 2 2.2243336255359480e+01 3.4284073958177849e+01 2.5720392229794040e+01 0 0 -1
1736 2 1.3360028794192123e+01 1.1963187290484930e+01 9.8751825432827598e+00 0 0 0
376 1 2.2312725368311899e+01 3.1361166951224259e+01 1.9627851554568956e+01 0 -1 0
1109 2 1.4785115197916120e+01 8.9700052882417900e+00 1.6567128296654786e+01 0 0 0
372 2 1.3794000975252155e+01 7.1915950528797605e+00 2.4745468914875890e+01 0 0 0
333 2 1.5976569354269198e+01 3.2062152944773374e+01 1.8523988456999977e+01 0 0 0
2555 2 1.9735906813607158e+01 2.1993816587042641e+01 2.3422753017401220e+01 0 0 0
374 2 6.1913432617584476e+00 7.1174545921517378e+00 5.5474288977991346e+00 0 0 0
1801 1 1.3824607753123654e+01 2.1093611972287100e+01 1.5019239684605809e+01 0 -1 0
442 1 9.0960846102579893e+00 8.2885758155019627e+00 2.9785274226658593e+00 0 0 0
2601 2 1.8134151922013242e+01 2.4149687272943265e+01 8.5668759989569168e+00 0 0 0
2600 2 1.9510907619286243e+01 2.4048309080649609e+01 7.6449212350830322e+00 0 0 0
188 2 1.5526609130753393e+01 2.8428843561913919e+01 1.1523150138021879e+01 0 0 0
2444 2 1.4729569547869175e+01 1.7724627692950648e+01 7.5105977878576677e+00 0 1 0
1569 2 1.6346452604063042e+01 3.2152755421532881e+01 2.1168872728918842e+01 0 0 0
2642 2 8.4806893042509799e+00 5.0972281415494418e+00 1.1189308525758129e+01 0 0 1
2307 2 2.1897849347893526e+01 1.0132089291142170e+01 2.5646084796401116e+01 0 0 -1
1119 2 2.2835115858668214e+01 2.3972937714357776e+01 1.9426053152266132e+01 0 0 -1
1088 2 9.1255664249538384e+00 2.0776161985526254e+01 3.6995217420419757e-01 0 0 0
1755 2 2.4832031938248328e+01 2.3255943496013725e+01 1.0826440046782356e+01 0 -1 0
269 2 1.4671606395593667e+01 2.0562329074740063e+01 1.9520886128041532e+01 0 -1 -1
2306 2 2.2006353022881498e+01 1.1657853777169592e+01 2.6103312225443272e+01 0 0 -1
198 2 1.3674667109461996e+01 2.6501383441469287e+01 7.7573408504775125e+00 0 -1 0
1089 2 1.0200505961728105e+01 2.1863921062819905e+01 7.5783526720547123e-01 0 0 0
2468 2 1.1058667993404727e+01 1.4549964602253088e+01 4.7938164521816677e+00 0 0 1
2570 2 8.0507421262941499e+00 2.0478825992410647e+00 7.1432847136568887e+00 0 1 0
776 2 1.1629955583037935e+01 2.6493949997450862e+01 4.6991982663253395e+00 0 0 0
479 2 2.1012367611811925e+01 1.7068444518304617e+01 1.9465403258944036e+01 0 0 -1
2637 2 5.5788079604505958e+00 1.7765148705693107e+01 4.7914762466615121e-02 0 0 1
1590 2 8.6150027928172239e+00 2.4301910374576781e+01 3.4064565722431759e+00 0 -1 1
2604 2 1.8305365602267550e+01 1.8528672300641681e+01 2.3873338125689592e+01 0 1 0
2397 2 1.4270834349668821e+01 3.0156940962903729e+01 1.1546191690811883e+01 0 0 0
1134 2 1.0542472816097503e+01 7.5783714031833815e+00 1.0505415324056502e+01 0 1 0
2644 1 2.1737234549043471e+01 3.2538056707793103e+01 2.3550054051831790e+01 0 -1 0
3026 2 2.7297654630583892e+01 2.9352297157523328e+01 1.8237923131278755e+01 0 0 0
104 2 5.5407867211085637e+00 1.1810258422738773e+01 9.6878056027784680e+00 0 0 0
1735 1 1.3843730550480689e+01 1.1414940386421561e+01 1.0483857674347462e+01 0 0 0
2646 2 2.2180116434979134e+01 3.2923911598656304e+01 2.2789104486719157e+01 0 -1 0
2413 1 1.3017710899904909e+01 1.8701939747104845e+01 1.5513470001068788e+01 0 0 1
895 1 2.1720950179464559e+01 2.7774426825150531e+01 2.2179961472753266e+01 0 0 -1
2603 2 1.7164825730323116e+01 1.8664551754316996e+01 2.4853848112523366e+01 0 1 0
2554 1 1.9649543958464903e+01 2.1284000733726781e+01 2.4081800147593171e+01 0 0 0
2629 1 7.3738017663989339e+00 7.6255514640110551e+00 1.0090760092227987e+01 0 0 0
2305 1 2.2413639301194820e+01 1.0970469818841011e+01 2.5500164481303251e+01 0 0 -1
443 2 8.3016362055704214e+00 7.7536860014559368e+00 3.1717242420975622e+00 0 0 0
1685 2 1.4691170697859565e+01 2.3444366440141607e+01 2.6061618647571425e+01 0 -1 0
345 2 2.9792526496788270e+00 1.1229161361962273e+01 1.1422318230468133e-01 0 0 0
994 1 3.8284833777605378e+00 9.6253727557758673e+00 2.6328635813973298e+00 0 1 0
2641 1 9.4068908628406902e+00 4.9736789550244875e+00 1.0878804323697523e+01 0 0 1
897 2 2.1170554254533926e+01 2.8524722837555625e+01 2.1846780773899546e+01 0 0 -1
318 2 2.4182688687036425e+01 2.7998128396061738e+01 2.4002609907118519e+01 0 -1 -1
725 2 8.0463679428065369e+00 3.0961108340537868e+00 1.4965132988199250e+00 0 0 1
2456 2 1.5776331048991977e+01 2.0390354979671887e+01 3.5244517577920171e+00 0 0 1
1672 1 7.5652898980949388e+00 1.6403174330903885e+00 5.7135239245219873e+00 0 0 0
1617 2 1.2119020323868194e+01 2.2781786039583686e+01 1.3391275707110299e+01 0 -1 0
1117 1 2.3410229072350479e+01 2.4716399715666128e+01 1.9306695641135583e+01 0 0 -1
1737 2 1.4492182051871389e+01 1.2000725146233085e+01 1.0912138851988592e+01 0 0 0
1909 1 1.2309620630526345e+01 1.3185134243813136e+01 1.4036455848858159e+01 0 0 0
1682 2 7.6540688536587371e+00 5.7908127406404546e+00 6.4091934498098748e+00 0 0 0
368 2 1.7329301603312853e+01 1.3093441807254607e+01 1.6179583676255575e+01 0 0 -1
197 2 1.3834031337625905e+01 2.6657253048731864e+01 9.3242309893455424e+00 0 -1 0
759 2 2.0931034918698590e+01 2.7555008102249452e+01 6.0959606769097130e+00 0 -1 0
2474 2 1.1098676265169725e+01 2.8664828725970121e+01 5.0783735295692409e+00 0 -1 1
444 2 8.7676978619884647e+00 9.2092808336019019e+00 2.8709718975816942e+00 0 0 0
1513 1 7.0067322603757436e+00 1.8788871711293162e+01 5.8719881687955704e+00 0 0 0
1614 2 1.8800653690869730e+01 7.4337015974623810e+00 1.3711747508515797e+01 0 -1 0
1681 1 6.7066133780277166e+00 5.6496533279890135e+00 6.4812440582325408e+00 0 0 0
2467 1 1.0864429893845628e+01 1.3765045808312030e+01 5.3996345855357522e+00 0 0 1
1596 2 1.9803393307309261e+01 2.4623417597717697e+01 1.7213583207455429e+01 0 0 0
1677 2 9.1226561229935044e+00 1.6328206556483781e+01 1.6612447379448081e+01 0 0 0
2001 2 2.1708483188060519e+01 1.2648622983743284e+01 1.5597859057670185e+01 0 0 0
1151 2 1.7965312671288029e+01 2.0527022867808306e+01 1.4103627778807468e+01 0 0 0
1691 2 1.5597824012911172e+01 2.4567466915434995e+01 2.6563792106607811e+00 0 -1 1
316 1 2.3267640904905086e+01 2.7944620017930976e+01 2.4346854312827993e+01 0 -1 -1
2612 2 1.7402852472598678e+01 2.6180736906215788e+01 1.2846281618617324e+01 0 0 1
2491 1 8.3619757207492658e+00 1.9559496872183299e+01 3.8805293724414658e+00 0 0 1
1828 1 1.1032926275446309e+01 2.5998645809532917e+01 9.8224520532481865e+00 0 -1 0
1110 2 1.6397523670618217e+01 8.7733991674798908e+00 1.6905418614893840e+01 0 0 0
1876 1 9.5688389006649377e+00 6.6835041938215953e+00 2.2172323541575576e+01 0 0 0
2563 1 9.2623211589440455e+00 1.0972377564470809e+01 2.7613683730628078e+00 0 1 0
2630 2 7.3677046442909742e+00 6.7210601257176368e+00 1.0397877630703478e+01 0 0 0
216 2 1.7887641202770617e+01 2.3497745706801840e+01 1.2447867419191965e+01 0 0 0
819 2 2.1258146108934419e+01 3.1166502887325009e+01 1.8142874044057550e+01 0 0 -1
373 1 5.6530716097740328e+00 7.6795746475659090e+00 4.9649025706336101e+00 0 0 0
1049 2 1.7347841221460243e+01 2.4316328740398109e+01 6.3890240043054440e+00 0 0 0
194 2 5.9711712869573637e+00 2.1070061613618972e+01 6.9287522129760104e-01 0 -1 0
214 1 1.7140060980938401e+01 2.3023736021134710e+01 1.2722025276069669e+01 0 0 0
1900 1 1.0053541382516002e+01 2.5918684655527763e+01 6.7568919451437537e-01 0 -1 1
375 2 6.0347162556739207e+00 8.5965231585861268e+00 4.9065375382909284e+00 0 0 0
1668 2 6.1390949756222284e+00 1.1886197045082756e+01 2.0753893805526018e+00 0 0 1
2439 2 7.8837698387223085e+00 1.2722243127521784e+01 5.5938917140559701e+00 0 1 0
189 2 1.6466468460244954e+01 2.9763725663911085e+01 1.1360598943646643e+01 0 0 0
844 1 1.5959364666603420e+01 1.6965937694330254e+01 2.5868366365107878e+01 0 0 -1
187 1 1.5785356792334909e+01 2.9305334716722211e+01 1.1957585840467001e+01 0 0 0
1611 2 8.5615063204032644e+00 1.7887873214196652e+01 3.0661770102593180e+00 0 -1 0
314 2 1.2548030603154171e+01 1.8664498807182373e+01 1.7064030930270743e+01 0 0 -1
2602 1 1.7715516974043314e+01 1.9289482569149278e+01 2.4357999092896229e+01 0 1 0
1548 2 1.3048212629035037e+01 1.5070588322256640e+01 2.5477616654409484e+01 0 1 0
1560 2 5.2757341470940915e+00 9.8901553832625766e-01 3.3034135449080870e+00 0 1 1
1637 2 1.0593844015248262e+01 1.0094662013106142e+01 1.8074002236982910e+01 0 0 0
271 1 9.5566502240040485e+00 1.2088698526396698e+01 2.2400160712933364e+01 0 0 0
2469 2 1.1636781209918466e+01 1.3133141281535147e+01 5.3270707444354946e+00 0 0 1
1657 1 1.8441197334732795e+01 2.7445263267560819e+01 2.0712535537217381e+01 0 -1 0
385 1 1.0579615950310613e+01 1.3077955928265201e+01 1.1587763557286102e+00 0 0 0
154 1 1.0847515986605238e+01 2.8715678107762823e+00 1.0696549373174021e+01 0 0 0
29 2 2.2954313778394138e+01 2.3438155454591783e+01 7.8602895835973250e+00 0 0 0
1152 2 1.7456012218291939e+01 2.0239362108988558e+01 1.5505759234191208e+01 0 0 0
625 1 2.4251259933346518e+01 1.5669908959222013e+01 2.4532278904709358e+01 0 0 -1
1878 2 1.0240869577165418e+01 6.3081490450799587e+00 2.1594484209106156e+01 0 0 0
2437 1 8.7017804157122889e+00 1.2254114548425441e+01 5.3419592894083827e+00 0 1 0
1615 1 1.2007851527007153e+01 2.2647267722112886e+01 1.4371890617629438e+01 0 -1 0
920 2 2.6598885605703074e+01 2.1700699162940808e+01 2.2865870751977688e+01 0 0 -1
284 2 2.5528935409591860e+01 3.0739904107217338e+01 1.9198958374279652e+01 0 0 -1
871 1 1.1994739527326011e+01 1.4534515331554303e+01 1.6566648638186653e+01 0 0 0
820 1 8.2246895151248829e+00 1.6733042025139010e+01 2.7106264582214262e-01 0 0 0
2670 2 2.2276132269647121e+01 2.7484491082724539e+01 2.0551888805220244e+01 0 0 0
117 2 1.4154722771117122e+01 1.6504885583764370e+01 2.8268011819940351e+00 0 0 0
879 2 1.6612942902493423e+01 6.8315747782403342e+00 6.3414642705208601e+00 0 0 0
2492 2 7.7568620237936106e+00 2.0322875020039611e+01 3.7111019813633566e+00 0 0 1
1085 2 1.5760226426221664e+01 1.6755870227295681e+01 6.0010391880515508e+00 0 0 0
848 2 1.5833902005883065e+01 2.1751099227765643e+01 1.2567007525030998e+01 0 0 -1
273 2 1.0295129170672162e+01 1.2574973303518075e+01 2.1961195882897954e+01 0 0 0
1084 1 1.5798139333534436e+01 1.7747883116866102e+01 6.0517498349755652e+00 0 0 0
1910 2 1.2742998925882828e+01 1.3857405364560854e+01 1.3498423282359260e+01 0 0 0
1087 1 2.0033581868864509e+01 2.8487212295636933e+01 2.7186248163950662e+01 0 0 -1
360 2 1.6548010411282377e+01 2.7120413987495734e+01 2.4384289358920970e+01 0 0 0
196 1 1.3241758776923122e+01 2.6846022672352728e+01 8.5831529548109149e+00 0 -1 0
777 2 1.2049806229389956e+01 2.6482834697577459e+01 3.1775767257038279e+00 0 0 0
308 2 2.4936500454180283e+01 3.1272836838870045e+01 2.4422182659404900e+01 0 0 -1
309 2 2.6155021363718404e+01 3.1227324973827336e+01 2.3507503029806990e+01 0 0 -1
3003 2 1.0446608006922194e+01 4.3074364057672900e+00 9.1136510438182565e+00 0 1 0
1809 2 1.9051745986058773e+01 9.4538545906182208e+00 1.4693934607866522e+01 0 0 0
880 1 1.6307450942866041e+01 2.0061064983678456e+01 2.0352517598121199e+01 0 0 0
315 2 1.1668454268863496e+01 1.8509624534851255e+01 1.8348742739783205e+01 0 0 -1
283 1 2.5145131492266209e+01 3.1321488249157106e+01 1.9887052160873438e+01 0 0 -1
386 2 9.7039664223906676e+00 1.3407917188350662e+01 9.1767287702896871e-01 0 0 0
2672 2 4.2555898973339525e+00 6.5459074651700728e+00 1.2801469938454089e+01 0 1 0
726 2 7.5164904393409397e+00 3.4082057139681874e+00 2.9775728468022087e+00 0 0 1
1545 2 7.4985802763818388e+00 9.9276630785174582e+00 1.5323975684513648e+01 0 0 0
900 2 1.4022061256796029e+01 2.6198797272429534e+01 1.4451561035225920e+01 0 0 0