LAMMPS data file via write_data, version 8 Apr 2021, timestep = 4432000

1008 atoms
2 atom types

0.1954178057169573 18.20413719427902 xlo xhi
0.1546983445561992 22.415690655427504 ylo yhi
0.1856923776568595 19.32002362235836 zlo zhi
-0.11108801938938777 -6.7463232586980775 0.10635736123743256 xy xz yz

Masses

1 16
2 2

Atoms # atomic

1 1 6.2154321440003555 0.6927403648506749 4.823375983603058 0 0 0
3 2 6.433291118288804 1.2627465794031005 3.9949877765915365 0 0 0
4 1 3.6780008814274243 1.087227035210751 5.31560606923099 0 0 0
6 2 3.6481831783952208 1.4552699109007166 6.21424512281605 0 0 0
7 1 -0.6437017118594998 6.711996148612964 5.315424313908183 0 0 0
8 2 -0.7726087600956099 6.316060676265997 6.242072195549419 0 0 0
10 1 2.0253745622478654 6.619103761824685 5.101026342858278 0 0 0
11 2 1.0986540450884408 6.878954775272763 5.265264628185431 0 0 0
12 2 2.5086392039251533 7.471649246203018 5.224853611359478 0 0 0
25 1 4.703125398518393 6.170328320947973 7.1412303760758755 0 0 0
26 2 5.374939392823441 6.8761042463236475 7.163733341802862 0 0 0
27 2 3.874983605837802 6.656663231797676 7.51431461211182 0 0 0
28 1 5.594709480423387 6.20133652162284 2.435238256664272 0 0 0
29 2 5.595950187917866 5.842351380303764 3.3287419456019447 0 0 0
30 2 5.1065658110303795 7.048129833147399 2.4894775554442172 0 0 0
31 1 1.0886347090437916 1.2973875493186453 2.6795844753009876 0 0 0
33 2 1.013391237450761 1.7331965220580379 3.6116544398529773 0 0 0
34 1 -0.05227182459863233 1.221097490300536 7.268706493574612 0 0 0
36 2 0.24058008924134142 1.9242135330381782 7.908522017509379 0 0 0
37 1 6.154170934249465 2.5558279242671365 2.6480938038570874 0 0 0
38 2 5.397222459260073 3.129824224487354 2.660788620369963 0 0 0
39 2 6.930398708999413 3.1363707670718295 2.6785929868615375 0 0 0
40 1 4.154971544485177 3.025437433899221 7.9688786811195795 0 0 0
41 2 4.921607852692184 3.256013459559179 7.413213400305482 0 0 0
42 2 3.391311249256033 3.54524562460877 7.810535778072172 0 0 0
43 1 -0.7060541270300827 4.971232035620289 7.352375065079926 0 0 0
44 2 -1.4649800932752939 4.345572490385057 7.2371657738232456 0 0 0
45 2 -0.815711111682913 5.276735539280801 8.293129736054972 0 0 0
46 1 1.5321856938682816 4.950526737888423 2.8259906373119583 0 0 0
47 2 0.5416635026639777 4.95040735150596 2.7991543984479335 0 0 0
48 2 1.6562290646817492 5.665841712713041 3.498792091133521 0 0 0
49 1 6.446949794414574 3.5350099859440456 6.546558329280974 0 0 0
50 2 5.937904064390193 3.9305434704997353 5.755013972123248 0 0 0
51 2 6.594380385880679 2.6112930921976703 6.314426553810843 0 0 0
52 1 3.5852607858258274 3.3774810824098984 3.4847555795807965 0 0 0
53 2 2.8177989460242383 3.799105988031703 3.092823850263717 0 0 0
54 2 3.2256205908511077 2.5631239817935723 3.881561544761245 0 0 0
57 2 -0.6148048365796457 3.7639266916115917 4.21379538803015 0 0 0
58 1 1.874807920930715 4.148943997304144 6.7695527007612775 0 0 0
59 2 2.0880820316024336 5.012468623765331 6.284508536989461 0 0 0
60 2 1.0506122368895052 4.280548163012972 7.148104883043333 0 0 0
61 1 7.978427468666262 6.985080032522751 1.3571926846894804 0 0 0
62 2 7.125477023523161 6.986624025956849 1.8618273984039728 0 0 0
64 1 2.699513459152884 7.158020813518407 8.3668422400661 0 0 0
65 2 1.9618469808994663 7.483649085980293 7.864189880383075 0 0 0
72 2 4.01455609277049 1.2358658159389515 1.137189595193425 0 0 0
73 1 5.246248279888638 5.040516199002147 4.780742908843666 0 0 0
74 2 4.845907189759783 5.451978778572375 5.579615518029882 0 0 0
75 2 4.5567617797160205 4.5014932905643645 4.2744790828551045 0 0 0
76 1 0.4821172658904578 2.4480097821854576 4.96087427356224 0 0 0
77 2 0.051175319110819795 1.9625678837574125 5.69000994924755 0 0 0
78 2 1.2609808150290078 2.879909557571606 5.323149479300618 0 0 0
91 1 8.132599010112187 6.908362097247515 4.512876301001468 0 0 0
92 2 8.08596120316063 6.278335036964249 3.80373397843918 0 0 0
93 2 9.042299774645311 7.302129043352397 4.426646756970753 0 0 0
116 2 10.239607853056198 1.7319933787011856 1.893144781137395 0 0 0
127 1 8.48193322644812 5.286408003142406 6.68030331262932 0 0 0
128 2 7.957002452431535 4.471893780621717 6.454113240533828 0 0 0
129 2 8.212590341683399 5.860940669287965 5.905103714207103 0 0 0
139 1 8.334295968434589 4.338657116538762 2.8718813087283 0 0 0
140 2 9.097577274757034 4.550376569095943 2.384902161148894 0 0 0
141 2 8.735060188500125 3.7168062776313326 3.589502851810771 0 0 0
169 1 6.196146850046968 8.654713268337149 4.463534914105414 0 0 0
170 2 6.872871055964132 7.975713327227008 4.439345173359278 0 0 0
171 2 6.617603230572757 9.440335077049049 4.869881510258888 0 0 0
172 1 3.579894775145699 8.799948078733944 5.37065569317878 0 0 0
173 2 3.456423080230411 9.491640124701346 4.661600926398529 0 0 0
174 2 4.416210377316344 8.383678968186567 5.17695712499579 0 0 0
199 1 1.1568047766944551 8.901855382880566 3.073777144446324 0 0 0
200 2 1.1360886133351524 9.566007867986851 2.420278001227053 0 0 0
201 2 0.46448641446104355 8.26585466235862 2.723140852896459 0 0 0
202 1 0.2778321365118589 8.443527391725056 7.56492724926347 0 0 0
203 2 -0.6267591329689659 8.448172364388983 7.750248566695047 0 0 0
204 2 0.4162494249106043 8.891494334103625 6.722590131590345 0 0 0
205 1 6.252352966477246 10.138095376350025 2.200660997126431 0 0 0
206 2 6.12097669703009 9.418778882779277 2.8751452127302706 0 0 0
207 2 6.605903558072751 9.721638480819097 1.3858331877896009 0 0 0
208 1 4.213944754557858 10.338860774543717 7.451940204319556 0 0 0
238 1 3.8025804961296474 8.206439372319734 1.6694155395013077 0 0 0
239 2 3.0828299343568504 8.379065753114755 2.3073635682762705 0 0 0
240 2 3.7848954765992393 8.984487477908694 1.0719421123495345 0 0 0
244 1 0.4386303834195713 10.03811164882126 5.369241818921763 0 0 0
245 2 0.8108269714985034 9.520147313974876 4.614562141854515 0 0 0
283 1 9.739539594920702 8.862531323862738 2.19206493911447 0 0 0
285 2 9.09977345825518 8.192124468596885 1.9492448308021368 0 0 0
288 2 8.233946676050575 8.6605135515139 7.1422179727794814 0 0 0
319 1 6.553609539385172 8.024755119247896 7.854210828803327 0 0 0
66 2 3.061333678406665 7.914702936064516 8.910697771615562 0 0 0
21 2 1.1945497246890826 2.3436943890470525 1.2275944105632086 0 0 0
321 2 7.054945171409519 7.348403480119284 8.368595306178683 0 0 0
192 2 0.746292503713568 10.120336893542111 8.723798880202269 0 0 0
320 2 6.527415403233732 8.86510000471406 8.326889070348589 0 0 0
115 1 10.357936297588864 1.2856052488114833 2.730740907939538 0 0 0
118 1 9.187182327605251 1.17606636044297 7.2154798400152815 0 0 0
130 1 10.876595393929362 5.0316660984576185 2.3314055509579723 0 0 0
160 1 9.571870128952973 2.8755607586428305 4.803781199656429 0 0 0
162 2 9.945909561686038 2.340987277051193 4.0618949566045055 0 0 0
284 2 9.787968529580498 8.963609822365918 3.146535637310658 0 0 0
329 2 9.578485557284823 9.485657660061346 5.488738333168337 0 0 0
286 1 9.179086662344591 8.894612005457068 7.008399694207573 0 0 0
328 1 9.975249563344516 9.940091396980502 4.702780303764266 0 0 0
63 2 8.236008585087454 6.082167290403248 1.1677760148880358 0 0 0
210 2 4.120244948748079 9.540390241931643 6.831218461877622 0 0 0
272 2 9.742423099297364 9.947938025126982 0.9926367654422882 0 0 0
330 2 9.274035242480762 10.566139098507865 4.276715935252546 0 0 0
132 2 11.17104343470606 5.76734869529901 2.854616522183637 0 0 0
94 1 10.983025943582275 7.077930908072441 4.379320261219905 0 0 0
119 2 9.142242953014437 1.7660814623293062 7.944037933991844 0 0 0
131 2 11.52287540691193 4.329453437424814 2.6586034097475184 0 0 0
161 2 10.214665554035937 3.527599932749942 5.083902337177123 0 0 0
287 2 9.68214705617366 8.163559521392449 7.3469551894338325 0 0 0
144 2 10.084440998326816 4.907236919584778 6.605361659724436 0 0 0
323 2 11.82293733988387 8.677026093820617 2.033213622441637 0 0 0
276 2 9.296728405063698 10.140644930675988 8.669864894537794 0 0 0
96 2 11.136533987820817 6.226808297295539 4.832962218519113 0 0 0
95 2 11.770132437613242 7.695511052409934 4.646378317466573 0 0 0
322 1 12.648109632953757 8.226359473315954 1.7602408657384006 0 0 0
142 1 10.91731697002469 4.640210291644519 6.155724857497724 0 0 0
155 2 13.035139511151504 1.3627004947699306 0.9832205484455917 0 0 0
324 2 12.395824381447222 7.475851213119907 1.1488248411999467 0 0 0
120 2 9.496010709102999 1.7835470244694627 6.4731209704229595 0 0 0
149 2 10.959700378482168 6.464773071878612 8.669574473395064 0 0 0
18 2 5.557324891472429 4.893378606579235 0.8447820030712233 0 0 0
153 2 6.604396092940439 1.5399300508699616 8.432079272044872 0 0 0
246 2 1.0293494421553446 10.671841600163 5.776748301140886 0 0 0
32 2 2.0036306871484566 1.0247784262350759 2.5780166473949273 0 0 0
35 2 -0.989732618783884 1.034487830446351 7.5293065768435214 0 0 0
80 2 6.5283797702569535 1.890186384794452 1.0250106037287119 0 0 0
14 2 5.286745883069078 5.464556315146203 8.63065370765479 0 0 0
671 2 8.490231362333436 5.767575766287502 8.39873149138528 0 0 0
5 2 4.675156132658623 0.8629740230354614 5.126519083301536 0 0 0
148 1 11.046678668180641 7.274178634337803 8.122990280363739 0 0 0
136 1 12.651109836985958 3.44940165848396 3.598258239063428 0 0 0
89 2 12.513157823210022 1.9833043483264317 4.614084410345117 0 0 0
235 1 -2.3895575259887214 8.242721554113059 8.25834786963675 0 0 0
55 1 16.852618925837795 4.401842186717857 3.7117976631385337 -1 0 0
670 1 8.10733896337901 6.0723787908286795 9.19516615414339 0 0 0
585 2 4.020176291494717 2.091289290494631 9.263468843645972 0 0 0
56 2 -1.0518853499281238 5.21321816176193 4.265782322499474 0 0 0
154 1 13.018191945533385 0.5319152971941141 1.5227212188702155 0 0 0
84 2 3.1573144945925185 6.527117200891402 0.6679333400534575 0 0 0
209 2 3.504012771376131 10.963663571581023 7.118432023169766 0 0 0
9 2 -1.270642963369467 7.431637034287405 5.259143209999313 0 0 0
117 2 9.719278560724826 0.5787803053793122 2.777380379632662 0 0 0
83 2 2.201666807448825 5.542452688913108 1.2814455334124322 0 0 0
152 2 7.334041354122252 0.5661411732249262 7.41916409850933 0 0 0
97 1 13.930505009683257 5.166577366754484 9.351710729690353 0 0 0
521 2 2.2986096265541325 5.6059302110096825 9.070759726615536 0 0 0
217 1 6.454108648173394 10.926491398560279 6.026381985702294 0 0 0
68 2 -2.582300816834117 1.5351443893887042 9.036372703736873 0 0 0
399 2 8.174646281345524 0.2621746501599277 1.1874537208229048 0 0 0
309 2 7.603859298355202 11.111961425876157 2.6361775415801967 0 0 0
221 2 4.162642600242003 10.566603390684014 2.570127389389463 0 0 0
133 1 15.238509719260081 3.5820784848223064 6.56099538476514 0 0 0
187 1 1.1815625982094424 10.299669433863102 0.6905917025204887 0 0 0
219 2 5.916664986957324 10.812319913514624 6.77897680136091 0 0 0
151 1 6.523803158152017 0.7139021831099303 7.953269918912217 0 0 0
584 2 2.9597292048613153 0.9089379948685969 9.512962116671149 0 0 0
775 1 6.582598053441676 10.24055941857193 9.516572985337984 0 0 0
125 2 13.54074479802737 3.2622918071867946 7.521290608422044 0 0 0
24 2 -0.4092595798248332 2.9918761636612183 9.593508040633855 0 0 0
122 2 15.739523586996105 3.222671683094515 3.0976887189146303 0 0 0
114 2 15.585487278104603 7.111714458095316 2.5407927550609988 0 0 0
167 2 11.344540519404179 5.863950041370573 0.9919352960895178 0 0 0
780 2 12.837679685251533 9.30494774138979 0.3460293908696025 0 0 0
15 2 4.45673500290398 4.669823589588901 9.69652807632888 0 0 0
236 2 -2.580435111347313 9.105135323364262 8.772160580312427 0 0 0
258 2 12.67509720170104 9.423096398807695 4.75572877419296 0 0 0
143 2 11.463508199605453 4.291535846724125 6.882927171663156 0 0 0
138 2 13.375042037763542 3.171766860987828 3.044991428574507 0 0 0
150 2 11.577988735174358 7.8730468290029325 8.663163818688233 0 0 0
306 2 13.79472449421453 10.462669059134944 3.209086376805413 0 0 0
256 1 12.796379510727684 8.600193831947848 5.325389099946478 0 0 0
88 1 12.606897474234572 1.2351092896792168 5.22502242621182 0 0 0
137 2 13.200975517879096 4.041453988333901 4.1808967563897514 0 0 0
113 2 13.97945572534257 7.302753428485597 2.5140850813734286 0 0 0
302 2 14.600333484384803 10.675411757584419 6.935932311537106 0 0 0
101 2 14.91102781953606 5.306181180680901 1.4856311375555702 0 0 0
111 2 12.630328613906794 6.900416780434829 7.215581815739321 0 0 0
126 2 12.565414737660712 2.205705318029559 7.013115397033069 0 0 0
294 2 12.821703265205475 9.536139306321301 6.787234359651055 0 0 0
90 2 13.531145628216935 0.9148196591358125 5.0482119626911635 0 0 0
257 2 13.735550066132612 8.362683436163742 5.183713463759357 0 0 0
157 1 14.11918580559384 5.311019565364726 4.927860604162118 0 0 0
124 1 12.71048813463714 2.8696421787055297 7.728255927008107 0 0 0
112 1 14.74361664027237 6.728027026735744 2.8050968764860835 0 0 0
291 2 15.281066375733278 9.678549427050704 1.5293314935254863 0 0 0
289 1 15.073548145079648 9.994288509987468 2.442931476351137 0 0 0
158 2 14.491623898805505 5.955200214399912 4.157446495577402 0 0 0
292 1 12.89151316816122 10.156942079897323 7.538611856780637 0 0 0
123 2 15.406462268805958 2.3105984110379723 1.8673185378065984 0 0 0
109 1 13.572634578972306 6.712441151956671 7.0527538728670995 0 0 0
159 2 13.894265513839567 5.981742787344696 5.670868966153689 0 0 0
668 2 12.854624658787857 2.302770184707107 9.384664561420836 0 0 0
121 1 15.131553545661623 2.481216527699471 2.7707968656395017 0 0 0
13 1 5.346797199918001 5.10778505798603 9.532018700484342 0 0 0
836 2 12.62838587247449 9.471020364674615 9.003391443080899 0 0 0
237 2 14.893818240109454 8.012538874195252 7.603796841038066 0 0 0
79 1 7.03990322900362 1.5342535416025693 0.31626821172198377 0 0 1
301 1 15.366908326498303 11.057101349665935 6.4235963117598445 0 0 0
311 2 10.761512557161845 11.186585448283205 5.720866754774177 0 0 0
87 2 15.459548693988452 1.418828863958877 4.099162636996142 0 0 0
19 1 1.2948414814209235 2.7962742116484938 0.39250998850455787 0 0 0
110 2 13.920038468875862 6.193021624932102 7.847801004005764 0 0 0
106 1 9.45232708712952 2.9842859413977334 9.562975566127612 0 0 0
305 2 12.289299420230769 11.039489390658387 3.325829451366375 0 0 0
69 2 14.655817815850275 0.4316134786586401 7.979913474288314 0 0 0
486 2 11.728450361601471 0.4960506879987001 9.353356651594032 0 0 0
776 2 7.506906419238533 10.467431973664754 9.676289723523666 0 0 0
147 2 16.838275215384105 8.054431095147503 1.27649648117463 0 0 0
163 1 16.02106958094097 1.511657468139705 0.3575627544166923 0 0 0
304 1 13.027489269705576 10.689567730995336 3.816685019045898 0 0 0
224 2 -0.5434709116572753 11.189036363995282 4.194933722090437 0 0 0
156 2 12.261665336288443 0.6189657902400821 2.189994237377252 0 0 0
753 2 3.998769067739879 9.852703814665995 9.083450187343127 0 0 0
135 2 15.310274976908142 2.691841958165865 6.137293286502946 0 0 0
86 2 15.99890130103719 0.28948802402697715 5.109712307626547 0 0 0
290 2 15.73682525910855 10.659619138022794 2.6624092791518166 0 0 0
85 1 15.384681312480629 1.0650860961587338 4.99694564899951 0 0 0
189 2 2.0117923102586523 10.735925863164391 0.5533883389709771 0 0 0
108 2 8.48611325241613 3.1766957222032244 9.659069350550157 0 0 0
255 2 15.562012017555132 9.11596687259755 4.123091951118372 0 0 0
145 1 17.108367835418214 7.389864514550048 2.0553102329203465 0 0 0
293 2 12.091721495789184 10.663790715484847 7.400859051122459 0 0 0
222 2 2.78777646895038 11.176731672092385 3.037835624937173 0 0 0
70 1 3.649710694989597 0.5803770270354955 1.825987391447594 0 0 0
253 1 15.451308783488907 8.731627404109247 5.032577844488138 0 0 0
102 2 14.421468233695533 4.119878840288082 0.644619454089468 0 0 0
587 2 -1.7208254586906977 6.976120722151256 9.337442660230652 0 0 0
146 2 17.335579365004527 6.533834046222911 1.6559675237335223 0 0 0
254 2 15.615433436070642 9.484699319447353 5.617127383570453 0 0 0
134 2 14.848396752079067 4.172356031587356 5.8428109649497655 0 0 0
165 2 16.666465205671976 0.9326727637625101 0.8699921713123033 0 0 0
67 1 -2.515570841002602 0.7190271321973586 8.551707502472249 0 0 0
672 2 8.704176230454463 6.715962711981338 9.565924573590449 0 0 0
23 2 1.1696529293857199 3.59328509748873 9.651493076782156 0 0 0
220 1 3.6384109828603943 10.752341464069335 3.3226537680462958 0 0 0
22 1 0.5636517132319965 2.7906659846517234 9.471284621463358 0 0 0
103 1 10.34888581402172 2.9117905491174634 0.38456803696603603 0 0 0
82 1 2.420970690724225 5.924025538148953 0.4239352998143196 0 0 1
602 2 16.73490480685595 4.531379608514955 0.3664683651201229 0 0 0
608 2 6.337864909909199 3.7161916892325775 9.639664267560734 0 0 0
606 2 10.454202824252992 4.352276633619611 9.510635920350852 0 0 0
274 1 9.250160218492233 10.340928866863267 9.612372891752 0 0 0
607 1 6.882682281681952 2.8820602728101217 9.622556600645852 0 0 0
777 2 5.920799048335095 11.012391096830767 9.638631712939544 0 0 0
99 2 13.0644345898927 4.719257420477605 9.541461509936548 0 0 0
604 1 11.082303220193754 5.072739713706639 9.54485253476162 0 0 0
612 2 12.186667366971554 2.8960141555766916 0.33677799189635377 0 0 0
485 2 10.58614631667828 0.27139419067324233 8.274555705323182 0 0 0
100 1 14.912211069131375 4.979441055271553 0.5360950041645547 0 0 0
586 1 -1.0539860719090066 6.312614312881074 9.702157087999245 0 0 0
601 1 17.65949016404308 4.851555976145163 0.2373489400675059 0 0 1
520 1 2.2567437563842216 4.806176167310704 9.605740080389719 0 0 0
20 2 0.6201965745992665 3.553420939265562 0.2770169351901226 0 0 0
190 1 0.5445546356055923 10.364928888333917 9.647824923857938 0 0 0
696 2 -2.23553646367773 11.301818618640093 19.164860065471213 0 0 0
509 2 -0.37427058605201446 0.8400317777029773 14.657090809381147 0 0 0
654 2 7.807857601509794 6.309144520034577 18.49610388624597 0 0 0
517 1 1.8590338414001577 4.8859597714634955 18.931371463919653 0 0 0
593 2 8.579039663257392 0.7991605235819995 14.761252434387568 0 0 0
536 2 -2.3931667509588803 0.5439108197448451 11.860031122109314 0 0 0
749 2 -1.7046967756258606 10.578998629956896 14.773503641015068 0 0 0
623 2 4.794293501380937 1.0381167559365823 17.07089671295812 0 0 0
333 2 8.81225672761465 8.272071334827949 18.832540816793532 0 0 0
191 2 0.7106857186082662 9.575808194667664 10.121792993355843 0 0 0
81 2 -0.26504510078381116 0.9223723779315058 19.075078357461106 0 0 0
537 2 -0.8520484848043242 0.8175126680509137 11.944064661667655 0 0 0
815 2 8.618075193190872 10.985902832181731 16.486778980255814 0 0 0
583 1 3.5942598749702173 1.4966246195215052 10.000846809455162 0 0 0
248 2 0.8580718753834761 8.532159987738538 19.27107150019064 0 0 -1
164 2 8.589209656983469 1.058573726861276 19.10479065476944 0 0 0
588 2 -1.5561914191354855 5.853654818149046 10.380644680368405 0 0 0
168 2 4.171240037532141 6.906666139116227 18.761133056099812 0 0 0
505 1 2.880366161641507 1.4893335190647077 14.094101142787176 0 0 0
506 2 3.1774638041452317 2.097856549966733 14.810972582490978 0 0 0
621 2 7.918124985146336 1.2339869115958306 11.916719095628872 0 0 0
508 1 0.15590179826605016 1.672104392079509 14.611498210902036 0 0 0
332 2 9.803686506797714 9.313742458563064 18.400255970129713 0 0 0
527 2 -2.659306579810206 2.2445752534398253 18.142376771268744 0 0 0
511 1 -3.9136894070292136 6.568915292418002 14.995970830624865 0 0 0
512 2 -4.1526572783398965 5.761317584018879 14.469869575440025 0 0 0
513 2 -3.9160733532766905 6.2921322395037524 15.917828892201301 0 0 0
514 1 -1.2713825581394418 6.550274285433932 14.3035195692241 0 0 0
515 2 -1.1807787220762356 5.714471931466907 14.852107049977635 0 0 0
516 2 -2.1717077349582814 6.85206724255073 14.563242041833671 0 0 0
667 1 12.588050464903636 1.7650399585801693 10.15810823630282 0 0 0
519 2 1.8078310583812527 5.583165185641477 18.296098825353255 0 0 0
828 2 8.801695557318645 8.162762960639173 11.638284382276455 0 0 0
522 2 2.311585918017104 4.994493167536011 10.558157304570111 0 0 0
271 1 3.2271904036710928 10.463050706075801 19.243663259079753 0 0 -1
524 2 -2.842730587915178 3.8404385225720685 9.922214450395057 0 0 0
778 1 6.147633720455915 10.214521671790871 18.85167798942501 0 0 0
798 2 9.738191021807394 9.245712225242222 15.900157409954648 0 0 0
669 2 12.323693657673202 2.3296348230444868 10.944666404346606 0 0 0
529 1 1.2600914309539917 6.720556316605916 16.518606476956684 0 0 0
530 2 1.2994899742197343 6.1150590289135165 15.750091967553862 0 0 0
531 2 0.3372749640442982 7.033439705231054 16.527910970589197 0 0 0
532 1 2.6443371069423147 6.301954683729346 11.841870477835963 0 0 0
533 2 3.53513996813759 6.635059382301343 11.59163931760546 0 0 0
534 2 2.5976161569581655 6.034335045162013 12.790113662752953 0 0 0
535 1 -1.7005319196224624 1.216564458016726 12.082183684034437 0 0 0
525 2 -2.0918982163323476 2.872228681851221 10.940469498153865 0 0 0
740 2 -5.222403308690505 7.441757188183676 18.535451942178508 0 0 0
538 1 -3.091621061589266 1.099046121192564 16.902466707119192 0 0 0
609 2 6.860735864514853 2.4725429597576385 10.529874650465562 0 0 0
540 2 -2.863981709440039 1.5764315116142333 16.066666429337893 0 0 0
541 1 2.8982370064308416 2.9802826357769394 11.91280923177349 0 0 0
542 2 2.996160593060017 2.3498806700556942 12.62494048674079 0 0 0
543 2 3.232954695029584 2.4756643228828734 11.127084687720325 0 0 0
544 1 0.7578521121666949 2.950441762981106 17.14149863210817 0 0 0
545 2 0.6165010957637609 2.3759762996325886 17.979976258181615 0 0 0
546 2 0.5605172607450762 2.453901866774908 16.323533447399097 0 0 0
547 1 -3.6579146526529183 4.666388471027423 17.28141896632521 0 0 0
548 2 -4.458225656990492 4.123914536502951 16.90627916635615 0 0 0
549 2 -3.96480202215222 5.056536072965139 18.08748603636574 0 0 0
550 1 -1.7230618638834494 5.203826737853101 12.086124558804672 0 0 0
551 2 -0.974941822059918 4.522161733819934 12.220698579363438 0 0 0
552 2 -1.623520626201697 5.872841596238664 12.858214657960952 0 0 0
553 1 3.2152707016058955 3.3293218294612457 16.095024832072895 0 0 0
554 2 2.4520574205192354 3.378850527588761 16.696785191188468 0 0 0
555 2 3.916389046540772 3.9950342379711676 16.305233364136786 0 0 0
556 1 0.5163834257065325 3.6922253702656884 12.796858688146173 0 0 0
557 2 1.30251794879324 3.5207441963444523 12.253990360793024 0 0 0
558 2 0.20941952448947165 2.8460236416432076 13.231305124234396 0 0 0
559 1 -3.9558545062730657 4.449855891034179 13.35783202392624 0 0 0
560 2 -3.0926309517334913 4.794514036832058 12.880313188350877 0 0 0
561 2 -3.6087937110338717 3.6790902129978185 13.830581224409189 0 0 0
562 1 -1.3752264207611211 4.550909550448325 15.836148608729697 0 0 0
563 2 -0.6263212322933713 4.276118270972477 16.37933012123851 0 0 0
564 2 -2.170867434027447 4.5029841834771895 16.48260191980511 0 0 0
565 1 5.066790034217149 7.302700377779706 11.071366677381794 0 0 0
743 2 0.15772914448153064 7.336761281142817 10.681781354364396 0 0 0
728 2 -3.507642920650196 11.084026954784795 13.454669822118898 0 0 0
568 1 -1.2460521478446356 7.175344116706929 17.708854197366044 0 0 0
603 2 10.924635429998043 5.389874004113467 18.48480398843629 0 0 0
903 2 4.5315335456645345 0.383368411603525 10.872219456599122 0 0 0
779 2 6.257907760051192 9.797227010256693 17.989925868889156 0 0 0
572 2 -5.614191863006602 1.4487349653245352 18.31079832948766 0 0 0
827 2 10.184862122043157 7.427208985272592 11.356509693915282 0 0 0
570 2 -0.8403221179435367 7.8221669620672625 18.27282520803783 0 0 0
576 2 0.7199747804587258 1.689167939941243 10.743192156801221 0 0 0
577 1 2.07549003652355 5.271922948976237 14.460731313415394 0 0 0
578 2 1.5803666879334726 4.529285706545739 14.0080841578857 0 0 0
579 2 2.5747794541085307 4.721294400289425 15.09956539178998 0 0 0
580 1 -2.715060889854486 2.4348874493963364 14.442759348887018 0 0 0
581 2 -2.406061964721784 1.8665889294681217 13.675474198345771 0 0 0
582 2 -1.9007097272307043 2.98849823267389 14.594671754268763 0 0 0
723 2 3.818877053693799 11.337907330222947 16.475106010144504 0 0 0
507 2 3.5478432121629093 0.7572406673259411 14.228146117284512 0 0 0
589 1 12.162820408464176 1.2856613856055557 14.490445391500113 0 0 0
693 2 -1.2802763256549667 10.422346569109582 9.913314645719774 0 0 0
591 2 12.338426785469458 2.0052686727708924 15.099006534078645 0 0 0
592 1 9.135669727148983 1.5622732904186523 14.824667520906598 0 0 0
826 1 9.369401182649794 7.835581673801296 10.923261539096302 0 0 0
594 2 9.033461443658947 2.2430815143933938 14.115947572155493 0 0 0
595 1 5.000276716720392 6.422822842934421 14.617667967698596 0 0 0
596 2 4.9430505796534305 6.150450087291217 15.545328497459224 0 0 0
597 2 4.897650580675888 5.610082541695536 14.07719351327494 0 0 0
598 1 7.751672900819995 6.1762508289271 14.203306439137178 0 0 0
599 2 6.877608642567417 6.5190622419907305 14.450543559684137 0 0 0
600 2 7.63321628481297 5.850786119027748 13.260905931857168 0 0 0
105 2 3.5339331101710947 2.3173580496994304 18.84833232915138 0 0 0
797 2 10.886122953069572 9.953062754395882 16.63944641140705 0 0 0
724 1 0.6995013988728211 11.02988074291035 13.06326344224767 0 0 0
605 2 11.122905535515862 5.2171297631782085 10.506453695539262 0 0 0
832 1 6.524806637090871 9.966220026702675 14.346117420427063 0 0 0
166 1 4.910298961660552 6.438319511530779 19.29158057406093 0 0 0
825 2 3.577868863717386 9.17394072406221 17.82251357611116 0 0 0
275 2 9.431109656845894 9.401826204096805 9.938526553482717 0 0 0
566 2 5.266752775449428 6.545285481582715 10.48288283667433 0 0 0
611 2 6.384948822465982 2.4968065483758304 18.31899813142055 0 0 0
613 1 10.490550439943036 6.342214030312014 16.787734742325913 0 0 0
614 2 11.020683143773137 7.189551175322478 17.053274370433776 0 0 0
615 2 9.540622512670684 6.606513135977074 16.872628391524163 0 0 0
616 1 11.459989416619445 6.541825828231388 11.883368612453882 0 0 0
617 2 11.305525280584776 5.978703236777067 12.715599117858657 0 0 0
618 2 12.377677907100402 6.840037326656189 11.76418477174292 0 0 0
619 1 7.003336191966293 1.6052494332699363 12.047111439511978 0 0 0
573 2 11.691040874714767 0.3808674395421029 17.3803895682636 0 0 0
809 2 10.313352695823658 10.39856311003732 12.442102385443144 0 0 0
622 1 5.720450089043252 1.3023061450022841 16.843218149081768 0 0 0
805 1 12.367101226484252 10.77736389507278 15.850627960880013 0 0 0
624 2 5.677300683315029 1.8016186292595275 16.019032780056484 0 0 0
625 1 12.013924232598022 3.060458307274888 12.299569065475035 0 0 0
626 2 11.771374589265564 2.5185114516991765 13.054627086756629 0 0 0
627 2 12.636454288267048 3.7732496365254375 12.53181671686033 0 0 0
628 1 9.813709581108169 2.883961911751363 17.04740659988779 0 0 0
629 2 9.617956831960033 2.443059952669349 17.906877985367213 0 0 0
630 2 9.492608801131274 2.2634267199407843 16.307552372848914 0 0 0
631 1 5.232372910448884 4.983098003728148 16.848056488926858 0 0 0
632 2 5.332229762514756 5.435911257339476 17.695040890329278 0 0 0
633 2 6.099767237780292 4.623967968691222 16.673534830901172 0 0 0
634 1 7.484415321378722 5.047474642836903 11.629308802084955 0 0 0
635 2 6.523368249751432 5.031932592256388 11.754165222031526 0 0 0
636 2 7.582082440908613 5.414591609283119 10.750421119857613 0 0 0
637 1 12.230871615042181 3.434663067939907 16.150819827854313 0 0 0
638 2 11.92278842285035 4.132242163037193 15.50644494605571 0 0 0
639 2 11.409624889381535 3.4099419858137425 16.69931693673347 0 0 0
640 1 9.366527828368152 3.702824707604126 13.176646316002396 0 0 0
641 2 8.503481718540845 3.8032448221687245 12.74950150938391 0 0 0
642 2 10.031888749577398 3.5026966857642536 12.504251470741135 0 0 0
643 1 4.85354272195816 4.406933978169253 12.755434354367614 0 0 0
644 2 4.05170390910796 3.9907737450582363 12.365196376511122 0 0 0
645 2 5.2298223557298735 3.730565294800071 13.345973980975248 0 0 0
646 1 7.460640781411293 4.147648827382108 15.927300173549124 0 0 0
647 2 8.128372289821272 3.7484204979380102 16.476338607888614 0 0 0
648 2 7.843892169526431 4.822859693335557 15.316480227550839 0 0 0
649 1 13.922204115478694 7.341138609295813 11.1630645371415 0 0 0
650 2 13.585894180678851 8.058036288295332 10.574916083883137 0 0 0
651 2 -3.1914977675386775 7.667131705720526 11.527761839823896 0 0 0
652 1 8.017721796078613 7.082956039687715 17.941781218441523 0 0 0
653 2 7.285825878830202 7.426650914214924 17.42072770020927 0 0 0
17 2 -1.4836764127861777 3.8442261572609597 18.871375330274038 0 0 -1
711 2 2.2109573361477928 10.45733620633667 12.346811213920896 0 0 0
523 1 -2.291377340520453 3.055892929086663 10.005255713241366 0 0 0
661 1 11.150688197234974 5.167223671286176 14.319445469464455 0 0 0
662 2 10.965410393880218 5.7260828879073005 15.108679226970255 0 0 0
663 2 10.233937337255632 4.754303493606008 14.105596506670024 0 0 0
664 1 6.051582321100944 2.3884574177349363 14.38358396580529 0 0 0
665 2 6.717507117503736 2.9980963844927144 14.80716597996165 0 0 0
666 2 6.46220612692998 2.2458586745674274 13.486967723857427 0 0 0
810 2 8.7504255920975 10.524862109212005 12.159042399580551 0 0 0
796 1 9.912916140218512 9.762153788015189 16.766517204792702 0 0 0
590 2 11.256369411235823 1.0363486761296228 14.704749528757034 0 0 0
673 1 3.6691279560975074 8.689107484935091 14.048606152508706 0 0 0
674 2 4.2425400419364765 7.885425612177105 14.195754304899372 0 0 0
675 2 4.0149406931209395 9.312566779579061 14.707540536193521 0 0 0
676 1 0.9418058111104394 8.626970692104276 14.314492266360011 0 0 0
677 2 1.885206277609923 8.392354874283697 14.286448247500337 0 0 0
678 2 0.352539256389915 7.862130563292269 14.175646995460681 0 0 0
808 1 9.42296463616396 10.59461230805756 12.84108298408402 0 0 0
273 2 4.206557907772366 10.559715350956742 19.27591641246158 0 0 0
107 2 9.623207173615166 2.267017529721494 10.235341678288206 0 0 0
807 2 12.430164912629978 9.885372861835927 15.328294239857042 0 0 0
695 2 -2.898421842366187 10.254677228814238 18.22541271057191 0 0 0
691 1 -2.2168694373427664 10.282733307414167 10.012735388638063 0 0 0
703 1 -1.9224578406836643 8.587107152772353 12.099163156667094 0 0 0
704 2 -1.9630835919853344 9.239321404058078 11.309807592877748 0 0 0
705 2 -1.0288998363368087 8.176061902404 12.00864310751253 0 0 0
706 1 -3.0335966179106384 9.077187767056984 16.86577908781008 0 0 0