LAMMPS data file via write_data, version 3 Mar 2020, timestep = 0

2016 atoms
2 atom types

0.0000000000000000e+00 1.7954580218219846e+01 xlo xhi
-1.8328467731158895e+00 4.6829006750031496e+01 ylo yhi
0.0000000000000000e+00 1.9094533916723584e+01 zlo zhi
4.7002046013113294e-02 -6.6877184494963942e+00 -2.4073890513562901e-02 xy xz yz

Masses

1 16
2 2

Atoms # atomic

579 2 1.2964627241327014e+00 5.2259004201706398e+00 1.5139660142267694e+01 0 0 0
223 1 -1.5734706379460679e+00 3.5624756109122311e+00 1.7333821533650926e+01 -2 0 -2
995 2 5.0166320163755618e+00 2.8800146907854689e+00 6.4985978783181135e+00 3 0 1
654 2 -1.1315679965143297e+00 5.9872540333333264e+00 7.4707439430177622e+00 -1 0 0
394 1 1.1390139694818799e+01 6.0570184643987570e+00 8.1550132602088887e-01 -3 0 -3
578 2 1.2309722493629804e+00 6.2534455240311928e+00 1.6331443796247004e+01 0 0 0
929 2 1.3690990777756271e+01 2.8675906007037764e+00 6.3882705278130887e+00 0 0 0
503 2 4.3380142999188447e+00 -1.0313538973074206e+00 1.0714996172519692e+01 0 0 0
705 2 -2.0923646438594474e+00 6.9585721027586356e+00 1.4209547294797570e+01 -2 0 -1
302 2 9.5268300534348764e+00 5.6668412830787585e+00 5.6438380639113950e-01 0 0 0
299 2 -4.6343520175651891e+00 3.5886821317330329e+00 1.6862706621041347e+01 -2 0 -2
896 2 1.3942172928294363e+01 3.5241307887540883e+00 4.0051159872657269e+00 -1 0 0
150 2 1.0136053874749887e+01 8.5491243471809302e+00 1.6649258168475264e+01 -4 0 -1
406 1 1.5155786577581334e+00 4.7689616062070739e-01 1.1013070915298144e+01 -2 0 -2
513 2 6.8320816316445443e+00 -5.9337610552515541e-01 1.5920380247514307e+01 1 0 0
596 2 5.9991560057170457e-01 2.3237362646442428e+00 4.4460396295968785e+00 3 0 -2
246 2 1.2338829584050977e+01 9.0776745687961586e+00 1.3978640270908921e+01 -4 0 -4
393 2 3.8339601047077037e+00 7.4835198130808820e+00 9.9698767808322426e+00 -1 0 -1
881 2 1.0553539135708254e+01 1.1702091857626247e+00 5.5660375438612926e+00 -3 0 2
319 1 1.0376499076180384e+01 -1.1195169719549538e+00 1.5241431694123669e+01 -4 0 -3
53 2 1.0330536809135621e+01 9.8375236218554818e-02 2.0771489072796809e+00 2 0 0
590 2 -1.2190814915011154e+00 8.3936797508779026e+00 9.5364596341236449e+00 -4 0 -1
609 2 1.0539553213457724e+00 2.3309393157286395e+00 1.8720851872606403e+01 -3 0 -1
1583 2 1.2876812763765127e+01 4.5627244933748070e+00 1.2327187101176170e+01 -1 1 1
122 2 8.9054031524401118e+00 3.1365452639384941e+00 1.3797346400204288e+01 -2 0 -1
295 1 -1.1729885758983407e+00 6.6881180061616572e+00 5.9495900877738723e+00 2 0 3
407 2 5.8746653878495936e-01 5.5534324642462263e-01 1.0689138674020059e+01 -2 0 -2
707 2 -6.4815592190751747e-01 6.4308487945847279e+00 1.7525326944950919e+01 -1 0 -1
972 2 3.4139115974240863e+00 8.3280550035600953e+00 1.5181906810762708e-01 0 0 1
448 1 2.7532745365015909e+00 2.8903615017039961e+00 1.0685491981649166e+01 -1 0 1
244 1 1.2566556727084651e+01 8.1853164484792664e+00 1.3659218886288171e+01 -4 0 -4
762 2 1.3048672097379486e+00 -8.6035179429948283e-01 1.8716850546689042e+01 -3 0 1
687 2 1.6900916686886900e+00 -8.1854587838264359e-01 9.5576917744381635e+00 -3 0 0
457 1 -1.0238150635004488e+00 -1.6004814972729871e+00 3.0461741124507107e+00 -2 0 -2
549 2 6.1810075324196667e+00 9.4134623163811497e+00 1.4789233966675031e+01 -3 0 -4
301 1 8.8551007574049407e+00 5.0225098710000688e+00 6.2974600173271533e-01 0 0 0
149 2 1.0989075551778622e+01 7.2172516356351863e+00 1.6246868962852574e+01 -4 0 -1
270 2 -3.9584154394040638e-01 7.7666244735218619e+00 1.3014726899170887e+01 2 0 -1
463 1 2.2263778897871944e+00 4.2807642954543121e+00 4.9852190042837181e+00 2 0 0
449 2 2.8944052330132810e+00 3.3494253471710866e+00 9.8648301927252948e+00 -1 0 1
524 2 2.0032197542853716e+00 4.3117577323424099e+00 1.1441819513001615e+01 -2 0 -4
434 2 8.2253622132414712e+00 9.3037059861443829e+00 1.6854384662042747e+01 -2 0 0
523 1 1.6983812168736714e+00 5.2440039217019221e+00 1.1650665098012309e+01 -2 0 -4
658 1 8.5960040167775702e+00 1.5420142765946574e+00 1.2818096074148494e+01 -1 0 -2
206 2 4.5031030943673951e+00 6.6771366432887724e-01 1.5156222479744265e+01 3 0 0
96 2 1.1631707847151986e+00 3.0571482967661074e+00 8.2967351429355531e+00 -1 0 -1
441 2 7.5647705307377855e-01 4.8926502636368197e+00 1.3056916370235202e+01 -2 0 -1
151 1 8.0847416421898384e+00 3.2890137286754824e+00 5.0280343759622603e+00 3 0 0
781 1 -4.5419699552960227e+00 4.9594915859618078e+00 1.8131073291779810e+01 -2 0 -3
880 1 1.1363249485519839e+01 1.0664631666021758e+00 5.0317916630669117e+00 -3 0 2
626 2 1.5659769976308624e-01 1.5654732337642181e+00 1.4399295063120469e+01 0 0 -1
559 1 8.6244966522016409e+00 -1.1872608255848212e+00 6.9571410870149242e+00 -2 0 1
703 1 -1.1441943612812686e+00 6.9142903080020339e+00 1.4366265854116572e+01 -2 0 -1
382 1 1.5959998221623845e+01 8.2479554812273470e+00 2.8387108126836713e-01 -2 0 1
21 2 1.2372556756578245e+01 4.8491331690825596e+00 3.8516485614686893e+00 -3 0 -3
216 2 -2.1782409379898715e-01 9.5339732837706510e+00 2.6253788138962579e+00 0 0 -2
54 2 8.8739246852302021e+00 -1.9315228800350193e-01 1.4454908624789033e+00 2 0 0
87 2 -5.6013862102056926e+00 -3.0483649580280026e-01 1.8784835601951738e+01 2 0 -3
689 2 6.7667151754348502e+00 5.2176836956278638e-01 8.7348907916706366e+00 -2 0 0
336 2 1.0540778011306410e+01 8.9054245862071362e+00 8.0106526720492379e+00 -2 0 -2
788 2 8.0900817783434587e+00 9.8260402213342637e+00 1.7624138371436708e+00 -2 0 0
652 1 -1.4884492480193077e+00 5.6096383385479500e+00 8.2742638916258695e+00 -1 0 0
52 1 9.3756363400597760e+00 3.1355136472525835e-01 2.1426751905986188e+00 2 0 0
356 2 -4.0188795507614188e+00 7.6990850664106123e+00 1.6289738985538065e+01 -4 0 -3
477 2 7.0931172428680931e+00 3.3421207951241332e+00 1.0260489157049175e+01 -1 0 2
500 2 -2.3386952681833595e+00 2.8842624731931403e+00 1.1826195029700415e+01 1 0 0
184 1 5.2530814016873206e+00 -1.1510448605470280e+00 8.4484014040874134e-01 -4 0 -6
806 2 1.2088400101329571e+01 8.0773740891485328e+00 6.6272136989473180e+00 -4 0 1
971 2 3.0350320354558820e+00 9.8068708185238425e+00 7.7548192891664969e-01 0 0 1
810 2 6.8878268053121099e+00 4.2770262832723338e+00 5.6014453593536819e+00 -4 0 -1
930 2 1.4988647768208899e+01 2.4678024841832116e+00 7.0729060245004751e+00 0 0 0
702 2 4.4816177514019779e+00 8.6567539718704190e-01 1.7338624626588278e+01 -3 0 -3
501 2 -1.9513269455131526e+00 2.1786335660631329e+00 1.3131762513195286e+01 1 0 0
625 1 -4.4529438663459686e-01 2.2218180996118324e+00 1.4790953934214041e+01 0 0 -1
511 1 6.6034043055609715e+00 -2.9116107135418079e-01 1.6859922602293263e+01 1 0 0
101 2 6.4432534065122802e+00 5.2339461432092724e+00 1.1212718757401746e+01 -1 0 -1
384 2 1.6088137813657820e+01 8.9592376804505278e+00 8.9546192987201845e-01 -2 0 1
245 2 -4.4797377395734799e+00 8.1882360799175871e+00 1.3235607256147514e+01 -3 0 -4
622 1 3.2979325888299944e+00 3.1146481751937571e+00 7.2534213326549446e-01 -2 0 -1
624 2 3.8655977908996260e+00 2.3726607275811684e+00 4.6318406216401936e-01 -2 0 -1
179 2 5.6217157480340241e+00 5.8464386268110777e+00 1.6832956647435008e+01 -3 0 -1
844 1 7.8642433033852290e+00 -9.7377192227255127e-01 1.2213290171725392e+01 1 0 1
699 2 4.4253473777751156e+00 9.4873137410750612e+00 1.8626391720108582e+01 2 0 3
697 1 4.7791473123594876e+00 9.7963292626319021e+00 1.7731997154801135e+01 2 0 3
831 2 3.2448674078551334e+00 1.0104735922470955e+01 2.9994848892558164e+00 -3 0 0
600 2 -7.4094647962070637e-01 5.8627689051043763e-02 8.9078781637835807e+00 -3 0 1
49 1 9.4901823917067887e+00 1.9315740265117434e+00 9.3468405294540826e+00 -1 0 0
183 2 1.3326347013876225e+01 6.4347472551126383e+00 8.3604754098781680e+00 -1 0 0
464 2 1.5491856224602778e+00 4.9107838095111873e+00 4.7350527212102484e+00 2 0 0
977 2 4.5143045826729056e+00 -8.0820232952720361e-01 1.8777380166820691e+01 -3 0 -1
538 1 2.1244262833301257e+00 -1.3500840049353857e+00 2.1073669429555202e+00 -4 0 -3
671 2 -4.9440954469350529e-01 -4.1741060579380362e-01 6.5263908894082050e+00 -3 0 -1
135 2 1.5815818486820765e-01 5.5688242471770675e+00 1.1321419431204500e+01 1 0 -1
778 1 7.1436721125501599e+00 6.8076661737325388e+00 2.6647922892694056e+00 1 0 0
388 1 1.2931475274942454e+01 1.9617671162661665e-03 7.8400893085555108e+00 -1 0 0
598 1 -1.0055694818966039e+00 3.9359117476822947e-01 9.7590795470493603e+00 -3 0 1
120 2 3.9413259854340579e+00 7.6524952195238116e-01 3.0936173354581058e+00 -2 0 -2
760 1 7.9553575438379607e+00 -1.2674224142934896e+00 4.9891322896160306e-01 -3 0 2
640 1 3.6895296372133659e+00 6.9070998483574773e+00 1.1391052463276361e+01 4 0 -1
753 2 1.2305263320812067e+01 6.4802227269533788e+00 1.4956042380393162e+01 -1 0 2
527 2 5.3639758192531133e+00 3.2310506183192533e-01 5.9071103133724687e+00 -2 0 0
119 2 4.6423715775071042e+00 -4.6615002732722188e-01 2.2375624249896271e+00 -2 0 -2
525 2 2.4781747745541445e+00 5.9179906921123600e+00 1.1559705807481226e+01 -2 0 -4
963 2 2.1540499077577806e+00 4.4534360427986996e-01 1.4298335721379834e+01 -3 0 -1
634 1 1.6106122266637763e+00 9.2836162684736454e+00 5.8264049079202858e+00 1 0 -2
776 2 1.2257506466134380e+01 -1.2927723223380747e+00 2.1310100029655863e+00 -2 0 2
212 2 1.0068526871967855e+01 5.2260183443667740e+00 9.3363918845746312e+00 -5 0 -2
701 2 3.6547955198971760e+00 2.2376329827495205e+00 1.7127424295120619e+01 -3 0 -3
5 2 4.4376342073632671e+00 6.0532709565840159e+00 3.5423165139121338e+00 1 0 0
470 2 1.7274972367930864e+01 4.9073160477692177e+00 9.0057377150514728e-01 -7 0 -2
471 2 -1.7275330663171362e-01 3.6737215222251454e+00 1.6640647051967277e+00 -5 0 -2
708 2 -3.2314804058869662e-01 7.9666861781387315e+00 1.7513103570840386e+01 -1 0 -1
754 1 4.1700915938895804e+00 9.3043648612622469e+00 4.2860211456698076e+00 0 0 2
46 1 1.2617417512877555e+01 6.2221140559887065e+00 6.6751451729389828e+00 -3 0 0
992 2 -2.7081584747239793e+00 -2.1639912363597857e-01 9.9137507660343456e+00 2 0 1
164 2 1.0382729057978937e+01 9.0062509160088560e+00 1.1740172249829921e+01 2 0 1
627 2 -1.6231906126470719e-01 3.2143652552604269e+00 1.4485100963944475e+01 0 0 -1
111 2 -2.6331522106242566e-02 -8.1955941359157514e-01 1.6456918936160164e+01 1 0 -4
869 2 2.4635676422535502e+00 7.4558766554013456e+00 8.3141868016593694e+00 2 0 0
16 1 -2.9921019260260477e+00 4.2766995449027601e+00 1.5260182558272151e+01 0 0 1
178 1 6.2412296265114806e+00 5.7319714419680201e+00 1.7607537338867989e+01 -3 0 -1
974 2 1.1717329448496180e+01 1.8293319691400471e+00 1.6519219149732066e+01 -4 0 -2
118 1 4.7314699522533425e+00 2.2585937160974545e-01 2.9329770026979851e+00 -2 0 -2
269 2 -6.7135154020193433e-02 8.0736853656560044e+00 1.1457430284033816e+01 2 0 -1
623 2 3.5749006672182388e+00 3.3923892840085514e+00 1.6070202868771060e+00 -2 0 -1
1668 2 8.2345373001788822e+00 1.8860657821439837e+00 1.1994480687824810e+01 -1 1 -2
644 2 -4.3455415093443257e+00 -6.8852508495297804e-01 1.3982342893056758e+01 -3 0 -3
838 1 5.4582811084534155e-01 6.0742157749306545e+00 3.8672636294130469e+00 0 0 -2
83 2 1.4466078462062102e+01 8.3642424909538509e+00 9.3139038865781867e+00 -1 0 -3
239 2 7.0734436990863774e+00 3.7948161070321769e+00 1.4216094102503531e+01 0 0 0
716 2 1.9240341941883949e+00 3.8810121969660107e+00 1.6766839569651790e+01 1 0 1
717 2 2.2968058937270586e+00 4.0124948557772502e+00 1.8327205180465565e+01 1 0 1
240 2 5.8169540558616850e+00 3.0375247874082740e+00 1.3687190760553021e+01 0 0 0
904 1 1.0772960756332230e+01 8.6511465257329903e+00 1.0350917131351827e+00 -3 0 2
17 2 -2.6550007115527960e+00 4.1725276786259604e+00 1.4379323901614006e+01 0 0 1
779 2 7.3464886317617548e+00 7.5822463476549320e+00 2.0115375403183555e+00 1 0 0
215 2 1.2610974110950504e+00 9.1023488406359778e+00 2.8260505745160041e+00 0 0 -2
645 2 1.2535519203167002e+01 2.3299824555996063e-01 1.4592682342637660e+01 -4 0 -3
613 1 -2.0644255591288214e+00 1.0248791612160786e+00 1.8826990026269872e+01 -2 0 -1
807 2 1.2691515958219917e+01 9.4171476591993670e+00 7.1687551873374140e+00 -4 0 1
238 1 6.0892121579206488e+00 3.8835316294218583e+00 1.4097046900082578e+01 0 0 0
522 2 7.9116533307770815e+00 -1.3170115435357133e+00 1.0025510515510632e+01 -5 0 -2
715 1 2.1309715848962609e+00 3.3614665992480450e+00 1.7578202226587198e+01 1 0 1
115 1 1.2505898366129315e+01 3.8533291633509652e+00 1.3771987538283264e+01 -5 0 -5
426 2 9.2520472353984644e+00 3.3024016624474077e+00 3.2338347356248711e+00 -2 0 1
278 2 5.6687376213043628e+00 9.3137709617908087e+00 5.1012991411344260e+00 -4 0 -1
528 2 5.2996056882261451e+00 -2.0223126301626837e-01 4.4933704911708316e+00 -2 0 -1
250 1 5.0683272763911305e+00 5.2409991055349225e+00 8.3949956673153601e+00 -3 0 2
933 2 -3.3436253707172465e+00 6.9108776931653049e-01 1.5202032472525660e+01 -2 0 -1
531 2 8.5048110169418116e+00 -8.7072208955921671e-01 3.2734283217651643e+00 -1 0 0
868 1 1.6774896095170595e+00 7.1432331974729024e+00 7.7178206687115223e+00 2 0 0
291 2 1.0294688957825006e+01 6.5623899695866790e+00 3.9396943948147780e+00 0 0 3
18 2 -3.2076264592900370e+00 5.2499954341982162e+00 1.5351840051513463e+01 0 0 1
1584 2 1.0103307111573173e+01 1.0047264907595624e+01 1.4538314786292798e+01 0 0 0
672 2 4.8842822099096539e-01 -1.0406593646910856e+00 7.4699012720605253e+00 -3 0 -1
785 2 6.6724421679353707e-01 1.5704813025636017e+00 8.0761911064537317e-01 -3 0 -2
870 2 9.0980073070653589e-01 7.4099539699881909e+00 8.2416731574469111e+00 2 0 0
211 1 9.5319555571812202e+00 4.5725770737315141e+00 8.8748798924412764e+00 -5 0 -2
387 2 1.9100910806214626e+00 7.2243191962555464e-02 3.3690010962578278e+00 0 0 -2
160 1 -1.3887934399895958e+00 9.5046499098635557e+00 6.9663978308747847e+00 1 0 -5
643 1 -4.5188273107302628e+00 -1.2862113363498850e-01 1.4736091086112276e+01 -3 0 -3
924 2 2.0022932574509067e+00 8.5088627450683205e+00 1.3079710656017035e+01 -3 0 -3
458 2 -1.2420249547106064e+00 -1.0809876272052796e+00 3.8538216171787747e+00 -2 0 -2
289 1 9.4620658640463517e+00 6.8653498255622996e+00 4.3656967582819926e+00 0 0 3
116 2 -4.8668994818542570e+00 3.4765160926457090e+00 1.4493797568672225e+01 -4 0 -5
224 2 -2.0104823644790595e+00 3.8680158259182065e+00 1.6548723381062103e+01 -2 0 -2
845 2 8.0640527417264316e+00 -1.6017457431674043e-02 1.2403152816653131e+01 1 0 1
48 2 1.1892816958527202e+01 5.5029569962422222e+00 6.5736249488735474e+00 -3 0 0
117 2 1.2160048858437092e+01 4.5689290755518561e+00 1.4356408087954122e+01 -5 0 -5
931 1 -2.6703380273662836e+00 9.5049562042226254e-01 1.5956368900623687e+01 -2 0 -1
320 2 1.0461676130783061e+01 -1.2458278975796444e+00 1.4273399270936142e+01 -4 0 -3
385 1 2.0550662486729725e+00 1.0235611538505132e+00 3.4816691078486817e+00 0 0 -2
185 2 6.2137397991815462e+00 -1.3001829267632328e+00 8.1719850646996739e-01 -4 0 -6
961 1 1.4237044435720279e+00 3.0030335890333992e-01 1.3695133037039460e+01 -3 0 -1
42 2 6.2516907535791049e+00 4.9637707156460369e+00 9.2059900242439969e+00 -2 0 3
726 2 1.3648552449189014e+01 3.1798789357652133e+00 8.8722420780558906e+00 1 0 1
876 2 -3.7553014862447296e+00 6.3132678890512199e+00 1.1978433270154392e+01 -2 0 1
769 1 2.1981179299148264e+00 4.5152013691246689e+00 8.3672590020785655e+00 1 0 -3
1002 2 1.1202796316877338e+01 2.7404887214659848e+00 2.2284826457195561e+00 -1 0 1
4 1 5.0322167851666579e+00 6.7524148027988282e+00 3.9938642050912962e+00 1 0 0
905 2 9.7512308839446167e+00 8.6805089909831796e+00 1.1509164718777436e+00 -3 0 2
41 2 7.9739471815103817e+00 4.9623227304992570e+00 9.4206111055929433e+00 -2 0 3
311 2 7.8689756425435124e+00 9.8648310114729512e+00 8.3410199688499702e+00 0 0 -2
812 2 1.0791838726523896e+01 7.0607002979166982e+00 1.0798722447014288e+01 -2 0 -1
932 2 -1.8881189141098491e+00 1.4820585205238856e+00 1.5619055279793164e+01 -2 0 -1
789 2 7.5580914002874646e+00 9.1659511328326708e+00 4.8875846144013585e-01 -2 0 0
213 2 9.5160265473988659e+00 4.8495479365106489e+00 7.9445273555924558e+00 -5 0 -2
290 2 8.7110219500113004e+00 6.6120874021536586e+00 3.7917001674690263e+00 0 0 3
912 2 1.3690113964974433e+01 -1.0514305893555522e+00 4.9614164352827723e+00 -2 0 1
338 2 -3.5654005813548406e+00 6.3206877820904204e+00 1.9033081914210946e+01 -1 0 -2
938 2 1.4180577625740055e+01 8.3111344748518601e+00 4.5411192989965379e+00 1 0 1
969 2 -1.5758277505597271e+00 3.9455153162721901e+00 7.2733769756315549e+00 -1 0 1
545 2 4.9748548311600587e+00 5.1470811765234901e+00 1.4966227942620765e+01 2 0 1
386 2 1.4775318667403101e+00 1.3966812121728234e+00 2.8296712267951403e+00 0 0 -2
937 1 1.4340694156212475e+01 7.3554331974990550e+00 4.5125285793602776e+00 1 0 2
40 1 7.0889942432541782e+00 4.7031519022383517e+00 9.7568653891371291e+00 -2 0 3
786 2 1.7801141640715317e+00 2.4672423661578131e+00 1.3011011903503029e+00 -3 0 -2
428 2 -4.4073087120290957e+00 9.3278315105170755e+00 1.7679173232683226e+01 0 0 -1
724 1 1.3895381531166592e+01 3.2615968851631907e+00 9.8263304681767760e+00 1 0 1
784 1 8.4388655588169881e-01 2.2326831413329513e+00 1.5141900403322885e+00 -3 0 -2
967 1 -1.4808110078805035e+00 3.0213884501091162e+00 6.9573203429712400e+00 -1 0 1
553 1 9.3432089664459710e+00 3.5641142483787798e+00 1.6849091812926943e+01 -5 0 -2
681 2 6.4735334942879188e+00 4.1079630460185177e+00 1.7814014069689222e+01 -3 0 -3
649 1 9.2054238443079779e+00 1.5090498001642927e+00 6.7313509627534112e+00 -4 0 0
650 2 9.4172945518038365e+00 1.6861423077152065e+00 7.6347675349001394e+00 -4 0 0
51 2 9.6892700235276159e+00 2.9071157298697230e+00 9.3285674233182974e+00 -1 0 0
36 2 -1.0676172481945665e+00 1.1507273967991187e+00 4.7386326278395110e+00 -1 0 0
945 2 3.3608106685120416e+00 3.8431957581922775e+00 3.8351353117155123e+00 0 0 3
991 1 1.4380495273669995e+01 -6.7066470059293537e-01 9.9536349569353426e+00 1 0 1
939 2 1.4494068624830293e+01 7.1030831978450522e+00 3.5748316437753935e+00 1 0 1
397 1 1.4732380210601328e+01 3.5653619388626812e+00 2.4019039843469980e+00 2 0 0
127 1 1.6023904262076606e+01 -4.2595714115499606e-01 9.3197193557020208e-01 -2 0 -1
128 2 1.6843131695719268e+01 3.4694762701719117e-03 5.0847928798866615e-01 -2 0 -1
1407 2 1.4600345258873809e+01 2.8779134414703718e+00 1.7885062568685428e+00 2 0 0
34 1 -1.4038222985248030e+00 2.0615763347200433e-01 4.7868492681984671e+00 -1 0 0
928 1 1.3999382519476875e+01 2.3985617085294182e+00 7.2071773448595504e+00 0 0 0
777 2 1.2493839224085310e+01 3.1547573934572526e-02 1.3249491689816051e+00 -2 0 2
152 2 7.6340404834356104e+00 2.9285934675000194e+00 4.2875066675228588e+00 3 0 0
439 1 1.4399452062100160e-01 4.7301682970299535e+00 1.3785823766693477e+01 -2 0 -2
350 2 1.4656441681694350e+01 7.0177865952334750e-01 9.4319510307328658e-01 2 0 4
591 2 -1.7499693183103648e-01 9.5214693125410719e+00 9.4787741149610891e+00 -4 0 -1
176 2 4.8360712664198395e+00 -1.2147335833358051e+00 1.3596502959168296e+01 -5 0 1
783 2 -4.0867964242040991e+00 4.3308863761811089e+00 1.8725561739015806e+01 -2 0 -3
148 1 1.0677331576916544e+01 7.7984474089005023e+00 1.7049778459606703e+01 -4 0 -1
994 1 4.4989475745308969e+00 2.1394861141252997e+00 6.8867077895682858e+00 3 0 1
725 2 1.3494872185603501e+01 2.5087908740998683e+00 1.0246852951421438e+01 1 0 1
735 2 9.4569373811289790e+00 8.7846485142651627e+00 4.4975754324403043e+00 -3 0 -1
129 2 1.6444254241609947e+01 -6.9783906311912158e-01 1.7458828983335208e+00 -2 0 -1
161 2 -9.4431800113622599e-01 9.4439395474349617e+00 7.8353956040569877e+00 1 0 -5
173 2 1.1278656970285589e+01 2.0691053323464486e+00 1.3681440597772170e+01 -1 0 -2
846 2 6.9131157016656504e+00 -1.1339446348365412e+00 1.2271601109124312e+01 1 0 1
610 1 1.3217117843197322e+01 1.2550093187942655e+00 1.1658418366732510e+01 -1 0 2
756 2 4.4309506836546673e+00 8.4278197860040382e+00 3.8951805640129513e+00 0 0 2
462 2 1.0177641704236486e+01 4.2752101215995157e+00 5.6566264520560816e+00 -4 0 -2
651 2 8.6658783535570301e+00 6.6203393845067682e-01 6.7105425092864381e+00 -5 0 0
996 2 5.1282344127220600e+00 1.7465751225088360e+00 7.5692435552792290e+00 3 0 1
369 2 6.2946543783802094e+00 8.7883423310373914e+00 1.7954766816821710e+01 -2 0 -1
589 1 -2.2421671523881770e-01 8.5508227699018615e+00 9.4360544551024219e+00 -4 0 -1
750 2 7.1250713046716392e+00 8.3933709230914353e+00 1.3267029907826817e+01 -3 0 1
749 2 6.9889132654632586e+00 7.0145602014136621e+00 1.2377074248325727e+01 -3 0 1
102 2 5.9265568280713179e+00 4.9493311807922238e+00 1.2630902316438116e+01 -1 0 -1
497 2 3.0189928430613628e+00 1.5325336171002992e+00 6.5235974472930067e+00 0 0 1
498 2 2.0573162102183078e+00 9.8457591470819938e-01 5.4215035865614993e+00 0 0 1
395 2 1.2118906278130366e+01 5.9243241458188489e+00 9.8215039234265777e-02 -3 0 -3
923 2 3.3734949902704869e+00 8.8370648156896170e+00 1.3947067193784566e+01 -3 0 -3
349 1 1.3970895630430674e+01 1.4752749063613888e+00 8.4595062719399539e-01 2 0 4
679 1 6.8159938241285971e+00 3.1692477415404827e+00 1.7729866098841669e+01 -3 0 -3
398 2 1.5663836586594870e+01 3.7116692758830796e+00 2.4081218205055994e+00 2 0 0
230 2 2.3933121443921768e+00 -8.3750341190678657e-01 6.2067455871106372e+00 0 0 -2
392 2 4.1993843517089164e+00 8.6924704992656316e+00 9.0768453494149366e+00 -1 0 -1
321 2 1.0550924592494843e+01 -1.9815312302078003e-01 1.5552246865067577e+01 -4 0 -3
943 1 3.9290870817768053e+00 4.0037779155559443e+00 3.0939567463056785e+00 0 0 3
734 2 1.0502652213004353e+01 9.7983174094068577e+00 4.2547946772303193e+00 -3 0 -1
755 2 3.4128137669467886e+00 9.2279116833849404e+00 4.8479063099549817e+00 0 0 2
220 1 -7.5624194848578341e-01 9.4101761159292288e+00 1.8406525334198570e+01 -2 0 -3
172 1 1.1100839849429832e+01 1.1773332380119750e+00 1.3319117961534499e+01 -1 0 -2
298 1 -4.7929189981605358e+00 2.7033136821981207e+00 1.6468150212760076e+01 -2 0 -2
680 2 6.0967543937923105e+00 2.5895744090905408e+00 1.7413518121648611e+01 -3 0 -3
787 1 8.0573385755555833e+00 8.9135124529692380e+00 1.3181888725572806e+00 -2 0 0
747 2 -3.9844233853725060e+00 1.0109008629729717e+01 1.5649183947953796e+01 -2 0 0
944 2 4.8475971109512006e+00 3.6637147929558571e+00 3.2524337625852269e+00 0 0 3
100 1 6.0349330986435321e+00 5.6718219172805817e+00 1.1976765860461528e+01 -1 0 -1
1667 2 9.5529861627826946e+00 1.4456922624456516e+00 1.2698216559293853e+01 -1 1 -2
352 1 8.5737051542904847e+00 9.6175055597323862e+00 1.0957091670998535e+01 -1 0 0
174 2 1.1799266586216788e+01 1.1330755656873852e+00 1.2611033648617529e+01 -1 0 -2
279 2 7.1249955611345559e+00 8.9660579796957709e+00 4.9873482200914525e+00 -4 0 -1
465 2 2.4585867455884927e+00 4.4037615809626569e+00 5.8913394896878906e+00 2 0 0
84 2 -3.1628301289222716e+00 8.5850668850235365e+00 1.0869134579184365e+01 0 0 -3
460 1 1.0158262709263298e+01 5.0604992120609458e+00 6.1841889103412448e+00 -4 0 -2
607 1 7.3938514134761801e+00 1.8158636046548882e+00 3.5935191874847999e-01 -3 0 0
840 2 7.0535866813138282e-01 6.9544723331127525e+00 3.4530726943333709e+00 0 0 -2
670 1 -4.4546964658194721e-01 -8.7559688507183153e-01 7.3693692136348679e+00 -3 0 -1
712 1 -1.4983768938926301e+00 -8.2349418564798116e-01 1.2294090635366457e+01 0 0 3
595 1 -3.5835875885302948e-01 2.5666800212531449e+00 4.4080673701634066e+00 3 0 -2
391 1 3.8849678650773236e+00 7.7985058413228643e+00 8.9808208636974047e+00 -1 0 -1
109 1 4.3098684177053670e-01 -1.0022762400906893e-01 1.6897397881600824e+01 1 0 -4
615 2 -2.3307443965814616e+00 9.8381116680600433e-01 1.7898469633471553e+01 -2 0 -1
251 2 4.9118117894667943e+00 6.2151030688870446e+00 8.5110429294785632e+00 -3 0 1
461 2 9.8477431540371914e+00 5.7456629090430944e+00 5.5882697198688787e+00 -4 0 -2
599 2 -1.1260743581502832e+00 1.3656722894993711e+00 9.7057069582043525e+00 -3 0 1
408 2 1.4904435415758677e+00 3.6483218376246951e-01 1.1948828279994748e+01 -2 0 -2
20 2 1.2832334387032212e+01 6.0968024230306295e+00 3.2017663802217062e+00 -3 0 -3
182 2 1.3636182156332552e+01 6.3906165177375307e+00 9.9470975323464135e+00 -1 0 0
35 2 1.5678684845514139e+01 1.8181044739242758e-01 5.1702166518524821e+00 -2 0 0
976 1 4.3088463098483949e+00 -9.2167250748851393e-01 1.7858883223333248e+01 -3 0 -1
962 2 1.1977835588644696e+00 -6.1649791324589787e-01 1.3774863926903276e+01 -3 0 -1
475 1 7.1496786141412194e+00 2.3526164492882726e+00 1.0619896386812874e+01 -1 0 2
68 2 1.5185012560564964e+01 6.9758754177244562e+00 1.3351940440136398e+00 -4 0 -2
526 1 5.7923298344073419e+00 -3.5013879049655960e-01 5.3096201886939216e+00 -2 0 0
133 1 -7.9720970117749612e-01 5.5349074187847034e+00 1.0967849975874790e+01 1 0 -1
1664 2 4.4689570532008576e+00 9.2704918893195618e+00 1.6120283006073084e+01 -3 1 -1
919 1 1.0816329550585312e+01 -6.9462316914927191e-01 9.4960803400686515e+00 0 0 -2
82 1 -3.1115343243719464e+00 8.9733802714509405e+00 9.9798759123763503e+00 0 0 -2
300 2 -3.9753653172059709e+00 2.1782920708064077e+00 1.6474850735150437e+01 -2 0 -2
163 1 1.1193498640718996e+01 8.5171083168349053e+00 1.1415122863241336e+01 2 0 0
782 2 -5.4995968680791023e+00 4.7599534347699057e+00 1.8210841534297469e+01 -2 0 -3
690 2 5.3404350125118079e+00 3.3499836542048955e-01 9.2311804871334058e+00 -2 0 0
585 2 -2.2386362117488070e+00 1.0195326657726758e+01 1.2806856513106975e+01 -4 0 -4
728 2 8.8896747764489721e+00 6.7847780146685448e+00 1.2868146797939476e+01 0 0 1
113 2 8.8463765603233284e+00 -1.3073740895732606e+00 1.5121745999966290e+01 -2 0 -1
368 2 7.6962527650894641e+00 8.1178953525457676e+00 1.8559351518403471e+01 -2 0 -1
950 2 -4.2772930853178055e+00 -3.7901028208299481e-01 1.6891485150748725e+01 -1 0 1
583 1 -3.1918617284560673e+00 1.0021154495290236e+01 1.2671568069464971e+01 -4 0 -4
335 2 9.4169709915486326e+00 8.0865014454969621e+00 8.6862654556771783e+00 -2 0 -2
67 1 1.4509976808294393e+01 6.4942811140090999e+00 1.9192006315107011e+00 -4 0 -2
727 1 9.6690333208554229e+00 6.1554345475803824e+00 1.2988734424618931e+01 0 0 1
114 2 7.7850253533156666e+00 -1.5020620181207016e+00 1.3968372292559579e+01 -2 0 -1
425 2 9.3573933063451022e+00 2.0235841932727117e+00 2.2731824658615642e+00 -2 0 1
544 1 4.4857563844887363e+00 5.8815031235574828e+00 1.5471316016385728e+01 2 0 1
875 2 -2.1723372058396491e+00 6.5660529864873212e+00 1.1843585324521150e+01 -2 0 1
1001 2 1.2705764610967757e+01 2.0162119271551360e+00 2.0528722871358278e+00 -1 0 1
496 1 2.2067238093534787e+00 9.6913453157556573e-01 6.3876276973854429e+00 0 0 1
655 1 4.5028912198777160e+00 8.7504511785321881e+00 1.5269145775486209e+01 -3 0 -1
337 1 3.8492742418674895e+00 6.8191503524848507e+00 3.4470897588632038e-01 -1 0 -1
685 1 1.7960773980213429e+00 -1.3811283114962036e+00 8.7227406964772047e+00 -3 0 1
221 2 -1.7372675520844272e+00 9.2671526219294069e+00 1.8315006622211026e+01 -2 0 -3
166 1 1.1780097505876371e+01 1.0315134100758133e+01 2.9539321265381648e+00 -4 0 -3
547 1 6.9965049379919888e+00 9.6736898542579262e+00 1.4327571207658675e+01 -3 0 -4
309 2 -1.7876138291622468e-01 9.8982676420064504e+00 1.2996144368589871e+01 1 0 1
641 2 3.6845649161722793e+00 7.6156100917738634e+00 1.2056967494743523e+01 4 0 -1
110 2 5.4036195839219836e-01 5.9755741683069541e-01 1.6260582749158434e+01 1 0 -4
162 2 -1.2147288528811107e+00 8.6361774401494085e+00 6.5607964613998382e+00 1 0 -5
47 2 1.3157831501558736e+01 6.0446688911924724e+00 5.8841690877740502e+00 -3 0 0
207 2 4.3545951136339927e+00 9.3137370098921801e-01 1.3557310900606826e+01 3 0 0
808 1 6.0296285743227465e+00 4.5936832808706702e+00 5.9835841772930012e+00 -4 0 -1
167 2 1.1399107666129263e+01 9.7982045381460807e+00 2.2604041811605926e+00 -4 0 -4
577 1 1.8213830242246436e+00 5.6657269114070967e+00 1.5802496737842658e+01 0 0 0
19 1 1.2024581724922315e+01 5.6216011599308668e+00 3.4141677979380347e+00 -3 0 -3
1000 1 1.2067432958700822e+01 2.4489335604888200e+00 2.5924825128406788e+00 -1 0 1
294 2 -1.1123575816249720e+00 3.9056190660341281e+00 1.0562833243145803e+01 1 0 -3
390 2 1.2889744405538108e+01 9.2489609497692093e-01 7.5640761827192851e+00 -1 0 0
297 2 -5.6258860632294461e-01 6.5009437618312340e+00 5.1994185299546247e+00 2 0 3
521 2 8.2938053465784023e+00 -8.9828329197595658e-01 8.5966367911233466e+00 -5 0 -2
813 2 1.1516382218201628e+01 5.5792191182767841e+00 1.0767451045768484e+01 -2 0 -1
529 1 8.1773722315101374e+00 -1.5595107167808326e+00 3.8307912834927960e+00 -1 0 0
277 1 6.4796045740497421e+00 9.2212119648682567e+00 5.6263994828637198e+00 -4 0 -1
334 1 9.6312613146976869e+00 8.9643881842071664e+00 8.4367210366680538e+00 -2 0 -1
771 2 1.8043318999732372e+00 5.3498426978168716e+00 8.0744345729404845e+00 1 0 -3
429 2 -5.7613002813781113e+00 8.6064809647787097e+00 1.7144561903957921e+01 0 0 -1
809 2 5.6674373475939488e+00 5.1200508147691002e+00 5.2714607238158253e+00 -4 0 -1
866 2 -8.1035976485364181e-01 4.5147209358191160e+00 1.8692940540681771e+01 -3 0 -1
94 1 7.4962936307561590e-01 2.1994217394567199e+00 8.1999676565011317e+00 -1 0 -1
225 2 -9.1449721337240764e-01 2.8939607877705056e+00 1.7172046571882504e+01 -2 0 -2
770 2 3.0706202892013104e+00 4.6168997519525226e+00 7.9984319581942884e+00 1 0 -3
123 2 8.9783634095366445e+00 4.6580865079247529e+00 1.3754582231010197e+01 -2 0 -1
440 2 -5.0019444469940666e-01 5.4913972767893409e+00 1.3828833695567274e+01 -2 0 -2
383 2 9.9896318921216931e+00 8.2147857014021604e+00 1.8685383322616001e+01 -2 0 0
920 2 9.9677984437983334e+00 -1.2030718055925922e+00 9.5642009260754808e+00 0 0 -2
499 1 -2.6738959935269868e+00 2.7572096023799393e+00 1.2760532319735212e+01 1 0 1
910 1 1.4250932644159736e+01 -7.3097405614967093e-01 5.6920924893555238e+00 -2 0 1
546 2 3.5387172794900392e+00 5.6366369605267144e+00 1.5475190753387698e+01 2 0 1
978 2 5.2103510957189254e+00 -8.7442966755839246e-01 1.7419687452438069e+01 -3 0 -1
729 2 9.9848258645796406e+00 5.9122183995712252e+00 1.2075949192919863e+01 0 0 1
612 2 -4.1114012862722902e+00 1.6443025672497651e+00 1.2357579577752382e+01 0 0 1
6 2 5.7803524237156898e+00 6.7744041177475474e+00 3.3981117109046344e+00 1 0 0
121 1 8.7604728379924488e+00 3.9094367699142083e+00 1.4355424358823264e+01 -2 0 -1
911 2 1.3653448873026509e+01 -5.0102617306157593e-01 6.4429118356539590e+00 -2 0 1
424 1 9.4835351611190859e+00 3.0421756771110777e+00 2.3284132437424772e+00 -2 0 1
811 1 1.0646605726271536e+01 6.0816576648887901e+00 1.0615121974663863e+01 -2 0 -1