LAMMPS data file via write_data, version 15 Apr 2020, timestep = 40119000

576 atoms
2 atom types

3.5836820922266455e-01 1.7561632790730012e+01 xlo xhi
1.5336720922278957e-01 1.7356631790730138e+01 ylo yhi
5.0336820922284531e-01 1.7706632790730193e+01 zlo zhi

Masses

1 16
2 2

Atoms # atomic

51 2 2.8813403883956008e+00 1.6786269401986293e+00 3.2645056294548063e+00 8 1 -7
49 1 1.9136651738880845e+00 1.4616580159165569e+00 3.2188032068510930e+00 8 1 -7
413 2 8.2746008228162893e-01 2.5016309264762553e+00 2.5082812402444032e+00 -2 3 1
298 1 4.5679537717647332e+00 2.4863881073189416e+00 3.4188091654213242e+00 3 4 5
50 2 1.6142765092032225e+00 1.5790873044577474e+00 4.1479521913779571e+00 8 1 -7
414 2 5.3989439052188792e-01 4.0012939820093729e+00 2.8076363634091770e+00 -2 3 1
89 2 1.4440536798573413e+00 3.9449142787730853e+00 1.1103298324757973e+00 4 2 6
90 2 2.9190757262275970e+00 4.3801819013731711e+00 8.7738554548325776e-01 4 2 6
300 2 4.7286618297648850e+00 3.1659084941321320e+00 2.7659631464285264e+00 3 4 5
299 2 5.4241773053954825e+00 2.4263699430887629e+00 3.8997265203869778e+00 3 4 5
263 2 8.9178924303063809e+00 2.1680216099518832e+00 3.7583939551382959e+00 -8 5 1
276 2 8.6952228123485042e+00 3.9841343156306928e+00 2.1376415765687478e+00 -8 4 -2
511 1 6.7906276117416979e+00 6.6317649216941188e-01 1.8081417422693900e+00 5 3 -5
46 1 7.5009392797217993e+00 1.5969217757928924e+00 4.5582218113044508e+00 3 2 2
512 2 7.3174753423977528e+00 3.0950126058024285e-01 1.0707165032551864e+00 5 3 -5
224 2 6.5567183679386245e+00 2.1114041332923885e+00 9.0258021585703729e-01 3 -1 0
513 2 7.2734020119737499e+00 6.5907512540961311e-01 2.6499395256360518e+00 5 3 -5
225 2 5.6872682864860939e+00 3.5411948433208416e+00 5.7329760231294224e-01 3 -1 0
262 1 9.6102008281358309e+00 2.6236983236743603e+00 3.2041590016759329e+00 -8 5 1
264 2 1.0124655538413007e+01 3.2015222921938133e+00 3.8101165386586020e+00 -8 5 1
335 2 1.1150753786018925e+01 1.7416251264388285e+00 3.2583937798208571e+00 -2 0 1
334 1 1.1930400611866395e+01 1.2041272639071015e+00 3.5083742103165299e+00 -2 0 1
336 2 1.2526846715400357e+01 1.3539956424479911e+00 2.7585031457040472e+00 -2 0 1
219 2 1.3061673022694338e+01 4.4490777751498536e+00 2.1013941076827338e+00 -1 2 -4
8 2 1.3156351211916622e+01 9.4873617678175304e-01 6.8488330845128864e-01 5 0 6
255 2 1.3103834538521120e+01 3.0886949019873491e+00 7.0049685161078601e-01 -5 3 0
495 2 1.1225293863684358e+01 2.9389580270530508e-01 4.7999420968639939e+00 3 0 2
503 2 9.9728754061741967e+00 8.9157576072660116e-01 5.5597322751437872e-01 -1 0 4
412 1 1.7472395491931014e+01 3.2918895861524091e+00 2.1610346847332846e+00 -3 3 1
7 1 1.3487316278593090e+01 1.6102461995695521e+00 1.3449478450142007e+00 5 0 6
9 2 1.4439094966508149e+01 1.5770232812600584e+00 1.1805463155396752e+00 5 0 6
362 2 1.6565309930061371e+01 2.6525674073159697e+00 5.7514975781525512e-01 -7 5 -6
327 2 1.5973191752262453e+01 2.2884273468933305e+00 3.7054484567989623e+00 0 0 6
326 2 1.6001716647665894e+01 3.5431832634575651e+00 4.7092716837882049e+00 0 0 6
325 1 1.5980987527005007e+01 2.5241946430104676e+00 4.6394529349328062e+00 0 0 6
443 2 1.7477250587666870e+01 1.9299786334761845e-01 3.0725421277117446e+00 -7 0 -4
508 1 4.4235061032609417e+00 4.7146433960867924e+00 1.5391981748837242e+00 -2 0 0
509 2 4.1181162418662254e+00 5.2445174880098460e+00 2.3042967050967889e+00 -2 0 0
199 1 3.5977798363283884e+00 5.7255432605429659e+00 3.8462159814018100e+00 6 -4 -1
201 2 3.3415695135389076e+00 6.6229923585319437e+00 4.0057322697373081e+00 6 -4 -1
200 2 4.0887387596304841e+00 5.4713744795294419e+00 4.6614479857474898e+00 6 -4 -1
93 2 9.3225584008481888e-01 6.3055587195463536e+00 3.0916206897555409e+00 7 -7 0
91 1 8.3621333604202319e-01 5.5756493667379523e+00 3.7031366174237541e+00 7 -7 0
92 2 1.7508551765221108e+00 5.3219901929908104e+00 3.9219653860908701e+00 7 -7 0
141 2 6.6072110797571293e-01 7.2853555066830795e+00 1.2335192255335028e+00 -4 1 1
139 1 3.9505853157148474e-01 7.6013725205235945e+00 2.1097720847198778e+00 -4 1 1
115 1 4.4550035932911864e+00 8.3663916575591273e+00 1.7712116172513397e+00 6 -2 3
140 2 9.0266242696574328e-01 8.3775691511635380e+00 2.4044925129603580e+00 -4 1 1
117 2 5.4140846817976760e+00 8.2931551978328528e+00 1.6755863308416841e+00 6 -2 3
388 1 7.0967142980249873e+00 8.3759005126314818e+00 1.1016152475820093e+00 5 -3 2
510 2 5.0744514178958795e+00 5.2714043210251020e+00 1.0803323868811638e+00 -2 0 0
366 2 6.8681725668198883e+00 5.4037306309713351e+00 2.9729822452879882e+00 5 3 -4
364 1 6.9372576302689657e+00 5.8046543189643245e+00 3.8200553967800026e+00 5 3 -4
274 1 8.5314764912536365e+00 4.5935795615865409e+00 1.4589229309805694e+00 -8 4 -2
365 2 6.4695311989133071e+00 5.2944606726020762e+00 4.4787953258664643e+00 5 3 -4
239 2 6.4426702663196833e+00 7.4865883018333763e+00 4.2897612154434821e+00 0 -5 -7
238 1 6.3712798329006954e+00 8.3945943188682222e+00 4.7461998216766439e+00 0 -5 -7
346 1 8.9377141107689830e+00 8.7272908484518918e+00 2.9158525274869822e+00 2 3 -1
389 2 7.1241182889029773e+00 7.4342824453247873e+00 7.9334404776397349e-01 5 -3 2
348 2 8.0472373748057304e+00 8.7413836104657250e+00 2.3888780375281069e+00 2 3 -1
128 2 7.4148677617606449e+00 5.1848551065128561e+00 7.7685031027858509e-01 -2 -1 -1
275 2 9.2024736578248465e+00 5.2707360233359886e+00 1.4810757423274645e+00 -8 4 -2
217 1 1.2694806345154763e+01 4.9964222051234009e+00 2.7660206151252007e+00 -1 2 -4
296 2 1.1096010607654083e+01 6.1254203380336021e+00 1.9856787380967940e+00 -1 -1 2
297 2 9.9483661036906970e+00 7.2749680345832148e+00 1.8141738535852345e+00 -1 -1 2
295 1 1.0277368599026738e+01 6.4108222609780299e+00 1.4836471996140124e+00 -1 -1 2
183 2 9.6694010884157571e+00 8.1666874979869100e+00 4.3068883996704255e+00 -6 -9 -1
431 2 1.1724713843525111e+01 4.5130999768460907e+00 4.2553817954372573e+00 -6 -6 1
218 2 1.3416731253981931e+01 5.5766201699423643e+00 3.1108602160015852e+00 -1 2 -4
137 2 1.3374046009872899e+01 8.1091281877971895e+00 4.7102734480076682e+00 5 -6 -1
529 1 1.4149897711088727e+01 7.0034376053526053e+00 3.4669158355583343e+00 2 4 2
531 2 1.4981455905176251e+01 6.8019955002698005e+00 3.9675913562713987e+00 2 4 2
530 2 1.4414925516378782e+01 7.5591773774685311e+00 2.7377559402593268e+00 2 4 2
436 1 1.5290413904746460e+01 8.1807651747750683e+00 1.2658509661300923e+00 -1 -2 -1
438 2 1.6173571665250265e+01 8.1886033473976312e+00 1.5637567671528574e+00 -1 -2 -1
165 2 1.6629311075237506e+01 5.3033881279960999e+00 4.6626858261778361e+00 9 -3 -3
163 1 1.5694236254394266e+01 4.9952810980878635e+00 4.8038695512873337e+00 9 -3 -3
96 2 1.4684509890759476e+00 2.4293715367889930e+00 6.1961732341831093e+00 -2 -1 -7
94 1 1.0470613961326443e+00 1.6255181797673752e+00 5.8310384564794724e+00 -2 -1 -7
425 2 3.2689676457502079e+00 2.5639696389346320e+00 8.2073552005716408e+00 -2 -3 4
434 2 4.4411733302097955e+00 1.4156535048672119e+00 6.3457072860669523e+00 -7 4 -2
385 1 1.5514247629996802e+00 4.1204862439523975e+00 6.8612768347837081e+00 -1 -9 -1
63 2 6.4390025982679977e-01 9.5850811081380427e-01 7.3601384665464105e+00 3 -3 6
433 1 4.5568254910366708e+00 2.2899839034188405e+00 6.7734234275932126e+00 -7 4 -2
387 2 2.1583760502951153e+00 4.3233492304594190e+00 7.5385381398830820e+00 -1 -9 -1
386 2 6.5219427040866995e-01 4.2590159051313528e+00 7.1966101615405202e+00 -1 -9 -1
48 2 7.6673691720737152e+00 2.2073190882605704e+00 5.3131132123928992e+00 3 2 2
47 2 7.2990479981411536e+00 6.8526233935508629e-01 5.0020213945640490e+00 3 2 2
317 2 4.9314919196961480e+00 3.9893685554261582e+00 6.0985303270718285e+00 4 2 7
528 2 6.7023360616845347e+00 1.3210051315856282e+00 8.5400841776669605e+00 -5 -4 -1
435 2 5.2754296503028568e+00 2.1864666167011220e+00 7.4484580089786574e+00 -7 4 -2
526 1 6.4928997315696755e+00 2.2797204951852823e+00 8.5872495577425134e+00 -5 -4 -1
212 2 7.3875992214378234e+00 3.0632036513896446e+00 7.4527356549541093e+00 1 -4 -3
211 1 7.8546953295182460e+00 3.3022982991438536e+00 6.5866581266090849e+00 1 -4 -3
213 2 8.0836000267254455e+00 4.2396854557506645e+00 6.4995829239744216e+00 1 -4 -3
13 1 1.0155519175779890e+01 5.3497178479273866e-01 7.8507894362627315e+00 -3 2 2
430 1 1.1069316985748948e+01 4.1790718572062371e+00 4.8817545856800200e+00 -6 -6 1
15 2 1.0365779113554687e+01 1.5333761823720675e+00 7.9722535206924574e+00 -3 2 2
292 1 1.0149374919934647e+01 3.0963956178947418e+00 8.3987091927982966e+00 4 1 2
293 2 9.4005963156778432e+00 3.2622684352462272e+00 7.7647330344442436e+00 4 1 2
375 2 1.2087631802439494e+01 3.2062766265846974e+00 7.6166424974522586e+00 3 -2 10
432 2 1.1683607837262670e+01 4.0912971739439854e+00 5.6698189383079329e+00 -6 -6 1
373 1 1.2591667486156705e+01 3.7914745647743562e+00 7.0642240039629325e+00 3 -2 10
368 2 1.3106742647660651e+01 1.8625325990997355e+00 4.9615033800320569e+00 -3 -4 1
374 2 1.3167461586959035e+01 3.1617565009142794e+00 6.6511583392677940e+00 3 -2 10
14 2 1.0122784691335102e+01 4.6764694547444524e-01 6.8449643778166038e+00 -3 2 2
352 1 1.5992864210225800e+01 4.2717647039100290e+00 7.5494993999581412e+00 -4 5 6
95 2 1.7366312769192589e+01 1.9023718973074963e+00 5.5126678645346603e+00 -3 -1 -7
61 1 1.7449859718763488e+01 6.8654350266621611e-01 8.2033056848624870e+00 2 -3 6
369 2 1.4580816578133172e+01 2.0462547571625551e+00 5.4683249570047172e+00 -3 -4 1
354 2 1.6000846713262465e+01 3.4938373614928540e+00 8.0970190211060142e+00 -4 5 6
367 1 1.3675462111006707e+01 1.7575757344544380e+00 5.7693376734755120e+00 -3 -4 1
80 2 1.6646452333031032e+01 1.7734427668587829e+00 9.0189714191423818e+00 -4 5 2
25 1 2.4818882808448546e+00 6.4835282543585864e+00 8.8707452279065198e+00 -1 -4 1
205 1 1.1522580519498620e+00 7.9100842219709993e+00 7.1761532047905758e+00 -4 3 -2
27 2 3.3098887260093077e+00 6.7540778346730974e+00 8.4797712750421752e+00 -1 -4 1
97 1 3.1864063248692589e+00 8.0532813083003063e+00 5.2752194135913406e+00 -4 2 3
98 2 2.5404500054578629e+00 7.8132666287147741e+00 5.9784337201036708e+00 -4 2 3
26 2 1.8115002708933186e+00 6.8670130541485976e+00 8.2871549809584977e+00 -1 -4 1
99 2 4.0280823940901911e+00 8.2219273499301622e+00 5.6831084629038431e+00 -4 2 3
470 2 8.6934196936640120e+00 6.9577172328332129e+00 8.7384784646472973e+00 -7 -2 1
215 2 6.2524776443019343e+00 8.6639753143186731e+00 6.2911750861133839e+00 1 -6 2
457 1 5.4485560474804995e+00 6.5377786089166623e+00 7.8505690181945909e+00 7 2 -4
316 1 5.3831071601246201e+00 4.8005909334395387e+00 5.8312405938157541e+00 4 2 7
318 2 5.3048405117705562e+00 5.3967934698083431e+00 6.6040248790690494e+00 4 2 7
458 2 5.8219294776326773e+00 7.4565687530205702e+00 7.6293990205804230e+00 7 2 -4
203 2 8.3345906599506847e+00 5.7813735639398542e+00 5.1238862603224833e+00 0 4 0
459 2 5.7664335568489875e+00 6.2559501255811165e+00 8.7595922217532269e+00 7 2 -4
204 2 9.7585113110753099e+00 5.2062199846138597e+00 5.2832484605484655e+00 0 4 0
270 2 1.2937173206691906e+01 7.4803383375118768e+00 8.0585501776254667e+00 12 3 10
469 1 8.9725695141269828e+00 6.0602754369700635e+00 8.5496871219738750e+00 -7 -2 1
202 1 9.0896192591163185e+00 5.7797617378324775e+00 5.7359063888441293e+00 0 4 0
138 2 1.1806323756915795e+01 8.2755241366452630e+00 5.0634464419037526e+00 5 -6 -1
136 1 1.2696276888670965e+01 8.6146755398894701e+00 5.2024675200357287e+00 5 -6 -1
181 1 1.0091868191573361e+01 8.0876438604310721e+00 5.1580091450436925e+00 -6 -9 -1
471 2 9.0363327073209145e+00 5.9172400230319724e+00 7.5837818141150519e+00 -7 -2 1
182 2 9.7705572260433922e+00 7.2068532549794835e+00 5.4430388845762803e+00 -6 -9 -1
269 2 1.2844849880173248e+01 8.3994525552095531e+00 6.7924298075132770e+00 12 3 10
268 1 1.2781046707752431e+01 8.4215312268053140e+00 7.7960654840158190e+00 12 3 10
146 2 1.2506077794167604e+01 6.0545372320922164e+00 9.0585384902063417e+00 0 1 0
353 2 1.5970369693465649e+01 5.0524219256290763e+00 8.1092492241963292e+00 -4 5 6
164 2 1.5607349454450697e+01 4.9685286215916511e+00 5.8031415603534446e+00 9 -3 -3
145 1 1.3380246667842975e+01 6.0629304343226336e+00 8.6160217381033775e+00 0 1 0
147 2 1.3267181927007863e+01 5.3173268158373492e+00 8.0107670804530660e+00 0 1 0
517 1 1.5580861595650111e+01 7.7347765308468537e+00 6.3835475767051069e+00 2 1 -7
519 2 1.5055469446537488e+01 7.6960109198589057e+00 7.2095344708873954e+00 2 1 -7
207 2 1.7436998988080450e+01 7.7592851805921423e+00 6.9408110939761487e+00 -5 3 -2
518 2 1.5509575818473955e+01 8.6681472816442522e+00 6.0493840333618323e+00 2 1 -7
456 2 2.1729777772254248e+00 7.9332930791002054e-01 1.2500012940908604e+01 -1 1 -4
159 2 2.0860362788299818e+00 3.5683923691643069e+00 1.0029783695386264e+01 -5 6 -11
507 2 4.1527843411616159e+00 3.6832235339680902e-01 1.1070535444855210e+01 0 -4 7
157 1 1.7444141480297011e+00 4.3805745800915128e+00 1.0499221905871940e+01 -5 6 -11
483 2 4.4828292775805396e+00 4.3281468438890665e+00 9.5515890865557544e+00 -8 -4 4
426 2 3.9922333158760472e+00 1.9608681934790209e+00 9.4560768584203405e+00 -2 -3 4
169 1 8.6389394057997115e-01 1.6499939212530981e+00 1.3338683195589045e+01 1 5 -8
424 1 3.3526723533761507e+00 2.6171737154573527e+00 9.1802665539781874e+00 -2 -3 4
505 1 4.7738784131236418e+00 4.8350371577814788e-01 1.0333492509167934e+01 0 -4 7
428 2 5.0238679059547922e+00 3.8952433328127078e+00 1.2736622510097673e+01 5 3 -13
377 2 6.4707387919878787e+00 2.3416201584929266e+00 1.2040215394207680e+01 -5 -2 -2
376 1 6.9799844325899292e+00 1.6127905442390764e+00 1.1611541001866007e+01 -5 -2 -2
506 2 5.5588875798828656e+00 8.8162109160262214e-01 1.0765746915147997e+01 0 -4 7
168 2 8.5304799014142212e+00 2.0697850053057207e+00 1.0985774570339757e+01 -6 3 -5
378 2 7.1392827067928746e+00 9.8012195912690536e-01 1.2320994237881843e+01 -5 -2 -2
567 2 8.3598645428080491e+00 4.4172733819379690e+00 1.2577848322486028e+01 -4 2 1
565 1 8.8868333514980833e+00 4.1944577795625504e+00 1.3355970131368954e+01 -4 2 1
527 2 6.6176087835341466e+00 2.5181279994891130e+00 9.4922778184357934e+00 -5 -4 -1
427 1 5.6613627601503422e+00 3.2636217481703174e+00 1.3178160058196472e+01 5 3 -13
475 1 7.6120975406985112e+00 4.3978711920230094e+00 1.0494052681413656e+01 1 1 -6
67 1 1.1938394163692211e+01 3.5543094379272180e+00 1.1499610942658427e+01 -4 -3 -2
69 2 1.1940338156723916e+01 3.7233406748325888e+00 1.2479670927539916e+01 -4 -3 -2
167 2 1.0020057965197081e+01 2.5502707760255801e+00 1.1202121057993528e+01 -6 3 -5
166 1 9.4853696403535785e+00 1.9402126224843619e+00 1.0655568886929540e+01 -6 3 -5
339 2 1.2583684378819477e+01 2.0589561727994266e+00 1.0125950028704834e+01 0 -2 8
68 2 1.1492512821204789e+01 4.3584742453406111e+00 1.1241428160230566e+01 -4 -3 -2
337 1 1.3242984550077651e+01 1.3787217314777789e+00 9.8939020805993749e+00 0 -2 8
294 2 9.8971730388621406e+00 2.7193380945728540e+00 9.2884783653740381e+00 4 1 2
338 2 1.2917229287971244e+01 7.3307596632843408e-01 9.2155991526207739e+00 0 -2 8
400 1 1.0032449441176304e+01 6.2394506620767476e-01 1.3308144028043166e+01 0 4 -2
33 2 1.7184429245011064e+01 4.2254819216135981e+00 1.1485994015263488e+01 -9 5 4
171 2 1.7414640137664694e+01 2.2304862520091282e+00 1.2841490493328433e+01 0 5 -8
31 1 1.6491628246471461e+01 3.5731121451271024e+00 1.1656116242234132e+01 -9 5 4
32 2 1.6391510092206975e+01 3.1234363414673569e+00 1.0833456678378198e+01 -9 5 4
555 2 1.3832100308421808e+01 5.7439547217060882e-01 1.1427074072961178e+01 -1 5 7
554 2 1.4734988750075372e+01 4.8384070485518227e-01 1.2612293286736499e+01 -1 5 7
81 2 1.5103754756616794e+01 2.0187496113982011e+00 9.4442717616700325e+00 -4 5 2
79 1 1.5972563360398834e+01 2.4322304185026429e+00 9.3595105862260759e+00 -4 5 2
237 2 2.8143475211389815e+00 4.7413673795014146e+00 1.1958524830628512e+01 -1 4 2
235 1 3.6939587775015319e+00 4.9884603085331660e+00 1.2265524027941604e+01 -1 4 2
158 2 1.9832236702447057e+00 4.9690969868276120e+00 9.7837427657255152e+00 -5 6 -11
236 2 3.5828380919435849e+00 5.6120141807613173e+00 1.2957662640950312e+01 -1 4 2
149 2 9.0579622966441942e-01 7.3966038239397296e+00 1.1613728175360169e+01 -1 -5 -6
179 2 2.4091241680414455e+00 8.0554517534636503e+00 1.0244647278609804e+01 0 4 1
178 1 1.8796511738445185e+00 8.7035864942288690e+00 1.0788621504915401e+01 0 4 1
482 2 4.5788631126156574e+00 5.2253319798407505e+00 1.0821987180061482e+01 -8 -4 4
150 2 6.6098778397660429e-01 6.3219093578037233e+00 1.2751652287598866e+01 -1 -5 -6
477 2 6.7077630865292353e+00 4.5453005511206213e+00 1.0263788682577713e+01 1 1 -6
481 1 5.0538630110844514e+00 4.9695897186034657e+00 9.9685423454104640e+00 -8 -4 4
404 2 7.4744592456445966e+00 6.9283168421840573e+00 1.2016985368976711e+01 3 5 2
405 2 7.0644042423537936e+00 6.1226344341975603e+00 1.0724181199928113e+01 3 5 2
403 1 7.0250993798446650e+00 6.9965962176599792e+00 1.1157794769147559e+01 3 5 2
476 2 8.2721008843459387e+00 4.7132710092301204e+00 9.8165473769150804e+00 1 1 -6
231 2 5.7964066046182188e+00 8.2904428349035584e+00 1.1839498081656284e+01 3 10 2
78 2 7.9812824729650069e+00 8.2729379964208221e+00 1.0078320683356067e+01 -1 -6 -1
480 2 1.0405101934163486e+01 5.9476765496358741e+00 9.4922734718117869e+00 -1 1 0
478 1 1.1195204088774311e+01 5.8325979819142413e+00 1.0081753674021911e+01 -1 1 0
479 2 1.1201051940951167e+01 6.6428733564365565e+00 1.0573768493169075e+01 -1 1 0
380 2 1.0710830774756953e+01 7.8656685498125958e+00 1.2972581096779551e+01 3 -7 5
379 1 1.1383364098630375e+01 7.3524663062037101e+00 1.2543800045890439e+01 3 -7 5
381 2 1.2223985835114831e+01 7.8584356088330480e+00 1.2806816901079900e+01 3 -7 5
272 2 1.1399342715248013e+01 5.6198696666024217e+00 1.3256060791661872e+01 6 -3 2
464 2 1.3474331857748147e+01 4.7570163014648275e+00 1.1808450311012797e+01 1 4 4
465 2 1.4984551772432996e+01 4.6348070957039438e+00 1.2005179904747184e+01 1 4 4
463 1 1.4195239936847754e+01 5.2255715194871613e+00 1.2280154009677357e+01 1 4 4
491 2 1.5078858389059357e+01 6.0157345013976551e+00 9.7196389874721678e+00 0 -1 -10
148 1 1.7406086295743251e+01 6.9808885396760276e+00 1.2068941345126303e+01 -2 -5 -6
125 2 1.4608129755684040e+01 8.3382393393600349e+00 1.2595268174775992e+01 3 -7 6
492 2 1.6500154766219080e+01 6.0925535352888902e+00 1.0397017592905211e+01 0 -1 -10
126 2 1.4204482102591635e+01 6.8994989077739977e+00 1.2773767952097206e+01 3 -7 6
490 1 1.6021277587839791e+01 6.1945249175031734e+00 9.5468680442322729e+00 0 -1 -10
266 2 1.6379198996076695e+01 8.0983683083249360e+00 9.4200265412917048e+00 -3 3 0
124 1 1.4011881818390375e+01 7.7873301697277730e+00 1.3069504061447574e+01 3 -7 6
64 1 9.2211135231118924e-01 1.9956629142339394e-01 1.6458238663219404e+01 0 -2 -2
66 2 1.6002020497260592e+00 8.3429466707584155e-01 1.6171904237560330e+01 0 -2 -2
303 2 3.0570897855757280e+00 2.4428540502763889e+00 1.5431392191647358e+01 -1 -4 4
301 1 2.1527159076755402e+00 2.4416215624770841e+00 1.5639493979065499e+01 -1 -4 4
302 2 2.0474681393785206e+00 3.1004541515324315e+00 1.6362173143519811e+01 -1 -4 4
170 2 1.1729848722240592e+00 2.1121755734536496e+00 1.4141445847846654e+01 1 5 -8
88 1 2.0290511611423350e+00 4.3934610677766033e+00 1.7696589301458193e+01 4 2 5
3 2 4.6597438709409813e+00 9.2320375819596678e-01 1.5043088177453962e+01 -3 -2 0
566 2 8.4113187026341425e+00 3.5413380962966041e+00 1.3936279819881344e+01 -4 2 1
1 1 4.6984493220351631e+00 1.9001556444397245e+00 1.5275128622994648e+01 -3 -2 0
2 2 5.2110785223012241e+00 2.0825979028749617e+00 1.6063850404432465e+01 -3 -2 0
429 2 5.1384287124228187e+00 2.8313904327322725e+00 1.3891043237435746e+01 5 3 -13
144 2 7.4559135560577436e+00 1.8654802981044523e+00 1.5389817577286097e+01 -4 -3 2
223 1 6.1006214904671019e+00 2.7075358661981062e+00 1.7430084591138137e+01 3 -1 -1
142 1 8.3109255860105371e+00 2.1956422363683235e+00 1.5044253853114215e+01 -4 -3 2
143 2 8.7660490579942127e+00 2.4239071203925091e+00 1.5922316291753921e+01 -4 -3 2
191 2 1.1038402640027318e+01 2.9654998036472704e+00 1.7158363259927839e+01 0 -4 -5
439 1 1.2562302387525357e+01 1.4907456223814819e+00 1.4564542222089525e+01 5 -3 1
440 2 1.1787243006237837e+01 1.2951577007331323e+00 1.4025455296334215e+01 5 -3 1
402 2 9.4459895476824727e+00 1.2457024411131543e+00 1.3703293256843452e+01 0 4 -2
441 2 1.2260618554669430e+01 1.1402177203823936e+00 1.5377691177897047e+01 5 -3 1
254 2 1.3008364792439263e+01 4.1969467971446246e+00 1.6749115391067015e+01 -5 3 -1
190 1 1.0163995520549182e+01 2.7131713229783898e+00 1.7095121277387129e+01 0 -4 -5
253 1 1.2614807017529037e+01 3.8885739486258268e+00 1.7606200860549230e+01 -5 3 -1
192 2 9.7540245343626530e+00 3.3380972297269178e+00 1.7645781751114566e+01 0 -4 -5
551 2 1.4115355311611420e+01 1.9291514491181352e+00 1.4067531354280455e+01 2 1 6
363 2 1.6819723047476604e+01 1.2832486106965693e+00 1.6936884866085261e+01 -7 5 -7
550 1 1.5044835716352615e+01 1.6919227901160740e+00 1.3931984990400878e+01 2 1 6
552 2 1.5494863786486812e+01 2.4749654498995746e+00 1.4163995617166657e+01 2 1 6
278 2 1.6172677934561662e+01 3.2989354549207031e+00 1.6021724471435469e+01 -2 0 4
277 1 1.6225642214204086e+01 3.7926278489686225e+00 1.5136880364564549e+01 -2 0 4
279 2 1.5487270604788279e+01 4.4128836778394600e+00 1.5152045115318456e+01 -2 0 4
233 2 1.5033722683802120e+01 4.4067444917786225e-01 1.5131750043801830e+01 2 4 0
361 1 1.6157164428603448e+01 1.9217569493815738e+00 1.7287418635662924e+01 -7 5 -7
11 2 4.4929171347489416e-01 8.6580948660568460e+00 1.4553776707678090e+01 7 2 0
521 2 4.6087084700404706e+00 7.7668265827702054e+00 1.3481271249132394e+01 3 2 2
284 2 1.0992117693405556e+00 5.9600275069146447e+00 1.5041411727175850e+01 2 -3 0
501 2 4.0472754927764036e+00 8.1915471167939398e+00 1.7137624389950460e+01 -2 1 -3
283 1 1.1185855820941584e+00 5.3745846060992335e+00 1.4215889023963063e+01 2 -3 0
285 2 4.2664699958623292e-01 4.7531633003922025e+00 1.4417885832172063e+01 2 -3 0
499 1 3.4747471636005258e+00 8.0809264984053399e+00 1.6349231009836032e+01 -2 1 -3
345 2 2.2222706307037852e+00 7.2498784105979910e+00 1.6617784083969457e+01 -1 0 -1
343 1 1.3488540706340491e+00 6.7614450900436873e+00 1.6804212898419514e+01 -1 0 -1
522 2 3.8993601139885707e+00 7.3033678721345687e+00 1.4879598828370652e+01 3 2 2
344 2 1.6718893102895194e+00 5.9113634863102966e+00 1.7186360928723182e+01 -1 0 -1
520 1 4.3484988060284318e+00 6.9847853649389737e+00 1.4037953034457393e+01 3 2 2
82 1 8.0959896783079088e+00 6.8061760534631954e+00 1.3636391670251228e+01 -3 -1 1
83 2 8.8026731086349006e+00 6.0437259155943384e+00 1.3600499139004123e+01 -3 -1 1
570 2 6.1379683881400586e+00 4.6046667539612187e+00 1.4476819210842182e+01 0 -2 -7
84 2 7.3024843424467498e+00 6.3816319842775702e+00 1.4077211799251298e+01 -3 -1 1
569 2 5.3385760321173770e+00 6.0020201644049536e+00 1.4601916871298783e+01 0 -2 -7
129 2 6.4964698323286356e+00 5.7071895869849030e+00 1.6673314896178830e+01 -2 -1 -2
568 1 6.1921384507157651e+00 5.5504496499445981e+00 1.4727274783770328e+01 0 -2 -7
127 1 6.6979490398863177e+00 5.8021513977629988e+00 1.7634373029594578e+01 -2 -1 -2
44 2 1.0545099536903869e+01 8.3796936375606936e+00 1.4930148488667500e+01 4 -4 1
273 2 1.0673857254926263e+01 4.5972408212560438e+00 1.4134946071779655e+01 6 -3 2
534 2 1.3131563342261364e+01 4.8183735458486492e+00 1.4686337797315945e+01 1 3 6
271 1 1.1594336728354053e+01 4.8653746873608279e+00 1.3847769873702601e+01 6 -3 2
54 2 1.2597588717050197e+01 7.3272833267502975e+00 1.6136539179610139e+01 -3 0 0
52 1 1.1646878719981446e+01 7.4284365706259683e+00 1.6329972213347251e+01 -3 0 0
45 2 9.1924112499235964e+00 8.1052910182106874e+00 1.4259681052237214e+01 4 -4 1
53 2 1.1375158322428687e+01 7.1168131765050049e+00 1.7194602211762298e+01 -3 0 0
10 1 1.7028464783040114e+01 8.6229562680536649e+00 1.5279915208680812e+01 6 2 0
113 2 1.4845971448991730e+01 7.7512117050606157e+00 1.6865356797364782e+01 -2 2 -3
112 1 1.4472919808927490e+01 7.4323861644025975e+00 1.5971575615701230e+01 -2 2 -3
114 2 1.5125804574905651e+01 7.6695954122336039e+00 1.5232638768202737e+01 -2 2 -3
12 2 1.7366481941244842e+01 8.0502669880619315e+00 1.5942542452736328e+01 6 2 0
532 1 1.3780811177804150e+01 4.9087267880623875e+00 1.5420825349332681e+01 1 3 6
533 2 1.4018786402085560e+01 5.8376450272338882e+00 1.5550679351949739e+01 1 3 6
415 1 2.7762281573433101e+00 1.1208963042288662e+01 1.5083346330475844e+00 2 2 0
450 2 2.4260669615649788e+00 1.0161834898106306e+01 2.6214102164007538e+00 -1 3 -1
416 2 3.6172400918209928e+00 1.1621370746492735e+01 1.3274283350640088e+00 2 2 0
448 1 1.8227010536748494e+00 9.6702054216443347e+00 3.3035699443038800e+00 -1 3 -1
449 2 2.4905425527578586e+00 9.1562923710573987e+00 3.8448300912401789e+00 -1 3 -1
360 2 7.0611242325561596e-01 1.2306605822908557e+01 3.6318009907565485e+00 0 0 4
195 2 1.2999593329793249e+00 1.0592196800376067e+01 4.7218289031883591e+00 3 3 -3
116 2 4.3012865639912281e+00 9.0258007831149740e+00 2.4653086393340820e+00 6 -2 3
417 2 2.1381805847621398e+00 1.1640160246954860e+01 9.2989074969119712e-01 2 2 0
86 2 4.7023324320566822e+00 1.0991348677204979e+01 4.1073333786086756e+00 -4 4 3
355 1 5.3720573568275078e+00 1.1931296108943835e+01 1.0978558654210993e+00 0 -3 -7
85 1 5.3601551029554839e+00 1.0633792585204944e+01 3.4936740851322847e+00 -4 4 3
87 2 5.2572491956031966e+00 1.1128408708653668e+01 2.6521549604251664e+00 -4 4 3
357 2 5.3449912264974415e+00 1.2755742848485886e+01 1.6195229857168749e+00 0 -3 -7
540 2 6.6796455555838392e+00 1.1280079428954243e+01 4.3336807305328939e+00 8 6 0
100 1 8.0437475569121411e+00 1.2971439421285355e+01 1.3402665546234829e+00 -2 2 6
101 2 8.8271579535889302e+00 1.2427201954483126e+01 1.3571979942551315e+00 -2 2 6
240 2 6.6296610863535088e+00 9.0603007136241338e+00 4.1495203302079933e+00 0 -5 -7
356 2 6.3320596701059628e+00 1.1710522731268428e+01 9.6644823886466047e-01 0 -3 -7
347 2 9.2528888083895158e+00 9.6656724171810779e+00 2.7579330639631618e+00 2 3 -1
391 1 1.0341781673222469e+01 1.1422074130348413e+01 1.8998171702602740e+00 0 -7 10
393 2 1.0524183923515556e+01 1.1973465275228250e+01 2.6761461068980195e+00 0 -7 10
226 1 1.0142298572326597e+01 1.2383550760009719e+01 4.7339374856526124e+00 2 3 5
514 1 1.2965370202195045e+01 1.1314617979939223e+01 4.7316646649527723e+00 3 2 -1
392 2 1.1110336011739458e+01 1.1342742703443411e+01 1.3400929398455326e+00 0 -7 10
396 2 1.4377625426498588e+01 1.1317028989323159e+01 1.7492136292260687e+00 10 0 0
118 1 1.4582060107189907e+01 1.2390722687482548e+01 3.0105253835552674e+00 3 -3 -1
119 2 1.5568383888523570e+01 1.2435198007702034e+01 3.2010026702539167e+00 3 -3 -1
516 2 1.3450250408704791e+01 1.1620082945306436e+01 3.9471300960659446e+00 3 2 -1
394 1 1.4363593103938285e+01 1.0576501427748100e+01 1.0744907315496199e+00 10 0 0
358 1 1.7110276369744192e+01 1.2885759626916668e+01 3.5400058825087219e+00 -1 0 4
437 2 1.4972422646821480e+01 9.1004833325120043e+00 1.2655084433169221e+00 -1 -2 -1
395 2 1.3519808539075504e+01 1.0561748237394104e+01 6.0035036979006096e-01 10 0 0
562 1 4.6313595365199456e+00 1.6472163703565290e+01 2.4441226761191608e+00 -7 -6 -1
564 2 4.4397431384340589e+00 1.6769104988905720e+01 3.3698073135109952e+00 -7 -6 -1
40 1 2.6768949042182677e+00 1.5848162891568315e+01 6.6205454611902814e-01 1 -1 5
332 2 1.1612963587560998e+00 1.4733518097965403e+01 1.3416955958353380e+00 2 3 -5
419 2 4.3380929944698003e+00 1.3583287659700069e+01 3.7733573879624269e+00 5 3 5
41 2 3.3071086323762562e+00 1.6282226050827727e+01 1.2716729314591770e+00 1 -1 5
333 2 4.0733477272447516e-01 1.3509843412990387e+01 7.5474583288610408e-01 2 3 -5
420 2 4.7197214969483454e+00 1.4818408209221221e+01 2.6435183894276819e+00 5 3 5
102 2 7.9121375065532202e+00 1.3300721430155757e+01 2.2738636365254461e+00 -2 2 6
418 1 5.0040564925357556e+00 1.3984868869292535e+01 3.1403889011039392e+00 5 3 5
251 2 6.6740098253394180e+00 1.4269427529122591e+01 3.8194074968690379e+00 3 -1 1
250 1 7.6197433150733023e+00 1.4158962636645912e+01 4.0089387005342507e+00 3 -1 1
131 2 8.7551225241942383e+00 1.5495058159308575e+01 3.3015339792312570e+00 3 4 -7
563 2 5.2562110129457134e+00 1.7172586161987834e+01 2.1424335971408901e+00 -7 -6 -1
252 2 7.7294559699463097e+00 1.3324549299530414e+01 4.4571243866916905e+00 3 -1 1
502 1 1.0022240910246067e+01 1.7152365002537426e+01 5.4875232589904988e-01 -1 -1 4
130 1 9.4822708550415733e+00 1.6028746634743449e+01 2.9861006359112672e+00 3 4 -7
132 2 9.8934236674497580e+00 1.6474490875009959e+01 3.7218426557844317e+00 3 4 -7
160 1 1.0972348544537606e+01 1.4230292290750642e+01 1.6675470107036385e+00 -5 6 3
161 2 1.0344585705412017e+01 1.4960233879856277e+01 2.0444268766628255e+00 -5 6 3
162 2 1.1811012093251382e+01 1.4655887031345475e+01 1.9358117212799131e+00 -5 6 3
504 2 9.7496114332660788e+00 1.6869598002857547e+01 1.4914755976435190e+00 -1 -1 4
331 1 1.7486406031137470e+01 1.4302868393171563e+01 1.3649122211146216e+00 1 3 -5
359 2 1.7274253329903075e+01 1.3422831688383145e+01 2.7293451620902851e+00 -1 0 4
120 2 1.4149315396544532e+01 1.3269123372793956e+01 2.8978751468595765e+00 3 -3 -1
572 2 1.3452133658775765e+01 1.5252112373369799e+01 3.6788775714389139e+00 -1 0 -2
571 1 1.3489225193053546e+01 1.4754134178516081e+01 2.8370644160744218e+00 -1 0 -2
573 2 1.3984857908749815e+01 1.5364495658607787e+01 2.2793894304447235e+00 -1 0 -2
121 1 1.5385718061474378e+01 1.5958289396878023e+01 1.1168015220518539e+00 -5 0 -2
407 2 1.6700143714488476e+01 1.5875629580968795e+01 4.2124345275085870e+00 0 -2 4
444 2 1.6141470534787494e+01 1.6957734911772885e+01 2.3845038528761213e+00 -7 -1 -4
122 2 1.6220447092696293e+01 1.5436917642686867e+01 1.0115243868693056e+00 -5 0 -2
442 1 1.6549368448331133e+01 1.7296213499801286e+01 3.1715244340009545e+00 -7 -1 -4
408 2 1.6876781715564825e+01 1.4333733819909630e+01 4.6609567843197075e+00 0 -2 4
28 1 3.4616200578628336e+00 1.2275123078544906e+01 4.8477427572218765e+00 0 2 6
106 1 4.0770998010589887e-01 1.2345194214351560e+01 9.0089580175913930e+00 -3 -4 1
384 2 3.5811617480282649e+00 1.0478711402212587e+01 8.3031580835760828e+00 2 -3 0
241 1 1.6780381906644357e+00 1.0346444388476982e+01 7.8966927317112177e+00 -1 9 -2