LAMMPS data file via write_data, version 15 Apr 2020, timestep = 356000

864 atoms
2 atom types
576 bonds
1 bond types
288 angles
1 angle types

4.7619655040314723e-01 1.7731375849599139e+01 xlo xhi
1.6524279060018243e+00 2.1976749894001095e+01 ylo yhi
5.8095867922410627e-01 2.1632237120775052e+01 zlo zhi

Masses

1 16
2 2

Atoms # full

370 1 2 -1.1794000000000000e+00 2.7183409251051489e+00 6.2234302708998719e+00 2.3890289058536776e+00 4 6 -1
371 1 1 5.8970000000000000e-01 2.1421076433400903e+00 5.5942567728828942e+00 1.9549475861727970e+00 4 6 -1
436 1 2 -1.1794000000000000e+00 3.5703143247520925e+00 8.4196441655501051e+00 1.0327513532617876e+00 -1 5 0
529 1 2 -1.1794000000000000e+00 1.3161191307668700e+00 4.0687260248866846e+00 1.4829346088271247e+00 -2 0 -5
530 1 1 5.8970000000000000e-01 1.6509796243734369e+00 3.1723655411499356e+00 1.4557999942377888e+00 -2 0 -5
766 1 2 -1.1794000000000000e+00 4.4435999160734498e+00 1.0756648695899163e+01 2.7867321365756643e+00 -2 -2 2
259 1 2 -1.1794000000000000e+00 1.4587581026492387e+01 4.2737984952149635e+00 1.4012330139942419e+00 2 -1 6
489 1 1 5.8970000000000000e-01 4.6950187681389970e+00 6.0071803377096726e+00 2.4828381144051415e+00 2 -5 3
492 1 1 5.8970000000000000e-01 1.4351310995762050e+01 1.1237846691516971e+01 8.5376307682473351e-01 1 3 5
438 1 1 5.8970000000000000e-01 3.1327606294296753e+00 7.6623001610878871e+00 1.4217337808971287e+00 -1 5 0
456 1 1 5.8970000000000000e-01 1.1450700568626356e+01 5.9491639754456527e+00 3.2104147325928034e+00 2 -1 1
767 1 1 5.8970000000000000e-01 5.0382137432174288e+00 1.0198237162594435e+01 3.2876728391103094e+00 -2 -2 2
437 1 1 5.8970000000000000e-01 4.4518512777654884e+00 8.1081698937646056e+00 8.2730783344725722e-01 -1 5 0
531 1 1 5.8970000000000000e-01 8.4497548660031707e-01 4.1238520867911186e+00 2.3143878847036650e+00 -2 0 -5
454 1 2 -1.1794000000000000e+00 1.2358879231710487e+01 6.2507557277689960e+00 3.1862356237107741e+00 2 -1 1
372 1 1 5.8970000000000000e-01 2.1535468262148574e+00 6.6712564788235387e+00 3.0189415604408305e+00 4 6 -1
72 1 1 5.8970000000000000e-01 1.7659629778185298e+01 1.0059328209622306e+01 1.8557662097269234e+00 3 3 -4
487 1 2 -1.1794000000000000e+00 5.5312448272461525e+00 6.0828832671017619e+00 2.9425395219265655e+00 2 -5 3
646 1 2 -1.1794000000000000e+00 1.1840667453719588e+01 1.0770691841822641e+01 3.4820960051235077e+00 -5 0 0
462 1 1 5.8970000000000000e-01 1.1803902824240073e+01 8.7187071503463436e+00 1.3813641973147546e+00 2 3 -2
200 1 1 5.8970000000000000e-01 1.1366473205181997e+01 4.2456804972707385e+00 9.8379832393705813e-01 1 -2 0
129 1 1 5.8970000000000000e-01 6.3288391807636186e+00 7.1300806464714315e+00 1.2147387051582801e+00 -1 1 -3
224 1 1 5.8970000000000000e-01 7.6915807200272885e+00 1.0513584267043527e+01 1.7773100692173713e+00 2 0 -8
612 1 1 5.8970000000000000e-01 1.0533346516517344e+01 2.0319754479291219e+00 9.7978297343316390e-01 3 3 -1
611 1 1 5.8970000000000000e-01 1.1727858972116096e+01 2.0905417755850904e+00 1.9081430880726122e+00 3 3 -1
695 1 1 5.8970000000000000e-01 6.9498206095905806e+00 4.7185215211289373e+00 2.3671890427764533e+00 1 -1 0
694 1 2 -1.1794000000000000e+00 7.7674699522707407e+00 4.2278084464645893e+00 2.2836381303608442e+00 1 -1 0
683 1 1 5.8970000000000000e-01 9.2987526835862315e+00 8.1402940457944464e+00 2.0962873682645742e+00 4 0 -3
225 1 1 5.8970000000000000e-01 7.6517348977779545e+00 9.0003691175259561e+00 1.8044160954670516e+00 2 0 -8
684 1 1 5.8970000000000000e-01 8.9117695600151556e+00 6.7899848329998349e+00 2.6611338466323233e+00 4 0 -3
682 1 2 -1.1794000000000000e+00 8.5470995283379558e+00 7.5627408397971054e+00 2.2296310152669183e+00 4 0 -3
696 1 1 5.8970000000000000e-01 7.6558329143772763e+00 3.4747980675671668e+00 2.8640200100921698e+00 1 -1 0
223 1 2 -1.1794000000000000e+00 7.2977694583190544e+00 9.7587412283122497e+00 1.3397539550012092e+00 2 0 -8
460 1 2 -1.1794000000000000e+00 1.0912275413418600e+01 8.9529287567841767e+00 1.6391848704799410e+00 2 3 -2
610 1 2 -1.1794000000000000e+00 1.0906581152005433e+01 2.5371029277897246e+00 1.7021905260477526e+00 3 3 -1
647 1 1 5.8970000000000000e-01 1.1508055572557138e+01 1.0218810142922337e+01 2.7741930949042723e+00 -5 0 0
199 1 2 -1.1794000000000000e+00 1.1618614778937092e+01 5.1378660977652491e+00 7.4555443320402304e-01 1 -2 0
201 1 1 5.8970000000000000e-01 1.2128184929948777e+01 5.4509477621690436e+00 1.4929824885569685e+00 1 -2 0
461 1 1 5.8970000000000000e-01 1.0539109842804526e+01 9.3688077633999107e+00 8.6193148138057418e-01 2 3 -2
648 1 1 5.8970000000000000e-01 1.2513569646128571e+01 1.1311667418927195e+01 3.0687213340008603e+00 -5 0 0
139 1 2 -1.1794000000000000e+00 1.4684539451021427e+01 8.4781709134320931e+00 3.2687291413862103e+00 -2 -2 0
851 1 1 5.8970000000000000e-01 9.5909340593396859e+00 1.9011235071601489e+00 3.3612325739467037e+00 -5 -1 -1
141 1 1 5.8970000000000000e-01 1.4134884191507403e+01 8.3507542387984728e+00 2.4954408431840420e+00 -2 -2 0
261 1 1 5.8970000000000000e-01 1.5192487311299201e+01 3.5484671527889473e+00 1.2453050055857859e+00 2 -1 6
140 1 1 5.8970000000000000e-01 1.5530041953897994e+01 8.7589665671956833e+00 2.9185720033523768e+00 -2 -2 0
70 1 2 -1.1794000000000000e+00 1.7178942391888000e+01 9.2904579016740829e+00 2.1625363806061397e+00 3 3 -4
260 1 1 5.8970000000000000e-01 1.4690163489631754e+01 4.8404690055808297e+00 6.3658166268794858e-01 2 -1 6
71 1 1 5.8970000000000000e-01 4.9242494783815616e-01 8.9012304089222738e+00 2.8269574850345709e+00 4 3 -4
638 1 1 5.8970000000000000e-01 1.7229716520120164e+01 8.2119387730244071e+00 8.9742049793481171e-01 -7 2 5
206 1 1 5.8970000000000000e-01 1.4859676784496990e+01 5.2222575740812047e+00 3.0792123322019909e+00 -4 3 -3
457 1 2 -1.1794000000000000e+00 1.2904929515059960e+00 1.1526880458272945e+01 1.2962549418245046e+00 -1 0 -2
768 1 1 5.8970000000000000e-01 4.1481063939822107e+00 1.0204172360368661e+01 2.0630030578083773e+00 -2 -2 2
828 1 1 5.8970000000000000e-01 9.2481967073653966e+00 4.9535868453098351e+00 3.1075831642133163e+00 0 1 2
672 1 1 5.8970000000000000e-01 5.8644007098178443e+00 1.1697432552605969e+01 1.1666403237975778e+00 5 1 1
576 1 1 5.8970000000000000e-01 5.2880937281579126e+00 1.7328761069304799e+00 1.3528716165258812e+00 2 1 0
412 1 2 -1.1794000000000000e+00 5.4036396603282215e+00 2.2811673854806362e+00 3.0084363939974055e+00 2 -2 3
826 1 2 -1.1794000000000000e+00 9.8454196581716573e+00 5.5945029460837912e+00 3.4934354661804781e+00 0 1 2
413 1 1 5.8970000000000000e-01 4.6931185616867150e+00 2.6261384592182804e+00 3.5492553488363874e+00 2 -2 3
353 1 1 5.8970000000000000e-01 2.2376941354408522e+00 1.1351900727337309e+01 4.5949890193136174e+00 5 3 -2
352 1 2 -1.1794000000000000e+00 2.4255956460888224e+00 1.0624684322029436e+01 5.1884365115893347e+00 5 3 -2
354 1 1 5.8970000000000000e-01 1.8859255252178340e+00 1.0798694770238384e+01 5.9596737761490690e+00 5 3 -2
359 1 1 5.8970000000000000e-01 7.8580199773676096e-01 7.7294544792574422e+00 4.8150026345849986e+00 2 0 -5
488 1 1 5.8970000000000000e-01 5.3885574497510014e+00 5.6338422720338528e+00 3.7758057395641225e+00 2 -5 3
273 1 1 5.8970000000000000e-01 4.6084390983655048e+00 8.1844974376576225e+00 5.3782065350839394e+00 -2 3 4
346 1 2 -1.1794000000000000e+00 1.0035724916210527e+00 2.4367579306450322e+00 5.7652896117457120e+00 -3 3 -4
169 1 2 -1.1794000000000000e+00 5.4805289360193585e+00 4.8471902048724527e+00 5.4420655177310486e+00 -4 5 -1
660 1 1 5.8970000000000000e-01 4.1799255473220063e+00 1.0454551312129771e+01 5.8359955315503580e+00 1 0 2
537 1 1 5.8970000000000000e-01 2.5881496191575168e+00 2.8882394018294417e+00 4.9351530422368919e+00 5 6 2
207 1 1 5.8970000000000000e-01 1.4916502452903721e+01 6.6333280137845687e+00 3.6249169474653753e+00 -4 3 -3
535 1 2 -1.1794000000000000e+00 3.2841315137889380e+00 3.3944750746454755e+00 4.5160285731071781e+00 5 6 2
348 1 1 5.8970000000000000e-01 4.7847277904747187e-01 2.7246345669972118e+00 6.5121015051589533e+00 -3 3 -4
585 1 1 5.8970000000000000e-01 7.4861486914306434e+00 1.1668952642251437e+01 6.3112271551702088e+00 1 -4 1
170 1 1 5.8970000000000000e-01 4.6469178559637587e+00 4.4175027843800025e+00 5.2502545934612970e+00 -4 5 -1
796 1 2 -1.1794000000000000e+00 5.8138165620225442e+00 8.6165217681815705e+00 4.0929404974444159e+00 0 -4 -3
358 1 2 -1.1794000000000000e+00 1.3647208808979321e+00 7.9695755550343934e+00 4.0914524852893397e+00 2 0 -5
580 1 2 -1.1794000000000000e+00 1.9925796464402128e+00 5.5940186955203997e+00 6.2205184387838983e+00 -1 -2 0
136 1 2 -1.1794000000000000e+00 8.9336298436128683e+00 5.7039207610371276e+00 6.0848088045744593e+00 7 -6 1
860 1 1 5.8970000000000000e-01 7.5696742616791166e+00 1.1613208549988995e+01 3.7349607187386531e+00 -2 -2 1
21 1 1 5.8970000000000000e-01 1.7633107758985822e+01 3.9391330365615236e+00 4.3795303597648561e+00 -5 -4 1
137 1 1 5.8970000000000000e-01 9.8113994011860708e+00 5.5982564013108522e+00 6.4518044981319544e+00 7 -6 1
410 1 1 5.8970000000000000e-01 1.2327007726852059e+01 4.7103969579555960e+00 5.7665828761590712e+00 3 3 -4
138 1 1 5.8970000000000000e-01 8.4966360475306786e+00 4.8713614906248131e+00 6.2642850215334231e+00 7 -6 1
584 1 1 5.8970000000000000e-01 7.6083230014461458e+00 1.0304975006087190e+01 5.6656414646425626e+00 1 -4 1
659 1 1 5.8970000000000000e-01 5.6333797916040966e+00 1.0853546563133147e+01 5.9788797882534377e+00 1 0 2
583 1 2 -1.1794000000000000e+00 7.3475779845429185e+00 1.1207909725965369e+01 5.4838408315721434e+00 1 -4 1
827 1 1 5.8970000000000000e-01 9.5200202120503903e+00 5.7194419277761543e+00 4.3849713083954418e+00 0 1 2
658 1 2 -1.1794000000000000e+00 4.8192684182671481e+00 1.0769022117342439e+01 6.4752757599744681e+00 1 0 2
798 1 1 5.8970000000000000e-01 6.7704238213702590e+00 8.6459388166246338e+00 4.0737600786963402e+00 0 -4 -3
582 1 1 5.8970000000000000e-01 2.4920086632715828e+00 6.2947861384985684e+00 5.8012018936397141e+00 -1 -2 0
271 1 2 -1.1794000000000000e+00 3.9737351973272426e+00 7.7195037861895468e+00 5.9234243866910381e+00 -2 3 4
171 1 1 5.8970000000000000e-01 6.1418611153162894e+00 4.1785266555019263e+00 5.2635754257778826e+00 -4 5 -1
409 1 2 -1.1794000000000000e+00 1.2775772905285326e+01 4.1537085353454684e+00 5.1301571890801068e+00 3 3 -4
190 1 2 -1.1794000000000000e+00 1.1200223237471979e+01 8.3816626765975997e+00 4.9190451000714122e+00 3 4 -4
862 1 2 -1.1794000000000000e+00 8.4859256111177661e+00 8.6071247199982732e+00 5.0744352340707568e+00 -1 -1 2
864 1 1 5.8970000000000000e-01 9.3244132196041551e+00 8.6558082276607387e+00 4.6151977439950782e+00 -1 -1 2
501 1 1 5.8970000000000000e-01 1.4039979253349149e+01 9.5353102557972118e+00 4.6744404363113095e+00 -1 -1 -2
192 1 1 5.8970000000000000e-01 1.1584825484818611e+01 9.2351202599511559e+00 4.7189915018329947e+00 3 4 -4
191 1 1 5.8970000000000000e-01 1.1545372017713159e+01 7.7984615804114190e+00 4.2429687220922343e+00 3 4 -4
360 1 1 5.8970000000000000e-01 1.8983337991128026e+00 8.6846675986203579e+00 4.4381958622315736e+00 2 0 -5
20 1 1 5.8970000000000000e-01 1.6885370642140124e+01 5.2300108902205729e+00 4.1213327320584421e+00 -5 -4 0
29 1 1 5.8970000000000000e-01 1.6596034647221632e+01 9.8837858057287136e+00 6.2072730840172614e+00 -6 -1 5
739 1 2 -1.1794000000000000e+00 1.6752493440684567e+01 7.8793860025951910e+00 6.1940128993787997e+00 -2 -1 1
536 1 1 5.8970000000000000e-01 2.8985775326294925e+00 4.2586301358048679e+00 4.3714101343295484e+00 5 6 2
863 1 1 5.8970000000000000e-01 8.6516555053481259e+00 8.0243114470878876e+00 5.8155107755399955e+00 -1 -1 2
411 1 1 5.8970000000000000e-01 1.2251072154487559e+01 3.3536793005803767e+00 5.0989801097961553e+00 3 3 -4
19 1 2 -1.1794000000000000e+00 5.0092485062298664e-01 4.8359068536980141e+00 4.0680833986700886e+00 -4 -4 1
500 1 1 5.8970000000000000e-01 1.3958882178093411e+01 9.6111469063068409e+00 6.1843459258374960e+00 -1 -1 -2
299 1 1 5.8970000000000000e-01 1.5339901617165419e+01 2.2998736734878591e+00 4.6084737285207407e+00 -4 -1 1
300 1 1 5.8970000000000000e-01 1.4394136371432730e+01 3.2686836356153512e+00 5.2860265725488587e+00 -4 -1 1
499 1 2 -1.1794000000000000e+00 1.3936182621725189e+01 1.0154805051734437e+01 5.3967858108682263e+00 -1 -1 -2
205 1 2 -1.1794000000000000e+00 1.5149609320936390e+01 5.7295466978670246e+00 3.8374519873110797e+00 -4 3 -3
298 1 2 -1.1794000000000000e+00 1.5163598613493557e+01 2.7230156936169148e+00 5.4488299125836548e+00 -4 -1 1
740 1 1 5.8970000000000000e-01 1.6243513574840122e+01 7.1601122027970279e+00 6.5680653822199719e+00 -2 -1 1
581 1 1 5.8970000000000000e-01 1.3017798876710980e+00 5.3826885951779824e+00 5.5924531790578937e+00 -1 -2 0
66 1 1 5.8970000000000000e-01 1.4785169945644476e+01 5.9632947037771338e+00 5.8100778408778391e+00 2 1 -2
272 1 1 5.8970000000000000e-01 4.5046933348645899e+00 7.2780078745488526e+00 6.5863687516195446e+00 -2 3 4
28 1 2 -1.1794000000000000e+00 1.6899494843890896e+01 1.0755148805185964e+01 6.4621632277909864e+00 -6 -1 5
455 1 1 5.8970000000000000e-01 1.2856526724360743e+01 5.5473962317573626e+00 3.6033242504438849e+00 2 -1 1
797 1 1 5.8970000000000000e-01 5.5885704324687868e+00 7.8190424240939045e+00 3.6137520701923171e+00 0 -4 -3
361 1 2 -1.1794000000000000e+00 5.7807135238818557e+00 6.4078424029221663e+00 7.6989367122400090e+00 3 -3 -1
846 1 1 5.8970000000000000e-01 5.1914330994582931e+00 3.7530914008812544e+00 8.7708433778194070e+00 -1 0 3
776 1 1 5.8970000000000000e-01 1.8204881396480530e+00 8.7050069265473162e+00 8.3685566292331046e+00 4 -4 1
775 1 2 -1.1794000000000000e+00 1.5904401941668993e+00 7.9943483637867851e+00 7.7699140199254240e+00 4 -4 1
147 1 1 5.8970000000000000e-01 8.4744449651723941e-01 6.4999689775590044e+00 8.6323635496189475e+00 0 1 -3
849 1 1 5.8970000000000000e-01 3.0708326892991407e+00 3.1403024608695072e+00 8.2500245114177524e+00 3 0 5
727 1 2 -1.1794000000000000e+00 5.3341345983083892e+00 9.3985865045553307e+00 8.8774637465318591e+00 -1 2 0
729 1 1 5.8970000000000000e-01 4.9884549415435009e+00 9.5716303578027553e+00 8.0017399760640782e+00 -1 2 0
847 1 2 -1.1794000000000000e+00 3.6052273546159967e+00 3.6550552798815619e+00 7.6452248898269657e+00 3 0 5
848 1 1 5.8970000000000000e-01 2.9830788396119541e+00 4.2416194817049373e+00 7.2148711456878445e+00 3 0 5
428 1 1 5.8970000000000000e-01 4.3527395878543267e+00 6.0056352055520170e+00 8.9938336045569383e+00 2 0 -3
363 1 1 5.8970000000000000e-01 5.7634217293756453e+00 6.0856717478631159e+00 6.7976946154965496e+00 3 -3 -1
777 1 1 5.8970000000000000e-01 2.3762496337759740e+00 7.8638789814319807e+00 7.2390544396456731e+00 4 -4 1
264 1 1 5.8970000000000000e-01 1.3833490918179658e+00 1.7420178258787615e+00 9.3190984485832686e+00 3 -2 4
400 1 2 -1.1794000000000000e+00 1.3176625201200011e+01 2.0832771467256759e+00 7.7457150437225373e+00 -2 -2 1
390 1 1 5.8970000000000000e-01 1.3241940021123497e+01 9.4965413562452543e+00 8.1586610020100014e+00 2 5 4
362 1 1 5.8970000000000000e-01 6.3123902716480362e+00 5.7679353647022618e+00 8.1724016370100472e+00 3 -3 -1
105 1 1 5.8970000000000000e-01 2.1692087459858036e+00 1.0903802239219285e+01 8.8365263363659583e+00 3 0 5
30 1 1 5.8970000000000000e-01 1.6363064207393421e+01 1.0983537183603051e+01 7.2213805957664734e+00 -6 -1 5
64 1 2 -1.1794000000000000e+00 1.4771408998793479e+01 6.1368844092752441e+00 6.7513577849036750e+00 2 1 -2
624 1 1 5.8970000000000000e-01 9.2000366270269041e+00 4.3007107333095362e+00 9.4364603943987611e+00 5 -1 2
119 1 1 5.8970000000000000e-01 1.1945902420238072e+01 4.9195782947306430e+00 7.8453178630541283e+00 3 -2 -1
713 1 1 5.8970000000000000e-01 8.3196392493656166e+00 6.7401544815148453e+00 9.2552527571111973e+00 -4 0 4
405 1 1 5.8970000000000000e-01 1.6474182558495713e+01 7.7684058969889520e+00 9.1013835235226903e+00 4 -2 1
37 1 2 -1.1794000000000000e+00 1.5075877216647065e+01 1.1441347314905254e+01 8.4881414707824803e+00 -1 2 -2
179 1 1 5.8970000000000000e-01 8.4958664276192284e+00 1.1221688187748160e+01 8.7884417658374687e+00 -7 0 0
700 1 2 -1.1794000000000000e+00 1.1384864306817553e+01 1.1000542840506141e+01 8.0959391602875392e+00 4 0 1
765 1 1 5.8970000000000000e-01 1.1454191447397008e+01 8.2259214762392965e+00 9.5608733118646096e+00 -4 0 -3
118 1 2 -1.1794000000000000e+00 1.1355685992400913e+01 5.2954591518474716e+00 7.1921038190348359e+00 3 -2 -1
120 1 1 5.8970000000000000e-01 1.1324230752073019e+01 6.2280946720633823e+00 7.4054864313286766e+00 3 -2 -1
702 1 1 5.8970000000000000e-01 1.0955337030829865e+01 1.1303040087722373e+01 7.2957314857769529e+00 4 0 1
623 1 1 5.8970000000000000e-01 1.0419709106976033e+01 3.9894137380730395e+00 8.5952495335261645e+00 5 -1 2
121 1 2 -1.1794000000000000e+00 8.1451062668921193e+00 8.2058370577278055e+00 8.2282498031760927e+00 1 -2 0
770 1 1 5.8970000000000000e-01 9.7667304888132964e+00 7.7732254751622012e+00 7.8604995679470306e+00 3 -1 1
122 1 1 5.8970000000000000e-01 8.4651799458210917e+00 9.0664473006430200e+00 8.4988666304933034e+00 1 -2 0
769 1 2 -1.1794000000000000e+00 1.0723555277105406e+01 7.7932056533006424e+00 7.8809373308832376e+00 3 -1 1
701 1 1 5.8970000000000000e-01 1.0669172853541520e+01 1.0871411486703783e+01 8.7183871876499346e+00 4 0 1
123 1 1 5.8970000000000000e-01 7.2584795329738183e+00 8.3697309201106691e+00 7.9067494750288381e+00 1 -2 0
666 1 1 5.8970000000000000e-01 8.5829934917226822e+00 1.8424911843287752e+00 9.3112437792120524e+00 0 2 3
403 1 2 -1.1794000000000000e+00 1.6037046257421849e+01 8.4680973500168442e+00 9.5868453525945707e+00 4 -2 1
730 1 2 -1.1794000000000000e+00 1.6622885277476477e+01 3.6272730158991378e+00 7.6116809426709828e+00 1 1 -5
228 1 1 5.8970000000000000e-01 7.3254176498309391e+00 3.3706186858242213e+00 7.4566145582128600e+00 1 -2 0
65 1 1 5.8970000000000000e-01 1.4181344467723537e+01 6.8842979792740735e+00 6.8489667999425414e+00 2 1 -2
324 1 1 5.8970000000000000e-01 4.1076596761851238e+00 1.6719658078394337e+00 6.9963488142134489e+00 6 -1 -2
402 1 1 5.8970000000000000e-01 1.2867872226122696e+01 2.1228676628573262e+00 6.8404885942502638e+00 -2 -2 1
741 1 1 5.8970000000000000e-01 1.7498295755331668e+01 7.9788005205941204e+00 6.7858121003259253e+00 -2 -1 1
145 1 2 -1.1794000000000000e+00 1.7386830997317546e+01 6.0431223767521454e+00 9.0742486556413677e+00 -1 1 -3
485 1 1 5.8970000000000000e-01 1.3500032105439802e+01 3.6410815013405031e+00 8.3940778928752202e+00 -1 1 0
731 1 1 5.8970000000000000e-01 1.6279679846928730e+01 3.3350065193764125e+00 8.4561452818490928e+00 1 1 -5
771 1 1 5.8970000000000000e-01 1.0968070935118627e+01 8.3433649409857509e+00 7.1367146445596799e+00 3 -1 1
388 1 2 -1.1794000000000000e+00 1.3731099157756759e+01 8.7377188559498506e+00 7.8404752623669545e+00 2 5 4
389 1 1 5.8970000000000000e-01 1.4540143015197438e+01 8.7419604516766132e+00 8.3521008612642724e+00 2 5 3
146 1 1 5.8970000000000000e-01 1.7094934423212596e+01 5.3861822649087463e+00 8.4421436034404103e+00 -1 1 -3
39 1 1 5.8970000000000000e-01 1.5168094476724670e+01 1.1011351437527416e+01 9.3383945161182638e+00 -1 2 -2
486 1 1 5.8970000000000000e-01 1.4178568742477633e+01 4.9861508057674531e+00 8.2440142810515340e+00 -1 1 0
484 1 2 -1.1794000000000000e+00 1.3641140685250807e+01 4.4724873348245557e+00 8.8470496530161906e+00 -1 1 0
732 1 1 5.8970000000000000e-01 1.5922049982015388e+01 3.4355860347878182e+00 6.9884507979831127e+00 1 1 -5
622 1 2 -1.1794000000000000e+00 9.7960191873389419e+00 3.5894666024752531e+00 9.2013713271388600e+00 5 -1 2
844 1 2 -1.1794000000000000e+00 6.0274882144583906e+00 3.7638632730367321e+00 9.2369186491924733e+00 -1 0 3
728 1 1 5.8970000000000000e-01 4.8767971615654302e+00 1.0020711410955874e+01 9.4432673437000769e+00 -1 2 0
103 1 2 -1.1794000000000000e+00 1.9520500080199870e+00 1.0124608371893219e+01 9.3484143586002393e+00 3 0 5
262 1 2 -1.1794000000000000e+00 2.2319048156398527e+00 2.1692633265485011e+00 9.4363357193565207e+00 3 -2 4
178 1 2 -1.1794000000000000e+00 8.7982248434472918e+00 1.0480738200456699e+01 9.3137066661706331e+00 -7 0 0
665 1 1 5.8970000000000000e-01 7.1834445510398055e+00 2.3885675003406699e+00 9.4988760713618543e+00 0 2 3
227 1 1 5.8970000000000000e-01 8.2752155067539181e+00 2.4554579639945229e+00 6.7133061421554121e+00 1 -2 0
226 1 2 -1.1794000000000000e+00 7.8247116937526640e+00 3.2971600141095365e+00 6.6432020378196910e+00 1 -2 0
758 1 1 5.8970000000000000e-01 2.0982657415764647e+00 3.6278179196074314e+00 1.0578925914210087e+01 1 1 2
757 1 2 -1.1794000000000000e+00 1.9847186962993666e+00 4.4594298555482217e+00 1.1039207764338913e+01 1 1 2
463 1 2 -1.1794000000000000e+00 7.0574411700705788e+00 1.1441579478647355e+01 1.1723596155741616e+01 6 3 -2
193 1 2 -1.1794000000000000e+00 2.9696557258674114e+00 8.5464698005203257e+00 1.1431736941975277e+01 3 -4 1
195 1 1 5.8970000000000000e-01 2.7479868658896760e+00 9.2280822620834790e+00 1.0797230790112250e+01 3 -4 1
90 1 1 5.8970000000000000e-01 5.4476146522977205e+00 5.9302670735541367e+00 1.1026882431378947e+01 8 -1 4
539 1 1 5.8970000000000000e-01 1.3459213926203570e+00 7.5873153890419260e+00 1.1649999257290142e+01 -3 -3 1
540 1 1 5.8970000000000000e-01 1.7524685344364489e+01 6.8096344292414042e+00 1.0922892229057787e+01 -4 -3 1
194 1 1 5.8970000000000000e-01 3.6780407233099179e+00 8.0538717238960658e+00 1.1017166757006420e+01 3 -4 1
782 1 1 5.8970000000000000e-01 1.3553274302660569e+01 4.4277626720019700e+00 1.2530437948911343e+01 -3 1 2
538 1 2 -1.1794000000000000e+00 4.8480308660435434e-01 7.1884172445065957e+00 1.1775242328092771e+01 -3 -3 1
845 1 1 5.8970000000000000e-01 5.7858188964358881e+00 3.7753270716070872e+00 1.0163090995230663e+01 -1 0 3
88 1 2 -1.1794000000000000e+00 6.2078926861361428e+00 5.6568790400505078e+00 1.1540270153381385e+01 8 -1 4
104 1 1 5.8970000000000000e-01 1.0660560651839821e+00 1.0288904460503465e+01 9.6714498719280577e+00 3 0 5
652 1 2 -1.1794000000000000e+00 5.2094715533912268e+00 2.6739592537414669e+00 1.1667206668581118e+01 -1 0 0
429 1 1 5.8970000000000000e-01 3.3473989260381289e+00 5.3393497608955522e+00 9.9089818700812771e+00 2 0 -3
653 1 1 5.8970000000000000e-01 6.0207201745695871e+00 2.3946144730540131e+00 1.2091674455236278e+01 -1 0 0
427 1 2 -1.1794000000000000e+00 3.8676594161814450e+00 6.1365872034894355e+00 9.8086215820057312e+00 2 0 -3
534 1 1 5.8970000000000000e-01 5.5950919248386102e+00 1.1570987535697338e+01 1.0699011906494627e+01 -6 -2 -3
62 1 1 5.8970000000000000e-01 1.1183167301741179e+01 1.1427606216126787e+01 1.1824829992085347e+01 -3 0 3
465 1 1 5.8970000000000000e-01 7.2601248746435765e+00 1.0738691388396497e+01 1.2341008757083465e+01 6 3 -2
384 1 1 5.8970000000000000e-01 6.5468576276574115e+00 8.8183574552166704e+00 1.0237321363285224e+01 -8 -1 -2
382 1 2 -1.1794000000000000e+00 6.8194606275553751e+00 8.5537319256563986e+00 1.1115951791486573e+01 -8 -1 -2
383 1 1 5.8970000000000000e-01 6.6825229666514527e+00 7.6065097997986326e+00 1.1134629933933365e+01 -8 -1 -2
759 1 1 5.8970000000000000e-01 1.3222166900880923e+00 4.9268683505216888e+00 1.0530362927007971e+01 1 1 2
275 1 1 5.8970000000000000e-01 1.4967168578076546e+01 3.4549852671438601e+00 9.9030827131866843e+00 -1 3 -3
180 1 1 5.8970000000000000e-01 8.4615095252774069e+00 1.0656209962447111e+01 1.0192434821123708e+01 -7 0 0
89 1 1 5.8970000000000000e-01 6.8899018357636743e+00 5.4908968142724692e+00 1.0889390687584815e+01 8 -1 4
68 1 1 5.8970000000000000e-01 1.0860257986042773e+01 7.0290811202183132e+00 1.1691348653626569e+01 5 -2 -3
762 1 1 5.8970000000000000e-01 1.0567814700032093e+01 9.4609184479095223e+00 1.1660163983237238e+01 0 -4 -1
714 1 1 5.8970000000000000e-01 8.9545376529815446e+00 6.3821805462953076e+00 1.0582242276888712e+01 -4 0 4
67 1 2 -1.1794000000000000e+00 1.0577152038630130e+01 6.2327824463212540e+00 1.2140893043291888e+01 5 -2 -3
69 1 1 5.8970000000000000e-01 1.1374760357376061e+01 5.7110601254470756e+00 1.2230097534015018e+01 5 -2 -3
650 1 1 5.8970000000000000e-01 9.8980715491770024e+00 3.2349711536613741e+00 1.1151823785259060e+01 1 0 0
712 1 2 -1.1794000000000000e+00 8.4820173846479676e+00 6.0013927684858110e+00 9.8419342391097686e+00 -4 0 4
763 1 2 -1.1794000000000000e+00 1.1607327458440137e+01 8.3999187041963665e+00 1.0489638636155883e+01 -4 0 -3
649 1 2 -1.1794000000000000e+00 1.0117711269004319e+01 2.8984873220007819e+00 1.2020654993381559e+01 1 0 0
651 1 1 5.8970000000000000e-01 1.0658634898598994e+01 2.1274400790368078e+00 1.1849721213279148e+01 1 0 0
760 1 2 -1.1794000000000000e+00 1.0260368482353874e+01 9.9529569912766487e+00 1.2421547860624527e+01 0 -4 -1
601 1 2 -1.1794000000000000e+00 1.4099844003482298e+01 7.2327607717629716e+00 1.1116493896917829e+01 2 4 -3
159 1 1 5.8970000000000000e-01 1.4097684593586223e+01 1.0412456931967370e+01 1.1769334003562063e+01 2 1 -2
274 1 2 -1.1794000000000000e+00 1.5728089177522158e+01 2.9043632897962706e+00 1.0087868635968217e+01 -1 3 -3
101 1 1 5.8970000000000000e-01 1.6790716131298769e+01 2.4330977475021580e+00 1.1767879738423018e+01 4 -5 -1
157 1 2 -1.1794000000000000e+00 1.4061510788546599e+01 1.0760522777415963e+01 1.0878339304793592e+01 2 1 -2
404 1 1 5.8970000000000000e-01 1.5435945918996305e+01 8.0121327962544822e+00 1.0176001598187558e+01 4 -2 1
158 1 1 5.8970000000000000e-01 1.3186835408982921e+01 1.1142529574474601e+01 1.0805233501463288e+01 2 1 -2
783 1 1 5.8970000000000000e-01 1.3022022659223346e+01 4.2118501146722878e+00 1.1129261312887081e+01 -3 1 2
308 1 1 5.8970000000000000e-01 1.7253744305014738e+01 9.6773059682827594e+00 1.1999660580238793e+01 1 4 -2
764 1 1 5.8970000000000000e-01 1.2549728295263318e+01 8.2774289373585823e+00 1.0604563162918680e+01 -4 0 -3
602 1 1 5.8970000000000000e-01 1.4465656443188669e+01 7.5952919054720507e+00 1.1923390975869117e+01 2 4 -4
307 1 2 -1.1794000000000000e+00 1.7091924911531379e+01 1.0148748679950316e+01 1.1182417134399794e+01 1 4 -2
276 1 1 5.8970000000000000e-01 1.5369527035711878e+01 2.0211872874238894e+00 1.0175981019408633e+01 -1 3 -3
645 1 1 5.8970000000000000e-01 5.7901363995964594e+00 9.0153451611395532e+00 1.2379261321708407e+01 4 -2 -1
781 1 2 -1.1794000000000000e+00 1.2997608257248841e+01 4.8279093239585995e+00 1.1861521970619258e+01 -3 1 2
309 1 1 5.8970000000000000e-01 1.6702817063127938e+01 9.4951278421097811e+00 1.0601292723212023e+01 1 4 -2
603 1 1 5.8970000000000000e-01 1.3807250505377921e+01 6.3542161170271267e+00 1.1359143694610422e+01 2 4 -3
532 1 2 -1.1794000000000000e+00 4.8086659529021532e+00 1.1718786200894971e+01 1.0173635685762527e+01 -6 -2 -3
654 1 1 5.8970000000000000e-01 4.8925242989216944e+00 1.8911549621525632e+00 1.1216548769880749e+01 -1 0 0
626 1 1 5.8970000000000000e-01 1.9465704706401588e+00 1.1352553755751851e+01 1.2371994720988219e+01 -5 -2 3
723 1 1 5.8970000000000000e-01 8.4386900968701131e+00 2.2735904632478077e+00 1.2608068060014478e+01 2 2 0
174 1 1 5.8970000000000000e-01 2.9712345533506910e+00 5.2614703242788909e+00 1.2336756362187245e+01 2 2 -2
643 1 2 -1.1794000000000000e+00 5.1521954707600726e+00 9.1410915782110784e+00 1.3081792342020879e+01 4 -2 -1
415 1 2 -1.1794000000000000e+00 3.8460606405662880e+00 2.6761961416352311e+00 1.4034229800139284e+01 -1 -1 -1
245 1 1 5.8970000000000000e-01 2.2314015582654942e+00 3.3717991645342908e+00 1.4666253603663936e+01 -3 3 -1
172 1 2 -1.1794000000000000e+00 3.1725886501792688e+00 5.6048780994937903e+00 1.3207306686845953e+01 2 2 -2
343 1 2 -1.1794000000000000e+00 1.0202185740631162e+00 9.7653416282689047e+00 1.3764314718402316e+01 -1 0 -2
839 1 1 5.8970000000000000e-01 2.8052652425897868e+00 7.0954623472627008e+00 1.4198683294162819e+01 -1 -2 -4
417 1 1 5.8970000000000000e-01 4.3062069169862207e+00 2.6681959944656333e+00 1.3194865710404049e+01 -1 -1 -1
345 1 1 5.8970000000000000e-01 1.6818402536006365e+00 9.1452542550223690e+00 1.4071037852911381e+01 -1 0 -2
813 1 1 5.8970000000000000e-01 5.3295109768600026e+00 9.0829589069880736e+00 1.5040941117957717e+01 -5 6 -3
257 1 1 5.8970000000000000e-01 6.1790390919170086e+00 5.2656849699389046e+00 1.3455853119293014e+01 -2 -1 -1
416 1 1 5.8970000000000000e-01 4.5305075576010978e+00 2.5186970836336808e+00 1.4684658244790928e+01 -1 -1 -1
320 1 1 5.8970000000000000e-01 5.4393488891136608e+00 1.1601740542480419e+01 1.3490549893910410e+01 2 -2 1
434 1 1 5.8970000000000000e-01 1.6552029412423643e+01 7.9248242352052438e+00 1.2789597724463890e+01 -1 2 -1
173 1 1 5.8970000000000000e-01 3.7917844613625036e+00 4.9750617827519363e+00 1.3576437929380059e+01 2 2 -2
256 1 2 -1.1794000000000000e+00 6.0137807219713819e+00 5.1815484845052682e+00 1.4394970205625427e+01 -2 -1 -1
265 1 2 -1.1794000000000000e+00 1.2557888840201288e+01 5.9122376836947490e+00 1.4882720440540812e+01 -3 0 -2
102 1 1 5.8970000000000000e-01 1.7402533477881210e+01 3.1907270827544081e+00 1.2927112079623768e+01 4 -5 -1
838 1 2 -1.1794000000000000e+00 2.5576344576406487e+00 7.7881446517365047e+00 1.4811219076748879e+01 -1 -2 -4
244 1 2 -1.1794000000000000e+00 1.4515701161078089e+00 3.6028584766298812e+00 1.5171035889860718e+01 -3 3 -1
662 1 1 5.8970000000000000e-01 1.1553678996601599e+01 8.9169624544911095e+00 1.5211879604802940e+01 -3 -4 1
285 1 1 5.8970000000000000e-01 2.2092378395034822e+00 1.0959250380607370e+01 1.4953350679048965e+01 5 0 -3
635 1 1 5.8970000000000000e-01 1.4834158794238204e+01 9.8543185917912872e+00 1.3792542618857526e+01 -9 1 1
100 1 2 -1.1794000000000000e+00 1.6958484113631560e+01 2.3714165842908033e+00 1.2708294546133892e+01 4 -5 -1
57 1 1 5.8970000000000000e-01 8.8226135239952779e+00 1.0271725252947340e+01 1.3564859742420362e+01 -2 0 1
55 1 2 -1.1794000000000000e+00 7.9823745818158125e+00 1.0003723628507403e+01 1.3937021168443568e+01 -2 0 1
426 1 1 5.8970000000000000e-01 7.8835048231380913e+00 2.4952177786466305e+00 1.5029422416994622e+01 7 -4 1
258 1 1 5.8970000000000000e-01 6.6275228949198777e+00 4.5075766632712071e+00 1.4687224839529804e+01 -2 -1 -1
435 1 1 5.8970000000000000e-01 1.5633756298811230e+01 7.7610238577329778e+00 1.3982110334164481e+01 -1 2 -1
613 1 2 -1.1794000000000000e+00 1.0281333520452986e+01 4.1005582490681736e+00 1.4397120033493104e+01 -6 1 4