LAMMPS data file via write_data, version 15 Apr 2020, timestep = 285000

1008 atoms
2 atom types
672 bonds
1 bond types
336 angles
1 angle types

-3.2825661305971163e+00 1.4892565130596688e+01 xlo xhi
-1.0777587538803937e-01 2.2687774875388623e+01 ylo yhi
-1.0531988112288848e-01 1.9335317881125356e+01 zlo zhi
-9.7861308141930850e-02 -6.9911602602308500e+00 2.5591972240165271e-02 xy xz yz

Masses

1 16
2 2

Atoms # full

21 7 1 5.8970000000000000e-01 8.8057893390430708e-01 2.1650680777348752e+00 1.0285129111397273e+00 0 0 0
31 11 2 -1.1794000000000000e+00 1.3296724631203549e+00 9.6321186418858951e-01 2.5369352360744806e+00 0 0 0
32 11 1 5.8970000000000000e-01 1.2264494796255576e+00 1.2857536333868156e+00 3.4322246346291250e+00 0 0 0
34 12 2 -1.1794000000000000e+00 -9.7793743885544113e-02 1.2707519456618288e+00 7.2125980659441886e+00 0 0 0
35 12 1 5.8970000000000000e-01 -1.7979838868156729e-02 1.6719484950408967e+00 8.0779788350519777e+00 0 0 0
36 12 1 5.8970000000000000e-01 -9.1402062844755660e-01 7.7245268888485630e-01 7.2535014423376705e+00 0 0 0
69 23 1 5.8970000000000000e-01 -2.8974191302242609e+00 9.6047541466708186e-01 8.5268717919400583e+00 0 0 0
76 26 2 -1.1794000000000000e+00 9.9525870096319846e-01 2.2759539489216172e+00 4.8865155499579993e+00 0 0 0
77 26 1 5.8970000000000000e-01 5.7831540581310104e-01 1.9010192501332825e+00 5.6622851234892222e+00 0 0 0
85 29 2 -1.1794000000000000e+00 -2.6533357208024486e+00 1.2047693183840011e+00 4.8364916105540541e+00 1 0 0
86 29 1 5.8970000000000000e-01 -2.5595698145678734e+00 1.7152448988730966e+00 4.0322497067738219e+00 1 0 0
87 29 1 5.8970000000000000e-01 -3.5903167794191573e+00 1.2319805262485952e+00 5.0302278307140522e+00 1 0 0
122 41 1 5.8970000000000000e-01 -2.2402227628962721e+00 2.1475607122420359e+00 1.7442060536032769e+00 1 0 0
71 24 1 5.8970000000000000e-01 3.0740141465378383e+00 4.4158188426782102e-01 2.0785881151488961e+00 0 0 0
6 2 1 5.8970000000000000e-01 3.7123215043162023e+00 1.3344062009902149e+00 4.5613079117913955e+00 0 0 0
669 223 1 5.8970000000000000e-01 -5.3536578192800333e+00 1.6925776638687808e+00 9.1957607659006122e+00 1 0 0
70 24 2 -1.1794000000000000e+00 3.8014802266379242e+00 3.4944378963091549e-01 1.4633151107125639e+00 0 0 0
121 41 2 -1.1794000000000000e+00 -2.4931613510746033e+00 2.6234235921421134e+00 2.5352870752567380e+00 1 0 0
89 30 1 5.8970000000000000e-01 1.2559880487848250e+01 6.0200433318196678e-01 5.0493677432800350e+00 0 0 0
124 42 2 -1.1794000000000000e+00 -4.8330316595402607e+00 2.7510093816049181e+00 7.7911599898210779e+00 1 0 0
33 11 1 5.8970000000000000e-01 8.3165844278320444e-01 1.4603859859162394e-01 2.5173725014798607e+00 0 0 0
134 45 1 5.8970000000000000e-01 -2.3756367748029832e+00 2.5943629867962295e+00 5.9065702998770879e+00 1 0 0
155 52 1 5.8970000000000000e-01 1.3073249463006366e+01 1.3442505431932132e+00 1.3890882692776836e+00 0 0 0
4 2 2 -1.1794000000000000e+00 4.0214951328398225e+00 4.9381050027885542e-01 4.8988106900357868e+00 0 0 0
103 35 2 -1.1794000000000000e+00 9.7305607162865879e+00 2.7192642541204450e+00 -4.8951490938133946e-02 0 0 0
90 30 1 5.8970000000000000e-01 -5.4183355337307919e+00 1.5627827240072585e+00 6.2025977669910439e+00 1 0 0
50 17 1 5.8970000000000000e-01 5.7142388574803809e+00 2.9874715072965206e+00 6.7064471655871429e+00 0 0 0
126 42 1 5.8970000000000000e-01 -4.0871902964630848e+00 3.0642261927760317e+00 7.2794352395977437e+00 1 0 0
78 26 1 5.8970000000000000e-01 3.6388356492617846e-01 2.9175512881935419e+00 4.5612263636749191e+00 0 0 0
610 204 2 -1.1794000000000000e+00 1.2532283450881156e+01 2.7846923560137156e+00 3.2043017013998761e-02 0 0 1
123 41 1 5.8970000000000000e-01 -3.4471138649052628e+00 2.6833244117242159e+00 2.4846504219848384e+00 1 0 0
482 161 1 5.8970000000000000e-01 -1.0051248953024530e+00 -1.0614666169054623e-01 8.2481454755807504e-01 1 1 0
53 18 1 5.8970000000000000e-01 4.6234610808375383e+00 2.5915799660607535e+00 2.9173324666561791e+00 0 0 0
156 52 1 5.8970000000000000e-01 1.2432767866343484e+01 1.5999767190902452e-03 1.1083743234158285e+00 0 0 0
401 134 1 5.8970000000000000e-01 2.1064134036393787e+00 1.3792618333940138e-01 8.5313499198104807e+00 0 1 0
138 46 1 5.8970000000000000e-01 1.2728534064079563e+01 2.5483220474806361e+00 3.4404593575279616e+00 0 0 0
118 40 2 -1.1794000000000000e+00 9.0118920422260604e+00 1.4490977182712128e+00 7.3772295787524236e+00 0 0 0
67 23 2 -1.1794000000000000e+00 -2.6471817634141384e+00 3.7129231456192557e-01 7.8152112003489602e+00 0 0 0
41 14 1 5.8970000000000000e-01 4.0632601688116896e+00 1.3670522744889375e+00 6.7066032530351025e+00 0 0 0
40 14 2 -1.1794000000000000e+00 4.2449435906220625e+00 2.1296138667938274e+00 7.2558482822962285e+00 0 0 0
42 14 1 5.8970000000000000e-01 4.0208524566849997e+00 1.8459089648989824e+00 8.1421432154863673e+00 0 0 0
38 13 1 5.8970000000000000e-01 6.2288053146112166e+00 2.0423652461142425e+00 1.4527101783032041e+00 0 0 0
37 13 2 -1.1794000000000000e+00 6.1656519857362735e+00 2.4559532697652835e+00 2.3136292557613478e+00 0 0 0
81 27 1 5.8970000000000000e-01 7.5827610468894493e+00 6.2597925849572100e-01 3.5763021729472233e-01 0 0 0
3 1 1 5.8970000000000000e-01 5.8939452032097801e+00 6.4771930914303422e-01 4.8248691587519286e+00 0 0 0
39 13 1 5.8970000000000000e-01 6.5344152316330977e+00 1.8111700373482871e+00 2.9172616299132028e+00 0 0 0
1 1 2 -1.1794000000000000e+00 6.7725298987104390e+00 8.5255881909932785e-01 4.5049262341146186e+00 0 0 0
160 54 2 -1.1794000000000000e+00 9.7418498383658996e+00 2.1034731656374994e+00 4.8179577038460648e+00 0 0 0
162 54 1 5.8970000000000000e-01 9.8293253304580652e+00 1.7408915100164752e+00 3.9364188720102153e+00 0 0 0
19 7 2 -1.1794000000000000e+00 9.8739422502676744e-01 2.5681855703956544e+00 1.6695445378879026e-01 0 0 0
119 40 1 5.8970000000000000e-01 9.3229569322844235e+00 1.7492344473698243e+00 6.5231864031493538e+00 0 0 0
151 51 2 -1.1794000000000000e+00 6.5489985606378047e+00 5.1834068707023462e-01 8.3269379228685292e+00 0 0 0
115 39 2 -1.1794000000000000e+00 9.9497541543293497e+00 1.2237789134900625e+00 2.2923802170706917e+00 0 0 0
152 51 1 5.8970000000000000e-01 7.3078963393815535e+00 8.0346648613773808e-01 7.8179934147297683e+00 0 0 0
120 40 1 5.8970000000000000e-01 9.5811374689100539e+00 7.1081005820729914e-01 7.5940049640625658e+00 0 0 0
2 1 1 5.8970000000000000e-01 7.1377187282712971e+00 1.4403571329264111e+00 5.1662216342166225e+00 0 0 0
485 162 1 5.8970000000000000e-01 1.1285815150310356e+01 -5.2663013777489885e-03 8.9860245245985926e+00 0 1 0
527 176 1 5.8970000000000000e-01 3.8137231686696760e+00 1.9133564925654254e+00 4.8208883365163635e-01 0 0 1
88 30 2 -1.1794000000000000e+00 1.2775286874397802e+01 1.5134611661303543e+00 5.2468543560285381e+00 0 0 0
153 51 1 5.8970000000000000e-01 6.3097405710570236e+00 1.2833121983035027e+00 8.8501585353244749e+00 0 0 0
117 39 1 5.8970000000000000e-01 9.9449037082834124e+00 1.8276155524932580e+00 1.5497412968243733e+00 0 0 0
116 39 1 5.8970000000000000e-01 1.0813203673876565e+01 8.1192075648601714e-01 2.2610564537160829e+00 0 0 0
154 52 2 -1.1794000000000000e+00 1.2836465534810493e+01 5.1638335588944817e-01 1.8070920758445910e+00 0 0 0
107 36 1 5.8970000000000000e-01 9.5165045019192505e+00 2.3465003635650690e+00 8.7830709255823347e+00 0 0 0
52 18 2 -1.1794000000000000e+00 3.9019820983245528e+00 2.8833649367921792e+00 3.4746177115774328e+00 0 0 0
161 54 1 5.8970000000000000e-01 1.0462022482548281e+01 2.7295634986293216e+00 4.8924432585756632e+00 0 0 0
68 23 1 5.8970000000000000e-01 -3.4785034475141159e+00 5.0196192402282576e-02 7.4659748702161455e+00 0 0 0
163 55 2 -1.1794000000000000e+00 -2.1222504669571070e+00 1.5122906099897631e+00 1.5614831546323410e-01 1 0 0
79 27 2 -1.1794000000000000e+00 6.8119642580765500e+00 1.0487397616281564e+00 -2.0852376990588759e-02 0 0 0
535 179 2 -1.1794000000000000e+00 -2.0961263449140857e+00 1.1105915745021169e+00 1.2358484097985471e+01 0 0 0
536 179 1 5.8970000000000000e-01 -2.3541593640744676e+00 1.5049980320176199e+00 1.3191612496127986e+01 0 0 0
537 179 1 5.8970000000000000e-01 -2.2571378396767114e+00 1.7948857625748906e+00 1.1708913904080612e+01 0 0 0
538 180 2 -1.1794000000000000e+00 -3.6298328760418426e+00 9.8569987998839204e-01 1.6919123712741914e+01 0 0 0
581 194 1 5.8970000000000000e-01 -3.1079346296860209e+00 2.0072024037679488e+00 1.5341044041052097e+01 0 0 0
589 197 2 -1.1794000000000000e+00 -5.8951674232121576e+00 1.2182839277981232e+00 1.4499948048535282e+01 1 0 0
590 197 1 5.8970000000000000e-01 -5.7015859450185786e+00 1.9341371861509964e+00 1.5105145798990405e+01 1 0 0
626 209 1 5.8970000000000000e-01 -6.0053000473772791e+00 1.9663718084500708e+00 1.2924051041932874e+01 1 0 0
628 210 2 -1.1794000000000000e+00 -8.6766404970183792e+00 2.4594326244263773e+00 1.7033605302212646e+01 1 0 0
668 223 1 5.8970000000000000e-01 -6.1077972171865680e+00 1.5266412086416168e+00 1.0497951783143597e+01 1 0 0
540 180 1 5.8970000000000000e-01 -4.5120753094129471e+00 8.0042975640803959e-01 1.7240923574607809e+01 0 0 0
539 180 1 5.8970000000000000e-01 -3.3131663996810397e+00 1.6930915828631714e+00 1.7480815236713028e+01 0 0 0
580 194 2 -1.1794000000000000e+00 -2.8523147610401871e+00 2.5136630704174117e+00 1.4570096440063384e+01 0 0 0
630 210 1 5.8970000000000000e-01 -8.8118758802829227e+00 1.7394605504309271e+00 1.6417538766603553e+01 1 0 0
656 219 1 5.8970000000000000e-01 2.4799585523702108e+00 1.6872255922410893e-02 1.7331210718353532e+01 0 0 0
164 55 1 5.8970000000000000e-01 -8.6173145840505434e+00 1.9077726423208816e+00 1.8866503729275443e+01 1 0 -1
572 191 1 5.8970000000000000e-01 -6.8100601777764282e+00 4.5300560082895291e-02 1.7624766888783988e+01 0 0 0
625 209 2 -1.1794000000000000e+00 -6.1923213575168115e+00 2.4974272371216695e+00 1.2150007406298604e+01 1 0 0
20 7 1 5.8970000000000000e-01 -6.0369100708290837e+00 1.8602270640852832e+00 1.8993592852460296e+01 0 0 -1
905 302 1 5.8970000000000000e-01 -2.3935539835371591e+00 -5.4674953999303805e-02 1.7587493897969477e+01 0 1 0
667 223 2 -1.1794000000000000e+00 -5.6829322395193342e+00 1.0275673356670967e+00 9.8003526037785154e+00 1 0 0
22 8 2 -1.1794000000000000e+00 5.4271821623840633e-01 2.6265009708519798e+00 9.6453416441372877e+00 0 0 0
591 197 1 5.8970000000000000e-01 -5.2125263080782256e+00 5.6923560642109539e-01 1.4669773211177855e+01 1 0 0
165 55 1 5.8970000000000000e-01 -9.7476430224454376e+00 9.5196742309258497e-01 1.9183718859665792e+01 1 0 -1
592 198 2 -1.1794000000000000e+00 9.5016385946880835e+00 1.0108808281832793e+00 1.4703473002687808e+01 0 0 0
571 191 2 -1.1794000000000000e+00 -6.0733897384463669e+00 3.9262490673056011e-01 1.8127604498280942e+01 0 0 0
583 195 2 -1.1794000000000000e+00 3.4266613220115412e+00 1.0199551163326288e+00 9.6996963661812785e+00 0 0 0
666 222 1 5.8970000000000000e-01 6.9417885795412921e+00 3.0246552965186315e+00 1.4626054710590539e+01 0 0 0
620 207 1 5.8970000000000000e-01 6.5255663363593976e+00 1.2606695281952593e+00 1.3018745371501668e+01 0 0 0
593 198 1 5.8970000000000000e-01 -7.7502409809932793e+00 7.7056591328836521e-01 1.4625823858748436e+01 1 0 0
80 27 1 5.8970000000000000e-01 -5.9093744265030412e-01 3.9215752985065588e-01 1.8889424562657702e+01 0 0 -1
523 175 2 -1.1794000000000000e+00 -2.4775013621317035e+00 2.5138851191290361e+00 9.9763481453542457e+00 0 0 0
23 8 1 5.8970000000000000e-01 7.9432409460680942e-01 1.9705882127411345e+00 1.0295410428772707e+01 0 0 0
659 220 1 5.8970000000000000e-01 8.5875320976696194e+00 5.1841647526498214e-01 1.1551582024709312e+01 0 0 0
576 192 1 5.8970000000000000e-01 -3.2945431457483842e-01 6.1286665018845876e-01 1.1786171438980665e+01 0 0 0
619 207 2 -1.1794000000000000e+00 6.8036049023290106e+00 9.1676752597516309e-01 1.2169823172820220e+01 0 0 0
594 198 1 5.8970000000000000e-01 9.0457580988635247e+00 1.7750138008866664e-01 1.4821049422326135e+01 0 0 0
543 181 1 5.8970000000000000e-01 1.8274071889757761e+00 2.8853090289808394e+00 1.2351892189308181e+01 0 0 0
987 329 1 5.8970000000000000e-01 -3.3479176910205215e+00 2.4924781051171522e-02 1.1570830925531725e+01 1 1 0
658 220 2 -1.1794000000000000e+00 9.3522092230633813e+00 5.6274083721620005e-01 1.0977508000167438e+01 0 0 0
505 169 2 -1.1794000000000000e+00 2.9283715036475484e+00 1.1936524645938986e+00 1.4429894402671033e+01 0 0 0
574 192 2 -1.1794000000000000e+00 3.8936394605056945e-01 4.3288092013754342e-01 1.1180236418397820e+01 0 0 0
542 181 1 5.8970000000000000e-01 2.8134639822938086e+00 1.8297893039584647e+00 1.2804808276645186e+01 0 0 0
557 186 1 5.8970000000000000e-01 1.1430833594022982e-01 2.5078376038012751e+00 1.3603212303327854e+01 0 0 0
621 207 1 5.8970000000000000e-01 6.4954837930788996e+00 1.5643605711851358e+00 1.1535950486969254e+01 0 0 0
508 170 2 -1.1794000000000000e+00 1.5721857829313093e-01 1.1774163705338059e+00 1.4610394880945806e+01 0 0 0
657 219 1 5.8970000000000000e-01 2.8203532243542875e+00 1.1634784103827562e+00 1.8259215925485211e+01 0 0 0
655 219 2 -1.1794000000000000e+00 3.2207282643115729e+00 4.9967187379153633e-01 1.7697732840357958e+01 0 0 0
510 170 1 5.8970000000000000e-01 1.5250206104118216e-01 1.5243970578403543e+00 1.5502472858891061e+01 0 0 0
509 170 1 5.8970000000000000e-01 1.0848054828857330e+00 1.1095471590649797e+00 1.4384142777116034e+01 0 0 0
585 195 1 5.8970000000000000e-01 3.0185103006392553e+00 1.3825868964022838e+00 1.0485926819937745e+01 0 0 0
544 182 2 -1.1794000000000000e+00 6.6065211890491582e-01 2.6249837255744781e+00 1.7232815898769449e+01 0 0 0
545 182 1 5.8970000000000000e-01 3.5302857647210367e-01 2.1579738195539186e+00 1.8009658497960288e+01 0 0 0
507 169 1 5.8970000000000000e-01 3.3374870786479707e+00 1.8369209104355668e+00 1.5008692308302820e+01 0 0 0
541 181 2 -1.1794000000000000e+00 2.6830364855590827e+00 2.5099297984062159e+00 1.2144106349664758e+01 0 0 0
664 222 2 -1.1794000000000000e+00 6.1945715466319715e+00 2.4530827230803336e+00 1.4449549272217446e+01 0 0 0
642 214 1 5.8970000000000000e-01 9.2804449281335568e+00 2.7725459321381565e+00 1.3578095366806499e+01 0 0 0
607 203 2 -1.1794000000000000e+00 6.6948157985579790e+00 2.7912799154752368e+00 1.0169766085352768e+01 0 0 0
665 222 1 5.8970000000000000e-01 5.9929299030013015e+00 2.0534851640315934e+00 1.5295641754684560e+01 0 0 0
623 208 1 5.8970000000000000e-01 4.9770103726597155e+00 1.1628665771449067e+00 1.7235587343486493e+01 0 0 0
108 36 1 5.8970000000000000e-01 9.5342894845063917e+00 2.1281530465915681e+00 1.0281014620417988e+01 0 0 0
506 169 1 5.8970000000000000e-01 3.4930976134168303e+00 4.2321283631902862e-01 1.4490118500284792e+01 0 0 0
622 208 2 -1.1794000000000000e+00 5.8278271265969170e+00 1.5874861604000237e+00 1.7125952375907140e+01 0 0 0
584 195 1 5.8970000000000000e-01 3.9526997964169279e+00 2.8677202644990585e-01 1.0018792052712369e+01 0 0 0
611 204 1 5.8970000000000000e-01 5.8500909882595247e+00 2.5714334279565998e+00 1.8598757949610750e+01 0 0 0
624 208 1 5.8970000000000000e-01 6.4653979650611122e+00 8.8893623090178053e-01 1.7273053692413466e+01 0 0 0
106 36 2 -1.1794000000000000e+00 9.5750858995843373e+00 2.8150467680458200e+00 9.6156838263381648e+00 0 0 0
627 209 1 5.8970000000000000e-01 -7.1157617677971929e+00 2.7333087882643046e+00 1.2238304460265955e+01 1 0 0
986 329 1 5.8970000000000000e-01 -4.5315779522623112e+00 -5.0249305180752712e-02 1.0630106789693734e+01 1 1 0
554 185 1 5.8970000000000000e-01 2.4693493297003077e+00 3.1434622984077714e+00 1.6477604261708660e+01 0 0 0
525 175 1 5.8970000000000000e-01 -1.6018163174339575e+00 2.8269694180759517e+00 9.7496813443652197e+00 0 0 0
526 176 2 -1.1794000000000000e+00 -3.2681063281747700e+00 2.6799211720262246e+00 1.9323671717145366e+01 0 0 0
528 176 1 5.8970000000000000e-01 -4.2105355424902315e+00 2.8424799707230233e+00 1.9284059425935915e+01 0 0 0
43 15 2 -1.1794000000000000e+00 -1.9735408750662214e-01 4.4516295641016779e+00 7.3731876610321256e+00 0 0 0
44 15 1 5.8970000000000000e-01 -3.7740279551149125e-01 4.7040396486842129e+00 8.2787873237443801e+00 0 0 0
45 15 1 5.8970000000000000e-01 7.5672422114918270e-01 4.3907380842785511e+00 7.3261398903910582e+00 0 0 0
46 16 2 -1.1794000000000000e+00 1.9616041498142094e+00 4.7006813970346224e+00 2.3845410968935643e+00 0 0 0
47 16 1 5.8970000000000000e-01 2.0194402638328217e+00 5.1691684710069117e+00 1.5518606964782864e+00 0 0 0
48 16 1 5.8970000000000000e-01 2.2624399579428736e+00 5.3330233958437612e+00 3.0370940535307689e+00 0 0 0
55 19 2 -1.1794000000000000e+00 -6.2321826013421899e-01 4.2329927923596067e+00 3.6046941990565831e+00 0 0 0
57 19 1 5.8970000000000000e-01 1.5430392596798501e-01 4.2596304805083625e+00 3.0470146427167717e+00 0 0 0
98 33 1 5.8970000000000000e-01 -3.9427938646950720e+00 5.2910047209248274e+00 8.7907566026083526e+00 1 0 0
157 53 2 -1.1794000000000000e+00 -3.9757050310131534e+00 4.9090460521009271e+00 4.8690264951385140e+00 1 0 0
159 53 1 5.8970000000000000e-01 -3.2804340155943468e+00 4.4945769030974185e+00 5.3798277582401530e+00 1 0 0
114 38 1 5.8970000000000000e-01 -3.4817453597272965e+00 5.8452049015271408e+00 1.7366069790578902e+00 1 0 0
11 4 1 5.8970000000000000e-01 2.3752789995710852e+00 5.4764079271745745e+00 5.1906076413660704e+00 0 0 0
158 53 1 5.8970000000000000e-01 -4.2784934423393635e+00 4.2226850091828529e+00 4.2745452322200324e+00 1 0 0
58 20 2 -1.1794000000000000e+00 2.4031238060931610e+00 4.0225632763119092e+00 6.4630932762445497e+00 0 0 0
60 20 1 5.8970000000000000e-01 3.1349376083485767e+00 3.5036149482001666e+00 6.7966243322414162e+00 0 0 0
113 38 1 5.8970000000000000e-01 -3.4433944095649323e+00 5.7181167248882776e+00 3.2446558128659713e+00 1 0 0
54 18 1 5.8970000000000000e-01 3.3175309391410868e+00 3.3564225846420674e+00 2.8823904449268762e+00 0 0 0
9 3 1 5.8970000000000000e-01 -5.6408142001474626e-01 5.6683195661995978e+00 4.5703832277804111e+00 0 0 0
135 45 1 5.8970000000000000e-01 -1.5422262138170861e+00 3.5450624424971475e+00 6.7392437283439532e+00 1 0 0
56 19 1 5.8970000000000000e-01 -1.2331174229154420e+00 3.6609327768919377e+00 3.1389248206684819e+00 0 0 0
13 5 2 -1.1794000000000000e+00 4.7442818432624811e+00 4.5559206363049949e+00 9.2499073885919980e+00 0 0 0
612 204 1 5.8970000000000000e-01 1.3141346947769295e+01 3.4625026172679281e+00 3.2494323429555882e-01 0 0 1
137 46 1 5.8970000000000000e-01 1.2399530476054675e+01 3.8096982897199472e+00 2.6708653547740360e+00 0 0 0
522 174 1 5.8970000000000000e-01 1.8191074629955220e+00 5.5607810522403245e+00 9.4945543018774821e+00 0 0 0
125 42 1 5.8970000000000000e-01 -5.5694781347545259e+00 3.2850542548477364e+00 7.4935865447582577e+00 1 0 0
136 46 2 -1.1794000000000000e+00 1.3134341558793404e+01 3.2649354804358937e+00 2.9526325841234669e+00 0 0 0
129 43 1 5.8970000000000000e-01 8.1163270945384873e+00 4.1795654894430641e+00 7.2475714316283080e+00 0 0 0
28 10 2 -1.1794000000000000e+00 5.5416283148679097e+00 6.2103833535595516e+00 2.2085370104068112e+00 0 0 0
93 31 1 5.8970000000000000e-01 8.2275015340869544e+00 5.4722724322612306e+00 4.3308912391627938e+00 0 0 0
672 224 1 5.8970000000000000e-01 8.1794111586932754e+00 5.3781224971300130e+00 9.0675812976169397e+00 0 0 0
109 37 2 -1.1794000000000000e+00 -4.3959624950923244e+00 6.2511385233661416e+00 7.3848804967338442e+00 1 0 0
141 47 1 5.8970000000000000e-01 8.6588873432141984e+00 3.1819507142938108e+00 3.5989893307054879e+00 0 0 0
142 48 2 -1.1794000000000000e+00 1.1287353284353811e+01 4.2026167940466133e+00 6.4118909971720353e+00 0 0 0
49 17 2 -1.1794000000000000e+00 6.5446350931547981e+00 3.2235096108978092e+00 6.2929630786544051e+00 0 0 0
146 49 1 5.8970000000000000e-01 -1.1432980974506504e+00 6.2034396973117722e+00 2.1467186130682721e+00 1 0 0
30 10 1 5.8970000000000000e-01 5.4847293734993912e+00 5.6559702132242897e+00 1.4303381012045644e+00 0 0 0
74 25 1 5.8970000000000000e-01 4.6850105035799006e+00 4.3970672753294622e+00 4.4323766381197149e+00 0 0 0
144 48 1 5.8970000000000000e-01 1.0469755142811579e+01 4.5069232631371463e+00 6.8057808949775040e+00 0 0 0
100 34 2 -1.1794000000000000e+00 1.4506671101627104e+01 4.9861370144149122e+00 1.9441211230915778e-01 0 0 0
130 44 2 -1.1794000000000000e+00 1.0733819661708640e+01 4.7530590640829855e+00 2.1794601102431179e+00 0 0 0
8 3 1 5.8970000000000000e-01 -6.9819304227691692e-01 6.1432725807057045e+00 6.0015805662059467e+00 0 0 0
110 37 1 5.8970000000000000e-01 -4.4909251281811624e+00 6.0920882792109055e+00 6.4457879725149061e+00 1 0 0
25 9 2 -1.1794000000000000e+00 4.5385492700556291e+00 6.3587018159630588e+00 7.1271809115441007e+00 0 0 0
167 56 1 5.8970000000000000e-01 1.1077110390294591e+01 5.6617098096373102e+00 2.8228001218908361e-01 0 0 0
127 43 2 -1.1794000000000000e+00 8.6775026629680436e+00 4.9548975513938567e+00 7.2585274925552410e+00 0 0 0
602 201 1 5.8970000000000000e-01 -6.8892734296650548e-01 5.1979512309951179e+00 4.0345776510243225e-01 1 0 1
14 5 1 5.8970000000000000e-01 3.8528300789280565e+00 4.5038232903642808e+00 9.5946348608304461e+00 0 0 0
128 43 1 5.8970000000000000e-01 8.4953677321479955e+00 5.3947212185582254e+00 6.4281465711104220e+00 0 0 0
73 25 2 -1.1794000000000000e+00 5.1917838871125612e+00 5.1729302352940554e+00 4.6719356099437945e+00 0 0 0
26 9 1 5.8970000000000000e-01 4.6677870559461034e+00 5.9475919576377567e+00 6.2724789231655205e+00 0 0 0
75 25 1 5.8970000000000000e-01 5.2554493866148277e+00 5.6777289617299012e+00 3.8611932087787939e+00 0 0 0
27 9 1 5.8970000000000000e-01 4.5332237704047618e+00 5.6287464536392076e+00 7.7462763343065211e+00 0 0 0
51 17 1 5.8970000000000000e-01 6.2945339274710808e+00 3.7635297619733201e+00 5.5433253485873903e+00 0 0 0
132 44 1 5.8970000000000000e-01 1.0978345450985541e+01 5.4164073621212490e+00 2.8247213795614985e+00 0 0 0
143 48 1 5.8970000000000000e-01 1.1504773255187803e+01 4.8717284762003450e+00 5.7628955083196223e+00 0 0 0
139 47 2 -1.1794000000000000e+00 8.2886360243025994e+00 3.9051791579958635e+00 3.0930723738027419e+00 0 0 0
140 47 1 5.8970000000000000e-01 7.5141620876242134e+00 3.5319253507303330e+00 2.6723140608203564e+00 0 0 0
131 44 1 5.8970000000000000e-01 9.9114437136376683e+00 4.3900604162260830e+00 2.5083410857294339e+00 0 0 0
519 173 1 5.8970000000000000e-01 8.3112154684535220e+00 5.8045748784259166e+00 6.9500465439128578e-01 0 0 1
59 20 1 5.8970000000000000e-01 1.9078928611283632e+00 3.4142629813728846e+00 5.9145575757795443e+00 0 0 0
133 45 2 -1.1794000000000000e+00 -2.4396510154696576e+00 3.3792851287715338e+00 6.4506133311821623e+00 1 0 0
149 50 1 5.8970000000000000e-01 1.1213344339860743e+01 6.1576356921910893e+00 8.8485385436721344e+00 0 0 0
10 4 2 -1.1794000000000000e+00 2.2580710747572694e+00 6.2319523647452701e+00 4.6148141422687212e+00 0 0 0
588 196 1 5.8970000000000000e-01 -1.4844143559220417e+00 6.3728584731483062e+00 9.5971661568806468e+00 0 0 0
91 31 2 -1.1794000000000000e+00 8.4943412934289686e+00 6.2340464586139248e+00 4.8453536771205306e+00 0 0 0
82 28 2 -1.1794000000000000e+00 2.2988920857785153e+00 5.9546459508136120e+00 -4.4909531165915645e-02 0 0 0
112 38 2 -1.1794000000000000e+00 -3.2219855075758859e+00 6.3144339219101253e+00 2.5294131029795142e+00 1 0 0
517 173 2 -1.1794000000000000e+00 8.2691771793131270e+00 5.1818927643821429e+00 -3.0736671856680227e-02 0 0 1
18 6 1 5.8970000000000000e-01 4.9757288495224739e+00 4.0226966219874312e+00 -3.5012863217621586e-02 0 0 0
101 34 1 5.8970000000000000e-01 -2.8231359861535985e+00 4.6127641142031157e+00 -5.5013600003655731e-02 1 0 0
547 183 2 -1.1794000000000000e+00 -4.0124498331426377e+00 5.2004172524049688e+00 1.6752070633008980e+01 0 0 0
548 183 1 5.8970000000000000e-01 -4.0191084577910283e+00 5.8931865264005507e+00 1.6091637673546330e+01 0 0 0
549 183 1 5.8970000000000000e-01 -4.8622391760174253e+00 4.7702348056478279e+00 1.6657251549286972e+01 0 0 0
552 184 1 5.8970000000000000e-01 -2.9528203185553670e+00 4.4364691715468965e+00 1.2434007983354757e+01 0 0 0
559 187 2 -1.1794000000000000e+00 -4.5292218664899062e+00 4.3795805243481913e+00 1.3267541623747119e+01 0 0 0
661 221 2 -1.1794000000000000e+00 -7.2467690938646836e+00 5.3537275136262190e+00 1.4696826082718815e+01 1 0 0
662 221 1 5.8970000000000000e-01 -7.9222886886187265e+00 4.8352672412655329e+00 1.4259742756289832e+01 1 0 0
663 221 1 5.8970000000000000e-01 -6.8693022377679247e+00 5.8916861325296299e+00 1.4000886420483713e+01 1 0 0
550 184 2 -1.1794000000000000e+00 -2.0144069685553907e+00 4.6250488913378787e+00 1.2430483906583557e+01 0 0 0
551 184 1 5.8970000000000000e-01 -1.9269446154040779e+00 5.4177051295203889e+00 1.2959846546116765e+01 0 0 0
587 196 1 5.8970000000000000e-01 -1.4290892514216182e+00 5.3857293403242519e+00 1.0743553682496012e+01 0 0 0
614 205 1 5.8970000000000000e-01 -8.1309690318260746e+00 5.6691505182055888e+00 1.7780313988514614e+01 1 0 0
639 213 1 5.8970000000000000e-01 -6.4036118411444649e+00 4.1246531140450902e+00 1.5435893447690875e+01 1 0 0
560 187 1 5.8970000000000000e-01 -5.0522554861444204e+00 3.8468874318402024e+00 1.2668503047205499e+01 0 0 0
618 206 1 5.8970000000000000e-01 -6.4952267328880930e+00 5.8018222252059122e+00 1.1596049295006484e+01 1 0 0
84 28 1 5.8970000000000000e-01 -4.2154780415610045e+00 5.5979505028547418e+00 1.8658998300894261e+01 0 0 -1
99 33 1 5.8970000000000000e-01 -3.7517143612842427e+00 5.7816544241462173e+00 1.0210118773811512e+01 1 0 0
513 171 1 5.8970000000000000e-01 -4.2553883765008527e+00 6.2381114833008269e+00 1.3884078371094830e+01 0 0 0
582 194 1 5.8970000000000000e-01 -2.2975517638652301e+00 3.2130173287936126e+00 1.4915516153804791e+01 0 0 0
641 214 1 5.8970000000000000e-01 8.6992693733722888e+00 3.9786936136119606e+00 1.2871695854505747e+01 0 0 0
629 210 1 5.8970000000000000e-01 -9.1698868765141839e+00 3.1900761471743957e+00 1.6660832631913035e+01 1 0 0
564 188 1 5.8970000000000000e-01 -2.0462106231469184e+00 4.7715670330626274e+00 1.6763084079977549e+01 0 0 0
561 187 1 5.8970000000000000e-01 -4.2361093520043092e+00 3.7657519564826649e+00 1.3940902858909194e+01 0 0 0
615 205 1 5.8970000000000000e-01 -7.7411382119935430e+00 5.9813336783629909e+00 1.6351162644724418e+01 1 0 0
644 215 1 5.8970000000000000e-01 5.1163733658324366e+00 3.4657822763203479e+00 1.3490698585019475e+01 0 0 0
586 196 2 -1.1794000000000000e+00 -8.8227557555370617e-01 5.8073739035227527e+00 1.0080643555599236e+01 0 0 0
553 185 2 -1.1794000000000000e+00 3.2070106503919344e+00 3.4075948549753750e+00 1.5927747965323167e+01 0 0 0
640 214 2 -1.1794000000000000e+00 9.5283711923545891e+00 3.5970388549273022e+00 1.3159879728738524e+01 0 0 0
595 199 2 -1.1794000000000000e+00 4.6502545000561950e+00 6.1416944987676301e+00 1.4770096514246930e+01 0 0 0
604 202 2 -1.1794000000000000e+00 -6.7330779547031838e+00 4.6792751066528799e+00 9.9647789367061499e+00 1 0 0
671 224 1 5.8970000000000000e-01 8.7449557299726841e+00 6.3534163020731587e+00 1.0077892633855438e+01 0 0 0
520 174 2 -1.1794000000000000e+00 2.1650484476462681e+00 4.8871248009264425e+00 1.0079889246019956e+01 0 0 0
15 5 1 5.8970000000000000e-01 5.1654981986141371e+00 5.2358926278547466e+00 9.7756357461104884e+00 0 0 0
531 177 1 5.8970000000000000e-01 1.0620259715374889e+00 6.2456055298911091e+00 1.6326266584714919e+01 0 0 0
606 202 1 5.8970000000000000e-01 -5.9078466156582294e+00 4.2778009669975523e+00 9.6927441677388675e+00 1 0 0
166 56 2 -1.1794000000000000e+00 4.5856514684282565e+00 6.3736567705448648e+00 1.9280859819452711e+01 0 0 -1
609 203 1 5.8970000000000000e-01 6.0031639051210064e+00 3.4188418409511758e+00 9.9602746125877637e+00 0 0 0
562 188 2 -1.1794000000000000e+00 -1.3439758347289292e+00 4.3260461183964978e+00 1.6289167672618184e+01 0 0 0
563 188 1 5.8970000000000000e-01 -1.0428099003238487e+00 4.9684440214032950e+00 1.5646660872948951e+01 0 0 0
670 224 2 -1.1794000000000000e+00 7.9397078549136708e+00 5.8959222107252716e+00 9.8361214356945137e+00 0 0 0
521 174 1 5.8970000000000000e-01 2.1993493646569142e+00 5.3095001107404860e+00 1.0938165890746495e+01 0 0 0
102 34 1 5.8970000000000000e-01 7.3542672291572817e+00 5.6957557541151234e+00 1.8985254963290128e+01 0 0 -1
645 215 1 5.8970000000000000e-01 3.9274099207919098e+00 3.6066572121083142e+00 1.2564332006023941e+01 0 0 0
596 199 1 5.8970000000000000e-01 4.6082831774261503e+00 5.4596049815246168e+00 1.4099882306694486e+01 0 0 0
643 215 2 -1.1794000000000000e+00 4.7272931528703799e+00 4.0527504485374841e+00 1.2842476170349775e+01 0 0 0
579 193 1 5.8970000000000000e-01 1.0825309513493935e+00 4.6762408186719213e+00 1.4099155505989856e+01 0 0 0
577 193 2 -1.1794000000000000e+00 1.5113949443795112e+00 5.3273726722909744e+00 1.4654384092256370e+01 0 0 0
599 200 1 5.8970000000000000e-01 7.6314434716973070e+00 5.9294249970101776e+00 1.3874141876880831e+01 0 0 0
558 186 1 5.8970000000000000e-01 -5.9675391304407699e-01 3.5985361503363062e+00 1.2830994028156200e+01 0 0 0
518 173 1 5.8970000000000000e-01 1.4406434889241471e+00 5.7371970006972539e+00 1.8629422298311773e+01 0 0 0
533 178 1 5.8970000000000000e-01 2.2472244910858779e+00 6.1463953511841929e+00 1.3215781637368623e+01 0 0 0
634 212 2 -1.1794000000000000e+00 7.3165502330254801e+00 4.8415789547530519e+00 1.2445274397516433e+01 0 0 0
647 216 1 5.8970000000000000e-01 7.9000578803502615e+00 5.0885545721778689e+00 1.5306715609298505e+01 0 0 0
632 211 1 5.8970000000000000e-01 5.2045765256418566e+00 5.3357054012041614e+00 1.7908213817262691e+01 0 0 0
636 212 1 5.8970000000000000e-01 6.3964491731025799e+00 4.5807454887598942e+00 1.2405599867281939e+01 0 0 0
633 211 1 5.8970000000000000e-01 5.0567406667794330e+00 5.4277223522339169e+00 1.6404388666021564e+01 0 0 0
635 212 1 5.8970000000000000e-01 7.4823554452278360e+00 5.2656220634227360e+00 1.1603312601314995e+01 0 0 0
646 216 2 -1.1794000000000000e+00 7.8586952514499240e+00 4.3077096951262241e+00 1.5858722250300682e+01 0 0 0
631 211 2 -1.1794000000000000e+00 5.3827316342229814e+00 4.8559476049404209e+00 1.7099312226128937e+01 0 0 0
578 193 1 5.8970000000000000e-01 2.2745703484512263e+00 4.8731635211087134e+00 1.5011263779300396e+01 0 0 0
648 216 1 5.8970000000000000e-01 7.1837172116527706e+00 4.5077212661420809e+00 1.6507299732411543e+01 0 0 0