LAMMPS data file via write_data, version 8 Apr 2021, timestep = 1700000

1008 atoms
2 atom types

0.291563983147181 18.10799101684988 xlo xhi
0.030068366896945354 22.54032063310769 ylo yhi
0.32475778448753745 19.180958215507868 zlo zhi
0.30775669574134057 -6.808559004059996 -0.03479454885504038 xy xz yz

Masses

1 16
2 2

Atoms # atomic

1 1 6.453218446685083 1.082539441727765 5.045470953945335 0 0 0
3 2 6.582747485277961 1.5446314407527328 4.191831025480439 0 0 0
4 1 3.7144753138329616 1.065083537975019 5.257118360062691 0 0 0
6 2 3.6900425163008754 1.5699513458000485 6.100809206163941 0 0 0
7 1 -0.5088718777430299 6.40063705045583 5.215558333327202 0 0 0
8 2 -0.7248554055907135 6.02204334096651 6.107001194308479 0 0 0
10 1 2.341612116662414 6.445147202381101 5.081267343722478 0 0 0
11 2 1.427741160976801 6.783590163446839 5.181666331386808 0 0 0
12 2 2.9441435728493444 7.210019926683319 5.1291510628363 0 0 0
18 2 5.8018518325058235 5.2120007628513925 1.0559957483993454 0 0 0
25 1 5.0862183051342225 6.356780480550097 7.430560425071859 0 0 0
26 2 5.668057853519164 7.138493555668496 7.577894297195903 0 0 0
27 2 4.173128150787006 6.721275567594826 7.596059954518852 0 0 0
28 1 5.938503674449253 6.128898455273793 2.526061746161961 0 0 0
29 2 5.851963709279904 5.829051755945404 3.4796948143193567 0 0 0
30 2 5.266806886120392 6.8207577717050025 2.4836398094728107 0 0 0
31 1 1.2994500072602633 1.111468795360155 2.8614633250611674 0 0 0
33 2 1.3362383348256062 1.5808139233273795 3.7253745675843444 0 0 0
34 1 0.2881259201955975 1.0248364066624889 7.298921288202355 0 0 0
36 2 0.42483693566932607 1.815037911577996 7.856933981918451 0 0 0
37 1 6.34404668692129 2.6296551027426838 2.7639210679735795 0 0 0
38 2 5.41798701473415 2.857699121410822 2.980757941455994 0 0 0
39 2 6.900821318838039 3.41017397401009 2.9825013962410916 0 0 0
40 1 3.9775354445517017 2.5751162953018474 7.5276020617955295 0 0 0
41 2 4.891125642450046 3.0135118234323457 7.360625608042292 0 0 0
42 2 3.2567528910586936 3.240695473102492 7.489049472422261 0 0 0
43 1 -0.4692251600709091 4.884628285360991 7.474735790603388 0 0 0
44 2 -1.157516621620607 4.229136055625548 7.359441240643112 0 0 0
45 2 -0.5931360789555082 5.3672776460686435 8.379456020736962 0 0 0
46 1 2.055358224216624 4.878419001014009 2.811444151772902 0 0 0
47 2 1.126776610479363 4.6082351400914465 3.0351051078923366 0 0 0
48 2 2.180812113419467 5.5845167608610335 3.4810734100106178 0 0 0
49 1 6.467571589238805 3.360975465792183 6.79796522465901 0 0 0
50 2 6.136303805676549 4.039667577759407 6.147368963116353 0 0 0
51 2 6.611723173309029 2.5529502226202725 6.235853225109631 0 0 0
52 1 3.8369568709255932 3.3552442812657124 3.8390185906830445 0 0 0
53 2 3.0374143337925275 3.8416487707839195 3.4423472112091535 0 0 0
54 2 3.567611487912917 2.4882256314991307 4.321866286083505 0 0 0
57 2 -0.2094892985832696 3.498283438280972 4.197953897760796 0 0 0
58 1 2.032126409680979 4.342655436404389 6.55301953114521 0 0 0
59 2 2.2267171804582704 5.1820594832479046 6.110325588111466 0 0 0
60 2 1.2140431620772774 4.460358508112113 7.064925320923519 0 0 0
61 1 8.475002994963678 6.897060783979291 1.7942652977731932 0 0 0
62 2 7.660523385562193 6.608511323812406 2.2650367680359036 0 0 0
64 1 2.5597006990333004 7.040174797593163 8.183321935031415 0 0 0
65 2 1.7884042832375953 7.510834541970659 7.780409416596598 0 0 0
72 2 3.8579587864821567 1.285115554927534 1.3147901762330936 0 0 0
73 1 5.468359104333857 5.0965044572865565 4.997774829825476 0 0 0
74 2 5.167830672917315 5.607634277019712 5.76497181148713 0 0 0
75 2 4.694210342016168 4.562267956774086 4.7179537034615215 0 0 0
76 1 0.8425306442474604 2.542121497600916 5.00425122283357 0 0 0
77 2 0.5538226638747284 2.011904012080848 5.7648935394393055 0 0 0
78 2 1.4740428777758285 3.1950747684246426 5.391437210524007 0 0 0
91 1 8.471348638162262 6.439465350135033 5.302250901075427 0 0 0
92 2 8.27622784325649 5.639089177897537 4.687564225215678 0 0 0
93 2 9.384672943208773 6.701858992468102 5.073061640678726 0 0 0
115 1 10.561445792187946 1.1067855695485342 2.893036397725167 0 0 0
116 2 10.402182164237113 1.7511644148989947 2.1813119091056445 0 0 0
118 1 8.842949286040861 1.0967604929175134 7.2611735604067125 0 0 0
127 1 8.432039198767589 5.040586627267845 7.4867637370088955 0 0 0
128 2 7.757833825109383 4.341052257383361 7.32361007553481 0 0 0
129 2 8.38031014037547 5.649680084112807 6.741118494549753 0 0 0
130 1 10.89221047670372 5.073010847495104 2.51542273024664 0 0 0
139 1 8.364809549505866 4.383067990286494 3.508961094146183 0 0 0
140 2 9.244241730185388 4.535033301916842 3.082439428943051 0 0 0
141 2 8.540039042044803 3.5752077239365607 4.029868402930204 0 0 0
153 2 6.127837535819243 1.0959094356450894 8.993180644222337 0 0 0
160 1 9.461915223820727 2.3630559682761603 4.9794665871920385 0 0 0
162 2 9.989498583351033 1.9128185942559923 4.3143022243930655 0 0 0
169 1 6.94488353477929 8.576117632675237 4.844026956143404 0 0 0
170 2 7.463847931752893 7.843629610952663 5.125032725043572 0 0 0
171 2 7.108174747759582 9.308195033550225 5.462221208254486 0 0 0
172 1 4.089675663798494 8.47388511158037 5.296157546072308 0 0 0
173 2 4.074609498746144 9.142151914108512 4.589768235956259 0 0 0
174 2 5.003777843364876 8.14277431253435 5.197050556734652 0 0 0
199 1 1.6326577200175805 8.693329996164525 2.6403713595987783 0 0 0
200 2 1.6230166162158042 9.383895868665789 1.9427366110701139 0 0 0
201 2 0.9808339694361516 8.030217989706042 2.339719333851871 0 0 0
202 1 0.38964060222508673 8.780364118102414 7.360520583095009 0 0 0
203 2 -0.5333321114374823 8.524323708102683 7.344733448632543 0 0 0
204 2 0.6379435799249207 9.116091015509301 6.459267911476731 0 0 0
205 1 6.576492696975013 10.189640480217827 2.707517452663182 0 0 0
206 2 6.82807486515004 9.505188606200711 3.3539099347270223 0 0 0
207 2 6.620076292700576 9.803830697080052 1.8353689370182273 0 0 0
208 1 4.520733378363692 10.262795737786924 7.358155867078187 0 0 0
210 2 4.323805456525978 9.590750189145789 6.639849557623807 0 0 0
238 1 4.0559731785339945 7.884822263985317 1.8309811819816668 0 0 0
239 2 3.241430965359316 7.976817897548052 2.3549705225056 0 0 0
240 2 4.167411856910653 8.747171509875352 1.2737271632761265 0 0 0
244 1 1.0540982824537544 9.894999456124873 5.103122080202742 0 0 0
245 2 1.456764316428927 9.442710520694089 4.356140791226329 0 0 0
283 1 10.527624710572251 8.612964486588748 2.4789413248651235 0 0 0
284 2 10.414366578875166 9.04108608228812 3.3714135065481847 0 0 0
285 2 9.793667155727329 7.9274457001926235 2.4667032121589623 0 0 0
288 2 8.421092781591057 8.555435805615419 7.414663080475578 0 0 0
319 1 6.8352268038443675 8.045873023803031 8.231991064331048 0 0 0
329 2 9.84408569518217 9.495944461216236 5.577864763606392 0 0 0
330 2 9.502709228336276 10.465300750861594 4.435645938787627 0 0 0
66 2 2.8972321893245008 7.674204725614057 8.83563447582461 0 0 0
21 2 1.1309618688108176 2.6261755599864656 1.5129752374353211 0 0 0
132 2 10.968196549259464 5.730580085897318 3.2550696616116936 0 0 0
286 1 9.359678962685539 8.820379631522632 7.119564043695885 0 0 0
328 1 10.197210473509086 9.8388929244767 4.766465666889273 0 0 0
94 1 11.071831587846795 6.383368906359821 4.871659274423156 0 0 0
119 2 9.060092388497736 1.8467771379284867 7.848900717198062 0 0 0
131 2 11.40011143912626 4.284599719189727 2.8105336679363826 0 0 0
161 2 10.067764567869238 2.9982713129897243 5.419690981438007 0 0 0
287 2 9.958680986978615 8.089234046049166 7.238233019178424 0 0 0
324 2 12.713545390289942 7.3470354942039515 1.2152079569967567 0 0 0
323 2 12.265024954570531 8.178665643328692 2.4150111383453865 0 0 0
144 2 10.094323867284828 4.289024516515665 7.140416055189963 0 0 0
320 2 6.670974229302507 8.819162985639654 8.839753552235756 0 0 0
321 2 7.170679405558461 7.306954660746847 8.845194887239403 0 0 0
276 2 9.920937356051777 9.935997702559384 8.432702811729282 0 0 0
120 2 9.133667973098365 1.3669450607154658 6.38386798177397 0 0 0
272 2 10.243704499975175 9.629948378876978 1.1614525715160562 0 0 0
192 2 0.4912200989301353 9.801342362586274 8.72925476315129 0 0 0
14 2 5.194226052964412 5.3711912932721 8.865330086765768 0 0 0
5 2 4.6734168970365815 0.8448211454143911 5.156169630805766 0 0 0
32 2 2.201898689665096 0.888719114266347 2.522514481655579 0 0 0
585 2 3.7842282609196385 1.732794905962368 9.077210271724049 0 0 0
246 2 1.716469290025325 10.52541297984723 5.4799701062686905 0 0 0
63 2 8.660109456007804 6.112928084214797 1.2045003478710625 0 0 0
671 2 8.127886691990364 5.670382432039935 8.856055620034086 0 0 0
96 2 11.107741132436635 5.6965758550410195 5.568810844334455 0 0 0
155 2 13.091742750146594 1.037809659769994 1.3221127507644108 0 0 0
142 1 10.795198911260254 4.125590197581122 6.484222071551807 0 0 0
95 2 11.701574204159936 7.069303025875413 5.091385405887657 0 0 0
322 1 13.052352549604132 7.972634815261724 1.9002327701006896 0 0 0
136 1 12.680157251373267 3.101872156259066 3.5085214887163394 0 0 0
149 2 11.209490881884676 6.246934849956746 8.450120773209468 0 0 0
148 1 11.337778145954369 7.1524495197590054 8.086005716370357 0 0 0
80 2 6.54350393180612 1.8669494986435482 1.1967571028492037 0 0 0
83 2 2.2836447740198595 5.562727760775301 1.051085696317215 0 0 0
89 2 12.428596847563794 1.6786175808083061 4.585201340795262 0 0 0
143 2 11.609813079133952 3.7747366306657497 6.951617327970893 0 0 0
258 2 12.476944155507635 9.056117412427172 4.7184758915371 0 0 0
137 2 12.976549382198307 3.7236664757307203 4.203777085343479 0 0 0
150 2 11.578355514542885 7.710419773564346 8.859668144223054 0 0 0
35 2 -0.659105567721159 0.9132205010218156 7.381113710204294 0 0 0
88 1 12.339655478228979 0.9366945605354022 5.208589630872778 0 0 0
138 2 13.56543275697661 2.807765137527658 3.0651652915752976 0 0 0
167 2 11.360045323502368 5.717422336135514 0.9958307077514117 0 0 0
753 2 4.061316639590373 9.514394365140937 9.078318265773406 0 0 0
152 2 7.108549619210507 0.5745537179145738 7.889119551263194 0 0 0
306 2 13.836835128084472 10.299882594969338 3.182734888360239 0 0 0
256 1 12.966858688856579 8.402853437162472 5.293067742569449 0 0 0
221 2 4.963807807946607 10.710854746852904 3.3528575485831533 0 0 0
156 2 12.124526529224312 0.44163394616672486 2.3740752049507283 0 0 0
235 1 -2.0370529670849975 7.9236643181699735 8.267478946130137 0 0 0
151 1 6.356882969905909 0.3158465928938839 8.438001934427213 0 0 0
55 1 -0.5773642586231066 4.21466728808253 3.599781748195353 0 0 0
304 1 13.025655378107427 10.610542743832283 3.679132504667347 0 0 0
101 2 14.604705066348833 5.330461173524554 1.5984605206502984 0 0 0
113 2 14.416336544915135 7.061411672499949 2.563365042522464 0 0 0
90 2 13.24575593109717 0.5476602683129763 5.180094371520009 0 0 0
126 2 12.609221505175727 1.9574282667929377 6.623300647693293 0 0 0
111 2 12.97213866252545 6.713421798926101 7.356440024671687 0 0 0
294 2 13.31386020606368 9.425936726007006 6.90643663813948 0 0 0
257 2 13.94898183075626 8.373494026724941 5.07543410589657 0 0 0
124 1 12.847510717373238 2.6819209020839803 7.250171592586178 0 0 0
112 1 15.012171499143587 6.297497085186765 2.860419087061782 0 0 0
219 2 6.2431669888139325 10.685958740875986 6.932973121066955 0 0 0
68 2 -2.529875547152978 1.3097884573800445 8.857351902035713 0 0 0
236 2 -2.455389017302978 8.665875894921484 8.747468554421902 0 0 0
79 1 6.8241282249312025 1.4467564066074505 0.3412740000074618 0 0 1
399 2 7.929442957831958 0.3289812407861012 1.0616312549641262 0 0 0
121 1 15.258707905374443 2.3487157623554493 2.879224972557839 0 0 0
289 1 15.435228871363238 10.070018724994174 2.685948541091304 0 0 0
125 2 13.781337365163248 2.9367943256057307 7.139623147852086 0 0 0
217 1 7.0071636929961265 10.994248768326388 6.3911264739674865 0 0 0
9 2 -1.1136830362868817 7.201739340839203 5.0945668207175165 0 0 0
836 2 13.036153967117414 9.268350220504498 9.195458908563293 0 0 0
109 1 13.79444796106095 6.195510774246447 7.380784684901787 0 0 0
291 2 15.676942388284143 9.716870439692023 1.7834571623171527 0 0 0
668 2 12.686636164326021 1.922165464375415 8.751592223895274 0 0 0
292 1 13.389809260305732 10.088833202006688 7.589043013103078 0 0 0
157 1 14.190777978293402 4.891116518709105 5.059810575573988 0 0 0
158 2 14.466784689734984 5.506863477813087 4.284080445499383 0 0 0
123 2 15.418748252535009 2.073969928890178 1.9210182791940251 0 0 0
159 2 13.930892454487779 5.451124428364609 5.822580035060977 0 0 0
587 2 -1.4174535906282055 6.784011732943255 9.383320849035071 0 0 0
22 1 0.3999486429532795 2.6065149684338524 9.382238484275799 0 0 0
114 2 15.942814584016519 6.597135760765286 2.7514390288818795 0 0 0
110 2 13.793852252883937 5.491106750214734 8.105327195876999 0 0 0
248 2 7.731957667608702 8.352602966539513 0.8916816510877827 0 0 0
154 1 12.897346327605009 0.21382006264863415 1.8314392285032948 0 0 0
220 1 4.138763341731129 10.826910953888095 3.8732702936067587 0 0 0
56 2 -0.6766543540684512 4.952117521668563 4.18921182561335 0 0 0
190 1 0.6394349754340315 10.30896775108693 9.57569853721413 0 0 0
301 1 15.87582156771937 10.693011276692024 6.592520660426412 0 0 0
135 2 15.619699420167555 2.4149371679345495 6.203721647604237 0 0 0
222 2 3.5293696876603113 11.162743080631685 3.1828473957547976 0 0 0
97 1 13.817534575310486 4.7933744655743755 9.627271014787597 0 0 0
670 1 7.882031881195953 6.205449044318706 9.648188782357886 0 0 0
100 1 14.548784662145408 5.022353233339616 0.6218884855646367 0 0 0
102 2 14.037815110642997 4.189677782025454 0.6067412984390101 0 0 0
23 2 0.9992286418509608 3.4325867545656505 9.334616730549852 0 0 0
163 1 15.998255795141555 1.2549617701122993 0.4005643026532082 0 0 0
67 1 -2.3382997069027236 0.5298160585394103 8.30071153590229 0 0 0
780 2 13.179328033117244 9.439964544928438 0.8618563440363775 0 0 0
99 2 12.877792224063773 4.5487310962731735 9.536911730366038 0 0 0
117 2 9.827190274652311 0.49443377874953587 2.713626046900179 0 0 0
15 2 4.089442531132798 4.822550210397108 9.717968603388128 0 0 0
103 1 10.205552921504484 2.7844903112386286 0.7613661495187931 0 0 0
165 2 16.572256246911575 0.6384097383090044 0.9256431353481746 0 0 0
87 2 15.358800556636911 1.3565963419908909 4.372564421015466 0 0 0
302 2 15.077789538689323 10.549083600537399 7.107263968463421 0 0 0
122 2 15.821608971365858 3.131037223797969 2.9952792260366112 0 0 0
134 2 15.02199439752554 3.9145557883541886 5.984259689018518 0 0 0
84 2 3.329184886928397 6.556710339950418 0.6684461758911895 0 0 0
147 2 16.977365593094053 7.773582253357462 1.5624031440325152 0 0 0
70 1 3.8522683849256385 0.46439746576033514 1.8738655357069776 0 0 0
273 2 11.152718013259653 10.46654983749206 0.33010784835717355 0 0 1
751 1 3.6460763644225502 8.962098917991606 9.745292574007795 0 0 0
293 2 12.748970323223196 10.796420200726073 7.219008205181742 0 0 0
224 2 0.1518735927499222 11.085150617733776 4.021281394320021 0 0 0
584 2 2.9580760086261013 0.5311585900283129 9.266296947378239 0 0 0
106 1 9.229752034609769 2.6218803828366424 9.520232390822429 0 0 0
2 2 7.124994430368201 0.3454680275375803 5.072291328085472 0 0 0
311 2 11.088023612333732 11.025099446734162 5.801659705988222 0 0 0
237 2 14.997728590189304 7.458390739129062 7.881912780918638 0 0 0
290 2 16.05356364919395 10.85154286528634 2.821923493014797 0 0 0
133 1 15.341540830692216 3.2673446799414085 6.6622457783024895 0 0 0
612 2 12.072228450919079 2.8930911284666956 0.6950085684765368 0 0 0
145 1 17.392513120546102 7.0763590141614054 2.0788446114930554 0 0 0
521 2 2.3334995042109745 5.496331383645055 8.992820629799969 0 0 0
604 1 11.008855565464016 4.869034661767668 9.633156588353009 0 0 0
253 1 15.668579518366084 8.637620361488901 5.045047120436079 0 0 0
254 2 15.790411440366942 9.390586188772376 5.648367817038748 0 0 0
255 2 15.813945166774047 9.080642498081305 4.218506408506104 0 0 0
146 2 17.529208596706468 6.357956970625005 1.4070132853364796 0 0 0
69 2 14.703271616809113 0.21571941503885542 7.833176330188449 0 0 0
85 1 15.237269969425618 0.9540601647686966 5.25005999676183 0 0 0
667 1 12.548262936169662 1.448096994551796 9.595263403277764 0 0 0
209 2 3.8049958899384095 10.941241256820208 7.31801760452085 0 0 0
528 2 2.927067525423204 3.0178053888988 0.4900928745466976 0 0 0
486 2 11.073850764996546 0.500082098015899 9.060530434413515 0 0 0
610 1 13.013178768693006 2.6215554729751824 0.46232201869223055 0 0 1
86 2 15.837647916608244 0.15410323768601764 5.197282007568639 0 0 0
309 2 7.8653390741703735 11.06834955423731 3.0830661667078094 0 0 0
19 1 1.239795516043092 3.0221285368306505 0.6263799599536244 0 0 0
104 2 9.703855990756303 3.57182851238238 0.528341914504262 0 0 1
606 2 10.38120422702522 4.113808086650741 9.692295752590596 0 0 0
602 2 16.31950186885843 4.842262332864495 0.42268031413996904 0 0 0
271 1 10.183799730818595 10.293462728490255 0.4382158758629656 0 0 0
601 1 17.267277761695855 5.08807275291515 0.38497661131248984 0 0 1
247 1 7.052414205802448 8.845384502243446 0.52217771160339 0 0 0
331 1 16.04709779837835 8.869017242443718 0.4570803707035694 0 0 0
305 2 12.418806207573201 11.053509743036216 3.0850242602704676 0 0 0
20 2 0.5959700476773564 3.7757947760790853 0.547339928971777 0 0 0
274 1 9.853479451582169 10.28989235011016 9.35692435058002 0 0 0
108 2 8.259513762373459 2.8282957694800075 9.616982282868795 0 0 0
520 1 2.3949796022048773 4.782443050173168 9.65505660250026 0 0 0
485 2 10.058232247362492 0.062421513063900216 7.937355827936183 0 0 0
526 1 3.8810368325551656 2.7415259868069004 0.33051903787249604 0 0 1
187 1 1.3981545779636306 10.100738427179133 0.32870146743194173 0 0 0
191 2 0.8462954594365268 9.630594257286806 10.25655413951039 0 0 0
775 1 7.014996280627596 10.453583811287073 9.895402428188673 0 0 0
749 2 -1.9025974011129145 10.591861949670243 14.771793796111524 0 0 0
691 1 -2.29417867342257 9.99961248559511 9.998456689428966 0 0 0
517 1 1.7955070394458326 4.854102244171858 18.958130444943897 0 0 0
536 2 -2.631683584939291 0.45420636156969607 12.017997252411414 0 0 0
98 2 13.811330832106677 5.599422239670113 10.233488458338998 0 0 0
275 2 9.829698146420654 9.48838955525616 9.949969869141746 0 0 0
714 2 1.7306702430122303 10.431998699043184 16.907751048990814 0 0 0
654 2 7.594966794973976 6.30447977713526 18.449194668897746 0 0 0
669 2 12.397121823120697 2.1432052810412627 10.290234425029455 0 0 0
539 2 -3.956135576731423 1.1377741364618432 16.934588475643604 0 0 0
711 2 2.0945752289905144 10.356368592978832 12.205262288349367 0 0 0
655 1 3.110774708302076 0.6079675790697353 17.921983213451625 0 0 0
105 2 3.1895192696787027 2.010615419899731 18.971898695477623 0 0 0
524 2 -2.7747877669218926 3.6090135040867017 9.925794320037618 0 0 0
808 1 9.580510860442104 10.882554127411488 12.939756357469351 0 0 0
834 2 6.105488252198802 10.52496172879423 13.737997025817695 0 0 0
505 1 3.036774703300015 1.0319759221436324 14.247179198668473 0 0 0
506 2 3.259846735235006 1.7139397140277883 14.942368806873123 0 0 0
990 2 6.864792618435299 0.1902862869810347 17.357741932442 0 1 0
508 1 0.2867431278060495 1.038549695598086 14.595410712694822 0 0 0
586 1 -0.6581303982407959 6.268997764613756 9.780741051874784 0 0 0
721 1 3.3088327539920352 10.697475706695993 15.913578227653524 0 0 0
511 1 -3.756613164402053 6.523851607370794 14.67844236020177 0 0 0
512 2 -3.8837982694570505 5.770446429914411 14.019986095612227 0 0 0
513 2 -3.7703771798457777 6.077146249865356 15.56411727346394 0 0 0
514 1 -0.9075953545424609 6.533365020168093 14.276846893574108 0 0 0
515 2 -0.7697973907885332 5.759360740628481 14.89726469305756 0 0 0
516 2 -1.885848790545987 6.683216308720581 14.408155598935943 0 0 0
168 2 4.274790897473421 6.7100155067429235 18.6559691962463 0 0 0
519 2 1.8291232684189571 5.318079137722531 18.099728402783697 0 0 0
828 2 9.048049365819944 8.327028820271982 11.455999183220223 0 0 0
522 2 2.235266410243493 5.223070708833891 10.481622189786652 0 0 0
608 2 5.952232607535116 3.440543436622187 10.041917346144123 0 0 0
725 2 0.012779712650147379 11.17343798669996 12.5597725530474 0 0 0
164 2 8.592969037213058 0.6327544038367096 18.778825442645967 0 0 0
798 2 9.733019253254872 9.360215196143264 16.133058348685278 0 0 0
779 2 6.101989615829195 9.83008325794774 18.249101074772778 0 0 0
529 1 1.5558044713249437 6.490884284814765 16.74403943826909 0 0 0
530 2 1.5501433394442916 6.042462786828932 15.893390436102726 0 0 0
531 2 0.6786188364620586 6.830178698160771 16.918618733438446 0 0 0
532 1 2.4883409967564423 6.297763901743527 11.983101769484163 0 0 0
533 2 3.4011753127168616 6.524355149860013 11.810861438488946 0 0 0
534 2 2.3898918514144287 5.881208719350557 12.87467935265263 0 0 0
535 1 -2.0484378291568355 1.1685798417261162 12.336297702347343 0 0 0
794 2 12.656997215201462 10.750497448047325 12.234602892594404 0 0 0
537 2 -1.1666913824175844 0.7719317527455665 12.199326822005956 0 0 0
538 1 -3.0020322125957093 1.407569043047332 16.80499369526878 0 0 0
776 2 7.882701493014837 10.816500956298016 9.788983094447122 0 0 0
540 2 -2.9827198775285355 1.7976221543492457 15.901147078785778 0 0 0
541 1 2.914336742734471 2.7018086499909892 12.042181470646417 0 0 0
542 2 3.171199087016811 2.050584377475334 12.73094001277382 0 0 0
543 2 3.1361506812523445 2.1750824201439256 11.207802502080806 0 0 0
544 1 0.7804793723479164 2.431242970230389 16.899576582101076 0 0 0
545 2 0.49044991415244743 2.1310318543262596 17.812082760349522 0 0 0
546 2 0.5490523034674113 1.7270384515607968 16.242271435277146 0 0 0
547 1 -3.270573425113771 4.843250117055272 16.92941216820764 0 0 0
548 2 -3.951854776086939 4.218008897668085 16.641976372906683 0 0 0
549 2 -3.5356151663363193 5.198788355940506 17.84440808377013 0 0 0
550 1 -1.3755977341001826 5.098924714476082 12.030437881923437 0 0 0
551 2 -0.7387183792677621 4.338745713280775 12.080482020271113 0 0 0
552 2 -1.0754158828894467 5.750697565231514 12.715620354072646 0 0 0
553 1 3.2181010759477364 3.186427028079153 15.884781039293031 0 0 0
554 2 2.4614259004993295 2.908194515754904 16.42228601478693 0 0 0
555 2 3.9302814271472517 3.6047447190213955 16.445336156659828 0 0 0
556 1 0.4192000467247847 3.2605110700924183 12.858217162607286 0 0 0
557 2 1.2889788202621548 3.063319650351298 12.469162846135193 0 0 0
558 2 0.2494759556453737 2.4589540171366058 13.401446164688942 0 0 0
559 1 -3.8586254318449735 4.586753354046612 12.878705651683244 0 0 0
560 2 -3.0980292084296766 4.675534380916447 12.285974150798056 0 0 0
561 2 -3.596403398548056 3.917624141299848 13.517881799767371 0 0 0
562 1 -0.8986070778252087 4.14650613863079 15.744502351170935 0 0 0
563 2 -0.29093491889245804 3.540730784377775 16.206647916653065 0 0 0
564 2 -1.643672896420908 4.264780168737864 16.370991126473438 0 0 0
565 1 5.048468634541086 7.242300422395823 11.372165815348675 0 0 0
509 2 -0.30531886502845906 0.23860254318541366 14.599037204422828 0 0 0
621 2 7.5452987217032454 0.7790897522496538 12.102614344716955 0 0 0
568 1 -0.8337782391450068 7.152201084899242 17.58569651020191 0 0 0
603 2 10.469121881290818 5.380380896310955 18.316712269862546 0 0 0
570 2 -0.5717580080229175 7.645356675480186 18.407065563101312 0 0 0
658 1 9.210129486274514 0.4756381209021287 11.409088396223137 0 0 0
572 2 -5.561621916456277 1.6882680615844108 18.19196666610482 0 0 0
827 2 10.37716628083605 7.519500285357067 11.230610505881113 0 0 0
805 1 12.369764619938167 10.715270439527448 15.901327124271608 0 0 0
576 2 0.48995639306646455 0.9890530878842724 10.704829995350147 0 0 0
577 1 2.038227208761352 5.049972379203119 14.420225871964028 0 0 0
578 2 1.3658588095278585 4.466263457911606 14.053608217189488 0 0 0
579 2 2.693077430971843 4.419992211893818 14.8105996854752 0 0 0
580 1 -2.690853489448315 2.657455229412154 14.382300790069216 0 0 0
581 2 -2.184894882069947 2.1672597241937477 13.723306943353077 0 0 0
582 2 -2.099102824020163 3.3225314201666816 14.73040435735612 0 0 0
693 2 -1.347724993301192 10.16904267631147 9.92311974262186 0 0 0
523 1 -2.1712823963376233 2.8244371194643816 10.0442682710961 0 0 0
589 1 12.133412592176633 1.147747699584302 14.188371701961866 0 0 0
569 2 -1.0196352595286193 6.27290883049585 17.943663545553072 0 0 0
591 2 12.312310726938618 1.8766523948989975 14.834546526242267 0 0 0
592 1 9.586252968544109 1.3383912828758666 14.522765669872804 0 0 0
826 1 9.64994871171589 8.037027213293392 10.75142193007021 0 0 0
594 2 9.395770452717986 2.0348579599882597 13.890985094813823 0 0 0
595 1 5.156172671020286 6.489231074260727 14.759690784400684 0 0 0
596 2 4.792999625117478 5.926989898819095 15.433151529154902 0 0 0
597 2 5.007496546629538 6.002932957387632 13.924615640300146 0 0 0
598 1 7.835373326005854 6.2979057946105845 14.471799949224888 0 0 0
599 2 6.906724226876467 6.533161049284756 14.715010251780487 0 0 0
600 2 7.7664435699541166 6.02684016624984 13.517900494823502 0 0 0
816 2 7.749273941174218 10.893381690116371 15.218305375117163 0 0 0
571 1 -5.362287272753825 0.8449551779779741 17.670401872619998 0 0 0
574 1 0.45079039852444336 0.13436981138360407 11.213712023933976 0 0 0
605 2 10.984034820396312 5.2660079258404835 10.530116627741599 0 0 0
832 1 6.49129750300629 9.779496310848025 14.209321820576204 0 0 0
743 2 0.2508723461696691 7.462222637268583 10.686415026217903 0 0 0
825 2 3.200049538345165 8.642115215210614 18.12549018284595 0 0 0
809 2 10.46393162895232 10.602356825288314 12.460375319536952 0 0 0
566 2 4.668718576774781 7.842010954585895 10.694193103519936 0 0 0
611 2 6.145976684397306 2.389516527620228 18.358011313923043 0 0 0
613 1 10.366454434353384 6.215088929761148 16.755525489028088 0 0 0
614 2 11.013072018456661 6.929810813953581 16.928090193157182 0 0 0
615 2 9.479663835397057 6.594191878767661 16.857450690895384 0 0 0
616 1 11.316734708047916 6.329683416701503 11.914084776983007 0 0 0
617 2 11.279751607570564 6.035339007774692 12.800633835529966 0 0 0
618 2 12.28030625616033 6.591963783289376 11.725818798034183 0 0 0
619 1 6.647272375827711 1.016381140752321 12.177211532436464 0 0 0
609 2 6.418680438793244 2.191997543557199 11.018195522177772 0 0 0
81 2 -0.7303200544415409 0.8551194186054705 18.893456060775843 0 0 0
622 1 5.644490579465547 1.2714523471388475 16.85414042754137 0 0 0
620 2 6.110218309390772 0.23452774070049545 11.91237992384924 0 0 0
624 2 5.750470528291624 1.6335757830518534 15.902812743556623 0 0 0
625 1 11.912476581824631 2.851474624623514 11.801175179507704 0 0 0
626 2 12.209488477978573 2.1749153241810024 12.466061342624302 0 0 0
627 2 12.443981599099638 3.6096924386947533 12.07180232652377 0 0 0
628 1 9.83150254817287 2.611133673747779 16.97286204748907 0 0 0
629 2 9.593106146927957 2.121623708190957 17.765865292027403 0 0 0
630 2 9.79310795966261 1.918949295542401 16.260086048331623 0 0 0
631 1 5.29085648486565 4.679585925164711 16.91470269912192 0 0 0
632 2 5.293435994223488 5.118636848349222 17.79521975282737 0 0 0
633 2 6.2534724854598505 4.449273450905838 16.74119404852718 0 0 0
634 1 7.479562706544527 5.02907459559221 12.106376870797083 0 0 0
635 2 6.572084828734189 4.686616129910555 12.194118274519873 0 0 0
636 2 7.598502601221849 5.342675611240744 11.176454677907579 0 0 0
637 1 12.324228443904211 3.310343600535056 15.861760390225282 0 0 0
638 2 11.979753400495946 3.944725201234732 15.197879840257944 0 0 0
639 2 11.573007302749177 3.122616802881393 16.46124736249816 0 0 0
640 1 9.506849674888059 3.537491830734658 12.893224919275607 0 0 0
641 2 8.818883042829789 4.05334644210506 12.379188573860105 0 0 0
642 2 10.297941128420465 3.244489180888927 12.362169619582582 0 0 0
643 1 4.910960201572605 4.339077400418158 13.062116305360318 0 0 0
644 2 4.092822716665631 3.928936860914189 12.699992874454999 0 0 0
645 2 5.258475471605999 3.6253068862993665 13.620133839362268 0 0 0
646 1 7.709170972994235 3.9998079502212565 16.000624038421492 0 0 0
647 2 8.517190891794575 3.612941225581666 16.399546065695144 0 0 0
648 2 7.970823958077755 4.787532802838738 15.467898047431301 0 0 0
649 1 13.866172560255277 6.87845860744725 11.218337975291833 0 0 0
650 2 13.571045256819007 7.595374482809807 10.618766763958993 0 0 0
651 2 -3.2156272650036453 7.226569715007345 11.759187556663889 0 0 0
652 1 7.842504927652746 7.107332809167352 17.918847779442917 0 0 0
653 2 7.057386359662527 7.451520559497439 17.449478910629598 0 0 0
332 2 9.578864356237128 9.349697012350024 18.514273672256362 0 0 0
510 2 1.2030477877178094 0.7679892691946287 14.396628430337232 0 0 0
672 2 8.615254940910447 6.753348455868367 9.899899697965648 0 0 0
661 1 10.983308792387815 5.171256603184991 14.321901183075758 0 0 0
662 2 10.660419980610493 5.567230500532268 15.181352745230095 0 0 0
663 2 10.301788138994635 4.591139375396854 13.835477564847864 0 0 0
664 1 6.227006930106601 2.3915472276520138 14.523699757396653 0 0 0
665 2 6.993464201695717 2.952260162001949 14.837452858779839 0 0 0
666 2 6.55086484360652 1.815979608750485 13.788649226188284 0 0 0
623 2 4.679205765393151 1.0546677441066703 16.93365773535816 0 0 0
796 1 9.962560777884843 9.972446582735072 16.86046154879075 0 0 0
189 2 -4.427601406319159 10.158073326697247 19.098915420595986 0 0 -1
673 1 3.505296065208911 8.578285870361093 14.196486980328817 0 0 0
674 2 4.120287015637764 7.890328196353326 14.42500783351614 0 0 0
675 2 3.4419733182987335 9.215812472159554 14.972732844977354 0 0 0
676 1 0.755638837684214 8.698513932898678 14.532195664550242 0 0 0
677 2 1.7057145142478394 8.41060816863821 14.459006717994324 0 0 0
678 2 0.2266377323238666 7.840841763337684 14.493739526000873 0 0 0
525 2 -2.5065274413536525 2.425842811585419 10.89826728008562 0 0 0
166 1 4.971125707340507 6.203856382033193 19.13197022669985 0 0 0
249 2 0.6396757596463636 9.386637085058071 18.718461224965267 0 0 0
807 2 12.530798744126566 9.969335016496407 15.237093151620682 0 0 0
695 2 -2.658244459045905 9.615139591001904 18.159026510603383 0 0 0
573 2 11.612823013186755 0.5494619232783686 17.28717464902651 0 0 0
703 1 -1.9723216546936029 8.69834855826591 12.378026396407202 0 0 0
704 2 -2.1269308892321686 9.272138993127752 11.61890258966107 0 0 0
705 2 -1.060892333874615 8.38899684082268 12.163988653760004 0 0 0