LAMMPS data file via write_data, version 3 Mar 2020, timestep = 0

2016 atoms
2 atom types

0.0000000000000000e+00 1.7941434464584560e+01 xlo xhi
-2.0603453447647198e+00 4.7056505321681840e+01 ylo yhi
0.0000000000000000e+00 1.9080317155454047e+01 zlo zhi
4.6409203383506389e-02 -6.6745385909493322e+00 -2.2702671437514255e-02 xy xz yz

Masses

1 16
2 2

Atoms # atomic

579 2 5.6902731008852951e+00 5.4381012849287096e+00 1.4093576608672446e+01 0 0 0
223 1 -1.6824352702676753e+00 4.8102023168945722e+00 1.5917059891684657e+01 -2 0 -2
995 2 9.4156051405604320e+00 5.4101270462016275e+00 8.9979960265979724e+00 3 0 1
654 2 1.2977412132957831e+01 4.3898738341955443e+00 4.5171655354717686e+00 -2 0 0
394 1 9.5321623211265010e+00 4.0143093045464955e+00 2.0754280456221870e+00 -3 0 -3
578 2 6.5267110150751053e+00 5.6735041795589742e+00 1.2762673514027680e+01 0 0 0
929 2 1.3780876033653877e+01 2.9961855453823754e+00 6.0083504808831032e+00 0 0 0
4 1 2.7713357302918742e+00 9.4351830659466192e+00 7.9481554509117558e+00 1 0 0
705 2 -3.1307237342913705e+00 5.0926747532550412e+00 1.2964525493134456e+01 -2 0 -1
302 2 3.3782754542192217e+00 6.2436881131604949e+00 1.8840226759825860e+01 0 0 -1
299 2 -5.0846338898062999e+00 8.5934634941500532e-01 1.5439928993744232e+01 -2 0 -2
896 2 1.5922318564340809e+01 7.4144806594176629e+00 3.1698730514686493e+00 -1 0 0
150 2 1.0151962171468192e+01 3.3391504511676242e+00 1.3087338760563179e+01 -4 0 -1
776 2 3.3467319786443150e+00 -3.6804529864070235e-01 1.8506210034610763e+01 -2 0 1
254 2 9.9116582046764279e+00 7.9616231643819759e+00 1.8214365039037361e+01 -3 0 -3
596 2 2.5982999327698020e-01 4.9090406487870171e+00 2.7168371751572846e+00 3 0 -2
291 2 3.3058463957598501e+00 9.1627510642123493e+00 3.1497145878060109e+00 0 0 3
435 2 1.1602558340832886e+01 5.3717928688132472e+00 1.6043982229196871e+01 -2 0 0
881 2 1.1281945655886366e+01 1.4502224396159589e+00 8.3883472274762632e+00 -3 0 2
319 1 1.0805307979603782e+01 -1.3822173471580563e+00 1.4493336306632987e+01 -4 0 -3
53 2 3.3996922873032167e+00 3.2770513273609554e+00 1.6899157149772513e+01 2 0 -1
216 2 1.7637509318954745e+00 7.7510020347521937e+00 3.2091805164428449e+00 0 0 -2
609 2 3.6416584241682495e+00 1.6761713844104964e-01 2.9106210608279426e+00 -3 0 0
1583 2 -3.6451016643589211e+00 3.9104443957966284e-01 1.3736226502334102e+01 0 1 1
122 2 1.0016548270853713e+01 5.4125378165793858e+00 1.4520468583766437e+01 -2 0 -1
806 2 1.3865336447162603e+01 9.4590895392214520e+00 7.9495164818775557e+00 -4 0 1
161 2 -2.9928393117621765e+00 9.2046396744384591e+00 1.0042313777962127e+01 1 0 -5
707 2 8.1690595517610376e-01 6.9854951244557384e+00 1.4797870496648731e+01 -1 0 -1
712 1 -1.1191190193886920e+00 -2.0700903652343445e+00 1.1320905385293097e+01 0 0 3
448 1 6.3753377292409006e+00 4.9817238176221093e+00 7.3830950688024286e+00 -1 0 1
890 2 9.8266748081762199e+00 -1.2375961882022386e+00 6.6383132032273391e+00 -1 0 0
506 2 1.1194835089068130e+01 9.2571080128373016e+00 2.9259736493864659e+00 -4 0 -2
272 2 -1.5772517906491186e+00 -1.4924755095321767e+00 6.1848880027407924e+00 0 0 -2
85 1 6.1920940390386592e-01 -1.1759931230097651e+00 6.1630306337517482e-02 2 0 -2
6 2 3.6169059699853561e+00 9.8956903258578421e+00 7.6723291942761200e+00 1 0 0
301 1 3.8499250083887526e+00 5.3741550452749305e+00 1.8972686523654090e+01 0 0 -1
149 2 1.1247314712377596e+01 2.4690576967044322e+00 1.2454344277765076e+01 -4 0 -1
270 2 -7.7697482062112488e-01 8.5093964477099160e+00 1.4949613944429368e+01 2 0 -1
463 1 3.0396470509146729e+00 7.0348230057652525e+00 7.1059832899795632e+00 2 0 0
449 2 6.4797933156941934e+00 5.9067924634470055e+00 7.0051354756347433e+00 -1 0 1
524 2 1.6802960463515841e+00 3.6641737304868620e+00 9.3492834433738530e+00 -2 0 -4
585 2 -2.4898801866071971e+00 7.4197234935904053e+00 1.3577446697512270e+01 -4 0 -4
523 1 2.2124284758117110e+00 3.7151078408872769e+00 1.0166263602060868e+01 -2 0 -4
658 1 3.4749368606420390e+00 1.8993120810658741e+00 1.4155514275513987e+01 -1 0 -2
312 2 6.4544168650105895e+00 7.6798500589030780e+00 9.9373242551018262e+00 0 0 -2
96 2 -2.8424098807475797e+00 5.6722804274084311e+00 8.5947187443757773e+00 -1 0 -1
441 2 1.1035268995291503e+00 4.5684421244124582e+00 1.1129528072016514e+01 -2 0 -1
151 1 9.1922074311264321e+00 2.1712814727318008e-02 1.1356856348110922e+00 3 0 0
781 1 -1.4923872535111125e+00 5.6268204714413121e+00 1.8520567582401650e+01 -2 0 -3
880 1 1.0536803571778156e+01 8.5171855946434905e-01 8.0827584363432088e+00 -3 0 2
626 2 1.2669997454989144e+00 3.1874241793656983e+00 1.5982162849684370e+01 0 0 -1
618 2 5.8876761870799523e+00 9.9238384364553784e+00 7.0375208890261707e+00 -2 0 -1
703 1 -3.4795848746918545e+00 4.2019217248240048e+00 1.2704863901718051e+01 -2 0 -1
382 1 8.6116227558827809e+00 4.4304791649328230e+00 1.7702544597467615e+01 -2 0 0
949 1 -3.7094621529445218e+00 -1.0443543703872029e+00 1.7616721299905553e+01 -1 0 1
993 2 1.2730046473195500e+01 -1.5977357280141651e+00 9.2213606628233844e+00 1 0 1
54 2 3.9341465622168590e+00 3.9093412414481534e+00 1.8222091226370804e+01 2 0 -1
503 2 3.0687072017933845e+00 -7.9228840921968469e-01 8.4501167447727905e+00 0 0 0
689 2 -7.5330943830506691e-01 3.5370176681565484e+00 4.3143493613223525e+00 -2 0 0
889 1 1.0743407521462592e+01 -1.4493649291934489e+00 6.3503978894107060e+00 -1 0 0
392 2 1.9774678068880069e-01 6.7840964352568456e+00 8.9242816665077012e+00 -1 0 -1
652 1 1.3002571448868331e+01 5.1849516249164429e+00 4.0053561313652892e+00 -2 0 0
52 1 4.1106426360677188e+00 3.1505344399116160e+00 1.7587456168350862e+01 2 0 -1
356 2 -3.0796876579171015e+00 3.9067577539733094e+00 1.5723135214057722e+01 -4 0 -3
477 2 9.3113924149631391e+00 1.7511069239435968e+00 9.6861204737742366e+00 -1 0 2
500 2 -2.0639379350886391e+00 3.2642417605184217e+00 1.0199810692839749e+01 1 0 0
289 1 4.2064348969848639e+00 9.4674951634433793e+00 3.0830533637508348e+00 0 0 3
111 2 2.2045538109620795e+00 -1.8579545611328148e+00 1.5477566641038061e+01 1 0 -4
621 2 5.3985807435953976e+00 8.6324700040176765e+00 2.1488302546996674e+00 -3 0 0
810 2 1.0508753164608766e+01 4.6282220036030202e+00 5.3355219355591039e+00 -4 0 -1
930 2 1.5244694595894750e+01 3.3012299324514212e+00 5.5226426915817699e+00 0 0 0
702 2 4.9372079063351872e+00 1.8100103306754622e-01 1.6095030100012622e+01 -3 0 -3
501 2 -2.3782076227220701e+00 3.4435931072465271e+00 1.1776491202762656e+01 1 0 0
625 1 2.0537914712921559e+00 3.6275422308492047e+00 1.5596736120374167e+01 0 0 -1
830 2 3.8845520555871769e+00 6.5759795148990765e+00 3.9047157582201524e+00 -3 0 0
101 2 4.7164264139885130e+00 5.1399654044344034e+00 1.0135519569468864e+01 -1 0 -1
384 2 8.6518604791919298e+00 4.4666414461054460e+00 1.8659979257674053e+01 -2 0 0
559 1 7.9776420811381357e+00 -1.4965092084049747e+00 6.9172532318630262e+00 -2 0 1
622 1 1.7660551593634604e+00 2.0036821690949136e+00 1.5266005933386422e+00 -2 0 -1
624 2 2.4285057356247304e+00 1.9297450254894022e+00 7.7839301949537865e-01 -2 0 -1
179 2 5.3941519243742562e+00 4.2710243896864188e+00 1.6663290539417915e+01 -3 0 -1
354 2 9.2579443436144011e+00 8.2160633779240158e+00 6.7331741696876435e+00 -1 0 0
407 2 6.3813481940766490e+00 -1.2634918354609423e+00 1.0058876719601734e+01 -2 0 -2
549 2 5.6005658640281695e+00 9.7314110737998778e+00 1.6896340333211775e+01 -3 0 -4
268 1 -1.6010181211194028e+00 8.7032839175740992e+00 1.4464639979024561e+01 2 0 -2
600 2 3.9081830196752820e-01 7.9551907626134888e-01 1.0896084984396653e+01 -3 0 1
49 1 8.8595474813565183e+00 4.3221135790557517e+00 7.7888880779136391e+00 -1 0 0
183 2 1.2370916591516625e+01 1.5089511239905127e+00 5.0204687899258138e+00 -1 0 0
464 2 3.9333258802660529e+00 6.7823649160198922e+00 7.4312129935011626e+00 2 0 0
393 2 1.5932574821093448e-01 6.1958001600111583e+00 1.0210306885673713e+01 -1 0 -1
368 2 -1.1330483881248621e-01 1.0006388146814592e+01 5.2065425806892822e+00 -1 0 0
66 2 7.1336960721929330e+00 2.1228522823363694e+00 8.5885518092286173e+00 -2 0 -3
135 2 6.8759146893595124e-01 3.8775438328870244e+00 7.3501894690257927e+00 1 0 -1
778 1 7.2731992454584251e+00 6.4849985268565842e+00 5.1574045156773529e+00 1 0 0
408 2 5.2841064326181648e+00 -1.2628901700789550e+00 8.9152579816648725e+00 -2 0 -2
598 1 -5.2433588690637967e-01 5.0195724272106501e-01 1.0883443938269796e+01 -3 0 1
120 2 4.8914777880121321e+00 2.8336553815313898e+00 7.4913794096973985e-01 -2 0 -2
858 2 -1.5581263066783242e+00 6.7808211583077824e+00 5.3211884572406003e+00 -1 0 -3
640 1 -2.0849647683247139e+00 8.2092264481432959e+00 1.1020539358388938e+01 4 0 -1
753 2 -5.0705443931395608e+00 4.0611864174646417e+00 1.6351130477374781e+01 0 0 2
527 2 4.5244713951788960e+00 -3.6911199604732992e-01 5.2897651803402734e+00 -2 0 0
119 2 5.9783229407163292e+00 3.4737560250364572e+00 1.6979967879754811e+00 -2 0 -2
525 2 3.2029713445739780e+00 3.8812678844172668e+00 9.9656217401450498e+00 -2 0 -4
495 2 1.5178193387124557e+00 6.3695191284866404e+00 7.1637006483329833e+00 -3 0 -2
787 1 8.5355918336783922e+00 9.4313912959796156e+00 1.9607594842906140e+00 -2 0 0
274 1 1.2757841562409144e+01 -4.2910805658227358e-01 1.0008196623762406e+00 2 0 0
212 2 1.0018466033087520e+01 -7.1262393839486293e-03 5.1668768963300531e+00 -5 0 -2
701 2 4.6558611723987271e+00 9.6408959253309057e-01 1.4750578590327223e+01 -3 0 -3
651 2 1.0842116886465893e+01 -1.9282066389430135e+00 3.6759128612423466e+00 -5 0 0
470 2 1.4627942427907916e+01 4.0815619853474123e+00 1.4050531279266112e+00 -7 0 -2
471 2 1.5848756430859567e+01 4.8672038716029773e+00 1.9476527621554081e+00 -6 0 -2
708 2 6.9251229664153158e-01 7.6788134880170240e+00 1.6244289595801714e+01 -1 0 -1
840 2 1.5178651432172696e+01 7.8581233174213025e+00 1.0141793587716290e+00 -1 0 -2
46 1 9.8708242492940386e+00 5.8273563808682445e+00 3.8905125319658240e+00 -3 0 0
992 2 1.4023889178379648e+01 -1.0041176740246567e+00 8.5950605170736321e+00 1 0 1
856 1 -6.2319437090139984e-01 6.8966809826218700e+00 5.1335884542462429e+00 -1 0 -3
627 2 2.5872010352287376e+00 2.9386247751880781e+00 1.5050023333754229e+01 0 0 -1
87 2 -6.4354919059203040e+00 -2.0111756621201904e+00 1.8689189096611369e+01 2 0 -3
869 2 1.1698073437902643e+01 4.5551315240485906e+00 7.1679699430344153e+00 1 0 0
16 1 3.6291419596045582e-01 5.3654215027369654e+00 1.4293492289474370e+01 0 0 1
178 1 5.7927514108403706e+00 4.7338164724033254e+00 1.5856883289615361e+01 -3 0 -1
974 2 1.0749791875642774e+01 1.7811153295132569e+00 1.4641023513030040e+01 -4 0 -2
118 1 5.3272262252121267e+00 3.7026952103827986e+00 1.0134707003813221e+00 -2 0 -2
922 1 3.4138647096615342e+00 8.4712240524595437e+00 1.4904392807346591e+01 -3 0 -3
623 2 1.7998520302132199e+00 2.9492421593618356e+00 1.8884735722718318e+00 -2 0 -1
1668 2 3.8007914724363756e+00 2.3758862101312390e+00 1.3333262986529983e+01 -1 1 -2
644 2 1.0694086860686205e+01 -4.7484866778627377e-01 1.1092104984673503e+01 -4 0 -3
699 2 1.2496007806214344e+01 9.2983447679254496e+00 1.4190210083421806e+00 2 0 4
698 2 1.2372766647646664e+01 7.7163614161846379e+00 1.3560588392888067e+00 2 0 4
239 2 5.0469336393276523e+00 3.8016173613705213e+00 1.2641119435259588e+01 0 0 0
716 2 5.7636344364781742e+00 5.8163499248657669e-01 3.0202283719791461e+00 1 0 2
717 2 6.7663600795487699e+00 9.3666334231358528e-01 4.1639683886011705e+00 1 0 2
240 2 5.6977974860640757e+00 2.4723997118847114e+00 1.2043575122142233e+01 0 0 0
904 1 2.7762610354734170e+00 7.8923029821513353e+00 1.8837437810548543e+01 -3 0 1
17 2 4.0649537310753914e-01 5.4682171487857785e+00 1.3321050824096590e+01 0 0 1
779 2 6.7293446929009795e+00 6.4464857878941224e+00 4.3426709028978490e+00 1 0 0
428 2 -6.0678926906843555e+00 8.3464079310922656e+00 1.8587962591829587e+01 0 0 -1
645 2 1.0419010525161720e+01 6.4875562729983915e-01 1.2153772073637542e+01 -4 0 -3
613 1 3.8796366479555586e+00 1.3279409053599651e+00 1.5515840760761618e-01 -2 0 0
246 2 1.2182710596035310e+01 9.1222535363811073e+00 1.3502322260742361e+01 -4 0 -4
238 1 4.8763934153077724e+00 3.0270739156919317e+00 1.2068771902835806e+01 0 0 0
522 2 6.8970787672768008e+00 1.4447660442843806e+00 6.5477152968020089e+00 -5 0 -2
715 1 6.7560765512915131e+00 6.8825490586802340e-01 3.2084705679926948e+00 1 0 2
115 1 1.2859662612641205e+01 2.5274111469820326e+00 1.1812884089334533e+01 -5 0 -5
426 2 1.3285531837475808e+01 2.2985503045817044e+00 1.1826276083001011e+00 -2 0 1
494 2 3.2881586896884141e-02 6.4763815180174831e+00 6.6036343228745338e+00 -3 0 -2
269 2 -1.3028506161972460e+00 9.3824119261343899e+00 1.3767015147627234e+01 2 0 -1
250 1 4.8400359347901798e+00 6.8460891106409569e+00 1.0681073357156086e+01 -3 0 2
933 2 -4.5788149731190408e-01 1.6357714806747712e+00 1.5686094016329111e+01 -2 0 -1
857 2 -4.5667498061988199e-01 7.8199728656213896e+00 4.9898374368103804e+00 -1 0 -3
868 1 1.2114352666661764e+01 4.5297048138762976e+00 8.0723510310231283e+00 1 0 0
177 2 5.4493121715555004e+00 -9.2494289053017908e-01 1.4242328394353535e+01 -5 0 1
18 2 1.1586515566757623e+00 4.8951882485021816e+00 1.4611830522477673e+01 0 0 1
762 2 5.7534109312746029e-01 -1.0768581602857690e+00 1.8763102245356958e+01 -3 0 1
434 2 1.0759907017311157e+01 6.6855048499160112e+00 1.6168402511473573e+01 -2 0 0
785 2 1.1947945925322561e+00 -3.8780404964434223e-01 3.3085493291938777e+00 -3 0 -2
870 2 1.2934491253977168e+01 5.0507129707816842e+00 8.0282866797099057e+00 1 0 0
211 1 1.0106751500829731e+01 9.3319954076728262e-01 5.3431034952090055e+00 -5 0 -2
387 2 2.0012230051198556e+00 2.6547310725498994e+00 5.4801095214881395e+00 0 0 -2
963 2 1.6345598221412896e+00 -2.1349006547729488e-01 1.4257608928995046e+01 -3 0 -1
643 1 1.0429019009547048e+01 -3.1203645953444115e-01 1.2006975447199190e+01 -4 0 -3
457 1 1.7176874785499169e+01 1.3959710553021605e+00 6.9570017963571829e-01 -3 0 -2
279 2 7.1347149474631486e+00 8.1229670004664314e+00 6.2934175087767095e+00 -4 0 -1
505 1 1.0646281246788448e+01 9.2986637605624143e+00 3.7210075417579862e+00 -4 0 -2
116 2 1.3520338534090069e+01 1.8739289486971380e+00 1.2199505077815637e+01 -5 0 -5
224 2 -1.0895953366906612e+00 5.1227848484000349e+00 1.5204342320757913e+01 -2 0 -2
335 2 1.1320317206872419e+01 7.3895454424581803e+00 6.1306172575336220e+00 -2 0 -2
48 2 9.9919621055758459e+00 6.7097316561575173e+00 3.4580855993564428e+00 -3 0 0
117 2 1.3367612812583452e+01 3.3782896048171311e+00 1.2101786873739711e+01 -5 0 -5
931 1 -8.1536180636888389e-02 2.3221211929159784e+00 1.6276877554160304e+01 -2 0 -1
429 2 1.3949017395851595e+00 8.5161203775473027e+00 9.3893390652666253e-01 0 0 0
385 1 1.5487743366469586e+00 1.8072872341410959e+00 5.6492861729941248e+00 0 0 -2
921 2 1.0333068013403157e+01 -1.7019757563858779e+00 9.5826093991722008e+00 0 0 -2
961 1 1.3923880233312875e+00 2.2670892135865861e-01 1.3439187245402573e+01 -3 0 -1
42 2 5.7044381452785897e+00 4.0413957334001118e+00 6.0078769060206518e+00 -2 0 3
726 2 1.3676035615447995e+01 1.3888759883859643e+00 8.1357438835886082e+00 1 0 1
844 1 7.5341651485831180e+00 -6.9092453847680968e-01 1.1657516536247673e+01 1 0 1
962 2 1.7095951803395488e+00 -3.8398148878266469e-01 1.2777318175584458e+01 -3 0 -1
1002 2 1.0256135692220059e+01 1.0072680927555400e+00 2.0569896198364082e+00 -1 0 1
841 1 -9.2401727702786207e-01 -1.7335652385701747e+00 1.6148858027459266e+01 -5 0 -5
905 2 9.3537049034689996e+00 8.5551902464008212e+00 4.5096276610982977e-01 -3 0 2
41 2 5.9834993757232917e+00 3.6754371342615366e+00 4.5487573719412344e+00 -2 0 3
164 2 8.4269661693228635e+00 9.2892142028737474e+00 1.4554884368448523e+01 2 0 1
812 2 1.1656677282055345e+01 7.1565110816190511e+00 1.2834209986770484e+01 -2 0 -1
932 2 -7.5023850217520760e-01 3.0532155431368970e+00 1.6208741160825639e+01 -2 0 -1
276 2 1.2725484719180153e+01 3.0284416375719658e-01 3.5281563415037259e-01 2 0 0
213 2 9.1285169216056001e+00 1.1650861735332572e+00 5.4703447485051653e+00 -5 0 -2
215 2 6.6800905485779483e-01 8.7688972537148775e+00 3.1126822232034859e+00 0 0 -2
459 2 1.4409651142328772e-01 1.6351481545436557e+00 1.0714591702626561e+00 -2 0 -2
338 2 5.7234710116771943e+00 6.8014965350072885e+00 2.4417566078385029e+00 -1 0 -1
805 1 1.3281158631281578e+01 9.4806575518452334e+00 7.0802288880931421e+00 -4 0 1
969 2 2.4848617211628392e+00 1.8240326513576952e+00 1.0851150570890555e+01 -1 0 1
545 2 -1.8510570944571900e+00 2.8929137467877908e-01 1.3868623382285003e+01 2 0 1
386 2 1.5163773873054200e+00 1.4131720572798843e+00 4.7694913583739513e+00 0 0 -2
163 1 7.6458213213083370e+00 8.9604781078894522e+00 1.5000063417988740e+01 2 0 0
40 1 5.4304293814947373e+00 3.3804841280401590e+00 5.2692890401040300e+00 -2 0 3
786 2 1.7589190001443917e+00 1.0967702678958253e+00 2.7037071522571852e+00 -3 0 -2
504 2 4.0005661471867633e+00 1.6272656330944191e-01 7.7265118098129131e+00 0 0 -1
724 1 1.4234762518840242e+01 7.0696706723727853e-01 7.6829072037086670e+00 1 0 1
784 1 1.8293683992224279e+00 3.5888007469651839e-01 3.4227071188025158e+00 -3 0 -2
967 1 2.4400841674637768e+00 8.6471534340927336e-01 1.0727748554733596e+01 -1 0 1
553 1 1.0386217222203847e+01 2.7371153232817695e+00 1.7491630315674765e+01 -5 0 -2
681 2 7.0147995934208716e+00 3.3545552250403192e+00 1.5018978166352811e+01 -3 0 -3
970 1 -1.1822991017907194e+00 9.5910277532515149e+00 1.8321336507435561e+01 0 0 0
590 2 -1.1107966064799353e+00 9.6657803293617626e+00 1.1574102156483697e+01 -4 0 -1
51 2 7.9410707245806353e+00 4.6999571513696594e+00 7.5838782750141105e+00 -1 0 0
36 2 1.6133158268754762e+01 1.8137587413402687e+00 3.9824957120222204e+00 -2 0 0
945 2 3.8242193040125816e+00 3.6951511190192985e+00 4.7827477604287614e+00 0 0 3
673 1 -4.1218070252996277e+00 6.0348140021745333e+00 1.9019011827687358e+01 0 0 -4
165 2 6.8810549950063571e+00 9.0369058521238497e+00 1.4375495416288592e+01 2 0 0
397 1 1.4888648645186361e+01 6.3450436585319707e+00 5.7529517971617210e+00 2 0 0
127 1 1.2768153633533636e+01 6.0082332056307184e+00 1.4122621312610266e+00 -2 0 -1
128 2 1.2940856641578938e+01 5.6977729021890378e+00 2.3404738169587493e+00 -2 0 -1
1407 2 1.4077205944347609e+01 6.8883221069565348e+00 5.5493060165552830e+00 2 0 0
34 1 1.5700004406304043e+01 1.3707277005956775e+00 3.2132597440447279e+00 -2 0 0
928 1 1.4559532749646849e+01 3.5969737869655356e+00 6.1699981275635274e+00 0 0 0
777 2 2.9673254201902965e+00 -5.7749865095823338e-01 1.6949298357807322e+01 -2 0 1
152 2 8.3081330537384463e+00 4.3110355946318535e-01 1.0658610629813745e+00 3 0 0
439 1 3.6893007107445808e-01 5.0209219875472053e+00 1.1610130763751446e+01 -2 0 -2
350 2 6.8203196184672787e+00 1.9142230718393978e+00 1.7973617729741253e+01 2 0 3
255 2 1.0487078411197650e+01 8.8404597976838222e+00 1.7043932311770270e+01 -3 0 -3
839 2 7.8469666229351995e+00 8.9803516979879099e+00 1.9025888166762318e+01 -1 0 -3
783 2 -1.2838147556335615e+00 4.8235768597417001e+00 1.9001094201850304e+01 -2 0 -3
148 1 1.0401464877593181e+01 2.3973100427674110e+00 1.2973724940093586e+01 -4 0 -1
994 1 9.5462445805227159e+00 6.3200018444835226e+00 9.2905664102377159e+00 3 0 1
725 2 1.5152070166244894e+01 1.0223507366870868e+00 7.9505569870287989e+00 1 0 1
561 2 7.6805007056098091e+00 -1.1499762718260196e+00 7.8453890414547240e+00 -2 0 1
129 2 1.3622736882464849e+01 6.2866885803404067e+00 9.8713345758226412e-01 -2 0 -1
670 1 -1.1070622096207681e+00 4.7461656191112800e-01 8.1876126440615060e+00 -3 0 -1
173 2 7.3875454141253076e+00 2.2936396106390795e+00 1.3041469180260991e+01 -1 0 -2
1664 2 4.3063412820846940e+00 8.1762139672977163e+00 1.7798661126364781e+01 -3 1 -1
176 2 4.9667409098167710e+00 -1.5593343939492974e+00 1.2854025994159532e+01 -5 0 1
697 1 1.1863650782886470e+01 8.5659796624334206e+00 1.3450680676816513e+00 2 0 4
462 2 1.1066581586155214e+01 6.8213005535831712e+00 1.0171170479950881e+01 -4 0 -2
231 2 1.4378360058458263e+01 -7.8786658474228299e-01 8.3536177456276461e-01 -1 0 -2
996 2 8.9830620542571484e+00 6.4750359881166428e+00 1.0058726406616975e+01 3 0 1
611 2 1.2399573008083200e+01 3.2217382655451923e+00 8.5263091368114790e+00 -1 0 2
29 2 -2.3432812196912067e+00 9.6807704893279780e+00 1.5680791718148861e+01 -2 0 -4
750 2 5.5085679863074546e+00 7.9144626148638224e+00 1.2705442415080382e+01 -3 0 1
749 2 4.6362236005213209e+00 8.4694467304240071e+00 1.3693806175780676e+01 -3 0 1
102 2 5.1055133126626746e+00 3.6990523720183033e+00 1.0391056989422063e+01 -1 0 -1
497 2 4.4944844559729304e+00 1.9072977973432383e+00 5.8972358021313545e+00 0 0 1
498 2 3.0741364343987012e+00 1.1746490145746447e+00 5.9956882864793508e+00 0 0 1
395 2 9.7145675308988437e+00 4.2330733293461469e+00 1.1356230068996764e+00 -3 0 -3
924 2 2.4440855044754244e+00 8.2971462081152367e+00 1.5069209170517716e+01 -3 0 -3
349 1 6.1424533239862713e+00 1.7575626320161755e+00 1.8632636694454128e+01 2 0 3
679 1 7.7509144934174241e+00 2.9178643693812534e+00 1.4513991157424307e+01 -3 0 -3
398 2 1.4572519907191319e+01 5.4585023747860157e+00 5.6846222346349649e+00 2 0 0
671 2 -9.6361232259560725e-01 -4.1548075472849710e-01 7.8072734574863487e+00 -3 0 -1
635 2 2.5422812822714542e+00 8.7433330163835521e+00 1.1244975509962840e+01 1 0 -2
321 2 1.0674182769040506e+01 -4.7384353048353844e-01 1.4853498464853303e+01 -4 0 -3
943 1 2.8637812863411614e+00 3.9086053331070234e+00 4.6844775044763436e+00 0 0 3
277 1 7.3078006756804736e+00 8.8580612569368551e+00 6.9206794611403923e+00 -4 0 -1
672 2 -7.8027816592369392e-01 3.8960953401618204e-01 9.1380361728008008e+00 -3 0 -1
220 1 3.8554327903007124e-01 7.4591864409631814e+00 1.7797182819481584e+01 -2 0 -3
172 1 7.2330690405842981e+00 1.9140107544838831e+00 1.2186942125695541e+01 -1 0 -2
298 1 -4.1372225630384492e+00 8.1657067692066976e-01 1.5537593328793591e+01 -2 0 -2
680 2 7.9401085559726043e+00 2.0810754466447028e+00 1.5046322561333222e+01 -3 0 -3
831 2 3.0655262197578423e+00 7.0797433018022087e+00 5.2093396746598444e+00 -3 0 0
229 1 1.5173804702084977e+01 -1.2570557341774458e+00 7.4680283263032188e-01 -1 0 -2
944 2 2.7440358908568889e+00 4.8276038860788617e+00 4.9520486338652194e+00 0 0 3
100 1 4.8775667282790440e+00 4.3380643933089820e+00 9.6479065303806593e+00 -1 0 -1
1667 2 2.8014247382369604e+00 1.2491027084199633e+00 1.3779107372118903e+01 -1 1 -2
352 1 9.9391384136777692e+00 7.5906226281332891e+00 6.9687637267936857e+00 -1 0 0
174 2 7.3040360310153165e+00 9.3933884855920446e-01 1.2304617769450807e+01 -1 0 -2
388 1 1.5352270660473554e+01 -1.0895014711857378e+00 4.3346445589030660e+00 -1 0 0
465 2 2.9696843700574704e+00 8.0606724099571512e+00 7.3602897062857684e+00 2 0 0
5 2 2.7455394227585734e+00 9.2495575808405128e+00 8.9019633348902509e+00 1 0 0
460 1 1.1559160020672380e+01 7.3279220949030481e+00 1.0830624032730272e+01 -4 0 -2
607 1 4.4090188451487897e+00 5.6406184464901976e-02 2.3002578373081231e+00 -3 0 0
838 1 1.4946388933710551e+01 8.0660386816610092e+00 1.7220834553281269e-02 -1 0 -2
433 1 1.1145465973952815e+01 6.0934469562024951e+00 1.5515316001749230e+01 -2 0 0
320 2 1.0880328209750619e+01 -1.3287046513787453e+00 1.3524140774144962e+01 -4 0 -3
595 1 -5.9705189534735170e-01 4.9058164981200445e+00 3.2821380025880256e+00 3 0 -2
520 1 7.2470134138628639e+00 8.9913222823906791e-01 5.7867902245180067e+00 -5 0 -2
109 1 1.6672336005401753e+00 -1.0365717566534625e+00 1.5716596841346684e+01 1 0 -4
615 2 -2.8303998328202797e+00 6.5772740410514308e-01 1.8522347033706776e+01 -2 0 -1
251 2 4.8653220283327006e+00 6.3653808863025940e+00 1.1522288189515058e+01 -3 0 1
461 2 1.2049735632787996e+01 7.9999381013819431e+00 1.0396861768828513e+01 -4 0 -2
599 2 -1.0159873563517370e+00 1.3605546708662497e+00 1.1003463453856835e+01 -3 0 1
760 1 6.1067439809830226e-01 -2.0554277803280780e+00 1.8953015242298328e+01 -3 0 1
367 1 -5.4745612788353726e-01 9.6934711535501918e+00 4.3653726577084351e+00 -1 0 0
182 2 1.1665239775190587e+01 2.8295368011874436e+00 5.3868417813258667e+00 -1 0 0
35 2 1.4967601263383836e+01 1.7925284313247696e+00 2.7545778093943531e+00 -2 0 0
230 2 1.5798995593653409e+01 -5.5309297919961065e-01 5.3052055400252907e-01 -1 0 -2
99 2 9.8828672018637569e+00 8.7216953724829640e+00 1.1283874052997295e+01 0 0 -1
475 1 8.4842763855324801e+00 2.2306885590404617e+00 9.7825972155834702e+00 -1 0 2
68 2 7.5867450101212039e+00 7.5337950494249686e+00 1.6401528715904085e+01 -4 0 -3
526 1 4.6245855558679372e+00 -1.3701802376090586e+00 5.1104730111712220e+00 -2 0 0
133 1 5.3468186322717060e-01 3.2731822406189570e+00 8.0824592914113556e+00 1 0 -1
610 1 1.2438981694277285e+01 2.2933420398250757e+00 8.9496805019742354e+00 -1 0 2
675 2 -4.4905316669552420e+00 6.9538062083071139e+00 1.9078012941361937e+01 0 0 -4
271 1 -1.2646790478821728e+00 -2.0070441988840146e+00 6.9090457175861761e+00 0 0 -2
300 2 -3.8579761758452173e+00 1.4755757446482498e-01 1.6167857359622769e+01 -2 0 -2
214 1 1.4370675304140530e+00 8.4698820644111219e+00 2.6491311717875270e+00 0 0 -2
782 2 -2.3969076493541168e+00 5.8852558995351147e+00 1.8803434842454212e+01 -2 0 -3
690 2 -2.0411379380390904e-01 2.4989981348483141e+00 5.3353117866955557e+00 -2 0 0
649 1 1.0136265044256529e+01 -1.2977888892181850e+00 3.3768356964117823e+00 -4 0 0
728 2 7.9769143690402551e+00 7.2570397937378797e+00 1.2261443919109695e+01 0 0 1
113 2 8.0998960691456823e+00 3.1843258854789891e-01 1.6760599394553271e+01 -2 0 -1
829 1 2.9882056303236979e+00 6.5768391211083976e+00 4.3658194858004871e+00 -3 0 0
184 1 4.6120693630309910e+00 -1.9991126877291412e+00 4.0589652916061003e-01 -4 0 -6
222 2 -8.0188788509008013e-02 8.3021416552025684e+00 1.7943843666155047e+01 -2 0 -3
406 1 6.1455504141447168e+00 -1.6886206399449766e+00 9.2313264007812332e+00 -2 0 -2
67 1 7.4594119763957352e+00 6.8451225893720800e+00 1.7045280573552983e+01 -4 0 -3
727 1 7.9496636067350055e+00 6.3147901023037640e+00 1.2186068457760681e+01 0 0 1
114 2 6.8215500225940948e+00 7.7084283477376525e-01 1.5996254477716244e+01 -2 0 -1
425 2 1.2989542564252512e+01 2.5507191291616644e+00 2.6824359312452106e+00 -2 0 1
544 1 -1.0959834891343512e+00 4.1427550112956846e-01 1.4531741143257076e+01 2 0 1
278 2 7.2170074128179067e+00 8.4152884863225506e+00 7.8440079186799467e+00 -4 0 -1
1001 2 1.0907901306513420e+01 1.5466959289106792e+00 3.3907069456112100e+00 -1 0 1
496 1 4.0177790653125944e+00 1.1158665829823300e+00 6.2322869006657093e+00 0 0 1
655 1 4.8785354063529835e+00 8.1796287948249766e+00 1.7023755661921619e+01 -3 0 -1
337 1 5.2433283969052553e+00 6.1413407342855102e+00 2.9638415289378677e+00 -1 0 -1
714 2 -1.0523962908955298e+00 -1.0907341849895382e+00 1.1275921708983091e+01 0 0 3
221 2 -2.4839309152714950e-01 6.8093967541287981e+00 1.8280877725491795e+01 -2 0 -3
502 1 3.9236161550474398e+00 -2.8595310478598357e-01 8.5883184971793067e+00 0 0 -1
583 1 -2.9453549947092377e+00 6.6851313420873559e+00 1.3167150769432070e+01 -4 0 -4
584 2 -3.9442295148543480e+00 6.8550134150959359e+00 1.3329453518136477e+01 -4 0 -4
641 2 -2.4848897367687162e+00 7.4815978432174362e+00 1.1556433916612052e+01 4 0 -1
110 2 7.2634092126643246e-01 -1.3786849639343490e+00 1.5911822940076856e+01 1 0 -4
389 2 1.4489092670717154e+01 -6.6351719875420612e-01 4.4786935100209790e+00 -1 0 0
47 2 9.8856736214943624e+00 5.1666417279202177e+00 3.1415951080927136e+00 -3 0 0
207 2 3.7561491649071259e+00 -3.1401932428693957e-01 1.1492904446001836e+01 3 0 0
808 1 1.0604097358386953e+01 3.9028502368112372e+00 6.0264215024245642e+00 -4 0 -1
972 2 5.5617252287746162e+00 9.0706077625434283e+00 1.0033039643372450e-01 0 0 1
577 1 5.6393580138443040e+00 5.6529788087807189e+00 1.3116390480524524e+01 0 0 0
336 2 1.1823819428370141e+01 8.0272560113987819e+00 4.8441815261658636e+00 -2 0 -2
1000 1 1.0838121163276531e+01 1.7562744350747672e+00 2.4310677624792176e+00 -1 0 1
294 2 -2.4404013084793532e+00 3.5200387046291590e+00 7.7766887037554167e+00 1 0 -3
390 2 1.5597988279860889e+01 -3.1948618078268032e-01 3.7903655965940386e+00 -1 0 0
937 1 1.4875186423092483e+01 1.0191025168988320e+01 4.4146938384158192e+00 1 0 2
521 2 7.3172950623740789e+00 -4.1037585754754247e-02 6.0449442036508838e+00 -5 0 -2
813 2 1.1964173216334370e+01 6.8780437086113260e+00 1.4324312423474160e+01 -2 0 -1
912 2 1.2200319052615383e+01 -4.7570840351274080e-01 5.5997123717341202e+00 -2 0 1
636 2 1.6978695047406824e+00 7.8969877938846924e+00 1.0225622210426641e+01 1 0 -2
160 1 1.4538231161982603e+01 9.9067587735581331e+00 9.4834268644208084e+00 0 0 -5
620 2 6.9871992709208151e+00 8.7098146502776110e+00 1.7451224886447938e+00 -3 0 0
950 2 -4.4879082099409953e+00 -1.2397102398450639e+00 1.8159247925181866e+01 -1 0 1
809 2 9.9891972844793600e+00 3.9684024265879456e+00 6.7952140544802164e+00 -4 0 -1
866 2 5.9685090965542997e-01 1.0350914366215522e+00 1.7745661527421056e+01 -3 0 -1
94 1 1.4395780768531722e+01 6.2910328851867110e+00 8.3384560014449374e+00 -2 0 -1
225 2 -1.5296559422610452e+00 5.2518774518507234e+00 1.6797572647373631e+01 -2 0 -2
162 2 1.3665320520513847e+01 1.0041671460418190e+01 9.8650991997497215e+00 0 0 -5
123 2 8.9638208115446751e+00 4.1644006530532565e+00 1.4463060041449738e+01 -2 0 -1
440 2 -3.7820336142420219e-01 4.3842653671052521e+00 1.1454586376754026e+01 -2 0 -2
383 2 8.7220007791193943e+00 5.3169533466095187e+00 1.7400298452999152e+01 -2 0 0
619 1 6.0976443079988316e+00 8.2657422553652395e+00 1.4997412480609453e+00 -3 0 0
499 1 -1.7428681981321668e+00 3.0942685019318068e+00 1.1166253914974989e+01 1 0 1
910 1 1.3051748156562704e+01 -9.1845871019284653e-02 5.3649776249664365e+00 -2 0 1
546 2 -2.8328454821715443e-01 3.4885105098368197e-01 1.3916154833712660e+01 2 0 1
511 1 7.7334342259411031e+00 -1.6065965493021794e+00 1.7357426933455610e+01 1 0 0
729 2 8.5131678765015071e+00 5.8793583370867966e+00 1.2896747385333969e+01 0 0 1
612 2 1.2417241990545325e+01 2.3182713857242732e+00 9.9001223597741799e+00 -1 0 1
674 2 -4.6285293036386008e+00 5.4954055560704136e+00 1.8340068485596472e+01 0 0 -4
121 1 9.3209773360029189e+00 4.9649614914836553e+00 1.3935284680824514e+01 -2 0 -1
911 2 1.3562353356391533e+01 1.8965706152723705e-01 6.1973200529021000e+00 -2 0 1
424 1 1.3682700264304435e+01 2.5537729369534068e+00 2.0270348209135376e+00 -2 0 1
811 1 1.2234169496710942e+01 7.4015430336544430e+00 1.3517024260163357e+01 -2 0 -1