LAMMPS data file via write_data, version 3 Mar 2020, timestep = 77600000

2016 atoms
2 atom types

0.0000000000000000e+00 1.7941434464584560e+01 xlo xhi
1.4479236395685646e-01 4.4851367612908568e+01 ylo yhi
0.0000000000000000e+00 1.9080317155454047e+01 zlo zhi
4.2242051661660118e-02 -6.6745385909493322e+00 -2.2702671437514255e-02 xy xz yz

Masses

1 16
2 2

Atoms # atomic

968 2 9.9693620293346932e+00 8.5603671076257157e+00 8.9446196719657678e-01 -3 0 -1
1517 2 1.5224656644335987e+01 2.3797987237954574e-01 6.0230720534706315e+00 -3 0 -1
1456 1 5.7496625510630892e+00 7.4777086967363484e+00 6.2907668784676991e+00 0 1 1
258 2 5.4778454517276156e+00 4.4654543687885644e+00 6.7567388877238539e+00 0 0 -1
534 2 1.2049665001031116e+01 1.8432749873632437e+00 8.4942157037068977e+00 -1 0 0
898 1 4.4011216688238735e+00 1.0516474620290589e+01 1.7978159881757513e+01 0 0 3
1149 2 7.8712987889136965e+00 1.4500287060213539e+00 1.1144847830138769e+01 -3 0 -2
43 1 1.1655718688117988e+01 5.4300441207006047e+00 8.6565982462143010e-01 -1 0 0
1126 1 1.7356909518029475e+00 2.1369172503613836e+00 1.3183749748562104e+01 0 0 -1
42 2 4.1142920965373939e+00 2.8299119801182360e+00 1.4463479146577487e+01 -2 0 4
798 2 -1.7676749341834839e+00 7.2916049279121928e+00 1.3412364655504835e+01 -4 0 0
868 1 -1.2289858693184468e+00 8.9346701396463502e+00 6.1373096485492340e+00 1 0 0
1056 2 -4.4287531183793105e-01 4.6890240874190390e+00 1.4637593811064400e+00 -1 0 1
782 2 -4.0977981798677154e+00 8.0700250025941500e+00 1.2498643730184948e+01 -3 0 -2
974 2 -5.2638377680391732e+00 2.1922951856465849e+00 1.6718289571951455e+01 -1 0 -1
611 2 2.8052410246174864e+00 8.6881463558603205e+00 8.4684710161686443e+00 0 0 4
954 2 8.7000736640940577e+00 6.8484087336750381e+00 1.7009834639028117e+01 -1 0 -2
281 2 1.1740289142743121e-01 6.3483359351030293e+00 4.6815002228494231e+00 -4 0 3
685 1 1.6630654209691109e+01 1.0269397311800179e+00 2.7694862354971739e+00 -4 0 2
695 2 3.1646164631161895e+00 7.2813853164248830e+00 1.8152142183679622e+01 0 0 1
45 2 1.0733272483495526e+01 5.1715868763047608e+00 1.1056048583760922e+00 -1 0 0
1866 2 1.4619524399059316e+01 6.5836923763199806e+00 5.2773474821265243e+00 0 1 0
56 2 6.4019612679627027e+00 7.1708314276500236e+00 8.9359794641962615e+00 -3 0 2
624 2 2.2948141247326928e+00 3.5500564242190840e+00 1.0881198226039205e+01 -2 0 -2
1616 2 1.1698122219260904e+01 5.3805936780549004e+00 1.6897961818528874e+01 0 0 -2
257 2 6.6235782089650925e+00 4.6957468215410092e+00 7.8233223454901468e+00 0 0 -1
711 2 -1.9268011626653885e+00 5.3301823390666792e-01 1.5690159833140468e+01 1 0 -1
922 1 4.2817419146695128e+00 3.0673583185894602e+00 1.7948795160834049e+01 -6 0 -4
58 1 -1.2606733527089229e+00 1.0295544245079212e+01 8.5531155837960320e+00 -3 0 -1
280 1 1.7076689982265236e-01 6.8789767182460100e+00 3.8292320199446528e+00 -4 0 3
555 2 5.4954300109695824e+00 7.4677631809317404e+00 1.2900025155547169e+01 -4 0 -1
841 1 -3.3982896077507134e+00 5.7040579030601393e+00 1.5742573604203395e+01 -4 0 -4
41 2 3.5951705338763436e+00 4.0772736531319476e+00 1.3601772758647220e+01 -2 0 4
833 2 1.1080646020264250e+01 8.4247644687585144e+00 8.8940333982582604e+00 -2 0 1
741 2 8.9614871446871938e+00 6.4869667891047991e+00 8.5571734392598198e-01 -2 0 2
484 1 1.0387020101452638e+01 9.1122086093084462e+00 6.0871521795095473e+00 3 0 2
631 1 1.4915403061812839e+01 6.7622964723670673e+00 1.4162979273715326e+00 -4 0 -1
524 2 1.5378967771307600e+01 4.0870022415436988e+00 4.3510786201785061e+00 -1 0 -5
851 2 -1.5228157306006160e+00 2.2271176045395138e+00 7.2254345008672534e+00 4 0 1
1054 1 1.5058095990019915e-01 5.4422990259025221e+00 1.6072473364989348e+00 -1 0 1
1996 1 8.5666161466038826e+00 5.2062920372550083e+00 1.0696897074690099e+01 -2 1 2
820 1 1.7204850396941183e+00 9.0848312782501139e+00 1.3101309822024135e+01 -3 0 -2
384 2 1.1765165830149188e+01 9.1085759108616937e+00 1.3205073209335767e+01 0 0 3
1503 2 -4.0381006660995356e+00 1.0189300941945181e+00 1.3009603619327669e+01 2 1 2
289 1 1.6381984713358115e+01 3.4433058917948975e+00 1.0895587547166594e+00 -2 0 2
1437 2 1.0829654087927235e+01 1.1013986665643296e+01 1.6230666118745855e+01 0 1 1
1599 2 1.1138312227457757e+01 5.8746481843112894e+00 1.2595773515278376e+01 1 0 2
1940 2 2.1481464931411445e+00 4.3452549536393681e+00 1.6582590907905988e+01 1 1 1
290 2 1.5453525206132181e+01 3.6863079533601639e+00 1.2024993713991325e+00 -2 0 2
848 2 7.2906366395482269e+00 2.0542094515320990e+00 5.7122467753193060e+00 0 0 0
577 1 5.2489663784739999e+00 5.6202553667156527e+00 1.5603294572485083e+01 2 0 -1
231 2 -9.1482828272588890e-01 1.9872005589181068e+00 1.1324349938902948e+01 -3 0 -4
191 2 5.0166391710723763e+00 6.3365831899246610e+00 1.7033278579330577e+01 -3 0 -7
86 2 1.0678120146060195e+01 2.5217631704356211e+00 5.4525674649860723e-01 1 0 -1
1865 2 1.4948832620734645e+01 6.4021789073404562e+00 6.7721647391723252e+00 0 1 0
504 2 6.1389791695715896e+00 9.2364488815344039e+00 1.9006911379160563e+01 -2 0 -2
294 2 2.0782337993970463e+00 1.2002600992003423e+00 2.1064104556965364e+00 0 0 -1
1096 1 1.2200128999603047e+01 7.4900033198225646e+00 2.5089098168138104e+00 1 0 2
306 2 1.3460972965533246e+01 2.7604586104873232e+00 1.1048938320747137e+01 1 0 -5
934 1 -3.8776531366157281e+00 6.7382232936558522e+00 1.8349961004722065e+01 -1 0 -2
434 2 9.5145481538920844e+00 8.0814761631300520e+00 1.2619536088826370e+01 -3 0 2
590 2 1.4320157136258500e+01 4.3616883038625271e+00 7.0867015929182298e+00 -6 0 -1
1855 1 1.3188771420227596e+01 1.0480598098188368e+01 1.0490018771811545e+01 -1 1 1
446 2 1.0536720910368931e+01 3.7493710788687480e+00 1.6159865584455716e+01 0 0 0
510 2 -4.3518944486221578e-01 6.4887372693889400e+00 1.6846700458254940e+01 -3 0 -3
479 2 -3.2516173060222116e+00 3.5368112043072242e+00 1.3561467845333235e+01 -4 0 -6
641 2 4.2474977959967042e-01 7.9135054954190958e+00 8.9967069621818307e+00 3 0 0
567 2 9.4963172394287856e+00 4.9611460714027800e+00 6.2212317649219546e+00 -2 0 0
116 2 1.0926208042249804e+01 7.2215878156675721e+00 1.0748717902716953e+01 -3 0 -2
787 1 3.0821427784490627e+00 4.8572395085449189e+00 4.5947562411576026e+00 -1 0 -1
352 1 1.0207081329503959e+01 3.9599875767737718e+00 7.4990993784687969e+00 -2 0 -2
345 2 2.9809196711193908e+00 1.5209763207961864e+00 8.5595769328407627e+00 -1 0 2
1664 2 4.2766001872134769e+00 9.2593185892089132e+00 1.1896304935312047e+01 -3 1 -3
1877 2 4.7979891128548671e+00 2.7290265653198587e+00 6.8480581425970799e-01 -2 1 -1
335 2 4.5608446213280835e+00 1.0067773822191551e+01 2.2325200975215544e+00 0 0 0
1098 2 1.1815585891941184e+01 8.2618447324198581e+00 2.0709993279898278e+00 1 0 2
1502 2 1.2216484798633939e+01 1.4136509169670459e+00 1.2809540481013066e+01 1 1 2
82 1 8.9257486210071253e+00 5.4725949684286013e+00 1.8265865802112085e+01 -1 0 -6
1913 2 4.0644444118650771e+00 2.8135429390925304e+00 6.9031029005442335e+00 3 1 -1
797 2 -2.8518706282404387e+00 6.5091254323909125e+00 1.4221475344484240e+01 -4 0 0
708 2 1.1413784934527204e+01 3.4312576047344368e-01 1.5759867702536470e+01 -3 0 -3
919 1 -1.8870495397430558e+00 1.2070854600356771e+00 1.8994531608185639e+01 3 0 -1
302 2 9.5718137577810385e+00 2.1679983013758410e+00 1.7030570605509787e+01 1 0 1
1041 2 -5.7867956304194301e-01 5.8173728069223127e+00 1.4801626464663046e+01 0 0 -1
864 2 -7.9204222955517345e-01 4.6926509728966703e+00 1.7913618873444392e+01 -3 0 -3
867 2 -5.0727763855555512e+00 9.6743737397326885e+00 1.5502790103842225e+01 -4 0 -3
883 1 4.0631798099005643e+00 1.0440113891061186e+01 1.0701993529694423e+01 1 0 0
969 2 1.0653451129764047e+01 9.7840726142599426e+00 5.2434915412105709e-01 -3 0 -1
424 1 6.9018563743465782e+00 1.7224693964961710e+00 1.5469566618232275e+01 2 0 1
1941 2 1.8580013265110358e+00 5.3142976641122797e+00 1.7789154249281324e+01 1 1 1
463 1 7.4140571474328576e+00 9.5187953059300838e+00 1.0954962768894804e+01 1 0 -1
40 1 4.4384431532535986e+00 3.6758758361920805e+00 1.3944940786366709e+01 -2 0 4
1648 1 1.0123913479497264e+00 1.4978768266718481e+00 5.4764975608667932e+00 0 0 0
925 1 -3.0138953459889630e+00 5.5651195864247267e+00 1.1080172744668170e+01 3 0 2
1439 2 6.0869694628761600e-02 6.8689142686956801e+00 5.5683622423632040e-01 1 1 -1
282 2 1.9141096195471619e-01 6.2168922254922148e+00 3.0461948934103740e+00 -4 0 3
802 1 7.7364622555710572e+00 3.2961032062733291e+00 8.2274364949161001e+00 -1 0 -3
480 2 -1.7393198295003125e+00 3.7363830875767969e+00 1.3656976577516787e+01 -4 0 -6
1914 2 -3.5304221334706165e-01 5.9391487505583136e+00 6.9950966592149380e+00 -2 0 3
151 1 6.6252616950872509e+00 4.3051092867648206e+00 1.7560743866186787e+01 2 0 -1
304 1 1.3359513751698502e+01 3.5135170151724013e+00 1.0485534759522617e+01 1 0 -5
808 1 -4.5497610886271964e+00 3.2298597405460190e+00 1.8203210916016971e+01 -4 0 -1
581 2 -1.4791733384055619e+00 2.9178639750957989e+00 9.1797628129801243e+00 -1 0 0
1127 2 1.4831992417357274e+00 2.5224523810333439e+00 1.2315165841629728e+01 0 0 -1
499 1 1.0505069550303478e+01 1.0927179081893903e+00 9.3148965873261229e+00 0 0 0
1489 1 -2.2426689275840457e+00 3.7653855721591296e+00 1.7199024259374212e+01 0 1 0
84 2 8.2633667857225142e+00 4.7973808568520484e+00 1.7923188211403712e+01 -1 0 -7
1549 1 2.9022361450811114e+00 7.5864268191088238e+00 2.9958130999255292e+00 3 0 -2
683 2 7.2035754051707714e+00 8.5270358299164890e+00 6.4079894101675219e+00 -2 0 1
400 1 7.5014674941609467e+00 3.5198438956382914e+00 1.7907840783093087e+00 0 0 0
869 2 -1.8803368614450213e+00 8.1772948103822873e+00 6.1874575937643614e+00 1 0 0
194 2 5.7055820076062655e+00 6.0299862093117964e+00 1.0361526589963322e+01 -5 0 -3
28 1 2.7072351722075214e+00 5.1560976732370021e+00 1.3998478863075177e+00 -4 0 -5
291 2 1.6286326711635876e+01 3.1583414387285598e+00 1.7960270026076602e-01 -2 0 2
237 2 8.5427919236053640e-01 9.9208434257991467e+00 1.8589550134760014e+01 -2 0 -4
783 2 1.2620811241111163e+01 7.5697648288283261e+00 1.1746879607102043e+01 -4 0 -2
482 2 -2.6501487275866715e+00 4.3970187227217616e+00 1.6609976628624480e+01 -1 0 0
1093 1 1.3611406923279766e+01 3.0676726013308322e+00 5.9307197364283741e+00 3 0 1
591 2 -2.5853392051361199e+00 4.5304973232276922e+00 8.1863465299208276e+00 -5 0 -1
544 1 1.0019889752570217e+01 3.0458024103381596e+00 3.9533052228572352e+00 1 0 4
1550 2 2.0702371453285338e+00 7.3227498586829300e+00 3.5039948489084609e+00 3 0 -2
1160 2 1.0579710354077870e+01 2.3342745617843108e+00 1.4203480346635038e+01 -3 0 -2
943 1 5.6464055564269469e+00 5.5869019349999771e+00 3.7396062981186242e+00 -1 0 0
359 2 5.2467131708496098e+00 7.7107019702893158e+00 3.4093656086837260e-01 4 0 -2
115 1 1.1404478895129824e+01 6.4405205183266165e+00 1.1048477944895243e+01 -3 0 -2
975 2 -4.4272586853713571e+00 1.3096746813479991e+00 1.5789230998022193e+01 -2 0 -1
8 2 4.3230812009410977e+00 8.6151444205511503e+00 3.5319628444015021e+00 -1 0 -1
426 2 7.0503668251306877e+00 2.4078730723046209e+00 1.6115841368781563e+01 2 0 1
309 2 4.9464965852577532e+00 1.0919735832266252e+01 6.8619874246067178e+00 -2 0 2
533 2 1.3122712696991854e+01 2.8940233154605743e+00 8.8737450820315420e+00 -1 0 0
610 1 3.7895387296152045e+00 8.9890610182920465e+00 8.2965545698282295e+00 0 0 4
832 1 1.0276067287900474e+01 8.3651022719745178e+00 9.4924016786248231e+00 -2 0 1
33 2 8.4742889512316495e+00 6.1341952485537110e+00 7.6246350678542960e+00 -4 0 -6
1591 1 2.7951783240973436e+00 6.6708979642016173e+00 1.0951306194712387e+01 -2 0 -2
23 2 9.5626146011890611e+00 5.3130719772826458e+00 1.3937932671896686e+01 -1 0 1
829 1 -1.8330793010099748e+00 9.1324167864580801e+00 1.5698428886316751e+01 0 0 0
190 1 4.8095740138214582e+00 6.8902659641723760e+00 1.7812909356477800e+01 -3 0 -7
1997 2 8.7936634389803316e+00 6.0141722768649410e+00 1.1198333537215268e+01 -2 1 2
327 2 3.8417165976151066e+00 9.6313470187131429e+00 1.5101578838743677e+01 4 0 -3
325 1 4.2761803314583045e+00 8.9037354173308874e+00 1.5634786167761529e+01 4 0 -3
750 2 6.4882205819282168e-01 5.5975578189452613e-01 8.9864154731507373e+00 -2 0 -2
828 2 1.2551431413257353e+01 3.9656489209151093e+00 5.2479928548298247e+00 0 0 -1
478 1 -2.4045398144692256e+00 3.1121708286145795e+00 1.3414057873266440e+01 -4 0 -6
1619 2 -5.8209688143211791e-01 6.2346896781974745e+00 9.2147895089121530e+00 0 0 -1
940 1 9.1932233601889308e+00 9.1072220626527489e+00 1.8193234489984761e+01 -4 0 -1
694 1 2.3597657753085404e+00 7.5354186664964331e+00 1.8701489026732773e+01 0 0 1
623 2 1.3414659401651821e+00 2.5355826740831020e+00 1.0124730743714640e+01 -2 0 -2
582 2 -3.6486800661181951e-01 3.5228495904028359e+00 8.1577386581368661e+00 -1 0 0
622 1 1.3736302128209208e+00 3.2216595973783324e+00 1.0773773162562856e+01 -2 0 -2
649 1 7.0202805468064415e+00 1.1292880237613803e+00 1.8808276717944889e+01 -5 0 -2
831 2 -1.7810681904463381e+00 9.8987252127628071e+00 1.6304718327896101e+01 0 0 0
1079 2 1.4120814526167036e+01 1.0871088322911987e+01 1.4760475577968029e+00 -1 1 1
1095 2 1.3376797788971290e+01 2.6325896758449954e+00 6.7740673448161637e+00 3 0 1
849 2 7.5235711966241192e+00 1.7899519817179494e+00 7.1061709107488999e+00 0 0 0
78 2 6.8026414990426654e+00 9.9665373313887020e+00 1.4101735745638839e+01 -3 0 -3
31 1 8.1355632187197973e+00 6.5441281072380457e+00 8.4471940737177853e+00 -4 0 -6
565 1 9.0458715189663899e+00 5.6937469879433111e+00 5.8659225221244853e+00 -2 0 0
21 2 1.3472278084853702e+01 5.2538729998824607e+00 3.8226758252986985e+00 -3 0 -4
307 1 4.5268378970890879e+00 1.0266111493883008e+01 6.2971910912743807e+00 -2 0 2
793 1 -3.7913959768124883e-01 5.6287426171654591e+00 1.0741875398278795e+01 0 0 0
236 2 -3.7112120618940114e-01 8.9787444554196032e+00 1.8239596348431693e+01 -3 0 -4
70 1 1.3249672185314566e+01 1.0690231498237747e+01 1.8226511365686848e+00 -1 0 1
1993 1 1.1952052398764007e+01 5.5260439989104624e+00 8.5693976740426017e+00 1 1 0
523 1 1.6214498648552595e+01 3.6530895566761505e+00 4.7349057560311056e+00 -1 0 -5
79 1 1.6245151277585784e+01 8.4344436955807947e+00 2.9279115651127210e+00 -4 0 -1
435 2 8.3072388767885883e+00 8.1485774220051841e+00 1.1737157486056644e+01 -3 0 2
301 1 9.3014907697839710e+00 1.8118518894451940e+00 1.7907254243348891e+01 1 0 1
358 1 -1.8458076593762378e+00 8.3387908613405841e+00 1.8815755500788949e+01 4 0 -3
986 2 1.2896229747009258e+01 5.2325650643498518e+00 8.4886876849149520e+00 1 0 0
595 1 -4.8786816629771970e+00 4.0276189200330137e+00 1.4436920160525974e+01 3 0 -3
396 2 1.3420274676899632e+01 2.6049181728473845e+00 6.4739920938745699e-01 -3 0 -1
137 2 1.3987789557068913e+01 7.8081267644994021e+00 8.7149792647567477e+00 3 0 1
862 1 -2.2829962540610538e-02 5.2816970785279453e+00 1.8107982106768521e+01 -3 0 -3
1597 1 1.1125741076936201e+01 5.5109305236219930e+00 1.3556657354432508e+01 1 0 2
826 1 1.1957708163659081e+01 4.5855412213295130e+00 4.6680734407626705e+00 0 0 -1
627 2 1.0785473460426271e+01 7.2258099249067937e+00 3.5844025725085880e+00 0 0 0
337 1 2.5747680528625985e+00 6.8439884251009628e+00 1.5324730230567223e+01 -2 0 0
1912 1 4.5267458897577750e+00 3.1725098504673763e+00 6.0554039951142693e+00 3 1 -1
334 1 4.5675785733669461e+00 1.0527369226834873e+01 1.3810603260096384e+00 0 0 1
360 2 4.5650638158773260e+00 9.1532886322070173e+00 2.1295268522953226e-01 4 0 -2
195 2 6.0013827565250590e+00 5.7538215099121706e+00 1.1883796256284676e+01 -5 0 -3
509 2 -8.0491423983978461e-01 7.8166595696892944e+00 1.6125304725907938e+01 -3 0 -3
776 2 1.0349451785821978e+01 1.7945519504713496e+00 5.2803908930711723e+00 -2 0 0
570 2 2.3304064963743185e+00 5.8500617540194995e+00 1.3938349390526561e+01 -1 0 1
910 1 4.8490286563722416e+00 1.8471500466069213e+00 3.6823241933087489e+00 -2 0 2
643 1 1.2017887570421919e+01 6.8594294680835857e+00 6.2272593386473405e+00 -4 0 -2
905 2 6.6643970985505652e-01 5.0843367362437553e+00 6.3854550662723977e+00 -2 0 3
1458 2 4.8286490466626439e+00 7.8396153138115903e+00 6.2306983753254768e+00 0 1 1
1147 1 7.3620136210909592e+00 2.2355497603366858e+00 1.0788330021564533e+01 -3 0 -2
803 2 8.6942498262224355e+00 3.5047402672246117e+00 8.0853051906143936e+00 -1 0 -3
745 1 7.4293805003574729e+00 9.2035967143318187e-01 2.4015325281337701e+00 -3 0 0
1159 1 1.0645107295890337e+01 2.0000983819093623e+00 1.3293126551812566e+01 -3 0 -2
714 2 -2.2100598539437240e+00 1.0321609792721297e+01 1.2448771178623064e+01 -2 0 2
103 1 1.1737753730333743e+01 6.7875688254682203e+00 1.5552296555568715e+01 0 0 -2
256 1 5.8204854275849289e+00 5.1285380566092105e+00 7.4001769175885688e+00 0 0 -1
193 1 5.8042804362795088e+00 5.3165604420658275e+00 1.1024159240342827e+01 -5 0 -3
942 2 9.2374290421624892e+00 9.5689516577558873e+00 1.7337358185308126e+01 -4 0 -1
1590 2 2.7894742180483973e+00 6.2517962974946970e+00 5.5926218529190521e+00 -1 0 0
696 2 1.6942533619100635e+00 8.1657497735056097e+00 1.8231528392111251e+01 0 0 1
230 2 -2.1291861496235862e+00 2.8363150248869848e+00 1.1699608295576322e+01 -3 0 -4
760 1 -2.0256932760463084e+00 9.2821574771260238e+00 1.1164264754880298e+01 -4 0 0
1161 2 1.0482633682874420e+01 2.7108444555943971e+00 1.2595356278009056e+01 -3 0 -2
1589 2 2.4151822260338629e+00 7.6691847165942688e+00 6.1995774634793861e+00 -1 0 0
153 2 6.2615879366762446e+00 4.6442790439585195e+00 1.6732096917085997e+01 2 0 -1
568 1 2.1738096659223833e+00 5.1537379910074232e+00 1.3193781877793333e+01 -1 0 1
619 1 8.2180506908308217e+00 1.0744588730424637e+01 8.6861239941893711e+00 -6 0 -4
1475 2 1.7127897376694028e+00 9.5514629029144107e+00 4.8507824829254451e+00 2 1 1
795 2 1.6882834707242056e-01 4.8435093993532936e+00 1.0862546505398530e+01 0 0 0
344 2 3.9567181671931513e+00 2.5087840945163373e+00 9.2355514733909541e+00 -1 0 2
1407 2 7.7746506919331964e+00 1.0095650549950966e+01 1.7432864516697231e+00 5 0 -2
1388 2 -9.4778112398394043e-01 1.6054527264674970e-01 1.2874851693108518e+01 0 1 0
709 1 -2.3821499276290723e+00 1.4188907225909071e+00 1.5645182530579110e+01 1 0 -1
911 2 4.5947734768910244e+00 2.4765822782441895e+00 2.9681075787850668e+00 -2 0 2
283 1 -2.5200281301519478e-01 7.6953309742358078e+00 1.2527537480581637e+01 -4 0 -3
24 2 8.3350534729226151e+00 5.8292197196471829e+00 1.4757391458848243e+01 -1 0 1
941 2 8.2316799519228230e+00 9.1059463570707706e+00 1.8415917203380953e+01 -4 0 -1
349 1 6.9891439663760915e+00 9.2596604277057430e+00 1.5534689924508296e+01 -2 0 1
1592 2 3.2324957122318922e+00 6.1615991352062309e+00 1.0208888786589640e+01 -2 0 -2
1493 2 1.0486927885379659e+01 9.3016305480721897e+00 5.1356362252412957e+00 3 0 2
268 1 7.3128423367146116e+00 3.5121532711363415e+00 4.5552577731612214e+00 -3 0 -1
597 2 1.2222319854520928e+01 4.4130803400106782e+00 1.3991971894115572e+01 2 0 -3
353 2 1.0830105689104583e+01 4.4490603424614417e+00 8.0487282947923475e+00 -2 0 -1
955 1 1.2123979497239055e+00 3.6185993533201191e+00 7.5575043208761334e+00 -2 0 -4
906 2 4.4740391773864268e+00 2.5318318567084095e+00 5.3126444384915370e+00 3 0 -1
885 2 3.0202815763328457e+00 1.0644304591474148e+01 1.0749395817283530e+01 1 0 0
612 2 3.8609045681175349e+00 9.6745912328786297e+00 8.9952288934592950e+00 0 0 3
284 2 -1.3640018458844994e-01 7.1165736902278800e+00 1.1726606021646804e+01 -4 0 -3
270 2 7.2596662829887331e+00 3.0871320232468733e+00 3.6792481686991776e+00 -3 0 0
1148 2 7.1346334323242324e+00 2.7208507226301810e+00 1.1623770824278381e+01 -3 0 -2
326 2 3.7965990794983249e+00 8.0876704603431975e+00 1.5451491602831867e+01 4 0 -3
870 2 -3.0160576309401099e-01 8.5754102005260098e+00 6.1740237973513192e+00 1 0 0
596 2 -5.2267780954704213e+00 3.3119373506309948e+00 1.4987564570555469e+01 3 0 -3
804 2 7.6847023767333065e+00 3.0139705371690257e+00 9.1318296395428167e+00 -1 0 -3
904 1 -1.6018516664310689e-01 5.5965267514228243e+00 6.1277370947867427e+00 -2 0 3
935 2 -3.2633664216188438e+00 7.4943313427724458e+00 1.8601884322638575e+01 -1 0 -2
796 1 -2.7158473916683903e+00 6.9915342620234933e+00 1.3382347181148862e+01 -4 0 0
351 2 7.1008028453380660e+00 1.0003305606980689e+01 1.6178870903639446e+01 -2 0 1
633 2 1.5297500889858593e+01 6.3712794363091998e+00 6.1337644640313271e-01 -4 0 -1
1939 1 2.5746038268037710e+00 4.9541924718283425e+00 1.7216331709562258e+01 1 1 1
32 2 8.2951412571330820e+00 5.8396335130496695e+00 9.1097489740627751e+00 -4 0 -6
686 2 1.7126405790426503e+01 1.7504607171069502e+00 2.3269768755073228e+00 -4 0 1
739 1 9.1052633176706550e+00 5.7589792511372560e+00 1.5050532131466423e+00 -2 0 2
22 1 8.5990562120322664e+00 5.0758169650624350e+00 1.4272998225356902e+01 -1 0 1
1436 2 9.4595198876497140e+00 1.1005417125274450e+01 1.5411193898167999e+01 0 1 1
330 2 6.2284528873500200e+00 6.1307380862692407e+00 2.1298633682120474e+00 1 0 -1
1864 1 1.4776180947264740e+01 7.0815935282674722e+00 6.1043233945380742e+00 0 1 0
1094 2 1.3776003978763917e+01 2.4622115096341881e+00 5.2240608227949217e+00 3 0 1
566 2 8.3353449088989287e+00 5.2356473358902162e+00 5.4452408408758268e+00 -2 0 0
589 1 1.4544964787930279e+01 4.9400090677980115e+00 7.8195630852404499e+00 -6 0 -1
80 2 1.5854121237685025e+01 7.7723922004463493e+00 2.2416114418624891e+00 -4 0 -2
1362 2 -1.3818507117727223e+00 1.0179698021588374e+01 4.9509215768618748e+00 0 1 0
117 2 1.1774751447185722e+01 6.1328730152982018e+00 1.0171410885624692e+01 -3 0 -2
354 2 1.0533769178586628e+01 3.1134674103274973e+00 7.0647087347794857e+00 -2 0 -2
312 2 1.0148120734950432e+01 1.0063283442466911e+01 1.0456954931883669e+01 1 0 -3
120 2 9.8881864814064802e+00 3.9968232330999633e+00 1.1147110104673082e+01 -3 0 -5
838 1 1.7099847978625502e+00 9.2746514914896334e+00 1.2795379635645945e+00 1 0 0
308 2 3.9727877218413159e+00 9.7073486721398918e+00 6.8392847480995576e+00 -2 0 2
1173 2 3.1831718335924872e+00 1.4613026117146661e+00 1.2757180092692391e+01 1 0 -2
927 2 -3.0652402370291885e+00 6.0065050845608949e+00 1.1969238942037759e+01 3 0 2
445 1 9.9430516815448300e+00 3.1657463368948888e+00 1.5615832824739948e+01 0 0 0
87 2 9.8724141563297874e+00 1.2719141967022882e+00 6.7495879429116090e-01 1 0 -1
317 2 1.2938420401258321e+01 9.4087883798812921e+00 7.6473377424264548e+00 2 0 -1
866 2 -3.7634663724660857e+00 8.8331815592682492e+00 1.5905117319670760e+01 -4 0 -3
1588 1 2.9326433906497376e+00 6.8414079720859240e+00 6.3746407397319400e+00 -1 0 0
55 1 5.7879778609781560e+00 7.5394708639566757e+00 9.6008217372560747e+00 -3 0 2
519 2 -4.4020539812304129e+00 1.0096080477706570e+01 1.7679269191966643e+01 -3 0 -5
64 1 1.3872952085202015e+00 1.0325950561757452e+01 1.0771658475305593e+01 -4 0 -4
1876 1 4.9536434231159445e+00 3.4848336695996251e+00 1.2715494589725627e+00 -2 1 -1
1649 2 6.2818152414759076e-02 1.3961550571334103e+00 5.7422340956237861e+00 0 0 0
429 2 1.3849507361681676e+01 9.4111397423377099e+00 4.8192446578868404e+00 0 0 0
813 2 8.4072786053613342e+00 8.3168638153571006e+00 3.5233412128300463e+00 -2 0 -4
758 2 5.9920672008081146e+00 3.5014777256117324e+00 1.3448337420640179e+01 -2 0 -5
192 2 4.9230068314585891e+00 6.2422994537396788e+00 1.8594731395379963e+01 -3 0 -7
731 2 1.4763166033688000e+00 9.8807985031305479e-01 1.7689953585821542e+01 0 0 -1
944 2 4.7006071869518324e+00 5.3997690252446198e+00 3.8520960827382926e+00 -1 0 0
332 2 1.5072730963144632e+01 1.6772246328796052e+00 3.3660483094653304e+00 -2 0 -1
762 2 -1.5510605835460005e+00 9.5111963145866305e+00 1.0356106339299481e+01 -4 0 0
810 2 -3.5794870099795508e+00 3.3055166973006713e+00 1.7973102646283408e+01 -4 0 -1
316 1 1.2593965373328086e+01 8.8585574154757953e+00 8.3714423666176234e+00 2 0 -1
382 1 1.0824880627371158e+01 9.3599449132929742e+00 1.3272596039288835e+01 0 0 3
328 1 6.3178678971648781e+00 6.7925262293211999e+00 1.3393632920163772e+00 1 0 -1
1491 2 -2.2470976140631418e+00 2.9014775144021878e+00 1.6769986733342268e+01 0 1 0
339 2 1.5972940384442484e+00 7.1557761189596132e+00 1.5439074138993277e+01 -2 0 0
917 2 4.2752408524397056e+00 5.1133140294787314e+00 8.3833432022297583e+00 1 0 3
899 2 4.1680107986425590e+00 9.8755833251144249e+00 1.7319951768069657e+01 0 0 3
988 1 7.3589270611734880e-01 3.4168008352609807e+00 3.4114662452639903e+00 -3 0 -2
500 2 9.7008088915243231e+00 8.4105568830020538e-01 8.8587363963604915e+00 0 0 -1
923 2 3.6989292751101202e+00 3.8678247547587143e+00 1.7873489604958699e+01 -6 0 -4
292 1 1.6336238962367007e+00 1.9176749865893727e+00 1.5837774033266079e+00 0 0 -1
920 2 -2.6399157053349649e+00 7.5356341788158465e-01 1.8564378819439678e+01 3 0 -1
691 1 1.2600711071229789e+00 3.3719543333288353e+00 1.5568052508914064e+01 0 0 2
684 2 8.7305763458517198e+00 8.7582843030580015e+00 6.1907757021885681e+00 -2 0 1
1618 1 -7.6980555669903339e-01 6.8837374516260654e+00 8.4456856830946307e+00 0 0 -1
811 1 7.7620005145050532e+00 8.6519759715204199e+00 2.9138591526751370e+00 -2 0 -4
1039 1 -5.4942077390090827e-01 5.0173094832495986e+00 1.4151163307418711e+01 0 0 -1
333 2 1.3922039680144419e+01 2.5752998003439811e+00 2.7256961864306342e+00 -2 0 -1
1551 2 3.0617915495279351e+00 6.7154949274013367e+00 2.5361122038022912e+00 3 0 -2
235 1 5.5913414664646943e-01 9.2363548906191024e+00 1.7942237604552876e+01 -3 0 -4
693 2 9.7384780362570300e-01 2.6169339974863601e+00 1.6224836564747935e+01 0 0 2
847 1 7.4588794063440194e+00 1.3209533498322852e+00 6.2756424009303986e+00 0 0 0
1389 2 5.0505106982393322e-01 7.6931342201521014e-01 1.2913041233723344e+01 0 1 0
545 2 1.0156242557640475e+01 2.8290272197521626e+00 3.0323592181456012e+00 1 0 4
553 1 6.1447996512650098e+00 6.7973730931465717e+00 1.3247963764847844e+01 -4 0 -1
569 2 2.3886043900603360e+00 5.7084737731210238e+00 1.2406241928997543e+01 -1 0 1
1615 1 1.1461461753248557e+01 4.5641579843935576e+00 1.7420625257843291e+01 0 0 -2
655 1 4.2408287829177054e+00 8.4630080333047975e+00 1.2445337292571665e+01 -3 0 -3
1617 2 -5.6984744693332576e+00 4.0516063641472186e+00 1.7810244822611963e+01 1 0 -2
136 1 -3.2118110562981479e+00 7.5065262400667514e+00 9.3329793994290373e+00 4 0 1
990 2 -2.0352253513337648e-01 3.6974195163482761e+00 3.4543674195398189e+00 -3 0 -2
119 2 1.1459880789090178e+01 3.6542563755218813e+00 1.0795451544516055e+01 -3 0 -5
402 2 8.0791311339148635e+00 4.1237567338753003e+00 1.3465307378140570e+00 0 0 0
502 1 6.6486817241367486e+00 8.3932240986870621e+00 1.8861814659547267e+01 -2 0 -2
842 2 -4.1242833396245295e+00 5.2818623939452776e+00 1.5270194989877004e+01 -4 0 -4
118 1 1.0546385545304307e+01 3.2706651819345423e+00 1.0954281665257534e+01 -3 0 -5
348 2 4.1973349346399953e+00 2.5362858381853717e+00 1.1450369130457203e+01 -2 0 -2
383 2 1.0679519529615789e+01 9.7623179722620232e+00 1.4184265292673025e+01 0 0 3
229 1 -1.5881023600174893e+00 2.5693190615608161e+00 1.0942710564567356e+01 -3 0 -4
425 2 6.8314386479623339e+00 2.0679197215383849e+00 1.4601890082884969e+01 2 0 1
692 2 4.4466043758406304e-01 3.8847386744781072e+00 1.5285169191249873e+01 0 0 2
537 2 5.5639306282101852e-01 9.9153494562867923e+00 1.6135722153589821e+01 -2 0 2
57 2 5.0610359765640229e+00 8.0388516695884640e+00 9.1614282971531882e+00 -3 0 2
1097 2 1.2865235983678655e+01 7.8462143789579937e+00 3.1423626807476919e+00 1 0 2
924 2 4.1414543086174973e+00 2.6357793669307390e+00 1.7065436250276942e+01 -6 0 -4
433 1 8.8936883439184982e+00 7.4496500820019964e+00 1.2139889480332528e+01 -3 0 2
682 1 7.8752336484846683e+00 9.2347574186840031e+00 6.3955968245880932e+00 -2 0 1
640 1 1.3007313473936994e+00 8.2727142399940323e+00 9.3423681022195399e+00 3 0 0
952 1 8.6890550847345693e+00 6.9677866303077396e+00 1.6041378422309378e+01 -1 0 -2
1998 2 7.6445603736678525e+00 5.0337211377345454e+00 1.0924706902237705e+01 -2 1 2
104 2 1.2405687953913301e+01 7.4993036073109502e+00 1.5595415640342214e+01 0 0 -1
432 2 1.1722595750543253e+01 1.0666387692842099e+00 1.9469255098633445e+00 2 0 4
343 1 3.7110995456053271e+00 2.1009038197201879e+00 8.3848390217148960e+00 -1 0 2
305 2 1.4026631209148693e+01 4.1829835594321496e+00 1.0750539615814507e+01 1 0 -5
788 2 2.4883267585485704e+00 4.4360213930267820e+00 3.9395196622207158e+00 -1 0 -1
285 2 5.3190977939630990e-01 8.1779560875907400e+00 1.2748313942811095e+01 -4 0 -3
957 2 1.3986142048807788e+00 2.9787712274431866e+00 6.8929075976199021e+00 -2 0 -4
821 2 1.5603425492964806e+00 9.4663064998796944e+00 1.3964570489168660e+01 -3 0 -2
395 2 1.2960833286048350e+01 4.0887127151245082e+00 1.2253439919210902e+00 -3 0 -1
29 2 2.6778961728246387e+00 5.6616152599466529e+00 5.0153538051003588e-01 -4 0 -5
1476 2 1.7158121515120941e+00 9.7630303313441171e+00 6.4106347493878948e+00 2 1 1
850 1 -1.6736746165470064e+00 1.7115249849820768e+00 6.3861228837854771e+00 4 0 1
346 1 4.0698450445811574e+00 3.2379928102626203e+00 1.0758711593495574e+01 -2 0 -2
30 2 3.5156156527964315e+00 4.5994073020005599e+00 1.1993976235885138e+00 -4 0 -5
554 2 6.9862745885294437e+00 7.1794427307549427e+00 1.3034337477091897e+01 -4 0 -1
863 2 -1.4506837217547908e-01 5.7281228578029584e+00 1.8970441725885358e+01 -3 0 -3
794 2 -1.3160858463666911e+00 5.4045231161115748e+00 1.0996466193638925e+01 0 0 0
865 1 -4.7477995349735602e+00 8.8746944811014163e+00 1.6050171605760497e+01 -4 0 -3
918 2 3.1297270564292683e+00 5.8356501688132285e+00 7.7209071507046305e+00 1 0 3
1598 2 1.1505439231171746e+01 6.1506770778528965e+00 1.4294516203208897e+01 1 0 2
9 2 5.0885191230528743e+00 9.4067300169582424e+00 4.6579420257338855e+00 -1 0 -1
508 1 -4.0389685867350611e-01 6.9616827644169561e+00 1.6013050642039030e+01 -3 0 -3
926 2 -3.2810658770153176e+00 6.2345874488832749e+00 1.0386457165627212e+01 3 0 2
536 2 1.6876163358448677e+00 1.0996383321486210e+01 1.6024979539098808e+01 -2 0 2
428 2 1.4781288989166331e+01 8.7405624211226609e+00 3.7187344667886895e+00 0 0 0
138 2 -2.8739220712933924e+00 8.2848525630868526e+00 9.8022339529816929e+00 4 0 1
447 2 9.3436008411059444e+00 3.7426804381259133e+00 1.5146802694131893e+01 0 0 0
81 2 -8.8800954764973761e-01 7.9998059598608702e+00 3.2958193180699600e+00 -3 0 -1
843 2 -3.5916686863147569e+00 6.3370451847250280e+00 1.6459402281257514e+01 -4 0 -4
525 2 -1.2989525913020961e+00 4.3306362850597475e+00 5.2530484801833959e+00 0 0 -5
757 1 6.9228328200886802e+00 3.2622727970858758e+00 1.3268035582432061e+01 -2 0 -5