LAMMPS data file via write_data, version 3 Mar 2020, timestep = 1000000

1008 atoms
2 atom types

2.4646706904558258e-01 1.8153087930949237e+01 xlo xhi
2.8470125282748171e-02 2.2541918874708799e+01 ylo yhi
2.1710670264460141e-01 1.9288609297349069e+01 zlo zhi
-7.3981144966480436e-02 -6.6240941172824845e+00 -6.3050120992943826e-02 xy xz yz

Masses

1 16
2 2

Atoms # atomic

1 1 6.7908652205338145e+00 1.2395966939166190e+00 4.8092082096812545e+00 0 0 0
83 2 1.7191737266183138e+00 5.7528677768225229e+00 9.3968121103595836e-01 0 0 0
3 2 6.8377204061308472e+00 1.6327817156330988e+00 3.8936819119890367e+00 0 0 0
4 1 3.9668392169220246e+00 1.3819060278727013e+00 5.1879184084957082e+00 0 0 0
5 2 4.8455948167603209e+00 9.7933180100334838e-01 4.9586926841957091e+00 0 0 0
6 2 4.0267031301042913e+00 1.7530931230779947e+00 6.0789629171336195e+00 0 0 0
7 1 -2.5997949933907383e-01 6.5252567946271380e+00 5.0800975482187916e+00 0 0 0
8 2 -3.2274831253721259e-01 6.1003644558648817e+00 5.9486528481789636e+00 0 0 0
9 2 -9.5400249238106549e-01 7.2405174638326493e+00 5.0323298439843489e+00 0 0 0
10 1 2.5043798420503993e+00 6.4754803300810337e+00 4.7632041993586656e+00 0 0 0
11 2 1.6052564075564806e+00 6.6763530610526400e+00 5.0386057484833771e+00 0 0 0
12 2 3.0503915710799383e+00 7.3624195530180954e+00 4.9037048299154637e+00 0 0 0
290 2 1.5872657665793035e+01 1.0507231134647386e+01 2.6233283733548229e+00 0 0 0
14 2 5.3938196914789129e+00 5.2701911350023227e+00 8.6529247738337229e+00 0 0 0
518 2 7.6641483065669949e+00 4.9062375230385378e+00 3.5669547534716806e-01 0 0 0
145 1 1.7118040681077119e+01 6.8438903304192333e+00 1.6424540158575869e+00 0 0 0
18 2 5.9823796913288652e+00 5.4080871585078896e+00 1.7154116000229762e+00 0 0 0
219 2 6.0926912856744107e+00 1.0633513609053381e+01 7.0246351747491413e+00 0 0 0
15 2 4.3020340018092043e+00 4.5321372927594510e+00 9.4600740696359473e+00 0 0 0
21 2 9.0061747972694517e-01 2.4325754358845950e+00 8.9639341010901008e-01 0 0 0
133 1 1.5639160110486156e+01 3.1849481579670162e+00 6.5454308835861585e+00 0 0 0
103 1 9.7765611071089413e+00 2.6856629171608684e+00 5.7075926306842284e-01 0 0 0
151 1 6.4941303697609456e+00 3.1451242132880464e-01 8.0423409099162093e+00 0 0 0
25 1 4.9946701358206935e+00 6.4229837956195492e+00 7.1341745943266162e+00 0 0 0
26 2 5.6918520292822921e+00 7.1411117908299824e+00 7.3029565733422110e+00 0 0 0
27 2 4.1339547131820780e+00 6.7323400527855233e+00 7.4180611592415850e+00 0 0 0
28 1 5.8676180408688730e+00 6.9640715358534386e+00 2.7177975819949380e+00 0 0 0
29 2 5.7587200726549401e+00 6.3618144189659152e+00 3.4899339103838218e+00 0 0 0
30 2 4.9690103858347134e+00 7.3072322568854222e+00 2.4270324870343791e+00 0 0 0
31 1 1.1790557656225431e+00 1.3294140159902674e+00 2.4432740177923540e+00 0 0 0
32 2 2.1010740614873140e+00 1.1339251368726841e+00 2.2365620972980134e+00 0 0 0
33 2 1.2131524705318892e+00 1.6216445406619391e+00 3.3626582469569888e+00 0 0 0
34 1 2.0856417800311533e-01 8.4450891219620539e-01 7.1068801307575153e+00 0 0 0
217 1 6.8439329362955235e+00 1.0826558580464905e+01 6.4179288677203816e+00 0 0 0
36 2 6.2106345921281081e-01 1.5338816175484737e+00 7.6741147153614042e+00 0 0 0
37 1 6.2976087621481698e+00 2.5802817644981020e+00 2.4761163093374892e+00 0 0 0
38 2 5.4452305745586518e+00 3.0060582571514605e+00 2.7493955320705985e+00 0 0 0
39 2 6.9730554238607034e+00 3.2925839418025031e+00 2.5166451387684119e+00 0 0 0
40 1 3.9877708158597924e+00 2.6229252521802486e+00 7.5440915844603760e+00 0 0 0
41 2 4.8206479297551770e+00 3.0253987916205878e+00 7.3253846748842788e+00 0 0 0
42 2 3.3514441725766413e+00 3.2937398928347164e+00 7.3158516659376005e+00 0 0 0
43 1 -2.4887570214056320e-01 4.8966532235555826e+00 7.3698638837394510e+00 0 0 0
44 2 -9.4959859762511667e-01 4.3510572082609089e+00 6.9738121898636285e+00 0 0 0
45 2 -5.3585810303508685e-01 5.2354345401023279e+00 8.1993488566893440e+00 0 0 0
46 1 1.7138727254967541e+00 4.9648675276584191e+00 2.5335863798508820e+00 0 0 0
47 2 7.9307938175319082e-01 4.6444509205091746e+00 2.6748561279010494e+00 0 0 0
48 2 1.8971764588785720e+00 5.6230923817324667e+00 3.2806971498838777e+00 0 0 0
49 1 6.5326733768795560e+00 3.4617057045830846e+00 6.4741072203180297e+00 0 0 0
50 2 6.3471154771732614e+00 4.1251489766362104e+00 5.7919441886356706e+00 0 0 0
51 2 6.8193812036213135e+00 2.6765588861320126e+00 5.9513863126237112e+00 0 0 0
52 1 3.9694499857423615e+00 3.7150456778756231e+00 3.5163308020479072e+00 0 0 0
53 2 3.0850337867825397e+00 3.9334989096888262e+00 3.1460967654967700e+00 0 0 0
54 2 3.8842658414208926e+00 2.9291260482235644e+00 4.0881204405025677e+00 0 0 0
55 1 -8.0549003726981860e-01 4.0280624603597097e+00 3.7333816879437012e+00 0 0 0
56 2 -9.0241265104799506e-01 4.7117557259879916e+00 4.3656066677708134e+00 0 0 0
57 2 -3.5713817866432163e-01 3.3445505016786630e+00 4.2344822116786416e+00 0 0 0
58 1 1.9778387140587275e+00 4.0396484909184496e+00 6.3627696299506731e+00 0 0 0
59 2 2.2790597094001779e+00 4.9292135175820784e+00 5.9418058559863756e+00 0 0 0
60 2 1.2471751411094525e+00 4.3886226908577335e+00 6.9894636512581743e+00 0 0 0
61 1 8.2592252212053179e+00 7.2173380842934511e+00 1.6645247057896777e+00 0 0 0
62 2 7.6152174861323996e+00 7.0860169856878521e+00 2.3397476360166904e+00 0 0 0
63 2 8.5948673142325447e+00 6.3672853281264494e+00 1.3145705868823798e+00 0 0 0
64 1 2.3121440684743657e+00 6.8300463868828496e+00 8.3842912204152835e+00 0 0 0
65 2 1.4711660434940379e+00 7.2828366035154426e+00 8.1745721858857223e+00 0 0 0
66 2 2.7470538540084948e+00 7.4588608151681974e+00 9.0321667520227891e+00 0 0 0
528 2 2.7396054401363648e+00 3.0680890627002109e+00 2.8111857970359977e-01 0 0 0
68 2 -2.2410603668038345e+00 1.1113917607486261e+00 8.8414066971439631e+00 0 0 0
80 2 6.4744517902408072e+00 1.7581442349281615e+00 8.9951334015853446e-01 0 0 0
72 2 3.9729343225402740e+00 1.4122246448378639e+00 1.3206277862191900e+00 0 0 0
73 1 5.5617956739619245e+00 5.4180671116649650e+00 4.6978719155467328e+00 0 0 0
74 2 5.3318420376684506e+00 6.0205760976000304e+00 5.4557341822999064e+00 0 0 0
75 2 4.7441242018047873e+00 4.9386504294654703e+00 4.4869817129020788e+00 0 0 0
76 1 8.3182590396773515e-01 2.2816654887286307e+00 4.9409958575633750e+00 0 0 0
77 2 4.9691042521838402e-01 1.7434352348165476e+00 5.7792717250903998e+00 0 0 0
78 2 1.2308006673080014e+00 3.1406290678533675e+00 5.3232661433320319e+00 0 0 0
86 2 1.6403660981683817e+01 4.8041276595790772e-01 4.8748941684166356e+00 0 0 0
301 1 1.5600589873902123e+01 1.0678996271772631e+01 6.6384438097286615e+00 0 0 0
293 2 1.2411179704912591e+01 1.0768030503785967e+01 7.3221043336773359e+00 0 0 0
85 1 1.5962231193199129e+01 1.3312794749697048e+00 4.7610286041251708e+00 0 0 0
87 2 1.5679382341918942e+01 1.5237681697918659e+00 3.8097778024508724e+00 0 0 0
88 1 1.3274883491502957e+01 1.1675997438552652e+00 5.3168750089314925e+00 0 0 0
89 2 1.2955266606078204e+01 1.8918031261365296e+00 4.6960919360582452e+00 0 0 0
90 2 1.4268123160930140e+01 1.1351175616828801e+00 5.1318014756153669e+00 0 0 0
91 1 8.5066376376948547e+00 6.5234400004275734e+00 4.8761273436362202e+00 0 0 0
92 2 8.1019455556944600e+00 5.9237587587582938e+00 4.2518789955533531e+00 0 0 0
93 2 9.4834034415281678e+00 6.4633508878609183e+00 4.6536103493329790e+00 0 0 0
94 1 1.1119707702733075e+01 6.4200673597114024e+00 4.5974407268962159e+00 0 0 0
95 2 1.1658071436663606e+01 7.2173529832295538e+00 4.7849313719971587e+00 0 0 0
96 2 1.1306105301131316e+01 5.7454886021898250e+00 5.3078956210876127e+00 0 0 0
780 2 1.2888160206173076e+01 9.6759422000365660e+00 3.2407019010176308e-01 0 0 0
13 1 5.2900383831053706e+00 4.6593166045105798e+00 9.3946024763459004e+00 0 0 0
220 1 3.9178430282625802e+00 1.0820365040702718e+01 3.4631798272372496e+00 0 0 0
101 2 1.4400002169268621e+01 5.2916964198957421e+00 9.8567681097851978e-01 0 0 0
237 2 1.4675487660151255e+01 7.4175449153508737e+00 8.1839442616119982e+00 0 0 0
221 2 4.7683899548265902e+00 1.0756282663666958e+01 2.9963240151464197e+00 0 0 0
836 2 1.2678441016831822e+01 9.3314322106939560e+00 9.0149454096714834e+00 0 0 0
165 2 1.6346068862733024e+01 3.3355326880699054e-01 6.7505729826855587e-01 0 0 0
109 1 1.3468939138037936e+01 6.4961972533068488e+00 7.1552960950105797e+00 0 0 0
110 2 1.3354628731291346e+01 5.7825108635669116e+00 7.7721002265907781e+00 0 0 0
111 2 1.2662800608728428e+01 7.0145267527605126e+00 7.2545236423587580e+00 0 0 0
112 1 1.4522652511110248e+01 5.9350185479686681e+00 2.5277982908480241e+00 0 0 0
113 2 1.3874178862210174e+01 6.6200654609786040e+00 2.2491500632024248e+00 0 0 0
114 2 1.5387604099456022e+01 6.3890005104244336e+00 2.4160322475278240e+00 0 0 0
115 1 1.0089991252326882e+01 1.1664876021466866e+00 2.7286643162974022e+00 0 0 0
116 2 9.9258071509428003e+00 1.8543790521536729e+00 1.9612326719380244e+00 0 0 0
247 1 6.6488137903945752e+00 9.0797352742405675e+00 3.7318157970462434e-01 0 0 0
118 1 9.2212855834199594e+00 1.0794076492863922e+00 7.0605906666312670e+00 0 0 0
119 2 9.2943336845647089e+00 1.7790777428555684e+00 7.7433328446485321e+00 0 0 0
120 2 9.1653272762456623e+00 1.5419145511758410e+00 6.1667700743616676e+00 0 0 0
121 1 1.5152783905939831e+01 2.4946269156120762e+00 2.5452303641029719e+00 0 0 0
122 2 1.5807509200537631e+01 3.1774142472703284e+00 2.8685973003447627e+00 0 0 0
123 2 1.5563889983328876e+01 2.1192501667436994e+00 1.7238450590982919e+00 0 0 0
124 1 1.3106518121559688e+01 2.4684200498228388e+00 7.6583002660599799e+00 0 0 0
125 2 1.4085712014241713e+01 2.7093157018020286e+00 7.5298615886147555e+00 0 0 0
126 2 1.2911427814290837e+01 1.7828430305764327e+00 6.9501335248038751e+00 0 0 0
127 1 8.5205487679197471e+00 5.2463313207923177e+00 7.1639442382005534e+00 0 0 0
128 2 7.9677004724632674e+00 4.4372656920203042e+00 7.0308214942355711e+00 0 0 0
129 2 8.4546454041427506e+00 5.8612145438020109e+00 6.4253716863081562e+00 0 0 0
130 1 1.0645019104967819e+01 4.9946133412671987e+00 2.4034771873857381e+00 0 0 0
131 2 1.1218145274667739e+01 4.2854946107621927e+00 2.7277010857438464e+00 0 0 0
132 2 1.0967124323582835e+01 5.6890761799759897e+00 2.9863840676261022e+00 0 0 0
134 2 1.4930937614013034e+01 3.6046477824895042e+00 5.9435691684276488e+00 0 0 0
136 1 1.2561750185408682e+01 3.2896116841655778e+00 3.8751688345742812e+00 0 0 0
137 2 1.2933593654104119e+01 4.0853648104049824e+00 4.2786550827631569e+00 0 0 0
138 2 1.3317875517477178e+01 3.1502776991767285e+00 3.2553059217545628e+00 0 0 0
139 1 8.2181179182007522e+00 4.4138220621969300e+00 2.9835887475827958e+00 0 0 0
140 2 9.0859327758433430e+00 4.6662378430114746e+00 2.6099050871618141e+00 0 0 0
141 2 8.4655634076370259e+00 3.9991418318667238e+00 3.8406810198747885e+00 0 0 0
142 1 1.1334138427952270e+01 4.3824630234271202e+00 6.3325796777656347e+00 0 0 0
143 2 1.1985088246904210e+01 4.0832659398489124e+00 6.9070259333697965e+00 0 0 0
144 2 1.0537946335584888e+01 4.5605946754376614e+00 6.8403036156641175e+00 0 0 0
147 2 1.6844557706790631e+01 7.5225738895873979e+00 1.0168055748567331e+00 0 0 0
148 1 1.1128623222818913e+01 7.1357959299272293e+00 8.2116416909241181e+00 0 0 0
149 2 1.0991571019995128e+01 6.2755891811589741e+00 8.5615993298095834e+00 0 0 0
150 2 1.1550723959016736e+01 7.5590496614929226e+00 8.9789047615712185e+00 0 0 0
607 1 6.4153704890783825e+00 2.3834274757929164e+00 9.5281212094535661e+00 0 0 0
156 2 1.1887563815228846e+01 7.0468495593131764e-01 2.5074746249033204e+00 0 0 0
153 2 6.3142379365832531e+00 1.0695770074508910e+00 8.6740410295223107e+00 0 0 0
99 2 1.3033537491248749e+01 4.2678178127976727e+00 9.4625503200315979e+00 0 0 0
155 2 1.2772699869922771e+01 1.2749974798028101e+00 1.3596054061627738e+00 0 0 0
302 2 1.4739372549355961e+01 1.0419889264109873e+01 7.1204223318059574e+00 0 0 0
157 1 1.4049647232431639e+01 5.0941276513865601e+00 5.0735880617249984e+00 0 0 0
158 2 1.4476548039526506e+01 5.4995730081080296e+00 4.3552705472389830e+00 0 0 0
159 2 1.3696252405426701e+01 5.7880400797488516e+00 5.6305238538263165e+00 0 0 0
160 1 9.5100559121134243e+00 2.6646402344236897e+00 4.9426207489420655e+00 0 0 0
161 2 1.0338946405399646e+01 3.0825586737583244e+00 5.3100523590320989e+00 0 0 0
162 2 9.8569895198885682e+00 2.1269296487844538e+00 4.1354927866447637e+00 0 0 0
306 2 1.3669254407413728e+01 1.0477218116544780e+01 2.7059619394165200e+00 0 0 0
671 2 8.5075130284540936e+00 5.9569272186333544e+00 8.5601847335285477e+00 0 0 0
167 2 1.0765527476780109e+01 5.9295896780282282e+00 8.4361196441761421e-01 0 0 0
169 1 6.9121618657041450e+00 8.6377813084493784e+00 4.7873366542961246e+00 0 0 0
170 2 7.5779662024403205e+00 7.9238545937963281e+00 4.8919158435276424e+00 0 0 0
171 2 6.9585158614940230e+00 9.2038675649197579e+00 5.5610749884338704e+00 0 0 0
172 1 3.9943965535876940e+00 8.6950362098890857e+00 5.0816887922391114e+00 0 0 0
173 2 3.8609319913018156e+00 9.5252341288282825e+00 4.5664322729053870e+00 0 0 0
174 2 4.8942980852238982e+00 8.4582730073678718e+00 4.8849075479292798e+00 0 0 0
587 2 -1.5502187978728785e+00 6.4663181376870451e+00 9.5611519692445128e+00 0 0 0
97 1 1.3883950380329622e+01 4.7332857704287852e+00 9.2956352028514768e+00 0 0 0
521 2 2.3069009522155799e+00 5.1915953239708701e+00 9.1040724334317389e+00 0 0 0
192 2 1.2351099970072887e-01 9.8293526701719092e+00 8.8988291308530201e+00 0 0 0
199 1 1.2139704833869387e+00 8.5655886421298355e+00 2.9959057536376679e+00 0 0 0
200 2 8.9360182244920894e-01 9.1658874256740646e+00 2.2421516495309382e+00 0 0 0
201 2 5.0047865158181604e-01 7.9124034781686898e+00 2.9293216922553964e+00 0 0 0
202 1 -2.9360293290648709e-02 8.6545250183829445e+00 7.7233165117880249e+00 0 0 0
203 2 -9.4356390039285576e-01 8.3476975993262421e+00 7.8733907970817647e+00 0 0 0
204 2 6.7099850763175262e-02 8.9955728819799017e+00 6.7610532414842917e+00 0 0 0
205 1 6.4259475833650663e+00 1.0317328007589850e+01 2.7341645333201683e+00 0 0 0
206 2 6.8279205151517477e+00 9.5777108704557428e+00 3.3071527162276539e+00 0 0 0
207 2 6.5563343719642484e+00 9.9889267386928537e+00 1.7768025402478689e+00 0 0 0
208 1 4.3219423914799844e+00 1.0126453537090422e+01 7.4211747329036308e+00 0 0 0
222 2 3.2048723203856202e+00 1.1159255328470472e+01 2.9614752337892027e+00 0 0 0
210 2 4.2396706889360649e+00 9.3894236045938211e+00 6.7757894497682853e+00 0 0 0
486 2 1.1326610551491806e+01 1.2406097392173865e-01 8.7411806654141149e+00 0 0 0
224 2 -1.9395821098577137e-01 1.0845951507090840e+01 4.2477153029705406e+00 0 0 0
209 2 3.6529719137817729e+00 1.0752987126975501e+01 7.0726048393182355e+00 0 0 0
79 1 6.9327463738614821e+00 1.1068055108189399e+00 2.6077369462897876e-01 0 0 1
154 1 1.2705912468717813e+01 4.9913211265094642e-01 2.0477260590767319e+00 0 0 0
235 1 -2.4688310262740574e+00 7.8642844446883045e+00 8.5557209346144809e+00 0 0 0
584 2 2.7767679608909450e+00 6.9645301143098126e-01 9.5040680829682636e+00 0 0 0
238 1 3.5484597302892564e+00 7.9121877716943949e+00 1.6458770732793566e+00 0 0 0
239 2 2.7213336280384386e+00 8.0751546465551627e+00 2.0786759869142273e+00 0 0 0
240 2 3.6881413691621647e+00 8.7717753260757210e+00 1.1780147843966242e+00 0 0 0
244 1 5.1890459638709152e-01 9.7057135989219017e+00 5.3749146264588905e+00 0 0 0
245 2 9.3702114630181299e-01 9.2999085071002305e+00 4.6144161687122560e+00 0 0 0
246 2 1.0140450907618879e+00 1.0510080466488684e+01 5.7776072818942765e+00 0 0 0
248 2 7.1404722322673395e+00 8.3819096109972993e+00 8.0077618048758437e-01 0 0 0
35 2 -6.1198369751662041e-01 5.3799080412189171e-01 7.5529445156479289e+00 0 0 0
253 1 1.5633574447037530e+01 8.3361338858084970e+00 4.7050063227879653e+00 0 0 0
255 2 1.5454196842544601e+01 8.9478415795623469e+00 3.9675668304201213e+00 0 0 0
256 1 1.2796656338605343e+01 8.4326164637230470e+00 5.2057582127957023e+00 0 0 0
257 2 1.3785944976589457e+01 8.2732702084599197e+00 5.1819307298168686e+00 0 0 0
258 2 1.2757203791785331e+01 9.2352427524210068e+00 4.6588611330211753e+00 0 0 0
254 2 1.5791134842385885e+01 9.0495789002926905e+00 5.3665933827280838e+00 0 0 0
272 2 1.0182366410733437e+01 1.0082380476359658e+01 1.2595534536205020e+00 0 0 0
117 2 9.3918494666408918e+00 4.5017500807278971e-01 2.6127132164312794e+00 0 0 0
276 2 9.3834757943446778e+00 9.9113092144248061e+00 8.9416550895087870e+00 0 0 0
283 1 1.0339770081295839e+01 8.7929856029507594e+00 2.3819677292876640e+00 0 0 0
284 2 1.0019637772185934e+01 9.1609411238788265e+00 3.2184962699190254e+00 0 0 0
285 2 9.6157336382428120e+00 8.2071580147131939e+00 2.0757993204924476e+00 0 0 0
286 1 9.4201600310993481e+00 9.0516257201079924e+00 7.2175313487678912e+00 0 0 0
287 2 9.9845940292945450e+00 8.2778480795945590e+00 7.5235681789040543e+00 0 0 0
288 2 8.5396505271184910e+00 8.8091005578870014e+00 7.4007957445209396e+00 0 0 0
289 1 1.5245474100730952e+01 9.7710784634321115e+00 2.5391432830953624e+00 0 0 0
16 1 6.0760108294697597e+00 4.9131690906231169e+00 8.8350877389305205e-01 0 0 0
291 2 1.5411399520929489e+01 9.4746890533929076e+00 1.5842420877466747e+00 0 0 0
292 1 1.2951647616681202e+01 9.9900593406730138e+00 7.5863718645415599e+00 0 0 0
668 2 1.2657323600269912e+01 1.7965350711463839e+00 9.2911756549474820e+00 0 0 0
294 2 1.2775991812137155e+01 9.3865639419849511e+00 6.8444386093213483e+00 0 0 0
108 2 8.1610314038901439e+00 3.0959886571812429e+00 9.5444134079054290e+00 0 0 0
482 2 6.5499248968552359e-02 3.6064365596056282e-02 2.0727955677980852e+00 0 0 0
524 2 -2.7240103723422235e+00 3.5671507519935242e+00 9.5438232933204699e+00 0 0 0
70 1 3.7520545574286617e+00 5.0328020528091133e-01 1.8147358858057945e+00 0 0 0
319 1 6.6553970801318503e+00 8.1078919773447637e+00 8.1291818648542939e+00 0 0 0
320 2 6.2540080679975887e+00 8.6970314200999805e+00 8.8628771303581235e+00 0 0 0
321 2 7.1674194911232867e+00 7.4335517977679526e+00 8.6568003903352597e+00 0 0 0
322 1 1.2871039888375178e+01 7.7448725422304765e+00 1.4290528913135485e+00 0 0 0
323 2 1.2277753765933475e+01 8.2278883750181198e+00 2.0465754323277441e+00 0 0 0
324 2 1.2268681944930679e+01 7.2136884068765657e+00 8.7766898788297909e-01 0 0 0
328 1 1.0152620219193091e+01 1.0047014379692945e+01 4.7471033649855556e+00 0 0 0
329 2 9.7560880873206504e+00 9.6991053084613004e+00 5.6064516290605892e+00 0 0 0
330 2 9.5638969480186358e+00 1.0722666830273088e+01 4.5070239803845249e+00 0 0 0
24 2 -5.2117741346972091e-01 2.6178135632138413e+00 9.3762579941744715e+00 0 0 0
753 2 3.9122848579852034e+00 9.3713935129210064e+00 8.7688579642431161e+00 0 0 0
236 2 -2.7466330911642229e+00 8.6422877870662784e+00 9.0606638420918379e+00 0 0 0
520 1 2.4807386206348863e+00 4.3301849982844933e+00 9.5596020087102858e+00 0 0 0
751 1 3.9240992077309720e+00 8.8229856170005903e+00 9.6167813301744385e+00 0 0 0
304 1 1.2978450038057968e+01 1.0837661301296656e+01 3.2422471261277828e+00 0 0 0
146 2 1.7226245196865626e+01 6.0591162223800250e+00 1.0400473870655500e+00 0 0 0
271 1 1.0028185494430256e+01 1.0635422104639540e+01 4.8595134614851093e-01 0 0 0
585 2 3.7899186474477653e+00 1.8497867030685802e+00 9.0725954224907053e+00 0 0 0
135 2 1.5908664984753866e+01 2.3458903769151789e+00 6.0371366853103234e+00 0 0 0
152 2 7.3672330897179013e+00 5.9093504095426863e-01 7.6293805368113849e+00 0 0 0
610 1 1.2860696261692443e+01 2.7864364606851022e+00 3.5550492284091700e-01 0 0 1
2 2 7.4006255594324077e+00 5.5993873465600075e-01 4.8763459287691688e+00 0 0 0
22 1 4.5089409434981365e-01 2.2674505222349266e+00 9.4129237707426938e+00 0 0 0
106 1 9.1195421484295647e+00 2.9015540747462456e+00 9.4203976874189479e+00 0 0 0
84 2 2.8676735991960323e+00 6.8020461021680250e+00 7.2106156030931001e-01 0 0 0
23 2 9.7280238735224112e-01 3.1534070234544327e+00 9.4629585318362466e+00 0 0 0
608 2 5.8900304680247171e+00 3.2604087897635643e+00 9.5305644091791937e+00 0 0 0
67 1 -2.0378987107023563e+00 2.8768550562643902e-01 8.3626529335421065e+00 0 0 0
612 2 1.1930189234665795e+01 3.0253033366320246e+00 4.4457666836141096e-01 0 0 0
189 2 1.6295420830127272e+00 1.0390339346195585e+01 4.9407848586004849e-01 0 0 0
670 1 8.1324464096687947e+00 6.3613588173889575e+00 9.4826527000405143e+00 0 0 0
17 2 5.3133209357516087e+00 4.3117029779996265e+00 7.8351473437688157e-01 0 0 0
187 1 6.8611082452540595e-01 1.0043292912383224e+01 5.7460113728841555e-01 0 0 0
523 1 -2.2472338830359724e+00 2.7116794237398225e+00 9.5754345656187141e+00 0 0 0
606 2 1.0421951168949427e+01 4.0706720000441647e+00 9.6409630062059737e+00 0 0 0
190 1 2.1132493131753316e-01 1.0355554065461652e+01 9.7423305915390213e+00 0 0 0
273 2 1.0905396854456669e+01 1.0981409077912691e+01 2.8535548057941962e-01 0 0 1
82 1 2.1933533758560548e+00 6.2865294925544237e+00 2.2610510805154180e-01 0 0 1
620 2 6.5085790030492694e+00 4.0157657136102903e-01 1.1926720470914892e+01 0 0 0
808 1 9.6595000437600991e+00 1.0892797038261302e+01 1.2915080359655160e+01 0 0 0
723 2 4.3485631422689632e+00 1.0856310170282912e+01 1.6386263153676751e+01 0 0 0
805 1 1.2107844210299662e+01 1.0777927715080198e+01 1.6264305510124956e+01 0 0 0
749 2 -2.0540748405379894e+00 1.0574088404399854e+01 1.5130668230319293e+01 0 0 0
728 2 -3.7367735950957646e+00 1.1213713423618989e+01 1.3620021596340441e+01 0 0 0
724 1 5.9183034313705107e-01 1.0953375787212773e+01 1.3026723898393767e+01 0 0 0
823 1 3.3759887620633231e+00 8.1238981246540991e+00 1.7874719402343921e+01 0 0 0
19 1 -5.6015384643160218e+00 2.8248009571798414e+00 1.9113227971440786e+01 0 0 -1
752 2 3.7093792757903254e+00 9.3905443382557046e+00 1.0384403607919662e+01 0 0 0
98 2 1.3938647576964849e+01 5.4426949988261324e+00 9.9192151649768814e+00 0 0 0
81 2 -4.5202107695363214e-01 4.8049435763483023e-01 1.8941702399509069e+01 0 0 0
588 2 -9.2732096406079245e-01 5.5416838003720414e+00 1.0730261869448762e+01 0 0 0
168 2 3.9267167809031447e+00 6.9038160108177227e+00 1.8727097613595170e+01 0 0 0
105 2 2.9256283664222735e+00 1.8411116735192286e+00 1.9075379297940017e+01 0 0 0
536 2 -2.5645643253201404e+00 6.8178903293056936e-01 1.1871950773152856e+01 0 0 0
574 1 5.2604893329267055e-01 4.1319649200174863e-01 1.1679958601746010e+01 0 0 0
809 2 1.0510758812638489e+01 1.0636991025175202e+01 1.2549356806394972e+01 0 0 0
505 1 3.0582264046321495e+00 8.8436957928920246e-01 1.4209367956320257e+01 0 0 0
506 2 3.0719733791858346e+00 1.6866030690674634e+00 1.4782487731808333e+01 0 0 0
691 1 -2.4305487287568046e+00 1.0057756609664800e+01 1.0219713412724145e+01 0 0 0
508 1 3.9158400707616092e-01 1.0794346431751605e+00 1.4849211700171031e+01 0 0 0
275 2 9.5973238379324570e+00 9.3602505697123419e+00 1.0390489274921539e+01 0 0 0
510 2 1.2291609689752576e+00 7.3178439548139995e-01 1.4484415994582562e+01 0 0 0
511 1 -4.0190081327257046e+00 6.5081856710094543e+00 1.4771068701747790e+01 0 0 0
512 2 -4.2219243468842196e+00 5.7127731954270642e+00 1.4358945100834708e+01 0 0 0
513 2 -3.9628084742824647e+00 6.3428068603391576e+00 1.5720266562876972e+01 0 0 0
514 1 -1.0851994976933357e+00 6.5169563497540315e+00 1.4369207576032776e+01 0 0 0
515 2 -9.1747892696207556e-01 5.7251106987511609e+00 1.4950250685612991e+01 0 0 0
516 2 -2.0436960609165307e+00 6.8451436903327059e+00 1.4427923945910907e+01 0 0 0
593 2 8.8960518907938066e+00 1.8918052603700608e-01 1.4624296477703670e+01 0 0 0
519 2 1.8997224212493427e+00 5.4868280601594739e+00 1.8289986677460732e+01 0 0 0
107 2 9.3390920259799319e+00 2.2715267322186827e+00 1.0094647510551516e+01 0 0 0
522 2 2.3960555401948449e+00 4.5923564165247628e+00 1.0522012918376364e+01 0 0 0
807 2 1.2380928064581251e+01 9.9590034616825704e+00 1.5776950807624905e+01 0 0 0
573 2 1.1844024581186797e+01 9.9096921200507226e-02 1.7190629298171586e+01 0 0 0
525 2 -2.1972682794480578e+00 2.5388847244206070e+00 1.0540276334802089e+01 0 0 0
828 2 8.9184729271812522e+00 8.1543142996726754e+00 1.2091842257989258e+01 0 0 0
527 2 -2.8271099113694040e+00 2.7259950867940796e+00 1.8324389603963688e+01 0 0 0
529 1 1.4322580839668078e+00 6.3702002006172345e+00 1.6764219216208524e+01 0 0 0
530 2 1.6875174541442597e+00 5.9570249683601713e+00 1.5895855111984746e+01 0 0 0
531 2 5.0271204903868405e-01 6.5956509781353096e+00 1.6873218201761304e+01 0 0 0
532 1 2.4840813780276942e+00 6.0535680013106727e+00 1.1900989422824878e+01 0 0 0
533 2 3.3759156642673123e+00 6.3861318551844253e+00 1.1828466843066275e+01 0 0 0
534 2 2.2100840724503854e+00 5.7964374198022268e+00 1.2802987332006968e+01 0 0 0
535 1 -2.0812946801782153e+00 1.5244890048591515e+00 1.2163346812673677e+01 0 0 0
509 2 -2.3307622071892897e-01 3.1018716383807410e-01 1.4649208357849801e+01 0 0 0
537 2 -1.1345997285056146e+00 1.3774740977903384e+00 1.2005305149969494e+01 0 0 0
538 1 -2.8168076262662187e+00 1.2563803588516647e+00 1.7006440765634778e+01 0 0 0
539 2 -3.7228375105852143e+00 9.4522411712193510e-01 1.7075153756829344e+01 0 0 0
540 2 -2.6983751457741452e+00 1.6480987357687555e+00 1.6098426125199509e+01 0 0 0
541 1 2.9762134925634358e+00 2.4135911337254110e+00 1.2125099309451961e+01 0 0 0
542 2 3.1822147839379884e+00 1.6970489292757576e+00 1.2821271134729210e+01 0 0 0
543 2 3.2975536454514858e+00 2.1547220358450807e+00 1.1201514318193468e+01 0 0 0
544 1 9.4665529603842291e-01 2.3931196280663949e+00 1.6956165415970467e+01 0 0 0
545 2 6.9456473429878418e-01 1.9556179276476204e+00 1.7821750925290672e+01 0 0 0
546 2 5.6206554694249622e-01 1.7862352422714154e+00 1.6275586052748089e+01 0 0 0
547 1 -3.3607841754356484e+00 5.1168031470433979e+00 1.7078811182291354e+01 0 0 0
548 2 -3.9070604718872541e+00 4.3892457380999499e+00 1.6795225015109501e+01 0 0 0
549 2 -3.7322540862039024e+00 5.4643988397217793e+00 1.7889177703298316e+01 0 0 0
550 1 -1.4928149009570086e+00 4.6323739079924815e+00 1.2139032992561123e+01 0 0 0
551 2 -7.2028725924279735e-01 4.0347847825656213e+00 1.2300589123911200e+01 0 0 0
552 2 -1.3706502008738810e+00 5.3472217840404594e+00 1.2784764919725497e+01 0 0 0
553 1 3.2013395594159659e+00 3.0717839469876491e+00 1.5758080013900166e+01 0 0 0
554 2 2.5103184220336843e+00 2.8371910303191741e+00 1.6485545054695571e+01 0 0 0
555 2 3.8579032587818372e+00 3.5165433226494640e+00 1.6249845035571035e+01 0 0 0
556 1 5.0101301593780523e-01 3.1312386644633237e+00 1.3080341907904829e+01 0 0 0
557 2 1.3453804611241242e+00 2.8529683869072353e+00 1.2560344901974236e+01 0 0 0
558 2 3.4763205694504506e-01 2.4065304504302394e+00 1.3759736807211651e+01 0 0 0
559 1 -3.9559833221759462e+00 3.9528462549546983e+00 1.3241989341200094e+01 0 0 0
560 2 -3.2081813179265244e+00 4.1822498549706015e+00 1.2682888919766965e+01 0 0 0
561 2 -3.4787391591946797e+00 3.4381507847311066e+00 1.3888758360132382e+01 0 0 0
562 1 -8.1345430117840412e-01 4.2626979297801952e+00 1.5912241777266315e+01 0 0 0
563 2 -1.3179420545866094e-01 3.7649733316989766e+00 1.6373217903838444e+01 0 0 0
564 2 -1.4278560951623644e+00 4.6797510941476457e+00 1.6504624508088447e+01 0 0 0
565 1 5.1342241061302705e+00 6.9021706955288282e+00 1.1165386544947744e+01 0 0 0
566 2 4.8554506101230164e+00 7.5770239018718186e+00 1.0465566077373310e+01 0 0 0
567 2 5.4887512000180996e+00 6.1218677008273801e+00 1.0661276645823202e+01 0 0 0
568 1 -1.2117735817868294e+00 7.4186566313563862e+00 1.7436307679457940e+01 0 0 0
569 2 -1.4592317514723607e+00 6.6628523780685436e+00 1.7939590101951183e+01 0 0 0
570 2 -1.0228342757150122e+00 8.0553691913655783e+00 1.8159821532529293e+01 0 0 0
794 2 1.2769120401408731e+01 1.0385295310448400e+01 1.2303897402432403e+01 0 0 0
572 2 -5.4291660941728903e+00 1.4384868334260417e+00 1.7917940085150136e+01 0 0 0
249 2 5.1359285380428954e-01 9.3728154539662700e+00 1.8735328650186396e+01 0 0 0
714 2 1.8172591974593351e+00 1.0234296182935942e+01 1.6716924278443834e+01 0 0 0
576 2 8.9028219909898931e-01 1.0840948191546325e+00 1.1117498202153612e+01 0 0 0
577 1 1.7720010420013832e+00 4.9447531926845762e+00 1.4404958251615456e+01 0 0 0
578 2 1.1603487825182075e+00 4.2531277630282815e+00 1.3915356284297683e+01 0 0 0
579 2 2.3733430247119633e+00 4.2000025306080850e+00 1.4644234439212001e+01 0 0 0
580 1 -2.3977577691418626e+00 2.4785061447879246e+00 1.4653703862375643e+01 0 0 0
581 2 -2.1422199520749632e+00 2.0158960660322389e+00 1.3741393848916793e+01 0 0 0
582 2 -1.7115604155699549e+00 3.1954496018374932e+00 1.4830561287468496e+01 0 0 0
827 2 1.0377613848764607e+01 7.6092339549286780e+00 1.1802817552853346e+01 0 0 0
721 1 3.4621019456703692e+00 1.0553496160606402e+01 1.6079619043184366e+01 0 0 0
589 1 1.2275467702737544e+01 8.5537093258178998e-01 1.4451631786327377e+01 0 0 0
590 2 1.1305096075645528e+01 6.5268159727330988e-01 1.4631933893848936e+01 0 0 0
591 2 1.2551211950850412e+01 1.4388537940139632e+00 1.5155494634673010e+01 0 0 0
592 1 9.5043375838187956e+00 9.7548044099810272e-01 1.4833028516728447e+01 0 0 0
903 2 4.6413974659696846e+00 1.6480545379051509e-01 1.0641879023188958e+01 0 0 0
594 2 9.3844580982115833e+00 1.6235588212711096e+00 1.4102605510023276e+01 0 0 0
595 1 4.9998663086124946e+00 6.3261965019084627e+00 1.4466507779596487e+01 0 0 0
596 2 4.9284384114983384e+00 5.8042275114571140e+00 1.5305498557767015e+01 0 0 0
597 2 5.0955644260097044e+00 5.6487319472608828e+00 1.3781732464302278e+01 0 0 0
598 1 7.7085800704509166e+00 6.3115725603990596e+00 1.4240094667273651e+01 0 0 0
599 2 6.7456844215895435e+00 6.4781578409683442e+00 1.4231468675734517e+01 0 0 0
600 2 7.8743136288082507e+00 6.0060999835044049e+00 1.3378151145971898e+01 0 0 0
824 2 2.5809336300671442e+00 7.7236497513078639e+00 1.7558922640221837e+01 0 0 0
603 2 1.0333026895169599e+01 5.2368068393782163e+00 1.8021643183554119e+01 0 0 0
517 1 2.0153897192518917e+00 5.1321096278244056e+00 1.9203476807621925e+01 0 0 0
605 2 1.1237267144109428e+01 5.0659458882551744e+00 1.0668561677937793e+01 0 0 0
694 1 -3.1518594788758039e+00 1.0128793902127954e+01 1.9257941826203307e+01 0 0 0
526 1 -2.9170754620951072e+00 3.0032501088607670e+00 1.9259300324946871e+01 0 0 0
837 2 1.2265993547984220e+01 9.2232741613207558e+00 1.0545352901009116e+01 0 0 0
609 2 6.4787317272270109e+00 2.0410810977926133e+00 1.0473898913098861e+01 0 0 0
188 2 -5.9300417755639936e+00 9.2185576790001171e+00 1.8922305932271549e+01 0 0 0
611 2 6.1991085760512181e+00 2.1708129530617684e+00 1.8587023847730165e+01 0 0 0