LAMMPS data file via write_data, version 3 Mar 2020, timestep = 6550000

2016 atoms
2 atom types

0.0000000000000000e+00 1.7963886514224413e+01 xlo xhi
-4.0168462542959631e+00 4.9013006231218398e+01 ylo yhi
0.0000000000000000e+00 1.9107629625205853e+01 zlo zhi
4.7617756043328748e-02 -6.6587599080890456e+00 -2.2236842296891268e-02 xy xz yz

Masses

1 16
2 2

Atoms # atomic

1870 1 1.3573144234034196e-01 -3.1818167086702331e+00 1.6749296216864369e+01 1 1 0
1409 2 1.2998720347606078e+01 -4.0130180042471437e+00 3.2384133756686606e+00 -1 0 0
924 2 3.8242592837623715e+00 8.2640977991092335e-01 1.5398392813732189e+01 -4 0 -4
923 2 4.7385017444636359e+00 2.0278540444832798e+00 1.5701330147310985e+01 -4 0 -4
1958 2 7.9379403297777245e+00 6.8327140852783597e-01 1.0850877593534689e+01 0 1 1
1038 2 2.8361692650240213e+00 6.2916886700537411e-02 1.8550316347588844e+01 0 1 -2
852 2 1.5171291713260624e+01 -2.3368012324082592e+00 6.1644741821827225e+00 2 0 3
1037 2 3.9714541519600441e+00 3.3387339760357637e-01 1.7541762959323204e+01 0 1 -2
709 1 6.2721411287373208e-01 9.3961336082348179e-01 1.5722934342404008e+01 -5 0 -3
1036 1 3.6732957426107715e+00 -3.7120827193113337e-01 1.8146774598103306e+01 0 1 -2
897 2 8.7939485821992918e+00 -3.0731172947011118e+00 1.0666632814204686e+01 -2 0 -1
520 1 1.3608406440536935e-01 -1.1296734226561522e+00 6.9405439855440729e+00 -4 0 -2
396 2 1.0451333870472835e+01 -4.3096099347419292e-01 8.0014948877889012e+00 -1 0 -2
834 2 1.2240804058157977e+00 -8.2106459224829331e-01 1.3113273356896920e+01 -3 0 1
1472 2 9.8587479295068370e+00 2.0876867253216664e+00 3.6270550835788624e+00 0 1 1
406 1 6.6159335517412181e+00 2.0285948027319352e+00 2.1674623296979791e+00 -2 0 -1
922 1 4.5589591180527327e+00 1.1140089380551510e+00 1.5982456624434580e+01 -4 0 -4
1322 2 1.1466363499776815e+01 -1.6580251884195136e+00 6.7356532793599202e+00 2 1 0
140 2 -2.9498365085723433e+00 1.1479847249011224e+00 1.8651532475038540e+01 -2 0 -2
1468 1 9.4438577262998180e+00 2.0170128781269687e+00 5.7316591979116165e+00 0 1 0
1470 2 1.0360513111117005e+01 2.0255250917591221e+00 6.0763365925593353e+00 0 1 0
1957 1 8.8658328211230515e+00 4.2095966170402832e-01 1.0886847845148102e+01 0 1 1
718 1 1.2008431910906918e+01 1.6480912936380907e+00 9.6077347807118869e+00 -3 0 -3
1471 1 9.3557039005641123e+00 1.4919352900687022e+00 3.0575811003621451e+00 0 1 1
1009 1 2.8484885346433257e+00 3.0238680602790939e+00 1.2580394101554759e+01 0 0 0
1011 2 2.1236341401014238e+00 2.6229755303939220e+00 1.2005820345995623e+01 0 0 0
954 2 2.8669524859329871e+00 5.7618413311411043e-01 9.1499809952990390e+00 -1 0 1
1959 2 9.1978355746393490e+00 1.1654404817129285e+00 1.1414519447548393e+01 0 1 1
185 2 -7.7014036063489577e-01 -1.6140941541390617e+00 1.4033871161605415e+01 -3 0 -7
647 2 8.0763421677357261e+00 8.8441765451087928e+00 1.1027350763722053e+01 -4 0 -2
296 2 2.8587576066031808e+00 -8.0692671797227966e-01 9.0013100761468057e-01 2 0 3
1193 2 1.0962015864556985e+01 3.2449293905612642e-01 1.8842051178983112e+01 0 1 0
121 1 1.2112095329423502e+01 -3.7842379949041578e+00 1.1153167940553859e+01 -2 0 -1
896 2 7.3302586438532096e+00 -2.4991345239753811e+00 1.0984483737448421e+01 -1 0 -1
1469 2 8.9757968865359192e+00 1.4296150865148309e+00 6.4172028169890831e+00 0 1 0
1886 2 1.5582667504528771e+01 -2.7485397369121998e+00 1.7727148951922354e+00 0 1 1
735 2 8.1597443558573790e+00 -2.8645853275660658e+00 1.7422305899357287e+01 -3 0 -1
719 2 1.1530261538585423e+01 2.4666498226873159e+00 9.7017012250385566e+00 -3 0 -3
395 2 9.6023861326359423e+00 1.1907701696358952e-01 9.0788225134586185e+00 -1 0 -2
1239 2 1.0958498968485941e+01 -2.9273471215898175e+00 5.3560457830752348e+00 1 1 0
1367 2 1.6474752817367304e+00 2.4063602535248005e+00 2.9657616929606223e+00 1 1 0
894 2 9.3120905616003871e+00 -2.5448899354807519e+00 3.1409629057293431e+00 -3 0 -3
710 2 -2.3059980561008686e-01 8.9451311848730075e-01 1.5135575704453515e+01 -5 0 -3
179 2 1.2264992860968626e+01 -2.5311955990619950e+00 1.5555878328548950e+01 -2 0 0
1717 1 1.2183501542836812e+01 1.9512697890657904e-01 1.3557385544975880e+01 0 1 0
104 2 3.5820552166070541e-01 1.2469230002720444e-01 3.4165972965215565e+00 0 0 0
1621 1 5.1421332281967036e+00 -2.1073809979446683e+00 5.3997907764302058e+00 1 0 2
1935 2 7.5389297416371859e+00 -2.5894392940090181e+00 1.3789740483665962e+00 1 1 0
946 1 4.2365424501426547e+00 3.7826335941025135e-02 1.2042607535044613e+01 -1 0 4
892 1 9.2896556028754915e+00 -3.1245452860969452e+00 2.3612907965075260e+00 -3 0 -3
1010 2 2.4703940001156921e+00 3.0386703905016468e+00 1.3424666134761505e+01 0 0 0
733 1 8.2616158956117403e+00 -3.0029218389384957e+00 1.8346773374743250e+01 -3 0 -1
331 1 4.2095017546926909e+00 -1.9519455023995347e+00 8.0267069930924411e+00 0 0 -1
1238 2 1.0288369253049012e+01 -1.6016668314800708e+00 4.9382918455942244e+00 1 1 0
284 2 1.5077092728153634e+00 2.0681716765088787e+00 1.0139073207470055e+01 -3 0 1
947 2 3.7792103105038617e+00 1.2953404257926771e-01 1.2880769619043846e+01 -1 0 4
1426 1 6.9633181581930099e+00 -4.7227539981169864e-01 1.8960706035938635e+01 0 1 -2
948 2 3.5990723449724196e+00 -3.5036481048590984e-01 1.1368642028799560e+01 -1 0 4
1428 2 1.4218657283058818e+01 -1.8012303751240299e-02 5.8333278957990131e-01 0 1 0
915 2 3.3948096110820458e+00 -1.7956045805444512e+00 5.1144798761727017e+00 2 0 4
1192 1 1.0363280598253107e+01 1.1161880709646761e+00 1.8671137094055066e+01 0 1 0
1272 2 3.0133568967570996e+00 -1.0093217367565614e+00 1.4971847208870102e+01 0 1 -1
1373 2 4.1522199757536020e+00 6.4336347906581892e-01 4.6662896264407214e+00 0 1 -2
1676 2 5.0554600053987979e+00 7.5011265906650770e-01 7.3631590953205963e+00 -1 0 2
1473 2 1.0119726465645082e+01 1.1257487096408809e+00 2.5136880487364905e+00 0 1 1
103 1 1.2543589505300339e+00 4.6861002434905785e-01 3.4501290968156288e+00 0 0 -1
787 1 3.6553713752869150e+00 -1.9943393956400430e+00 1.5966250589076786e+01 0 0 0
1271 2 1.8717840730648616e+00 3.1434244689259927e-02 1.5008353950000531e+01 0 1 -1
1270 1 2.6052205881940651e+00 -2.4709164714140597e-01 1.4419689502953256e+01 0 1 -1
1007 2 1.1029548658485579e+01 -3.4141761634175420e+00 4.5445142668884574e-02 -4 0 -3
170 2 1.2270751112000609e+01 3.2692858790954737e-01 2.3005198887721097e+00 -4 0 3
259 1 1.5066275295175270e+01 9.0604196404938264e-01 1.5844916819250945e+00 -1 0 1
818 2 8.5624489938567923e+00 -8.4739133925958621e-01 5.4022316108769060e+00 -2 0 3
351 2 1.3527276017121773e+01 8.9056212842703619e-01 4.6150106026313420e+00 4 0 5
169 1 1.1680973323196536e+01 6.0453623757283026e-01 1.6143246346932332e+00 -4 0 3
871 1 7.7232299010389749e+00 -9.3239723924226769e-01 6.8863682816935752e+00 -2 0 -1
261 2 1.5747750800086813e+01 1.0793460030664646e+00 8.4982815012728419e-01 -1 0 1
394 1 9.6346649424722877e+00 1.0327399366703016e-01 8.1149352633088476e+00 -1 0 -2
1209 2 1.2430060673832623e+01 -1.0851661856997272e+00 4.2359158871837321e+00 0 1 1
1991 2 6.0402839431400892e+00 1.1450820089919578e+00 9.4936494342226911e+00 1 1 -1
1393 1 5.2622834476135747e+00 -2.8557677080061206e-01 3.0732039226949293e+00 0 1 0
1718 2 1.2450068512007260e+01 -1.9389857324257331e-01 1.4387235445685659e+01 0 1 0
24 2 1.6141262041904739e+01 -1.1778201815191234e+00 4.4027156103208442e+00 -2 0 1
524 2 1.2622023580132682e+01 2.4037551754273352e+00 1.0132338872264615e+00 -3 0 -3
171 2 1.1986628419446143e+01 1.7179531381684576e-01 7.7999570042090560e-01 -4 0 3
688 1 1.3607172562226465e+01 -2.8476691333636861e+00 2.2072682464943014e+00 -3 0 0
23 2 -1.4076968671582801e+00 3.4823174731276030e-01 4.5825348603435234e+00 -1 0 1
851 2 1.5797959551038783e+01 -3.2075119733862687e+00 5.0018498409009142e+00 2 0 3
408 2 7.5114463109833904e+00 2.0933968481054332e+00 2.4937771744994852e+00 -2 0 -1
952 1 2.8233033092086965e+00 -3.1280951120096301e-01 9.5609052293650887e+00 -1 0 1
833 2 3.5172520062056645e-01 -6.1613690429536039e-01 1.1918923473565716e+01 -3 0 1
893 2 1.0143008001565891e+01 -2.9323868904410251e+00 1.9200132992639802e+00 -3 0 -3
504 2 -6.1457603438655362e-02 -7.1207107927851343e-02 1.7390804592904502e+01 0 0 0
260 2 1.5659640632481223e+01 6.8354712473742740e-01 2.2927789429929470e+00 -1 0 1
1960 1 2.6272908484523843e+00 -2.3616980425842486e+00 1.8860339542482840e-01 1 1 1
139 1 -3.0300314875322059e+00 1.6161963685698257e+00 1.7777338500643658e+01 -2 0 -2
123 2 1.2017004546584310e+01 -2.8116163959786089e+00 1.1105955645052289e+01 -2 0 -1
1194 2 1.0062985025892571e+01 1.1082318616337714e+00 1.7735975527738297e+01 0 1 1
1429 1 1.2646079921188431e+01 -3.9863452615947037e+00 1.4752215282523668e+01 -1 1 -1
525 2 1.4014842633758214e+01 2.8585661419478630e+00 1.4193353704193417e+00 -3 0 -3
599 2 1.1125304239478972e+01 -2.1806667250755964e+00 1.8998139023471008e+01 -5 0 0
1350 2 5.1786430156295102e+00 -1.7301386673916772e+00 1.5045942878684590e+01 0 1 0
939 2 1.2092929414592692e+01 1.9630083071368842e+00 7.7291491481523016e+00 0 0 0
1992 2 5.5582620423374811e+00 1.0113061171760380e+00 1.1011211741000439e+01 1 1 -1
521 2 -7.4613443344277197e-01 -9.2263193777053054e-01 6.6330810128793303e+00 -4 0 -2
1955 2 5.6617815857166498e-01 -2.9171503708956950e+00 6.6968257877835429e+00 0 1 0
56 2 -2.0947236280407289e-02 -2.6765087170640163e+00 1.1519728209075261e+01 -1 0 1
1845 2 -2.4646357452369716e+00 2.0630121553219647e+00 1.4826455221682025e+01 0 0 0
1207 1 1.3070415329342927e+01 -5.4716863707081265e-01 3.7533608376727097e+00 0 1 1
1647 2 7.2739095884611169e+00 3.9795315647446472e-01 1.7580113250452438e+01 -1 0 -1
953 2 3.3115909848844365e+00 -9.4467004561458356e-01 9.0726300714033101e+00 -1 0 1
283 1 9.1846992436137498e-01 2.0484658740183663e+00 1.0920536144985865e+01 -3 0 1
146 2 -2.7387594264217840e+00 -6.6760813352511672e-01 1.1035213023571826e+01 0 0 1
316 1 -1.3631294064979131e+00 1.7965736512574848e+00 8.7541675452171663e+00 0 0 -1
1008 2 1.0902823605703055e+01 -1.8831269972324036e+00 2.0379440572351970e-01 -4 0 -3
1909 1 -2.3513325540757331e+00 1.4410649865350855e-01 6.7879909376832552e+00 0 1 0
1910 2 1.5030066721545559e+01 7.4854599138860767e-01 6.2252252733124420e+00 -1 1 0
1954 1 5.6128203440600721e-01 -3.9270595077144947e+00 6.5252268643078395e+00 0 1 0
936 2 1.0601551233812735e+01 -7.7389828902169544e-01 1.1541030726763381e+01 -3 0 -1
784 1 4.3818836074278944e-01 -2.9717438601815793e+00 3.6707506246939299e+00 -2 0 0
317 2 -1.6150451289538317e+00 1.1832237746311298e+00 8.0333431725918327e+00 0 0 -1
1032 2 4.8825310279289926e+00 -3.1616555727252162e+00 1.3604872878941448e+01 0 0 2
382 1 2.4154132032825837e-01 -4.6941531353023302e-01 9.8466324147523601e+00 0 0 0
720 2 1.2904103976465420e+01 1.8950337277258402e+00 9.9197908497631371e+00 -3 0 -3
318 2 -2.0703312624310408e+00 2.1217417699181143e+00 9.2840426022474603e+00 0 0 -1
1965 2 -2.5546536504712103e+00 -1.0284079454984671e+00 1.6406469718937153e+01 0 1 0
895 1 8.0546629280262660e+00 -3.0987037160859949e+00 1.1313752163677822e+01 -2 0 -1
538 1 5.8326776128581450e+00 3.0230507189176192e+00 1.3099847485396081e+01 -3 0 -4
290 2 8.5179939224676460e+00 -6.3747119416213494e-01 1.3189348397800842e+01 1 0 4
180 2 -4.8047400358277415e+00 -1.3103763053573534e+00 1.6102514199250244e+01 -1 0 0
1922 2 1.0630828156252552e+01 3.3670415994796254e-01 1.5517217023820068e+01 -1 1 0
297 2 2.4301886595109581e+00 2.8526744835376050e-01 1.9088367395345782e+00 2 0 3
819 2 9.1230177933525081e+00 -6.6322153481914725e-03 4.1557200393485987e+00 -2 0 3
1372 1 3.9961463791706517e+00 1.3950861318965053e+00 5.2665017799489222e+00 0 1 -2
1921 1 1.0494723443158264e+01 1.1374454334405799e+00 1.6011454541539667e+01 -1 1 0
203 2 5.4998538416674343e+00 -1.8993416674492445e+00 9.5021104360170572e+00 -3 0 1
98 2 8.0217235222906460e+00 8.5316350516626009e+00 7.5585774307777696e+00 0 0 0
685 1 -3.3481107561628343e+00 5.1458814548753296e-01 1.2178903707628075e+01 -1 0 1
789 2 3.1526460068104951e+00 -2.8905752903937429e+00 1.6064630933539611e+01 0 0 0
687 2 -2.7558779024776570e+00 6.2184037277971083e-01 1.2927099521994185e+01 -1 0 0
1168 1 3.4088467485546632e+00 8.7046730776229886e+00 4.2637800919023165e+00 1 0 -1
694 1 1.0195872514061563e+01 1.9964936359900145e+00 1.2672645798991290e+01 -2 0 -1
934 1 1.1497015272361995e+01 -1.0345803114670873e+00 1.1306646315270811e+01 -3 0 -1
1923 2 9.9625020061287373e+00 1.6285864893067501e+00 1.5359670118918554e+01 -1 1 0
184 1 -1.2770824381999359e+00 -2.0525386291019534e+00 1.4796316729080516e+01 -3 0 -7
503 2 -4.1861949585420000e-02 -1.0876923424147051e+00 1.8652883444943573e+01 0 0 1
1871 2 1.0024652848361448e-01 -2.3676077826973958e+00 1.7248704197991461e+01 1 1 0
1374 2 3.0668414670723423e+00 1.4099395675807198e+00 5.3828319406400675e+00 0 1 -2
1719 2 1.1760528011265873e+01 -5.4224315005412116e-01 1.3046093131745815e+01 0 1 0
817 1 9.0775778330199373e+00 -9.4286434141029218e-01 4.5310845545429776e+00 -2 0 3
935 2 1.1696559942375440e+01 -5.6619831230980244e-01 1.0452591805573467e+01 -3 0 -1
1427 2 7.3175381741978276e+00 -1.3400045547137451e+00 1.8734279502405879e+01 0 1 -1
1872 2 -5.6195576677620895e-01 -3.1276265278976503e+00 1.6025167668615296e+01 1 1 0
598 1 -6.3610384679554546e+00 -1.4220820721902299e+00 1.8724023022423626e+01 -4 0 0
600 2 1.1593569933564094e+01 -1.5479573690738788e+00 1.7732736249642649e+01 -5 0 0
165 2 1.3979950194218388e-01 2.4557836357272862e+00 2.5204302036370552e-01 2 0 1
1014 2 5.5570829181472732e+00 4.1331885840690052e+00 9.4315304413794010e+00 0 0 0
105 2 1.7143950316301177e+00 -2.3085544554174753e-01 3.9695811132431400e+00 0 0 0
392 2 7.6325232427504970e+00 -2.1140375358786070e+00 1.5174037617846361e+01 -2 0 0
291 2 9.1003753946045070e+00 -1.9886104325381679e+00 1.2574738079330452e+01 1 0 4
1349 2 5.9573899395805094e+00 -1.1220724177457884e+00 1.3835431007112371e+01 0 1 0
1675 1 5.8893982578973088e+00 9.2966708753454341e-01 7.7127503296135238e+00 -1 0 2
391 1 8.4948800513593810e+00 -2.4213630180032188e+00 1.5491034271313028e+01 -2 0 0
903 2 1.5026622491677751e+01 -4.4856597556586930e-01 7.2982299096007601e+00 -1 0 0
393 2 9.0183262377343212e+00 -1.9282814045283927e+00 1.4807134265205931e+01 -2 0 0
60 2 1.4235236727203748e+00 4.7846145987571820e-01 6.4737230644751023e+00 -2 0 2
58 1 1.6913593824812110e+00 1.4040837499129699e+00 6.6776510595924110e+00 -2 0 2
22 1 1.6468608201313039e+01 -3.5803585525977821e-01 3.8917236983568908e+00 -2 0 1
1286 2 1.4343551087984162e+01 -3.6416720292855720e+00 8.1859844271830795e+00 0 1 0
1006 1 1.1362734375824465e+01 -2.6694868247326955e+00 5.5739151423684519e-01 -4 0 -3
384 2 9.3029738117010652e-02 5.2379186766589747e-01 9.8652215635543854e+00 0 0 0
25 1 2.9307258222041987e+00 2.2143007205740473e+00 8.7855663097355734e+00 -3 0 -2
26 2 2.6214250049431129e+00 1.9283586709145393e+00 7.9048324236933825e+00 -3 0 -2
285 2 4.6505683902946959e-01 2.9411538086926043e+00 1.0919635775153854e+01 -3 0 1
27 2 3.6598592189942085e+00 2.8818135571840200e+00 8.7408174878218059e+00 -3 0 -2
383 2 1.2264914728654834e+00 -6.1181817342132661e-01 9.7299337338686449e+00 0 0 0
57 2 2.0404706135953798e-01 -2.6048392553680437e+00 9.9761395342553385e+00 -1 0 1
144 2 1.2574988856372094e+01 8.9878669300149721e+00 3.6306368722070950e+00 2 0 0
289 1 9.2594527160871962e+00 -1.3126966025885145e+00 1.3236549480015533e+01 1 0 4
1348 1 5.8633496811615258e+00 -1.8987421274649003e+00 1.4363293685125985e+01 0 1 0
540 2 4.9072848814382946e+00 2.7447778647710459e+00 1.2758921655147869e+01 -3 0 -4
263 2 -4.9582834796948978e+00 3.1840691476341672e+00 1.6003797435426240e+01 -1 0 1
1645 1 7.1791637317859962e+00 6.3122172542949251e-01 1.6606709820157036e+01 -1 0 -1
433 1 -3.4866419362117558e+00 2.4643262304569964e+00 1.0339731248976205e+01 0 0 -1
502 1 -5.2223722467874722e-01 -7.9576508793629541e-01 1.7895402217295903e+01 0 0 0
178 1 1.2251757794229210e+01 -1.6154527605521283e+00 1.5940656446176153e+01 -2 0 0
689 2 1.2852145336962764e+01 -2.7803826655646757e+00 1.6110489268416532e+00 -3 0 0
431 2 7.0667101165888218e+00 6.7310794926068329e-01 1.4522866346444671e+01 0 0 2
522 2 1.2279717550845426e-01 -8.9662464190048041e-01 7.8748832478600290e+00 -4 0 -2
147 2 -1.5522375195776812e+00 -1.0727116674493313e+00 1.0235802791013828e+01 0 0 1
686 2 -4.2843387867273517e+00 4.1719782770720748e-01 1.2544886025232787e+01 -1 0 0
333 2 4.4930986479467805e+00 -1.8360062527563317e+00 7.1408747169325197e+00 0 0 0
1885 1 1.6407772976548234e+01 -2.2522182381775977e+00 1.8532755220569028e+00 0 1 1
432 2 6.4983516234913967e+00 1.1514654449129322e+00 1.3231267301497418e+01 0 0 2
1964 2 -3.2944922305635678e+00 2.2628983831932281e-01 1.6921507089824754e+01 0 1 0
1622 2 5.2834929945738969e+00 -1.4914020560198180e+00 4.6315984269358417e+00 1 0 2
1208 2 1.3942803367405766e+01 -8.2634875654802986e-01 4.0690200922610344e+00 0 1 1
264 2 1.1708794504485601e+01 2.5472936337852632e+00 1.6427455284003187e+01 -2 0 1
898 1 9.8060367593758837e+00 -3.3343229343954057e+00 8.9210687405900799e+00 0 0 3
435 2 -3.5616178748676002e+00 3.3312341099231517e+00 1.0727117757080485e+01 0 0 -1
696 2 1.1018808804542367e+01 1.5231819688757575e+00 1.2935954531488898e+01 -2 0 -1
350 2 1.3312905827721794e+01 1.9344416798608215e+00 5.7315282652565553e+00 4 0 5
1844 2 -2.4916923716867876e+00 4.7179936270146516e-01 1.5097031656416700e+01 0 0 0
1646 2 6.2308274415151939e+00 6.1774874045414485e-01 1.6539630306300122e+01 -1 0 -1
690 2 1.3692609677780840e+01 -1.9070972112666649e+00 2.4347468012109257e+00 -3 0 0
1961 2 -4.9190767940839368e+00 -2.1276375852384484e+00 1.8956262688880194e+01 1 1 0
711 2 1.0771871499635575e+00 1.8155988503239398e+00 1.5586675084448942e+01 -5 0 -3
913 1 2.5856399975921462e+00 -1.4221500549407606e+00 4.8226827826932208e+00 2 0 4
186 2 -1.8976088642361479e+00 -2.6958221136686014e+00 1.4402469427161114e+01 -3 0 -6
2005 1 1.4206559300256000e+01 -1.7144832662423095e+00 8.0966786927467727e+00 0 1 0
204 2 5.7715232338033671e+00 -1.1196617146912593e+00 1.0777715639170365e+01 -3 0 1
295 1 3.2365277023386936e+00 4.2010931362471915e-02 1.2952212840291131e+00 2 0 3
145 1 -2.4776966456518705e+00 -1.2576140712993720e+00 1.0367097435923579e+01 0 0 1
2007 2 1.4667485397303144e+01 -1.4661005745739035e+00 8.9622947028061510e+00 0 1 0
299 2 6.9037136665260501e+00 2.4782558148594909e+00 1.7084700372064173e+01 -3 0 -3
1623 2 5.3695559352754501e+00 -2.9985649971372426e+00 5.0305142527710025e+00 1 0 2
262 1 -5.6684856436567754e+00 3.2959394796277577e+00 1.6618174131384272e+01 -1 0 1
1843 1 -2.0631945979556741e+00 1.2015507082868355e+00 1.4572761845564429e+01 0 0 0
1237 1 1.1187902357954044e+01 -2.0145696685523693e+00 5.1633571478555682e+00 1 1 0
1963 1 -3.3440780983927350e+00 -5.0771230328316852e-01 1.6265136394417727e+01 0 1 0
832 1 4.5487184515843015e-01 -1.2069474634375834e+00 1.2633876412600156e+01 -3 0 1
1677 2 6.4680508420594176e+00 1.8465534332142575e-01 7.3544501436407703e+00 -1 0 2
141 2 -2.0783828087998613e+00 1.8526208863034217e+00 1.7514635661808036e+01 -2 0 -2
349 1 1.3879732153598626e+01 1.7080981325228590e+00 5.0063392506007576e+00 4 0 5
1962 2 2.3342930104064412e+00 -2.8462535964311622e+00 9.5349939589993071e-01 1 1 1
1990 1 6.3117572804944491e+00 1.3033731564646454e+00 1.0423071423303162e+01 1 1 -1
430 1 7.1282505216694858e+00 5.1935439350283996e-01 1.3562552031433990e+01 0 0 2
434 2 -3.2284924675933357e+00 1.8858035650859080e+00 1.1088190500350843e+01 0 0 -1
1394 2 4.5223208603618943e+00 -3.0882648049736705e-01 2.4633167310307744e+00 0 1 0
2006 2 1.3250892691687293e+01 -1.6900137335738723e+00 8.2398166359332485e+00 0 1 0
788 2 3.6896767289362096e+00 -1.5114577271134508e+00 1.6734395544348200e+01 0 0 0
1395 2 5.8388675729027035e+00 3.7810617520840406e-01 2.6934307600359664e+00 0 1 0
785 2 1.0083609253787438e+00 -3.6184226408239679e+00 3.1641544233263472e+00 -2 0 0
850 1 1.5380639666297842e+01 -2.2572386610879107e+00 5.2137848322336184e+00 2 0 3
1934 2 6.3599829566999055e+00 -1.6530986743914116e+00 1.8928607873247933e+00 1 1 0
1323 2 1.1009098189430171e+01 -2.3955265074310077e+00 8.0858733853516167e+00 1 1 0
1390 1 7.7842381994379961e+00 -3.6940243094607510e+00 7.2987590378442793e+00 1 1 0
914 2 1.9319178312873830e+00 -2.1037371668361082e+00 4.6132536272114040e+00 2 0 4
1321 1 1.1610923646012642e+01 -1.6812063800066555e+00 7.7503262352338984e+00 2 1 0
786 2 -2.1480196922759609e-01 -2.6743028154291446e+00 3.0189649577914004e+00 -2 0 0
332 2 3.8306371183398982e+00 -2.8373332887808607e+00 8.1515018087820685e+00 0 0 0
202 1 5.7807980721461307e+00 -1.9938449684734381e+00 1.0429983867288835e+01 -3 0 1
872 2 8.4112971347687058e+00 -8.2920004502848954e-01 7.5869760715283636e+00 -2 0 -1
429 2 -2.4372963152484091e+00 -3.4265894231610803e+00 1.0818900283966599e+01 0 0 1
1170 2 2.5421515611103604e+00 8.7308147247358097e+00 3.7867281537846487e+00 1 0 -1
734 2 9.1856227098776202e+00 -3.2059153577488373e+00 1.8615885771791000e+01 -3 0 -1
55 1 4.9675201088072996e-04 -3.2139758946013943e+00 1.0679990467465165e+01 -1 0 1
873 2 7.5489490822776091e+00 -1.9106036072000068e+00 6.9762867312159607e+00 -2 0 -1
1933 1 6.7608572540213290e+00 -2.1101281255941613e+00 1.1001098492133676e+00 1 1 0
802 1 8.6729723661485743e+00 7.6934796109865662e+00 1.2544019406539725e+01 -3 0 -1
899 2 9.1501792955884103e+00 -3.6338378284323354e+00 8.2916909175441020e+00 0 0 3
1887 2 1.6156370058866440e+01 -1.3867406156426503e+00 2.1844783799938248e+00 0 1 1
1674 2 3.6293257407403274e+00 9.0287459038436157e+00 1.7077955870167390e+01 -1 0 0
1405 1 1.0321466965554837e+01 8.3667942398902078e+00 4.8590288718328987e+00 0 1 0
1291 1 7.0506188854409153e+00 7.1292538040345583e+00 1.6528265124971863e+01 0 1 -2
1169 2 3.2181902617231857e+00 8.1817111190287850e+00 5.0701403937897798e+00 1 0 -1
1077 2 -2.4282249813755032e+00 7.3942957291900218e+00 1.2955256626333457e+01 -1 0 1
8 2 1.0322175628898696e+01 3.9981064772791655e+00 1.8373432695969569e+01 -1 0 -2
1975 1 1.5720150904477741e+00 7.9622178846959351e+00 9.5119756884998523e+00 2 1 0
592 1 -2.3525104181918568e+00 8.4485535435403101e+00 1.1599334721510811e+01 -3 0 -1
374 2 1.2515806314905358e+01 6.2746157491470065e+00 1.3898998783379636e+01 0 0 1
937 1 1.2021914423519338e+01 2.4650797044872856e+00 6.9162248835188347e+00 0 0 1
750 2 4.7851957848766489e+00 2.7304821932766501e+00 4.5869559285244561e+00 -2 0 2
88 1 2.3634649851680933e-01 8.3566563378652532e+00 1.4976965074815206e+01 -3 0 0
38 2 7.2885791488268703e+00 5.8595812140087222e+00 1.5182425761875942e+01 -5 0 -3
1292 2 7.1614742705925574e+00 7.8449875954926611e+00 1.5879544354892710e+01 0 1 -2
748 1 5.4745874219167678e+00 3.3483518419529599e+00 4.2835304705616943e+00 -2 0 2
90 2 -5.7817086295115949e-01 7.9341379623535584e+00 1.4714575502142356e+01 -3 0 0
938 2 1.1897649645236239e+01 3.3709767722634973e+00 7.2221848586048276e+00 0 0 0
1242 2 1.4428750385667509e+01 6.1235094040418669e+00 1.6003161811262043e+00 0 1 1
142 1 1.2948590272807149e+01 8.0540734040441713e+00 3.5475169892598823e+00 2 0 0
407 2 6.1473477764140823e+00 2.6238498738857023e+00 2.8303447105976751e+00 -2 0 -1
7 1 9.3817141647676969e+00 4.2975123597829707e+00 1.8263234736537569e+01 -1 0 -2
1241 2 1.3457695197050858e+01 7.2888321944074637e+00 1.9619226511764054e+00 0 1 1
874 1 8.7715176348849133e-01 8.7494446251961548e+00 3.6528740404428555e+00 -4 0 1
578 2 1.2193809995062651e+01 6.6844952310477481e+00 9.9837609591225576e+00 -1 0 0
803 2 9.4219627003249435e+00 7.3214366218892337e+00 1.2000393488443983e+01 -3 0 -1
1253 2 1.1145388329884673e+01 8.5158555575467165e+00 6.6442552057769273e+00 0 0 0
593 2 -2.3112047200859234e+00 7.9303172184146025e+00 1.0770928890731160e+01 -3 0 -1
323 2 8.3256829824745981e-01 6.5773208278171111e+00 1.6584076006499757e+01 2 0 -3
79 1 8.6325804218955238e+00 8.3079558886798157e+00 1.8633776914342732e+01 -5 0 0
1056 2 5.9528949862670615e+00 7.4983288817743787e+00 7.3084809406607540e+00 0 0 0
99 2 8.3485117898550847e+00 7.0418104624484261e+00 7.9517880609749820e+00 0 0 0
37 1 7.2282077979233366e+00 4.9368660608958326e+00 1.4890385794036655e+01 -5 0 -3
1673 2 4.1799811782278180e+00 7.6779706742649587e+00 1.7910768142206305e+01 -1 0 0
1952 2 1.0314391368611716e+01 3.1809937075565369e+00 1.1291502922060006e+01 0 1 -1
1071 2 3.4539340991540852e+00 7.1345620709957291e+00 1.5757505144028183e+01 0 0 -1
706 1 2.9784969834506883e+00 8.7539816858273749e+00 2.9356061322202015e-01 0 0 0
61 1 -4.8047887555007585e-01 6.5164738758956844e+00 2.2732120319072906e+00 -3 0 -2
1053 2 8.1474395693453907e+00 4.8583161111613204e+00 8.6576926680622766e+00 0 0 0
1953 2 9.1671923335958230e+00 3.6120772701724722e+00 1.0483179833494244e+01 0 1 -1
471 2 6.3224819420453837e+00 5.9353190119694013e+00 1.2003182934186938e+01 -7 0 -1
912 2 7.2738722336568840e+00 6.7752179052517203e+00 5.3341144599094603e+00 0 0 2
674 2 -2.7712771599167008e-01 4.9600548197937009e+00 1.1982706428742659e+01 -1 0 -4
143 2 1.2560426686541145e+01 7.4880987836239488e+00 4.2047990168711458e+00 2 0 0
1985 2 7.7517607019822119e+00 8.0059838349209969e+00 1.6690435912639445e+00 0 1 0
1069 1 3.4323086710579567e+00 6.5861443844569791e+00 1.4942907334952958e+01 0 0 -1
942 2 1.4644745351311101e+01 8.2668205159097106e+00 4.1824955653622249e+00 -3 0 1
707 2 3.5684590253443078e+00 8.1914662161802347e+00 8.5479315526635280e-01 0 0 0
1750 1 -3.3389341412507627e+00 3.5010545027124733e+00 1.4640020198462244e+01 -2 0 0
1986 2 7.5960726965064262e+00 7.6056597934660957e+00 3.2428197496598319e+00 0 1 0
583 1 1.0647975664463290e+01 6.9211802027243312e+00 2.2074982684481390e+00 -4 0 -4
579 2 1.2262101525620793e+01 7.6506383998522516e+00 8.7565499596435536e+00 -1 0 0
470 2 7.1033164547428900e+00 4.9102147510262206e+00 1.2944946769202318e+01 -8 0 -1
845 2 -4.4720590015544737e+00 8.0101314446143874e+00 1.5922838398053742e+01 1 0 0
1752 2 -2.9964359887597767e+00 4.3210338988869541e+00 1.5074875569640820e+01 -2 0 0
1889 2 5.7670625576338086e+00 6.3193090775131626e+00 1.7702876371882873e+01 1 1 1
9 2 9.1929909769121601e+00 3.6920280077177896e+00 1.7482918975251788e+01 -1 0 -2
523 1 1.3212884330557252e+01 3.1759619027482842e+00 1.0033918032217186e+00 -3 0 -3
1240 1 1.3774538445390000e+01 6.7394782125259951e+00 1.1955946175487364e+00 0 1 1
1802 2 3.3761159988850702e+00 6.1340625850461663e+00 4.9721786063533049e+00 1 0 -1
844 1 1.2521987768054576e+01 8.1368841352560661e+00 1.5574094616086228e+01 0 0 0
749 2 5.0785917366006466e+00 4.2078085817900135e+00 4.0476218546047074e+00 -2 0 2
1252 1 1.1039156864324044e+01 8.8117442111435160e+00 7.5626301332940606e+00 0 0 0
375 2 1.2884256090914434e+01 7.5116068180015780e+00 1.3086110614387165e+01 0 0 1
941 2 1.5641255607956690e+01 8.2921418232203301e+00 3.0744349092483638e+00 -3 0 1
1951 1 1.0083607070409588e+01 3.8088677479116582e+00 1.0610322196475350e+01 0 1 -1
1146 2 2.2477413313981702e+00 6.3750542847749099e+00 8.6118839708865718e+00 2 0 0
321 2 1.1074572984489963e+01 6.0684945705101292e+00 1.5756963067890696e+01 -4 0 -2
314 2 1.5820478009852042e+01 7.0662847459704334e+00 5.1457418643448554e+00 -3 0 -2
1981 1 3.2997435803436046e+00 5.0304917803152662e+00 3.4607797409952483e+00 1 1 -1
315 2 1.5831260615951589e+01 5.5561846036126319e+00 5.5520569247563563e+00 -4 0 -2
313 1 1.5475892137219864e+01 6.4561023755130496e+00 5.8494611922471620e+00 -3 0 -2
1983 2 2.7574206161052772e+00 4.3905920796802835e+00 2.9822686918418748e+00 0 1 -1
1982 2 3.3713099483325291e+00 5.8648181393013079e+00 2.9348579121994631e+00 1 1 -1
1354 1 5.7200484364848760e+00 5.0504418137474172e+00 8.3256714741519999e-01 1 1 0
1052 2 7.6493361214926221e+00 4.6040656895213523e+00 7.2464427194487868e+00 0 0 0
1051 1 8.3437560172127032e+00 5.1333161666254004e+00 7.7296963279301849e+00 0 0 0
94 1 4.4487013899476624e+00 4.2077289652925334e+00 1.5358948969490889e+01 0 0 0
324 2 5.5197022440047938e-01 6.9566078066779138e+00 1.8018966549094781e+01 2 0 -3
673 1 -8.3968708354444077e-01 4.4778559701633451e+00 1.1365002567074006e+01 -1 0 -4
96 2 4.8318408742636061e+00 4.3099485588771689e+00 1.6221370051772716e+01 0 0 0
1355 2 6.5313563112516384e+00 4.7476094687698698e+00 1.3045740373148227e+00 1 1 0
1140 2 -3.4898798677384875e+00 3.1053985417191985e+00 1.8548749972780115e+01 -2 0 -3
1139 2 3.8453183687178085e+00 4.3298656939825531e+00 2.2873054059237227e-01 -2 0 -2
1984 1 7.3674305191976996e+00 8.2582700672155109e+00 2.5457057823638647e+00 0 1 0
1579 1 -2.8450623324392605e+00 7.9055038964341122e+00 1.6070767619138149e+01 0 0 0
271 1 1.0352258806343398e+01 6.6512686461056063e+00 1.7262364938597202e+01 -1 0 -2
966 2 6.4870367759938468e+00 8.1379765375857946e+00 9.3851713018730045e+00 -1 0 0
1366 1 1.3431296660040644e+00 3.3326898787127286e+00 2.9932248996505662e+00 1 1 0
1368 2 9.7578800637688723e-01 3.5143277549117853e+00 2.0870659777973679e+00 1 1 0
1075 1 -2.2446470949397188e+00 6.8080310252754970e+00 1.3714986337598045e+01 -2 0 1
1580 2 -2.0819911395903605e+00 8.4879173157186383e+00 1.6315192943432496e+01 0 0 0
322 1 3.8891963383662986e-01 6.1995484085556409e+00 1.7394909211688784e+01 2 0 -3
1581 2 -2.5981253147426919e+00 6.9520420403973251e+00 1.6439672653451186e+01 1 0 0
1641 2 4.3866051901323404e+00 9.1132693126690061e+00 1.3326942975960556e+01 -1 0 0
932 2 6.2905020463688883e+00 2.3870142703631929e+00 2.3417832722344958e-01 -1 0 0
1093 1 7.5027436625748001e+00 9.1566543036192645e+00 1.4503712853590594e+01 -1 0 -2
1454 2 5.5810764068543017e+00 -3.6386431897916980e+00 1.5366265409472943e+00 1 1 0
97 1 8.5491937156910858e+00 7.9515618987949832e+00 8.1654595528379623e+00 0 0 0
1118 2 1.0409851120976139e+01 5.5196464902387099e+00 1.1033574741801930e+01 -4 0 -1
931 1 -4.2286096800131823e-01 2.6345534913782052e+00 1.8444187656342738e+01 -1 0 -1
989 2 -1.1116139405953227e+00 3.6503903224649621e+00 8.8115442047395423e+00 0 0 0
163 1 3.2752315016369410e-01 3.3611273951805352e+00 4.4550008242827710e-01 2 0 1
164 2 -5.5911492335565072e+00 3.5030018514339352e+00 1.8958217716186468e+01 2 0 1
1340 2 -7.7964090209255743e-01 7.1200628061321769e+00 7.1561191085411320e+00 1 0 1
800 2 1.3850157741660873e+01 6.0752984089599966e+00 5.3957333671734089e+00 -1 0 -3
1254 2 1.0116785796441768e+01 8.4476453084977638e+00 7.8303532859615279e+00 0 0 0