LAMMPS data file via write_data, version 3 Mar 2020, timestep = 1000000

1008 atoms
2 atom types

2.2444635613970476e-01 1.8175108643854969e+01 xlo xhi
-1.2485070205057625e-02 2.2582874070196986e+01 ylo yhi
1.7956200893013730e-01 1.9326153991064782e+01 zlo zhi
8.9507585902283193e-02 -6.6728362238563248e+00 8.1001886730171113e-02 xy xz yz

Masses

1 16
2 2

Atoms # atomic

1 1 6.3861022249242945e+00 1.2528571395999293e+00 4.8426067263516703e+00 0 0 0
69 2 1.4683537855563056e+01 4.0613858501626998e-01 7.7085920618962724e+00 0 0 0
3 2 6.6902286783996709e+00 1.5369075180975602e+00 3.9862790927978540e+00 0 0 0
4 1 3.5972318442555888e+00 9.2824572926196969e-01 4.8077340079185404e+00 0 0 0
5 2 4.5817170018284665e+00 7.8480932992808461e-01 4.5847065050024574e+00 0 0 0
6 2 3.5929267848096051e+00 1.3858741951531022e+00 5.6843888724825060e+00 0 0 0
7 1 -4.6458039321013755e-01 6.4644620300135340e+00 5.1385463759534664e+00 0 0 0
8 2 -3.1188615176423617e-01 6.3504874211836828e+00 6.1068987603190301e+00 0 0 0
10 1 2.4009449795689672e+00 6.4986079845655285e+00 4.6076131814444423e+00 0 0 0
11 2 1.4476602762508439e+00 6.7140131902777460e+00 4.6504990088198337e+00 0 0 0
12 2 2.7378318360965661e+00 7.2786384162736057e+00 4.9921133768813366e+00 0 0 0
70 1 3.5695151735455739e+00 4.7703952622335838e-01 1.6617780448907524e+00 0 0 0
14 2 4.9742044337424876e+00 5.4023292453838181e+00 8.6918212891702229e+00 0 0 0
302 2 1.4925776651618907e+01 1.0805210922152407e+01 7.4726611106586818e+00 0 0 0
587 2 -1.5695007346661514e+00 6.6434809243118664e+00 9.5816542413155972e+00 0 0 0
18 2 5.6105793109145985e+00 5.3635772621442408e+00 1.5109737267997372e+00 0 0 0
304 1 1.2862930988561073e+01 1.0825740009760448e+01 3.8884245147611605e+00 0 0 0
330 2 9.0953560273016798e+00 1.0367848822800605e+01 4.6220212299122689e+00 0 0 0
21 2 9.8841877822392887e-01 2.3243497273440492e+00 1.0406947614207169e+00 0 0 0
777 2 6.0840362531548315e+00 1.1183976389387965e+01 9.7462788170239918e+00 0 0 0
13 1 5.1134577217702981e+00 4.8105580423463579e+00 9.4779279342618210e+00 0 0 0
254 2 1.5610599446001116e+01 9.5653423358653864e+00 5.6591428594873570e+00 0 0 0
25 1 4.7441523451603107e+00 6.5369623062274531e+00 7.3749458676210402e+00 0 0 0
26 2 5.4317170011930909e+00 7.2118448975379783e+00 7.6545351122733924e+00 0 0 0
27 2 3.7796588555718156e+00 6.8176910415479908e+00 7.5506996733557630e+00 0 0 0
28 1 5.8173365822964778e+00 6.5737497362267749e+00 2.7874940580810597e+00 0 0 0
29 2 5.7330516230595840e+00 6.3388767214038024e+00 3.7882529882683609e+00 0 0 0
30 2 5.0616115247935074e+00 7.1952211909915640e+00 2.5190724684832282e+00 0 0 0
31 1 1.0005179673819535e+00 1.2600692904372908e+00 2.6105953571917824e+00 0 0 0
32 2 1.9447979115155580e+00 9.3289386770917082e-01 2.4523252014967207e+00 0 0 0
33 2 9.0206377275505600e-01 1.6314054711016164e+00 3.5156308844757045e+00 0 0 0
34 1 1.5622877825879167e-01 8.7436052515164087e-01 7.2327090369440663e+00 0 0 0
35 2 -8.2874121252541744e-01 7.0103876501031848e-01 7.4207696464816619e+00 0 0 0
36 2 4.4182581583076930e-01 1.3133223982379403e+00 7.9874078212797830e+00 0 0 0
37 1 6.6157267620553153e+00 2.3121975341741567e+00 2.2983077324637891e+00 0 0 0
38 2 5.7056796925339164e+00 2.6878852186505977e+00 2.4838193534092237e+00 0 0 0
39 2 7.1440598220568274e+00 3.1122788563537407e+00 2.6023232968089620e+00 0 0 0
40 1 3.8397238227530672e+00 2.6337139011241502e+00 7.1610686718216359e+00 0 0 0
41 2 4.7804976027151564e+00 2.9243714757496888e+00 7.0201652845236273e+00 0 0 0
42 2 3.3117240221192850e+00 3.4164905836403827e+00 6.8802803975934621e+00 0 0 0
43 1 -1.1815694777641506e-01 5.2075067492742502e+00 7.5410271131716149e+00 0 0 0
44 2 -8.3720210852586807e-01 4.5930776524044941e+00 7.1212935573098441e+00 0 0 0
45 2 -3.7627647430762856e-01 5.5196119869269546e+00 8.5029208398241813e+00 0 0 0
46 1 1.5557756397548603e+00 4.6062129366234830e+00 2.4201670913487230e+00 0 0 0
47 2 6.1402659054064568e-01 4.5295210787358648e+00 2.7065247095281810e+00 0 0 0
48 2 1.9180629420086319e+00 5.2666386780104961e+00 3.0740309899810709e+00 0 0 0
49 1 6.5531563399593313e+00 3.3410582020155815e+00 6.5129979850316815e+00 0 0 0
50 2 6.2523589188716002e+00 4.1484262808889678e+00 6.0548740912083039e+00 0 0 0
51 2 6.5008331167467484e+00 2.6400356405998000e+00 5.8529950899885810e+00 0 0 0
52 1 4.2670367358990955e+00 3.3543518717586758e+00 3.3266764065629513e+00 0 0 0
53 2 3.5263141388602492e+00 3.5612758676508376e+00 2.7732662936239008e+00 0 0 0
54 2 3.8012767268475227e+00 2.6959419328272651e+00 3.8839148658291149e+00 0 0 0
55 1 -8.1153086179495726e-01 4.3116775715112858e+00 3.5292327775743133e+00 0 0 0
56 2 -7.9439363560090559e-01 5.0818825162377568e+00 4.1313159262760069e+00 0 0 0
57 2 -5.1143282641896615e-01 3.5781846615415867e+00 4.1058066873717074e+00 0 0 0
58 1 2.0602696421624040e+00 4.3902921781706219e+00 6.0738224681705333e+00 0 0 0
59 2 2.2920323996705911e+00 5.1673451939933939e+00 5.5042865707688788e+00 0 0 0
60 2 1.3319486348393794e+00 4.6784762926725882e+00 6.7217899496960749e+00 0 0 0
61 1 8.3283652125205734e+00 7.1314159808649453e+00 1.7848051619852805e+00 0 0 0
62 2 7.5647278634354098e+00 7.1749511247505069e+00 2.4334640223264499e+00 0 0 0
63 2 8.2521926368550815e+00 6.3458484193062850e+00 1.2247025824663544e+00 0 0 0
64 1 2.4568187523139509e+00 6.9508819110266407e+00 8.6660820201737110e+00 0 0 0
65 2 1.8044741332118570e+00 7.1922856253284859e+00 7.9292231527013710e+00 0 0 0
66 2 2.4649671501967507e+00 7.8052418563155967e+00 9.1550908980195604e+00 0 0 0
117 2 9.4689993696058981e+00 4.8086065914615855e-01 2.5392473650349467e+00 0 0 0
68 2 -2.5702273710755605e+00 1.5615631714701388e+00 8.5883329756648799e+00 0 0 0
521 2 2.3273769961667279e+00 5.3656296712664364e+00 9.3442530033129856e+00 0 0 0
72 2 3.7550558278176673e+00 1.2503127921634343e+00 1.0899970623426354e+00 0 0 0
73 1 5.3738248096256171e+00 5.3258220745534368e+00 5.0479304134124421e+00 0 0 0
74 2 4.8977343751898950e+00 5.7374909378376993e+00 5.7576125137038590e+00 0 0 0
75 2 4.8255773308687564e+00 4.7431461953872187e+00 4.5340612669932687e+00 0 0 0
76 1 5.2914437494485922e-01 2.3591746059876662e+00 4.9976652873698990e+00 0 0 0
77 2 1.4566580338284907e-01 1.9010685890513626e+00 5.7872008415589375e+00 0 0 0
78 2 1.1423976509803850e+00 2.9962226076870269e+00 5.4337647032275358e+00 0 0 0
80 2 6.6249050344879024e+00 2.0010607529464011e+00 7.7659102577360328e-01 0 0 0
167 2 1.1267227637920357e+01 5.6456746148850714e+00 9.8175894107592665e-01 0 0 0
486 2 1.1588291240052554e+01 4.7352484226507774e-01 8.7587219418279947e+00 0 0 0
85 1 1.5519031736511092e+01 9.3866248053049539e-01 4.9146822083546873e+00 0 0 0
87 2 1.5713471241076654e+01 1.3921120459391931e+00 4.0892472924029004e+00 0 0 0
88 1 1.2671089092866820e+01 1.4247330121575961e+00 5.3632493155828902e+00 0 0 0
89 2 1.2823242419133830e+01 2.0822873957910208e+00 4.5757311193914765e+00 0 0 0
90 2 1.3512959735017608e+01 1.0105223739670228e+00 5.2589022024947054e+00 0 0 0
91 1 8.1280165413455379e+00 6.3047358702311351e+00 4.8933288218267315e+00 0 0 0
92 2 8.0768643354518979e+00 5.5929934717764569e+00 4.1956218049066427e+00 0 0 0
93 2 9.0968557001558032e+00 6.4653191914430579e+00 4.8499823712007872e+00 0 0 0
94 1 1.0785698245415274e+01 6.4949532379777724e+00 5.1251087903150401e+00 0 0 0
95 2 1.1349134484049635e+01 7.2872102967773831e+00 5.2755878338657585e+00 0 0 0
96 2 1.1062974887372670e+01 5.7086626512050396e+00 5.6269508462547533e+00 0 0 0
583 1 3.6430355451864034e+00 1.1217979345086491e+00 9.4649288147197250e+00 0 0 0
104 2 9.7568901141573381e+00 3.4988628737169503e+00 5.0884994075728196e-01 0 0 1
780 2 1.2751544191273693e+01 9.4727805160642227e+00 5.4633491215404451e-01 0 0 0
101 2 1.4813684595911964e+01 5.0188888889596468e+00 1.1870478449406900e+00 0 0 0
100 1 1.5186028369189408e+01 4.5227605195911273e+00 4.5828408656607028e-01 0 0 0
133 1 1.5867008760656173e+01 3.4396592758546083e+00 6.3838039971652556e+00 0 0 0
668 2 1.2907590236274839e+01 2.3913867683295047e+00 8.8947915740354873e+00 0 0 0
217 1 6.5902908496853065e+00 1.0591001454399509e+01 6.7448966491075577e+00 0 0 0
109 1 1.3693884834686266e+01 6.5451733678573945e+00 7.4448101187239653e+00 0 0 0
110 2 1.3834932277323428e+01 5.9623032463603316e+00 8.1711750295199614e+00 0 0 0
111 2 1.2753805419398645e+01 6.8362935888011123e+00 7.5513543810428816e+00 0 0 0
112 1 1.4570952975549657e+01 6.4653295791133534e+00 2.7342134700808467e+00 0 0 0
113 2 1.4015069653462918e+01 7.2270597920200048e+00 2.4516950211777186e+00 0 0 0
114 2 1.5475270302042043e+01 6.7513191046181218e+00 2.5957366675643141e+00 0 0 0
115 1 1.0185803885478965e+01 1.1284995665787552e+00 2.5982521730936190e+00 0 0 0
116 2 1.0154218549204899e+01 1.8175225437320608e+00 1.8948335377395737e+00 0 0 0
309 2 7.3761875159592361e+00 1.1047721298798242e+01 3.1026427687551266e+00 0 0 0
118 1 9.1012214970805267e+00 1.0066910429681515e+00 7.3936389196261612e+00 0 0 0
119 2 9.2406185202922426e+00 1.6381959871428162e+00 8.1576129545966598e+00 0 0 0
120 2 9.2303213364268135e+00 1.5281789591705743e+00 6.5509961775684991e+00 0 0 0
121 1 1.5291267029785811e+01 2.6893605463905264e+00 2.5834173705239332e+00 0 0 0
122 2 1.5900594453438345e+01 3.4954414356592860e+00 2.6886228511151868e+00 0 0 0
123 2 1.5436617922731141e+01 2.2413310988272648e+00 1.6536634921151341e+00 0 0 0
124 1 1.3388852570892062e+01 3.0540970020578126e+00 7.5732478249652440e+00 0 0 0
125 2 1.4252326690153421e+01 3.4094545104005065e+00 7.4388776638368830e+00 0 0 0
126 2 1.3379679400831581e+01 2.3068483307880596e+00 6.9563741596071829e+00 0 0 0
127 1 8.8593241857175435e+00 4.8345356206581229e+00 7.3270826775118723e+00 0 0 0
128 2 7.9698147793796785e+00 4.3619982172358789e+00 7.2693584674463816e+00 0 0 0
129 2 8.7099911211859755e+00 5.5089148064028128e+00 6.6523695565691607e+00 0 0 0
130 1 1.0815589220217877e+01 4.7995644238038748e+00 2.6153920965960205e+00 0 0 0
131 2 1.1660570557888436e+01 4.3659312316597267e+00 2.7376560579578308e+00 0 0 0
132 2 1.0772306094474722e+01 5.3811709667983658e+00 3.3951430766761987e+00 0 0 0
134 2 1.5386028645883783e+01 3.9934160267843035e+00 5.7014381710486983e+00 0 0 0
136 1 1.2953554084213067e+01 3.3472520444106459e+00 3.4289930064398053e+00 0 0 0
137 2 1.3210692431619348e+01 4.0461634111329046e+00 4.0013275089474822e+00 0 0 0
138 2 1.3794493012508461e+01 3.0052727782226238e+00 3.0219555640967868e+00 0 0 0
139 1 8.3946964069294232e+00 4.0799430561739989e+00 3.3137645161986136e+00 0 0 0
140 2 9.1256290661532127e+00 4.4639016162672771e+00 2.8626027353754795e+00 0 0 0
141 2 8.8235153549823053e+00 3.4583712500169419e+00 4.0160828137873779e+00 0 0 0
142 1 1.1230479065559644e+01 3.9795796310821472e+00 6.1549415056625625e+00 0 0 0
143 2 1.1936022437783549e+01 3.8592766621351129e+00 6.8166030420318213e+00 0 0 0
144 2 1.0405113063732280e+01 4.3644631925989703e+00 6.5053225313514718e+00 0 0 0
147 2 1.6968442805211424e+01 7.7815709016327705e+00 9.8665462090285805e-01 0 0 0
148 1 1.1305874534887343e+01 7.2074710393780475e+00 8.3018257697930551e+00 0 0 0
149 2 1.1139232789121939e+01 6.3118679204863213e+00 8.6702880493754684e+00 0 0 0
150 2 1.1530739386159260e+01 7.8578201749722769e+00 9.0322342483042366e+00 0 0 0
219 2 5.7622507588640985e+00 1.0489527843751498e+01 7.1704450866275229e+00 0 0 0
151 1 6.8266482276356566e+00 2.1789716130730832e-01 8.2019585846151912e+00 0 0 0
153 2 6.4641137229519501e+00 9.9442157858811786e-01 8.6487173199313023e+00 0 0 0
301 1 1.5663145486102641e+01 1.0993451689728069e+01 6.8075488496076337e+00 0 0 0
24 2 -2.8221808256960301e-01 2.8920785954556627e+00 9.3800078767144139e+00 0 0 0
517 1 8.4873426437612078e+00 4.8636853499526032e+00 2.9555684014230388e-01 0 0 1
157 1 1.4318819455824482e+01 5.1059251766617768e+00 5.1240698120264794e+00 0 0 0
158 2 1.4580083836982618e+01 5.7587802243393069e+00 4.4665046272926237e+00 0 0 0
159 2 1.4042787828939232e+01 5.5955677745795924e+00 5.9436541979526494e+00 0 0 0
160 1 9.6940897613966008e+00 2.2046547729768649e+00 4.8535482847860498e+00 0 0 0
161 2 1.0509488689866448e+01 2.6327620429197465e+00 5.2168611582780295e+00 0 0 0
162 2 9.9132007431315223e+00 1.8700213495562319e+00 3.9478963605631474e+00 0 0 0
237 2 1.4992273127486904e+01 7.6500524323959418e+00 8.0148151973254791e+00 0 0 0
432 2 1.1695543130785339e+01 1.7208274311060029e-01 4.7967438331064987e+00 0 1 0
222 2 3.0733244357441860e+00 1.0812654158268911e+01 3.0060123559886160e+00 0 0 0
169 1 6.6570476710032844e+00 8.5545669383341583e+00 4.8767672525662622e+00 0 0 0
170 2 7.3501324502304728e+00 7.9027752831641358e+00 4.9756194090257777e+00 0 0 0
171 2 6.7652307199835580e+00 9.2434072424716511e+00 5.5408859644320376e+00 0 0 0
172 1 3.9216834403597596e+00 8.5212798534095189e+00 5.3787335596369958e+00 0 0 0
173 2 4.0121689632200193e+00 9.2454766562154482e+00 4.6990059123815033e+00 0 0 0
174 2 4.7988320556840218e+00 8.0964356252114005e+00 5.2739061689277529e+00 0 0 0
524 2 -2.9209658644828820e+00 3.7057354302554102e+00 9.6885857026680444e+00 0 0 0
86 2 1.6217434962685459e+01 2.2754190412427458e-01 5.0233519695259004e+00 0 0 0
667 1 1.2304532708607772e+01 1.7954142458516562e+00 9.4264469050898523e+00 0 0 0
192 2 3.6205989126604798e-01 9.9148127744284249e+00 8.8396606237757887e+00 0 0 0
199 1 1.2696739541614015e+00 8.9472923405978051e+00 2.5388440914805632e+00 0 0 0
200 2 1.4356319852193216e+00 9.5360819304487379e+00 1.7516932230804267e+00 0 0 0
201 2 6.4624567244250031e-01 8.3006170821727299e+00 2.1995674415084574e+00 0 0 0
202 1 4.0291474994788645e-01 8.5299085294383321e+00 7.4468224252064203e+00 0 0 0
203 2 -5.5246902077046878e-01 8.3367635472564157e+00 7.6871818454133525e+00 0 0 0
204 2 4.2450641430553926e-01 9.0493077438504486e+00 6.5922547351457048e+00 0 0 0
205 1 6.2580898956219277e+00 1.0021421884847214e+01 2.4474443790244500e+00 0 0 0
206 2 6.3865894522347872e+00 9.3987918250791669e+00 3.1747267515545952e+00 0 0 0
207 2 6.3520839789039192e+00 9.5908670607762634e+00 1.6164436295052627e+00 0 0 0
208 1 3.9247996265459579e+00 1.0165861092375501e+01 7.7023481237649776e+00 0 0 0
152 2 7.6418396148396726e+00 5.6992231411853944e-01 7.7576838774381054e+00 0 0 0
210 2 3.9224021163778908e+00 9.5196431955894276e+00 6.8752240450614028e+00 0 0 0
671 2 8.5642879962578569e+00 5.7097262510095943e+00 8.9456616232194275e+00 0 0 0
220 1 3.8091966540120716e+00 1.0593273340469107e+01 3.6027569007797777e+00 0 0 0
399 2 8.1598245532431797e+00 3.9332801791492389e-01 4.1951942759437055e-01 0 0 0
221 2 4.6175358046644082e+00 1.0591897411693814e+01 2.9707780722640824e+00 0 0 0
187 1 1.5180779969398177e+00 1.0452414360601061e+01 2.9629485921681958e-01 0 0 0
235 1 -2.1539997432470424e+00 7.9071712033105843e+00 8.4800548021304376e+00 0 0 0
236 2 -2.3139184117296216e+00 8.7232586163837276e+00 8.9168921044019296e+00 0 0 0
238 1 3.7797243089211623e+00 8.0325746611281765e+00 1.8555367773494214e+00 0 0 0
239 2 2.8163566484435174e+00 8.3111456024051620e+00 2.1528248032825976e+00 0 0 0
240 2 3.9620397841327382e+00 8.6226503836119281e+00 1.0720417252260033e+00 0 0 0
244 1 8.6664390351217424e-01 9.7633011037007815e+00 5.1172959141437140e+00 0 0 0
245 2 1.1360678746714648e+00 9.4200028890741496e+00 4.2479340928268039e+00 0 0 0
246 2 1.5352128790366661e+00 1.0422130041567017e+01 5.2738088837128547e+00 0 0 0
145 1 1.7411405258740412e+01 7.1522762324650717e+00 1.6389174992536670e+00 0 0 0
209 2 3.5525476020982181e+00 1.0945795008820824e+01 7.2683833107326308e+00 0 0 0
253 1 1.5466740112558846e+01 8.6406867416662756e+00 5.3302370024523285e+00 0 0 0
255 2 1.5220619282019920e+01 8.9424578487145556e+00 4.4231176997889818e+00 0 0 0
256 1 1.2491200820426302e+01 8.6693186716326327e+00 5.6798847489716380e+00 0 0 0
257 2 1.3420713615782621e+01 8.3915805213539105e+00 5.7175902783610164e+00 0 0 0
258 2 1.2405983749115402e+01 9.4450324292466732e+00 5.0989137933272497e+00 0 0 0
272 2 1.0250004711914251e+01 9.4181048304294954e+00 1.1562374196564980e+00 0 0 0
523 1 -2.1665960833029696e+00 3.0374292398300975e+00 9.6736597164776601e+00 0 0 0
276 2 9.5983090291283268e+00 1.0110104895334043e+01 8.7676483992014820e+00 0 0 0
283 1 1.0517356155575465e+01 8.5478820516114222e+00 2.4798754218741905e+00 0 0 0
284 2 1.0276082612788764e+01 8.9368117247188135e+00 3.3498247653389943e+00 0 0 0
285 2 9.7355919325238016e+00 7.9610622452983320e+00 2.2253798627675279e+00 0 0 0
286 1 9.5554258661158933e+00 8.9645416011098504e+00 7.5124563919399971e+00 0 0 0
287 2 1.0131990180313483e+01 8.1701938842419697e+00 7.7355798507109981e+00 0 0 0
288 2 8.6366115911254457e+00 8.6250634322310304e+00 7.5991528442282448e+00 0 0 0
289 1 1.5253683055606453e+01 9.9085341333183958e+00 2.9156022197920088e+00 0 0 0
224 2 -2.4311366673645785e-01 1.0793990576445657e+01 4.3486129071449042e+00 0 0 0
291 2 1.5410956891427936e+01 9.6230713696508658e+00 1.9596259040210993e+00 0 0 0
292 1 1.3000016931589613e+01 1.0422045288228393e+01 8.0460271361709879e+00 0 0 0
156 2 1.2124878654515101e+01 8.0903158500591998e-01 2.1921377328908958e+00 0 0 0
294 2 1.2796035725657273e+01 9.7412704151368636e+00 7.3625168078654868e+00 0 0 0
306 2 1.3537396329334925e+01 1.0404544547761034e+01 3.2653844048447560e+00 0 0 0
585 2 3.9539152160999564e+00 1.7485642986527747e+00 8.7860696813322861e+00 0 0 0
836 2 1.2738038264426374e+01 9.3638518278618683e+00 9.6993853205579441e+00 0 0 0
290 2 1.5844696474718340e+01 1.0617358254990917e+01 3.1470244921782831e+00 0 0 0
319 1 6.9374756395197394e+00 7.9788829520334561e+00 8.2927806166386606e+00 0 0 0
320 2 6.7052617980148508e+00 8.6679658822054151e+00 8.9031377721900533e+00 0 0 0
321 2 7.2521894088859939e+00 7.2098215294689334e+00 8.8025884112526818e+00 0 0 0
322 1 1.3000838476662755e+01 8.0095627237553249e+00 1.4437548463109742e+00 0 0 0
323 2 1.2146353100917892e+01 8.1412956178620828e+00 1.9133607277663027e+00 0 0 0
324 2 1.2840206596041842e+01 7.2859739439997453e+00 8.2554677803417709e-01 0 0 0
328 1 9.8098500796303174e+00 9.7740410274251861e+00 4.8684502599379575e+00 0 0 0
329 2 9.6212893135459563e+00 9.3325079673816358e+00 5.7285445154781414e+00 0 0 0
753 2 3.7662907340258123e+00 9.5639342941795071e+00 9.3558913844185270e+00 0 0 0
520 1 2.4199206794468222e+00 4.4696272554003009e+00 9.7017435376220327e+00 0 0 0
84 2 3.5675812433428660e+00 6.4438620554858019e+00 7.5760677061680493e-01 0 0 0
154 1 1.2985240098325720e+01 6.3338423981624137e-01 1.7128470988721984e+00 0 0 0
9 2 -1.1329871224430341e+00 7.1521461181381030e+00 5.1225468881021152e+00 0 0 0
155 2 1.3226171296443081e+01 1.3988473583613674e+00 1.1642653029677361e+00 0 0 0
146 2 1.7572962080823956e+01 6.2929750633598687e+00 1.3251821936379893e+00 0 0 0
248 2 7.3490514776079596e+00 8.0639121894975645e+00 6.1967716943110951e-01 0 0 0
103 1 1.0289335245453552e+01 2.7199277893340859e+00 4.8993828345932700e-01 0 0 0
135 2 1.6068170450702620e+01 2.6258672720479264e+00 5.8485002919581950e+00 0 0 0
16 1 5.6826246188161624e+00 4.8818953041904019e+00 6.6338680324275301e-01 0 0 0
293 2 1.2411650300543068e+01 1.1174105037873753e+01 7.8362951741589510e+00 0 0 0
190 1 3.2530801309310320e-01 1.0478161677549128e+01 9.6772832747378548e+00 0 0 0
247 1 6.6701655063288046e+00 8.5923807776270156e+00 2.2856228593772998e-01 0 0 0
83 2 2.2226747233389057e+00 5.6289776742259354e+00 9.2985676184377786e-01 0 0 0
311 2 1.0719641921773430e+01 1.1232063614695987e+01 5.8489244207677435e+00 0 0 0
670 1 8.1310950202791474e+00 6.1389209517199310e+00 9.6941093308424087e+00 0 0 0
15 2 4.2005216820356557e+00 4.4314456921663261e+00 9.5750367544831807e+00 0 0 0
23 2 1.2036082658017859e+00 3.2697649900078418e+00 9.1597230072119569e+00 0 0 0
67 1 -2.3635747327155361e+00 8.0072218941486273e-01 7.9919916112253579e+00 0 0 0
331 1 1.6180823065658252e+01 9.1890981104349621e+00 4.0605101059394205e-01 0 0 0
2 2 7.0202919435791173e+00 7.0229790860588159e-01 5.2088640192798099e+00 0 0 0
584 2 2.9417463614330370e+00 5.8261970376243444e-01 9.0166567141563316e+00 0 0 0
22 1 5.6777814772244417e-01 2.5298332469777063e+00 9.2511990690445067e+00 0 0 0
82 1 2.7337700547693298e+00 6.0945204687747001e+00 2.8470047662308473e-01 0 0 1
274 1 9.4957853029543458e+00 1.0457324952782809e+01 9.7029963452207539e+00 0 0 0
17 2 4.8761302168177609e+00 4.3349621689470448e+00 4.6072969071283948e-01 0 0 0
99 2 1.2900385921367544e+01 4.7839385626433195e+00 9.5740914044513570e+00 0 0 0
165 2 1.6689132300660070e+01 8.5037846295624764e-01 6.5070918784311471e-01 0 0 0
271 1 1.0130236340001167e+01 9.9458126452427091e+00 3.1261545561705800e-01 0 0 0
218 2 7.1995774783515536e+00 1.1269818181700652e+01 7.1838572213247378e+00 0 0 0
518 2 7.5683280268100415e+00 4.4804564103113425e+00 3.5182881403568778e-01 0 0 0
97 1 1.3864224630222562e+01 4.9465474330168240e+00 9.5626734785898684e+00 0 0 0
163 1 1.5982123146322220e+01 1.4198518637486397e+00 3.5173718888377509e-01 0 0 0
20 2 6.1821504793735804e-01 3.4162485794004120e+00 2.1539277141243665e-01 0 0 0
824 2 2.6839447022176186e+00 7.5008711492490709e+00 1.7509115076160679e+01 0 0 0
528 2 -3.7347445916822370e+00 2.8787152074657363e+00 1.9116035453893332e+01 0 0 -1
612 2 5.5863940607081251e+00 3.1899335306172758e+00 1.9253070991737189e+01 0 0 -1
696 2 -2.1280354349196768e+00 1.1151486464679452e+01 1.9236540037161173e+01 0 0 0
794 2 1.2307913142796156e+01 1.0911863933998802e+01 1.2464269877611152e+01 0 0 0
809 2 1.0198847153179193e+01 1.0496669340188982e+01 1.2736264652702580e+01 0 0 0
536 2 -2.5330630627651907e+00 7.1602350005701398e-01 1.1907710129854378e+01 0 0 0
79 1 3.0172855333366222e-02 1.7232400539917259e+00 1.9044179761439043e+01 0 0 0
526 1 -2.7089149874745866e+00 2.7965941514038306e+00 1.9248392403455970e+01 0 0 0
107 2 9.3617680597816619e+00 1.8292673054709998e+00 1.0607857845672791e+01 0 0 0
98 2 1.4026471213044179e+01 5.4508000057766051e+00 1.0406842224220025e+01 0 0 0
19 1 -5.5779335059014921e+00 2.6475157773572686e+00 1.9259266771819302e+01 0 0 -1
588 2 -1.0812671555782667e+00 5.4723472953214172e+00 1.0665400323305025e+01 0 0 0
168 2 4.3843534469450463e+00 6.7476579181214458e+00 1.8901080389065939e+01 0 0 0
81 2 -6.3854519036814494e-01 1.0374608929046207e+00 1.8865510796664015e+01 0 0 0
574 1 5.0589824243903303e-01 2.8674481882056002e-01 1.1250793146057743e+01 0 0 0
507 2 3.9587587850253243e+00 5.4858928203027002e-01 1.4277109475207775e+01 0 0 0
602 2 1.0090163719824069e+01 4.7360121285717893e+00 1.9255456770249360e+01 0 0 -1
505 1 3.2867834113128716e+00 1.2834515178413333e+00 1.4095425070705305e+01 0 0 0
506 2 3.4206127538216684e+00 2.0254785066301313e+00 1.4736724610027377e+01 0 0 0
188 2 -5.4478110339791099e+00 9.8613409711727940e+00 1.8842107620845518e+01 0 0 0
508 1 7.5716556675512958e-01 1.4070975863809285e+00 1.4664414626694144e+01 0 0 0
816 2 7.4743067065223414e+00 1.1067777357576400e+01 1.5438057524564210e+01 0 0 0
510 2 1.6447862060471516e+00 1.0713194346463777e+00 1.4527060551760799e+01 0 0 0
511 1 -3.9530108472066336e+00 6.4034791964510500e+00 1.4908332731885634e+01 0 0 0
512 2 -4.0078368466386465e+00 5.6762937216571263e+00 1.4195490800228281e+01 0 0 0
513 2 -3.8577407150613343e+00 5.9254014326229481e+00 1.5745633706985265e+01 0 0 0
514 1 -1.3714909441883574e+00 6.8191888261706577e+00 1.4459766203020953e+01 0 0 0
515 2 -1.1768946983503690e+00 5.9289659310327831e+00 1.4874485136035926e+01 0 0 0
516 2 -2.3058715380108428e+00 6.9665758142409020e+00 1.4632447324206392e+01 0 0 0
711 2 2.1286864483806678e+00 1.0398323500694852e+01 1.2590610840378814e+01 0 0 0
519 2 1.8158287932998203e+00 5.3664123855544750e+00 1.8557566732570162e+01 0 0 0
728 2 -3.7115089764292231e+00 1.1128939126347257e+01 1.3589419838382291e+01 0 0 0
522 2 2.3450762216430872e+00 4.7223664943594281e+00 1.0677481707079362e+01 0 0 0
621 2 7.8508818091383779e+00 1.4456854852985048e+00 1.2231558383688101e+01 0 0 0
837 2 1.2271924454674203e+01 9.2410972743349813e+00 1.1045161101480581e+01 0 0 0
525 2 -1.9790458940523847e+00 2.6704764547953097e+00 1.0563603057004675e+01 0 0 0
990 2 7.1480375454375613e+00 1.9200093355544073e-01 1.7301305333215449e+01 0 1 0
527 2 -2.3785268826599677e+00 2.5509836704007256e+00 1.8369525327988367e+01 0 0 0
529 1 1.4843948314655329e+00 6.2760949736272318e+00 1.7072844542886177e+01 0 0 0
530 2 1.5818421820325268e+00 6.0448502689141907e+00 1.6147142019456474e+01 0 0 0
531 2 4.7813485307042480e-01 6.3129835906139204e+00 1.7111335235713515e+01 0 0 0
532 1 2.6573836059479641e+00 6.3345586834461125e+00 1.1950175279768700e+01 0 0 0
533 2 3.6223269038392711e+00 6.4575139341634369e+00 1.1829899311759041e+01 0 0 0
534 2 2.4843121822237091e+00 5.9131302052814894e+00 1.2795765015670758e+01 0 0 0
535 1 -1.9269404394256164e+00 1.5079713787061357e+00 1.2015851733517087e+01 0 0 0
807 2 1.2428490193484437e+01 9.8861707046358465e+00 1.5450758247650699e+01 0 0 0
610 1 6.4293204422289509e+00 2.7817348250407279e+00 1.9100311473077987e+01 0 0 0
538 1 -2.8344946950627956e+00 1.3989868587615562e+00 1.6678807964518256e+01 0 0 0
539 2 -3.7809373893618972e+00 1.3376493579899562e+00 1.6864264329534926e+01 0 0 0
540 2 -2.7299859542915508e+00 1.7559782320603636e+00 1.5774746679325915e+01 0 0 0
541 1 3.3418058506334090e+00 2.7378939986304260e+00 1.1759903739858080e+01 0 0 0
542 2 3.2866410129172623e+00 2.0967697507429985e+00 1.2465435774693411e+01 0 0 0
543 2 3.2718065014396016e+00 2.2006376890138881e+00 1.0938419014054924e+01 0 0 0
544 1 1.1647449381643904e+00 2.9193662581602373e+00 1.6899692698029515e+01 0 0 0
545 2 8.4321538387125639e-01 2.3935252220456777e+00 1.7705807478616354e+01 0 0 0
546 2 9.0053051255446537e-01 2.3990401592063804e+00 1.6083870322884827e+01 0 0 0
547 1 -3.2992977977685940e+00 4.8166867426912621e+00 1.7156826055508333e+01 0 0 0
548 2 -3.8147341370033470e+00 4.2804517268278941e+00 1.6587062788961742e+01 0 0 0
549 2 -3.7602059290953589e+00 4.8410157843759984e+00 1.7932993899361545e+01 0 0 0
550 1 -1.4621674231482800e+00 4.8345130405006369e+00 1.2229407589288288e+01 0 0 0
551 2 -7.4601791960031649e-01 4.3424960522331206e+00 1.2568409984080617e+01 0 0 0
552 2 -1.4348792783402002e+00 5.7259069250160444e+00 1.2693554841188845e+01 0 0 0
553 1 3.7262185397859211e+00 3.5325609688160453e+00 1.5878417512059332e+01 0 0 0
554 2 3.0234216767869873e+00 3.3515032264439930e+00 1.6472218499810548e+01 0 0 0
555 2 4.4688178234338718e+00 4.1118957751583665e+00 1.6340374628433835e+01 0 0 0
556 1 8.5739661095209474e-01 3.4281068582165020e+00 1.2813805831457916e+01 0 0 0
557 2 1.6554238427448578e+00 3.0879038533077980e+00 1.2362151749108403e+01 0 0 0
558 2 7.2549585944172179e-01 2.7546439597798669e+00 1.3461712225578045e+01 0 0 0
559 1 -4.0621695220247860e+00 4.3170858472965357e+00 1.3156165239783961e+01 0 0 0
560 2 -3.2773832623805950e+00 4.6089594642454372e+00 1.2638216244504036e+01 0 0 0
561 2 -3.7115310630288745e+00 3.5361052604982883e+00 1.3622869427340866e+01 0 0 0
562 1 -8.1385901847262421e-01 4.3858309919235579e+00 1.5805131224993783e+01 0 0 0
563 2 -1.3081140825034243e-01 4.0005914262950499e+00 1.6408041720759840e+01 0 0 0
564 2 -1.5321793162614412e+00 4.7011396172570281e+00 1.6493921057016596e+01 0 0 0
565 1 5.1080712893397457e+00 6.9064840893731398e+00 1.1035249987348308e+01 0 0 0
566 2 4.6693403658783090e+00 7.4682197085141429e+00 1.0393171708005440e+01 0 0 0
567 2 5.0227120037984756e+00 5.9804616330933520e+00 1.0649277199815876e+01 0 0 0
568 1 -1.1561781807002198e+00 6.8002266288728039e+00 1.7876826014304921e+01 0 0 0
569 2 -1.2857643382300630e+00 5.9711129765678272e+00 1.8390477996744799e+01 0 0 0
570 2 -7.6474801098251177e-01 7.4424855533638734e+00 1.8536258907193023e+01 0 0 0
808 1 9.3984909964195431e+00 1.0806614580462240e+01 1.3198761876332123e+01 0 0 0
572 2 -5.8659292784332635e+00 1.3331159670222723e+00 1.8052708613637211e+01 0 0 0
903 2 4.6754157000097178e+00 1.2827185239515718e-01 1.0548168442985116e+01 0 0 0
749 2 -1.4986780135606219e+00 1.0541372177376321e+01 1.4636447137993425e+01 0 0 0
576 2 9.3077938171324304e-01 9.0665612072581159e-01 1.0600700860966164e+01 0 0 0
577 1 1.9401775313263068e+00 5.5100413905955286e+00 1.4508086168903292e+01 0 0 0
578 2 1.3788957112524161e+00 4.8471047072512894e+00 1.4064810358716024e+01 0 0 0
579 2 2.6208257821679597e+00 4.9186796927635070e+00 1.4853679013644099e+01 0 0 0
580 1 -2.3319000102121272e+00 2.4169059821856207e+00 1.4443641168597479e+01 0 0 0
581 2 -2.0900468813732225e+00 1.9497578836184857e+00 1.3586119133466941e+01 0 0 0
582 2 -1.6394837025105122e+00 3.1648288910490052e+00 1.4590657771606166e+01 0 0 0
751 1 3.5459945901986045e+00 8.9953038546454529e+00 1.0125248029169484e+01 0 0 0
601 1 1.1049549143766146e+01 4.9836562776496693e+00 1.9221503064187317e+01 0 0 0
589 1 1.2122244383882807e+01 1.0200171975536172e+00 1.4291323009821191e+01 0 0 0
590 2 1.1250749759960481e+01 6.9700868952138562e-01 1.4617681909937671e+01 0 0 0
591 2 1.2325280711166279e+01 1.6725153161947157e+00 1.4971985613790768e+01 0 0 0
592 1 9.3779082785472738e+00 7.9205965101234777e-01 1.4850827461572729e+01 0 0 0
655 1 3.4677732338462315e+00 5.2698556592069479e-01 1.7576952163294148e+01 0 0 0
594 2 9.3919563820023981e+00 1.5827363291172860e+00 1.4261721200720881e+01 0 0 0
595 1 5.0622285864372616e+00 6.6947659900144076e+00 1.4570969984777543e+01 0 0 0
596 2 5.1272772422059862e+00 6.1460068700732169e+00 1.5361261724811573e+01 0 0 0
597 2 4.9885464811035654e+00 6.0164404355973975e+00 1.3800339083651092e+01 0 0 0
598 1 7.8908670603228819e+00 6.5994847354768851e+00 1.4320806816438603e+01 0 0 0
599 2 6.9609256892347320e+00 6.7860572997840887e+00 1.4513699565331219e+01 0 0 0
600 2 7.7573091329430222e+00 6.1863183070701950e+00 1.3451573506708410e+01 0 0 0
828 2 8.5676097514746008e+00 7.9420086758552566e+00 1.1505434703539951e+01 0 0 0
603 2 1.1204588194997957e+01 5.3419716455168427e+00 1.8349756523472774e+01 0 0 0
606 2 1.0378613784858938e+01 4.0899978388169878e+00 9.8875091580489318e+00 0 0 0
605 2 1.1071991118973232e+01 5.1402271047867920e+00 1.0700422746692169e+01 0 0 0
656 2 2.6315302095715953e+00 2.3148448529884402e-01 1.7194309004581232e+01 0 1 0
658 1 9.1282772922024620e+00 3.6425502231720480e-01 1.1847814979841671e+01 0 0 0
108 2 8.3381828265142008e+00 2.7048806425372480e+00 9.9089422553313824e+00 0 0 0