LAMMPS data file via write_data, version 8 Apr 2021, timestep = 0

6144 atoms
2 atom types

-2.705030663221189 62.67331979440588 xlo xhi
0 28.11169022242512 ylo yhi
0 27.17367284819355 zlo zhi
10.1550157602572 10.181372182479997 7.1176792357339345 xy xz yz

Masses

1 16
2 2

Atoms # atomic

221 2 9.372863458603593 12.917367676209896 22.320686769396815 0 0 -1
1604 2 17.374437471483994 21.913658723285444 23.177889857419363 0 0 0
1649 2 11.388084508542976 18.63032884969076 23.591630234032156 0 0 0
987 2 14.655766854784487 12.47335341017737 23.37309787403513 0 0 0
225 2 8.078789727168246 4.37569868431666 9.27622289015437 0 0 0
1916 2 11.16152936056436 25.076033595133595 6.064215757360014 0 0 0
845 2 9.324291877194304 15.180872199987425 19.399318479359774 0 0 -1
1625 2 11.294911766321226 14.086693061591404 15.046753321872686 0 0 0
2464 1 12.957420339468749 18.578254372658265 12.480744290111986 0 1 0
886 1 13.622316170996113 22.512325512896744 12.178872683233022 0 1 -1
1633 1 16.421668762983586 13.096749200245226 22.817534870768124 0 0 0
849 2 13.807568055630602 15.158157695064663 10.173794095607025 0 0 -1
2443 1 8.468993975141302 8.813882376243729 4.002813600114418 0 1 0
827 2 17.204925778542695 23.24892448859781 11.477767204117143 0 0 0
2466 2 13.83242442086553 18.53152302745182 12.06948587016797 0 1 0
1895 2 19.249553340386342 15.297764478416555 26.84470385607842 0 0 0
1670 2 4.198718944298003 4.530145786210452 3.989245319443048 0 0 0
1634 2 16.981048461512295 12.31969401068192 22.743341718372783 0 0 0
1064 2 27.46315915104627 26.06132174799379 23.379811923387287 0 0 -1
1894 1 19.714506817993538 15.522334607170365 26.023876002074953 0 0 0
1740 2 15.12331911232326 20.01754158766625 24.26340085758333 0 0 0
228 2 10.996322025362886 27.573611613862766 8.74255078628124 0 0 0
611 2 9.25908464025941 8.530896835406717 13.316457257598822 0 1 0
1709 2 13.867355916959928 10.155711999039397 20.791337433099706 0 0 0
1866 2 5.003474309105472 7.1412645451885215 11.948393773700719 0 0 0
1864 1 5.812471104931481 6.567276602548685 11.739627335549505 0 0 0
1913 2 16.474290441850655 29.85791300574136 27.102771228396772 0 0 0
1653 2 15.525284750384808 26.212629246833348 21.890130864121232 0 0 0
2325 2 3.8307373714851316 17.679751365673752 0.18992176904369543 0 1 1
2564 2 7.7983743768516405 8.26455287524674 1.2261117823521572 0 1 0
416 2 16.847730113308238 15.68028447073293 12.24688520249538 0 0 0
1871 2 17.824616516044692 19.349002118732113 12.761863934339388 0 0 0
610 1 8.724150657728089 9.329944159264642 13.422396285537047 0 1 0
1676 2 16.306432542947228 22.51337889756956 13.161218349244198 0 0 0
2401 1 13.56022232207584 25.416369871280928 16.429790576676947 0 0 0
2450 2 13.403833467847582 27.58176106766438 14.314671150360871 0 0 0
1708 1 13.327678377078444 10.966067795542811 20.923544717428133 0 0 0
6041 2 13.137783859830751 25.207934431702526 23.91553411570293 1 0 0
907 1 17.44884935970559 29.53693591882078 25.549306359574405 0 0 -1
99 2 6.544325749230646 3.518715549213619 7.952111174410686 0 0 0
247 1 1.1486837015935727 3.143173412774231 4.636684941197581 0 0 0
633 2 8.714723397884216 17.650325463284645 11.41864186551208 0 0 0
174 2 21.490873907805927 32.48421438965655 23.148181222450095 0 -1 -1
345 2 3.4589609094527134 5.873066000067555 6.732509968186234 0 0 0
924 2 19.697585854630404 20.496061615520713 7.080919570170817 0 0 0
28 1 23.87275487027415 23.622877807802347 11.297897571275069 0 0 0
224 2 9.358019737273949 5.126189136468415 8.840694195065923 0 0 0
51 2 2.2977413073426005 13.20747479913767 0.6452989858714651 0 0 0
1710 2 12.378556454775085 10.733171536245264 21.022016395098376 0 0 0
1689 2 8.105710737961513 11.920014611420589 11.954795621821358 0 0 0
1705 1 18.970872613088893 15.357024331664396 16.225212046373343 0 0 -1
1773 2 23.126850886102048 29.34211155955836 25.120125380789688 0 0 -1
101 2 5.54923944102355 8.455163436541863 6.137037601715441 0 0 0
1570 1 10.49478967371996 8.63768075886826 19.160051964204282 0 0 1
2314 1 14.314629214048365 22.901101730426824 9.34428161556747 0 0 1
1129 1 13.145723006170103 19.322087888270975 18.230962355375905 0 0 -1
114 2 12.782593078785332 26.034877253892425 20.09119842139564 0 -1 0
1635 2 16.70779986040069 13.6457946416651 22.058367926699404 0 0 0
995 2 1.6486235760427448 7.476035537354914 1.6599422242574682 0 1 0
1236 2 15.974454433598689 31.312039221850338 16.266280000270527 0 0 0
821 2 4.66389145879412 13.33103985532692 0.3240264388425604 0 0 0
2527 1 13.838029935220566 26.50293460843075 22.801408378706313 0 0 -1
896 2 16.404870586575022 29.08743902044235 15.896305655234773 0 0 -1
169 1 10.125320541407476 14.666794781032744 22.620041842372494 0 0 -1
1057 1 7.472163012065554 24.432112164202096 2.3788156745215314 0 0 0
1571 2 10.849317756584789 8.762116801079863 18.240428364703405 0 0 1
1659 2 18.281399617938256 28.29514530451295 12.001184685016185 0 -1 0
1234 1 16.40529118311364 32.11067122854385 16.676428901231844 0 0 0
2627 2 18.147610011211874 25.69189470051322 24.216529830624946 0 0 0
830 2 12.38093354134321 27.59456083362831 10.6105066843039 0 0 0
4439 2 9.06931900857334 22.35204946283963 8.272070392477648 1 0 0
1669 1 4.716462477057544 5.234823613280974 4.405766043001222 0 0 0
1063 1 27.18417180308534 25.147001841988157 23.205923082269276 0 0 -1
1671 2 5.229308571871276 5.625278939604337 3.659486532422362 0 0 0
1791 2 18.454442678067288 26.84334890037863 4.709325194177004 0 -1 1
844 1 8.940916107927189 15.431753601977386 20.262933799013346 0 0 -1
1865 2 5.598023491248643 5.817536774573635 11.155738214691342 0 0 0
1067 2 17.69755958801504 30.99504515336288 25.341601953335076 0 1 -1
1739 2 15.866662896784446 20.096559422281427 25.66257433420886 0 0 0
822 2 6.198891364569002 13.517636804941157 0.5581776685289375 0 0 0
1123 1 13.365252450358552 31.374953544921755 15.937842523598782 0 0 0
1112 2 11.785395877840282 20.306350252943783 7.337784493541389 0 0 0
887 2 13.889423907540996 22.551656289862674 11.278162449101158 0 1 -1
2465 2 12.592701398849565 19.300989798465043 11.97538961749651 0 1 0
824 2 6.037347695664145 10.004849278711966 17.273442930886592 0 1 -1
102 2 5.886623034247993 10.014746072354502 6.0582246070814 0 0 0
223 1 8.470417458207889 5.261424026294891 9.313768324525036 0 0 0
1917 2 10.165134745677781 24.836495778999865 4.852849154206619 0 0 0
353 2 5.111348152000575 9.100240404298095 3.853174051203584 0 0 0
2407 1 13.328666428294317 22.328124982772398 4.657245557600543 0 0 0
1687 1 7.941898670679331 11.135404972891783 11.333306164167313 0 0 0
986 2 13.494089727281073 11.696214028668825 22.52733071118973 0 0 0
1706 2 18.71906596441287 14.62540324164319 16.898224406394686 0 0 -1
606 2 8.148250886853113 6.37265085216125 16.05627925830803 0 0 0
3500 2 3.7845638070787233 12.562261190055027 2.085468362962011 1 0 0
1688 2 8.181268396709322 10.40390909472797 11.949077024870565 0 0 0
344 2 2.200755674270747 5.210363929696835 7.4722717546722235 0 0 0
1610 2 7.167563264247855 15.232417461170778 5.006042133263093 0 -1 0
922 1 19.244021768500787 21.075125602493753 6.384338435006908 0 0 0
2409 2 12.980348555477306 22.234404085466977 3.7789155032885904 0 0 0
2336 2 5.338478052039131 7.302864318837274 15.437883104042218 0 1 0
5996 2 10.831385546959874 24.073797845257378 15.385132657826102 1 0 0
908 2 18.254268661469453 29.039343024261893 25.77171228823784 0 0 -1
3501 2 3.8500373392351417 11.413551885112991 0.933397416049618 1 0 0
5804 2 14.756307866722617 30.02686121073284 18.62289318151205 1 0 0
2652 2 23.121033971044092 24.073527053807684 21.104262328469115 0 0 0
2281 1 8.63718306453726 23.891092131045713 7.4776208609372405 0 -1 0
2380 1 14.751480459697165 26.20571004809409 12.609637189718423 0 0 0
1115 2 3.9071762009621915 9.008878066384424 8.42230993402806 0 1 0
2414 2 11.557179740750932 15.485813909901356 11.750080901811415 0 0 1
2584 1 2.967944910569919 7.068855466983195 5.2781195744999305 0 1 1
2441 2 20.59471674272482 19.118643675668295 9.027045201266178 0 0 1
847 1 14.253622261886205 14.544384782462641 10.835222345786477 0 0 -1
2236 1 13.410423008904113 26.88680960463443 18.736938847750434 0 -1 1
360 2 12.336809971438404 22.796511816809875 21.286119202757273 0 0 0
1738 1 15.902842669968555 19.687835582105258 24.80348963482047 0 0 0
2394 2 8.466125165506583 8.428823138307818 22.726419082826293 0 1 0
7 1 16.35502406328571 17.866575336696833 7.375199613086553 0 0 0
1861 1 3.662496904601192 2.4654071154552195 7.471446882446964 0 0 0
5801 2 16.179617155721132 28.483184007208106 22.799888198825947 1 0 0
1105 1 2.3713722147008545 10.173916837033623 4.874702320535999 0 0 0
2440 1 20.372056332122504 18.889110225361915 8.075405709465208 0 0 1
98 2 16.940791651422288 30.282037513674393 8.577011341427475 0 -1 0
2408 2 12.95338639320182 23.14068056209 5.116897753746238 0 0 0
369 2 9.299036389321328 13.581010009224677 10.63018269417533 0 0 -1
1065 2 26.703347497945636 25.080626391900235 22.296896425724572 0 0 -1
1130 2 12.495939268777173 19.244977289275948 17.507018143744023 0 0 -1
2355 2 18.743711895662983 30.63989819877547 21.45612413486941 0 0 0
962 2 20.368415693879854 28.636292150737148 21.678294543626944 0 0 -1
888 2 12.939993076564074 21.79900369587692 12.229250952016653 0 1 -1
2392 1 8.943509495653164 8.390244581343309 23.581391046662368 0 1 0
5995 1 11.092708377168789 23.839725806563713 14.458337475846069 1 0 0
626 2 22.689045406819545 15.086154356388741 26.615946641597375 0 0 -1
873 2 11.424669253422435 20.565639353077557 15.021812418973608 0 0 0
1781 2 10.990076902974259 9.37293504966319 21.99566330755535 0 0 0
2311 1 14.834434120440212 13.504363554088256 26.35688073974203 0 1 -1
1515 2 10.75240855858538 9.412391140572362 1.4696053952379837 0 0 0
1896 2 19.107923224119006 16.23333825458866 25.700204675402414 0 0 0
1108 1 8.468588907612736 10.639694840971352 18.81101013983359 0 0 0
984 2 14.227013088063275 6.674586192499366 17.243809280538535 0 1 -1
1125 2 13.693214543539456 30.871828795005072 15.196827333192456 0 0 0
909 2 17.067884708188885 28.968402630550163 24.846670615735178 0 0 -1
4438 1 9.134468760539649 21.471211332235725 8.737495294137437 1 0 0
2354 2 19.565663601258407 30.677891178779774 22.741880269085076 0 0 0
218 2 14.3993351570301 24.733309522630417 8.940390955798808 0 -1 0
435 2 15.16677864720869 10.156666272527845 13.11798837057755 0 0 -1
1235 2 5.588100706062679 4.646320442556596 16.824973107599487 0 1 0
1132 1 10.023350914864045 8.824089591402176 10.482160536728266 0 1 0
1780 1 10.801072047316474 10.242117056713854 21.510218458631662 0 0 0
898 1 18.530695950678215 24.316016002385776 14.926732168892213 0 0 0
1514 2 10.052789851708134 8.811360963812392 2.7843237047586475 0 0 0
2639 2 15.19629210742801 26.390735429365385 3.77801849587154 0 1 0
352 1 4.881600829560425 8.767235196063684 2.9295250390763607 0 0 0
961 1 21.16412130806905 28.31533230630576 21.26650126524288 0 0 -1
885 2 17.571828901963983 8.5489215750619 18.999296460016264 0 1 -1
1734 2 0.603263011274854 6.264321356855191 3.433311299327873 0 1 0
2316 2 14.93031629055175 22.368960361364984 8.884779298994477 0 0 1
5805 2 14.541824226113464 29.376837387130717 19.942479060722818 1 0 0
818 2 22.79409359230899 30.792075347009188 12.910413008685673 0 0 -1
775 1 17.69711181367734 28.506941471082495 7.755158885565836 0 0 0
1603 1 17.70176042750446 21.052592037492474 23.2835106293702 0 0 0
5245 1 6.21500008655018 8.54163484274359 14.522387202157319 1 0 0
1605 2 17.060271010060603 20.526747199649233 23.84386564920506 0 0 0
1686 2 14.187100128601442 22.25402219157754 20.499215317635844 0 -1 0
77 2 12.162755607914823 23.410229694414834 7.160143706459871 0 -1 0
100 1 5.793081361774075 9.20689271764018 5.501341959175116 0 0 0
1877 2 22.97131022540374 31.436720351617094 22.073823734404506 0 -1 0
892 1 15.82401519783958 26.45826289572122 6.787348941641301 0 0 0
171 2 11.118815539117639 14.602839085178251 22.483863348685816 0 0 -1
2395 1 22.361037350211546 29.404858206304876 10.281551088749893 0 0 0
769 1 6.367822643890939 14.5573376580589 10.357508458874095 0 0 -1
2980 1 31.877915365389363 33.31966212129754 26.02478919076182 0 0 0
781 1 7.836597621643367 7.739566679944805 9.784104440436248 0 1 0
97 1 6.851542960874513 3.1411571106775815 8.800381338231574 0 0 0
1714 1 18.203915653513924 26.675804583727846 20.94381108920427 0 -1 0
2382 2 15.335409292393608 26.43930051356691 13.343737094823608 0 0 0
1513 1 10.825347467466877 8.748064744019734 2.210622004262718 0 0 0
1078 1 18.683084017430943 31.044069943300318 19.663412153796422 0 0 0
963 2 21.277593891112993 27.342883312309432 21.41710675840823 0 0 -1
1606 1 12.956610804876478 3.0551671570072747 0.7277140942221754 0 0 0
2353 1 18.997521299621354 30.13678599650947 22.24286417778509 0 0 0
226 1 10.662758654407911 26.637265198712743 8.753563374949492 0 0 0
417 2 15.626077588789881 15.514401092897634 11.238122438847533 0 0 0
985 1 13.721305765867141 12.172677159262182 23.375749949800145 0 0 0
1884 2 8.024567297669721 19.256002457158225 6.4636835698477695 0 0 0
76 1 12.428789294258811 24.16281458052584 6.559990785402816 0 -1 0
1652 2 16.95000394237219 26.026331684322496 21.278039634791003 0 0 0
1707 2 18.831845656929033 16.229305175497622 16.70948660504033 0 0 -1
5976 2 11.659771427151547 22.83850529558861 19.277069020141134 1 0 0
4440 2 8.803501909277356 21.765227915145196 9.60904206594425 1 0 0
127 1 11.797826568018134 12.52523682570032 8.430039624424898 0 1 0
1079 2 18.375798702704124 31.93154698005031 19.648275506243404 0 0 0
883 1 16.781547604792422 7.996284479213352 18.915690181373712 0 1 -1
2442 2 19.846429070864474 18.06432270275088 8.158100880388536 0 0 1
1915 1 10.21443113393201 25.283007486934302 5.735192630131872 0 0 0
2451 2 14.75045237788328 28.145650858648704 14.813960696940311 0 0 0
2315 2 13.449778851290075 22.599099531548582 9.01278542821094 0 0 1
2437 1 4.8742909449001885 12.7011503527752 8.717837367511768 0 1 0
983 2 13.846519758102732 7.026978898509492 15.774262130144791 0 1 -1
923 2 18.378718454400293 21.32368684705013 6.85213639502477 0 0 0
2572 1 17.508457713593607 14.910473462964745 13.86243735673841 0 0 0
354 2 3.9902720376070233 9.16201758383737 2.7166897964226777 0 0 0
156 2 22.050643700890937 25.94615221510148 13.443633638170258 0 -1 0
1589 2 20.25325638753776 27.925200006698905 26.00014728502611 0 -1 0
1616 2 15.688983201415004 17.33747158687934 11.222413636207541 0 -1 0
1050 2 18.486223939857624 25.265651631434842 7.719342517425378 0 0 0
1081 1 20.145189710812723 11.15974171990469 20.968047344738622 0 0 -1
631 1 8.784729055853955 16.69009120993119 11.57396362293162 0 0 0
2445 2 7.606174128070025 9.173672278653099 4.214379982679664 0 1 0
1588 1 19.76064239657468 28.39355250300566 26.721684938120955 0 -1 0
222 2 9.781378938642117 11.47313450748198 22.432188688151648 0 0 -1
5972 2 9.897881857283265 23.248512923068507 11.18044517314666 1 0 0
313 1 8.996200948283056 13.217384820046144 12.509275898122453 0 0 -1
973 1 4.5576153820914405 4.586294313195333 9.879395668957166 0 1 0
1872 2 16.75478587855853 20.496552942736493 12.771937955118242 0 0 0
1106 2 2.7748128135442 10.126451230337834 5.723519100469471 0 0 0
1133 2 9.096940458300185 8.472406508608133 10.268976706770097 0 1 0
2480 2 18.332473527426977 7.848643210696186 21.80040383671328 0 1 -1
2556 2 23.85942547455003 23.65587518962485 23.3463329416397 0 0 0
2548 1 18.160556301842682 12.433810156157717 26.287096062921165 0 1 0
1870 1 17.226227626957616 19.864354359859654 12.199511270341429 0 0 0
2439 2 5.557673177451422 13.151881959009426 9.310883584671114 0 1 0
846 2 9.385522629893737 15.234535580960165 21.109830134501355 0 0 -1
488 2 2.034939883855019 9.941333928634938 1.7432454169450229 0 0 0
376 1 4.983799825494858 4.659762085759929 13.738098606594694 0 0 0
32 2 6.908889007377153 20.601119101843494 1.8717432694928926 0 0 0
372 2 12.330802408033145 7.135230238425033 23.45296603065679 0 0 0
333 2 17.27761578889308 29.90529584054089 11.932710211669928 0 0 0
2555 2 22.33544753336451 23.282040199741456 23.417252834304232 0 0 0
374 2 8.210725993471826 3.4866881361347155 2.908429869363731 0 0 0
1801 1 21.441390121290667 17.928820465819456 15.942510676555743 0 -1 0
442 1 8.592277237961403 2.971882609993244 1.288078949818386 0 0 0
1107 2 2.7471435045781663 10.977936936611036 4.462371563537392 0 0 0
1847 2 16.102653181001678 10.084976421073755 3.242872589887709 0 0 1
889 1 19.43881886547137 28.39889510719756 1.1867951696915815 0 0 -1
2444 2 8.432569207331042 7.908158557109134 4.422505762355031 0 1 0
1548 2 13.082751805220406 13.690818144664766 22.966016897368128 0 1 0
2642 2 14.810375184466485 7.5557461578424805 26.64582175599404 0 0 0
1135 1 8.342453841803486 7.67330792878372 17.271637028726097 0 1 -1
1668 2 11.796871125106447 14.310160514322835 26.6860211153511 0 0 0
1088 2 16.590574514005233 24.385748897166312 25.520743886133655 0 0 -1
874 1 11.98731157367295 28.5555184666808 4.900518907336194 0 0 0
269 2 14.018117390121011 20.8564338093263 18.710613343407957 0 -1 -1
991 1 22.740935739459566 15.572335895446235 13.5606133261658 0 0 -1
198 2 17.76242268764014 27.128027065866817 13.618920017545099 0 -1 0
1089 2 17.58478222166564 25.091711812395992 26.475961882583622 0 0 -1
2468 2 16.756028087809902 16.46329682479993 24.776576381356502 0 0 0
2570 2 13.716591389302058 18.936200457057264 8.366251209365103 0 0 0
776 2 17.03854720193538 27.842619861520085 7.618843714846536 0 0 0
2446 1 8.499517969822676 26.957187465492716 2.03827999916245 0 0 0
1658 2 19.424203059575085 28.200723975650853 12.993305288869841 0 -1 0
1103 2 12.65848584911665 14.797345877485741 19.48345486949057 0 1 -1
2604 2 15.707495820048324 16.302923309600846 18.668181282483786 0 1 0
67 1 10.132985394242246 2.224879413439586 6.97761798765658 0 0 -1
1134 2 10.252685640226689 8.454305093763272 11.351465165051987 0 1 0
2644 1 11.043420534254096 5.992267279472549 19.335817145352603 0 0 0
1648 1 12.222543265968406 18.37033753521521 23.120380255865214 0 0 0
752 2 10.72641184642069 16.284729593069184 15.342746898836804 0 0 0
1109 2 8.199203791965981 11.369533488813353 19.390512221464377 0 0 0
2646 2 10.709651207327164 5.7732559487902915 20.249667733421305 0 0 0
2413 1 11.281159576290728 16.277900953486643 12.246617664845662 0 0 1
895 1 15.828458606076685 29.647681138136782 15.313830251124498 0 0 -1
2603 2 14.82550406945745 15.58594925960685 19.692205913959555 0 1 0
2554 1 23.16632978056542 23.175750633093443 22.867451226180265 0 0 0
2629 1 5.890009039713451 7.223099391312025 7.279900497830613 0 0 0
754 1 11.294835506899549 27.492641651769407 14.139945743422821 0 0 0
443 2 9.417136834762918 3.3093214788723233 0.8944900650237062 0 0 0
1282 1 28.144479330036766 27.733066540841108 17.867556405851538 0 0 0
70 1 7.749401338488569 15.815883366170407 6.716091887763458 0 0 0
1547 2 12.872767537617092 15.219540962566374 23.250142758657326 0 1 0
2641 1 14.913399908456823 7.405420472861133 25.64067520171338 0 0 0
897 2 16.4155040449048 30.004910576121304 14.636739331042206 0 0 -1
318 2 11.032285610421068 24.031612473525495 3.110756466695321 0 -1 0
725 2 2.1055213671509554 3.8559414190511805 0.2889116032026392 0 0 1
2456 2 12.011342913857316 21.31824370356001 2.0138953871089242 0 0 1
1672 1 14.738311915457105 29.719490118262037 9.903785273985722 0 -1 0
1617 2 16.045364895619507 18.899910084750204 11.384702437162053 0 -1 0
1519 1 20.13609149117022 17.623192078732583 12.186910429136484 0 0 0
170 2 9.865111591104675 14.788918945033506 23.569255530494793 0 0 -1
1909 1 13.506689962547084 12.177564659329317 18.707225680469396 0 0 0
1682 2 8.936313179030181 5.924927702826285 5.3059799539247745 0 0 0
368 2 9.582036674842259 14.336903109636257 9.313246635576883 0 0 -1
197 2 17.41920557294874 25.730449428346386 14.252581496971345 0 -1 0
759 2 22.2298003227109 27.482555738997196 4.701262427565001 0 -1 0
1661 2 8.480780554574496 8.73371466186754 25.375939514404802 0 -1 0
444 2 8.830445253972314 2.099324197779616 1.6010939126456218 0 0 0
2513 2 20.259531045086803 20.695962545084747 20.347119011794792 0 0 0
1931 2 15.724711040245788 13.958677890566369 2.8144734618009273 0 0 1
1681 1 8.210044281531108 6.198571472600656 4.785664106021704 0 0 0
2467 1 17.27618348597992 17.27975095887307 25.049900178011132 0 0 0
282 2 14.82957114158818 1.2156381843257398 3.7148258529096556 0 0 0
1677 2 14.855279375977728 22.046280697497306 13.052450628921491 0 0 0
148 1 18.04190880296239 33.30416864187448 22.91641714060653 0 -1 -1
1151 2 24.406068861986142 21.77363265688507 17.512232037455593 0 0 0
1691 2 9.385806706906314 17.445380164536207 0.04615855396901503 0 -1 1
316 1 10.10677613218754 24.022368715355757 3.387200452585413 0 -1 0
1702 1 7.713298176095176 16.68845603386077 14.031350263983901 0 0 0
2491 1 7.2635281994622005 19.280792444352045 4.609504737521773 0 0 1
2626 1 18.59147183810915 26.302492447109724 23.592704448553977 0 0 0
996 2 0.5820916790019885 6.468936729256454 1.3303512424449517 0 1 0
1876 1 23.854456744189 31.568295559774953 21.672260118290858 0 -1 0
2563 1 8.17362894402 7.3295740592283245 1.0438814489747157 0 1 0
2630 2 5.262611594041168 7.528988200891824 7.927559342192184 0 0 0
216 2 17.44824788939946 21.82825981795256 9.537242823035376 0 0 0
819 2 11.215388383585694 3.301153271689689 12.516152300967363 0 1 -1
373 1 7.97756407970704 3.6355135597907045 3.8204296611028177 0 0 0
1049 2 18.37217715349241 24.93492949373695 6.282643462518817 0 0 0
2512 1 20.05416469604407 21.365451886322045 19.685281555276703 0 0 0
214 1 17.81196042123446 21.88406558650633 10.432536204631363 0 0 0
1859 2 10.220126088119953 17.87886300279244 20.642927222561863 0 0 0
375 2 7.146727786967016 3.1339223298700234 4.028151545300184 0 0 0
2653 1 16.528340617019182 11.471174693173626 6.840260137408706 0 1 0
80 2 20.546590602230886 33.40614483350871 26.67572889108898 0 -1 -1
5966 2 12.914392043669205 19.042929923763968 14.22967957407677 1 0 0
632 2 9.712263827518653 16.47711936098992 11.74055978268106 0 0 0
5802 2 17.60506622727852 29.222809804535895 22.863721844758167 1 0 0
1611 2 7.369946995575683 15.1638390109611 3.4440636972783905 0 -1 0
314 2 8.354347652751677 13.771146373305228 12.95545771247955 0 0 -1
2602 1 15.67796502281555 15.568949239848603 19.28034741159079 0 1 0
366 2 22.607968210412174 26.34668390228718 11.464190068130494 0 -1 0
1560 2 10.433725577297206 25.26876351433497 9.862438228740125 0 0 1
2598 2 16.37899073040245 17.35702566723719 14.550249668180625 0 0 0
271 1 15.213683877158113 14.516542899878871 15.261566069334483 0 0 0
2469 2 16.65225644446368 18.0878535217692 24.897311613765588 0 0 0
1657 1 18.860333482427734 27.633315419655105 12.448097487666645 0 -1 0
385 1 7.385882287923122 12.3197591987363 1.3856745646579969 0 0 0
154 1 21.979804101969613 25.17920841512119 12.842107361934499 0 -1 0
1233 2 20.002073013419214 23.75621480198738 1.3278634724074927 0 0 0
1745 2 25.655544392780712 18.527965770530752 23.662355289470234 0 0 0
625 1 22.083084397063864 14.345032123114136 26.608164671733196 0 0 -1
1878 2 23.715430665545462 31.931664678098468 20.759799981998988 0 -1 0
2785 1 26.147538559644836 24.94501238417626 20.702234302279486 0 0 0
1615 1 15.291592527358924 18.240463234159 11.17896394592798 0 -1 0
920 2 18.415783213874448 20.902430381928955 16.558602003115958 0 0 -1
284 2 24.17366858294382 26.809094618065476 18.622984103279222 0 0 -1
871 1 11.027561802740472 21.086657550865304 14.317877103069508 0 0 0
820 1 15.687755565883188 20.909202298454233 27.11200145279731 0 0 -1
2672 2 14.53338864199611 31.305749678814436 13.331272244948874 0 0 0
117 2 23.900417824828985 20.30432566105394 27.03828897052184 0 0 -1
3662 2 3.102886217574678 3.6477843329132256 2.2423136175300855 1 0 0
2492 2 6.653875982975498 18.59854751200574 5.018557622353522 0 0 1
1085 2 11.569187679202654 14.286728950363068 2.421492959285932 0 0 0
848 2 14.303314704713683 13.726965004504722 10.292236775387682 0 0 -1
273 2 15.513761040923205 14.201222532425748 16.17123251391594 0 0 0
1084 1 10.96826249089817 14.622039085855338 1.7234740404887952 0 0 0
1910 2 13.440177630329435 11.481946428361276 18.016917825515282 0 0 0
1087 1 17.075290656474323 25.20543092093449 25.67934239027779 0 0 -1
2585 2 3.6994349064914633 6.494228298411414 4.904875351574294 0 1 1
196 1 17.059909394164357 26.593249539597235 14.100250548240354 0 -1 0
777 2 18.06251784241052 28.658666092333387 6.8818747245771785 0 0 0
308 2 12.942932036775371 9.113173762970971 23.29485895899915 0 1 -1
309 2 11.851549977131418 9.212931306872234 24.22708329738309 0 1 -1
3003 2 8.801578678480338 10.680260357251086 9.380592052464394 0 1 0
1809 2 18.72285978697687 16.056274228398898 8.33303796806144 0 0 0
880 1 17.5640256413406 19.275696815798728 19.1110792008886 0 0 0
315 2 9.701075410751201 13.019485083882236 13.114274635636852 0 0 -1
283 1 23.4263010149239 26.280072051472455 18.233158503446703 0 0 -1
386 2 7.710553220534932 12.234163438264282 2.3264289895427868 0 0 0
1116 2 4.640842795050506 8.786617162838276 9.709099014076001 0 1 0
726 2 1.9777961095957535 5.023469653405538 1.2771314323593628 0 0 1
1110 2 9.33928694643096 10.759027463002514 18.543335971173335 0 0 0
1664 2 9.302146478217177 18.923349541774474 10.120381651131696 0 0 0
387 2 7.019161281228268 11.42258362060195 1.2885231700807709 0 0 0
2306 2 11.795744680655693 28.589801231170185 6.721766567019644 0 -1 0
1559 2 11.357701739579367 24.73928529466336 11.058778375902811 0 0 1
1683 2 8.066901820873154 5.518070270265648 4.1315081506930325 0 0 0
1558 1 10.683015823659602 24.48699833648705 10.360121185950849 0 0 1
3738 2 6.003493185014504 10.874152991443244 11.015478498206162 1 0 0
2339 2 14.415455656876533 4.57733986528968 8.864952524283463 0 1 0
1114 1 4.123698581360124 8.263999511568873 9.07152715100474 0 1 0
285 2 22.71403176136519 26.87750002739494 17.931923243727034 0 0 -1
2549 2 18.12201231546797 13.037245727568568 27.015907368632213 0 1 0
1520 2 20.33329677587711 16.825322311256755 11.655887487189698 0 0 0
1802 2 20.53496618257681 17.789058526064984 15.657293836459168 0 -1 0
901 1 21.329398024165812 19.59922531800834 10.71105839996343 0 0 -1
902 2 22.294957710905933 19.371845293779906 10.766972473930453 0 0 -1
2386 1 2.2921184662080805 3.6972424517525724 11.23026800721585 0 1 0
2493 2 7.993600983258201 18.744813780619847 4.265400276159814 0 0 1
1665 2 9.697757380818963 19.888799242299022 11.189004149445193 0 0 0
891 2 9.31435422069017 0.14155576952230342 0.18601347742505892 0 1 -1
1600 1 15.870635112059057 13.388889591394536 17.544576581325725 0 0 0
123 2 16.071310975965602 14.533549710700486 23.67122117957959 0 0 -1
367 1 8.976216536038589 13.698395160348435 9.738797562845026 0 0 -1
1583 2 9.91703730510133 17.538752597200148 4.927554729235346 0 0 1
317 2 10.000343163891564 23.10799947763502 3.7120424920821087 0 -1 0
2571 2 14.67814999253138 18.29729569421977 9.646268833717786 0 0 0
3001 1 8.916241512885644 11.204879611645225 8.540512456561386 0 1 0
115 1 24.028378191530905 20.764319387329664 26.147447915410787 0 0 -1
116 2 24.879524549845655 20.463399935608773 25.77966562233957 0 0 -1
817 1 21.920274165287857 31.082881862638292 13.288873577799349 0 0 -1
724 1 2.6018012885619832 4.467589501504757 0.8810216534319939 0 0 1
2415 2 11.933449067208837 17.075877527586144 12.16708493910981 0 0 1
1911 2 13.503935626438752 11.770624280136184 19.64355076519092 0 0 0
1048 1 17.8961693754554 24.8262787071633 7.115058588953494 0 0 0
943 1 3.5394000801892807 10.62698716696422 7.5025330847645595 0 1 0
331 1 17.169916012324187 29.500610886035968 11.064017949573698 0 0 0
1086 2 10.653158548409555 13.804336516111594 1.3097988544779477 0 0 0
627 2 21.204148297842814 14.758555387214448 26.40891206681305 0 0 -1
1083 2 19.989823072017494 12.042289942737568 20.5254615834088 0 0 -1
2514 2 19.140700810385724 21.48043222395195 19.498417257444498 0 0 0
1001 2 4.645441916689996 12.423624690332133 3.7318135004919504 0 0 0
2565 2 8.886528855736053 7.042247388767489 1.6057332594416507 0 1 0
2550 2 19.053278348502808 12.090798825617899 26.256925510692923 0 1 0
2238 2 13.301223763916342 26.39146576862078 17.87775614536824 0 -1 1
1673 2 14.537128156097237 30.04772330774644 9.015534700143402 0 -1 0
1803 2 21.990760832388588 18.32577215949869 15.236920618236743 0 -1 0
2338 1 13.744320794099169 5.340846804918463 9.014570599741692 0 1 0
588 2 6.0207386602985995 9.325975723233006 1.6473290797955025 0 0 0
2610 2 27.22340146104731 29.16312403366529 23.22425546144949 0 0 0
2569 1 14.223278556939158 18.168451912423375 8.74425156268414 0 0 0
1733 2 1.1826077047793464 6.06598618810952 4.871176398214045 0 1 0
2388 2 3.13674077896538 3.989941074874936 10.730286954919418 0 1 0
155 2 22.664397718152443 24.579012830164885 13.114310524983775 0 -1 0
2635 1 19.201111355093836 24.137919576415943 21.81996043313119 0 0 0
2681 2 8.97349373839773 16.357052449952697 3.2738297517027277 0 0 1
2673 2 14.58790947104866 30.270096102053905 12.205001256922447 0 0 0
900 2 19.47952442517206 24.385131280026318 15.331309830776595 0 0 0
1572 2 10.748369482659257 7.730661014708291 19.33483864880863 0 0 1
2682 2 9.298118097387984 15.340823355727638 2.126780627357136 0 0 1
1602 2 15.777039746885668 14.145342753988476 18.155654528624282 0 0 0
2680 1 8.60251822372613 15.913338941762515 2.4401395060917888 0 0 1
981 2 18.66874949511387 22.18935919279869 2.734540371430576 0 0 0
951 2 22.266291503063144 20.038984390927663 21.43231911866059 0 -1 0
272 2 14.642806244652865 15.267586371475717 15.497648011845385 0 0 0
1582 1 9.133980296360708 17.007435060104502 4.736596414909043 0 0 1
2574 2 18.0624568829515 15.178428471091696 14.636105669681488 0 0 0
2631 2 5.880153328064743 6.233579562343015 7.275578444817757 0 0 0
2636 2 18.663050261637714 24.95695389507407 22.019196405114634 0 0 0
1886 2 15.455578656436453 5.578369686392561 13.961215529670168 0 0 0
1907 2 11.863198339792731 10.974812600689424 0.5624064361196567 0 0 1
876 2 1.4778212872838017 1.3385090457254483 4.70756418876726 0 1 0
1890 2 10.703751510628555 21.299557936966238 5.335896062162448 0 0 0
4509 2 16.567094988430163 33.00666987903761 25.529152051569383 1 0 -1
2835 2 12.112519518824678 15.475209595953089 0.710406026004203 0 0 1