LAMMPS data file via write_data, version 8 Apr 2021, timestep = 200000

6144 atoms
2 atom types

0.07525760532807398 59.83317677530286 xlo xhi
0.11185469037419599 28.22861130962488 ylo yhi
0.10330985490828312 27.308135145091974 zlo zhi
10.189028083242265 10.107629797443387 7.031029157163273 xy xz yz

Masses

1 16
2 2

Atoms # atomic

1 1 7.413109618179209 4.947699985391804 4.396677596902262 0 0 0
2 2 6.508988843489439 4.628849557151877 4.117042157700836 0 0 0
3 2 7.2942571320803316 5.906142142099732 4.6515934771226055 0 0 0
4 1 9.858617182588054 6.822844208155515 11.08689550827566 0 0 0
5 2 10.307863552751286 6.398110045258541 11.828634619181253 0 0 0
6 2 9.647202633134643 7.697065245049994 11.476346055513682 0 0 0
7 1 10.012062604854407 12.412058210902863 4.138170224267326 0 0 0
8 2 10.369017916532753 12.112350236981078 5.010332785745621 0 0 0
9 2 9.734995348697005 13.34751856940126 4.38726454703327 0 0 0
10 1 12.36559028982253 13.692530056213867 10.923505987464171 0 0 0
11 2 12.959352630614637 13.75566601207795 10.15452566308675 0 0 0
12 2 11.70584117881513 13.031974342812136 10.613649156776916 0 0 0
13 1 14.946835365305194 5.189824498031356 4.362205305056834 0 0 0
14 2 15.176244843364444 4.689310029900521 5.178633121822201 0 0 0
15 2 14.666203498109638 6.097057255104927 4.771141931485167 0 0 0
16 1 17.406351727974876 6.988981209977821 10.873609623681823 0 0 0
17 2 17.9355921216997 6.502813818195304 11.539076668426565 0 0 0
18 2 18.110564378973745 7.155758307894529 10.206144997251624 0 0 0
19 1 17.554792110270103 12.226292563357504 3.8607347530848863 0 0 0
20 2 18.264427975261203 12.487179562564299 3.2445251658610705 0 0 0
21 2 18.067149997889036 11.975653380158436 4.5821051663321795 0 0 0
22 1 20.16254786868834 13.649896327844322 11.147697903684895 0 0 0
23 2 20.730448730199534 13.785853036590177 10.408978243648821 0 0 0
24 2 19.795376076490374 14.579067194250092 11.379724880045355 0 0 0
25 1 11.417144747350566 8.00686367182922 6.364465662318006 0 0 0
26 2 10.699364405076889 8.493711269707244 5.964319825780014 0 0 0
27 2 11.16891375464323 7.501529136191436 7.176194618604835 0 0 0
28 1 14.181999010701237 9.81349776788012 13.132819110826428 0 0 0
29 2 14.506318570892738 9.289697619756236 12.389634431094345 0 0 0
30 2 13.285036161603607 10.133398022334926 12.836163780597357 0 0 0
31 1 13.729037919000339 14.97842518794521 6.182735194887048 0 0 0
32 2 13.90398887719849 14.242339680712668 5.51419224857411 0 0 0
34 1 16.55658775932049 16.7922137697191 13.135701447033016 0 0 0
113 2 15.585071915750811 6.815262211583618 13.669117649970199 0 0 0
37 1 19.405511374267746 7.904459771412224 6.31179846234331 0 0 0
38 2 18.675836566329004 8.539180568468574 6.301115995324092 0 0 0
39 2 19.085091092443758 7.148282439828107 6.864577768916979 0 0 0
40 1 21.63605312069671 9.6982507184723 13.304251386295 0 0 0
1836 2 14.886134409640754 19.215458069363148 22.08404027230743 0 0 0
42 2 20.94611845116232 10.158865642278874 12.773234334719717 0 0 0
43 1 21.60416730651741 15.13355621711123 6.464689214402785 0 0 0
309 2 16.59585194358189 14.184543054517778 1.8904010239672697 0 0 0
1685 2 15.334525587712978 7.0387877520150495 25.789306722584065 0 0 0
546 2 32.43461801208764 3.787875178512317 12.652228872940512 0 0 0
45 2 21.94933131938431 14.563533472619323 5.71362718474835 0 0 0
49 1 5.089585088081514 3.7865752337683367 3.017777453716496 0 0 0
50 2 5.422990172602418 2.920273876251868 2.726823033659706 0 0 0
51 2 4.295048902954036 3.497279923161423 3.5750981158186157 0 0 0
52 1 7.756825201644527 5.205394378576678 10.054818195199681 0 0 0
53 2 7.4037117505333985 5.659739451052057 9.233047361434764 0 0 0
54 2 8.344427875792585 5.888414313318474 10.375547402257014 0 0 0
55 1 7.7372414730303225 10.641112201650543 3.1244368722366196 0 0 0
56 2 8.136676928712975 9.89904912442951 2.684639063290919 0 0 0
57 2 8.329677200791078 11.305145447721367 3.5549336309234336 0 0 0
58 1 10.240270286998138 12.085311643263637 10.023061370864935 0 0 0
59 2 9.847392136148974 12.535673888234033 9.236948795929141 0 0 0
60 2 10.45713073079511 11.126026819530034 9.781642653825326 0 0 0
61 1 12.814578605301389 3.7208250799844906 3.065368831584158 0 0 0
62 2 13.657360460897413 4.197220459393798 3.382732845161487 0 0 0
63 2 12.516903289171491 4.272802871185362 2.282851107322853 0 0 0
64 1 15.166208983416613 5.418006961022391 9.78425790545245 0 0 0
65 2 15.729430435105124 5.9662781133209695 10.325091004401752 0 0 0
66 2 15.357702206159818 4.499273962759086 9.556008399183991 0 0 0
67 1 15.258632623052277 10.539657644787546 3.1672318867531284 0 0 0
68 2 16.035058009964967 11.153800301303601 3.196719560621996 0 0 0
69 2 15.611366035571935 9.652527646227849 2.95777981112267 0 0 0
70 1 18.03848805046381 12.385108261287291 9.675677490323318 0 0 0
71 2 17.643780619680626 12.881485625136241 8.917189933606513 0 0 0
72 2 18.71192635868924 12.991251772628164 10.038722476146026 0 0 0
73 1 1.1857461018811712 0.8170842942656382 0.5906004298496467 0 0 0
76 1 3.708931851764801 2.6460751832316705 7.605876966062208 0 0 0
79 1 3.5405125770900163 8.08652306500183 0.7514113597172487 0 0 0
2154 2 36.21388791930044 6.030166523272355 22.547709979153208 0 0 0
81 2 4.19738533601645 7.57827345808863 1.2639528716392276 0 0 0
82 1 6.354973384490649 9.717964990637762 7.479183237341347 0 0 0
84 2 6.979198651614634 9.058892774394169 7.827390612049899 0 0 0
85 1 8.659419707061243 1.1359239831570953 0.7750656516868945 0 0 0
87 2 8.371848242815439 1.379060395340007 1.6431754134684131 0 0 0
88 1 11.050766738860744 2.585040989483298 7.451286080487087 0 0 0
90 2 11.503763087036681 2.955027863914783 6.6607665617773675 0 0 0
91 1 11.426170239074905 8.084783105638163 0.9656710563671669 0 0 0
93 2 12.183215479189592 7.478812704614084 1.269287489937539 0 0 0
94 1 13.623561350218798 9.424464021124436 7.624175618476531 0 0 0
95 2 14.407635664476896 8.858699403265723 7.844166788607285 0 0 0
96 2 12.774913508886286 8.946661914120533 7.388371779793914 0 0 0
97 1 5.054770952159516 4.318396538719056 6.248250834122703 0 0 0
98 2 5.349930408339285 4.966150828978349 6.927035043657573 0 0 0
99 2 4.441184237090622 3.7460959514426913 6.839314201900485 0 0 0
100 1 7.627776459469246 5.9958656694962675 12.98919285625622 0 0 0
101 2 7.339122650811681 6.4896728734863665 12.187559979090377 0 0 0
102 2 8.291175006254427 5.3152126746721695 12.787814199631777 0 0 0
103 1 7.897330904155251 11.407204156988577 6.145134388144822 0 0 0
104 2 7.5133436760007655 12.06105839493841 5.486474903326148 0 0 0
105 2 7.1775531699677755 10.825814931962034 6.521070246947094 0 0 0
106 1 10.1593356973056 13.09885538294779 13.11856873648581 0 0 0
107 2 10.468579524848003 13.692911198014437 13.854258647749 0 0 0
108 2 10.958177536144124 12.774548046085409 12.727333626424869 0 0 0
109 1 12.673575396285726 4.232222503978018 5.949912018983703 0 0 0
110 2 13.335535911160486 3.59983762924673 5.566021848655104 0 0 0
111 2 12.413797831078822 4.847921458930467 5.241796369569611 0 0 0
112 1 15.194609300727832 6.157850471762033 13.036727383095029 0 0 0
114 2 14.790052532585298 5.449062464657497 13.595511425060028 0 0 0
115 1 15.236771803119991 11.227893923155582 6.174506863976958 0 0 0
116 2 14.550798288379033 10.661675609496067 6.571481631088879 0 0 0
117 2 15.769320603609193 11.709761327324872 6.871010375426037 0 0 0
118 1 17.9432088681374 13.081678640602718 12.972970290645366 0 0 0
119 2 17.497946129142278 12.30089662432612 13.380705113232018 0 0 0
120 2 17.315988284981103 13.400982196752933 12.270021933735142 0 0 0
121 1 2.9667684382477573 2.5979982911781003 4.392133306541915 0 0 0
123 2 3.5747068010787255 1.9101709606214086 4.671099435292029 0 0 0
124 1 5.333429359760053 4.40388528233087 11.17942290844645 0 0 0
125 2 6.161277157546607 4.804967486273712 10.827090021713044 0 0 0
126 2 5.715321032209292 3.7130105887942415 11.741115144336083 0 0 0
127 1 5.58953832736726 9.523006020285402 4.245130776828589 0 0 0
1997 2 22.88106663776743 5.684040712771031 20.530263698747603 0 0 0
129 2 6.409342976201829 9.95264866854979 4.001541902700962 0 0 0
130 1 7.964501857612203 11.68596759156158 11.363510684581525 0 0 0
531 2 21.3684862021978 1.4697253051215042 5.033991610366309 0 0 0
132 2 8.765907658480625 11.945168131285234 10.853569763292242 0 0 0
133 1 10.396624615808491 2.855731089422054 4.28260878747441 0 0 0
134 2 10.967381026787148 2.1029960472887708 4.546011054065847 0 0 0
135 2 11.021859962691659 3.244672563045308 3.6264932798939493 0 0 0
136 1 13.100569009771306 4.577402581448087 11.399853215176298 0 0 0
137 2 13.658190335747577 5.1649645578145895 10.93212809559255 0 0 0
138 2 12.700023136291431 5.069471147209934 12.151480272807166 0 0 0
139 1 12.863805567751715 9.832508124342366 4.604198412668403 0 0 0
140 2 13.647755534297753 9.944498264865828 4.043449207488225 0 0 0
141 2 12.9368243408167 9.049332139380263 5.056937256642799 0 0 0
142 1 15.796418961337146 11.15887346641545 10.81194587022287 0 0 0
143 2 16.595549148789992 11.520749761620197 10.384092800081033 0 0 0
144 2 16.129818206987014 10.521443637452316 11.478056710839255 0 0 0
145 1 6.495844070751856 2.074422302629391 5.404260269781403 0 0 0
46 1 24.15621100271549 16.903779453262572 12.96453207197376 0 0 0
147 2 6.298990772597704 2.879156707773062 5.912854613636058 0 0 0
148 1 9.36255070651326 3.7250427598513385 11.996554242486877 0 0 0
149 2 9.620840096393147 3.905102259260248 11.076772064525823 0 0 0
1758 2 12.56594210512173 6.0259577200707 22.34825244553915 0 0 0
151 1 9.412985869208189 9.119719861855009 5.101122348708261 0 0 0
152 2 9.110654046666085 9.956598311405564 5.516090485678329 0 0 0
153 2 9.81993151764919 9.430854657161166 4.298721074800792 0 0 0
154 1 12.085346736413616 10.586041577074129 11.96772020043846 0 0 0
155 2 11.179590660884275 10.122030554920963 12.12236823090127 0 0 0
156 2 12.401359932558998 10.28327778344351 11.097790453475199 0 0 0
157 1 14.191905887022301 1.927221132735845 4.926583093538756 0 0 0
1959 2 39.244289708760576 11.19594657565468 19.11803531652483 0 0 0
159 2 14.587679633651325 2.1833353610419075 4.084585254844038 0 0 0
160 1 16.66545619266577 3.9338871069925125 12.069654896971182 0 0 0
161 2 16.404707408821576 4.796637408957745 12.464280623242338 0 0 0
423 2 34.63361285877406 8.94249648855069 6.6626841904400695 0 0 0
163 1 17.004731187234512 9.251158457651483 5.32446802081877 0 0 0
164 2 16.433844679975056 10.022109532313582 5.43548078811664 0 0 0
165 2 17.49580295030386 9.237502379359137 4.4646918190809535 0 0 0
166 1 19.68249565148381 11.015859924193649 11.943903837918645 0 0 0
167 2 19.482717298947282 11.931228745848856 12.150603569442968 0 0 0
168 2 19.987248742524947 10.929613475655877 11.010056927612924 0 0 0
169 1 8.779455482141385 4.171831493545347 6.384498036904028 0 0 0
170 2 9.403288784013885 3.655629350991233 5.871778798120074 0 0 0
171 2 8.196810969948388 4.537401942625839 5.705089285210341 0 0 0
172 1 11.353121967583569 6.1171025994263575 12.972473613316769 0 0 0
173 2 11.69616635695133 6.91811023833429 13.439262503386894 0 0 0
206 2 16.679816551778607 2.6261876660485535 3.0051482547626476 0 0 0
175 1 11.24015307886486 11.25022725955385 6.440156709492731 0 0 0
176 2 11.805336873632458 10.739706952861438 5.810023072743002 0 0 0
177 2 11.804137901004518 11.945670676010634 6.922353792332791 0 0 0
178 1 14.306481534648247 12.874332214559056 12.673028447066603 0 0 0
179 2 13.493652325714388 13.06619031031836 12.172705304740353 0 0 0
180 2 14.87053076418629 12.344795190122003 12.049827565681728 0 0 0
181 1 16.551617529190985 4.30947217329013 6.30077710750417 0 0 0
182 2 17.1127800435931 3.828466596848205 5.601316613268086 0 0 0
183 2 17.117554977425574 5.003949617451308 6.705832511247491 0 0 0
184 1 18.67260944321855 6.014935462833795 12.954389680525983 0 0 0
187 1 19.320350701871007 11.293875896907245 5.971403409756157 0 0 0
188 2 19.102021220538678 10.781251074664182 6.770882101024643 0 0 0
189 2 19.94013237278174 11.991561484043398 6.2912953427822 0 0 0
190 1 21.615381952225096 13.17029955356382 13.26309302714002 0 0 0
192 2 21.05733873533618 13.323021117000923 12.370783095234797 0 0 0
193 1 7.797634215992177 2.376886277001359 2.935766259201028 0 0 0
194 2 7.25328546753153 2.264489142404744 3.734555632707316 0 0 0
195 2 8.72501867315727 2.5387884217401195 3.3198571675144195 0 0 0
196 1 10.620442789126212 4.083290788031876 9.639054911631318 0 0 0
197 2 10.833282425166372 3.5217193480509525 8.852519644049766 0 0 0
198 2 11.39720685924155 4.433614202371073 10.057559071969125 0 0 0
199 1 10.769649159695614 10.021690745313132 2.7468312617381256 0 0 0
200 2 10.957034364802956 9.214714329056891 2.163954715991946 0 0 0
201 2 11.481463719458235 9.932002390056402 3.4243451594709433 0 0 0
202 1 13.316249569803306 11.094319480458223 9.691267148043487 0 0 0
203 2 14.23883340295217 11.255014403954597 10.053601956273926 0 0 0
204 2 13.480390701585925 10.486443044924755 8.920920848020037 0 0 0
205 1 15.79165470714581 2.788251658699733 2.6515556318751923 0 0 0
207 2 15.68013882272901 1.9952408192909563 2.104932144576427 0 0 0
208 1 18.13651519386525 4.345657881766494 9.515372856550016 0 0 0
209 2 17.47288039345393 4.327919388174761 10.239015120405353 0 0 0
211 1 18.34074332653696 9.147170301713114 2.830897646141687 0 0 0
212 2 18.221201607361248 8.647633937323066 1.9427086957583115 0 0 0
213 2 18.05592551962169 10.009230555316625 2.513701503808124 0 0 0
214 1 20.85737731323536 11.142114617217073 9.465048143193204 0 0 0
215 2 21.485050047436673 11.385998200371832 10.113960612523451 0 0 0
216 2 21.19454929329073 10.323457968181751 8.951861528829063 0 0 0
217 1 5.523430106928495 1.206319073410888 1.9499895468114028 0 0 0
1619 2 10.534030734177708 12.795866521911833 20.462946721610685 0 0 0
219 2 5.6538622895280035 1.4190480936803793 1.0114104814713512 0 0 0
220 1 8.061815717945867 3.0191688977077087 8.544410235393471 0 0 0
221 2 8.083955163547904 3.7035818508142855 9.26812834785971 0 0 0
222 2 8.252338128442002 3.524317753209295 7.737896473542568 0 0 0
223 1 7.963678317507294 7.935074500002943 2.110036525703991 0 0 0
224 2 8.523928799298448 7.11929440178661 2.2254698412565865 0 0 0
225 2 8.163127089081604 8.347382715461384 1.235006260009692 0 0 0
226 1 10.657542557684398 9.722471504580291 8.689341664867973 0 0 0
227 2 11.325724056549936 9.078503280495502 9.019140431428237 0 0 0
228 2 11.03497070873432 10.154865353548757 7.902157190005997 0 0 0
229 1 13.298570938379669 1.2031673972087478 1.789302546719935 0 0 0
370 1 12.368109716540092 16.32957277243431 12.358141525188518 0 0 0
231 2 13.081854901405766 2.039194230263433 2.2697256145641846 0 0 0
232 1 15.496008540010358 3.1355641744237035 8.525063015253348 0 0 0
2199 2 37.526790248302824 9.683316337412442 16.390436606844577 0 0 0
234 2 15.982784618805452 3.3538595898337116 7.71595299788719 0 0 0
235 1 15.687278456344407 8.142265914047188 2.1072686821842836 0 0 0
236 2 15.789122288383417 8.448973503304467 1.1926397338486618 0 0 0
237 2 16.39027401218693 7.4105311867219665 2.301529650633121 0 0 0
238 1 18.317977319239574 10.011838771882683 8.250343560881893 0 0 0
239 2 18.783904685229093 9.35257603052724 8.78792347337012 0 0 0
240 2 18.31799598055269 10.783184305515036 8.870516986545292 0 0 0
241 1 7.20198532939865 4.387249582088561 1.091462308706314 0 0 0
242 2 7.482036885211441 3.9566344720953217 1.9242759880660627 0 0 0
243 2 6.477304880330744 5.059009436324673 1.348779568015147 0 0 0
244 1 9.997365172609388 6.249820120634937 7.952997261984671 0 0 0
245 2 10.009748843920073 5.623958830472108 8.703736716701705 0 0 0
246 2 9.654463104491246 5.713349540610677 7.241560644483911 0 0 0
247 1 10.060376704474024 11.917769290209401 1.0404005864866355 0 0 0
248 2 9.586470015234404 12.637536605772452 1.5498614826595085 0 0 0
249 2 10.412652646269263 11.28385150956136 1.784037359599513 0 0 0
250 1 12.669145440392017 13.103540700497653 7.745957045424207 0 0 0
251 2 13.434538149349976 12.750299558244796 8.184446831636553 0 0 0
252 2 13.124921518649993 13.761736192918756 7.155937622350167 0 0 0
253 1 14.88945717351437 4.400689126083055 0.8016658787162936 0 0 0
254 2 15.411788619685602 3.9542714339621843 1.5331198525163479 0 0 0
255 2 14.202598330548211 4.986449376085506 1.1415797494491564 0 0 0
256 1 17.607211002664002 6.394469462591589 7.886303122809237 0 0 0
257 2 17.644832228360517 5.697004728736975 8.62412392923023 0 0 0
258 2 16.99038847895369 7.146446453445227 8.081441344339503 0 0 0
259 1 17.595286928647393 11.892190740796572 0.8963545184514348 0 0 0
260 2 16.776472578527976 12.363805680937993 1.1302756248497754 0 0 0
516 2 22.86159906144873 12.178242844138385 12.03044058229203 0 0 0
262 1 20.047363269125857 13.251053363635702 7.939575661652102 0 0 0
263 2 20.517085215434555 12.555952332442924 8.475535061543779 0 0 0
264 2 20.719801035698957 13.885721586160246 7.55535614814038 0 0 0
265 1 9.523045539518888 5.843879968292295 2.7842482499034085 0 0 0
266 2 8.941286412834607 5.30988142413155 3.3601022250114867 0 0 0
267 2 9.986322550012313 5.2885335844922 2.1514493121932303 0 0 0
268 1 12.302238422184493 7.450190809558511 9.86638168904494 0 0 0
269 2 12.562050944201538 6.911673385985066 9.156103421616454 0 0 0
270 2 11.433996864495994 7.103451093965743 10.189083059223409 0 0 0
271 1 12.263494745994695 12.961552109929297 2.8276686201946384 0 0 0
272 2 12.989420305618559 12.894000469266894 3.4771812147655665 0 0 0
273 2 11.488642595314179 12.679635683296466 3.2710614429443896 0 0 0
274 1 14.704759144106193 14.558738425672942 9.512675219691715 0 0 0
275 2 14.255620564159917 15.39492227382977 9.490531829775508 0 0 0
276 2 15.450389702869199 14.680706699910568 10.126889763102351 0 0 0
277 1 17.16875475182747 6.029888103894811 2.7526390123929287 0 0 0
278 2 16.59583619821945 5.507457064808558 3.3448683540975974 0 0 0
280 1 19.48088657799047 7.720776111859055 9.565949985078383 0 0 0
282 2 20.154340774045803 7.904442803256468 10.273486280643558 0 0 0
283 1 19.760892599415072 13.211403500358383 2.7139408919998353 0 0 0
285 2 20.43393014029046 13.28262855925171 3.4200857078380125 0 0 0
286 1 22.263510376853723 14.71579372011093 9.441024568867665 0 0 0
287 2 22.61060561581972 14.946209161507056 10.301648485061547 0 0 0
288 2 22.016615308634467 15.51067309041414 9.000505705977979 0 0 0
289 1 5.405322813375546 6.732425757548455 2.101270025393779 0 0 0
290 2 5.087248215564848 6.579292730677952 3.018405121528624 0 0 0
291 2 6.235004002674634 7.230289668812535 2.1789386393594645 0 0 0
292 1 8.317171345935476 8.479515728934626 9.027321746736424 0 0 0
293 2 8.617868518994113 7.635060116999138 8.653067718705556 0 0 0
294 2 9.066839384326101 9.026262164536698 8.782292458822564 0 0 0
295 1 8.279519284063799 13.875936622906636 1.910668461551915 0 0 0
296 2 7.946893601034746 13.912097593028909 2.831185200589424 0 0 0
2130 2 38.44914993304306 7.313766364028695 22.32715687629894 0 0 0
298 1 10.996397554110239 15.317270348928341 8.741656600700594 0 0 0
299 2 11.268203299872939 14.488945637242862 8.294992287468403 0 0 0
2205 2 40.611652387893464 16.690672326900305 17.02135765266524 0 0 0
301 1 13.31065375605756 6.768526771302247 2.1419415562032897 0 0 0
302 2 12.869228928444219 6.700497795357435 3.0130835976409913 0 0 0
303 2 14.274332846065239 6.957616352544943 2.1816052812045887 0 0 0
304 1 15.968190719543594 8.324357286410446 8.63366008299768 0 0 0
305 2 15.54940432844487 8.16967923046353 9.491082392489144 0 0 0
306 2 16.56700147738369 9.09511666473793 8.761248759434313 0 0 0
307 1 15.84311721815806 13.571944229604616 1.9051487284063753 0 0 0
2081 2 36.264605599140204 7.202038771015301 25.703278450828567 0 0 0
1753 1 10.609799860680896 4.854783236944427 15.386082615911764 0 0 0
310 1 18.474595533975748 15.076753998618495 8.919244506980133 0 0 0
311 2 18.99165626052896 14.456380601995427 8.408330485521082 0 0 0
341 2 6.757798766427336 8.629081313529973 11.950087047212037 0 0 0
313 1 3.2644998682531186 4.750232758238105 1.1094954496866787 0 0 0
314 2 3.1100770877680817 3.9114915219619495 0.6423318645552691 0 0 0
315 2 4.07348451447541 4.660941302322178 1.6961789077481828 0 0 0
316 1 6.264367461333006 6.117689958840349 7.731084059560608 0 0 0
317 2 6.60065004037797 6.6814339465773385 6.998705418002438 0 0 0
318 2 5.672733070476043 6.772432342019536 8.20291084974245 0 0 0
319 1 6.115755798227859 11.743197819317603 0.8491438054651698 0 0 0
320 2 5.71874636884596 10.917843821821725 0.4848110000217604 0 0 0
321 2 6.765889139370807 11.429377359094728 1.5382542442347353 0 0 0
322 1 8.759213087553814 13.42167950721416 7.8668033405759985 0 0 0
323 2 8.110586026347244 13.73479496543158 8.474299222619013 0 0 0
324 2 8.364923945238601 12.646109914479739 7.421001172139541 0 0 0
325 1 11.246278647371044 4.6531255658395105 1.1281551771854132 0 0 0
2069 2 28.894883302994288 6.787759125274269 25.792301744814882 0 0 0
328 1 13.945919768813301 6.317726930585276 7.705212709778731 0 0 0
329 2 13.506997085831609 5.499021962092744 7.330482504106134 0 0 0
330 2 14.43434502022629 6.035416237260065 8.55571760545971 0 0 0
331 1 13.678762432242877 11.634905314712075 0.8795971407726468 0 0 0
332 2 13.298373610041972 12.063321709129323 1.634767243862436 0 0 0
333 2 14.370080432844205 11.12667340040512 1.3004051699391994 0 0 0
334 1 16.18956898500267 13.176117106820904 7.7335941678988975 0 0 0
335 2 16.68947662729327 13.588785553166243 7.049506211297941 0 0 0
336 2 15.582824199900937 13.841175837207189 8.177701434905105 0 0 0
337 1 4.06249784237358 6.342293358468471 4.639684325049795 0 0 0
338 2 4.320327964122052 5.539760456366707 5.138791751054477 0 0 0
279 2 17.504345445701446 5.354065715892335 2.1170589315322927 0 0 0
340 1 6.796360948996753 7.945149993949608 11.251853249687533 0 0 0
602 2 19.907790475313167 0.6574818495489367 2.0205603318685483 0 0 0
342 2 7.392600343040127 8.336531871142224 10.604614308213842 0 0 0
343 1 6.990504244691107 13.26292854893571 4.293591938754283 0 0 0
681 2 24.482966181047782 14.268267435370067 1.743645738063333 0 0 0
185 2 19.009199442027196 6.9341931760774385 13.253229463637386 0 0 0
346 1 9.61103384737613 15.277393245476459 10.96309403180841 0 0 0
347 2 10.259723411174292 15.127506055912752 10.23812571660389 0 0 0
348 2 9.726320360398475 14.481106922562281 11.535777199752342 0 0 0
349 1 11.77476242184872 6.161438564905942 4.196537219722406 0 0 0
350 2 11.714973549522309 6.701280966414599 4.989311113912806 0 0 0
351 2 10.876503918916896 6.224034907199666 3.7789633405336813 0 0 0
352 1 14.588485047508506 8.108637264479517 11.09903392498994 0 0 0
353 2 14.83723669567848 7.478746890355507 11.784612211071257 0 0 0
354 2 13.683315345911419 7.921786332047791 10.842375650944536 0 0 0
355 1 14.497223976411084 13.188757693875628 4.433001823781331 0 0 0
356 2 14.722366914745175 12.479506995161213 5.09544583587958 0 0 0
357 2 15.06020779611565 13.212818325342539 3.608992127369144 0 0 0
358 1 16.746880537107046 14.783832436536754 11.152290218495047 0 0 0
359 2 16.817462701093813 15.451650173122461 11.868300575257235 0 0 0
360 2 17.493919790964735 14.963647370472408 10.496074036980305 0 0 0
361 1 7.047643123419529 7.495151240677683 5.606774263472532 0 0 0
362 2 6.33635446392263 8.058869503905422 5.23501342168261 0 0 0
363 2 7.82010140500545 8.073846651303235 5.32146352403382 0 0 0
364 1 9.484608669766173 9.578741904938665 12.224762932199761 0 0 0
365 2 8.853828885266074 10.297369145564682 12.075674613235151 0 0 0
366 2 9.047409620999634 9.040034623107355 12.967554582591355 0 0 0
367 1 9.25919153619247 14.82303892967396 5.237506938641973 0 0 0
2217 2 28.775140063985635 17.824425388051008 15.45602360958186 0 0 0
369 2 8.849612619939297 14.84985818402257 6.054013084859666 0 0 0
542 2 29.99686310965811 2.3479675006422474 5.578963977721858 0 0 0
671 2 38.11167209830583 15.09573999163111 9.97914993529611 0 0 0
372 2 12.475939781771066 15.653211156542019 11.675888578645349 0 0 0
373 1 14.695799592143977 7.681190033617507 5.429787988089871 0 0 0
374 2 15.517575674447393 8.22058677637881 5.297622841816458 0 0 0
375 2 14.636388544500191 7.3278501828511855 6.316338683923797 0 0 0
376 1 17.36281968359871 9.364369752392463 12.30723412278354 0 0 0
377 2 18.115914366512264 9.954102496340115 12.2576650084722 0 0 0
378 2 17.418887080913088 8.640586145402583 11.620826409726263 0 0 0
379 1 17.25525668988321 14.518256234849574 5.095303582584687 0 0 0
381 2 17.281569151428663 13.731559783173912 4.4841277931617025 0 0 0
382 1 19.50204087519457 16.092271200625003 11.981957529670247 0 0 0
2136 2 41.553828292349486 14.920841637822155 23.819162065157432 0 0 0
384 2 19.20301380570498 15.897692868439853 12.952498385970499 0 0 0
705 2 20.777897455842638 11.271864820644959 0.4604371330558586 0 0 0
1880 2 11.862220193827639 17.49569494936212 18.403062357679207 0 0 0
210 2 18.934430016377927 4.3949616704535055 10.069507508806186 0 0 0
284 2 20.256576439751253 12.881071623018068 1.963605074802166 0 0 0
1611 2 6.424855668555229 4.712342039054801 13.819731501147983 0 0 0
1722 2 13.674739532255341 1.8699315993741734 0.17111199802533147 0 0 1
74 2 11.684681138314325 8.41811260510865 27.130515245336667 0 0 -1
3150 2 33.143030620661015 3.427386356735902 8.0091260981737 0 0 0
468 2 20.692168640823073 8.993296278368899 7.145973604735575 0 0 0
512 2 20.229596752307298 10.283762988968071 4.939108479016397 0 0 0
1755 2 9.765353452910269 4.33366589418218 15.452230183372976 0 0 0
174 2 11.183617159674684 5.5262078686890765 13.703536825859352 0 0 0
261 2 17.310384633133214 11.0952222002889 0.41245092900459773 0 0 0
186 2 18.425451555768625 5.609806471764371 13.812701833119029 0 0 0
92 2 10.904372341566178 7.617256089729009 0.3604461903370633 0 0 0
722 2 18.712835063253767 6.5929020271785825 3.517030769963345 0 0 0
1617 2 9.029590709763573 11.882239929215102 13.894569473723724 0 0 0
86 2 9.065761598446342 1.901709341368408 0.3624018708590033 0 0 0
1857 2 11.612155007283198 15.471524085770675 13.85487580444416 0 0 0
1537 1 12.346361422432517 8.689337634336162 17.83799977548353 0 0 0
1538 2 12.769329803472296 8.228168378771635 18.604807310905084 0 0 0
1539 2 11.559143014440055 8.172987820789553 17.559744004375876 0 0 0
1540 1 14.844318801153436 10.662444531998974 24.472655244954677 0 0 0
1541 2 14.62248613106792 11.520474346469452 24.824812505198704 0 0 0
1542 2 14.086462134763932 10.218054595944634 23.99714341145712 0 0 0
1543 1 14.994378864423046 15.558187036064975 17.614134709295115 0 0 0
1544 2 15.334770577658235 15.011248343402176 18.389110462465084 0 0 0
1545 2 14.678423205428043 16.350083125867116 18.11580287439554 0 0 0
1546 1 17.497003399871677 17.268038167029108 24.801176762621374 0 0 0
1547 2 17.145967348283772 18.187421131534972 24.863660844726212 0 0 0
1548 2 17.848909265619117 17.083438406486774 25.676399692901857 0 0 0
1549 1 19.78422762858431 8.611456845606465 17.77903465855725 0 0 0
1550 2 20.465553941266712 8.890191432215262 17.10437430250406 0 0 0
1551 2 19.58824554875815 9.400447306079164 18.298935133496403 0 0 0
1552 1 22.546307669993563 10.581095247630929 24.54075577237346 0 0 0
1553 2 21.801416535766897 10.037513798876233 24.118531153879758 0 0 0
1554 2 22.879263914496466 9.997195687704176 25.283013832710903 0 0 0
1555 1 22.296154988794434 15.639543512233626 17.646876638571886 0 0 0
1556 2 22.099287116431345 16.493605288775584 18.034294597340306 0 0 0
1557 2 23.14560309983579 15.868430055404056 17.21770375898435 0 0 0
1558 1 24.935911719855053 17.316490157911364 24.43333605651091 0 0 0
1559 2 25.688505684638013 17.823060807310235 23.964454511237655 0 0 0
1560 2 24.453665984907143 18.081779286704727 24.77384261372046 0 0 0
1561 1 16.75934801811721 11.694556050222433 20.183797589021207 0 0 0
1562 2 17.15792967105681 11.1432541946795 19.480755848177935 0 0 0
1563 2 15.998957345700079 12.097530823856387 19.817915791855963 0 0 0
1564 1 19.011287015008005 13.159485923296682 27.023515024211832 0 0 0
1565 2 19.392970482047755 12.724820520580408 26.263136607928395 0 0 0
2304 2 39.04680888502351 20.604919591331186 25.609075214521134 0 0 0
1567 1 18.904916576866917 18.513222435644646 20.099853310264955 0 0 0
1570 1 21.926681041826303 20.54420425417574 26.852152041286672 0 0 0
1573 1 24.207187140757195 11.673108989354995 19.881586117512857 0 0 0
1574 2 23.45045915613543 12.177198634219506 19.540281303871513 0 0 0
1575 2 23.812936143049185 10.886685303307924 20.34022593160308 0 0 0
1576 1 26.56604712436782 13.413618173632942 26.71698101224057 0 0 0
1578 2 25.777132148567226 13.91142656729736 26.318872139997538 0 0 0
1579 1 26.607838276484394 18.862479376910148 19.93644726695939 0 0 0
530 2 22.803289097452538 2.04867558937174 5.473356033497999 0 0 0
1814 2 22.424682100993053 8.949679022948485 15.576414958039523 0 0 0
1585 1 10.410058819893571 7.185219824946641 16.51804772337436 0 0 0
1586 2 10.485291911358631 6.289838021028975 16.195232145082134 0 0 0
1587 2 9.775017157921678 7.609641197281704 15.902113530357685 0 0 0
1588 1 12.853797792270395 9.233743794009394 23.28799027666681 0 0 0
1589 2 12.42028967205803 9.660681151435334 22.481568667614827 0 0 0
1590 2 13.168077022167035 8.392829562908243 22.93683722413183 0 0 0
1591 1 12.779798482106168 14.174678034157939 16.38765487444789 0 0 0
1592 2 12.134912158210224 13.992834509265847 17.095417092091182 0 0 0
1593 2 13.523514684982688 14.718170381081224 16.75496572995874 0 0 0
1594 1 15.31581339613745 15.965666764245686 23.44550475811866 0 0 0
1595 2 14.517105673674871 15.894870383336507 24.010920352399616 0 0 0
1596 2 16.03942523226772 16.295208788251628 24.05422289604951 0 0 0
1597 1 17.66471767728141 7.079134867287087 16.773940533852212 0 0 0
1598 2 18.381829458781056 7.696227182370331 17.141395955778833 0 0 0
1599 2 17.448502677245767 7.413919422383718 15.880399844197077 0 0 0
1600 1 20.370808936455525 9.04732589949165 23.279408264777302 0 0 0
1601 2 20.53151103213639 8.164792299678943 22.842103413722313 0 0 0
1602 2 19.616193178350827 9.05397782818296 23.900985599853133 0 0 0
1603 1 20.214913576633634 14.007475029022407 16.53441746609873 0 0 0
1604 2 20.752359594996243 14.76485169588087 16.89754469879446 0 0 0