LAMMPS data file via write_data, version 8 Apr 2021, timestep = 0

6144 atoms
2 atom types

-2.185695668951472 62.15398480013411 xlo xhi
0 28.043997647488325 ylo yhi
0 27.10527271980548 zlo zhi
10.152918701001667 10.17724225769998 7.108678138029283 xy xz yz

Masses

1 16
2 2

Atoms # atomic

1595 2 19.24954933034485 18.569349985018093 14.862739260854674 0 0 0
1604 2 15.557270675750502 17.667614098679273 24.584374482545638 0 0 0
188 2 13.240989565199808 25.312473491197125 8.532838597866377 0 0 0
987 2 16.283825054603003 7.4459244551850565 18.827745744505492 0 0 0
225 2 13.18283082058235 4.837180024962954 2.2649770656338792 0 0 0
5808 2 17.527491801669417 30.44255859203045 25.85115762295375 1 0 0
25 1 10.56514716726262 11.45702963131143 10.57795161173482 0 0 -1
2454 2 9.68153855395768 15.519493601538695 6.1444139092934025 0 0 1
2464 1 10.280483606831385 13.716656720823936 3.8817791192698303 0 1 0
886 1 15.652638053655899 21.30491862980614 19.649090258546885 0 1 -1
1633 1 16.136648083697505 16.5335484409939 18.314488283837274 0 0 0
849 2 11.048226292954109 19.00996919111632 11.34805213357534 0 0 -1
2443 1 11.324697135106746 18.63914758637285 9.56648902022827 0 1 0
2469 2 7.019212867979076 13.396994232780617 3.934596576350881 0 0 1
2466 2 9.83533524382051 14.308380368432847 4.487226230965992 0 1 0
31 1 7.16470980906979 18.877064773837912 3.2985523654602322 0 0 0
1670 2 15.570138638976111 8.212473272229744 26.88701103704472 0 0 -1
1634 2 16.375093800668832 16.390349116044472 17.379601198911914 0 0 0
1064 2 22.106460826509988 28.12811164357551 18.023179807894007 0 0 -1
4264 1 11.635421264237102 22.348945533016778 11.186079337504957 1 0 0
1740 2 19.383487722133566 14.968872532473787 25.866170562963454 0 0 0
1916 2 13.604260008423967 22.076186998577437 14.598862944270047 0 0 0
1677 2 9.639578151349419 14.284149775340108 19.481841810691297 0 0 0
1709 2 11.00797389479385 6.535999844085606 18.555471388689867 0 0 0
487 1 20.93321990394466 21.005871377756765 25.234675193732578 0 0 -1
1784 2 2.5302022195083955 8.180535849572294 3.569464234729444 0 0 0
1587 2 15.769684932119418 13.588102975434754 14.295528424692263 0 0 0
1586 2 15.677103441817398 14.567078782693999 13.129521904588039 0 0 0
2448 2 2.0764368513730442 3.901707899324728 6.070934423812117 0 1 0
2564 2 10.967626169393085 10.21854870824923 2.0664914308037616 0 1 0
5033 2 1.732467848872112 2.43980011964667 0.9959223168820792 1 0 1
1871 2 20.43828127613494 21.82692469323512 17.71860711063423 0 0 0
2381 2 13.297434075658884 25.799644083541615 14.645030201089622 0 0 0
5996 2 12.329291268298842 24.948118298641806 10.854827287800283 1 0 0
3737 2 5.130464856018591 11.285016317811513 4.595962835658361 1 0 0
5952 2 18.55020448749547 26.99043842489568 23.334930293241484 1 0 0
1708 1 10.456376793800057 6.751823094602623 17.80453557286395 0 0 0
27 2 9.677588500597821 11.712096091788665 10.069681210379253 0 0 -1
907 1 18.448794307833857 27.098828137302082 18.818167611646484 0 0 -1
99 2 11.42430211850052 6.396545322297292 11.32754884252961 0 0 0
1561 1 10.427491663135008 13.284071521516326 17.85528213912983 0 0 0
1559 2 10.843252020854734 29.2238383774656 5.5485263291104605 0 0 1
174 2 25.611698504637808 28.443531944837577 16.560422977844365 0 -1 -1
994 1 5.408422525528454 12.836336143478844 1.4411077144585478 0 1 0
924 2 16.087969151271928 12.693106000875304 17.553714125598905 0 0 0
2473 1 15.220167616372684 29.046538749637282 10.551586202644687 0 -1 1
1711 1 9.125324487904638 9.721506261014635 18.410916814751136 0 0 0
1781 2 8.25274368837336 11.77940183321978 13.492765993570197 0 0 0
1710 2 9.52304349419649 6.859672051525825 18.17035431886207 0 0 0
1689 2 13.486317057492709 4.672476400766435 13.59158077408209 0 0 0
1705 1 12.81047001650873 14.064560066694934 14.477807318699632 0 0 -1
1773 2 12.503429208826631 5.712530305718943 20.088332813726176 0 1 -1
1901 2 9.650761924012187 27.517214711919404 1.851346964284896 0 -1 1
1570 1 13.675482281215896 11.257391711912364 21.255603505153896 0 0 1
2314 1 10.543787666794245 24.108741340108125 7.2643028251903 0 0 1
1129 1 16.100126221058034 10.139478638618112 20.509972900519365 0 0 -1
827 2 18.524723867522972 21.785375370997368 11.182638425026896 0 0 0
1635 2 16.184565605090857 17.50355149614192 18.54087859308293 0 0 0
1017 2 9.52729439345082 5.362381846710098 11.309968566045844 0 1 -1
2474 2 14.669194653276701 29.04787727594496 9.71846436465613 0 -1 1
821 2 17.541920498630123 23.780028142575038 25.67524001083878 0 0 -1
1059 2 3.064707150548779 4.394467777418662 3.9866261315933844 0 1 0
896 2 19.509225844003087 28.878385710587526 16.451305105828233 0 0 -1
5974 1 18.93508639609956 25.17531147338685 20.7987225942073 1 0 0
346 1 13.458524762364707 14.858325417177657 11.193247519722203 0 0 0
1571 2 14.385403234552918 10.686821301353492 20.946910820228954 0 0 1
1659 2 18.664797151047356 21.833227949338262 14.625922582058216 0 -1 0
894 2 13.745056558629361 21.39690846625267 8.754729692950365 0 0 0
842 2 12.235330417142766 19.492909377428276 19.936678837884003 0 0 -1
226 1 6.476717318347792 3.5929791375498628 9.137846608885868 0 1 0
1113 2 10.851088031297131 22.37515279916108 9.759510758149812 0 0 0
1669 1 14.760556746149504 7.693076090081961 27.02794136049148 0 0 -1
1063 1 22.614682427609946 28.945251763716996 17.610737668332746 0 0 -1
1671 2 3.9995018705018257 1.1577773699029457 0.46585605799637786 0 0 0
1791 2 7.213819304454199 5.682277268380606 5.744467681617526 0 0 1
1656 2 10.860394652154021 21.20731237680502 0.6553337504332603 0 0 2
1002 2 5.364274016532467 15.978402100821961 2.1051142821706783 0 0 0
4265 2 11.502194823529386 23.326422837254952 11.452225794355451 1 0 0
1739 2 19.72551661823573 13.619111685840062 26.75513842934017 0 0 0
822 2 18.850388446858116 23.675327434130484 26.552432226143186 0 0 -1
3736 1 4.906977635005044 11.9786374910599 5.223006118284011 1 0 0
108 2 10.494896389631354 25.523310185235616 8.171528583012769 0 0 0
887 2 16.342361685076167 21.9663918296964 19.843222885276457 0 1 -1
2465 2 9.656237539629274 13.497630345378857 3.1797354327689273 0 1 0
54 2 13.469450919950187 28.087495828943805 13.340274363089629 0 -1 0
43 1 17.356538210555087 31.87700841564865 26.569335640726038 0 0 -1
223 1 13.691023189303678 4.158773277878461 2.867780758412267 0 0 0
1917 2 13.121227286358543 22.019835983177963 13.125907152047509 0 0 0
1546 1 14.796075692177983 13.667502476417868 20.854658300113044 0 1 0
853 1 5.684629314374454 19.215903903517916 0.877656703258179 0 0 0
1687 1 13.48215129109241 4.67297145710725 14.555336686611634 0 0 0
986 2 15.334384634214686 7.51479807863359 17.492747975241887 0 0 0
1706 2 12.433266346272038 14.947009009016035 14.304236333736359 0 0 -1
1703 2 10.373188271000966 11.893728763306513 14.66694849443685 0 0 0
1374 2 17.2512747690967 17.823661834137635 1.0997733755323034 0 0 0
1688 2 12.621055623805375 4.9163582607850715 14.913318392198333 0 0 0
2244 2 20.076923025877488 11.673499144245818 21.671423647622117 0 0 0
1601 2 10.135610946633683 17.74650196604786 18.991961126937593 0 0 0
922 1 16.986120934511273 12.69480336562191 17.13591075787348 0 0 0
2343 2 10.206399004127537 12.67919183174823 26.937595203244555 0 1 0
1810 1 3.8473354556771984 3.782358972374186 10.251020631474601 0 1 0
1563 2 10.508936181961769 12.490095133758482 17.272439367905978 0 0 0
908 2 17.496231108761837 27.394746869887637 18.676758590683935 0 0 -1
893 2 13.169741266972629 22.852143822779915 8.614915952431078 0 0 0
28 1 22.39367896675085 19.350983854180857 16.52311671559082 0 0 0
2652 2 22.342708825826286 26.37541228148201 23.554337948332027 0 0 0
343 1 12.725173685874164 18.14671800834406 26.510056905606753 0 0 -1
1874 2 9.251301521000617 16.052244910193025 16.99122954114911 0 -1 0
1585 1 15.400398955722881 14.452413403914655 14.046216366937157 0 0 0
2414 2 8.860683618374484 19.334231470752616 7.844354813299245 0 0 1
1538 2 8.453181742707727 10.975233541355685 21.57750984704881 0 0 0
2441 2 17.206965718101223 16.680107159531115 15.448712041044276 0 0 1
847 1 10.949263699579149 18.939269793606133 12.356078091409842 0 0 -1
1562 2 11.21898250007754 13.841585777825692 17.58366839561184 0 0 0
1015 1 8.792172585953228 5.1669009407124875 11.96802558839155 0 1 -1
1738 1 19.796461104681256 14.600876538592185 26.69439616096406 0 0 0
1716 2 24.20412666228859 30.9694600119096 19.166931358259582 0 -1 0
30 2 22.01970493790941 19.963988080788337 15.847580346416523 0 0 0
5965 1 10.960758092804824 15.511431168546299 12.216161430625906 1 0 0
1785 2 3.205178068608622 9.477544739386316 3.0446453088798417 0 0 0
830 2 3.198136729782906 3.14014877486869 11.94220091489951 0 1 0
2440 1 16.26905563969321 16.904129839711334 15.206490669862283 0 0 1
98 2 11.456933025572795 4.926525931666719 10.542820530356574 0 0 0
336 2 11.470048829234539 22.000778045177153 17.420051107198496 0 0 0
369 2 14.669033559413919 12.149726057720816 10.177707578176436 0 0 -1
1065 2 22.756305612432985 29.60226611248466 18.290588430575987 0 0 -1
1130 2 16.259534226801314 9.279501330771591 20.862466368887635 0 0 -1
1042 1 6.368573421530583 9.90513314056192 4.019087988514046 0 1 0
962 2 13.113231086392144 24.1722195981445 0.8962176392960848 0 0 0
888 2 14.96909404440082 21.51667510843667 20.401264257987712 0 1 -1
995 2 4.909284004961968 11.968787492594187 1.4148172175113358 0 1 0
1558 1 1.271282529001684 1.5642561663651373 4.829986387830635 0 1 1
626 2 10.941869014733008 13.429843841810554 0.02736363076250517 0 0 0
300 2 10.464542835239929 27.872829459703688 7.57094078737858 0 0 0
1790 2 8.67439365555801 5.9414539322271995 5.435788879242083 0 0 1
2311 1 16.27708771111521 20.172943690020983 23.337970533971554 0 1 -1
1515 2 6.9009637610668415 15.51218998221477 3.3537708844794363 0 0 0
2534 2 32.0611504311435 34.32330336594911 24.52893261512775 0 0 -1
1830 2 10.954469327274062 27.223655316744598 9.912809714564204 0 -1 0
984 2 14.87323922926661 4.335181586139956 15.49397302002283 0 1 -1
2433 2 18.610708157977147 24.47200817578758 13.308018461973662 0 0 0
909 2 18.96739095903419 27.692613437850238 18.291704633195152 0 0 -1
2668 1 17.06230374665084 20.881424802970866 10.641010680408092 0 0 0
4511 2 13.072756901309553 29.762347321717563 8.095396738754536 1 0 0
218 2 11.83172302787007 27.349385719180393 2.5053048397591886 0 -1 0
435 2 15.924888735228457 10.16042165144094 10.6802077079594 0 0 -1
1110 2 4.951409498767764 9.143028734684666 12.602055496095435 0 0 0
1132 1 20.555415143665996 30.256192026169312 12.653642143600173 0 0 0
1780 1 7.957093015909899 12.688156859931352 13.228492382991172 0 0 0
898 1 18.013809908657723 27.608023902086877 13.506016427958283 0 0 0
1514 2 6.991759117218858 17.048422287478864 3.0398104552791754 0 0 0
51 2 12.528737984749128 19.669346088361642 23.41917411723335 0 0 -1
1610 2 6.899458849608998 16.014331212199753 8.98702717954363 0 -1 0
961 1 12.812669266237435 23.28753626595086 1.2267104374545341 0 0 0
2637 2 16.749361023188598 28.989016481803436 26.858964427115392 0 0 0
489 2 21.20567451264967 21.9064781108925 25.45039734258622 0 0 -1
2316 2 10.651652399509022 23.366779613279046 7.954778166753994 0 0 1
3056 2 15.217587417506763 27.538787951182215 1.2930645284789406 0 0 1
818 2 17.246391588025087 30.66724868923748 11.91907391878918 0 0 -1
775 1 13.862002503299923 26.21481374177793 4.806932086118722 0 0 0
1603 1 14.637799738270544 17.779768255603674 24.29790519412177 0 0 0
2290 1 18.09854952430054 14.902170538043237 1.3750485018817067 0 0 1
1605 2 14.516484238139022 17.328737954017825 23.434597195371545 0 0 0
1637 2 6.756537875056446 7.608366588005681 17.681338496029735 0 0 0
77 2 21.89511906908022 34.47227413513073 26.129821008107008 0 -1 -1
1702 1 10.28859695351812 11.628146889889575 15.577338139348631 0 0 0
1894 1 8.31653564094935 17.600743159199464 11.953589676381188 0 0 1
2669 2 17.164024426741772 21.314705284927154 9.810923086617416 0 0 0
1567 1 17.801465479332858 30.717143006026507 20.700059433535895 0 0 0
5807 2 17.025786200001864 29.470460887637515 24.753597369229865 1 0 0
1016 2 8.458394950606714 4.28788981230925 11.662628370317183 0 1 -1
2283 2 16.970433127609105 23.955587977843187 9.07205319897472 0 -1 0
2382 2 13.222653155665064 24.248428007484346 14.273373279239355 0 0 0
97 1 10.99514407769545 5.826979660496264 10.597418303431626 0 0 0
2532 2 14.2559142444841 16.63617484138702 18.3000080583773 0 0 0
2475 2 16.082434306896843 28.850032017161194 10.187762095500911 0 -1 1
1513 1 7.029654246338569 16.149785408613013 2.611965937784328 0 0 0
1078 1 20.126115590940795 24.03778224271491 5.831798355986391 0 0 0
963 2 12.86895689369242 22.624100723952616 0.5404965090985739 0 0 0
974 2 17.287494758242975 25.96260514717651 8.249266298820634 0 0 0
2399 2 8.720522467518887 24.351268378176314 2.2350320985667826 0 0 0
917 2 13.811878594837744 14.527335424653213 25.081080570755304 0 1 -1
1675 1 9.020759370976545 14.589412983569872 20.205887408391508 0 0 0
985 1 15.408631223333924 7.624528458651218 18.455960455898282 0 0 0
1883 2 10.667228535602742 22.29248505553861 14.830646759993282 0 0 0
76 1 21.768129841984365 33.49398502751493 26.306181664476334 0 -1 -1
1611 2 6.738549032793933 16.71956388507563 7.5729066579879145 0 -1 0
1707 2 13.808416027487919 14.102899658247674 14.240152866504088 0 0 -1
331 1 4.290806533292249 4.397901855857406 16.76200130703022 0 1 0
1548 2 15.691214932677774 13.909232763559729 21.091902237766426 0 1 0
2576 2 4.574398495184651 7.995977764731236 9.073626244517843 0 1 0
1079 2 19.276097345790784 24.40514042156738 5.482421651521201 0 0 0
2315 2 9.61386430595595 24.038010210654477 7.026733051529632 0 0 1
2442 2 15.922616807558857 16.101638722899057 14.724757331978697 0 0 1
1915 1 13.612713674885995 22.576683967356786 13.810732340836902 0 0 0
698 2 19.098782679853535 11.118610217813423 13.329713086101316 0 0 0
2406 2 15.170184560970643 24.466499429056064 19.745006736945754 0 0 0
1685 2 17.291961847208363 20.558658778677046 26.147487690430747 0 -1 0
983 2 26.50125367344204 31.851090519092335 15.698048215063658 0 0 -1
923 2 16.831347209577032 12.184488869985783 16.310596780712487 0 0 0
2572 1 15.475815757189277 22.08634452571555 17.16681488652048 0 0 0
222 2 12.05812063657504 7.947675713482384 24.52483637008965 0 0 -1
156 2 6.200559095305478 2.84207660286952 7.601710869320169 0 0 0
1589 2 8.282893673959364 6.070977300032794 19.687362515826685 0 0 0
53 2 13.04811289421978 29.562923786218654 13.516646838350336 0 -1 0
1050 2 10.37939132885819 21.30393819991806 5.878219659222804 0 0 0
1081 1 19.50169635119179 16.094128684563515 21.892467670286003 0 0 -1
1594 1 19.188567240880467 18.06593626776938 15.649504516794886 0 0 0
2445 2 10.45181128055366 18.745505704738665 9.185816671002264 0 1 0
1588 1 7.921811659548196 5.222440846721338 19.412881570880128 0 0 0
1150 1 18.957146286386205 18.700251238210278 18.382017787737393 0 0 0
1841 2 19.06916534161706 16.03470423135051 23.56411094050527 0 0 0
313 1 15.283137064630651 16.89609864755219 11.23206881707952 0 0 -1
1118 2 23.108429857416105 29.176481246926212 22.786251793609104 0 0 -1
1872 2 19.877576540321684 22.32416233725948 16.31246939633889 0 0 0
2613 2 21.42639571397483 23.176388745799223 9.178791571237422 0 0 1
1133 2 21.10034795693725 30.35633206722736 13.408812431601524 0 0 0
1762 1 8.052858109883385 9.786976221611562 13.138410433220965 0 0 0
2556 2 25.07673240030703 22.49670840276054 21.167117536211567 0 0 0
2548 1 9.514299661522227 3.5891315999913758 3.7892241527847434 0 1 1
1870 1 20.637672732250966 22.296412821655043 16.888727826909477 0 0 0
1662 2 16.28326680383029 16.50030526883201 26.88649029645255 0 -1 0
975 2 15.873347881406954 26.145191821234928 7.624358272900888 0 0 0
1736 2 12.79478105176037 15.507484552613631 9.780647536635252 0 0 0
376 1 25.386186730877487 25.427932994967136 17.34774058584443 0 -1 0
952 1 22.88590420361368 25.878349679038255 2.638968374442037 0 0 0
372 2 13.207975623171986 10.966615059536094 24.683142878556634 0 0 0
1812 2 3.725378218965237 4.712919369195661 10.380141799199528 0 1 0
2555 2 25.189969193365144 21.08358562224496 21.781020094249048 0 0 0
374 2 10.803901948351442 6.530842861289985 5.1479664266970655 0 0 0
1801 1 14.131002908925819 18.25964302033571 15.982545727895191 0 -1 0
442 1 13.08435916130049 12.896405758346646 2.5702864047334013 0 0 0
1273 1 10.364125569954819 9.396473147483908 26.78892336182886 0 0 -1
796 1 1.5966436303786096 6.689296119960097 3.2770578165477735 0 1 0
823 1 7.728346339985648 11.632130911710211 16.483824070148632 0 1 -1
2444 2 11.52615106752732 17.68082536260549 9.46833666931831 0 1 0
113 2 15.844803065262159 26.130019106819475 21.456122216687696 0 -1 0
2642 2 4.543021434028265 6.286175514317255 5.539875750973479 0 0 1
2307 2 17.682019984929234 27.516893886912875 6.917925134026853 0 -1 0
1119 2 22.334608068168382 29.352728293332458 21.30681151219693 0 0 -1
1088 2 15.97693172135293 27.82106334814222 20.11940231676659 0 0 -1
3055 1 15.141760404323911 26.87198637145958 1.9689204180272246 0 0 1
269 2 15.190397771600377 16.90383747274368 21.502923068173086 0 -1 -1
2306 2 18.07471962085802 28.698755110747474 5.86917562204952 0 -1 0
198 2 18.37853025018199 28.45708474709722 10.160471169628932 0 -1 0
1089 2 15.165318478036202 27.818785506684378 18.734227493415464 0 0 -1
2363 2 11.304740719804734 23.792152256317816 16.657026023460553 0 0 0
2570 2 15.480256109065216 23.828345322379395 2.9177443659370352 0 0 0
776 2 12.951548798429382 25.917788962980456 4.8343484363082325 0 0 0
345 2 13.274653954677447 17.956871347416858 25.71007698276109 0 0 -1
1658 2 19.554291826270617 22.086253152384625 13.264705655204638 0 -1 0
1103 2 12.991216704535027 11.562695655188975 22.877766842619575 0 1 -1
2604 2 22.279586079306384 21.9730407695453 19.78270382538089 0 1 0
2431 1 17.662622382914634 24.763024690149088 13.362333518015825 0 0 0
1134 2 21.01425323446397 30.68076862133283 11.872141764316266 0 0 0
2644 1 10.978184020057608 12.041468870912052 20.802225675642635 0 0 0
6044 2 13.265343406980463 25.57258601824366 20.591271611875676 1 0 0
812 2 18.706128881411125 17.789758869573344 2.8674730668630786 0 1 0
1735 1 12.236886472619098 15.928689400830477 9.095379222637687 0 0 0
2646 2 11.933911892593258 11.882671063525695 20.815205360428628 0 0 0
943 1 9.98426263481932 9.203032300772174 3.2576385704286923 0 1 0
895 1 19.432210722675734 29.16854934705131 17.388239754499065 0 0 -1
2603 2 22.51747609641309 21.59199557053626 21.285902967251225 0 1 0
2554 1 24.6358296117081 21.88370358987363 21.83840608224612 0 0 0
2385 2 7.8248991291058845 18.283420054456187 6.063299827006146 0 0 0
2305 1 18.363707609701972 28.130584456755514 6.600056288855791 0 -1 0
443 2 12.394270910449844 12.212914761595725 2.605447364211642 0 0 0
2234 2 21.44970193866473 13.256321389342286 15.709486064200537 0 0 0
1058 2 2.8693392950615575 3.6080164699235198 2.6191289489227425 0 1 0
954 2 22.575667786083418 26.787001853122767 2.917488429683298 0 0 0
2641 1 4.134583264310209 7.108604713136143 5.824817629377963 0 0 1
897 2 20.061008920783944 29.8434228458291 17.63067644887786 0 0 -1
318 2 13.211322707468856 22.40051218049005 2.9580821538472097 0 -1 0
725 2 4.853197868431327 3.1715595692476892 3.428616290083289 0 0 1
1835 2 24.010598192326704 19.545422341649918 15.937477626929095 0 -1 0
1672 1 17.707852806581794 25.648130515954076 10.122551422320013 0 -1 0
1539 2 8.755135945607211 12.393064930753775 21.04385359195194 0 0 0
1117 1 22.932558362674143 28.781942052088016 21.836976851168636 0 0 -1
1737 2 11.53231859390792 15.273153756483186 8.947550704344932 0 0 0
1909 1 10.958756101961395 9.358446355045823 20.461945775886143 0 0 0
1682 2 7.216424558613434 7.872475209126168 6.039769194411441 0 0 0
368 2 15.625045629321189 12.977011873988143 11.163000602210648 0 0 -1
197 2 17.900261004913695 28.298437916281316 11.59359320962278 0 -1 0
759 2 10.67340280718187 2.9052394298133284 7.55049306945532 0 0 0
67 1 24.476051411961862 25.281347383530438 6.326770482202989 0 -1 -1
444 2 13.52707292465647 12.873780312836631 1.661285269799888 0 0 0
2513 2 17.019668277444985 24.463107446281192 15.019858153047874 0 0 0
588 2 6.441827058104006 12.392843716233212 6.6984158588130205 0 0 0
1681 1 6.566639716840709 8.542402695334747 6.222357678679809 0 0 0
2467 1 6.745660077450752 14.266729380950228 4.363478915388505 0 0 1
1596 2 19.870846072982275 17.408066413374492 15.535805496198222 0 0 0
773 2 10.397346972850372 26.046122235188218 4.779014206941271 0 0 0
4434 2 9.372400865232642 18.782256271634157 14.971799603596345 1 0 0
1151 2 19.433275309112002 19.522650176773336 18.41314686332006 0 0 0
1691 2 13.565431988180556 17.93638904617946 6.628480571925252 0 -1 1
316 1 13.527515985264074 21.765818174623238 3.6524092620509294 0 -1 0
2612 2 22.505052720140977 23.50000236040073 10.40175052021405 0 0 1
2491 1 22.077792919747385 23.60124369004841 25.531073891213122 0 0 0
5 2 20.379397540626215 11.573750333867949 26.424829313648235 0 -1 0
1609 1 6.970275803471645 15.864196523760624 7.988270440828796 0 -1 0
1876 1 9.018354353584936 9.793867863944039 22.916518093746504 0 0 0
2563 1 11.366960088157654 10.933139431172762 1.5806481525738034 0 1 0
2630 2 4.041113937034099 11.360506117595987 6.5388328964397555 0 0 0
216 2 16.332292637947788 18.22332611150329 14.129812739942258 0 0 0
819 2 18.835724751923344 30.6111319196077 12.06323911631928 0 0 -1
373 1 10.29952135017566 6.623095459415739 4.275350658618616 0 0 0
1049 2 9.212040611572359 20.35620352670707 5.8963365282222036 0 0 0
2512 1 16.451021748205957 24.417566395875294 15.838246810904733 0 0 0
214 1 16.423963943764324 19.123356039282573 13.754496437531733 0 0 0
1900 1 10.035566691848956 26.957395883322782 2.5005116794265176 0 -1 1
375 2 10.409895130777283 7.5602582738970785 3.9190229377240113 0 0 0
1668 2 16.51640143444975 13.463690190650118 23.161626438345817 0 0 0
2439 2 19.218983405101177 20.105454071295284 25.38872421950521 0 1 -1
189 2 13.868746115781427 24.75038098776082 9.761585936596735 0 0 0
844 1 1.075085959101472 6.820378799149859 0.49828231289193275 0 0 0
187 1 13.075030638721092 24.649183194978345 9.230247111228515 0 0 0
2447 2 0.9083791661987708 4.043721842759958 5.182768707463606 0 1 0
314 2 15.973717269994864 17.534168686690812 10.798397986477912 0 0 -1
2602 1 21.80794497341628 21.7476055909471 20.620085399077528 0 1 0
4508 2 16.851622201239824 25.858856149504543 24.564332042159776 1 0 -1
1838 2 8.080643323837855 14.947525810515321 10.787514223576819 0 0 0
1858 1 10.142621927923969 11.968023675976715 23.904698323728415 0 0 0
271 1 12.559927457558032 14.43130189833564 17.151969030580645 0 0 0
1547 2 14.727756236894933 13.55239147923723 19.882777714898705 0 1 0
1657 1 19.547997559374622 22.161017501333824 14.264272718169545 0 -1 0
385 1 18.838155999662316 20.01441054391533 22.77061769148063 0 0 -1
154 1 6.007184808551432 2.824750760629126 6.596775405038244 0 0 0
29 2 21.77065981563395 18.576082066825016 16.55233265657964 0 0 0
1152 2 18.933077147669106 18.497288810198707 17.444277091109186 0 0 0
625 1 10.359409348082853 13.325896470745565 0.8462949384932146 0 0 0
1878 2 9.540625470653545 10.556996467131913 23.316723375877494 0 0 0
2437 1 18.709334399279108 19.80858285047419 26.127096571009446 0 1 -1
167 2 28.784645704244294 27.04902204211632 25.137844514771647 0 0 -1
2446 1 1.7160280835052717 4.477823055152421 5.432255076282857 0 1 0
2591 2 27.28370871002426 31.681064973840932 22.167737279382685 0 0 0
1622 2 8.382664966764796 7.756536051246653 21.728801941283397 0 0 -1
820 1 18.48968259078147 23.97810879772956 25.656684842050765 0 0 -1
2670 2 17.094032051035843 19.915954341360678 10.596710437516299 0 0 0
117 2 22.280878828652305 17.095144700324784 23.930139972926337 0 0 -1
811 1 19.579674550565482 18.148313472341115 2.936500951362442 0 1 0
2492 2 22.280791594770733 23.769463407308635 26.47307354867625 0 0 0
1085 2 13.067569996452022 13.417147134190545 6.03133985031871 0 0 0
848 2 10.979669502722324 19.85869702466975 12.650146538159747 0 0 -1
273 2 12.864218480081867 14.426821128013652 16.2154441000528 0 0 0
1084 1 13.59669706710913 13.893137247621121 5.389272845103278 0 0 0
1910 2 11.010712960740438 10.312730564887538 20.78342735209326 0 0 0
1087 1 15.884368732948559 28.277624401598462 19.216147617601305 0 0 -1
363 2 17.76602805322742 10.165570282075288 8.796301103161673 0 0 0
196 1 17.648138394141405 28.05722480925061 10.700034411897404 0 -1 0
777 2 14.472214455612647 25.49459285522022 4.527219937754727 0 0 0
308 2 22.18158831952483 29.729804887261157 16.18174015978848 0 0 -1
309 2 21.58401619500821 30.925360797010804 15.289683547579987 0 0 -1
3003 2 8.614997757442215 5.78882529835231 7.625072285180675 0 1 0
1809 2 15.260466459678788 13.476673307485614 8.242044204243939 0 0 0
880 1 12.350306328167907 17.98039226477559 20.209006095203858 0 0 0
315 2 14.588408646097545 17.313208912351076 11.766085786957362 0 0 -1
251 2 5.745897165911791 9.610454042174096 10.74099377174848 0 0 0
386 2 18.930020287416255 20.956121628063336 22.97618744945534 0 0 -1
584 2 27.74785416430024 22.162236848175326 24.272480198044224 0 0 -1
726 2 4.64092922678807 1.8239053937089913 4.16010184438847 0 0 1
1545 2 11.245722300342095 7.185158770140244 16.172900365151193 0 0 0
195 2 13.311517630035876 20.40820523422028 0.4872559202305505 0 -1 0
387 2 17.861738402335874 20.004914471446934 22.76569770847511 0 0 -1
2329 1 20.43907533619531 30.66555273419259 25.952832247833097 0 0 -1
2496 2 23.39391891466355 26.027098319762942 0.9603403021833035 0 0 1
1683 2 5.703959095915979 8.04128812287147 6.2051280255110255 0 0 0
1493 2 26.779886852800946 24.7080078089896 16.617734412330133 0 0 0
1763 2 7.226646282974637 9.713781595050742 12.622538425918961 0 0 0
2339 2 10.106471883984717 4.989138818544375 15.592416106399654 0 1 0
13 1 21.535889503632525 12.177340805064281 22.463386426711953 0 0 -1
1568 2 18.54160253172959 30.08552524843622 20.675463497558045 0 0 0
2549 2 10.20363631836813 3.6714979620576225 4.465217275431437 0 1 1
1520 2 17.246160098807042 11.730790343579597 9.691590724891874 0 0 0
1802 2 13.71739179150864 17.74597673747669 16.713655428288458 0 -1 0
901 1 13.523966005514765 20.760270498184074 15.773664184329286 0 0 -1
354 2 6.428459108163287 12.380785131275585 10.479467192491624 0 0 0
635 2 26.493322705680434 25.116901535071833 22.221133201997073 0 0 0
2493 2 22.902166666247428 23.26851525383646 25.14432754654494 0 0 0
57 2 15.530049666330932 31.3375731565923 12.899020727264729 0 -1 0
2645 2 10.972147880588409 12.344254399354348 19.859943967511914 0 0 0
2453 2 8.369688603115797 15.434504616984382 7.021538561889954 0 0 1
123 2 2.8844025547678056 7.449922615424601 0.14105111846725837 0 0 0
367 1 14.750302578346098 12.492278500626288 11.131074373750058 0 0 -1
1583 2 11.126295913472294 12.303051700615276 11.985936804359914 0 0 1
317 2 12.957156804033314 21.8981090211684 4.432528837328317 0 -1 0
2571 2 15.247580952370381 23.174616008849757 4.281902063199311 0 0 0
3001 1 8.770685445610468 5.386578735434979 8.560864795282756 0 1 0
115 1 22.97706376578786 16.473291844533545 23.918651303297334 0 0 -1
116 2 23.781071226479064 16.95195732858214 24.29278295839318 0 0 -1
817 1 18.078742325716025 30.714586207323368 11.432947539218311 0 0 -1
724 1 5.330519124074821 2.3489536975050447 3.695375791526841 0 0 1
851 2 6.801471711143454 7.589382745793297 15.001104574458148 0 1 0
1911 2 10.096735217973766 9.21045462597634 20.069393912322454 0 0 0
1048 1 9.430670709949386 21.291752937525548 5.652528738546616 0 0 0
1066 1 21.340242671335726 26.930204698777057 18.855054173147956 0 1 -1
686 2 21.36323884734725 16.20266532349083 7.3189653114708 0 0 0
1086 2 13.31601574789996 13.593594309849765 4.537616534327398 0 0 0
627 2 10.790682216303281 12.533285620482769 1.2486226879144573 0 0 0
1083 2 18.938380209002705 15.75027562657127 21.130404998024805 0 0 -1
2514 2 16.40484419940302 23.488266187959457 16.186531152320637 0 0 0
828 2 19.793629439826752 22.766536652359065 11.1614050374779 0 0 0
2565 2 12.134006110830825 10.622573379217576 1.1555981927762637 0 1 0
2550 2 9.223815537741032 4.480260637665524 3.647420954842606 0 1 1
1593 2 11.678403114674172 8.987738972881917 16.346419106774157 0 0 0
1673 2 17.758579821438687 26.563794612808042 10.469077595875829 0 -1 0
1803 2 15.084866596199362 18.029476157709666 16.012731752355595 0 -1 0
2338 1 10.956586529455691 4.529140921602186 15.873037593848727 0 1 0
2438 2 19.35606900555776 19.906231792528132 26.845724568053782 0 1 -1
84 2 11.88751271415438 15.568475842266656 23.997730699994328 0 0 -1
2569 1 15.43118263861956 24.07425057847378 3.92429686057375 0 0 0
1235 2 19.260439454509278 9.356408754202311 15.805032854784182 0 1 0
788 2 15.941998406583451 25.25526344509402 11.029818732411794 0 0 0
155 2 5.555959328491574 1.9719969655353986 6.401951324252211 0 0 0
1139 2 20.83541901555743 11.507969093828864 17.281546184085585 0 1 -1
2681 2 18.748882471829624 25.82868097046621 25.878467606936784 0 0 0
1234 1 18.472295739391047 9.987608956340974 15.912070106708558 0 1 0
900 2 17.627624310541936 26.678727993855567 13.340674995319377 0 0 0
1572 2 14.139167300490605 12.15159932621682 21.33476579718961 0 0 1
2682 2 18.368391996108244 27.37322768239744 25.58885449996291 0 0 0
1602 2 9.960884624261489 18.166982730797148 17.495086605419846 0 0 0
2680 1 18.956310250703314 26.74796302193913 26.045417420192233 0 0 0
1236 2 18.273052632008778 10.026997386276637 16.893579760760954 0 1 0
1522 1 21.183743932349113 9.131057601128003 19.096717604604837 0 1 0
272 2 12.713086318401878 15.36783618390271 17.44960696014645 0 0 0
1582 1 11.18867678564482 12.246588479178504 12.94727768497683 0 0 1
2574 2 14.72059795638965 21.691728632721432 16.679189866144 0 0 0
5034 2 2.4434028590420143 1.5832163092052096 1.9891924137654848 1 0 1
2330 2 20.35951601484788 30.005092112981654 26.709120929626085 0 0 -1
4271 2 13.755992147440452 30.9793640251908 16.660334631752686 1 0 0
1907 2 3.8108461810417964 4.597734680201885 1.2302115712801711 0 0 1
676 1 28.167329814023326 30.83166722271706 25.73392347884641 0 0 -1
1890 2 9.825179190351555 14.324405137879511 7.870052470275936 0 0 0
1840 1 18.74800694504503 15.651390462116433 24.40341932958326 0 0 0