LAMMPS data file via write_data, version 8 Apr 2021, timestep = 200000

6144 atoms
2 atom types

0.15171845257582087 59.756715928054945 xlo xhi
0.14011798369435655 28.200348016305707 ylo yhi
0.1490520009594069 27.262392999040394 zlo zhi
10.071372369077705 10.124104441664262 7.145677153716695 xy xz yz

Masses

1 16
2 2

Atoms # atomic

1 1 7.51985059927676 5.290032819968841 3.995066562601417 0 0 0
2 2 6.784432136447029 4.788250865607763 3.753417267962847 0 0 0
3 2 7.141134472315099 6.121013291337912 4.361905151920138 0 0 0
4 1 10.343522267231762 7.182361277916105 10.851874693244373 0 0 0
5 2 10.752079057561746 6.721805085114984 11.61923676421544 0 0 0
6 2 10.091324985299744 8.072612710412615 11.168939171767766 0 0 0
7 1 10.043050650711715 12.313742958750854 4.21008798378094 0 0 0
8 2 10.568468723424544 11.89746466447635 4.956507904577 0 0 0
9 2 9.754909772227636 13.153153352546132 4.523727748457292 0 0 0
10 1 12.335640825211383 14.2145780626197 10.998385386504912 0 0 0
11 2 13.079911321915043 14.493669735125977 10.428835593002484 0 0 0
12 2 11.812917477609734 13.537618444162673 10.570837087668318 0 0 0
13 1 14.9182557925603 5.11478635317052 4.1941099678146125 0 0 0
14 2 15.311665330311596 4.684448790908353 4.962844514516172 0 0 0
15 2 14.765628298401538 6.014827502440607 4.5731351805832805 0 0 0
16 1 17.607843418259367 7.013062550743441 10.916832851137524 0 0 0
17 2 18.095334243723247 6.699144358927958 11.69003548498793 0 0 0
18 2 18.376722746027497 7.508682835478359 10.451045465166978 0 0 0
19 1 17.50108642121294 12.452551595144678 4.097382544095281 0 0 0
20 2 18.26163294002063 12.679141020319635 3.4870672334842823 0 0 0
21 2 17.946326322455647 11.802143673882169 4.709060153335313 0 0 0
22 1 19.80379039184185 14.268932400760347 11.120052644856692 0 0 0
23 2 20.483501468668937 14.588412528008877 10.49164101455709 0 0 0
24 2 19.471602853299903 15.160834442978272 11.602332499245504 0 0 0
25 1 11.91610541624336 8.409994390301293 6.491753672966299 0 0 0
26 2 11.154790148790925 8.998661067619725 6.318265467310287 0 0 0
27 2 11.493090090567955 7.723528239375415 7.04539249335734 0 0 0
28 1 14.360221367969716 10.054129706448187 13.37822611168259 0 0 0
29 2 14.764762478919776 9.570328557479348 12.633282164083298 0 0 0
30 2 13.50184380939527 10.503654446328827 13.034478100235235 0 0 0
31 1 14.3925737476836 15.330747459885185 6.401655615605984 0 0 0
32 2 14.618947160480731 14.811183256292393 5.619598835527531 0 0 0
1694 2 20.153866841523044 5.471939586188508 19.069034782140832 0 0 0
113 2 15.656722997806785 6.737266119880878 13.534678586604315 0 0 0
37 1 19.051524209253895 8.1151171990906 6.447175471589113 0 0 0
38 2 18.312037227400264 8.777816192180877 6.187738194963397 0 0 0
39 2 18.610477082703998 7.310699314879449 6.904414513264962 0 0 0
40 1 21.57997752263192 10.177557931643573 13.146593728451343 0 0 0
2777 2 36.99107548839439 19.686151245859886 21.55294731901997 0 0 0
42 2 20.880517214852436 10.679624914100614 12.676909742284803 0 0 0
43 1 21.773451280996277 15.485886408727723 6.578343978397849 0 0 0
597 2 32.939046334715655 8.777240044964142 2.4307316844392433 0 0 0
46 1 24.2330519488942 17.40403648913105 13.168898482551802 0 0 0
2199 2 37.872592678091074 9.820955273922616 16.945053708103227 0 0 0
45 2 22.02558689846803 14.890626662480699 5.8818148088858795 0 0 0
49 1 5.385992768360612 3.788499436043262 2.988676638376096 0 0 0
50 2 5.5982920926163215 2.999583930157173 2.4576298074680416 0 0 0
51 2 4.685215151396303 3.6070265589626946 3.513738020320264 0 0 0
52 1 8.021142345818715 5.811870614821872 9.84936804392455 0 0 0
53 2 7.604641412128489 6.097873471289916 8.992420090890493 0 0 0
54 2 8.81738840088116 6.301877885344068 10.061225205078031 0 0 0
55 1 7.711441820495639 10.75319974981894 3.049095049499396 0 0 0
56 2 7.824161317261704 9.841478217130602 2.730385740541704 0 0 0
57 2 8.62893135560239 11.118998267402722 3.2677921753948596 0 0 0
58 1 10.33461547222712 12.475811287693997 9.91338095232281 0 0 0
59 2 9.935581141615877 12.900824992874023 9.070752729513462 0 0 0
60 2 10.581323891806699 11.586572389879478 9.47010795006156 0 0 0
61 1 12.965206884260978 3.863200092224169 2.819975188366237 0 0 0
62 2 13.592934498221917 4.419126505006888 3.322820525919093 0 0 0
63 2 12.585372644368153 4.449045655579233 2.163400278449725 0 0 0
64 1 15.496743580995146 5.568461022668573 9.662575240265841 0 0 0
65 2 16.142503050395305 6.11021754154787 10.108333367566178 0 0 0
66 2 15.826583211265532 4.646071692535999 9.556962846182552 0 0 0
67 1 15.286632540795624 10.885201888801802 2.9409033979717747 0 0 0
68 2 16.014394633077742 11.49492873528819 3.153652231404709 0 0 0
69 2 15.608796889181676 10.086424156900557 2.4634537976443007 0 0 0
70 1 17.82753466627315 12.664231277165204 9.659621728258584 0 0 0
71 2 17.329938899090862 13.039705096614147 8.891604081178588 0 0 0
72 2 18.438823217368704 13.339940288160877 9.977705042474344 0 0 0
3504 2 9.484969030450822 16.341347747389193 12.374001547037308 1 0 0
1612 1 8.897978972579967 5.9180820265121445 21.405977888670865 0 0 0
79 1 3.749459734880883 7.780982175706635 0.5188868167543365 0 0 0
34 1 16.679150651613263 17.013092565469282 13.137902516970371 0 0 0
81 2 4.531430461165985 7.205206778703233 0.8263876283835995 0 0 0
82 1 6.400983509844403 9.768218632858444 7.587276060903823 0 0 0
84 2 7.197667070060574 9.273526017092411 7.926139383790318 0 0 0
85 1 8.45869665273391 1.0192113259517723 0.4913249473362315 0 0 0
87 2 7.899382016776412 1.4444983029652412 1.1741131775037248 0 0 0
88 1 11.310429016777954 2.628517241460234 7.639697932196041 0 0 0
90 2 11.754380552020699 3.099315249662239 6.946434659944495 0 0 0
91 1 11.086110730771175 7.867022428071248 0.9663397748324863 0 0 0
93 2 11.803927318004225 7.4481612081326976 1.414514255639953 0 0 0
94 1 13.86148024770509 9.862723472605632 7.6748917122729905 0 0 0
95 2 14.555027544705977 9.24141887691995 8.042282833354445 0 0 0
96 2 13.313770189150064 9.256105673388676 7.099359185740431 0 0 0
97 1 5.475823285227321 4.581162104241338 6.2218727938058125 0 0 0
98 2 5.9605621404940665 4.962840263320496 7.014528760097199 0 0 0
99 2 4.7797835900851995 3.997052148216442 6.651266415973303 0 0 0
100 1 7.960596471218841 6.32561012919461 12.844205232705793 0 0 0
101 2 7.710370476748197 6.8793790555691645 12.086469718102549 0 0 0
102 2 8.4573290333869 5.583361220600577 12.44562964032387 0 0 0
103 1 8.008052141547632 11.576375696032144 6.232904323676762 0 0 0
104 2 7.700703401309625 12.123830924320952 5.431440460058262 0 0 0
105 2 7.303284252496126 10.991622228499487 6.512844296495516 0 0 0
106 1 10.281319663550047 12.993843355066783 13.084120420333496 0 0 0
107 2 10.509663020428137 13.7307732929956 13.653140129674735 0 0 0
108 2 11.149425759298603 12.581727647866089 12.783586454024752 0 0 0
109 1 12.620288645989755 4.465225375629221 6.044646067282231 0 0 0
110 2 13.063023510073803 3.8974430833648532 5.347490824647691 0 0 0
111 2 12.188235267356228 5.211838236562603 5.564040589179286 0 0 0
112 1 15.244383451138331 6.100849012068441 12.943369061407209 0 0 0
114 2 14.562255901219915 5.637983706754944 13.520629101846794 0 0 0
115 1 15.472021072235938 11.414641170799277 5.92595143159811 0 0 0
116 2 14.958390457562931 10.765412276529013 6.547570593826248 0 0 0
117 2 15.778554554040786 12.116908919728564 6.5014758674426965 0 0 0
118 1 17.692374994399326 13.36445027889198 13.047491790682102 0 0 0
119 2 17.00312274265105 12.797544516115902 13.528671133552825 0 0 0
120 2 17.390109125074865 14.019475725582108 12.330792005690599 0 0 0
121 1 3.2966020745752904 2.597956001159155 4.504529375301077 0 0 0
123 2 3.639328582463109 1.8316069028561721 5.020633532114063 0 0 0
124 1 5.6935468516398675 4.776666660914961 11.017029789061729 0 0 0
125 2 6.290705925160618 5.494116255612992 10.635857577253347 0 0 0
126 2 6.258435657006645 4.0318062039039635 11.324975089005145 0 0 0
127 1 5.600767502920319 9.768242006118308 4.408547726357034 0 0 0
1667 2 13.013367979678645 15.736712577276565 25.427921010145187 0 0 0
129 2 6.149939826395852 10.509018449680509 4.059134565982722 0 0 0
130 1 8.415049782851098 11.272481418842407 10.99530733938363 0 0 0
2205 2 40.38282464728032 17.24805158661694 16.759977783259583 0 0 0
132 2 9.153578218610637 11.90264915977272 10.763280256866066 0 0 0
133 1 10.650891749137847 2.711604893759357 4.299466911370785 0 0 0
134 2 11.158915277432111 1.973543256050404 4.7206563732714155 0 0 0
135 2 11.271274563648777 3.3184213002092133 3.9257881947677946 0 0 0
136 1 13.335040341348634 4.543784460171674 11.385597124125598 0 0 0
137 2 14.031338827524067 5.04078567277841 10.935425812452994 0 0 0
138 2 12.882406430368777 5.178395616434115 12.013955645473633 0 0 0
139 1 13.39457119217923 10.009469909601576 4.552942427475128 0 0 0
140 2 14.15213949521677 10.418487748630502 4.0548746183550195 0 0 0
141 2 13.529538024072108 9.047979524353764 4.64804457685987 0 0 0
142 1 15.787606973731261 11.610230942696617 11.281190905239693 0 0 0
143 2 16.566582451372895 12.06415020184055 10.866690444119035 0 0 0
144 2 16.214826758961635 10.777366944697212 11.62225420682125 0 0 0
145 1 6.505954374338351 2.220814772866471 5.58942588681649 0 0 0
128 2 4.896638807542997 9.687994090473612 3.7881987077609156 0 0 0
147 2 6.309325311876532 3.1895702274872884 5.711391516655207 0 0 0
148 1 9.762320945564458 4.213765452515996 12.05617579194556 0 0 0
149 2 10.139183854474242 4.353796037466268 11.1510883586123 0 0 0
1658 2 7.897846077332645 6.636756932504098 18.752421164542554 0 0 0
151 1 9.415123259580637 9.363111517606379 5.373332497179601 0 0 0
152 2 8.947704497608022 10.17576452796825 5.675505860682843 0 0 0
153 2 9.705526064888476 9.587386386830826 4.4866315708360975 0 0 0
154 1 12.228754257078478 11.053962261012394 12.168527601428092 0 0 0
155 2 11.37650419516552 10.558482556191255 12.120384757966617 0 0 0
156 2 12.73604712479468 11.014301062745439 11.332361743661766 0 0 0
157 1 14.18707836282644 2.426323730979686 5.073245341189703 0 0 0
1884 2 13.689605143079195 18.64576736582491 24.35507077214263 0 0 0
159 2 14.681254535941715 2.6135112107796834 4.218609955198333 0 0 0
160 1 17.041685017538533 3.817592270773703 11.951208792731483 0 0 0
161 2 16.647299673923225 4.621731135571571 12.334559235728676 0 0 0
5280 2 12.814490364746504 17.988218509703373 22.32636449602106 1 0 0
163 1 16.888306193588814 9.258316272859064 5.089420963318786 0 0 0
164 2 16.429220985295984 10.057367301992441 5.4552524658450805 0 0 0
165 2 17.209293724053108 9.529715962192329 4.239575484549525 0 0 0
166 1 19.375178470878087 11.232822839507241 11.98078933766017 0 0 0
167 2 18.859140693352817 11.99117655395077 12.303731950939968 0 0 0
168 2 19.622737214662887 11.489395346295275 11.074127336647203 0 0 0
169 1 8.862066650060122 4.2574049744708535 6.173045610793804 0 0 0
170 2 9.452980096107341 3.721303110489396 5.695594401952422 0 0 0
171 2 8.3958158423527 4.813926132710757 5.490574293295868 0 0 0
172 1 11.84047028671686 6.255663691365414 12.83583194467985 0 0 0
173 2 12.085902081012645 7.081211353164279 13.320169251286583 0 0 0
206 2 16.645603464540773 2.6161194164367676 3.3786813486948404 0 0 0
175 1 11.667459415743448 11.319654853681907 6.213788444623976 0 0 0
176 2 12.441904170227946 11.00093923673658 5.675954492137281 0 0 0
177 2 11.908850988744712 12.207261059805809 6.5607382192433255 0 0 0
178 1 14.056234001929154 13.115416119550073 13.075209868340052 0 0 0
179 2 13.402585416533627 13.521481448448265 12.471217276469806 0 0 0
180 2 14.684780508843085 12.594901969779302 12.443006006547183 0 0 0
181 1 16.227713206202935 4.42926147403397 6.54934587261667 0 0 0
182 2 16.929933593999163 3.922190259407091 6.0571989405640885 0 0 0
183 2 16.698969409954298 5.170782060979011 6.996774454864377 0 0 0
184 1 19.19151060609536 6.267237703769231 12.826112462771857 0 0 0
187 1 19.12372286659695 11.352258078747163 5.998812494705501 0 0 0
188 2 18.849872015276567 10.919175125878997 6.838669302018092 0 0 0
189 2 19.461574863418225 12.173682343722882 6.462368293033258 0 0 0
190 1 21.51754419569973 13.538725868141956 12.925776811922518 0 0 0
192 2 20.778160385287585 13.712670156663492 12.29991631812686 0 0 0
193 1 7.97660331560911 2.6842293752643944 2.927915009583892 0 0 0
194 2 7.240576602568288 2.364807968282959 3.4974249441426477 0 0 0
195 2 8.672775171383877 2.915330883207687 3.5649238681129054 0 0 0
196 1 11.170118764812871 4.376562194194454 9.683995014181384 0 0 0
197 2 11.33200521129419 3.7702628834327347 8.948279599921158 0 0 0
198 2 11.992508323274203 4.623535773629122 10.100531466956891 0 0 0
199 1 10.949789052541925 10.019935122775872 2.8425030042131714 0 0 0
200 2 10.954049581718124 9.341489474395004 2.1610094740326398 0 0 0
201 2 11.82881346935383 9.961281690675875 3.295117174674641 0 0 0
202 1 13.596579303595858 11.514123784319066 10.00445539397595 0 0 0
203 2 14.545501298739975 11.428890782344238 10.191533451318534 0 0 0
204 2 13.490512250968107 10.946072394981796 9.217209348791974 0 0 0
205 1 15.76676429512185 2.517323997359563 2.9007567914549424 0 0 0
207 2 15.989861004622137 2.1354667683962916 2.0270226093501025 0 0 0
208 1 18.60188143820905 4.240314666903804 9.661353883514582 0 0 0
209 2 18.030381007305913 3.802226835217335 10.384902188409932 0 0 0
211 1 18.423531357688915 9.949716494676698 2.718343467154707 0 0 0
212 2 18.73377334069278 9.25823954286892 2.084662127223783 0 0 0
213 2 18.2810401024462 10.761969997553482 2.191325640528473 0 0 0
214 1 20.86816361978343 11.484823850399613 9.571952592267266 0 0 0
215 2 21.736156686936283 11.503573052211253 10.059644654877507 0 0 0
216 2 21.00909345801204 10.832092602197548 8.848618524653624 0 0 0
217 1 5.756409764738055 1.532589293733137 1.6616063086137154 0 0 0
1878 2 11.135598240405207 11.797569474007844 23.804235786189288 0 0 0
219 2 5.937041374674592 1.7205631344617973 0.7160503227159409 0 0 0
220 1 8.282427425948539 3.251284418895307 8.751490408681796 0 0 0
221 2 8.35466731724615 4.066213141389141 9.323703984956529 0 0 0
222 2 8.504290130745717 3.58425997630882 7.855296177773953 0 0 0
223 1 7.846776011930973 8.347004056165133 1.7338677362271635 0 0 0
224 2 8.630148433296162 7.813793694543817 1.9064117488516803 0 0 0
225 2 8.217328999689185 8.774110886142866 0.8523920080614351 0 0 0
226 1 11.045535808865269 10.149297150513668 8.771822169095014 0 0 0
227 2 11.673711727672597 9.512078005244405 9.110295776433562 0 0 0
228 2 11.414841473524287 10.44811575938274 7.941226036340136 0 0 0
229 1 13.024439650855934 1.4043520912284173 1.412079150247922 0 0 0
1953 2 34.95589394353828 19.20663111380986 20.2042952128221 0 0 0
231 2 13.08777877205261 2.111082474353131 2.1045139780187534 0 0 0
232 1 15.903027911293039 3.030503003240253 8.76621754313493 0 0 0
341 2 7.02483861886836 8.858488183756322 11.750044179688237 0 0 0
234 2 15.970193490990201 3.495976526485797 7.882968803573159 0 0 0
235 1 15.884140996886646 8.411304708426501 1.811450211168999 0 0 0
236 2 16.07480050361581 8.579017187368764 0.8521916449308877 0 0 0
237 2 16.50884097933433 7.653859117235818 1.9494293204251087 0 0 0
238 1 18.158633733766134 10.227649854384214 8.538037615588472 0 0 0
239 2 18.71723938068901 9.5383776964291 8.941052224787098 0 0 0
240 2 18.227162777440245 11.034211612254474 9.092549208478333 0 0 0
241 1 7.399799091753528 4.3662549135406925 0.9448964129089769 0 0 0
242 2 7.62982211405365 4.048101021494578 1.8421661645030558 0 0 0
243 2 6.681638736051824 5.040796341784366 1.127632241592933 0 0 0
244 1 10.28807255361818 6.208788197225518 7.392825432493624 0 0 0
245 2 10.55446278191077 5.862617558013268 8.256647971420332 0 0 0
246 2 9.693319931041438 5.472452052907304 6.9659128825610095 0 0 0
247 1 9.949213533978336 11.88791267923491 0.9195699749233683 0 0 0
248 2 9.44653380244277 12.540592925345818 1.4156357018876091 0 0 0
249 2 10.418290525076173 11.304683599234059 1.6055739539530853 0 0 0
250 1 12.641627644739511 13.754235373570902 7.838766167021031 0 0 0
251 2 13.079906104215295 13.200695875097717 8.501772139183638 0 0 0
252 2 13.342183326164989 14.22918980018413 7.343969855850021 0 0 0
253 1 15.307464708868597 4.683471641114373 1.1317127365262143 0 0 0
254 2 15.354789373575642 4.178961616856516 2.0030670539717383 0 0 0
255 2 14.762395652496282 5.466145438269344 1.4294758122849647 0 0 0
256 1 17.601196390244997 6.24282190665108 7.848771034895756 0 0 0
257 2 17.947630524933615 5.927814402058591 8.631725171929771 0 0 0
258 2 16.957511696650926 6.9015601688166575 8.167996569983773 0 0 0
259 1 17.55732872284099 11.883039670493933 0.7379663949060301 0 0 0
260 2 16.948551507098273 12.554506884078753 1.082799088606868 0 0 0
516 2 22.42568681033005 12.477367399374753 11.834505030724092 0 0 0
262 1 20.091037825177743 13.360870038167908 7.637402837079649 0 0 0
263 2 20.593686285694737 12.80892130164013 8.263147495774245 0 0 0
264 2 20.779991664489764 13.919151007763329 7.183137108868839 0 0 0
265 1 9.821542660646706 6.182969018081823 2.764594489091298 0 0 0
266 2 9.124648645968133 5.749218032874175 3.2689832208809952 0 0 0
267 2 10.308486250618243 5.554518822420148 2.2447167098418763 0 0 0
268 1 12.399536257132416 8.059846538559535 9.63946137414359 0 0 0
269 2 12.863831431109109 7.587099124714796 8.922344697842782 0 0 0
270 2 11.505601014437543 7.652423013994893 9.957238139056896 0 0 0
271 1 12.240502672478195 13.500493656265801 2.9874799610279297 0 0 0
272 2 12.914794319048497 13.427231177946553 3.6813292829428033 0 0 0
273 2 11.526978179924916 12.847222729254062 3.2816586112647084 0 0 0
274 1 14.680805153614196 15.041621490450819 9.444670931778612 0 0 0
275 2 14.191321676492315 15.83329843494324 9.078282360116514 0 0 0
276 2 15.486808464604255 15.303995339192053 9.938531281079502 0 0 0
277 1 17.33726251261695 6.2745720481072205 2.6399045204473457 0 0 0
278 2 16.50712034019033 5.817153417605018 2.7825750511390543 0 0 0
280 1 19.808969657973673 8.130625663697035 9.761432751364966 0 0 0
282 2 20.55843217086337 8.336210742521446 10.363981121316233 0 0 0
283 1 19.725142757106898 13.32495023299301 2.799932549711001 0 0 0
285 2 20.312892053465692 13.42758793189571 3.5761603904375874 0 0 0
286 1 21.992470411882728 14.763814621395001 9.592301541658955 0 0 0
287 2 22.71492754684764 14.883393956223713 10.18224455489154 0 0 0
288 2 21.935480298996154 15.582352665275495 9.076938122619092 0 0 0
289 1 5.874939863370835 6.628991789017346 1.7523694325295975 0 0 0
290 2 5.5949460681049725 6.619092090975417 2.6910828801173765 0 0 0
291 2 6.518997362723949 7.3991215613536845 1.7199902044764446 0 0 0
292 1 8.767318891356677 8.651772846195193 8.376155362056721 0 0 0
293 2 9.222094047531007 7.808602158705125 8.15726622124608 0 0 0
294 2 9.542715109294752 9.306781059085314 8.440056382285599 0 0 0
295 1 8.369777919705315 13.739182308997112 1.9157300368790837 0 0 0
296 2 8.038493671730826 13.519425051033386 2.8120627257180235 0 0 0
459 2 16.72690702947568 0.6280275904672906 0.964034007815823 0 0 0
298 1 11.311981109569968 15.931572211788044 8.879777974785766 0 0 0
299 2 11.743859720987931 15.032443112015109 8.57575551322289 0 0 0
666 2 35.06888897771598 8.18969790620362 10.2311573068213 0 0 0
301 1 13.720451282195409 6.890158301225642 2.0013398907376887 0 0 0
302 2 13.613368134480355 6.784598030259875 2.9739361743344292 0 0 0
303 2 14.378065089894736 7.6041582986529574 1.8591439810962616 0 0 0
304 1 16.04093265010594 8.593665983648167 8.595244842417658 0 0 0
305 2 15.938627655899184 8.383604545590673 9.485145302609741 0 0 0
306 2 16.784721062007662 9.249542347255158 8.499993718371128 0 0 0
307 1 16.19313040836744 13.781151498310411 2.023976664412534 0 0 0
3155 2 35.78785654204509 10.234814873315205 8.461734118866833 0 0 0
73 1 0.974205375819261 0.9916999719040402 0.8459969240672031 0 0 0
310 1 18.56021623239793 15.415763604764606 8.673956077647057 0 0 0
311 2 18.78434035558497 14.62003526812186 8.1450580838746 0 0 0
2070 2 30.19058359952004 7.642375132345727 25.71734903276142 0 0 0
313 1 3.594123696182882 4.796342428905584 1.010288497266678 0 0 0
314 2 3.065538810862143 4.056199160425404 0.6053569537221392 0 0 0
315 2 4.215235448800817 4.401451359967612 1.6380356116647796 0 0 0
316 1 6.737168438109204 6.451907304651474 7.61389248000794 0 0 0
317 2 6.684296872482364 6.884940412650242 6.717552640080826 0 0 0
318 2 6.009147479565765 6.799627933347767 8.090036608867013 0 0 0
319 1 6.4028361211481775 11.695407981367335 0.7475537832106101 0 0 0
320 2 6.009762520961025 10.773609042408976 0.6767671889938697 0 0 0
321 2 7.007478929597503 11.602582105601572 1.4877240941416447 0 0 0
322 1 9.151220467205379 13.587858821573986 7.774759822125386 0 0 0
323 2 8.529427491162272 14.217600417751527 8.179111309082375 0 0 0
324 2 8.714374386126462 12.95747840208291 7.196071250776199 0 0 0
325 1 11.46609597390819 4.795992220653651 0.7990048692197838 0 0 0
3735 2 2.702421077590088 5.558526201351096 1.9569598462485778 1 0 0
328 1 13.852776418201959 6.463086893379308 7.719316320352084 0 0 0
329 2 13.280640375657256 5.740134319410886 7.306092527740176 0 0 0
330 2 14.55789266688431 6.030617509215861 8.235626321896362 0 0 0
331 1 13.658949931874957 11.621035348547682 1.0519223157145314 0 0 0
332 2 13.193583293052786 12.325102672916191 1.4634941306613025 0 0 0
333 2 14.328023441876114 11.291916437754642 1.729050855262775 0 0 0
334 1 16.381396639853314 13.530554451386779 7.624611733869795 0 0 0
335 2 16.65506304554224 14.165522198018701 6.971530485541283 0 0 0
336 2 15.66588645755424 13.989994505487001 8.12534006059688 0 0 0
337 1 4.3949316812359225 6.687438633319578 4.203649843039165 0 0 0
338 2 4.603996192042661 5.818505057014748 4.61706879580181 0 0 0
279 2 17.837836330238254 5.835023751550829 1.9362680503469782 0 0 0
340 1 6.928415326523423 8.30822398604937 10.93567203013728 0 0 0
424 1 36.30670611795984 9.964152815857826 12.888427375070087 0 0 0
342 2 7.636113777362196 8.440995637093176 10.320524259814848 0 0 0
343 1 7.135449814021229 13.245415562982235 4.330835945553822 0 0 0
1836 2 15.687042745074368 19.36861255978353 21.96313924083343 0 0 0
185 2 19.466088622837653 7.192224417379381 13.080021033905565 0 0 0
346 1 9.684339962848597 15.399875851601399 11.020100992891896 0 0 0
347 2 10.40874748860538 15.584922426962496 10.343045343886097 0 0 0
348 2 9.958847683484887 14.512962016902003 11.348110058804048 0 0 0
349 1 11.984430372454758 6.55767702238686 4.3439014814684835 0 0 0
350 2 11.899273728727488 7.328933919231219 4.935105812724124 0 0 0
351 2 11.114650071905928 6.375510199683646 3.9463944298064035 0 0 0
352 1 14.763953495259873 8.263917568909173 11.224873722943821 0 0 0
353 2 14.82148713768417 7.412532843076964 11.642326826795697 0 0 0
354 2 13.836746547286712 8.284556871212606 10.796449989034139 0 0 0
355 1 14.704917249232253 13.55514813636719 4.328870403061619 0 0 0
356 2 14.854143418408837 12.657993249326193 4.711793396268542 0 0 0
357 2 15.190471405098744 13.634984556616061 3.51041694443431 0 0 0
358 1 16.903646901428697 15.527542185417715 11.098528096180736 0 0 0
359 2 16.913789567408816 16.11484004997723 11.86445527545876 0 0 0
360 2 17.6718084202582 15.782349547310822 10.588020953420155 0 0 0
361 1 7.23306700343584 7.653014874275481 5.082631459513682 0 0 0
362 2 6.6448348604165 8.397084106287808 4.769946096861557 0 0 0
363 2 8.068398217958482 8.147885711954517 5.372428035840636 0 0 0
364 1 9.890594647984717 9.44318329810056 12.13619627785185 0 0 0
365 2 9.112037508436924 10.080234871323764 11.786927564055754 0 0 0
366 2 9.605689951795867 9.209361953882185 13.098944827404846 0 0 0
367 1 10.027862892929829 15.010603339686567 5.158632768366915 0 0 0
3741 2 5.325462014185167 12.773751088265941 1.6831188926138536 1 0 0
369 2 9.606209091090824 14.720067129820862 5.992092035983833 0 0 0
370 1 12.308497945708792 16.61685339949816 12.310862345302047 0 0 0
5031 2 9.560373997460935 10.847668863564436 18.97584666102035 1 0 0
372 2 12.249048146581266 15.859959967707416 11.697604488723432 0 0 0
373 1 14.504762585317568 7.657589909914807 5.470702851206739 0 0 0
374 2 15.384519941594956 8.002023508344822 5.472929916417405 0 0 0
375 2 14.302683578986823 7.280828255338297 6.39354657103316 0 0 0
376 1 17.183898446054265 9.483492430282654 12.382216833803287 0 0 0
377 2 18.034071940122598 9.906375379500359 12.58046522220541 0 0 0
378 2 17.334705721957484 8.71309805828941 11.860949278504842 0 0 0
379 1 17.45830707781892 14.902390392454556 5.481541817406281 0 0 0
381 2 17.49137068741578 14.022006611959899 5.011205747473867 0 0 0
382 1 19.433403608205975 16.73044448208395 12.337594700734428 0 0 0
308 2 15.371911543330041 13.96869419382873 1.4721474030680606 0 0 0
384 2 19.14593370424703 16.492298605176178 13.258003456783058 0 0 0
591 2 31.565914082185767 3.047019622991702 3.34451423464241 0 0 0
546 2 32.509168379785734 4.031494097873348 12.435114729644884 0 0 0
210 2 19.523198889276458 4.435125560135658 9.987400631597756 0 0 0
284 2 20.15553496438272 12.794210502231364 2.154639262653705 0 0 0
1611 2 6.741745528969495 5.331611667695393 13.672355233085362 0 0 0
1722 2 24.046572174867453 9.584826019668784 27.246296508962555 0 0 0
74 2 1.5274063499297712 1.544303395581161 0.21212879433928197 0 0 0
429 2 37.03191626770241 15.70909108308161 6.672041823366237 0 0 0
468 2 20.397722712392937 9.219910221638097 7.140417006775937 0 0 0
512 2 20.1401750660732 10.619844743173562 5.046354710006271 0 0 0
83 2 6.06364836359901 10.151898473163504 8.405598119642496 0 0 0
174 2 11.445042754589759 5.6339248742124415 13.48828527788611 0 0 0
261 2 17.04979599920872 11.153074420866954 0.24099404733799018 0 0 0
186 2 18.89256353357945 5.9257557887961525 13.715808168304832 0 0 0
92 2 10.595841254402226 7.11830467245142 0.5672912111586147 0 0 0
722 2 18.589931139729135 6.51144427957254 3.99437673411468 0 0 0
1617 2 9.160288914559805 11.92643754205825 13.959169353205633 0 0 0
86 2 18.976646230156014 8.838433008662799 27.026275386699197 0 0 -1
1857 2 11.775531102137288 15.919015887571403 14.093429034536145 0 0 0
1537 1 12.437318183556618 8.729285888468343 17.517449773137454 0 0 0
1538 2 12.85272049017092 8.106280237522897 18.12621029959535 0 0 0
1539 2 11.800259416414107 8.182943967416849 17.043766823370316 0 0 0
1540 1 15.080796947292393 10.594911264923649 24.38025437384407 0 0 0
1541 2 14.971236332331168 11.443793202729724 24.853406977539372 0 0 0
1542 2 14.193059502133318 10.283526812852038 24.099141394408274 0 0 0
1543 1 15.016803539704371 15.965054577775042 17.64143949007828 0 0 0
1544 2 15.605728811694064 15.56806904008437 18.33711776170693 0 0 0
1545 2 14.559940002305904 16.783946032984915 17.915042042488828 0 0 0
1546 1 17.76565349923355 17.35467742826307 24.76273020497186 0 0 0
1547 2 17.560565082228983 18.302951805367147 24.87761221069053 0 0 0
1548 2 18.258561197129456 17.11749672114057 25.59984831227575 0 0 0
1549 1 19.72002138303424 9.006648429038162 17.660303333951916 0 0 0
1550 2 20.590018388392984 9.222308165263843 17.180900171552427 0 0 0
1551 2 19.63339855369525 9.78481889270366 18.27551308991188 0 0 0
1552 1 22.792488046373144 10.954436949593424 24.264591627221296 0 0 0
1553 2 22.004277098162348 10.349898792421435 24.01657588213101 0 0 0
1554 2 23.337736858128928 10.4308505798618 24.86591844467465 0 0 0
1555 1 22.395110626706348 15.903600568207029 17.982295874350044 0 0 0
1556 2 22.22099528819764 16.854673744519445 18.18036196756453 0 0 0
1557 2 23.113686809296844 15.952089477600678 17.3212815933481 0 0 0
1558 1 24.762235103985667 17.635339392931034 24.3566992467505 0 0 0
1559 2 25.49770395760997 17.722185219167216 23.77141046158096 0 0 0
1560 2 24.671822764016955 18.478768345764728 24.809280346778895 0 0 0
1561 1 16.50050804310954 11.808728597339154 20.141296687699512 0 0 0
1562 2 16.67244702360168 11.286773968309554 19.32511469610291 0 0 0
1563 2 15.542743866331659 12.061001129306728 20.123110691616336 0 0 0
1564 1 19.076395350559295 13.612892937466526 26.828670614201904 0 0 0
1565 2 19.28069549767582 13.210926516953394 25.937354205701915 0 0 0
614 2 28.66852820585778 0.8766118429074552 1.8777775613637773 0 0 0
1567 1 19.13400428918113 18.80512437330947 19.802701050262378 0 0 0
1570 1 21.89886188631259 20.473741183619904 26.881420688679913 0 0 0
1573 1 24.221998849744995 12.017764526447293 19.992438772173543 0 0 0
1574 2 23.43965367888415 12.558628413634308 19.731380875171503 0 0 0
1575 2 23.87607875757983 11.17419722751301 20.297785000186423 0 0 0
1576 1 26.915803648755443 13.71781385148623 26.878471636196917 0 0 0
1578 2 26.053990529486125 14.042282362563233 26.524332582440465 0 0 0
1579 1 26.4561712030055 18.737253745173184 20.12585567086436 0 0 0
1582 1 29.413018731583755 20.85771810298507 26.547406426382985 0 0 0
1814 2 22.235727811488637 9.454630910180944 15.56387934135483 0 0 0
1585 1 10.419024001615817 7.020582047535222 16.500274867822238 0 0 0
1586 2 10.628038091536542 6.06528099691112 16.13606866897276 0 0 0
1587 2 9.858711770654416 7.497495590172189 15.847368241432862 0 0 0
1588 1 13.070681558937402 9.268999747487191 23.2581165326544 0 0 0
1589 2 12.537243498388962 9.842303348919383 22.638081410139975 0 0 0
1590 2 13.107376767593491 8.39760050719974 22.801855835261645 0 0 0
1591 1 12.937336842494394 14.322216984307856 16.475088934958535 0 0 0
1592 2 12.225167370758033 14.286968617184872 17.16823597563952 0 0 0
1593 2 13.722115683674023 14.710014146414645 16.895338247049377 0 0 0
1594 1 15.793086205651987 16.30668118318877 23.289788203398874 0 0 0
1595 2 14.91031752320423 16.106502705211838 23.73263745361769 0 0 0
1596 2 16.27429727460703 16.774528761736175 24.00879000326074 0 0 0
1597 1 17.784929992461993 7.272363042226522 16.877429901547796 0 0 0
1598 2 18.580902844497924 7.809600856513564 17.193504845844807 0 0 0
1599 2 17.3471868136279 7.758241722198716 16.09521594057864 0 0 0
1600 1 20.57931750625925 9.316151470949718 23.288018900656763 0 0 0
1601 2 20.753081354280333 8.314901032523736 23.046766252249093 0 0 0
1602 2 19.76031402597215 9.296769104923838 23.82997426645875 0 0 0
1603 1 20.21365626397897 14.400443292317693 16.503466049565606 0 0 0
1604 2 20.7191855300232 14.984247026680775 17.100137766552418 0 0 0
1605 2 19.649981376738122 14.99275477376475 15.964608496259064 0 0 0