LAMMPS data file via write_data, version 8 Apr 2021, timestep = 1646000

3072 atoms
2 atom types

0.1291008669234917 30.011093133067565 xlo xhi
0.127254090068749 28.21321190992696 ylo yhi
0.11945135203718164 27.29199364795795 zlo zhi
10.080858588549326 10.245213771715886 7.205887605174512 xy xz yz

Masses

1 16
2 2

Atoms # atomic

1 1 7.61492040797614 5.347476549052516 4.172256394347593 0 0 0
2 2 6.941596596889465 4.653782537978421 3.9961573783284994 0 0 0
3 2 7.2463848246523 6.163296522010883 4.619919903177713 0 0 0
4 1 10.012738390363683 7.0599647756327135 11.007422457222404 0 0 0
5 2 10.50752836945003 6.596569788633575 11.711275623345543 0 0 0
6 2 9.78234768436573 7.975556351799758 11.447362585920624 0 0 0
7 1 10.207898506211574 12.455471041637795 3.816975552532791 0 0 0
8 2 10.666976766827744 11.891307941184555 4.465598236974202 0 0 0
9 2 10.025499547449513 13.197868949187502 4.356881818860127 0 0 0
10 1 12.558855269141976 14.100587642045422 10.78612158192791 0 0 0
11 2 13.208965300365755 14.232310606850225 10.120808514295986 0 0 0
12 2 11.907324599328668 13.496089827103214 10.343622528292642 0 0 0
13 1 14.97635870707634 4.917071976544315 4.056578464120621 0 0 0
14 2 15.274873244508537 4.3306540041308175 4.731022034631254 0 0 0
15 2 14.694423788630992 5.717144817413464 4.520550922596835 0 0 0
16 1 17.309857993787734 6.839826350111219 11.028758659659093 0 0 0
17 2 17.655485903998805 6.358403661714757 11.811070441039707 0 0 0
18 2 18.087538820575798 7.191391677139384 10.540526422423502 0 0 0
19 1 17.471803094860878 12.140902498493267 4.0043613421550965 0 0 0
20 2 18.26399943315919 12.618176663389475 3.5618310345167026 0 0 0
21 2 17.794502148524533 11.77107655514161 4.863946489852924 0 0 0
22 1 19.914800238162986 13.881951980891147 10.870713411239214 0 0 0
23 2 20.53092561957847 14.150545042619731 10.161321345095995 0 0 0
24 2 19.631404774835282 14.725266789777706 11.310276690995222 0 0 0
25 1 11.753261113116292 7.940030887481017 6.435671644445757 0 0 0
26 2 11.004596980139825 8.489851502951106 6.048506976252959 0 0 0
27 2 11.429611777307283 7.222787868649533 7.0686073248615235 0 0 0
383 2 20.438889134712504 16.848383037307077 11.903078895881382 0 0 0
29 2 14.577132222205007 9.32680741592649 12.349635506462272 0 0 0
81 2 4.498593637042641 7.279358523268722 1.3390370933278175 0 0 0
182 2 16.75807118603663 3.711782940580571 6.127946987809424 0 0 0
341 2 6.927662331920049 8.777623408163404 11.578506062363678 0 0 0
107 2 10.847979826488377 13.959717585623512 13.529001523381467 0 0 0
545 2 31.242225807167312 3.362415316532051 11.896731644498644 0 0 0
32 2 14.213145919890389 14.76248774068721 5.540276067257207 0 0 0
38 2 18.02421497560999 8.496053980140392 5.855920516709587 0 0 0
87 2 8.780122131674473 1.7229834837267521 1.5108314230074773 0 0 0
703 1 21.172291172555255 11.922606629881955 0.9718624440718636 0 0 0
417 2 29.674075030411853 15.789691624247148 6.887025998424198 0 0 0
275 2 14.35718497352739 15.618178844079182 9.1788884450673 0 0 0
698 2 18.230942011412857 4.171339719115069 0.4225396142522437 0 0 0
172 1 11.787877099419344 6.0224516022820405 12.80473443745022 0 0 0
49 1 5.172714590706494 3.817498646487061 2.839867751194702 0 0 0
50 2 5.504686721712787 2.9164094403047605 2.659724298068071 0 0 0
51 2 4.3937605290313355 3.60668320835899 3.4201796362186614 0 0 0
52 1 7.992405569482246 5.444030738109567 9.666335176271867 0 0 0
53 2 7.7120226003556995 5.852193720690354 8.808508924463487 0 0 0
54 2 8.61497333432548 5.997965556004316 10.112808440446141 0 0 0
55 1 8.002380950197736 10.738081509713993 2.7875563445208624 0 0 0
56 2 8.253759167419636 9.826752501373518 2.5014588761809686 0 0 0
57 2 8.829580012867796 11.239723306456696 2.9887242460784904 0 0 0
58 1 10.506618235016576 12.576992011449006 9.782158152733155 0 0 0
59 2 10.018201976888232 13.150886220711527 9.223365187156135 0 0 0
60 2 10.769795304271062 11.808813768372314 9.25254920499997 0 0 0
61 1 12.822937092238003 3.7235543585299844 2.989293622663463 0 0 0
62 2 13.645239748015612 4.191786906350039 3.3634997756155567 0 0 0
63 2 12.476132103530402 4.351168027224646 2.3113753736803564 0 0 0
64 1 15.326658666859016 5.478848687956416 9.732965276220279 0 0 0
65 2 15.979171445879366 5.839149322824709 10.349729784185746 0 0 0
66 2 15.587493786455115 4.570825437422775 9.683360977943407 0 0 0
67 1 15.31327945693877 10.339443133244998 3.125359278759832 0 0 0
68 2 16.059053462649523 10.921499317084482 3.473860259945388 0 0 0
69 2 15.720101897009787 9.517261366021792 2.756596735536902 0 0 0
70 1 17.808918450223395 12.564192467117655 9.524365417970749 0 0 0
71 2 17.54893709487301 12.886627940975613 8.674943251202004 0 0 0
72 2 18.56491363537657 13.095842754577857 9.921613936754454 0 0 0
121 1 3.1634763304902265 2.866109879051619 4.331981484634547 0 0 0
430 1 38.97036356278784 17.22433317184835 12.870820089268733 0 0 0
229 1 13.251097689216332 1.414328962534566 1.667152864566366 0 0 0
460 1 18.618704025142986 2.396566265188322 7.70107536288195 0 0 0
84 2 7.282291376726353 9.327503555483112 7.620752976126981 0 0 0
338 2 4.5812771402919275 5.667929625162802 4.8896620624978615 0 0 0
370 1 12.189958435788913 16.73903143963471 11.880528717327572 0 0 0
90 2 11.760411399478087 3.1900350784308475 6.8624990914986945 0 0 0
261 2 17.487299448298273 11.0359122576507 0.34714017804052666 0 0 0
94 1 13.670213284915883 9.549384843196389 7.447222503817344 0 0 0
95 2 14.437504566757323 8.996694065911225 7.751592785405014 0 0 0
96 2 13.010574686659156 8.922268802222813 7.060782649143795 0 0 0
97 1 5.428177450011637 4.2315031316818725 6.112465156731678 0 0 0
98 2 5.676467840797639 4.96844516444086 6.71999520340436 0 0 0
100 1 7.825912785832862 5.938954062366724 12.952750126435756 0 0 0
101 2 7.585988620792748 6.456450504562967 12.13292153729113 0 0 0
102 2 8.431742338862785 5.185979958257329 12.686980264888415 0 0 0
103 1 8.159863551321125 11.650395333081459 6.115469639806369 0 0 0
104 2 7.927974081025295 11.921339560686828 5.193565124379315 0 0 0
105 2 7.55490098406342 10.943023641521368 6.403456628224061 0 0 0
672 2 36.66663986172553 15.91045235300024 9.397751919869924 0 0 0
75 2 30.8689938857513 1.612810837130045 1.5362939844823789 -1 0 0
108 2 11.105317488177306 12.741482189436907 12.365199800492428 0 0 0
109 1 12.751994089479528 4.319023194794003 5.977859484493809 0 0 0
110 2 13.535675833683184 3.851543219519718 5.7346283717542414 0 0 0
111 2 12.638841501750049 5.041828686753461 5.346781205714717 0 0 0
318 2 5.839520511091169 6.936920288223726 7.800696706796348 0 0 0
546 2 32.70841537730222 3.843282591264957 12.324556233230663 0 0 0
115 1 15.446782668810581 11.268568171339993 6.218896710039678 0 0 0
116 2 14.773302362337704 10.785837413675075 6.737287360768428 0 0 0
117 2 16.01166711201373 11.850167175344069 6.90729099321851 0 0 0
118 1 17.822312763341557 13.232426319670788 12.815560914793284 0 0 0
120 2 17.555469258836222 13.85418830796038 12.130201214142694 0 0 0
367 1 9.547487671675073 14.768487998765371 5.3302269844627235 0 0 0
124 1 5.484805721572084 4.804929885203768 11.076450305880067 0 0 0
125 2 6.308187697517779 5.131141492012419 10.639737190905564 0 0 0
208 1 18.348148773944953 4.069216413284939 9.659187609507434 0 0 0
43 1 21.74855125930567 15.419914469943103 6.535962269039865 0 0 0
129 2 6.269032709362836 10.55834252154052 3.5173516520845602 0 0 0
132 2 8.929204931338933 12.189532800728447 10.663174362315154 0 0 0
133 1 10.778935826846533 2.792022512973025 4.320861701039482 0 0 0
1571 2 11.574580098175451 12.703730108391932 0.2638252836213077 0 0 1
135 2 11.526699960588775 3.301548838222095 3.887590066909896 0 0 0
136 1 13.089241577685023 4.471049052118924 10.90218612345274 0 0 0
137 2 13.865441602343003 5.051566565859455 10.782228868617093 0 0 0
138 2 12.57112133933954 4.956161578511107 11.528218589245148 0 0 0
139 1 13.08884385727013 9.653739285025503 4.466389828954931 0 0 0
140 2 13.924548410782938 9.990409798030926 3.9688946415657043 0 0 0
141 2 13.283598390938982 8.759977798776852 4.883991496440814 0 0 0
142 1 15.658997970863327 11.608506305409074 11.061547170618173 0 0 0
143 2 16.408809142576626 11.922440069015348 10.48637459748664 0 0 0
144 2 16.036215990839835 10.813221272541925 11.50898152001224 0 0 0
345 2 6.362651737564061 13.091985763566743 3.7633113631340303 0 0 0
147 2 6.338217105397379 2.9322416379394585 5.45762426030351 0 0 0
379 1 17.26042243064 14.859091174499097 5.225207831332851 0 0 0
149 2 9.68050743055775 4.036636941708365 11.169572863308991 0 0 0
282 2 20.309298143447588 8.400665432987271 10.49612912792226 0 0 0
151 1 9.741313295865874 9.215764998854565 5.311963218529707 0 0 0
152 2 9.557021917312316 10.090476093146238 5.712895732030783 0 0 0
153 2 10.018614024429791 9.349638080697227 4.367640381943243 0 0 0
154 1 12.11780787970723 11.173178248131649 11.975231341272908 0 0 0
155 2 11.283060393035592 10.546684173785902 11.876343127651756 0 0 0
156 2 12.540864096917865 11.212999538658787 11.124964449660764 0 0 0
157 1 14.485575412501355 2.1788873520152627 5.110126458940614 0 0 0
123 2 3.662315889955934 2.2649472156802983 4.892851429297599 0 0 0
159 2 14.722453909331186 2.1789638178386146 4.132212778134744 0 0 0
160 1 16.741474406169637 3.7783344301721637 12.08587256333715 0 0 0
161 2 16.36181365532951 4.601306401793296 12.501454136523849 0 0 0
163 1 16.80000920592677 9.075742457469437 5.039991361980685 0 0 0
164 2 16.354109968914173 9.882715202810127 5.387993071915401 0 0 0
165 2 17.177834731470455 9.236123186809948 4.161533053058957 0 0 0
166 1 19.259617815388516 11.013312123147394 11.810052235531948 0 0 0
167 2 18.97851017552462 11.880397105902619 12.188822148331331 0 0 0
168 2 19.61983366173436 11.325740480451351 10.929335949571152 0 0 0
169 1 9.371780126779937 4.356463214682923 6.303740105355356 0 0 0
170 2 10.101795892001068 3.7176529166094507 5.981041703441387 0 0 0
171 2 8.838107772799773 4.606049535286058 5.504605077519035 0 0 0
287 2 22.761902665303896 14.76961066501058 10.236562801188327 0 0 0
127 1 5.710330760446236 10.004840121086895 4.076105222799047 0 0 0
175 1 11.633980759372221 11.494466709108025 6.001973483254629 0 0 0
176 2 12.285609319287156 10.90494517599203 5.536135452547147 0 0 0
177 2 12.113058846689695 12.12950805033084 6.560839208251222 0 0 0
178 1 14.05449750737001 13.421336263634666 12.734093536825482 0 0 0
179 2 13.455996003577347 13.762707950660644 12.047911437457772 0 0 0
180 2 14.666408171159123 12.804931339495182 12.32115625663393 0 0 0
181 1 16.105729177119226 4.300024931628956 6.550969440161975 0 0 0
277 1 17.18588397797319 5.968056618600168 2.9844869360630955 0 0 0
183 2 16.626382706708394 5.102162446368382 6.6212820308935285 0 0 0
184 1 18.88679065242755 6.067902168903381 12.968888840735227 0 0 0
187 1 18.6948143524847 11.205751261277747 6.128996504488876 0 0 0
188 2 18.47047621858189 10.562068038341842 6.848096032873427 0 0 0
189 2 19.281623367158495 11.860636108206897 6.527797888529687 0 0 0
241 1 7.362480383360318 4.676648103830991 0.8499561153067283 0 0 0
192 2 20.8989746273726 13.234352593734519 12.283138942388211 0 0 0
193 1 8.32195649494874 2.7782474648890862 2.881580171120522 0 0 0
194 2 7.833706837219161 2.3541173062988476 3.6354822978908237 0 0 0
195 2 9.228678986738798 2.8670342028325084 3.2462419858543683 0 0 0
196 1 10.76549210932898 4.2787286009021 9.70906047070691 0 0 0
197 2 10.738247440960995 3.5289170538895736 8.995224964086328 0 0 0
198 2 11.72084050385516 4.423860533747407 9.891664781738132 0 0 0
199 1 10.84607666419193 9.398907212883973 3.0086060324532817 0 0 0
200 2 10.7372890384739 8.862598985383144 2.195570159123562 0 0 0
201 2 11.770845507580406 9.28491292174368 3.2756755962206214 0 0 0
202 1 13.547190516750977 11.407139669055153 9.597118002675018 0 0 0
203 2 14.355140647224708 11.252509764755734 10.2153590458641 0 0 0
204 2 13.509577588513448 10.558113427017288 9.050921855719551 0 0 0
205 1 15.767671926549212 2.860152341563269 2.6551769846190107 0 0 0
570 2 34.22911954620542 7.060467502821583 13.506588503310828 0 0 0
209 2 17.8589361036636 3.826007344051935 10.471266465811672 0 0 0
73 1 1.2339550273365458 1.0883768449838342 0.7366454614927755 0 0 0
213 2 18.14528797928838 10.455950249295238 2.4062157786326877 0 0 0
214 1 20.905804596120387 11.559389419415883 9.852597678398725 0 0 0
429 2 37.28056478873787 15.614681790394426 6.731098177308358 0 0 0
286 1 22.13056951006555 14.550835222549422 9.525448176466723 0 0 0
692 2 30.14085019249703 14.19640667856621 1.4266123543747131 0 0 0
30 2 13.474877506882276 10.521754785191971 12.629826643711178 0 0 0
319 1 6.384112629411934 11.633808602578966 0.915318202354689 0 0 0
470 2 23.885790739464174 1.7790055427760514 0.22071389685712522 0 0 0
221 2 8.211108824324219 3.9746976992737126 9.056180398219185 0 0 0
222 2 8.431704949189568 3.5072233248624154 7.6397093135673755 0 0 0
223 1 8.256692365066726 8.213427713511571 1.590887515311812 0 0 0
224 2 8.74676233343211 7.376720167998328 1.6287124350565882 0 0 0
225 2 8.334546035364003 8.565923827885632 0.721629861157037 0 0 0
226 1 10.718068251380897 9.995126017162335 8.212915444741235 0 0 0
227 2 11.459406524447402 9.459281014130868 8.57391419945747 0 0 0
228 2 11.06724107188453 10.49443760528886 7.443202138158162 0 0 0
231 2 13.144468883463857 2.1524061168438227 2.2712802038502664 0 0 0
128 2 4.89028137162078 9.945381899343676 3.5270523199752284 0 0 0
234 2 16.174534890062688 3.356235527197993 8.336268180740273 0 0 0
235 1 15.887276227192856 8.093016323975112 2.0549790007354183 0 0 0
1857 2 11.574180100498769 16.208625915992066 13.509064149566951 0 0 0
237 2 16.4855859644057 7.374022180843436 2.3962924229772185 0 0 0
238 1 18.062733497340247 9.984595650507163 8.642002504847232 0 0 0
239 2 18.6158288111378 9.31714796233404 9.146076274255087 0 0 0
240 2 18.155039297006265 10.796911693882933 9.13269747532336 0 0 0
242 2 7.550850713324172 4.015601022311737 1.4470154208206891 0 0 0
243 2 6.838132894873348 5.309752296329727 1.3395728375918394 0 0 0
244 1 10.3768872300607 6.249243615335432 7.88149533163111 0 0 0
245 2 10.49632854732884 5.587494117871274 8.607831751276729 0 0 0
246 2 10.089543991142264 5.6891990680145605 7.125319793896364 0 0 0
247 1 10.102188850507648 11.840163401042258 0.9953726323898151 0 0 0
248 2 9.579977904462543 12.660542961210693 1.241253492419649 0 0 0
249 2 10.331867886530926 11.428113074242312 1.8549832461153106 0 0 0
250 1 12.655405528141813 13.234234108858972 7.814924454998262 0 0 0
251 2 13.049920733854009 12.69597959545752 8.52126778390125 0 0 0
252 2 13.340832613215527 13.767064560578817 7.4130234693734725 0 0 0
253 1 14.971562126774172 4.8441182117858155 0.7598870909448207 0 0 0
254 2 15.505177276975362 4.330120866725252 1.42549741610238 0 0 0
255 2 14.369855423693378 5.470214791554174 1.2890578504826677 0 0 0
256 1 17.37854288973427 6.527609325845364 7.866535024582037 0 0 0
257 2 17.334805838504245 5.848304114523174 8.590111101969617 0 0 0
258 2 16.984026594747966 7.369248035716306 8.117084661092038 0 0 0
259 1 17.686245162719523 11.672808406693987 1.0652437445310148 0 0 0
260 2 16.886135342602348 12.218100373855737 1.143951581587355 0 0 0
492 2 24.854176625384472 12.564371480844521 13.624898587800182 0 0 0
262 1 20.03999852853127 13.400214887886463 7.2915045818473505 0 0 0
263 2 20.521108222259357 13.018011831336706 8.06609137901484 0 0 0
264 2 20.647871738435004 14.076752520553944 6.8961844731423865 0 0 0
265 1 9.816772104091024 5.8757225621498 2.4827430599329237 0 0 0
266 2 9.1388179574139 5.494844634217786 3.0084309285296853 0 0 0
267 2 10.350484530896772 5.194741724737112 1.9718440521215193 0 0 0
268 1 12.13748362030069 8.158371346360664 9.665804095613984 0 0 0
269 2 12.21001569917367 7.57275130538573 8.886454839105403 0 0 0
270 2 11.405471039826518 7.783977807983214 10.19840352444903 0 0 0
271 1 12.488765719309384 13.19339152741302 2.761415321521813 0 0 0
272 2 13.142358418201416 13.31793388002883 3.5060377574580235 0 0 0
273 2 11.701300746158903 12.801895785837893 3.1815114911966003 0 0 0
274 1 14.874428447451297 14.841014101168462 9.365277674281085 0 0 0
99 2 4.722864800986609 3.8235704537356217 6.575553934935619 0 0 0
276 2 15.588479456347677 15.130572228814046 9.990750134692131 0 0 0
278 2 16.44353091134839 5.431748660252904 3.2595009344950587 0 0 0
280 1 19.65550143210878 8.040012857303783 9.827763391009446 0 0 0
498 2 31.065048436280534 6.6762882406912905 13.572575314821838 0 0 0
283 1 19.552766346291154 13.316837259188148 2.6526747464871536 0 0 0
289 1 5.892504097464031 6.6949836078769644 1.8998531300235488 0 0 0
290 2 5.791787886125211 6.528670131986808 2.900131565392382 0 0 0
291 2 6.575176683174271 7.4161215107036185 1.9158519498300313 0 0 0
292 1 8.688138501373837 8.401287667011257 8.456888452555422 0 0 0
293 2 9.204839220003965 7.5941417852041395 8.384957154853145 0 0 0
294 2 9.317460091671144 9.092259808490386 8.399366403611447 0 0 0
295 1 8.339780067731073 13.768836639725029 1.9028756002233853 0 0 0
296 2 8.034935947660383 13.562072966299061 2.780558904820136 0 0 0
298 1 11.100331565931121 15.687413757544254 8.630615869005304 0 0 0
299 2 11.462038524075917 14.846717377911856 8.25494497227676 0 0 0
173 2 12.104654507303186 6.8335853450728115 13.307208303862076 0 0 0
301 1 13.402654187903282 6.59061054733289 2.0589323218867968 0 0 0
302 2 12.945140604934325 6.567593453342356 2.9001377493829077 0 0 0
303 2 14.081999667278781 7.274002983553725 2.1697749501987094 0 0 0
304 1 15.886294651064535 8.626604228674701 8.495571548813148 0 0 0
305 2 15.582236333612542 8.290619955481539 9.383276848544646 0 0 0
306 2 16.699847874598806 9.216905675996522 8.633085734898508 0 0 0
307 1 15.965367871682592 13.702069510995898 2.158735041053386 0 0 0
93 2 11.833342475731468 7.518113547641324 0.9057860783183713 0 0 0
310 1 18.49544814409104 15.36308762884629 8.45975419503993 0 0 0
311 2 18.973438536175607 14.610703362485578 8.103478703254178 0 0 0
91 1 11.010849220572352 7.91810545866019 0.5599582452531209 0 0 0
315 2 4.379035625058868 4.527202004793809 1.6386337390828303 0 0 0
316 1 6.587649440940829 6.45246581606916 7.447040083228069 0 0 0
317 2 6.9520405511532015 7.015533672956614 6.737979675738258 0 0 0
321 2 7.139294902293828 11.349727943781042 1.501474223416141 0 0 0
322 1 8.851488931935918 13.508382500943238 7.913765818167793 0 0 0
323 2 8.152310885444125 14.140280165496316 8.093222473491078 0 0 0
324 2 8.528826596284661 12.893191341600506 7.23046069867482 0 0 0
325 1 11.492631852616709 4.37917420814634 0.8898374440438444 0 0 0
328 1 13.700195660294018 6.498630571500732 7.872150173568903 0 0 0
329 2 13.156437313413946 5.859892116784014 7.410394721505319 0 0 0
330 2 14.409495611098265 6.036101355560585 8.443122358204779 0 0 0
331 1 13.854582789212053 11.477912340560664 1.3118814547178461 0 0 0
332 2 13.305470551495661 12.031220962702475 1.9364840180743677 0 0 0
333 2 14.596986468776882 11.15321720302892 1.8519980689239801 0 0 0
334 1 16.29714264713147 13.410166559644018 7.466910363803891 0 0 0
335 2 16.472807555523456 14.05409206782615 6.791308832612037 0 0 0
336 2 15.62267767313127 13.885205124886866 8.012781124750244 0 0 0
2006 2 29.20638864814978 5.14390960213286 13.6808591429334 0 0 0
340 1 7.0799806252382345 7.90426947338702 11.105755669805992 0 0 0
342 2 7.666150010798101 8.142826644775962 10.358426059974832 0 0 0
343 1 7.212063901119337 13.363169208044052 4.184244915988677 0 0 0
680 2 22.823428204743255 13.681554085279785 1.3245604388950345 0 0 0
337 1 4.468561991335247 6.547137796417707 4.444729767790651 0 0 0
346 1 9.612320441660934 15.298041722433334 10.954996249147548 0 0 0
347 2 10.284224333954318 15.331657054614757 10.210031049676687 0 0 0
348 2 9.928894263375993 14.66159930784381 11.58540579646308 0 0 0
349 1 11.887234294337455 6.2738564232321234 4.220160377352205 0 0 0
350 2 11.547191979609662 6.868431563273594 4.9242542185392395 0 0 0
351 2 11.060916342034128 6.048795454940859 3.684080965099557 0 0 0
352 1 14.374959979296255 8.174928677894215 11.13464600064101 0 0 0
353 2 14.522867750255518 7.313466382363897 11.61144205148599 0 0 0
354 2 13.512848385161401 8.176535930638847 10.642624052787335 0 0 0
355 1 14.659762136079703 13.419305314198422 4.4838303156906605 0 0 0
356 2 15.023153019082423 12.6555330771443 4.943519023730089 0 0 0
357 2 15.333090986805583 13.534274737495606 3.809362233880362 0 0 0
358 1 16.9741125415966 15.309687961129443 10.92659812336991 0 0 0
359 2 16.948191958549987 16.029888077617848 11.657551715856181 0 0 0
360 2 17.56463023424744 15.545760642863595 10.208530223132271 0 0 0
361 1 7.311520313472934 7.9695647980986015 5.128665838970638 0 0 0
362 2 6.741846752182921 8.696656895924159 4.836063525916641 0 0 0
363 2 8.175662689230238 8.402954241998874 5.290297641013513 0 0 0
364 1 9.77870903439814 9.466251318387114 12.073967783774318 0 0 0
365 2 9.099188083828011 10.174783838248324 11.818871818593774 0 0 0
366 2 9.488905190530811 9.184014350009265 12.960147717574607 0 0 0
472 1 26.012351268925663 2.5196373787183277 7.416944115518995 0 0 0
211 1 18.247031106251182 9.56305443191533 2.796990720722814 0 0 0
369 2 9.271649545088225 14.63417227342719 6.22899124700739 0 0 0
313 1 3.7679931635519472 5.085405940377257 1.0783668870273548 0 0 0
126 2 5.769941219295878 3.9215776097220836 11.47274548610564 0 0 0
372 2 12.14251414349334 15.901858561207032 11.416795767350191 0 0 0
373 1 14.651950239330203 7.262347472810662 5.429201728500425 0 0 0
374 2 15.493369319073764 7.803029221539924 5.251140461721578 0 0 0
375 2 14.446803291245875 7.193401801653135 6.36507052768724 0 0 0
376 1 17.04345954041847 9.388095902109544 12.2896805499018 0 0 0
377 2 17.974191402285783 9.586534550544187 12.198704683255812 0 0 0
378 2 16.951258678334376 8.528996272857848 11.842504433116469 0 0 0
130 1 8.178072208026537 11.82219215426388 11.11081485628591 0 0 0
381 2 17.282635725156638 14.067842769295025 4.61292023290032 0 0 0
382 1 19.539191987672957 16.43631707537623 11.88939658266939 0 0 0
37 1 18.75113025241549 7.984450335448529 6.298967246384082 0 0 0
663 2 32.63200182932119 5.90439004459733 2.260672167901085 0 0 0
300 2 10.342906904096818 15.892331517802356 8.078934346378775 0 0 0
530 2 22.50667328744157 1.782584025961906 5.657354624349375 0 0 0
174 2 11.353939768031179 5.525701354941194 13.597367561463052 0 0 0
705 2 20.649165523545513 11.167823741175933 0.6657579599056851 0 0 0
751 1 24.51207323362513 15.071695875281417 5.358659499917386 0 0 0
457 1 15.965338365031183 1.0409108882445866 0.6695105799505511 0 0 0
185 2 19.14917825200947 6.915137634814681 13.261907649960047 0 0 0
78 2 33.34993441642331 3.1380731978733634 8.144460103029548 -1 0 0
220 1 8.065472081262273 3.1486558131503934 8.500068267690901 0 0 0
618 2 30.0074644752588 2.7365785106433442 8.574506765378246 0 0 0
82 1 6.492783672564589 9.796489248450756 7.46575052448878 0 0 0
1584 2 18.7265448046082 12.969934225852665 0.3138101232243689 0 0 1
531 2 20.961519863543746 1.594691316789827 5.122992630202485 0 0 0
80 2 3.139730973829817 7.396858646303138 0.4558514079153073 0 0 0
112 1 15.063880859150268 6.183456526832095 12.982160151487179 0 0 0
418 1 31.656758115029586 16.966708896603503 13.263781427196639 0 0 0
46 1 24.346576108271794 17.093354399064562 12.968551524039501 0 0 0
232 1 15.767198036498558 2.768270605256691 9.039516279498532 0 0 0
212 2 18.315245077178286 8.916246043131279 2.0224851208765453 0 0 0
512 2 20.20884695345496 10.561919563870637 4.728712458240053 0 0 0
207 2 15.817673889327642 2.2130644913128363 1.9324271830327129 0 0 0
281 2 20.246197438038916 7.493491132311253 9.274756394129502 0 0 0
314 2 3.301390402776556 4.467882364600685 0.5547640071357748 0 0 0
210 2 19.263288618534798 4.355310317585607 10.08440997853569 0 0 0
219 2 6.149992655857383 1.3056281407551413 0.8640658540185725 0 0 0
669 2 5.376082934011476 12.543326228870729 1.936581420402988 1 0 0
131 2 7.4617223857942925 11.667380178475137 10.419627751557687 0 0 0
48 2 24.00329909472183 16.38886492903189 13.578567479395792 0 0 0
432 2 39.09734517082894 16.594126639025195 12.124755297824137 0 0 0
216 2 20.910521867411315 11.12853164132029 8.939867959020107 0 0 0
616 1 30.842590722124278 3.1817922717546203 8.45515862235384 0 0 0
39 2 18.42148589228506 7.454996403203128 7.072571033911964 0 0 0
344 2 7.007825375043427 14.033034132225106 4.830013877934466 0 0 0
28 1 14.360268673708951 10.115096284141064 12.903365055324851 0 0 0
218 2 4.950128724266431 0.8596612785588525 1.7994286037625957 0 0 0
148 1 9.25812540584063 3.850974192223577 12.057190732011696 0 0 0
424 1 36.794580941056196 10.173555723328075 13.06980896947198 0 0 0
638 2 29.463566578981602 5.274241764152655 1.0502041859492066 0 0 0
463 1 18.435634192518666 7.752733766999763 0.6671813589503008 0 0 0
384 2 19.25619128899938 16.380666923433118 12.798077251513018 0 0 0
415 1 29.042912122137235 15.448405462042281 6.215365243241476 0 0 0
217 1 5.871121801782119 1.129216050288949 1.788043537811683 0 0 0
285 2 20.382685732360276 13.543716027159796 3.0999905202094404 0 0 0
31 1 13.916815732580874 15.381029524646916 6.2562697494672035 0 0 0
279 2 17.666851379338215 5.480194774617576 2.313969813720384 0 0 0
633 2 24.812277692174092 10.529306457142976 0.4155764385957578 0 0 0
215 2 21.82391131774156 11.588152596452288 10.128595668036533 0 0 0
722 2 18.70776221058553 6.064626183949458 3.938528573602267 0 0 0
206 2 16.574992551080634 2.6482616262280705 3.2731652111204657 0 0 0
284 2 19.957162478572005 12.711839354639764 2.039123518052956 0 0 0
79 1 3.9122313041227983 7.870611191037741 0.8131264864665825 0 0 0
763 1 32.21633467945128 14.834886296479304 4.8307703707305985 0 0 0
41 2 21.944565402552072 9.499211070627906 12.353726438784852 0 0 0
85 1 8.857073264468115 1.2932486189675916 0.6193654837788493 0 0 0
385 1 22.257332914423543 5.369770583304699 4.221436016920084 0 0 0
386 2 21.56919154141413 4.745174952453727 3.831415312068003 0 0 0
387 2 22.660208390522754 4.787394543602494 4.939443214475016 0 0 0
388 1 24.940558297240475 7.047367298800108 10.76315374312942 0 0 0
389 2 25.270609906881862 6.616073656464684 11.575674581948514 0 0 0
390 2 24.166281255268306 6.412933955951631 10.640818949854857 0 0 0
391 1 24.68881548331296 12.58009608974162 4.306031788493867 0 0 0
392 2 24.124246558085932 12.058871006122898 3.7360888660485907 0 0 0
393 2 25.553121765044423 12.695789431905046 3.808815976115158 0 0 0
394 1 27.48550194224754 14.106026488995235 10.951102786249201 0 0 0
395 2 27.090227520040063 14.972958693046651 11.340163659976051 0 0 0
396 2 26.72412931342558 13.605547163101011 10.487745087555751 0 0 0
397 1 29.88985291164458 5.465727684025763 4.1531312587777975 0 0 0
398 2 29.232309281428066 4.9766610916945995 3.56042782769092 0 0 0
399 2 30.61496604793159 5.785475319693609 3.591388880744122 0 0 0
400 1 32.312850089714395 6.997835284522539 10.857756368268456 0 0 0
401 2 32.137306327021314 7.9712569280977075 10.820301585564495 0 0 0
402 2 32.72111055465033 6.739605378950238 11.701587853523625 0 0 0
403 1 32.6159767247805 12.382124497001525 3.95060063859286 0 0 0
404 2 32.97669176069341 11.99803914466939 4.75271964256856 0 0 0
405 2 33.37453057626743 12.277926998507423 3.327765029277096 0 0 0
406 1 35.00615477497192 13.932243379585875 10.905580190824653 0 0 0
407 2 35.49441652425507 13.801177862876827 11.763229303738298 0 0 0
408 2 35.73294312598152 14.31308833086216 10.283250264023224 0 0 0
409 1 26.508190632564517 8.235867618372428 6.378384280870223 0 0 0
410 2 25.99214070606503 7.752688263329864 7.078484628429033 0 0 0
411 2 27.236266349190696 8.65740169227441 6.868645774802782 0 0 0
413 2 29.282449141420777 9.332393838960337 12.367078272954288 0 0 0
467 2 21.318080396649354 10.416103219395614 6.778979523652173 0 0 0
416 2 28.586534303403784 14.662677983483222 6.6641712246460365 0 0 0
106 1 10.480996698250276 13.282347372613867 12.895922650817099 0 0 0
664 1 34.627733029255744 7.49905394125278 9.272372963468289 0 0 0
420 2 31.930775381298076 16.433733919344053 12.501127593792017 0 0 0
504 2 33.129912818941825 13.982208267216615 13.210970852376175 0 0 0
425 2 35.88130168465583 10.53581234226574 12.776714505224595 0 0 0
730 1 24.49361245826572 15.006304164387295 11.112188545901333 0 0 0
752 2 25.412215835033365 15.356534653250936 5.260445875263182 0 0 0
433 1 20.2096671733826 4.0190128315146785 2.967864956752888 0 0 0
434 2 19.8227280679221 4.274644031271783 2.143307051069237 0 0 0
435 2 20.607095509343445 3.1654397462647252 2.751094994077637 0 0 0
436 1 22.837356664473884 5.591073718640221 9.783927339381814 0 0 0
437 2 23.098920233173878 4.679315912752728 9.522590181660775 0 0 0
438 2 22.25459031772832 5.813716318154935 9.03343735181787 0 0 0
439 1 22.71169268731045 10.874359197545234 2.819548514909548 0 0 0
440 2 22.994649652854957 9.950459883696007 2.4965437031927804 0 0 0
441 2 22.007974440915273 10.577649016659581 3.473324747197214 0 0 0
442 1 25.427730230137 12.593161046485125 9.699743204760832 0 0 0
443 2 24.96598585359405 12.97299735979612 8.87294591649079 0 0 0
444 2 25.397462525714445 11.627891894641014 9.449705225848577 0 0 0
445 1 27.83974472883616 3.984953163992071 3.133743269888313 0 0 0
446 2 27.303465219504762 4.289496417288423 2.401552464199903 0 0 0
447 2 28.23646715432813 3.146525748037356 2.745017158766209 0 0 0
448 1 30.285775843997314 5.532436557285536 9.781334047283046 0 0 0
449 2 30.606241375551253 4.682398746125457 9.543163954486115 0 0 0
450 2 30.972326730213652 6.1322531969875556 10.134441670091682 0 0 0
451 1 30.343170315149123 10.905779731077226 2.9159333184040785 0 0 0
452 2 30.950311000245417 11.563922062940845 3.2844759608131784 0 0 0
453 2 29.696754785547043 10.83940855043014 3.644516381900274 0 0 0
454 1 33.130727897777255 12.145834500039822 9.631142994618592 0 0 0
455 2 32.66786986885411 12.62744771141688 8.877820201164644 0 0 0
456 2 33.746683340227534 12.78396096650972 10.040652834465096 0 0 0
682 1 25.79110489049412 15.677041388683026 8.86741177601408 0 0 0
668 2 34.29187996967088 13.66863980621878 2.2399509990084057 0 0 0
428 2 35.89536867666915 15.553855515850488 6.096408199825054 0 0 0
569 2 34.526899339689855 5.854505709322104 12.552520791606648 0 0 0