LAMMPS data file via write_data, version 8 Apr 2021, timestep = 0

768 atoms
2 atom types

-0.6477115328666417 30.591058476321212 xlo xhi
0 14.171297179380302 ylo yhi
0 13.555952528095837 zlo zhi
5.108518947305939 5.066274966857442 3.5579998049024226 xy xz yz

Masses

1 16
2 2

Atoms # atomic

161 2 15.885833331978718 3.245229105456435 11.619010885547372 0 0 0
125 2 2.8728405281722638 7.506277317339711 1.0035275285442755 0 -1 1
295 1 7.386614748546189 8.866654050640406 6.264060953687142 0 1 -1
297 2 7.715436399643738 9.585043313846933 5.670960989421647 0 1 -1
164 2 15.629566899168468 8.351985188292396 4.549806193843962 0 0 0
220 1 6.121049854388222 5.342569738348173 4.159884249195745 0 -1 0
371 2 5.71454258744005 5.604787962073145 8.50512843955053 0 1 1
244 1 10.210855927351131 9.53292589421471 3.3351287921439314 0 0 0
352 1 9.895984394572412 2.3747334710631414 4.2912408633542665 0 0 1
150 2 9.184196172378824 3.4624644439572125 3.1121313482815807 0 0 1
298 1 6.560169729508027 2.9239934444310114 1.6441934046484368 0 1 1
101 2 7.6202935088643065 5.333355409097952 7.256984947955529 0 0 0
60 2 10.440215454519636 7.461027454263095 6.1521025942697465 0 1 0
148 1 8.70564787824509 4.029100333156208 2.4724582713474135 0 0 1
11 2 7.730520574298848 8.52339687525123 8.872940363352766 0 1 0
105 2 16.006956131001054 16.569212196661468 9.416666473737129 0 -1 -1
39 2 18.289421199341415 7.6358842698998455 6.5278453078745065 0 0 0
106 1 8.050952623537803 15.239976404573305 4.508895008368126 0 0 0
162 2 17.314642169162514 3.7133639860475407 12.177409800140756 0 0 0
241 1 8.900864678555935 13.391865719412138 12.897225252092577 0 1 0
58 1 9.633874364385612 7.230419800535573 5.643936871513252 0 1 0
59 2 9.232105122781524 6.390513707654365 6.004202725402628 0 1 0
149 2 8.689089850690518 4.921458181225877 2.8863698219298097 0 0 1
50 2 12.566992817181783 6.89033997087096 0.7445677808939611 0 0 -1
127 1 9.99425031774893 3.5633728218230587 6.789961957420358 0 1 -2
282 2 19.66068029075158 7.182754481597994 8.493637221284164 0 0 0
247 1 8.396723963868345 10.89128955150442 4.6512492549869275 0 0 0
218 2 4.262300590912405 3.952005643940873 0.14070771210133326 0 0 0
351 2 12.062439155685157 4.821244017987588 0.6716484699665658 0 0 0
134 2 8.669985092691006 15.51544021305173 10.388419627469494 0 -1 0
284 2 19.573084969448498 12.558279795004177 1.9292935651162406 0 0 0
170 2 4.1605880690874 3.610865728851035 5.229938199497813 0 -1 0
353 2 9.352413896199815 1.5362381488853407 4.3159086209287985 0 0 1
219 2 4.187328089624594 5.180635200685773 1.202291361006219 0 0 0
61 1 14.302918739501234 5.604993963143615 12.12650109706718 0 0 -1
315 2 5.489489452571118 7.420338726824784 4.494385957276495 0 0 0
92 2 4.91025876320625 7.207314918288899 2.1646852306347144 0 0 0
324 2 8.527223345271715 5.333117001242755 13.34056061797757 0 1 -2
65 2 12.054087246736344 4.2686016288549276 9.379003684170387 0 0 0
233 2 14.904453479076503 3.169556987085097 9.089386112800323 0 0 0
217 1 4.812127482722236 4.680530273386006 0.5847969253410751 0 0 0
257 2 16.422476126040102 7.221899555264816 7.775261370888994 0 0 0
38 2 17.826944698522478 8.541761694044048 5.447400183780392 0 0 0
94 1 14.081492608350173 7.990565268250144 5.126380991891797 0 0 0
225 2 5.764048015811325 2.2178944755229684 3.215521601787482 0 1 0
128 2 10.011637799294675 2.8093862587214438 7.417822699393331 0 1 -2
372 2 6.964426110410742 5.834014363043857 9.279034378993202 0 1 1
274 1 6.725371675924084 13.899681398703692 2.3818045699132306 0 -1 1
140 2 8.450060548700742 6.541590655565866 11.315522659188051 0 -1 1
100 1 7.993558692405785 5.272333886444721 6.361059546455464 0 0 0
63 2 14.369815823047938 6.444126629537117 12.621411040707715 0 0 -1
129 2 9.137619562239005 3.8872153160170204 6.511814694889998 0 1 -2
222 2 6.648322869546136 5.451888339783346 3.3553670770804196 0 -1 0
64 1 12.341966089436083 3.330326255658757 9.339473017432464 0 0 0
111 2 10.325609288568378 12.898487126176192 2.8760794524665494 0 -1 1
13 1 14.549633132080604 5.27104291621435 3.6388102679951504 0 0 0
62 2 15.15217527975328 5.053634854526503 12.106617379445987 0 0 -1
332 2 11.570285012179603 4.800904788932506 5.458342992214423 0 0 0
206 2 16.681414421334505 2.6003880170207907 2.9656473220507067 0 0 0
250 1 11.408919174788945 5.50276233433895 10.659511538752609 0 1 0
368 2 4.698261720651439 6.767201188441745 6.622196366938453 0 1 -1
102 2 7.33483864657402 5.3461216220062715 5.639792954207066 0 0 0
349 1 11.724010822916263 5.492082470353117 0.0603325579496066 0 0 0
81 2 7.8944938711902735 12.716404889457184 2.2360795513253273 0 -1 -1
85 1 11.71383646301215 8.083059536363487 12.141752224471979 0 -1 0
302 2 6.963240050957086 1.7186955335685825 0.6268731349834954 0 0 0
301 1 7.19771064779908 0.8615144530755054 0.062124666652586154 0 0 0
103 1 15.11659361982269 16.14493992532896 9.243505861308202 0 -1 -1
6 2 13.274215642791411 4.256771808020604 2.6837167821528825 0 -1 0
303 2 12.723717953817467 4.795526574988579 12.796812743921937 0 0 -1
305 2 14.550396000122172 5.638446508682691 10.377246682403888 0 0 0
239 2 17.957994827832323 9.544008865897217 8.378772560526603 0 0 0
461 2 17.648306502560548 2.3224525466808332 7.050690919917885 0 0 0
333 2 11.574069267152797 4.646524907701491 3.870318109400068 0 0 0
346 1 5.199946662625414 2.9251473088252316 10.881347728682023 0 1 0
110 2 10.678879846430554 13.544752490300565 4.352736265032093 0 -1 1
331 1 11.274737170717007 5.179102019662757 4.622516626189116 0 0 0
9 2 7.192006556994283 3.613830938619882 8.874310781470987 0 0 -1
4 1 12.38751887085542 3.864794056211847 2.467252090540892 0 -1 0
8 2 8.120849401425504 2.4105106235028932 8.966451495625897 0 0 -1
5 2 12.573930165514371 2.898769888602303 2.3057376344164315 0 -1 0
7 1 7.1786794697330665 2.6380136582708085 8.80735788462045 0 0 -1
377 2 16.258007808539055 9.73713988827221 9.859821750003722 0 0 0
112 1 14.38667409013637 7.866822055786741 13.455169339681893 0 0 0
304 1 14.987495101203416 5.7878426015387 9.517370251513768 0 0 0
48 2 24.61551261402327 17.442964424024428 13.20848128572648 0 0 0
350 2 17.34619583413444 9.000087936941062 12.810869210983014 0 0 -1
113 2 15.272230599060078 8.362206667576118 13.38358995793209 0 0 0
376 1 16.64340424342256 9.709922450890604 10.73434467710703 0 0 0
114 2 9.218917445323966 4.208830015769711 0.8576562835645308 0 0 1
66 2 12.779155104706208 3.192433025231286 10.188143751633799 0 0 0
14 2 14.788894984802495 4.5001644627160085 4.278250186907544 0 0 0
296 2 8.144451906228703 8.2791861501077 6.359668499906428 0 1 -1
122 2 0.9424410643156539 3.453831914580628 0.2859176919128074 0 1 -1
280 1 19.22002753488774 7.829640482120144 9.119353143509855 0 0 0
109 1 11.043886185392783 13.331130702147139 3.420499960762756 0 -1 1
87 2 12.454573200756506 8.005671544694462 12.768537028124179 0 -1 0
184 1 18.60255872886464 6.008527271763337 12.927824980233945 0 0 0
277 1 16.833040242503444 6.128330329679542 2.3443035688345732 0 0 0
93 2 3.4665612593140622 6.744343978613727 2.9184308713927125 0 0 0
15 2 14.330229629023165 5.933717082970332 4.289556467633226 0 0 0
299 2 7.361677475584398 3.3634356198635533 2.0509391595164104 0 1 1
107 2 7.790666639476066 14.790783646064083 3.6968719799681615 0 0 0
160 1 16.535447995948378 3.9772236953261353 11.640243051768465 0 0 0
17 2 16.870994987321176 8.031538137483722 10.770124888287894 0 0 0
37 1 18.637615608380315 8.37277733285813 5.984289202092554 0 0 0
18 2 18.140493245013722 7.2443239994975706 10.259902593837545 0 0 0
231 2 13.032787313564041 1.5732723087668459 0.7256883899855244 0 0 0
104 2 15.273651081983354 15.172926124187033 9.463458935520864 0 -1 -1
205 1 15.780185160377323 2.495919290918378 2.5600687505599 0 0 0
210 2 17.431104769479436 4.759543561620941 10.216457175637334 0 0 0
186 2 18.1119015327912 6.297810771500661 12.099144014734858 0 0 0
232 1 15.217059521684508 2.6532499576436295 8.409307296171935 0 0 0
354 2 9.855505815191536 2.85173351679843 5.194282032812811 0 0 1
1 1 4.568633905996226 11.781511774985871 1.1116319819938993 0 0 -1
183 2 16.47790384921319 5.401507042205539 6.309096574848037 0 0 0
40 1 21.061573694429864 9.965318582167688 12.934730467861351 0 0 0
207 2 15.670114700211174 3.264767698407068 1.9576839192245463 0 0 0
208 1 17.911913981439476 4.92199341194671 9.415399822637003 0 0 0
279 2 16.54786812705841 6.930879146162715 1.9321146571816248 0 0 0
254 2 15.059975671857528 5.043573423286889 0.25052038106807506 0 0 0
181 1 16.237152429944626 4.573377726326569 5.8998247972507105 0 0 0
182 2 16.09654604852175 4.032319933382834 6.729959658996503 0 0 0
256 1 17.11791569789085 6.575614729170395 7.5505541965853356 0 0 0
255 2 14.302097665877273 3.620071117270635 0.29690296670491 0 0 0
253 1 14.74991096109136 4.327016458931128 0.861655761240028 0 0 0
157 1 14.301064973962692 2.6385549988555237 4.838790755916258 0 0 0
185 2 19.17148278979124 5.28102455954292 12.580170083801924 0 0 0
278 2 16.011759825342903 5.833782029326366 2.8383763178200616 0 0 0
159 2 14.767926423271296 2.616404357082509 3.8776189173747384 0 0 0
16 1 17.342908069657522 7.165745079003864 10.852238439506994 0 0 0
258 2 17.439262965654475 6.2060250844921665 8.382635575329521 0 0 0
370 1 6.5138893701862335 5.141586082549551 8.81384872835117 0 1 1
80 2 8.796728750834133 11.484014565001578 1.590650639362527 0 -1 -1
306 2 15.595840349308547 6.5246167273376185 9.770496183151737 0 0 0
79 1 8.76698734371376 12.257153726445676 2.1917241477738125 0 -1 -1
246 2 9.67461566914279 10.139227968072507 3.9534514857811245 0 0 0
459 2 15.455452769495801 1.3732298347813565 1.104964962854672 0 0 0
300 2 5.90067027254694 3.556052267190449 1.3996715048679005 0 1 1
221 2 5.728909639799709 4.4416698273062 3.9964099162839166 0 -1 0
179 2 6.218902443594768 11.170724374716194 5.518105553613706 0 -1 1
251 2 11.888942601502173 6.2804163956977765 10.899932066780513 0 1 0
139 1 8.628659073246151 6.214531276217973 10.386335086537075 0 -1 1
276 2 6.098485201273752 14.297452313734457 1.7574539474054127 0 -1 1
313 1 5.088561847593719 7.912887014306479 5.23741178722627 0 0 0
252 2 10.521620202448403 5.8087807533787394 10.638736237247015 0 1 0
91 1 4.04505562835613 6.747970419609778 2.045490163064028 0 0 0
195 2 13.514730795175362 3.5820539649118213 6.12757222282271 0 0 0
229 1 12.779845939572795 1.2839288796613884 1.6390079728778808 0 0 0
194 2 12.65821921111624 3.593706129156386 7.493609534983258 0 0 0
193 1 12.828010991450475 4.039049158922703 6.631216637682268 0 0 0
141 2 8.628152719263175 5.271574176894991 10.588534825808138 0 -1 1
234 2 14.380791492271571 2.2186477772876634 8.059847843180368 0 0 0
96 2 13.999442669925239 7.5220443144280855 5.950714778581542 0 0 0
34 1 8.613038773458767 3.6550995434165885 11.207024034146873 0 1 0
380 2 11.298266566183667 1.5531028481221503 4.705045557792699 0 1 0
158 2 13.498241256801178 2.0736049001346415 4.786939098381669 0 0 0
248 2 7.887650706750892 11.165265931607088 3.851451638056812 0 0 0
35 2 9.23740812134513 3.2008348104039293 10.59242430853899 0 1 0
267 2 16.180864960702245 14.262597367361376 6.531047756125822 0 -1 0
266 2 16.525179270040724 13.42640203100141 7.79956998115918 0 -1 0
121 1 5.878965155115847 6.498230676306614 13.0224499252084 0 1 -2
86 2 10.977716407450902 8.142093964022742 12.725649122173209 0 -1 0
226 1 15.385714075550412 10.69633657477519 6.4517182368379595 0 0 1
77 2 12.471836368995625 9.466818016350937 6.5845253441423255 0 0 0
227 2 14.39476235259216 10.7261516621544 6.43184593233613 0 0 1
82 1 11.608223703947402 8.136995930436532 7.257374193959041 0 -1 -1
166 1 19.198285560704118 10.818298497539457 11.047936356148876 0 0 0
228 2 15.727687119958373 11.601573130321492 6.511912681937901 0 0 1
330 2 11.230392718127344 8.147403519042268 3.8260760467831174 0 0 1
154 1 7.172630074564122 11.811039583001918 10.668362726364672 0 0 0
281 2 19.946110623093457 8.278325644244111 9.567711491542907 0 0 0
120 2 17.522577504032967 14.048975343224559 13.372593192128576 0 0 0
176 2 11.159077728122352 16.769482900214715 12.091603997471882 0 -1 -1
294 2 6.827134971480998 12.507143335268918 7.587553366548828 0 0 1
270 2 12.079295790290912 14.758443896863222 6.429331188351425 0 0 -1
118 1 17.008006555220533 13.3284459767384 13.050914681422135 0 0 0
322 1 8.446464173592467 6.23061946639278 12.96057118800769 0 1 -2
238 1 18.039069265183084 10.445531398578156 8.072212118530379 0 0 0
132 2 14.17145104936193 6.3051780949289284 8.108045901005294 0 0 1
196 1 13.070815401676853 12.224910115422366 0.555500885868312 0 -1 0
83 2 12.31915831622825 7.532205753147693 7.5107531266184635 0 -1 -1
290 2 9.077129643568306 7.023922464925889 3.970508387848134 0 0 0
334 1 13.103713101305916 11.83701731454247 8.887180707487932 0 0 0
285 2 18.819497771219144 13.927489314025614 2.0286563821636667 0 0 0
156 2 7.884221802795721 11.293933780514587 11.074882422635506 0 0 0
147 2 12.289844219451963 14.87463382469539 12.269087010987388 0 -1 1
364 1 5.959851024314789 10.908156693041363 3.270082338217767 0 0 1
320 2 9.826493098030486 13.225601685489305 6.589846627437234 0 0 0
344 2 13.663117512256964 13.22983322571122 6.812098994576895 0 0 0
123 2 5.7308333382890515 7.1387086397151425 12.282672022952825 0 1 -2
249 2 8.67742996746506 11.727713728823815 5.096449273817018 0 0 0
230 2 11.851431639146037 0.9538344270687522 1.6607185133802154 0 0 0
27 2 1.601806115250703 3.976105844712518 2.6057374552233967 0 0 0
56 2 14.977584155772748 12.082996669386405 11.881584527248712 0 0 -1
168 2 18.78948707237881 11.760810370723021 11.107045936939915 0 0 0
245 2 9.95313942910445 9.568329687584404 2.426048141649347 0 0 0
145 1 12.567862229048279 14.103720215850869 11.776768548926805 0 -1 1
57 2 13.913605347085092 10.968922685867659 11.62201302957584 0 0 -1
328 1 11.876522877374423 7.41450984871636 3.5933306234616778 0 0 1
199 1 6.457802115619265 8.405978659429332 2.515542396760385 0 0 1
28 1 12.306747245116226 11.028782006620553 4.045351379913452 0 0 1
336 2 12.358389075904867 12.451620584646538 9.052933493446336 0 0 0
366 2 5.037387266304779 10.753037316316203 3.667690549134795 0 0 1
287 2 21.465548255295168 15.49728658873395 8.72726492939662 0 0 0
224 2 5.866756652110062 1.9937349075625217 4.757705356998133 0 1 0
55 1 14.669235675295674 11.255406864606076 12.227618341344087 0 0 -1
216 2 20.752761213703273 12.1159812502591 8.511962176612034 0 0 0
329 2 11.57166465070926 6.5527120908222 4.010980755027933 0 0 1
33 2 9.548380412781274 9.291571188881198 9.72172160815577 0 0 1
312 2 18.799631174058547 14.349992480664195 7.418908515519871 0 0 0
335 2 12.914952347457339 11.502476835212756 7.986378015975102 0 0 0
97 1 13.651616598471898 14.193631905314428 3.698968653764352 0 -2 0
268 1 11.792674706393862 15.701770051095227 6.309750318278006 0 0 -1
98 2 14.24405589418172 14.014263317096098 2.948727109774046 0 -2 0
310 1 18.33899091529847 15.190049427670067 7.480415838638239 0 0 0
273 2 14.518365771945065 12.905659904702262 9.627811494915482 0 -1 0
197 2 13.575685070968095 12.081496298796083 1.399260583858845 0 -1 0
293 2 7.287031198669159 12.693164705654832 9.127438878190551 0 0 1
345 2 13.265296554758423 13.626227262667365 5.361042771291397 0 0 0
319 1 9.42096193711029 13.127566204438885 5.687078149441232 0 0 0
272 2 15.817857215689505 13.40262521473242 10.107444743577 0 -1 0
264 2 19.273689749696906 12.440595873994441 6.502355531929536 0 0 0
142 1 13.273165839965953 9.443589870478272 10.275710446050772 0 0 0
263 2 20.44174542543978 13.456524794517653 6.562658678473906 0 0 0
348 2 4.769091496429881 3.7981659794586884 10.743742756775076 0 1 0
269 2 6.9445233292751025 1.9722351356002996 7.102011557147581 0 1 -1
31 1 9.643975686013437 8.536657155560631 9.123353219722695 0 0 1
215 2 20.34736021388873 11.053729935027155 9.653602217573393 0 0 0
271 1 14.895234203350869 13.539927778753631 10.299661232043826 0 -1 0
262 1 19.799778246210487 12.989722983906944 7.116542519529785 0 0 0
12 2 6.328125537624407 9.048452615356847 8.365127644089856 0 1 0
192 2 21.605671276513966 14.180435206715497 12.997264918997267 0 0 0
214 1 21.0613819582757 11.346980784347858 9.027385550770669 0 0 0
240 2 18.084220010007456 10.538754751639665 7.1031252849737925 0 0 0
321 2 8.806496488668799 13.82510899860965 5.459000283333925 0 0 0
343 1 12.89769719247218 13.342604499672563 6.22712653919532 0 0 0
153 2 9.052603081703632 9.24269806897805 0.17105958520923753 0 -1 0
180 2 5.417870632244329 10.886412693783642 6.814781500162279 0 -1 1
291 2 9.324189584010698 6.931167959480612 2.4616123825007015 0 0 0
173 2 9.816841664477254 10.143837730717953 11.939604250348069 0 -1 1
51 2 12.355643252306661 7.5844714526104715 2.1704552114631745 0 0 -1
200 2 6.360568780209877 9.339504068769697 2.8330896819337297 0 0 1
88 1 10.943057900935928 12.724649425256949 10.034693863388148 0 0 0
198 2 12.697063330680406 13.148971331495703 0.4739223169038593 0 -1 0
84 2 10.966334579505775 8.291225442416888 7.988632582112237 0 -1 -1
152 2 10.352725977985013 10.02260924856254 0.36067668615773396 0 -1 0
311 2 17.944563340414224 15.274359888361047 6.604790891923744 0 0 0
359 2 5.396868238273753 0.47416434836448546 0.43965544772569776 0 1 1
265 1 15.858255080123277 13.483996576597814 7.041992427148323 0 -1 0
54 2 5.63538768816551 8.286347066149276 10.258045821089485 0 2 0
72 2 17.73940328716671 11.98710062769585 9.021699834806345 0 0 0
42 2 20.272173331135555 10.476872799250406 12.581111897064261 0 0 0
177 2 12.400612397934427 16.880647483802957 12.983074633615821 0 -1 -1
190 1 21.10572379570795 13.432193080206575 12.529666649713452 0 0 0
223 1 5.271343957513019 2.4029589253776744 4.0454069330561575 0 1 0
191 2 21.792705604979762 12.874554276208194 12.076437196603855 0 0 0
382 1 19.34704281344458 16.613361264603714 11.674165304612822 0 0 0
19 1 16.674561995304433 12.541649771475312 3.982147781170953 0 0 0
20 2 17.43051805721308 12.603145981366888 3.3360366049072354 0 0 0
21 2 16.006209880049983 11.95219955346213 3.576644902731483 0 0 0
379 1 17.200449964740663 15.227433451098088 5.053061426648021 0 0 0
43 1 21.579836450095222 15.583113641671952 5.997127005857933 0 0 0
381 2 16.97148506608896 14.292522139775121 4.716028386390935 0 0 0
67 1 14.667173121461133 11.058791645944732 2.663956053783106 0 0 0
68 2 13.963521770086246 10.887554154058629 3.328659239989654 0 0 0
69 2 14.908138277720992 10.171990516176885 2.464301143143945 0 0 0
119 2 12.086202251433834 9.08386826937823 0.11885449448313525 0 0 1
146 2 13.320760646818345 14.447559401462312 11.229451363196826 0 -1 1
360 2 9.360425466017004 13.7075294384472 0.9941065718111639 0 0 1
115 1 15.354264383143049 8.91320043469758 8.522965621051853 0 0 0
116 2 14.562962214877217 9.222149537932106 9.02051999953121 0 0 0
365 2 5.657408504961279 11.407880132868891 2.4993595992120943 0 0 1
136 1 11.383536306758003 12.09229667542422 13.144242712289584 0 0 0
144 2 12.541977444327843 9.011709723508902 10.759343905293608 0 0 0
383 2 19.54982070848679 15.799320654082619 11.2082877889665 0 0 0
163 1 16.457900739936772 8.85198702331478 4.358665120569599 0 0 0
286 1 21.89275799736527 14.660137059211035 8.993458220344404 0 0 0
165 2 16.220035039551526 9.622818703691777 4.890236177033033 0 0 0
187 1 18.510572120807993 11.213125700538125 5.520311489205693 0 0 0
188 2 19.088028947601863 10.72032589975053 4.870474498760984 0 0 0
189 2 17.869443810647855 11.75094580208416 4.998590362265915 0 0 0
30 2 11.649474593365765 10.450124535474945 3.7014359482905563 0 0 1
211 1 17.884366198176682 9.969047774879204 2.3089355591118963 0 0 0
213 2 17.262030072055868 9.481861969178293 2.8996240744742767 0 0 0
235 1 15.281803290233798 8.536538167397271 1.3555939529885903 0 0 0
236 2 15.468252985240555 9.026493338938455 0.5729613028730458 0 0 0
78 2 12.619741561216433 10.711209640202487 5.553358581056663 0 0 0
260 2 17.702694371640238 12.474662121526167 0.09331475063838332 0 0 0
10 1 6.804214747264295 8.683692157024918 9.130277379976505 0 1 0
259 1 16.922325881165925 11.920466945428327 0.5000929741270754 0 0 0
117 2 15.464976023824162 9.560204061057092 7.7657009866744335 0 0 0
261 2 17.29037465453612 11.415041541088678 1.2382858356785242 0 0 0
283 1 18.98437502759192 13.093654835825172 2.4452917452811294 0 0 0
347 2 10.723466024931527 16.80782121599796 10.053616514373516 0 0 0
174 2 10.01749360956782 11.29369068252361 10.797108459656783 0 -1 1
307 1 15.555081897453446 13.949931208426213 1.3132781441241133 0 0 0
89 2 11.443121731143455 13.392169947841646 10.60067258148037 0 0 0
309 2 10.008704280939872 0.21339588028645795 0.5233842734225618 0 1 0
29 2 11.936351434818052 11.944067421965478 3.909981050455227 0 0 1
49 1 12.753939891306883 7.744432476487069 1.199899369845831 0 0 -1
175 1 11.539547263905222 16.39574966332617 12.975228169048703 0 -1 -1
326 2 8.670788614990487 13.92826190832237 8.043836129657842 0 0 -1
358 1 4.416700746143983 0.23124472620738082 0.3532142112802801 0 1 1
289 1 8.63102353195502 6.779110831539499 3.1182530312431593 0 0 0
22 1 19.712346519920352 14.122078766519428 10.227754487524589 0 0 0
23 2 20.545702070256535 14.186492767750014 9.64625027283629 0 0 0
24 2 20.055683478756634 13.751250126170719 11.054661768691416 0 0 0
143 2 12.858434140735145 10.141293249141054 9.71446865000531 0 0 0
46 1 23.885982021488292 17.000572160511542 12.746360408653548 0 0 0
70 1 17.48219662749153 12.873055227334623 9.23259975606604 0 0 0
71 2 18.228178779109026 13.462487458249017 9.301095484244556 0 0 0
325 1 9.63695938399091 14.072580954055589 8.027719337544838 0 0 -1
130 1 13.627183580580358 6.532643681017683 7.308163683632809 0 0 1
151 1 9.421932220551268 9.939769644307509 0.7236658667033212 0 -1 0
201 2 7.269430048455293 7.9625760481749985 2.693808184826352 0 0 1
323 2 7.49506833639597 6.371417150464634 13.13573387793718 0 1 -2
131 2 13.290119105121622 5.653831688994916 7.019826232103927 0 0 1
76 1 12.794933792182462 10.401733429484118 6.446566173142425 0 0 0
327 2 9.799027498623218 15.037025231259104 7.9686588537013465 0 0 -1
32 2 9.54261437509092 7.718970200481469 9.620226344960049 0 0 1
728 2 20.517918282070664 13.404514384318611 3.4044111521789664 0 0 0
243 2 9.744035002573261 12.88261909321952 12.644873796352476 0 1 0
367 1 4.481540277759951 6.366160948376573 7.501709764466272 0 1 -1
99 2 12.789541163726266 14.189996392349567 3.2239501871200376 0 -2 0
384 2 18.97795088306073 16.31383214757459 12.544848703955127 0 0 0
212 2 18.71539439669935 10.01871028561222 2.804260812463843 0 0 0
339 2 7.315375758118407 15.822537318855323 7.521018613860771 0 -1 0
178 1 5.834405897885273 11.578812429511428 6.291788957454015 0 -1 1
314 2 5.849559756131833 8.245130331764951 5.74336960182379 0 0 0
369 2 4.048987592106781 5.542241546161022 7.240968524069388 0 1 -1
41 2 21.75297204865765 10.548186066973498 13.229748653764783 0 0 0
2 2 5.187262331897505 12.24894897647198 0.542366645233819 0 0 -1
90 2 10.313531941676532 13.19484864145102 9.41026859150795 0 0 0
44 2 15.611490546091312 1.7977813398318774 5.645707521473291 0 1 0
308 2 15.854829494993941 13.095773774088228 0.9816087717650952 0 0 0
137 2 6.224240812863342 8.574619253906189 0.5208851935364779 0 0 1
108 2 3.8233060249493667 1.389172992559165 4.23844371232065 0 1 0
378 2 16.041420316840846 10.251498318876079 11.287967290602815 0 0 0
36 2 9.060428601441817 3.6357732830370786 12.065814515770988 0 1 0
169 1 3.7504003188136794 4.211378107988671 5.839594391054511 0 -1 0
171 2 3.600213028076447 4.982222403655199 5.239090207621032 0 -1 0
172 1 9.41083164855313 10.591131671790087 11.180037435687902 0 -1 1
138 2 11.996041376695883 12.775451784147151 12.840643068326235 0 0 0
95 2 13.208846461727918 7.967142221852754 4.65795022293965 0 0 0
237 2 14.3447031187866 8.148560547358748 1.255949742850331 0 0 0
167 2 18.302304584293303 10.346709244634312 10.871460891826695 0 0 0
275 2 6.148765619417006 13.68725214811548 3.1698546607733773 0 -1 1
465 2 17.80168959360435 8.783593136586953 0.9434551438459474 0 0 0
209 2 17.840905999458258 4.14855871655781 8.821973442267861 0 0 0
45 2 21.846588722888963 15.052441955614487 5.209212024503395 0 0 0
3 2 4.130220311994166 11.132271357959059 0.4538806970496941 0 0 -1
25 1 1.7898759632926762 4.361898613364708 1.71760767224122 0 0 0
509 2 19.50512245635193 4.924361151940783 10.290930349853777 0 0 0
242 2 8.568575845968546 13.83750344013269 12.105023533009732 0 1 0
317 2 2.012790300956234 2.6527767553779906 4.495658544320809 0 0 0
133 1 7.972396899122898 15.19099163941778 10.964815675169051 0 -1 0
337 1 2.8103722832028932 2.2805302255696023 7.918191579533886 0 0 0
467 2 20.759058112385496 10.225578156550334 7.798996629357991 0 0 0
338 2 3.229583602556785 2.6435180850009807 7.10859009803085 0 0 0
723 2 18.15986387207149 6.2748770537679 3.388267788693327 0 0 0
292 1 7.223728389842802 13.126403110611536 8.226809703589376 0 0 1
155 2 6.463663556461989 11.244363650276526 10.438112489831711 0 0 0
468 2 20.164007739891908 9.24806388834537 6.680675640166865 0 0 0
126 2 7.690547353622429 12.092705182403746 13.529439182429005 0 -1 0
732 2 23.286271171440116 15.196872333420105 10.181828845247356 0 0 0
507 2 17.342334631955495 3.914365961639146 4.39507602822746 0 0 0
47 2 24.17696165105159 16.402538389324935 12.04041252542507 0 0 0
385 1 22.040268572702406 5.232723617156777 3.7382321747208618 0 0 0
386 2 21.76069898943493 6.111867177118168 4.089753920531771 0 0 0
387 2 21.256084760758196 4.793897014157539 3.302094753537554 0 0 0
409 1 26.341775587501555 8.227587899504288 6.2656753536975245 0 0 0
483 2 19.2143719098548 3.924067947767655 6.498259172767572 0 0 0
508 1 20.287422095261427 4.8693487395829855 10.842452270027078 0 0 0
692 2 31.217192011104604 14.482241149226196 1.9063200586776787 0 0 0
433 1 19.983697592748214 4.049578221028873 2.647498260138649 0 0 0
434 2 20.346747537495958 3.1690553632659224 2.4013659192728656 0 0 0
435 2 19.51741772373036 4.46719146658954 1.88595977946462 0 0 0
602 2 20.720510105775926 0.8737496373853253 1.8321896688007584 0 0 0
670 1 36.87023492925987 14.914785547081275 9.645795009413138 0 0 0
677 2 22.304143196252387 8.792340122451533 7.9285810706937445 0 0 0
481 1 19.941600342367433 4.212198580612632 5.939231091161321 0 0 0
482 2 19.510151759894466 4.854283172098981 5.2942648942905945 0 0 0
650 2 24.84460604788424 6.498583976179383 3.242030017017919 0 0 0
52 1 36.18594943009956 8.097853726456469 10.998486135953659 -1 2 0
506 2 18.62807163474082 3.4949573780513417 3.540894007652496 0 0 0
529 1 21.59932523113871 2.2979834847493277 4.8344849604275995 0 0 0
530 2 20.99263953080041 3.060476245406318 5.169345958457618 0 0 0
531 2 21.912571295216775 2.6297816678173285 3.907535253028045 0 0 0
553 1 23.59194285867426 4.69567526925798 6.238128666349585 0 0 0
554 2 22.94585125118278 5.057892907083206 5.5737038402582435 0 0 0
745 1 22.019946793956418 7.610013604198255 4.946195785116466 0 0 0
577 1 23.129754575184194 2.8719329519428456 2.60459722233666 0 0 0
579 2 23.05242843659351 3.7505189124862532 2.111634215482779 0 0 0
601 1 20.197537471829094 1.5630350753175066 1.5050498227022957 0 0 0
666 2 34.72067155797182 8.026139657174184 10.096882718487425 0 0 0
603 2 20.69441498663941 1.890529915522704 0.7085797607503298 0 0 0
410 2 27.03344564645981 8.784304553018773 6.602426891935407 0 0 0
625 1 22.046846714096795 4.740209249147792 0.6528073549907766 0 0 0
627 2 21.390725167925876 5.406445597590245 0.9194470254598995 0 0 0
649 1 24.08599548550931 6.262526653915686 2.5778633335774988 0 0 0
578 2 23.12246871252845 2.1559784122336985 1.9380176095122303 0 0 0
651 2 23.349511484253224 6.034174562109257 3.1125233342356857 0 0 0
673 1 20.392588706182316 6.761764400331234 1.397747981490659 0 0 0
470 2 23.83292929390112 0.37764286516507767 1.0248899400492815 0 0 0
675 2 20.463663745721817 6.6994498027793545 2.403011044883565 0 0 0
697 1 18.31884964880147 4.754446161676633 0.612073047035735 0 0 0
593 2 32.43911178338482 4.37149470385141 10.123092496459591 0 0 0
669 2 34.51166844603382 12.622274494679253 1.8249484323444884 0 0 0
746 2 21.8234218280591 7.6037229944856835 5.877161668255043 0 0 0
721 1 18.976228793436974 6.28340828072036 3.9332155703902423 0 0 0
626 2 22.745755244741115 5.3396225499244085 0.29314759013605723 0 0 0
753 2 25.306147977357412 15.383318272360986 5.018755034431458 0 0 0
411 2 25.96349769527422 7.641703012731272 6.972745410951852 0 0 0
678 2 22.742750773411178 8.510059056370798 9.311282355040507 0 0 0
388 1 24.610368385509 7.099434012331714 10.626311943224488 0 0 0
389 2 24.382341247698236 7.912704509969823 11.114168726360528 0 0 0
390 2 25.326660547950805 6.745378017988326 11.242203362414497 0 0 0
412 1 28.74330969333914 10.049211063656044 12.97731012066578 0 0 0
767 2 34.03863264897836 16.40408809738193 12.797067228067286 0 0 0
436 1 22.651687094472557 5.344801895718844 9.43913662761388 0 0 0
437 2 21.804239947378335 5.213773241383453 10.001992230339571 0 0 0
438 2 23.311978762458697 5.79510353724723 9.958974457443142 0 0 0
671 2 37.15376794679991 14.2916839408093 8.92687225642943 0 0 0
654 2 27.411078214324565 8.234351951921536 9.864733650089137 0 0 0
748 1 24.30726686775151 9.689648223155091 11.866265617764 0 0 0
485 2 23.06573397510918 6.938454411259352 13.151080510700808 0 0 0
484 1 22.796452340351024 6.193686742952275 12.582755105014604 0 0 0
202 1 33.80294790070911 6.525395264886553 4.11835295181099 -1 1 0
510 2 20.43284464976168 3.9685190412191775 11.083521420788596 0 0 0
558 2 26.85319187362819 7.0760072117586486 13.048956263296855 0 0 0
532 1 23.87771323291899 3.8197919648556447 11.699533671090748 0 0 0
533 2 23.488531355631135 4.62436317868161 11.999177832233427 0 0 0
756 2 27.54971712098637 16.759746794196648 11.935776051170945 0 0 0
556 1 26.51868452906522 6.321691389401768 12.489697334588309 0 0 0
557 2 27.290490184630286 5.915535950623785 12.065649879459238 0 0 0
580 1 25.543158471430463 4.4150491995625565 9.516767619533445 0 0 0
581 2 24.944026770397624 4.128277802398057 10.267152721268728 0 0 0
582 2 25.00756796363648 5.096099504843402 9.097472166768357 0 0 0
630 2 24.25651394418102 5.890833978450152 7.162062829363358 0 0 0
604 1 22.911258166840156 3.113502858361706 8.080766672383282 0 0 0