LAMMPS data file via write_data, version 8 Apr 2021, timestep = 500000

384 atoms
2 atom types

0.04904846776169759 15.021049532237772 xlo xhi
0.016476147790687096 14.153756852208634 ylo yhi
0.09417575193622543 13.611547248064516 zlo zhi
5.117120371689069 5.0884813315606605 3.599588936245211 xy xz yz

Masses

1 16
2 2

Atoms # atomic

1 1 7.433459856084053 5.305383379962982 4.142653951493808 0 0 0
2 2 7.105922881611128 6.201092259463773 4.5904685610912095 0 0 0
3 2 6.68997662504573 4.996753780529203 3.6036270989937025 0 0 0
4 1 10.108235668748714 6.876170975438804 10.779130562361683 0 0 0
5 2 9.89546706810049 7.7688575109647 11.079192932998797 0 0 0
6 2 10.449877998264434 6.4427610997739375 11.554703135436522 0 0 0
7 1 9.902816618663946 12.40064335052848 3.9387498048296457 0 0 0
8 2 10.413548468705745 11.958930110832057 4.656033716566927 0 0 0
9 2 9.95056577155552 13.324692415258228 4.153458993480146 0 0 0
10 1 12.507096344367323 14.080575214596028 10.78552082317885 0 0 0
11 2 13.190229015681483 14.207536715914836 10.044730219915222 0 0 0
12 2 11.829221979011475 13.59251514962451 10.25966857408864 0 0 0
25 1 11.604233107655773 8.126678738331584 6.087746015347152 0 0 0
30 2 14.668284002431516 10.432841652636041 13.01045156557047 0 0 0
27 2 11.190663518062742 7.426079871990996 6.641998070328576 0 0 0
28 1 13.976377551387017 9.755739300520112 12.940739603114336 0 0 0
29 2 13.187986647210758 10.188759502585983 12.551152543642115 0 0 0
79 1 3.6255569277346917 8.068421018797274 0.9256642024898902 0 0 0
31 1 14.246851468305021 14.976273735882453 6.093025041997459 0 0 0
315 2 2.7187595105828914 4.951750377686308 1.3198535136488436 0 0 0
33 2 13.585865583661883 15.648749629142143 6.0773861781478 0 0 0
34 1 16.47262287507929 16.86812315473729 13.31831917929316 0 0 0
344 2 6.067530949929396 13.176597969175353 4.092598295591747 0 0 0
372 2 13.087397760661535 16.801557619737086 12.081679859483188 0 0 0
49 1 5.196350637128994 4.113021727555282 3.007115768156479 0 0 0
50 2 5.204088598556902 3.1850787979349935 2.960153659344508 0 0 0
51 2 4.695276773993203 4.4002859703470785 2.2115098479326503 0 0 0
52 1 8.021557500926576 5.58731425305205 9.428723193891717 0 0 0
53 2 7.300022356323512 5.439887366151427 10.074801642003726 0 0 0
54 2 8.820815807899553 6.0187984938552335 9.892321589434763 0 0 0
55 1 7.699454299397011 10.754094458488066 2.9448462038725642 0 0 0
56 2 8.120179133701372 9.958996728746133 2.587003223062875 0 0 0
57 2 8.43085767302182 11.311527665161282 3.2242296389708907 0 0 0
58 1 10.074400444073637 12.416957331169334 9.591974745195344 0 0 0
59 2 9.591949181121096 12.842894758948527 8.822921045681275 0 0 0
60 2 10.377780802196302 11.559409388375485 9.27983086293065 0 0 0
77 2 2.8363449075294658 2.05113465821065 7.0671620148916645 0 0 0
74 2 7.035442439293112 14.158343459174118 0.9950699405112365 0 -1 0
371 2 12.374456956359735 15.564805366940078 11.523284668404125 0 0 0
76 1 3.647303075260547 2.510912687569176 7.400219263850357 0 0 0
265 1 9.439513096447543 6.0495835364281865 2.5890257337849545 0 0 0
78 2 9.463003465840073 16.0849298981771 7.808156512770838 0 -1 0
73 1 1.2052142234676124 0.5471352625242001 0.5454335129399437 0 0 0
80 2 4.457537925529212 7.584448539380288 1.2350079395238414 0 0 0
366 2 8.919328789112933 10.088768447186439 11.746868532382937 0 0 0
82 1 6.265749519879024 9.927261461936148 7.62553132041267 0 0 0
370 1 12.256217404969947 16.309832415518684 12.156812598278144 0 0 0
368 2 3.9359996727970716 1.4634533969893222 5.010635795167494 0 1 0
97 1 5.236676628852234 4.342042039744928 6.245042313870088 0 0 0
98 2 4.810759741504939 4.917901337967371 5.593174278545751 0 0 0
99 2 4.546539675926248 3.688592775280629 6.655723956042205 0 0 0
100 1 7.710132639724018 5.945823210471575 12.740932375123519 0 0 0
101 2 8.127958298160756 6.392126657182428 13.502639475770643 0 0 0
102 2 7.186248648907686 5.2255849874475535 13.106150393969623 0 0 0
103 1 7.8875979378670165 11.419882299547476 6.107020316279143 0 0 0
104 2 7.198746863966425 10.810611457820512 6.472231025214634 0 0 0
105 2 7.4995673646758085 11.937205661068605 5.342002324738853 0 0 0
106 1 10.516227033654145 12.860589924564792 12.600631805708618 0 0 0
107 2 10.982975079024166 13.54441956230102 13.235291626906813 0 0 0
108 2 9.726921116327437 12.436158181306212 13.143716061267051 0 0 0
121 1 2.839798642509962 3.042271863060721 4.352366023704052 0 0 0
122 2 3.4982895258813995 3.6979179346016138 4.100687898636082 0 0 0
369 2 10.519358877240144 15.340954718157668 5.151073039152055 0 0 0
124 1 5.95551527004809 4.473781699213061 10.85558559496293 0 0 0
363 2 7.63511322990196 8.113270656029032 5.452567293586372 0 0 0
126 2 6.142585328088406 3.5392091902937746 11.225166300061517 0 0 0
127 1 5.643631291610941 10.316785082754599 4.495501490641575 0 0 0
128 2 5.729744754731178 9.345773309938107 4.762916004742355 0 0 0
129 2 6.502756507038741 10.582927678971757 4.07695248638195 0 0 0
130 1 8.254113079373385 11.541192790571877 11.33376992829209 0 0 0
36 2 16.61953706454301 16.492201968182684 12.385169974085759 0 0 0
132 2 8.91239839895262 11.850502561880074 10.6797842340821 0 0 0
145 1 6.867871272497289 2.263319633303208 5.139347067684557 0 0 0
146 2 6.52919841004569 3.0782672838099354 5.617797733983925 0 0 0
147 2 7.185614671777845 2.5273917012188805 4.232313629665139 0 0 0
148 1 9.404448756740221 3.963646875378714 11.865296736790171 0 0 0
149 2 8.988470973833792 4.774416097735952 12.18727026854624 0 0 0
150 2 9.95961066704601 3.6870852124256324 12.595237401673861 0 0 0
151 1 9.21674132397814 8.819904188307286 5.186834383930125 0 0 0
152 2 9.068187545673558 9.75598525613481 5.426728201477881 0 0 0
153 2 10.120579412559522 8.62135370466285 5.540067428337336 0 0 0
154 1 11.9170309314799 10.666662319550653 11.741533850121135 0 0 0
155 2 11.52840375327483 11.566147840369764 11.904182701433362 0 0 0
156 2 12.410292092931458 10.816005115311816 10.941489027041357 0 0 0
169 1 9.141412767465006 4.342931366122065 5.993016428497766 0 0 0
170 2 8.450284652191526 4.685664890456713 5.412894480474685 0 0 0
171 2 8.83387062467616 3.767657140299123 6.667150205025665 0 0 0
172 1 11.11176108560081 5.965710371348029 13.042323738964262 0 0 0
173 2 11.847127129205834 5.469531956764104 12.66788571993279 0 0 0
174 2 11.579044776968459 6.740885600008808 13.363746902559233 0 0 0
175 1 11.57624045893869 11.530922448171584 5.963453766111328 0 0 0
176 2 11.364493113163316 10.985706003617956 6.727347100182287 0 0 0
177 2 12.170424401839831 11.062015156523454 5.340002522721498 0 0 0
178 1 14.25524977051865 13.111097594429856 13.032490975611235 0 0 0
179 2 13.628397564857657 13.494985831008206 12.423491310216518 0 0 0
180 2 14.815359931508242 12.598393176643748 12.457101461022338 0 0 0
193 1 8.26958853484281 2.604036308282084 2.672733762335647 0 0 0
365 2 10.207626261723052 9.462596651390115 12.34404763933924 0 0 0
195 2 8.09733953131442 3.4554609621433885 2.2562948443495827 0 0 0
196 1 10.801683969271615 4.36002736576465 9.33743179133011 0 0 0
197 2 10.219360432775256 4.309241547744274 10.089037444920557 0 0 0
198 2 10.607264176017013 5.227371053184494 8.95811970384349 0 0 0
199 1 11.005529142095947 9.499538422561177 2.9083240388105844 0 0 0
200 2 10.776584918607586 10.333739952555803 2.3444507636176404 0 0 0
201 2 10.220083750613334 9.250490579800246 3.387758296914991 0 0 0
202 1 13.19512348589544 11.331244344251795 9.578237858373999 0 0 0
203 2 12.910651082251665 12.046229947420967 9.04967774578122 0 0 0
26 2 12.300453651802266 8.526690262371691 6.611693533980166 0 0 0
217 1 5.281335642118895 1.3208710696249057 2.007766075105116 0 0 0
218 2 6.013754300222193 0.7130801113830254 2.189060664480102 0 0 0
219 2 5.53526364802402 1.7197931448783381 1.104318606494427 0 0 0
220 1 8.312023807435732 2.9908447378663143 8.22660477364889 0 0 0
221 2 8.206068564050563 3.8787050317726846 8.679704910655243 0 0 0
222 2 7.427881575492636 2.559301620420136 8.419519782849697 0 0 0
223 1 8.203958149781377 8.409057148746385 1.7453024267824186 0 0 0
224 2 8.677024433081927 7.478772540885474 1.971192647164939 0 0 0
225 2 8.389630239935332 8.724269845853595 0.9020187224185895 0 0 0
226 1 10.800544383225922 9.908045465638242 8.545243365411414 0 0 0
227 2 11.34296056881257 9.129778589785214 8.809308282592538 0 0 0
228 2 9.905836211678897 9.575299702690556 8.62891771235558 0 0 0
241 1 7.405096549769505 4.5092498718711855 0.7956492980530733 0 0 0
242 2 7.982263046408396 5.213600117519706 0.40329714876778794 0 0 0
243 2 6.639125877076714 4.994430610262315 1.1512665870101693 0 0 0
244 1 10.18032018978644 6.503846977542142 7.608633259884609 0 0 0
245 2 9.5163014177159 7.191733351540888 7.918167445397309 0 0 0
246 2 9.851813041742705 5.866629566613875 6.922978760664653 0 0 0
247 1 10.017963037217413 11.491607033614358 1.2713133059997495 0 0 0
248 2 10.756395829766674 11.883568981743759 0.7875407809862329 0 0 0
249 2 9.649338667363697 10.874901615608389 0.5907897739000936 0 0 0
250 1 12.45438346657812 13.697798118481897 7.711932956163529 0 0 0
251 2 13.270466396354037 14.095901234264394 7.313497742326991 0 0 0
252 2 11.973523175119425 13.136836088514556 7.048096776370358 0 0 0
204 2 13.145079762899027 10.6159529541205 8.918261175376664 0 0 0
285 2 5.411395564041497 12.292496463201287 2.014187585377882 1 0 0
267 2 8.647499762430284 5.893533401999591 3.133821068210096 0 0 0
268 1 12.372441942353541 7.947074120944045 9.4796757650169 0 0 0
269 2 11.670642993763735 7.373110996268721 9.877467391216195 0 0 0
35 2 12.180962279364348 13.699902865983896 0.19615240355125171 0 0 1
194 2 8.495792292971943 1.9326938542245724 1.9578366363432829 0 0 0
272 2 11.46368381325486 12.503606624365585 2.939072724451199 0 0 0
75 2 0.9209229946422689 1.1172823575724713 1.2865815969015848 0 0 0
274 1 14.687261549326871 14.70367132307192 9.475562660093026 0 0 0
275 2 14.60216945540805 15.568305859231637 9.006296837211318 0 0 0
271 1 12.161335300341467 13.051816012084442 2.501535897903687 0 0 0
289 1 5.822292884367108 7.004521521824736 1.8376003823608658 0 0 0
290 2 6.569386675087261 7.622270709715559 1.8963699527124762 0 0 0
291 2 5.454354652879035 6.954577360761401 2.736310010453067 0 0 0
292 1 8.535772154479423 8.366217065401646 8.737960022652778 0 0 0
293 2 7.828386858146535 8.732939912863847 8.15472597304301 0 0 0
294 2 8.093931867076064 8.421388979287748 9.62661767454002 0 0 0
295 1 8.430806845864122 13.74013067508026 1.8802100835074715 0 0 0
296 2 9.026831002178046 12.952140992165145 1.7883242634204048 0 0 0
297 2 9.02439914315388 14.469986789398556 2.1414065688624273 0 0 0
298 1 10.924103642154861 15.696820129298288 8.701530994477906 0 0 0
299 2 10.657534777101853 15.501523858042718 9.642120918044158 0 0 0
300 2 11.418828649983631 14.901225853518486 8.4241567201312 0 0 0
313 1 3.32282629517372 4.3509563297023375 0.861326277094908 0 0 0
314 2 8.792509935988488 8.389283568595909 13.593467305702394 0 0 -1
48 2 10.190569282762514 17.404560312577928 13.31084741818317 1 0 0
316 1 6.341663799082647 6.301405233305801 7.453793079920651 0 0 0
317 2 5.922427298073596 5.506682783396806 7.095924187412617 0 0 0
318 2 7.0382841059579215 5.949403539675903 7.984483510203808 0 0 0
319 1 6.28904323712637 11.4719160958804 0.9259723078237436 0 0 0
320 2 6.9970470710491455 11.270738246586683 1.5831509487997368 0 0 0
321 2 6.667765607725183 12.091039844784676 0.25195139983140447 0 0 0
322 1 8.905829044780281 13.44121750818516 7.538863376095336 0 0 0
323 2 9.314868942421871 14.019848263223547 6.891103214118288 0 0 0
324 2 8.44912335003406 12.748913255285716 6.9352093872766485 0 0 0
337 1 4.3699432841527015 6.59682014688874 4.127455834784862 0 0 0
131 2 7.501226281277559 11.333716858411634 10.81155290698957 0 0 0
125 2 5.134163547729986 4.269489910451072 10.315745908827493 0 0 0
340 1 6.916062322894784 8.17160539500925 10.974978658313375 0 0 0
364 1 9.316074545727249 9.224988053869533 12.074431441854507 0 0 0
342 2 7.087609860504162 7.342722688147768 11.483532685343057 0 0 0
343 1 6.937434097513191 13.342094712843403 4.430441209879139 0 0 0
367 1 9.656412001504462 14.905872004598036 5.2724898679687895 0 0 0
345 2 7.514892629155228 13.276345534951268 3.6331929280377873 0 0 0
346 1 9.557346248052136 15.031654643105153 11.127014371272914 0 0 0
347 2 9.833673124012583 14.182505680507619 11.503291004093073 0 0 0
47 2 9.606270592003577 16.269811122961357 12.270218999089742 1 0 0
361 1 6.745206109932 7.725259404692668 5.252084832140303 0 0 0
362 2 6.431567413853397 7.270878625787184 6.04249485773466 0 0 0
341 2 6.942192532448283 8.951712514483734 11.589721781256634 0 0 0
338 2 4.2412177686249874 7.164530358628858 4.904859141141142 0 0 0
273 2 13.005851293368012 13.131528646590509 3.0366463156719723 0 0 0
348 2 8.89791846692085 14.795333323828778 10.469060351849576 0 0 0
270 2 13.120690391689706 8.092378621117097 10.097186732757743 0 0 0
288 2 7.78476016020121 14.712508721129431 8.55230151845629 1 0 0
84 2 5.61292006759387 9.234966362657204 7.379694009811612 0 0 0
266 2 10.230963820678957 6.186987867579176 3.1404948634514924 0 0 0
339 2 3.419206817394394 6.417972629696884 3.763377609736992 0 0 0
282 2 5.3145925878029665 7.4357692122618735 8.842492771474738 1 0 0
360 2 15.848628216833475 15.219653675151955 10.760845121518575 0 0 0
13 1 14.831403161575462 5.167303491387813 3.9878088646416234 0 0 0
14 2 14.098252589913592 4.608206358428608 3.7279161815817035 0 0 0
15 2 15.177549467414032 4.7571444246022585 4.8225491051551606 0 0 0
16 1 17.564216289933416 7.147803047424732 10.752637394782717 0 0 0
17 2 16.863353985871356 6.609798400900555 10.345738777366142 0 0 0
18 2 18.370537830187082 7.098658863403715 10.137367290393694 0 0 0
19 1 17.548962410013345 12.462696700803589 4.149026588193083 0 0 0
20 2 18.275258946523184 12.536644601746714 3.533549336466368 0 0 0
21 2 16.775152539567625 12.003013543239913 3.7854672296708185 0 0 0
22 1 19.79249532689607 13.950244190619202 10.769419181395818 0 0 0
23 2 20.427102139784022 14.169750230997243 10.09273710849748 0 0 0
24 2 20.38299210103523 13.745542427489806 11.509181900244599 0 0 0
37 1 19.064555096864428 8.330164700651467 6.499903562249135 0 0 0
38 2 18.272829110139067 8.78090343378205 6.082461274838963 0 0 0
39 2 18.586487064926143 7.561847385737088 6.867638694216767 0 0 0
40 1 21.743631958247764 9.911188101888449 13.23268620454679 0 0 0
209 2 18.389475491828012 3.7305558654400617 8.904052647105248 0 0 0
42 2 20.979550121567865 10.512420432189439 12.922208822326919 0 0 0
144 2 15.07430254184057 11.695215026400357 10.311813962992485 0 0 0
44 2 15.76821061437376 1.7117751628455702 5.955346829651253 0 1 0
384 2 19.64707148498656 15.632771264534824 11.433313428648697 0 0 0
46 1 24.357719169524046 16.958907768495422 12.875899392253613 0 0 0
383 2 19.351249979859617 16.162749343924318 12.7742906634617 0 0 0
89 2 10.881150440874693 3.088242346413924 7.962646650681617 0 0 0
61 1 12.532170924314084 3.5931384344808635 2.7989379754135792 0 0 0
62 2 11.680361004552992 3.295414265726393 3.269200410454278 0 0 0
63 2 12.211238979973265 4.134327846637814 2.0806658422945383 0 0 0
64 1 15.222747734437084 5.652998062060472 9.775211362306184 0 0 0
65 2 14.671019128345778 5.8783382518500655 8.995928202396078 0 0 0
66 2 14.566823693242293 5.500755206464853 10.477224349136208 0 0 0
67 1 15.637379714352495 10.986959168077421 2.9629814021314917 0 0 0
68 2 15.740495104657361 10.006877102724253 2.8343491728811614 0 0 0
69 2 14.868606556691397 10.894810994475398 3.5527290377227674 0 0 0
70 1 17.89781012228743 12.497191694947738 9.82480866014063 0 0 0
71 2 18.678906595204225 12.98709625562319 10.101502270761346 0 0 0
72 2 18.059472919384024 11.732702016343412 9.218153519667176 0 0 0
353 2 14.3640300911517 8.708095413448937 11.781964760602675 0 0 0
86 2 9.479029500168888 0.3249156636391687 0.9804745736502711 0 0 0
87 2 14.390720719787536 5.062976057035132 13.549425339506756 0 0 -1
88 1 11.151739040643976 2.360893426928573 7.3606451283305026 0 0 0
382 1 19.654192110285752 16.49689800428854 11.882947568790593 0 0 0
90 2 12.066986927535774 2.140865600182404 7.73746596911339 0 0 0
91 1 11.26335630983199 7.861636863258963 0.7147487827000286 0 0 0
92 2 12.127265092650894 7.517618039709849 0.9069174182853738 0 0 0
381 2 17.128091550145605 13.996948753795499 4.627058284575208 0 0 0
94 1 13.549842567230318 9.65559052278994 7.387566003001374 0 0 0
95 2 14.27732504161258 9.065026688978435 7.63570477476584 0 0 0
96 2 14.106155741866042 10.344520170352908 6.908678784909846 0 0 0
109 1 12.598022113294522 4.215597539266415 5.908065006072319 0 0 0
110 2 12.193313598924972 3.83808023779346 6.682742119677428 0 0 0
111 2 13.106216134410452 3.4615635412316346 5.5607359055420185 0 0 0
112 1 15.55902573726113 5.912057158904211 12.610911615168094 0 0 0
113 2 16.178464488683275 5.24045247379644 12.277150403482029 0 0 0
114 2 16.071756927271995 6.586334465840529 13.079565339712397 0 0 0
115 1 15.450331313161401 11.23154978908694 6.155524660591263 0 0 0
116 2 15.164446576697316 11.848201679435169 5.473701752629166 0 0 0
117 2 15.83277511070038 11.797117310788565 6.818499789062755 0 0 0
118 1 17.625240513195298 13.346383294393943 12.71218626373913 0 0 0
119 2 18.050984382944186 13.893974502003752 13.387226198321644 0 0 0
120 2 16.850951403652232 12.843616060065196 13.214739095161498 0 0 0
133 1 10.538040057201393 2.879155348423167 4.230752253739901 0 0 0
329 2 13.102040829806386 6.726992040203798 8.12826407653126 0 0 0
356 2 14.376074085767689 14.038022558738643 4.6130114940970826 0 0 0
136 1 13.049944530107673 4.514729275315461 11.07227496328139 0 0 0
137 2 13.528637836241245 3.7644542934781735 11.379950089508366 0 0 0
276 2 15.211477950201672 14.093020930558318 8.872752733309705 0 0 0
139 1 13.237675646128551 10.281090467025399 4.225221113530643 0 0 0
140 2 13.703917077556284 9.546770067779155 4.652580752172358 0 0 0
375 2 14.332627724299227 7.2922146482234265 5.973397847997609 0 0 0
142 1 15.730663072349783 11.8225401375116 11.014939543979681 0 0 0
143 2 16.597047391607813 12.142319285728538 10.658804462108039 0 0 0
374 2 14.517346449482739 6.943061173988043 4.538215632010979 0 0 0
157 1 14.438782368998405 2.124084648732656 4.913072730740314 0 0 0
158 2 13.702855328224866 1.475438964345689 4.944045396221939 0 0 0
159 2 14.711590141988397 2.2303375927693514 3.972218034856666 0 0 0
160 1 16.986042786630378 3.7716603972726452 11.564105393028521 0 0 0
161 2 16.326999799769954 3.1006150091347524 11.530772998671976 0 0 0
162 2 17.78620616073926 3.423147136238836 12.055447466841931 0 0 0
163 1 16.97198343131091 9.158915564673173 4.92171491368296 0 0 0
164 2 16.28955964759104 8.44171786887475 4.847732321398715 0 0 0
165 2 16.379515865134522 9.908538454868028 5.235386050363723 0 0 0
166 1 19.479642184009034 11.182451948458198 12.186511290870289 0 0 0
167 2 18.755943062631946 10.53090589069904 12.162675953644651 0 0 0
168 2 19.06815683337301 12.029569077292933 12.34319837824494 0 0 0
181 1 16.362953381412737 4.4791888426424356 6.118272408376265 0 0 0
182 2 16.232143084148706 3.7266733152039047 6.710152440504301 0 0 0
183 2 16.94423803588004 5.0709567590606754 6.600969768505053 0 0 0
184 1 19.23863119083538 5.880196227474407 12.74188591481383 0 0 0
185 2 19.82425340088325 5.210100927443719 12.335997031251797 0 0 0
186 2 18.657460439079266 6.23979995605737 12.005711646106283 0 0 0
187 1 18.872900896981818 11.606413406983958 6.302004886873892 0 0 0
188 2 19.732394023919333 11.228942294316042 5.9613125998282905 0 0 0
189 2 18.49439029147284 12.00894910155013 5.45234701810316 0 0 0
190 1 21.487786600214534 13.319665870577039 12.722342532582235 0 0 0
191 2 22.204963143606207 12.706490687011758 12.363726941075122 0 0 0
192 2 21.87653310186831 14.031018633353861 13.303627535220443 0 0 0
205 1 15.780414700627947 2.45771741524513 2.532954031640441 0 0 0
212 2 19.231903776843712 10.024346685464291 3.2369609244157918 0 0 0
207 2 15.404947322025631 3.260097437319918 1.9827699465101565 0 0 0
208 1 18.362603427079446 4.559149343364954 9.399751693919413 0 0 0
373 1 14.498178663522344 7.729841817884856 5.098244563024995 0 0 0
210 2 17.67269650478795 4.278012352177481 10.05160107037118 0 0 0
211 1 18.36425753122965 9.890796286066275 2.7406141537225546 0 0 0
378 2 16.56809503308813 10.15459858677039 11.627342061919768 0 0 0
213 2 17.688281016035674 9.798074517143622 3.424489769733735 0 0 0
214 1 21.006443190898327 11.509021361423798 9.592829048590843 0 0 0
215 2 20.326052119473456 11.603300027949553 10.290166778301977 0 0 0
216 2 20.643450104944716 12.134006156223606 8.951168907443149 0 0 0
229 1 12.98450055795666 1.3461251650362116 1.4491833529528648 0 0 0
230 2 12.80021533771511 2.193859642348512 1.902022858705771 0 0 0
231 2 13.23701620823942 1.6302261333093666 0.5974119922292377 0 0 0
232 1 15.571516383134293 3.0846425364419923 8.551051283494333 0 0 0
233 2 15.554272171502184 3.9359065350552167 9.011636845233978 0 0 0
234 2 14.695659868153564 2.8200900968841953 8.860019016292638 0 0 0
235 1 15.531041330278493 8.561043946313314 1.5532735249005765 0 0 0
236 2 15.781923150506262 8.796140919433977 0.6811398148014003 0 0 0
237 2 14.693376167202594 8.108047876563019 1.6463046737179496 0 0 0
238 1 17.889190923744078 10.19160777538302 8.467316793504567 0 0 0
239 2 18.4969729066037 9.446889107520057 8.595779898705128 0 0 0
240 2 18.204696722755916 10.54111436749912 7.570057876329413 0 0 0
253 1 15.081531889688687 4.419766474847771 0.8367016742118233 0 0 0
254 2 15.660948362670128 4.957978661871569 0.23413843362834907 0 0 0
255 2 14.676733710260958 3.657363249609608 0.2683985219956455 0 0 0
256 1 17.34524974561772 6.461882213139192 7.635073416581244 0 0 0
257 2 16.798103159825754 7.180396897717626 7.913278753825457 0 0 0
258 2 17.621720029254107 5.913761495650951 8.390984907209395 0 0 0
259 1 17.564651768496997 11.5554117160229 0.7561523221581689 0 0 0
260 2 18.229167878588207 12.197785631482015 0.47773411094559654 0 0 0
261 2 17.931219289251153 11.13012376654899 1.508167449230404 0 0 0
262 1 19.901215008568155 13.472179260972338 7.956842855530167 0 0 0
263 2 20.576226302401896 13.810007472792043 7.378530838914403 0 0 0
264 2 19.38554501006401 12.840579240011627 7.385892039312193 0 0 0
277 1 16.942152330507845 6.268850940828328 2.840161017055268 0 0 0
278 2 16.119293832078274 5.903564145218108 3.2809428452265634 0 0 0
279 2 16.636219911511883 7.069655036904964 2.4205502590159313 0 0 0
280 1 19.811375250130315 8.01442430376782 9.408162200667773 0 0 0
85 1 8.75239574492206 0.9257233233221177 0.6506393632514086 0 0 0
377 2 17.24990568408903 8.830621662847946 11.482427723302578 0 0 0
283 1 19.823747282261863 12.853775076455648 2.7479360223081346 0 0 0
284 2 19.501260378878385 13.559552041163643 2.1660117879661565 0 0 0
380 2 16.57504647588746 15.461112765631984 5.074209379906807 0 0 0
286 1 22.285802858200388 14.952772890381373 9.388131745992922 0 0 0
287 2 21.780233260401424 15.823109117180902 9.134835124844003 0 0 0
379 1 17.24124303292588 14.800278549587068 5.225208552902908 0 0 0
301 1 13.409752199523007 6.56980125338834 1.5160331720258293 0 0 0
302 2 14.004212616634954 5.838285283059415 1.3319494163122132 0 0 0
303 2 12.93975360626543 6.389693257088632 2.314420817972989 0 0 0
304 1 15.673732071924523 8.487078538686264 8.4375889455763 0 0 0
305 2 15.496173619699098 8.29209989173384 9.40046131103782 0 0 0
306 2 16.311533526437646 9.25081717023755 8.405761750424361 0 0 0
307 1 15.952034019021223 13.715849089282338 1.6174502321790714 0 0 0
308 2 16.63575807289423 14.454070369680855 1.4489846175382426 0 0 0
309 2 16.32226321608478 12.901684897886039 1.302273473937905 0 0 0
310 1 18.37570747391274 15.872033512947686 8.95743196987078 0 0 0
311 2 18.83688957053309 15.094262394801513 8.48648697500983 0 0 0
312 2 18.037057510246758 15.514015137714114 9.766640592857268 0 0 0
325 1 11.080746185591588 4.382301066262088 0.7517111734471528 0 0 0
326 2 10.482527250190104 4.851966357892524 1.3475613094693657 0 0 0
327 2 11.39671665397519 5.057374863377734 0.14293659155147215 0 0 0
328 1 13.660947384894175 6.367641226620706 7.421954077241177 0 0 0
206 2 16.531590327521858 2.757718580354922 3.0438092026550274 0 0 0
330 2 13.247770542202275 5.557544879869619 7.1425902298840995 0 0 0
331 1 13.872417457355727 11.646880381898322 0.7367074932713068 0 0 0
332 2 13.216348847968355 12.037533893113544 1.3799955173860547 0 0 0
333 2 14.559944344993806 11.423332181872729 1.3696812702926733 0 0 0
334 1 16.363716600053095 13.372228245464225 7.759846100412056 0 0 0
335 2 17.059744406119652 13.261424690847292 8.469797954764454 0 0 0
336 2 16.654393597507706 13.894547789017627 6.953096062124424 0 0 0
349 1 11.881044043284565 6.298686837568391 3.9916037198282415 0 0 0
138 2 12.409751651216697 4.20684067289083 10.456060712156178 0 0 0
351 2 12.141134841121756 5.445128172648525 4.447072359159839 0 0 0
352 1 14.571201553325265 8.157817884562073 11.008960187396058 0 0 0
376 1 17.18874306376501 9.560430034962017 12.047081038874817 0 0 0
354 2 14.653042160390791 7.224379358586135 11.356066035092987 0 0 0
355 1 14.450198715375908 13.309076802792267 3.9578229474687423 0 0 0
43 1 21.62851416655785 15.338867988518432 6.467598901684653 0 0 0
357 2 15.034139032925832 13.550437293440215 3.221663346093458 0 0 0
358 1 16.679056836831577 15.531928597657497 11.156521028211152 0 0 0
359 2 16.98608093573276 14.798959585211216 11.73417543148432 0 0 0
41 2 22.435462034173305 10.526853658554485 13.545733271909269 0 0 0
32 2 15.048839379071689 15.417921964460255 6.340435793983749 0 0 0
281 2 20.50146430349038 8.197588793643114 10.089820018210261 0 0 0
350 2 12.077182180671128 6.978939251595402 4.643787975763327 0 0 0
141 2 12.514800095112172 9.890889395244958 3.567266101836815 0 0 0
83 2 21.105785442800393 10.316121377625388 8.533193584048272 -1 0 0
135 2 9.763786944215452 2.7752348455125233 3.596925024866397 0 0 0
123 2 17.273321721450973 3.599427958542029 4.980603952083661 -1 0 0
81 2 18.510417959273607 8.817106535252114 1.6246376106376539 -1 0 0
45 2 21.804508540540265 14.74985900853525 5.691388429276729 0 0 0
93 2 10.983666913707529 8.315259748116524 1.5311828214746215 0 0 0
134 2 10.164233486742674 3.393915100820399 4.921247258173694 0 0 0

Velocities

1 -0.34668156079697143 5.261112196469641 1.621130538082907
2 -0.7303759917340602 -2.4042878610751557 1.8513356108824932
3 2.6615370101221707 4.0183186971240605 1.3720057308869467
4 11.948275903532824 -5.648838722420525 -4.655296785794069
5 -9.286713383527358 -3.5347382376494 1.0837049845645161
6 6.276013100106602 -5.7804816572447155 -8.413425218898817
7 4.16932529427378 -1.3771564328968953 -4.126089961186132
8 -7.908575825504125 11.779488620527543 -11.203498549388344
9 -17.859758773201587 -6.493436594447966 -2.991859945395117
10 0.6828111569998212 -1.0365719000858888 -2.2915267384761027
11 18.625124079413954 8.856052684853546 0.47909843103063754
12 2.6488946727785256 2.4444152306967997 4.978045718978005
25 -0.6274774754261133 2.5970591747440577 -2.7953331341111056
30 3.280866540009549 1.5678783131710197 8.219986391841301
27 -7.942799885396839 2.7662694345642707 22.201360346902433
28 -1.980608201834214 1.407705962907196 -2.0012643218700874
29 -9.311396302661503 15.294526239279739 4.745929312988434
79 4.094002244287921 -6.82449979710738 -5.921667066242326
31 5.5831631687307395 1.0118665947994625 -2.9114960544571034
315 12.104333365802407 6.750139916397479 -12.39367526068671
33 7.496074795020767 17.785234865135507 -3.954236468252514
34 2.808909597747107 -5.498480762519224 1.9277309694691227
344 20.477094268889115 5.030173635103945 13.826117852201047
372 -9.575694355097713 -5.562523011585321 8.69080577645403
49 -5.87191871572953 -4.808199257776919 -1.8395832683056406
50 -23.08292601740858 -6.670093209578364 -5.617543947616419
51 -3.23700360303018 -18.500540709579848 -8.49288246922061
52 -3.8466426981286403 -5.954932362760515 5.421397193909414
53 7.688817842548409 28.113555857340362 -8.560385909718141
54 19.31215431973119 1.6801203922061247 16.02829435043415
55 -2.2472300898285846 -7.602384331996631 -3.3176423745958448
56 3.94256883057557 13.66954814995098 -8.771084015719497
57 2.842062748021309 5.760011875469713 -1.84479888332659
58 -3.5555844513032984 -6.296213332134413 1.5238728111818047
59 -11.269712736596894 15.789799580611438 0.3871015386636808
60 2.5865238866414395 -1.8260697889796882 3.2152207670032045
77 -1.695853364952351 -3.3812055546940463 -2.2134010916836666
74 16.309344935021315 10.101257578302365 -12.873080930690287
371 -12.3766251057322 -13.394938031534851 8.643486549555643
76 3.716878230996456 0.640160231591281 -8.928253897584135
265 -6.66497323129331 -0.023558150779396686 10.50815547592433
78 -0.27754783064262367 -17.53955604397814 -1.7582887869028196
73 -1.854654245674819 1.8111248454647477 -5.522731394110017
80 0.26357658781896126 -4.662239603105759 25.552236528476634
366 -5.856600450325433 -15.709564293716651 7.088643950216404
82 7.051679167590721 4.007914874452609 0.24481514539219829
370 -0.9372822845080813 8.859242905462006 -0.7085245213796034
368 -10.428699706094493 -7.408195794495495 -21.057672453690188
97 -1.5964819570963689 -1.8476653916574446 2.8814291541562436
98 -1.502866381943357 -3.0793671974990926 -6.02548285144307
99 -18.160512423985978 -11.001188967207208 -7.336870629077974
100 6.758798491199317 -1.4485635323522212 -1.569327058200197
101 -12.542102002126512 -18.193211236442348 -0.6427843056428131
102 12.277546008016682 20.863963731742352 -2.76051524035841
103 2.2767319631929777 6.9192057080436715 2.630250679469477
104 11.17581588211366 27.380753117069624 11.875286122050875
105 -14.399116165832503 -6.975391435787538 -4.6183825074889775
106 -0.04421758750833602 3.627721887956324 5.7686725945889075
107 16.41310977885412 -7.1355464360947485 2.342492581431628
108 21.966503137065764 -9.309163996955823 -2.6232398055008077
121 2.939317477021051 -1.7543657299843463 7.3453116515005705
122 -8.751667170661735 -15.37314473040706 -1.4328049613379203
369 -4.318658198413088 10.925894428325105 -2.373067370376421
124 -0.024542557204602057 -5.802776794274827 3.508171851407469