LAMMPS data file via write_data, version 15 Apr 2020, timestep = 3299000

576 atoms
2 atom types

3.9350395335296184e-01 1.7526497046622879e+01 xlo xhi
1.8850295335308687e-01 1.7321496046623004e+01 ylo yhi
5.3850395335298273e-01 1.7671497046623671e+01 zlo zhi

Masses

1 16
2 2

Atoms # atomic

352 1 3.5591845142215983e+00 3.3034539422094409e+00 2.0729314046438541e+00 -1 3 7
354 2 3.2431776797333445e+00 3.5268126969379638e+00 2.9628095352648063e+00 -1 3 7
440 2 1.3014102532825671e+00 1.1405217949905151e+00 2.1616904341956769e+00 6 0 1
415 1 2.9494107240528304e+00 3.9898795679361823e+00 4.5929860661586117e+00 3 -1 -2
439 1 2.0307575383382774e+00 4.4332984442884160e-01 2.1846346775319070e+00 6 0 1
441 2 2.6217090465721098e+00 6.0912986228449117e-01 1.4590183762775208e+00 6 0 1
353 2 3.7565572924399699e+00 4.0860350174519455e+00 1.5406234629712139e+00 -1 3 7
189 2 1.9533453544862336e+00 3.2388168212556061e+00 7.9475415507678027e-01 0 9 1
515 2 2.7155423500013223e+00 3.3184680366773767e-01 3.9420849223985011e+00 3 3 -2
333 2 5.0178803824794018e+00 2.2200579812220766e+00 2.3168447060077035e+00 -1 0 -6
524 2 7.0920511870050289e+00 6.5299381017751867e-01 1.3749235648412825e+00 1 2 -1
90 2 7.4086829925529623e+00 2.3175013807444214e+00 2.9789158396729691e+00 0 -2 5
331 1 5.9532660356900235e+00 2.1079645926066410e+00 1.9497675847308360e+00 -1 0 -6
88 1 8.3286906941684808e+00 2.4794773130263490e+00 3.3785739388372398e+00 0 -2 5
89 2 8.2638086154809898e+00 3.4300531905987666e+00 3.5363782196791087e+00 0 -2 5
332 2 5.9884913604692214e+00 2.8532527484952399e+00 1.3059136765537769e+00 -1 0 -6
501 2 6.1660051294721354e+00 1.9392564557042746e-01 4.6895227213112234e+00 -1 1 -1
102 2 9.6857838414618254e+00 1.0866945893956388e+00 3.3925797521102750e+00 -1 1 6
101 2 1.0830953741989832e+01 1.0440243916395167e+00 4.3962753941156496e+00 -1 1 6
100 1 1.0596818342139313e+01 8.3604271788252449e-01 3.4649480694582930e+00 -1 1 6
275 2 9.8578461757730693e+00 2.2381609349006948e+00 1.0126465507362101e+00 -5 -1 -4
284 2 1.0376519227641625e+01 4.0497680742267894e+00 2.2759805195531388e+00 2 -4 0
300 2 1.2389847618696567e+01 4.3577282486980140e+00 3.1818450513520951e+00 0 1 7
446 2 1.2475328742011502e+01 1.0628004351885103e+00 3.0937978657259935e+00 0 2 5
274 1 1.0327728672579699e+01 3.0615505254926831e+00 8.1807259942537924e-01 -5 -1 -4
299 2 1.3429242010417557e+01 3.1709610184688017e+00 3.2468105429822582e+00 0 1 7
298 1 1.3416802909550212e+01 4.1629688233135749e+00 3.3364478152926460e+00 0 1 7
445 1 1.3340808046496143e+01 1.4286159093105326e+00 3.2820422980008224e+00 0 2 5
396 2 1.7442867832564954e+01 2.7576148146515100e+00 2.0210890320858903e+00 5 1 0
395 2 1.6260964097412192e+01 1.7354530905751455e+00 2.0020272429072934e+00 5 1 0
394 1 1.6937846462902996e+01 2.1668840680636530e+00 2.6199557992358402e+00 5 1 0
533 2 1.6986004806363169e+01 1.2124276117724364e+00 4.3464894095322215e+00 3 5 6
447 2 1.4018332429351755e+01 9.1106562797123258e-01 2.8511814043131811e+00 0 2 5
565 1 1.5164677081694832e+01 8.5251483794547722e-01 7.3825677706101733e-01 -3 5 0
43 1 2.3554184747953419e+00 6.9182514677403848e+00 1.3786200783058105e+00 7 -3 5
45 2 2.9350559080591041e+00 6.3287114692200497e+00 8.7380292089465006e-01 7 -3 5
44 2 1.8713156864294926e+00 6.3526192475670751e+00 2.0295536741406366e+00 7 -3 5
162 2 1.1319921140651190e+00 4.9615960573978777e+00 3.5094903648756444e+00 3 6 6
134 2 2.7791841386082687e+00 8.3562727704366324e+00 2.2729081089923122e+00 4 -3 -1
160 1 7.0041497003632258e-01 5.7026557225855372e+00 3.0172669916017791e+00 3 6 6
320 2 6.4990152558885894e+00 5.0676088617985471e+00 1.1618919109053965e+00 -5 3 -2
32 2 5.7380118082695732e+00 6.2061326302256488e+00 4.1322913672361974e+00 -7 4 5
80 2 6.5274668828672153e+00 7.0976711575835152e+00 2.0701337556025479e+00 -2 1 1
79 1 6.9306264019606498e+00 6.3028589707021645e+00 2.5634321647434546e+00 -2 1 1
81 2 7.8747280999895226e+00 6.4214433881876687e+00 2.6776433558862354e+00 -2 1 1
58 1 6.7882605887753433e+00 8.3142956427498191e+00 6.2803842303341306e-01 0 -3 2
422 2 8.5964286642998626e+00 8.7159029960313514e+00 3.7275909581076498e+00 0 4 2
283 1 1.0745352494819999e+01 4.5153171866392956e+00 3.0578754996028636e+00 2 -4 0
169 1 9.3969861370435250e+00 7.6878951807944631e+00 2.8236801498189421e+00 0 1 -5
456 2 9.6708228813244475e+00 6.7039515228995041e+00 1.2319441327224383e+00 0 0 1
285 2 1.0008510915635268e+01 5.0232871191294883e+00 3.4072455543278304e+00 2 -4 0
171 2 1.0283611278216176e+01 7.4682256993508336e+00 3.2402691654024731e+00 0 1 -5
366 2 1.2260683933378766e+01 6.7000470991794439e+00 3.9961265074851524e+00 0 4 -3
364 1 1.1609696748747817e+01 7.3578648254643300e+00 4.3457640609294081e+00 0 4 -3
170 2 9.7059018506374333e+00 8.4229354149091602e+00 2.2096415710405730e+00 0 1 -5
125 2 1.4524427827353408e+01 5.1283187138181425e+00 2.5017157744209007e+00 3 -5 5
161 2 1.6901603742051712e+01 5.4744757663471635e+00 2.7368885736610462e+00 2 6 6
124 1 1.5388763979603960e+01 5.5285605687061050e+00 2.1732140254065371e+00 3 -5 5
242 2 1.6903973326604518e+01 7.1770676571793750e+00 3.9539358082020386e+00 -3 8 -3
376 1 1.4283897371719823e+01 8.0221593811387244e+00 2.5277221632139151e+00 -4 -5 0
126 2 1.5076803019713504e+01 6.4858508895164872e+00 2.1333745483167164e+00 3 -5 5
378 2 1.5005770696453432e+01 8.1795472434877645e+00 3.2021632877704223e+00 -4 -5 0
377 2 1.4300711039015077e+01 8.6537738031966533e+00 1.8204785104868586e+00 -4 -5 0
241 1 1.6397766109087730e+01 7.8850812372340089e+00 4.3932863451456283e+00 -3 8 -3
243 2 1.6915216941282175e+01 8.6898706067288636e+00 4.3200589549445052e+00 -3 8 -3
416 2 2.5441646403078488e+00 3.3341349707930772e+00 5.1727167279257111e+00 3 -1 -2
54 2 2.6923892733156594e+00 1.2866008427790334e+00 6.0312583226026542e+00 1 -1 2
53 2 1.6944980244307923e+00 2.0156744959711537e+00 6.9754451287603505e+00 1 -1 2
52 1 2.5677554753553973e+00 2.1153813683636402e+00 6.5460767871616019e+00 1 -1 2
297 2 3.5862678735735982e+00 1.9734823742034551e+00 8.4250483397874234e+00 1 -4 1
295 1 4.4298206704803471e+00 2.3671808351006973e+00 8.8055838029666305e+00 1 -4 1
500 2 4.6072199307457478e+00 3.8634551199523509e-01 4.9353165240875940e+00 -1 1 -1
387 2 5.6735595684339781e+00 3.8065939297163653e-01 6.7846145324183116e+00 3 -3 -1
386 2 5.6857661601767022e+00 1.1516457919478345e+00 8.1624135882163920e+00 3 -3 -1
289 1 6.4047230424515735e+00 3.5859759831090381e+00 6.1739047358844905e+00 4 -2 -3
245 2 7.4762995789923989e+00 3.3944071092097485e+00 7.8728588397731354e+00 -3 -1 -2
291 2 5.9018962639699870e+00 2.7781446338073623e+00 5.7940226618935897e+00 4 -2 -3
244 1 8.1532033702967937e+00 3.4590617188590875e+00 8.5545441703122407e+00 -3 -1 -2
499 1 5.5161131332894291e+00 7.5714003366937921e-01 5.2194671864629925e+00 -1 1 -1
246 2 8.4091493319087416e+00 2.5170020796620189e+00 8.7570860908467569e+00 -3 -1 -2
385 1 5.7191498814666692e+00 2.4488976777902707e-01 7.8017114552993903e+00 3 -3 -1
290 2 6.0209334083277684e+00 4.2963033199147311e+00 5.6856963542372014e+00 4 -2 -3
507 2 4.6950815868628473e+00 4.0940526702352109e+00 8.0878147285097910e+00 -2 -2 5
339 2 8.5096607705582095e+00 3.5694856213465509e-01 8.3972925546772910e+00 3 -1 5
488 2 1.1266158050455095e+01 3.2120568226528698e+00 8.7955711313878471e+00 -5 -1 -2
477 2 1.3041145724529116e+01 2.2400450184521126e+00 8.4571700719219223e+00 -1 2 -6
521 2 1.0247718834603244e+01 4.8221613463088264e-01 6.3588601356832832e+00 3 3 3
520 1 1.1078710963670945e+01 9.2143819563265250e-01 6.0895898366464527e+00 3 3 3
307 1 1.1838004295934322e+01 3.2813759228430612e+00 7.0139384961749123e+00 4 -3 3
309 2 1.1568347913303986e+01 2.5154543978025297e+00 6.4237239986568255e+00 4 -3 3
308 2 1.2599356777970186e+01 3.7838673241153540e+00 6.6599047108061793e+00 4 -3 3
522 2 1.1839735926066554e+01 3.3888939124305517e-01 6.0769826346295472e+00 3 3 3
287 2 1.3784684054704506e+01 2.0112088259388586e-01 4.9793627696151583e+00 4 -3 -1
311 2 1.3881472280636629e+01 4.2932059672905414e+00 4.9627199858950837e+00 -3 1 2
532 1 1.6643606591740813e+01 5.5709568811197718e-01 4.9620767411137763e+00 3 5 6
475 1 1.3621263978572614e+01 1.5271332695612012e+00 8.8014425073323501e+00 -1 2 -6
121 1 1.7204586519598042e+01 2.0462093610560075e+00 8.1982847042595086e+00 -3 0 2
123 2 1.7098992281329224e+01 2.8047364035912450e+00 8.8064436282138487e+00 -3 0 2
534 2 1.5966871506146104e+01 1.0354518179829815e+00 5.4822509649385420e+00 3 5 6
541 1 1.5001888342883714e+01 1.7899458677087807e+00 6.7940925734113344e+00 1 1 4
543 2 1.4746840516764594e+01 2.6561149540779581e+00 6.4453866911508397e+00 1 1 4
122 2 1.6357852450389817e+01 2.0315614881847148e+00 7.6991460198986150e+00 -3 0 2
542 2 1.4391919800026935e+01 1.3684091445323208e+00 7.4506899357110914e+00 1 1 4
310 1 1.4045180664193110e+01 4.2639747194437065e+00 5.9460111891507399e+00 -3 1 2
417 2 3.4043651837004703e+00 4.7207255058469224e+00 5.1187941828915564e+00 3 -1 -2
39 2 2.6967191744981811e+00 7.2472815633628489e+00 6.8675090934068841e+00 -4 -7 -4
38 2 1.7990707012630509e+00 6.1332104250703301e+00 6.2421902904643369e+00 -4 -7 -4
37 1 2.7221328134067129e+00 6.3287536847618506e+00 6.5457069047759884e+00 -4 -7 -4
506 2 3.9352577186925006e+00 5.3218852589458514e+00 7.6097514527424170e+00 -2 -2 5
505 1 4.5718732272632243e+00 5.0443176472369080e+00 8.3518131427124835e+00 -2 -2 5
40 1 2.4398489288892709e+00 8.7472662907412424e+00 7.5970738647462408e+00 -3 -2 2
31 1 5.6188086271948663e+00 5.8680630022853917e+00 5.0273784586210892e+00 -7 4 5
33 2 5.6527199085795532e+00 6.6139327345290546e+00 5.7052745769685584e+00 -7 4 5
375 2 8.6958365205308343e+00 5.2170190242777261e+00 8.6776003069137548e+00 1 -3 4
30 2 6.6099940086745574e+00 8.3316923718358549e+00 7.0568233906564570e+00 1 2 5
225 2 8.0727650412836880e+00 5.4328098616010392e+00 5.0558248361268854e+00 1 4 -4
303 2 8.5850287709188962e+00 7.8846086839826093e+00 7.6787219464443250e+00 2 -4 4
28 1 5.7054359483318349e+00 7.9062359488790008e+00 6.8736686356053847e+00 1 2 5
29 2 5.4931027368068204e+00 7.4115147967105033e+00 7.7113949482967907e+00 1 2 5
301 1 8.1429121164444389e+00 8.6486909811907182e+00 7.3288949728652160e+00 2 -4 4
223 1 8.9281415269162707e+00 5.8595984600169828e+00 4.8463546155642812e+00 1 4 -4
478 1 1.2514144093013130e+01 7.8544061196722543e+00 8.6645827064103340e+00 -2 -3 -1
485 2 1.0176257104716697e+01 5.9913882353367880e+00 7.6098017005828957e+00 -4 1 0
373 1 8.9681098131900736e+00 6.1515389582523312e+00 8.6939884028405974e+00 1 -3 4
486 2 1.0982000493176225e+01 4.8909014296878830e+00 6.8020698032895428e+00 -4 1 0
365 2 1.1387583009186285e+01 6.9384787452086831e+00 5.2192688507747853e+00 0 4 -3
484 1 1.0789603982228842e+01 5.8715284931410290e+00 6.8110054459085765e+00 -4 1 0
224 2 9.6047230978062448e+00 5.6495606694344609e+00 5.5265411791214820e+00 1 4 -4
480 2 1.2567414134604698e+01 7.5136614704193656e+00 7.7707095096608425e+00 -2 -3 -1
252 2 1.4942416557412905e+01 7.4779080519730883e+00 5.5199873935816672e+00 4 2 2
251 2 1.4726238652354002e+01 7.3913972477019287e+00 7.0181559122097958e+00 4 2 2
250 1 1.4526455033414345e+01 6.9589682904003736e+00 6.1681762512577949e+00 4 2 2
400 1 1.5635700660652226e+01 7.2693844610819500e+00 8.5855919964553937e+00 -2 6 -4
249 2 1.6567654640423154e+01 6.0882622094991135e+00 6.5637781393363683e+00 -3 4 4
545 2 1.6236030685187565e+01 5.5027439703955823e+00 8.9345534024216242e+00 -1 5 1
248 2 1.7482701085800652e+01 4.9762132630443441e+00 7.2762302227701312e+00 -3 4 4
247 1 1.7157429392068273e+01 5.3401522960944643e+00 6.3865594856106327e+00 -3 4 4
312 2 1.4382816613957983e+01 5.0798002526052732e+00 6.3763589032354941e+00 -3 1 2
402 2 1.6049790541851905e+01 8.1145701021041852e+00 8.5917846298122775e+00 -2 6 -4
280 1 2.4741101746429690e+00 3.0449275850187965e+00 1.1648848377412602e+01 -1 1 -5
111 2 2.0312603723476279e+00 1.4863462656636892e+00 1.0357875126463751e+01 0 -3 -1
282 2 3.4488719251796334e+00 2.9102267833876043e+00 1.1838396741038549e+01 -1 1 -5
531 2 9.9552645413829555e-01 2.4180518420528121e+00 1.2470865362985011e+01 2 0 3
109 1 1.6540493536972347e+00 7.0825609598300943e-01 9.9437319525075658e+00 0 -3 -1
281 2 2.2955324134271016e+00 3.9718811659027971e+00 1.1365087710564676e+01 -1 1 -5
296 2 4.2709918990162254e+00 2.3222125262707158e+00 9.7474933850150922e+00 1 -4 1
110 2 9.2035560570362163e-01 1.1002138680656850e+00 9.4647932615783024e+00 0 -3 -1
208 1 4.9087836542033729e+00 2.1236828301929940e+00 1.1832877915108375e+01 -3 2 0
210 2 5.0569453577474297e+00 1.2225942431016437e+00 1.2074778048831483e+01 -3 2 0
193 1 6.9459117804177248e+00 3.6997297540753737e+00 1.0957965314733496e+01 1 2 -1
209 2 5.8208852272797875e+00 2.5174436787263383e+00 1.1545682965039262e+01 -3 2 0
195 2 7.2742389629779121e+00 3.5598019846666547e+00 1.0026117610241442e+01 1 2 -1
552 2 8.5077625958929719e+00 3.3269828912117361e+00 1.1666706744468343e+01 3 -4 5
338 2 8.0120301334232842e+00 4.0115197148896492e-01 9.7872649524406903e+00 3 -1 5
337 1 8.6786848405061292e+00 8.6127613071047748e-01 9.2548470836058065e+00 3 -1 5
550 1 9.3789254274211320e+00 2.9427002661117787e+00 1.1831235697664503e+01 3 -4 5
92 2 1.2692345773970926e+01 3.6455663941372984e+00 1.1284944204543056e+01 -1 -2 -3
551 2 9.2346922970132468e+00 1.9852278759380608e+00 1.2036668799579601e+01 3 -4 5
489 2 1.0540279110735417e+01 3.0690920714394903e+00 1.0308178488965158e+01 -5 -1 -2
273 2 1.2622455661824814e+01 2.4955727983399250e+00 1.2907876399095551e+01 1 -1 0
487 1 1.1316513376121005e+01 3.3954991331645150e+00 9.7280470784619357e+00 -5 -1 -2
435 2 9.0440957557037081e+00 2.0269990160085813e-01 1.3288050659520797e+01 -5 5 0
433 1 9.7975565478149971e+00 5.4167454577611762e-01 1.2781705935581044e+01 -5 5 0
18 2 9.9353657502887760e+00 4.2106306874255450e+00 1.3130808928482766e+01 4 -1 -5
476 2 1.3078680916283696e+01 9.0863802421980100e-01 9.2529811426519259e+00 -1 2 -6
3 2 1.0413449634710194e+01 2.4433367203540612e-01 9.6352536428974211e+00 0 3 -1
529 1 1.7220817869651643e+01 2.2275846070058654e+00 1.2653643573205050e+01 1 0 3
91 1 1.3303868669895358e+01 3.7647940715444230e+00 1.2059717730452981e+01 -1 -2 -3
93 2 1.4207356237884964e+01 3.4271029820619363e+00 1.1688128142071337e+01 -1 -2 -3
451 1 1.5323223024757239e+01 2.8229203683158528e+00 1.0732728556685643e+01 -2 12 -2
350 2 1.6311667404848791e+01 9.2871997189051669e-01 1.1179787324252795e+01 -3 -4 0
453 2 1.5710640157711843e+01 3.5123578188324234e+00 1.0194597638710256e+01 -2 12 -2
9 2 1.6411843159640419e+01 3.7192847409465242e+00 1.2399786898691838e+01 4 3 4
186 2 1.3484641048125546e+01 4.0633635593520606e-01 1.3369668621334611e+01 1 -1 1
452 2 1.4748705735269521e+01 2.3700465015772796e+00 1.0104423954956887e+01 -2 12 -2
557 2 2.2038851883580790e+00 8.0504705064260804e+00 1.2082214187650456e+01 -1 1 -3
76 1 1.2337253766105254e+00 5.5626236522011636e+00 1.1115868288413992e+01 0 -3 -3
78 2 5.7151077575074205e-01 5.4272493269697977e+00 1.1840985503179812e+01 0 -3 -3
77 2 1.4189381421040392e+00 6.4963889247811890e+00 1.1132037663822340e+01 0 -3 -3
306 2 3.9853661572358887e+00 7.7001442787431973e+00 1.0063132081660662e+01 1 3 1
304 1 3.9761790432402937e+00 6.7587519292385538e+00 1.0281220949939524e+01 1 3 1
556 1 1.5278007320679823e+00 8.3285391392376162e+00 1.1308341821908366e+01 -1 1 -3
535 1 3.1002351806127364e+00 7.6366048737052932e+00 1.3342013889987763e+01 3 -1 -5
537 2 3.9405838685705912e+00 7.2311530618069852e+00 1.2944788968391512e+01 3 -1 -5
305 2 4.1945119362312200e+00 6.1726110056219632e+00 9.4820248698132250e+00 1 3 1
194 2 6.6265424755884919e+00 4.6756679678874242e+00 1.1164131033240331e+01 1 2 -1
381 2 5.0516650254105082e+00 6.0759083610310229e+00 1.1095431487511547e+01 4 -5 3
379 1 5.8264254334127976e+00 6.0061710758047031e+00 1.1743066909162525e+01 4 -5 3
380 2 6.2691088754087625e+00 6.8897900381281572e+00 1.1610066881279906e+01 4 -5 3
382 1 7.5535658813855537e+00 8.3392984659224627e+00 1.1684992961554705e+01 2 -1 -1
203 2 5.1638191586701820e+00 5.4109448012602268e+00 1.3173544857039435e+01 -3 2 0
207 2 8.9933576307336480e+00 7.3499176343749344e+00 1.1874159088441685e+01 -5 2 -2
205 1 9.5211654934100096e+00 6.6789115470769955e+00 1.1513224024413978e+01 -5 2 -2
374 2 9.1525237475827499e+00 6.3168078197108271e+00 9.6396149801411273e+00 1 -3 4
206 2 9.7964978121170265e+00 6.1208576571564723e+00 1.2266725727638594e+01 -5 2 -2
6 2 1.0946748972319762e+01 6.2921468788735639e+00 1.0673831116519281e+01 1 3 -3
5 2 1.1415191127135211e+01 5.0113423067696097e+00 9.8639024343605524e+00 1 3 -3
4 1 1.1742576938195519e+01 5.8985352526888315e+00 1.0253751750291368e+01 1 3 -3
479 2 1.2137137579833862e+01 7.1159268672246254e+00 9.1979941864035037e+00 -2 -3 -1
544 1 1.6655849147435774e+01 4.7223337015878348e+00 9.3176887660532159e+00 -1 5 1
7 1 1.6127616079748154e+01 4.6130251843935381e+00 1.2612672473091655e+01 4 3 4
546 2 1.7426545307526716e+01 5.0798455653897792e+00 9.8841391186029757e+00 -1 5 1
156 2 1.4912508896716391e+01 7.2843967361914066e+00 1.3149326911416502e+01 -5 -3 1
335 2 1.3900207597057621e+01 6.1353724203133799e+00 1.0810923680172086e+01 -2 0 2
336 2 1.5151101724618107e+01 5.7263487060504774e+00 1.1563402394013966e+01 -2 0 2
334 1 1.4647848171348722e+01 6.4693795331414812e+00 1.1259575069104800e+01 -2 0 2
401 2 1.5260012495430946e+01 7.1869200486350371e+00 9.4975311078950462e+00 -2 6 -4
187 1 1.0530052432056867e+00 3.1680230854766274e+00 1.7536353907526980e+01 0 9 0
188 2 1.2203691215373340e+00 3.0873725988361773e+00 1.6553529514830853e+01 0 9 0
278 2 2.3342688310381212e+00 3.1992352062440781e+00 1.4680255729057990e+01 -1 0 5
277 1 1.4325009554956536e+00 3.5310195465609615e+00 1.4893520927866103e+01 -1 0 5
199 1 4.0306191550152395e+00 2.5824650655304313e+00 1.4632896244124534e+01 4 -5 -1
178 1 3.4071789030624018e+00 9.1432402740916130e-01 1.7154838028215806e+01 -1 7 2
14 2 2.2131113872096586e+00 4.6237618034868427e-01 1.6223862931598791e+01 0 2 2
180 2 3.9353817775364961e+00 1.7065669822814125e+00 1.7068547213268424e+01 -1 7 2
201 2 3.8815177489501167e+00 1.9916061288920355e+00 1.3867267795149832e+01 4 -5 -1
204 2 4.6748529845759794e+00 4.2086197788887691e+00 1.4008022128134218e+01 -3 2 0
279 2 1.1790137940685690e+00 4.2607012765547987e+00 1.4320400043369760e+01 -1 0 5
179 2 4.0519567609995724e+00 2.3476053857967472e-01 1.7153046258541540e+01 -1 7 2
15 2 1.8597521444839735e+00 1.9356765808027987e-01 1.4680581406496817e+01 0 2 2
200 2 4.8677512621480448e+00 2.1840524308124172e+00 1.5120782651119965e+01 4 -5 -1
328 1 6.1154872351310194e+00 1.9020461637894297e+00 1.6035456085833857e+01 3 6 0
329 2 6.5971916440055454e+00 1.0980721187370976e+00 1.5663004571603459e+01 3 6 0
330 2 6.7155239382562257e+00 2.6498505071121294e+00 1.5780088746818851e+01 3 6 0
526 1 8.4572332972538966e+00 3.7652327711845905e+00 1.6177503810304138e+01 -2 -6 -3
528 2 8.7135652008658759e+00 4.1166358942905354e+00 1.5343591523867136e+01 -2 -6 -3
525 2 8.2184832691477077e+00 5.6290162119967713e-01 1.7530613942171730e+01 1 2 -2
272 2 1.1306433493786237e+01 1.7832481976501482e+00 1.3425215514921264e+01 1 -1 0
271 1 1.2274166331132335e+01 1.7707841759407552e+00 1.3511188482889782e+01 1 -1 0
276 2 1.1255578661624936e+01 2.8947722963825946e+00 1.7618858693905413e+01 -5 -1 -5
145 1 1.2635197301715943e+01 1.7604174422219139e+00 1.6553833312122336e+01 5 3 3
527 2 9.2728958225793203e+00 3.7364619681801776e+00 1.6788168061579078e+01 -2 -6 -3
146 2 1.2691430649866058e+01 1.7718760843482997e+00 1.5568842575252800e+01 5 3 3
530 2 1.7162852157909395e+01 2.3068885291840795e+00 1.3606749086665413e+01 1 0 3
227 2 1.3256377784343645e+01 3.9294305868031163e+00 1.6946355633664023e+01 0 1 2
342 2 1.7138346431466058e+01 8.5532970695989452e-01 1.5329703120933047e+01 0 0 2
147 2 1.3451013196056461e+01 1.3629562489668685e+00 1.6920565020656401e+01 5 3 3
340 1 1.6341663765658236e+01 1.4253984298009603e+00 1.5196770402094900e+01 0 0 2
341 2 1.5712732672164526e+01 8.5836738312155958e-01 1.4731699667950751e+01 0 0 2
575 2 1.5867003402473522e+01 3.0945799592743524e+00 1.5228656578550035e+01 0 3 -2
574 1 1.5510249838360510e+01 3.9630404561269090e+00 1.5332111773598511e+01 0 3 -2
567 2 1.5734613893607637e+01 1.1704819524600738e+00 1.7121812828201804e+01 -3 5 -1
198 2 3.6393935098946946e+00 4.9816637822344321e+00 1.5938449886868826e+01 0 -7 -4
536 2 2.5174214917600906e+00 6.9315290513252386e+00 1.3713610287114321e+01 3 -1 -5
181 1 8.8487716560335161e-01 6.3780952325656353e+00 1.4298888721842307e+01 -8 -6 -3
196 1 3.7665963412579342e+00 5.1731003578498456e+00 1.6873682335430463e+01 0 -7 -4
202 1 4.6556365132574493e+00 5.1917472922932388e+00 1.3952112432974438e+01 -3 2 0
182 2 6.5610941913801479e-01 6.0345188798836702e+00 1.5213345887337617e+01 -8 -6 -3
450 2 5.9868981845340041e-01 7.8054995438737382e+00 1.7508617519072704e+01 2 2 -4
319 1 6.2735038401399867e+00 4.5792371198273383e+00 1.7446682023837450e+01 -5 3 -3
321 2 7.1503690109315414e+00 4.4921796213830802e+00 1.6996048964928153e+01 -5 3 -3
444 2 5.6045986999446749e+00 6.4918072871396149e+00 1.4830438931849180e+01 -3 -1 -6
442 1 6.1044457485759693e+00 7.2848697140210916e+00 1.5025337975740042e+01 -3 -1 -6
443 2 7.0756779034614548e+00 7.1039234648621079e+00 1.4970455294343537e+01 -3 -1 -6
197 2 4.7052382490529956e+00 4.9243451727310479e+00 1.7018104308358115e+01 0 -7 -4
211 1 8.6647425983481021e+00 7.2470423940850770e+00 1.5219900390466130e+01 -1 -2 -3
59 2 6.5925486944462941e+00 7.9526885036479253e+00 1.6846786009683228e+01 0 -3 1
454 1 9.8740682678376128e+00 6.2628499921532006e+00 1.7494581874984082e+01 0 0 0
107 2 1.2821520894626460e+01 4.6380823600672798e+00 1.3426093516379787e+01 -4 0 3
16 1 9.8731263469202748e+00 4.9953817574346999e+00 1.3651361769401150e+01 4 -1 -5
129 2 1.1942570089738767e+01 8.3703057595618464e+00 1.5923991104799095e+01 -2 -1 -1
455 2 1.0839156438431971e+01 6.0429472738017855e+00 1.7642451431643668e+01 0 0 0
226 1 1.2994863255673822e+01 4.8709569356221794e+00 1.6916734520031309e+01 0 1 2
212 2 9.0695891498327850e+00 6.5521526766796709e+00 1.4648842938959913e+01 -1 -2 -3
68 2 1.2024204939909877e+01 7.3026372466452090e+00 1.3819529327061382e+01 -7 -2 -4
106 1 1.2464075222769008e+01 5.2013583462033575e+00 1.4131033302608612e+01 -4 0 3
213 2 9.0539386176370442e+00 7.0834309420279382e+00 1.6131076596318618e+01 -1 -2 -3
108 2 1.2899915271582854e+01 5.0554563350342558e+00 1.5001302440178554e+01 -4 0 3
17 2 1.0869563814337196e+01 5.0468584852633711e+00 1.3985047033217622e+01 4 -1 -5
67 1 1.1743724637558843e+01 8.1619513833219948e+00 1.4162712732951334e+01 -7 -2 -4
175 1 1.7134483927156342e+01 5.4878161597059316e+00 1.6809318613745969e+01 -2 -5 1
155 2 1.5386342413963261e+01 8.5341342681151993e+00 1.3918920207151276e+01 -5 -3 1
448 1 1.7067128090511012e+01 8.4523240279983050e+00 1.7397386166218151e+01 1 2 -4
183 2 1.7178057731370032e+01 6.6846132000770417e+00 1.4028322924145153e+01 -9 -6 -3
176 2 1.7500457715277118e+01 4.6648153711494222e+00 1.7135572980728032e+01 -2 -5 1
21 2 1.4937937745252979e+01 7.3039286515383619e+00 1.5587347771053112e+01 -2 -1 3
177 2 1.6475412291210802e+01 5.7570866635102913e+00 1.7426600569305911e+01 -2 -5 1
8 2 1.5822351416144970e+01 4.5790512158635375e+00 1.3533730619982109e+01 4 3 4
576 2 1.6077966856947661e+01 4.6315615783373030e+00 1.5814652705133637e+01 0 3 -2
154 1 1.5431918519719838e+01 7.5477668694397266e+00 1.3897243000314033e+01 -5 -3 1
228 2 1.3900397067265789e+01 5.2269090223438797e+00 1.6891919040680339e+01 0 1 2
449 2 1.6227388495606100e+01 7.9990297417941871e+00 1.7114277500504450e+01 1 2 -4
19 1 1.4774734390438468e+01 7.3032480029046187e+00 1.6557001754769068e+01 -2 -1 3
20 2 1.3929394871766840e+01 7.7982216902223449e+00 1.6658230685897593e+01 -2 -1 3
133 1 3.2485557943418883e+00 9.1040956647325313e+00 2.6366253928615206e+00 4 -3 -1
462 2 2.3261168129563163e+00 1.0517504951443925e+01 3.0785314175583722e+00 0 7 2
460 1 2.0370852666285808e+00 1.1403106722308465e+01 3.3049907133050360e+00 0 7 2
389 2 4.2302141939020270e+00 9.9623906135323654e+00 1.5869946666758592e+00 5 -2 0
24 2 1.5596275986399544e+00 1.1682236545577945e+01 1.5517605135623218e+00 2 -6 -2
35 2 8.3865338045801674e-01 1.0910924971020489e+01 4.2483317085334278e+00 -1 -3 -3
461 2 2.8583405793350223e+00 1.1859278147863487e+01 3.7587552486884959e+00 0 7 2
22 1 1.0669880735729729e+00 1.1776460800419303e+01 7.2339524307394354e-01 2 -6 -2
135 2 3.9694895953583469e+00 9.0058640599399755e+00 3.3230092606033987e+00 4 -3 -1
388 1 4.9956225798286127e+00 1.0411237588004520e+01 1.1627090465300030e+00 5 -2 0
390 2 5.3409443169962945e+00 1.0982551784148104e+01 1.9386778401489422e+00 5 -2 0
421 1 8.0516293006010535e+00 9.4227115860380035e+00 4.2339420594078838e+00 0 4 2
423 2 8.2521364940984121e+00 1.0245662675565132e+01 3.7198531862747264e+00 0 4 2
474 2 5.4634796750533301e+00 1.1810198099778482e+01 3.9228299255140646e+00 -2 -4 -2
472 1 6.0528094779322803e+00 1.2204492501178818e+01 3.2319108688272529e+00 -2 -4 -2
367 1 8.5372586314983518e+00 1.1736181850943163e+01 2.8092121719112715e+00 -5 -3 -1
368 2 8.7701086267721298e+00 1.1956514502423039e+01 1.8655343276385161e+00 -5 -3 -1
369 2 7.6125993168851389e+00 1.2033981444451731e+01 2.9446276221238104e+00 -5 -3 -1
425 2 6.1584103982062395e+00 9.2022753978646783e+00 3.9451852308316795e+00 4 -1 6
60 2 6.2801036995422210e+00 9.1293819205152538e+00 8.4044846782647464e-01 0 -3 2
424 1 5.2399415029142924e+00 9.0736208306510644e+00 4.2968779087513544e+00 4 -1 6
263 2 9.4322771819004068e+00 1.2664273424220312e+01 3.8674586573945868e+00 -7 1 0
363 2 1.1331151469692468e+01 1.1887470916223636e+01 3.5403354323007648e+00 -9 1 -4
361 1 1.1841330958467731e+01 1.1313403470783095e+01 3.0247281394438263e+00 -9 1 -4
362 2 1.2328753234335860e+01 1.0760877880315558e+01 3.7545343506062232e+00 -9 1 -4
326 2 1.0917038621942394e+01 1.0344261318325835e+01 2.1036030280648195e+00 -1 -2 7
192 2 1.2800080182185265e+01 1.2230429710306977e+01 1.7939595714101986e+00 -2 -2 -5
325 1 1.0459560876818347e+01 9.7310182751482248e+00 1.4574822589903800e+00 -1 -2 7
327 2 1.1199964827854538e+01 9.5101576469635205e+00 8.3437536856457084e-01 -1 -2 7
262 1 1.0128229037321450e+01 1.2858779982185041e+01 4.5914285879236560e+00 -7 1 0
64 1 9.3171569963207777e+00 1.2832055065162139e+01 5.4257165092713833e-01 1 -3 -1
23 2 1.7335519700704747e+01 1.2163042896300000e+01 9.6844130559199071e-01 1 -6 -2
190 1 1.3272071114209103e+01 1.2804478961435274e+01 1.1054971744151922e+00 -2 -2 -5
97 1 1.4717764228932934e+01 1.0200304000005058e+01 1.1065915008779992e+00 -3 1 3
99 2 1.4642180715065829e+01 1.0510094790050365e+01 2.0174288835123102e+00 -3 1 3
50 2 1.5841339889326582e+01 1.0887811459458852e+01 3.6862772440630653e+00 6 5 -3
51 2 1.4286710601174141e+01 1.0540615695319948e+01 4.0652330391715878e+00 6 5 -3
49 1 1.4878411576842575e+01 1.1127946574250783e+01 3.4447000631608971e+00 6 5 -3
34 1 1.7124668407521575e+01 1.0559671818597861e+01 4.6673816388682638e+00 -2 -3 -3
270 2 1.5008871890227187e+01 1.2946850807905342e+01 1.4877084164848164e+00 6 4 8
504 2 1.4783223119318345e+01 1.2515046648684509e+01 4.1398201646638011e+00 -2 3 3
98 2 1.5560087523242057e+01 9.7808181776005583e+00 1.0287699683815701e+00 -3 1 3
163 1 2.3241490485153911e+00 1.4476399456730249e+01 4.2777454854663670e+00 5 -2 -3
555 2 3.8098242667403488e+00 1.4330420117011867e+01 3.3104480885750749e+00 -3 6 7
26 2 1.2698935321107299e+00 1.6044928314392166e+01 1.2011314006528981e+00 1 -7 0
25 1 8.1088701727285573e-01 1.5208811372406362e+01 1.3002570115779308e+00 1 -7 0
516 2 2.6886789035590817e+00 1.6146969040782167e+01 4.6955028123997407e+00 3 2 -2
554 2 4.3689463159574355e+00 1.4891618361099120e+01 1.9951984997297361e+00 -3 6 7
553 1 4.6669973058005514e+00 1.4516153298596505e+01 2.8700819642281008e+00 -3 6 7
164 2 1.4029586758496608e+00 1.4461040436643167e+01 4.0309240702295863e+00 5 -2 -3
514 1 2.8887929911354640e+00 1.7111047396647557e+01 4.8208715570534402e+00 3 2 -2
573 2 6.9221210482636559e+00 1.6248133883368940e+01 2.7693194285144682e+00 0 2 -3
473 2 5.5577655505319825e+00 1.3055334962177602e+01 2.9883220953470260e+00 -2 -4 -2
572 2 5.8345950753586857e+00 1.5480986859766062e+01 3.2676024068540097e+00 0 2 -3
571 1 6.6655811071415663e+00 1.5926157137308733e+01 3.6121985823599698e+00 0 2 -3
523 1 7.7914025244396345e+00 1.7159089106148357e+01 1.0732397780403655e+00 1 1 -1
191 2 1.2707395646059375e+01 1.3626950191014137e+01 1.1040965536727807e+00 -2 -2 -5
166 1 1.0675258525266946e+01 1.5458325221709440e+01 3.9568367817130135e+00 -2 2 -2
168 2 1.1563735617706223e+01 1.5637018310300256e+01 4.2717862178624637e+00 -2 2 -2
119 2 1.0771653595612577e+01 1.5279846670696346e+01 1.8533328738574895e+00 2 -3 1
118 1 1.1087331446150849e+01 1.4676475928039222e+01 1.1728225160551409e+00 2 -3 1
167 2 1.0407973222671480e+01 1.6401383861327513e+01 3.7373895911210395e+00 -2 2 -2
264 2 1.0162100985877409e+01 1.3810583939170343e+01 4.5777752282771429e+00 -7 1 0
65 2 9.9126764507361749e+00 1.3477582419343353e+01 9.9493073057548154e-01 1 -3 -1
269 2 1.6085426334754857e+01 1.3568328002158047e+01 2.4333971674324473e+00 6 4 8
268 1 1.5911537135319950e+01 1.3378821752485393e+01 1.4620933353187429e+00 6 4 8
131 2 1.7065550781917302e+01 1.5168227894928359e+01 2.5814893534689434e+00 0 3 -8
132 2 1.6519795745131983e+01 1.6053937564252003e+01 3.8310323274743410e+00 0 3 -8
130 1 1.6731368167120536e+01 1.5141140617744346e+01 3.5395928195644513e+00 0 3 -8
502 1 1.4781474664856677e+01 1.3420479048547529e+01 4.6676066756454926e+00 -2 3 3
503 2 1.5362427455057098e+01 1.4013542796756875e+01 4.1989326466402153e+00 -2 3 3
566 2 1.5388803488271851e+01 1.7012798179788174e+01 6.8626003872173857e-01 -3 4 0
150 2 2.6561753459639279e+00 1.1650561867371881e+01 9.0997042180604701e+00 -2 -4 -2
148 1 2.9220266055739992e+00 1.2419383807417052e+01 8.6164072024498637e+00 -2 -4 -2
41 2 1.5313595456690259e+00 9.1252775455669148e+00 7.4562414877336867e+00 -3 -2 2
218 2 4.2918173075623880e+00 1.2728526728998455e+01 5.3945836278857424e+00 0 -1 -3
217 1 4.0880906822349150e+00 1.1867788992241820e+01 4.8799848288731544e+00 0 -1 -3