LAMMPS data file via write_data, version 15 Apr 2020, timestep = 0

1944 atoms
2 atom types

-2.0075062062922200e-02 4.0002180062059224e+01 xlo xhi
0.0000000000000000e+00 1.9714779383880010e+01 ylo yhi
0.0000000000000000e+00 2.0357352539099821e+01 zlo zhi
-7.9214092955908200e-03 -1.0577321828336039e-02 1.9901090452624004e-02 xy xz yz

Masses

1 16
2 2

Atoms # atomic

491 2 1.1307208357905514e+00 3.8298903625213212e+00 6.9354023326771195e+00 0 1 0
7 1 6.1376695242203927e-01 1.2910346237122209e+01 7.5521602653969415e+00 0 -1 0
1142 2 1.9787024649756773e+01 8.4401679299607046e+00 7.8592669935281767e-01 0 0 0
662 2 1.3080990986522298e-01 2.2387579799909729e+00 3.0100103471279440e+00 0 0 1
517 1 1.6069119501756404e+01 1.8902623496989466e+00 5.8617207558573341e+00 0 1 0
669 2 1.4649063164181648e+00 2.0826550243030093e+00 5.5407303566922943e+00 0 1 0
73 1 1.0866738705715314e+01 3.9033515710862288e+00 9.7782819209810281e+00 0 0 0
1817 2 1.3376431954444019e+01 1.3417761341494352e+01 9.9626088158818291e+00 0 1 1
912 2 7.9174195680830568e+00 1.9628714998040472e+01 8.3490444815424125e-01 0 0 0
1141 1 1.9218993372752820e+01 8.7227755233080408e+00 3.6934802212796367e-02 0 0 0
663 2 3.2544697412127344e-01 1.0783514733382893e+00 1.9686542109159439e+00 0 0 1
535 1 1.4974381991553544e+01 1.3218837155628350e+01 4.5383499241379113e+00 0 0 0
519 2 1.5470028591394042e+01 1.8746133303681509e+00 6.6545705528508066e+00 0 1 0
1146 2 1.9110585405538195e+01 1.5591046181034466e+01 7.6766557907655502e+00 0 0 0
481 1 1.6966702227332078e+01 1.0558037527052363e+01 3.7569385711045391e+00 0 0 0
733 1 1.2081405520106408e+01 1.5900075141609147e+01 8.5669939816221614e+00 0 0 0
1559 2 7.2871343755590559e+00 1.9633146384080234e+01 9.9260156183704122e+00 0 0 1
952 1 1.7582530317616204e+01 1.2346505112937859e+01 1.6064792317199816e+00 0 0 1
1804 1 1.3242832486895528e+01 1.2590204867722001e+01 6.8537124663953524e+00 0 0 1
1338 2 1.4802143681388905e+01 6.5772787262261776e+00 2.9915241747803365e+00 0 0 0
257 2 1.4437939818517755e+01 1.0484697008683113e+01 1.0222833173661086e+00 0 0 1
254 2 5.5386778099739686e-01 7.5694598792702985e+00 2.2005703426715923e+00 0 0 1
456 2 1.9165481997696745e+00 1.7714632469961686e+01 3.6552162044930161e+00 0 0 0
1563 2 2.0389168530599662e+00 7.6975713902756615e+00 9.8362738242947163e+00 0 1 0
1153 1 1.9050825179373046e+01 1.1597375448780978e+01 5.0281871468566823e+00 0 1 0
711 2 1.7275044918807787e+01 6.5506142584445177e+00 8.2931423994305700e+00 0 0 0
1323 2 1.9106660481482953e+00 1.5961286825784093e+01 5.5198816925558010e+00 0 0 0
518 2 1.5739425636334541e+01 1.1863046737802823e+00 5.2876796581724816e+00 0 1 0
963 2 6.1019550877175837e+00 1.0351956276682884e+01 5.9878239217988565e+00 0 0 0
749 2 1.4867237200586247e+01 9.1997643795948285e+00 8.1709782886780058e+00 0 0 1
103 1 1.8822830626066846e+01 2.3461342601156612e+00 4.0883020912237866e-01 0 0 0
889 1 2.0704888180434744e+00 9.7820470700012585e+00 5.9627144974324109e-01 0 0 0
1762 1 6.5931464995374189e-01 5.7636809530369950e+00 9.0660386920151170e-01 0 1 0
488 2 1.0509977866838270e+01 8.2214519247913103e+00 9.3280112790266223e+00 0 1 -1
901 1 1.6470306039928577e+01 1.6008806813418655e+01 4.7790536771829112e-01 0 0 0
75 2 1.1399725518657672e+01 3.1669831222538187e+00 9.4195406117585012e+00 0 0 0
954 2 1.7415562290668884e+01 1.3109287244514000e+01 2.1313590821552926e+00 0 0 1
671 2 5.2993691785527064e+00 1.0034250164952603e+01 4.0320887772581032e-01 0 -1 0
70 1 3.7256542725746100e+00 4.3940459067446200e+00 8.9370900331186287e-01 0 -1 0
1816 1 1.2503776301324766e+01 1.3341245490533296e+01 9.5571190028370037e+00 0 1 1
1098 2 3.7889504933862219e+00 5.4974314692666866e+00 7.0366087696446513e+00 0 1 0
1208 2 1.9511325228117929e+01 1.8272529587880367e+01 8.0810881319752230e+00 0 0 0
1566 2 3.4262205727757172e-01 6.7733528490859829e-01 8.9981198763037682e+00 0 1 0
528 2 1.7209391179997105e+01 1.8791008963062811e+01 5.9017748735432747e+00 0 0 0
529 1 1.4965814236907347e+01 1.9534404527290385e+00 8.3945763936193742e+00 0 1 -1
1809 2 1.8233205671604068e+01 1.8964847324395308e+01 1.1759376396096579e+00 0 0 1
486 2 1.1616808873598842e+01 8.9071070527397289e+00 3.4861372922777969e+00 0 0 0
262 1 8.9205079183158116e+00 1.4786940642049951e+01 2.6224196408553353e+00 0 0 0
1798 1 1.7295038225179749e+01 8.8349717357017337e+00 6.1042154279459861e+00 0 1 1
305 2 7.8968333469300926e+00 1.7306184973504685e+01 3.4578320230782311e+00 0 0 1
1803 2 1.6125418052782486e+01 1.4303543263801624e+01 7.8152086132196974e+00 0 0 1
263 2 8.6841946393434561e+00 1.3933803106472888e+01 2.3499632521873579e+00 0 0 0
258 2 1.3607199217678957e+01 9.1840801675783048e+00 1.3131197998260107e+00 0 0 1
726 2 1.8970864945467785e+01 3.1350615814150311e+00 6.1705732242836326e+00 0 0 0
902 2 1.7333210390691303e+01 1.6109696259699035e+01 8.4093541504986480e-01 0 0 0
1094 2 1.5243124281669457e+01 3.2484361595568165e+00 4.8376640003293199e+00 0 2 0
255 2 4.2841373505654962e-01 8.5738442521067935e+00 3.3852350427670919e+00 0 0 1
1354 1 6.1472188453830112e-01 1.9350962297570984e+01 1.5530676480041874e+00 0 -1 2
250 1 5.6858758781497052e+00 7.2043747846015105e+00 7.1970423839327511e+00 0 -1 0
713 2 5.6477309220734249e+00 5.0565981259327186e-01 7.0271760579356068e-01 0 0 1
443 2 7.4259187510880578e+00 3.3960277590448262e+00 1.9626956824797606e+00 0 1 0
19 1 2.4494430899920645e+00 7.4750909984093798e+00 7.2322254491675322e+00 0 0 0
63 2 8.3658748784764985e+00 1.7800269401149002e+01 7.9696462491014293e+00 0 0 -1
1158 2 1.4368452333690264e+01 7.3967752769542177e+00 8.8895959307362702e+00 0 0 0
1545 2 5.7110004114188442e+00 1.5465366047819568e+01 5.6910129269520331e+00 1 0 0
879 2 5.7020253206584766e+00 9.4239590446913528e+00 2.5392828689193050e+00 0 1 1
58 1 4.8281541199344580e-01 5.5764176273805575e+00 7.8584885148443462e+00 0 0 -1
1578 2 1.9480796983870057e+01 6.4971958549914826e+00 4.9414947109830027e+00 0 0 1
56 2 1.0776846209004669e+01 1.2866572151780153e+01 3.3585585610526547e-01 0 0 0
911 2 9.4668250809853216e+00 1.9525191566509484e+01 3.5320766646847829e-01 0 0 0
872 2 2.4359307922578770e+00 1.0319032461684635e+01 8.1258144864942761e+00 0 0 0
913 1 1.7076632718408018e+01 2.0262042689755604e+00 2.5991454654729194e+00 0 1 0
1087 1 7.0532051066835477e-01 8.4188677881828955e+00 9.5303580450330845e+00 0 1 0
1823 2 1.7849486079677096e+01 1.4467947296359457e+01 3.7760851828739410e+00 0 0 1
1154 2 1.8201291014988076e+01 1.1361045496676116e+01 4.5932530974734291e+00 0 1 0
1084 1 6.8137329505258526e+00 4.2301942452991312e+00 8.5444207845825098e+00 0 0 0
483 2 1.6999109888453876e+01 1.1150022173730516e+01 2.9963606899889195e+00 0 0 0
223 1 9.2343341747722203e+00 6.0487923509998174e+00 1.3921563968825073e+00 0 1 0
1307 2 1.1685309756603646e+01 1.8091669982497809e+01 9.0919421632192829e+00 0 -1 1
1351 1 3.1713822566098790e+00 7.2355810636407787e+00 3.4298521704721776e+00 0 0 1
750 2 1.4435769003948300e+01 8.1588827190100535e+00 7.1144571568829251e+00 0 0 1
1155 2 1.9028363293284599e+01 1.1247255313196971e+01 5.9529147275837531e+00 0 1 0
101 2 1.9132762714532198e+01 1.9501533466159803e+01 4.1399554153018174e+00 0 -1 0
736 1 1.4475986708763337e+01 1.0490341217740569e+01 4.1003606480623347e+00 0 0 0
949 1 6.0066585788649807e+00 1.7113880053280226e+01 5.9087660086962734e-01 0 0 0
1577 2 1.8678910192604391e+01 7.7244092829889066e+00 5.3122346001432108e+00 0 0 1
715 1 1.7364204895020400e+01 4.4323556787008993e+00 3.4955776911153658e+00 0 0 1
256 1 1.3634501126596312e+01 1.0169478135013204e+01 1.4515685439296984e+00 0 0 1
1162 1 1.4923038057909057e+01 6.3054972484323735e-01 3.4620005941453700e+00 0 1 1
77 2 1.8357832751325827e+01 9.7402268049420506e+00 7.1052369788052090e+00 0 0 0
1337 2 1.5954497302214635e+01 7.2715751014872190e+00 3.4605316815869656e+00 0 0 0
941 2 1.9006508810095763e+01 1.7381971492254717e+01 5.9918825060730905e+00 0 0 1
1322 2 3.4111769003594854e+00 1.6145293636081405e+01 6.0174152633673739e+00 0 0 1
492 2 2.5186353503200678e+00 3.4903180375130192e+00 6.9143909913537369e+00 0 1 0
20 2 3.1273841041305461e+00 8.0535923491892607e+00 7.6303126768119309e+00 1 0 0
537 2 1.5880217233522583e+01 1.3523645745676408e+01 4.0688200971667641e+00 0 0 0
1548 2 1.0006092920033328e+01 1.0147088932839074e+01 2.5175748026054796e+00 0 0 1
39 2 9.9742323245470921e+00 1.5254652763839273e+01 1.4778090779555364e+00 0 -1 0
33 2 4.6737435204381766e-01 1.4221024574517056e+01 1.1868713856257906e+00 0 -1 0
129 2 1.9941182368255010e+01 4.8625148021655145e+00 8.2135083895158190e-01 0 0 0
920 2 1.1789349830969647e+00 5.0649792918689718e+00 3.0246434985135879e+00 0 1 0
661 1 3.6698747554338045e-02 2.1015617290489970e+00 2.0866378547695028e+00 0 0 1
709 1 1.7331012614660875e+01 5.7016569779100905e+00 7.7364517311973708e+00 0 0 0
1092 2 5.7072803608502944e+00 1.5397063067012324e+01 8.3248381998099816e+00 0 0 0
1764 2 9.8158262790735629e-01 6.2705422669909234e+00 1.6301149684261448e-01 0 1 0
739 1 6.9961206997380616e+00 1.3742902292725780e+01 8.9401046802160273e+00 0 0 1
1157 2 1.3027544590509036e+01 6.9835005781954882e+00 9.4728989150114540e+00 0 0 0
1787 2 7.5293008531702101e+00 6.5994166286750522e+00 9.2752960381100358e-01 0 1 1
251 2 5.7571696696862791e+00 8.1560666068728001e+00 6.9245892776509184e+00 0 -1 0
1792 1 1.1608922851400555e+01 1.8900463789354554e+01 5.7736329703013709e+00 0 -1 1
719 2 8.2877154493038336e+00 7.4281779591956028e+00 6.2397172219967425e+00 0 0 -1
1605 2 1.4594276108032012e+01 4.6370668799073531e+00 1.2519527157986499e+00 0 1 1
1580 2 2.0773929906871706e+00 1.8036189025205282e+01 6.2570765820152738e+00 0 -1 0
64 1 1.0835825550297018e+01 1.0217235009826796e+01 9.0761164331211948e+00 0 0 -1
1806 2 1.2281108649800059e+01 1.2773210072853718e+01 6.6600373197685494e+00 0 0 1
1771 1 1.7606644330272076e+01 8.1798908822233223e+00 2.6315696183424717e+00 0 0 0
740 2 7.8550600820391479e+00 1.3160381187833353e+01 8.8357567287907877e+00 0 0 1
272 2 1.8405969145957055e+01 4.4546525528848724e+00 4.9411428069708361e+00 0 0 1
1733 2 1.4464749280910898e+01 4.9689516321151403e+00 8.9696540534719151e+00 0 1 0
67 1 8.2678914931046898e-01 1.5464331650538686e+01 8.2886857386913668e+00 0 -1 0
667 1 1.1944989525198759e+00 1.5818604509888639e+00 4.7510123197219167e+00 0 1 0
668 2 3.2730985632269716e-01 1.2380571287781759e+00 5.0268089821056385e+00 0 1 0
1523 2 7.2259919047230508e+00 1.2967959907695105e+01 6.3325693311258782e+00 0 0 1
497 2 7.3776843207636675e+00 6.2286747215221894e+00 8.8479317525293748e+00 0 0 -1
1784 2 1.0660008148310348e+01 6.8548935921656744e+00 3.9907529821878183e+00 0 1 0
910 1 8.6830384082000798e+00 3.4854210419955212e-01 2.4485384778714275e-01 0 1 0
1569 2 7.4022032595388341e+00 1.5230180582852805e+01 2.7261965530436498e+00 0 -1 1
102 2 1.8966059245519258e+01 1.1616886823811152e+00 4.8621356371309901e+00 0 1 0
485 2 1.2509538210374181e+01 7.8189038045484764e+00 2.7710251349311665e+00 0 0 0
454 1 1.1340782091153840e+00 1.8225335527440148e+01 3.7855611483323091e+00 0 0 0
273 2 1.8288119173475366e+01 5.2377168874756270e+00 6.3144459839319875e+00 0 0 1
1547 2 1.1234686825734078e+01 1.1089339198262513e+01 2.4129311667845563e+00 0 0 1
455 2 4.9776654522123809e-01 1.7677719446748533e+01 4.3191905921376144e+00 0 0 0
1564 1 4.5251470203080379e-01 1.9489861460896279e+01 8.7376339497162707e+00 0 0 0
923 2 1.0260272068188730e+01 6.0440531927958592e+00 8.0098152278528474e+00 0 -1 0
229 1 3.4986833296482969e+00 1.6957700504194751e+01 3.0129487790749088e+00 0 0 0
940 1 1.9262642248175613e+01 1.7991465563154328e+01 5.3394571156202053e+00 0 0 1
710 2 1.6460843392327018e+01 5.2301438985484525e+00 7.8534446352314831e+00 0 0 0
1800 2 1.6932268291029995e+01 9.5565563229437611e+00 5.5641994556581329e+00 0 1 1
685 1 8.6941326512639776e+00 9.1162826142784070e-01 4.0787501362927996e+00 0 1 0
873 2 1.2712873969883789e+00 1.1218051488779052e+01 7.5805742214701857e+00 0 0 0
1783 1 1.0246719346071790e+01 5.9740801984659369e+00 3.9886729265187135e+00 0 1 0
1539 2 1.5477248195441877e+00 1.4387909575273635e+01 4.2552867426767733e+00 0 0 0
1096 1 3.7121562295512911e+00 4.6226556881158647e+00 7.4509312422571501e+00 0 1 0
462 2 9.8573780200093655e+00 1.9699009614559593e+00 5.4386198780548520e+00 0 1 0
59 2 6.2721364849793859e-01 5.3267024454811951e+00 8.8142642997320717e+00 0 0 -1
1731 2 1.6389935108556223e+01 5.6635186845612626e+00 2.8623153852056377e-01 0 1 0
1086 2 5.9821771094127358e+00 4.0586075480279913e+00 8.9916410717230804e+00 0 0 0
530 2 1.4011627822882854e+01 1.6921690972671624e+00 8.4340706779468952e+00 0 1 -1
1825 1 1.4638442950337408e+01 1.3949571109101703e+01 1.2008286652608944e+00 0 0 1
748 1 1.5149205849670906e+01 8.3621577519406500e+00 7.7760343459417092e+00 0 0 1
720 2 7.9982397831508898e+00 8.8648177465595932e+00 6.8419371558711646e+00 0 0 -1
1133 2 8.7151461695449512e+00 4.9152101217441340e+00 6.4599525512259888e+00 0 1 0
1574 2 1.2901388374803492e+01 1.1942728323902182e+01 1.1440719252733087e+00 0 0 1
1794 2 1.0589136036754180e+01 1.9039781369904727e+01 5.9899191363960158e+00 0 -1 1
484 1 1.1967969060127658e+01 8.0132271449259385e+00 3.5571040690038869e+00 0 0 0
1799 2 1.6463807215521502e+01 8.6516872403910039e+00 6.6293755898666573e+00 0 1 1
1382 2 1.7810308627713002e+01 4.4104872615522286e+00 8.8617037938800731e+00 0 0 0
442 1 6.6298651160051891e+00 3.7910761565277715e+00 1.6049737511523217e+00 0 1 0
253 1 1.4594679929482116e-02 8.2751153048000461e+00 2.5533189823499320e+00 0 0 0
933 2 1.3505848663693651e+01 1.5875862528052233e+01 5.4098208291881740e+00 0 0 0
21 2 1.8646497131271278e+00 8.0300784021245004e+00 6.6059150130208630e+00 0 0 0
479 2 1.3424501782934774e+01 1.9169613084495669e+01 6.6059054604526368e+00 0 0 -1
62 2 8.3550018121008449e+00 1.7246224828801683e+01 9.4628595798712087e+00 0 0 -1
512 2 9.1593780226519090e+00 8.5634182571109296e-01 9.8645654484896887e+00 0 0 -1
737 2 1.4024472255151849e+01 1.0221264825273904e+01 4.9205834758227764e+00 0 0 0
321 2 5.1415410094861951e+00 1.7148200513725119e+01 1.0128517196960241e+01 0 -1 1
90 2 9.8344015063651220e+00 1.2894864450342286e+01 9.4919748553755028e+00 0 0 0
1773 2 1.8290417785407577e+01 7.8747816919912550e+00 3.2817501289343918e+00 0 0 0
1526 2 1.0508504348257377e+01 1.5337250596417444e+01 5.2946729857892194e+00 0 0 1
686 2 8.8418437944713606e+00 1.9659879812615888e+01 4.0233398621150132e+00 0 0 0
1592 2 1.7486386771125090e+01 1.2907491074760369e+01 9.4594859250107142e+00 0 0 0
961 1 5.3346245584168539e+00 9.8424013717211114e+00 6.2337556957482292e+00 0 0 0
71 2 2.9514587898935210e+00 3.8350537797071045e+00 5.6268275199787499e-01 0 -1 1
932 2 1.4510474870061222e+01 1.4754494313844676e+01 4.8637062133489124e+00 0 0 0
28 1 3.4116271348760212e+00 1.4408283236994633e+01 9.5039955182082707e+00 0 -1 0
8 2 8.6453265105827393e-01 1.2935871059254792e+01 6.5997834855118054e+00 0 -1 0
269 2 1.9141319122241594e+01 1.3165176895694829e+01 5.2290725638373656e+00 0 0 0
1103 2 1.0869115154027815e+00 4.1545981305236310e+00 2.2642765303363019e-01 0 1 1
877 1 5.0499845829386718e+00 1.0059148548588160e+01 2.0949209800658237e+00 0 1 1
233 2 7.8659298903876058e+00 1.5188087143389849e+01 6.8930240366442028e+00 0 0 -1
921 2 2.0227376896188116e+00 5.9254631913889719e+00 3.9409935556870601e+00 0 1 0
1136 2 1.3381313911441373e+01 1.4586082789847725e+00 4.5190743227380938e+00 0 1 0
919 1 1.5787355758583677e+00 5.0787988721829960e+00 3.9225622630761738e+00 0 1 0
526 1 1.6454439689482257e+01 1.8785772099719470e+01 5.2985334328219507e+00 0 0 0
743 2 1.2661077707221601e+01 7.1522764589456340e+00 7.5196019221360755e-01 0 -1 0
469 1 5.1081230059614500e+00 1.8776767766460274e+01 3.9671424139865930e+00 0 0 -1
1319 2 7.7789470843065578e-01 1.8300584265683259e+01 9.7562786144956934e+00 0 0 0
1308 2 1.2710807902950661e+01 1.8832659932857823e+01 9.9725076565548694e+00 0 -1 1
99 2 7.7984180345229417e+00 2.6959992660893257e+00 8.5765232545459185e+00 0 0 -1
228 2 8.8799524913639649e-01 1.1997025845773486e+01 2.2846001387765558e+00 0 0 0
1785 2 9.4014932607319892e+00 5.9332915421543930e+00 4.4263707652313045e+00 0 0 0
1085 2 6.5731606631504880e+00 4.3015097518770631e+00 7.6315949373301732e+00 0 0 0
676 1 3.7921313162624953e-01 9.1515300184983666e+00 5.1997223758557007e+00 0 0 0
478 1 1.4363245661056567e+01 1.8965059158612537e+01 6.7479949324219257e+00 0 0 -1
665 2 4.2576621362492908e+00 1.1591526898554156e+01 8.4446289955858003e+00 0 0 0
1368 2 1.6923187997490416e+01 1.7821557111795201e+01 4.1475642287918850e+00 0 0 1
1352 2 3.0908376132830870e+00 8.1211797002291455e+00 3.8011812034279808e+00 0 0 1
893 2 1.0778779616055784e+01 1.0348522145626092e+01 4.8331152451024249e+00 0 0 0
264 2 9.2377150357249747e+00 1.4686339475525729e+01 3.5638033425148219e+00 0 0 0
890 2 2.6597866029316348e+00 9.0212844830943393e+00 7.2556290424176229e-01 0 0 0
1395 2 1.3886057922624845e+01 1.7957435079790919e+01 2.7341563694845692e+00 0 -1 0
725 2 1.7868278838211324e+01 1.9318786227953020e+00 6.3821131909985356e+00 0 0 0
1822 1 1.7042454484622578e+01 1.4362264730193495e+01 3.3484162495653260e+00 0 0 1
704 2 3.9939249375478498e+00 1.8373959873150422e+01 6.6878478484096702e+00 0 0 -1
1734 2 1.4959942333323093e+01 3.4911451069834047e+00 8.5406318034212632e+00 0 1 0
891 2 1.6530516777154762e+00 1.0098477124469188e+01 1.4723024720792026e+00 0 0 0
1396 1 1.7352739717514417e+01 1.0697077037484235e+00 9.5583900898396568e+00 0 -1 1
85 1 9.1111229911933709e+00 1.8715728939373225e+01 6.3960272439575379e+00 0 -1 0
88 1 9.4492186055979186e+00 1.2443038401765252e+01 8.6985907682842534e+00 0 0 0
1163 2 1.4548231188028865e+01 8.4568467640876943e-01 2.5168380178655947e+00 0 1 1
1565 2 9.8865292851826592e-01 1.9384746130661348e+01 7.9099297773400608e+00 0 0 0
447 2 3.4470743592189059e+00 1.4953120079823979e+01 3.0088438716425725e+00 0 0 -1
964 1 8.9227530138477249e+00 2.5372715448551317e+00 1.9027380441149269e+00 0 1 0
76 1 1.9118597146181063e+01 1.0264822098694655e+01 7.4837267293236671e+00 0 0 0
472 1 1.7882191809885320e+01 5.7171529716282432e+00 1.0183685920172736e+00 0 1 0
735 2 1.2312035208430416e+01 1.4953790411784837e+01 8.8401222212365678e+00 0 0 0
244 1 1.1782582989504061e+01 1.6333201461625080e+01 5.8677928888831516e+00 0 0 0
1328 2 5.9871465015551006e+00 2.4531940244610952e+00 5.8192188887786731e+00 0 0 0
536 2 1.4659151750616108e+01 1.2326587472601862e+01 4.2372253513528433e+00 0 0 0
914 2 1.7878237084125075e+01 1.6674368241104125e+00 3.0411949848768014e+00 0 1 0
105 2 1.7957555717498515e+01 2.3557053064327111e+00 9.3180156003180470e-01 0 0 0
969 2 1.4101836465684672e+00 1.2136652690463396e+01 4.3063132768309105e+00 0 0 0
1381 1 1.7798114909979457e+01 3.6728724971385152e+00 9.4845155018693976e+00 0 0 0
939 2 4.6493458739222921e+00 9.8357867970189456e+00 7.6684030883268068e+00 0 0 0
738 2 1.3900544436580414e+01 1.0276460821285037e+01 3.3643821585102778e+00 0 0 0
37 1 1.0150146705663943e+01 1.5725684709815937e+01 6.2129030645942684e-01 0 -1 0
1370 2 1.2138335333937418e+01 6.2356579194667283e-01 8.5912102325860324e+00 0 0 1
898 1 5.4544092314003292e+00 6.3245449983592881e+00 4.6154575117542773e+00 0 0 0
1807 1 1.7287915737844504e+01 1.8788670411677895e+01 1.1829783641796738e+00 0 0 1
482 2 1.5993589585667998e+01 1.0359144169165498e+01 3.7412703766744149e+00 0 0 0
687 2 8.6643161027575868e+00 1.2764445108166171e+00 3.1862112678862151e+00 0 1 0
271 1 1.8958703194656909e+01 4.8494128646160624e+00 5.6746559348114562e+00 0 0 1
1326 2 4.5556287426655349e+00 1.2156766797462318e+01 6.3895021361402762e+00 0 0 0
734 2 1.2915680598392356e+01 1.6431094453714234e+01 8.7327564115354157e+00 0 0 0
316 1 1.3907032597907286e+01 1.5178612530685154e+00 9.7577570308842110e-01 0 0 1
1387 1 7.8453239056533697e+00 1.2452140042473477e+01 1.4996043017732379e+00 0 0 1
1369 1 1.2236151820374822e+01 1.5020297720525342e+00 8.1752391026016955e+00 0 0 1
716 2 1.7121728428342625e+01 3.4554609211926368e+00 3.3374023007247873e+00 0 0 1
1793 2 1.1962724493299897e+01 1.9566765068011005e+01 5.1444078235589474e+00 0 -1 1
937 1 4.1477238421958802e+00 1.0047164263006779e+01 8.4938917930332405e+00 0 0 0
1081 1 5.2749510513581130e+00 1.1260685788784806e+00 8.1095783014262164e+00 0 1 0
922 1 1.0252233174444907e+01 5.1562026197892497e+00 7.5997936489519171e+00 0 -1 0
306 2 9.4365194763657936e+00 1.7476675134140436e+01 3.5008879537292810e+00 0 0 1
878 2 5.0865277166165077e+00 1.0910452778494010e+01 2.5199977799636319e+00 0 1 1
1788 2 6.6231649231736167e+00 5.5443873396325820e+00 1.4361147893040616e+00 0 1 1
245 2 1.1667585434755900e+01 1.7296638485081807e+01 5.8415436522396194e+00 0 0 0
1123 1 1.7777966000781976e+01 1.8516530133681634e+01 8.0051210434735740e+00 0 0 0
1544 2 4.7289618784496401e+00 1.4307773382528715e+01 5.4538556296837148e+00 0 0 0
931 1 1.4429917930565200e+01 1.5702233328694600e+01 5.1844946098990787e+00 0 0 0
1513 1 7.2269249343525033e+00 9.3807054116301352e+00 8.4515642349757591e+00 0 0 -1
1543 1 4.8366076696554918e+00 1.5241360197341903e+01 5.2787088182521238e+00 0 0 0
1332 2 1.0143832455182007e+01 1.2683600298251955e+01 7.2093903818625700e+00 0 0 0
1606 1 1.3677440436616745e+01 7.1582332224595033e+00 5.8167254091823084e+00 0 -1 0
1525 1 9.9469802332717698e+00 1.4662648772618805e+01 4.8724966287257869e+00 0 0 1
31 1 4.1942016054284925e-01 1.3306213686647933e+01 1.0422230419206502e+00 0 -1 0
1824 2 1.6718329039777984e+01 1.5291405363376700e+01 3.2558615754406377e+00 0 0 1
89 2 9.8466356674088455e+00 1.1540294889368985e+01 8.8724249804285176e+00 0 0 0
446 2 3.6034687763135587e+00 1.4221967064636136e+01 1.6937906996982961e+00 0 0 -1
1371 2 1.1861948662000135e+01 1.3451183734417780e+00 7.2886467378163573e+00 0 0 1
959 2 1.2245074443949072e+01 1.7629213926416941e+01 3.5273742264273751e+00 0 0 0
1367 2 1.8159707319873483e+01 1.7138339142716408e+01 3.8633448429467818e+00 0 0 1
1336 1 1.5350968560326812e+01 6.5662199603558626e+00 3.7506718171514057e+00 0 0 0
1303 1 6.7035671313654426e+00 1.9331835463844261e+01 1.7170195696881672e+00 0 -1 1
470 2 5.1098524984099907e+00 1.8849607417329860e+01 4.9841749523836265e+00 0 0 -1
231 2 3.4515452436623870e+00 1.7274992038995435e+01 2.0992564757287946e+00 0 0 0
1113 2 1.1115971271014486e+01 1.8637498088531682e+01 1.3322613611182437e+00 0 0 0
1156 1 1.3972770970048694e+01 6.9084688034579074e+00 9.6617866718554009e+00 0 0 0
232 1 7.4936509521157690e+00 1.4774949777645046e+01 6.0634579880953199e+00 0 0 -1
225 2 1.0118308189085667e+01 6.2169535330755812e+00 1.0122428316211320e+00 0 1 0
1567 1 6.5218693624443320e+00 1.5707632854428997e+01 2.7460460121848631e+00 0 -1 1
951 2 5.9823791069718606e+00 1.6476531275410384e+01 1.3485254073581319e+00 0 0 0
1174 1 3.0405303413638420e+00 2.0750844128440256e+00 9.4108114268437095e+00 0 1 -1
871 1 1.5060673544629948e+00 1.0285137067099608e+01 7.8594493467137214e+00 0 0 0
703 1 4.9447499857685928e+00 1.8208463635241184e+01 6.5701214143711271e+00 0 0 -1
694 1 1.6358992892579362e+01 1.2382348925554433e+01 7.4014345876472518e+00 0 -1 0
1137 2 1.2355528735354737e+01 2.5889149782180176e+00 4.1541385358155347e+00 0 1 0
1398 2 1.7432330836799494e+01 2.0436828888177367e+00 9.3570581811565283e+00 0 -1 1
1772 2 1.7409356981463851e+01 9.1158780761648597e+00 2.8734704479762265e+00 0 0 0
452 2 2.3132893156880865e+00 7.1705189167831773e-01 3.6494717070658385e+00 0 1 -1
1321 1 2.4685618158645557e+00 1.6198453024065522e+01 6.2902163829364977e+00 0 0 1
1515 2 7.1607005072656138e+00 8.4199964423859921e+00 8.5843803909742782e+00 0 0 -1
1304 2 6.3974727828766493e+00 1.9563232289784558e+01 2.6037545614945596e+00 0 -1 1
449 2 1.3209229818566268e+01 1.4610445006855167e+01 3.2357273207422019e+00 0 0 0
1330 1 1.0608430364421261e+01 1.2780271724183050e+01 6.3123651974440822e+00 0 0 0
723 2 1.3257149493685517e+01 1.0713879001800281e+01 6.8649205914401046e+00 0 0 0
684 2 6.1664914781051685e+00 1.2423334945524216e+01 2.6814714905045407e+00 0 -1 0
903 2 1.6017725512948683e+01 1.6803325749782211e+01 8.7865229718042603e-01 0 0 0
227 2 2.3240198048621624e-02 1.0831783343414525e+01 2.6964303098986364e+00 0 0 0
958 1 1.1402900721809056e+01 1.7226849673273119e+01 3.1953659685901439e+00 0 0 0
490 1 1.6466377985967613e+00 3.0164711599819465e+00 6.8668765489307138e+00 0 1 0
953 2 1.8527782366800547e+01 1.2280263881031035e+01 1.3574112196710109e+00 0 0 1
1176 2 2.3909320733787074e+00 2.3578939481522823e+00 8.7449324827951873e+00 0 1 -1
471 2 4.3739883196614429e+00 1.9335194696249975e+01 3.6941602092014310e+00 0 0 -1
1329 2 4.9266836250532711e+00 3.5966087852497104e+00 6.2299579484557190e+00 0 0 0
1306 1 1.1830717209369649e+01 1.8923568201730433e+01 9.5761549298853499e+00 0 -1 1
1805 2 1.3409763077297804e+01 1.2875546495729873e+01 7.8028769409839107e+00 0 0 1
894 2 9.6689678559269439e+00 9.6436159508936612e+00 5.5758252413584817e+00 0 0 0
32 2 1.1648779574091734e+00 1.3141622606926715e+01 3.9452809252443516e-01 1 -1 0
1603 1 1.3927668367449364e+01 4.2941567995985679e+00 1.8872123717839606e+00 0 1 1
1778 2 1.1007054657716449e+01 4.5599578298253371e+00 3.4484510359484806e+00 0 0 0
1327 1 5.6289728331538331e+00 3.3612584975959479e+00 5.5952199232233797e+00 0 0 0
717 2 1.6560864483179444e+01 4.8521542147631891e+00 3.8323794643639988e+00 0 0 1
1801 1 1.6052705801013392e+01 1.5263769308507474e+01 7.6946639356585944e+00 0 0 1
1779 2 1.2140619167299725e+01 3.9282735734054279e+00 2.3867440186527347e+00 0 1 0
252 2 5.6614735251166461e+00 6.7133899153176282e+00 6.3467188156353513e+00 0 -1 0
487 1 1.0822736949233825e+01 7.3171226762430566e+00 9.4655789902926006e+00 0 1 -1
1355 2 1.3416906426043591e+00 1.9609402358284978e+01 9.4686212797115643e-01 0 -1 2
1754 2 2.0284145358704403e-01 2.8081866000823759e+00 1.0045257122950163e+01 0 1 0
722 2 1.2121997211419863e+01 9.6833804794201583e+00 6.4500487252530263e+00 0 0 0
1374 2 1.1258247150669037e+01 8.3051276357096659e-01 2.9718578083731342e+00 0 0 1
17 2 6.6188144441064090e+00 7.5025080893533609e+00 3.2350850999811014e+00 0 0 0
705 2 5.1387305841058355e+00 1.7416576085351725e+01 7.1516358826675397e+00 0 0 -1
1314 2 7.6510022516567480e+00 1.2507770634011308e+00 5.2258332656924686e+00 0 0 1
677 2 8.0046889290627393e-02 1.0012208119407404e+01 5.4976901547254000e+00 0 0 0
12 2 1.5237616407474486e+00 1.6341180751104218e+01 1.0308885159787657e+00 0 -1 0
1607 2 1.3159099720199160e+01 7.5961616479996046e+00 5.1466870932717708e+00 0 -1 0
1145 2 1.7624534520920761e+01 1.5702390121168694e+01 7.0502176415799971e+00 0 0 0
900 2 4.6444239847872195e+00 6.6976527373376982e+00 4.1876580220513837e+00 0 0 0
531 2 1.5488317396422172e+01 1.3087497434992230e+00 8.8682425422103766e+00 0 1 -1
1331 2 1.0447528604340009e+01 1.1873434025484480e+01 5.9282470726388219e+00 0 0 0
1325 2 4.7736100555434486e+00 1.2272785661451767e+01 4.7486391165266930e+00 0 -1 0
968 2 2.6564664132514229e+00 1.2774360859076078e+01 5.0641990671848705e+00 0 0 0
1312 1 7.0187466203641460e+00 1.1400903287574293e+00 6.0320297664856790e+00 0 0 1
1132 1 8.0647766136693413e+00 5.1085019599996917e+00 5.7958014883230309e+00 0 1 0
741 2 7.0910358480876008e+00 1.4236802345400315e+01 9.7876014360709807e+00 0 0 1
1538 2 1.0829798417970899e+00 1.5547062872903687e+01 3.1475363334617144e+00 0 0 0
16 1 6.8400656230255343e+00 8.4451092141227768e+00 3.3537412238938624e+00 0 0 0
1356 2 9.1915328751907921e-01 1.8865405703671751e+01 2.3646802941242777e+00 0 -1 2
1366 1 1.7312218140713025e+01 1.7277261548452781e+01 3.4230829640645752e+00 0 0 1
450 2 1.1877996910089719e+01 1.4276708590657897e+01 3.9715563962156391e+00 0 0 0
97 1 8.3952998958923573e+00 1.9553682950040436e+00 8.3744973300263421e+00 0 0 -1
744 2 1.4261233855314462e+01 6.9471932342206379e+00 8.8753996548205305e-01 0 -1 0
68 2 1.5422810155422453e+00 1.5803882167475363e+01 7.6553291894834228e+00 0 -1 0
87 2 8.8966851749429789e+00 1.8198620360573543e+01 5.5814328835568032e+00 0 -1 0
444 2 6.0834792466907324e+00 3.1683800418962842e+00 1.1367187711165585e+00 0 1 0
1732 1 1.4948088871134393e+01 4.4270795562673131e+00 8.2873475545454713e+00 0 1 0
962 2 4.6261762295185207e+00 1.0093296276858888e+01 5.5858697488687410e+00 0 0 0
1826 2 1.4792161688823967e+01 1.3194172005814899e+01 5.7910873704105981e-01 0 0 1
1598 2 1.7380887835532960e+01 1.5612835378729475e+01 1.0150359149641840e+01 0 0 0
718 1 8.2657198646096024e+00 8.3949641583977588e+00 6.0143809135945503e+00 0 0 -1
1111 1 1.0660804491370754e+01 1.8371797223765817e+01 5.0081454020355698e-01 0 0 0
78 2 1.9830391579623530e+01 9.7531550702026575e+00 7.7587066899487569e+00 0 0 0
230 2 4.2811719880529884e+00 1.7466622117639368e+01 3.4152623689737664e+00 0 0 0
967 1 1.6915649923159741e+00 1.2832874652044827e+01 4.9732260430036828e+00 0 0 0
666 2 5.3814335675787603e+00 1.2780395795551478e+01 8.5039927803987094e+00 0 0 0
18 2 7.0136191181615564e+00 8.5323510847305144e+00 4.3872651870868253e+00 0 0 0
1761 2 4.9850303634330215e+00 7.2677382739571188e+00 8.7260743455580725e-01 1 0 1
1144 1 1.8619107529092510e+01 1.5828535660288832e+01 6.8597566685310980e+00 0 0 0
683 2 4.8980830713658596e+00 1.3449413418390833e+01 3.0068515980374886e+00 0 -1 0
1568 2 6.0235163473175932e+00 1.5417129066373628e+01 3.5328435177366937e+00 0 -1 1
1388 2 8.1509544235687432e+00 1.1510321101444603e+01 1.6593120218232578e+00 0 0 1
527 2 1.5598455399448540e+01 1.8684665138144350e+01 5.8153418531064345e+00 0 0 0
226 1 9.4095997172762513e-01 1.1223023362965305e+01 2.8301605250874884e+00 0 0 0
1527 2 1.0113918521944685e+01 1.3853839226935062e+01 5.4254782771619894e+00 0 0 1
695 2 1.5714850607005699e+01 1.1871489149821681e+01 7.9602898108854854e+00 0 -1 0
1313 2 7.4483062097726149e+00 1.5950196560154968e+00 6.7795685414272802e+00 0 0 1
1390 1 1.4394792666058738e+01 1.7192547907102469e+01 9.0620404958195220e+00 0 -1 0
315 2 1.3218925629977397e+01 4.2709130689591825e+00 7.1321018519046930e+00 0 0 0
1134 2 7.5538806402561320e+00 4.3271643302342033e+00 5.6630437163192662e+00 0 1 0
74 2 1.0665563762565242e+01 4.5583540213089728e+00 9.0344858074718406e+00 0 0 0
1305 2 6.3748115517162827e+00 1.8448737404635075e+01 1.4547441130825085e+00 0 -1 1
474 2 1.7716448988532324e+01 5.3081838209450698e+00 1.9088200176781722e+00 0 1 0