LAMMPS data file via write_data, version 15 Apr 2020, timestep = 200000

972 atoms
2 atom types

1.8466003861969149e-01 1.9806392961381661e+01 xlo xhi
2.1610381630622300e-01 1.9774949183695085e+01 ylo yhi
1.2533922676622566e-01 2.0675432773234292e+01 zlo zhi
-1.1219874998289821e-01 -4.1238433543373754e-02 2.4169916190880153e-01 xy xz yz

Masses

1 16
2 2

Atoms # atomic

4 1 4.1836607279337059e+00 1.6011565579425135e+00 3.0670691298205810e+00 0 0 0
5 2 4.2765974052580731e+00 2.5507289398556199e+00 3.1435750249983458e+00 0 0 0
6 2 3.2813023520136912e+00 1.4072166833268165e+00 3.4462505040819265e+00 0 0 0
7 1 5.7990121641286398e+00 4.5112544366188638e+00 5.4462898152945121e+00 0 0 0
8 2 6.6221019298699542e+00 4.3872156193713359e+00 4.9937523833891113e+00 0 0 0
9 2 5.1799155787593643e+00 4.6132026214594397e+00 4.6863571130081549e+00 0 0 0
10 1 1.3741599712732604e+00 4.4494578564973786e+00 3.3868557621025190e+00 0 0 0
11 2 8.4059488060480303e-01 4.2259871541661935e+00 4.1690627267829425e+00 0 0 0
12 2 1.0823263928120914e+00 5.3027872997884975e+00 3.0025406031442183e+00 0 0 0
13 1 4.3523369877533504e+00 6.3051936770507755e+00 1.6217470810619272e+00 0 0 0
14 2 4.2155546515783566e+00 7.1481550640775087e+00 2.1120748159233962e+00 0 0 0
15 2 3.5441896171579272e+00 6.0866723921110877e+00 1.0843597832697669e+00 0 0 0
16 1 4.0760157957735572e+00 4.4621699569718576e+00 3.5667273810096685e+00 0 0 0
17 2 4.4337021362287397e+00 4.9001661286977214e+00 2.7088432434062968e+00 0 0 0
18 2 3.1235475354615896e+00 4.7457714516253047e+00 3.5645010537637929e+00 0 0 0
19 1 7.7996282999607247e-01 6.5633607186276999e+00 1.9861822794603523e+00 0 0 0
20 2 9.2075553900726470e-01 7.5289481354859165e+00 2.2840598271259847e+00 0 0 0
22 1 1.9881053573827339e+00 1.0543398927085037e+00 4.7943368656652385e+00 0 0 0
23 2 1.0125024684925119e+00 9.6591477460183794e-01 5.1187317144791908e+00 0 0 0
24 2 2.3735442705538738e+00 1.7267963688505321e+00 5.3918833715968439e+00 0 0 0
25 1 2.4846578382548841e+00 5.3988295367062138e+00 6.7951895977079610e+00 0 0 0
26 2 2.3476509457852006e+00 6.1616979687579176e+00 6.2111573621194482e+00 0 0 0
27 2 3.3028389053752329e+00 5.5835340136289693e+00 7.2958683612025528e+00 0 0 0
28 1 6.1539565382256862e+00 9.5480719746465270e-01 5.1226575447213145e+00 0 0 0
29 2 5.4784356393479134e+00 1.0547188019439289e+00 4.4145396574068991e+00 0 0 0
30 2 6.1353053727973634e+00 1.9540632018577103e+01 5.1826231913781129e+00 0 0 0
31 1 1.0538503678736737e+00 2.3713016949027010e+00 1.7651811085085172e+00 0 0 0
142 1 5.1370980931425523e+00 9.3012524320713581e+00 5.1835222217329679e-01 0 0 0
33 2 1.3421552410493178e+00 3.1705186000271510e+00 2.2808380177007965e+00 0 0 0
34 1 5.6661521312290306e+00 2.4555879046314728e+00 3.5221313704778467e-01 0 0 0
35 2 6.2619249755218007e+00 2.3843314295315174e+00 1.1574884020554732e+00 0 0 0
46 1 7.9166873589567786e+00 4.4986260853995468e+00 3.9849223122166966e+00 0 0 0
47 2 8.8909340619818540e+00 4.4131050050062024e+00 4.0363188549755913e+00 0 0 0
48 2 7.7212648140870748e+00 5.3304692676502148e+00 3.5097624754790506e+00 0 0 0
55 1 7.2477412614678558e+00 6.3228455143414779e+00 2.3929548311241668e+00 0 0 0
56 2 7.3378826896137133e+00 7.3070508130135163e+00 2.4399906394021604e+00 0 0 0
57 2 6.3640065606690523e+00 6.0985403967574854e+00 1.9867850735576000e+00 0 0 0
58 1 8.8005179896091779e+00 1.4706117260083940e+00 4.8752929241414336e+00 0 0 0
572 2 1.7058927065766852e-01 1.5474841533765080e+01 8.6546892479726623e+00 0 0 0
60 2 7.9132242728971107e+00 1.5442164693840255e+00 4.4592927881348441e+00 0 0 0
61 1 9.0420152513445444e+00 5.7023104572476671e+00 6.8406660401974113e+00 0 0 0
62 2 9.3150237926166675e+00 4.7992538015404671e+00 6.7884467285993724e+00 0 0 0
63 2 8.4098754889885381e+00 5.7671674764049934e+00 7.5682941616036468e+00 0 0 0
67 1 7.8563669971918975e+00 2.5016174707335503e+00 2.0288900626579887e+00 0 0 0
68 2 7.9168340438831191e+00 3.2769225662001884e+00 2.7266887624678624e+00 0 0 0
69 2 8.5895156673675110e+00 2.7649954545168489e+00 1.3671766262995544e+00 0 0 0
479 2 7.4747724223997025e+00 1.1614496768843049e+01 1.0092083398382670e+01 0 0 0
609 2 7.4042298663101676e+00 1.5768145978687919e+01 9.7216253045981080e+00 0 0 0
451 1 9.9002992132719225e-01 1.2660567356461479e+01 8.5967196773617296e+00 0 0 0
112 1 4.1584963466665332e+00 7.9921880919741897e+00 3.5835732680249923e+00 0 0 0
113 2 4.8343211563121411e+00 7.7304633297104157e+00 4.2425768612963513e+00 0 0 0
114 2 4.1905433478118077e+00 8.9482822431911178e+00 3.6753842514585111e+00 0 0 0
115 1 6.4114108887695167e+00 1.1029359366447180e+01 5.7125685572091580e+00 0 0 0
116 2 6.1641760461422539e+00 1.1979264497623731e+01 5.9530500960337376e+00 0 0 0
117 2 5.8329021020544944e+00 1.0412881832811459e+01 6.2663552709981314e+00 0 0 0
118 1 1.5941269860607248e+00 1.0996347457424104e+01 4.0533418643298997e+00 0 0 0
675 2 1.5304302597005408e+00 5.7533727843131901e+00 6.0656911633875532e-01 0 0 0
120 2 2.5778946678789030e+00 1.1128699624271983e+01 4.2181485550950208e+00 0 0 0
121 1 4.6256883004508582e+00 1.2387947468055650e+01 1.5776362759026241e+00 0 0 0
122 2 5.5838698702253424e+00 1.2347560665196529e+01 1.4459730176186807e+00 0 0 0
123 2 4.1433023455108113e+00 1.2292167567135431e+01 7.1962709572424322e-01 0 0 0
124 1 4.2816929207986760e+00 1.0936266003889440e+01 3.9884571567028235e+00 0 0 0
125 2 4.4313805190458311e+00 1.1477178531789381e+01 3.1857235825001284e+00 0 0 0
126 2 5.0365834579429496e+00 1.1014317607015892e+01 4.5759733848303341e+00 0 0 0
210 2 2.6066870327885999e-01 7.8849734547821759e+00 5.1470923954270527e+00 0 0 0
128 2 1.6787623240482887e+00 1.2368425164565410e+01 1.3067907156679590e+00 0 0 0
129 2 1.2468572476084256e+00 1.2082337685133947e+01 2.7760788231552871e+00 0 0 0
130 1 1.9078637018112936e+00 7.4891592625251837e+00 5.1042415994957180e+00 0 0 0
131 2 2.5457653948997399e+00 7.6278024078185229e+00 4.4089300834371121e+00 0 0 0
132 2 2.1527152506416982e+00 8.1438678057065115e+00 5.7839655786274351e+00 0 0 0
133 1 2.6070600523019114e+00 1.1876887885027314e+01 6.7687426018651644e+00 0 0 0
134 2 1.8880336791873489e+00 1.2129253409052085e+01 7.3670648668680521e+00 0 0 0
135 2 2.5817033157460090e+00 1.2606196204088876e+01 6.1282751678621521e+00 0 0 0
136 1 5.6327035000028403e+00 7.2281541913884473e+00 5.6900105192665835e+00 0 0 0
137 2 5.6552836358555671e+00 6.2776405270790399e+00 5.8496741505049021e+00 0 0 0
138 2 6.6416839244527539e+00 7.3748527455541906e+00 5.2900323289037736e+00 0 0 0
139 1 7.0808557585248233e-01 8.9782500913433516e+00 2.7144416923664605e+00 0 0 0
140 2 9.9376468198862189e-01 9.6516720332399260e+00 3.3730009024676071e+00 0 0 0
145 1 8.9855275210677679e+00 9.7999313920831845e+00 1.4267365589762496e-01 0 0 0
147 2 8.6580567820803935e+00 9.6431099398748739e+00 1.0361491693972136e+00 0 0 0
450 2 4.6052972534121679e+00 1.1206766613948435e+01 9.7608830192766707e+00 0 0 0
154 1 7.9840458613972141e+00 1.1051278615113651e+01 3.7075102638505260e+00 0 0 0
155 2 7.4858689784733636e+00 1.1073951571047189e+01 4.5463873174636289e+00 0 0 0
156 2 8.8665525559402809e+00 1.0884942093550812e+01 4.0046985093682741e+00 0 0 0
163 1 7.4044082948263572e+00 1.2885800746644838e+01 1.9550746718895990e+00 0 0 0
164 2 7.7017536618164311e+00 1.2312251859928558e+01 2.7029902432565920e+00 0 0 0
165 2 8.0582911790287426e+00 1.2802701752101090e+01 1.1945929762691150e+00 0 0 0
166 1 8.2191394604816068e+00 7.8029527653761974e+00 5.3781538579037429e+00 0 0 0
167 2 8.6799395107140587e+00 8.4123768790416076e+00 6.0108438715960775e+00 0 0 0
168 2 8.5699967926592233e+00 7.0044806655667227e+00 5.7754143593384208e+00 0 0 0
169 1 9.2187946099706810e+00 1.2293116210287923e+01 6.6841167969861317e+00 0 0 0
171 2 8.9227530723502060e+00 1.3038576000971455e+01 6.1208162354650835e+00 0 0 0
175 1 7.1019750772161148e+00 9.0658761562279242e+00 2.2476181463093399e+00 0 0 0
176 2 7.2459711712306101e+00 9.8488314277502536e+00 2.8674942953223113e+00 0 0 0
177 2 6.3112143106628267e+00 9.1685578423146374e+00 1.6782764568466197e+00 0 0 0
253 1 9.4070096196179165e+00 1.5548841603532946e+01 1.2977401911386069e-01 0 0 0
3 2 2.2377866867834078e+00 2.4304082359337955e+00 7.0976384705025874e-01 0 0 0
59 2 9.5035752401449702e+00 1.3773802171249756e+00 4.1648321440440395e+00 0 0 0
444 2 1.4580579846324726e+00 1.1557732566440885e+01 1.0183379228089278e+01 0 0 0
927 2 8.5108031719613688e+00 1.8564569308819138e+01 8.1991732714853260e-01 0 0 0
220 1 4.5620214800129810e+00 1.4481558217597833e+01 3.3258642432964116e+00 0 0 0
221 2 4.6082925545548310e+00 1.5395270575862686e+01 3.0108621677708709e+00 0 0 0
222 2 4.5749181611605119e+00 1.3817376552819372e+01 2.6379936633562724e+00 0 0 0
223 1 5.9876376257006791e+00 1.7658445950136301e+01 5.2918915340715147e+00 0 0 0
224 2 6.9256220891360067e+00 1.7416614091543469e+01 4.9585684290377312e+00 0 0 0
225 2 5.7099813230820500e+00 1.7083306068868144e+01 6.0133236842534092e+00 0 0 0
226 1 1.2134909529418052e+00 1.7559922093229822e+01 3.3330441700983346e+00 0 0 0
227 2 1.0698353664424203e+00 1.8179255723811444e+01 2.6028829206537623e+00 0 0 0
228 2 1.3596668804729022e+00 1.6720381202755014e+01 2.8439963655314791e+00 0 0 0
229 1 4.8574636171786452e+00 1.9157730413054111e+01 1.4675006782288098e+00 0 0 0
230 2 4.6337543433070714e+00 1.8340021370560073e+01 2.0131403161227910e+00 0 0 0
231 2 4.6799065565647959e+00 4.0489732392298017e-01 1.9711039103983246e+00 0 0 0
232 1 4.1604286756617652e+00 1.7285610333717745e+01 3.3411052350838353e+00 0 0 0
233 2 3.2113391878566282e+00 1.7452345525998169e+01 3.5688064304698512e+00 0 0 0
234 2 4.7554755690719386e+00 1.7558274482440574e+01 4.0979079659724960e+00 0 0 0
235 1 7.4118363096455986e-01 1.9221767249357129e+01 1.3026330081558988e+00 0 0 0
236 2 9.8142643259293472e-01 5.6126580165716478e-01 1.4439208433048349e+00 0 0 0
237 2 1.5990927253289366e+00 1.8921897116714174e+01 8.3031457560194344e-01 0 0 0
238 1 2.5333191639609067e+00 1.4143510288289704e+01 4.8558211731068575e+00 0 0 0
239 2 3.1311514859644958e+00 1.4436864709684572e+01 4.1233254795745413e+00 0 0 0
240 2 1.7023560233124886e+00 1.3888302234320221e+01 4.3799477248619834e+00 0 0 0
241 1 2.7924697805523198e+00 1.8708206705027809e+01 6.6746479059916464e+00 0 0 0
242 2 2.5875618872176913e+00 1.9124644752339663e+01 5.8463333207757282e+00 0 0 0
243 2 2.6021284303295529e+00 1.7790458563994953e+01 6.5558260790496385e+00 0 0 0
244 1 5.7263099198842928e+00 1.3616250497384566e+01 5.6346668480196627e+00 0 0 0
245 2 5.5076559189107757e+00 1.4219606302615379e+01 6.3053954847937446e+00 0 0 0
246 2 5.2291908627388155e+00 1.3750361500463256e+01 4.7874467773839813e+00 0 0 0
247 1 1.0580138793852147e+00 1.5244813915202460e+01 1.9423648554323165e+00 0 0 0
248 2 1.1611457178862867e+00 1.4281129238505502e+01 2.1057251179271246e+00 0 0 0
249 2 1.6315249813091719e+00 1.5432946770374647e+01 1.1791507871716651e+00 0 0 0
251 2 6.3401726963955394e+00 1.5731622738754128e+01 1.1931566899063437e+00 0 0 0
119 2 1.0884709003227595e+00 1.1105020279456982e+01 4.8574506391296213e+00 0 0 0
262 1 8.2608366083332729e+00 1.7381135743703013e+01 3.9777218810395900e+00 0 0 0
263 2 9.2749004102998800e+00 1.7256550256073186e+01 3.9909324920784912e+00 0 0 0
264 2 8.1035990124413715e+00 1.8176118755193365e+01 3.3962783109728045e+00 0 0 0
271 1 7.5694698320102960e+00 1.9352017227883085e+01 1.8708914845835007e+00 0 0 0
272 2 7.8265963089315616e+00 7.4620080570968983e-01 1.8711109577076745e+00 0 0 0
273 2 6.6079721099838968e+00 1.9229687915362327e+01 1.7678978812815862e+00 0 0 0
274 1 8.2826373001647902e+00 1.4372053600681610e+01 5.0749292616960915e+00 0 0 0
275 2 8.5377535564967406e+00 1.5168005182463189e+01 5.7098778662923664e+00 0 0 0
276 2 7.3117060458661545e+00 1.4272201710961840e+01 5.2549588836712529e+00 0 0 0
277 1 8.9044964124754724e+00 1.8710315040487369e+01 7.0329067634053901e+00 0 0 0
278 2 8.9782852291893143e+00 1.9385389753491570e+01 6.3452562582757013e+00 0 0 0
279 2 8.3606840562060167e+00 1.9151008443560180e+01 7.6854363044703575e+00 0 0 0
283 1 7.7374875463737034e+00 1.5447841055254537e+01 2.0474579701064846e+00 0 0 0
284 2 7.9132166088507425e+00 1.6079603507222032e+01 2.7802997707467481e+00 0 0 0
285 2 7.6683664621229548e+00 1.4505183361286546e+01 2.4685671283234272e+00 0 0 0
143 2 4.1581167653461186e+00 9.3912068144366998e+00 3.2674623723033513e-01 0 0 0
325 1 2.8754006905026275e+00 2.7802457765140631e+00 7.0536018569619943e+00 0 0 0
326 2 2.7419209757161140e+00 3.6721408026441438e+00 6.6578996955994318e+00 0 0 0
327 2 3.8466168513684904e+00 2.7097063070266620e+00 7.3286119884740302e+00 0 0 0
329 2 4.0436100679572267e+00 1.2511367233036164e+00 9.6260729077469893e+00 0 0 0
337 1 4.7299326849952941e+00 5.7327943662707233e+00 8.9274316191376126e+00 0 0 0
338 2 4.2366409038113284e+00 5.0856578905575889e+00 9.4984358335544918e+00 0 0 0
339 2 4.3825102915651462e+00 6.6029680085264006e+00 9.3525594098466183e+00 0 0 0
343 1 8.2888055224741020e-01 6.2890485174022208e+00 8.7303715344204385e+00 0 0 0
344 2 1.0678043061319580e+00 5.8465857882912822e+00 9.5544195917619401e+00 0 0 0
345 2 1.3800122376988664e+00 5.7531671096159007e+00 8.0685853199206576e+00 0 0 0
355 1 9.4258547860271547e-01 2.6038017468623589e+00 8.9992723725526425e+00 0 0 0
356 2 8.4159150342315570e-01 1.6677844065920855e+00 9.2240360646724504e+00 0 0 0
357 2 1.6591101561609731e+00 2.5875028836886571e+00 8.3208741061973477e+00 0 0 0
358 1 5.6004650485882186e+00 2.5670390135615069e+00 7.2833878080330674e+00 0 0 0
359 2 5.6779255500435131e+00 3.4333697171010287e+00 6.7838977504488174e+00 0 0 0
360 2 5.7847414843479941e+00 1.9501670509146123e+00 6.5284589253170751e+00 0 0 0
361 1 9.4163821137101635e+00 2.9876657775722020e+00 7.0184464204108528e+00 0 0 0
362 2 9.1325912827759677e+00 2.6381736302212047e+00 6.1526345651163306e+00 0 0 0
363 2 8.6437979044942761e+00 2.7913919910237630e+00 7.6588305811967663e+00 0 0 0
254 2 8.7269581804851217e+00 1.5482021611963903e+01 8.4754831325864111e-01 0 0 0
379 1 7.3557101251067420e+00 5.9518083863400779e+00 9.0088776543375229e+00 0 0 0
380 2 7.4146595315210986e+00 6.8948628724354233e+00 9.3503533934847436e+00 0 0 0
381 2 6.3680964518886407e+00 5.8805717676596556e+00 8.7962670210905269e+00 0 0 0
391 1 7.4101207897861574e+00 2.3632185852414795e+00 9.0089570239326306e+00 0 0 0
392 2 7.5310982795864616e+00 3.0842309596510815e+00 9.6146761140176142e+00 0 0 0
393 2 6.7074197971395595e+00 2.5087935988204357e+00 8.2197921970913068e+00 0 0 0
469 1 9.2030587303678093e+00 9.4744480297640692e+00 7.2552460719729694e+00 0 0 0
433 1 2.5575882713506828e+00 9.2242449435608762e+00 7.1675745667120196e+00 0 0 0
434 2 2.7746101891728978e+00 1.0215460454239048e+01 7.1245409095018699e+00 0 0 0
435 2 1.9950243379416088e+00 9.1270483879370961e+00 7.9363261029999803e+00 0 0 0
571 1 1.0137129778720260e+00 1.5274043175606122e+01 9.0842385593086910e+00 0 0 0
445 1 4.6225610344409720e+00 1.2493950687779488e+01 8.4702686722349743e+00 0 0 0
446 2 4.4265959261456640e+00 1.3258524402028257e+01 9.0438744568462486e+00 0 0 0
447 2 3.8645522831169838e+00 1.2472381348404793e+01 7.7808879469466126e+00 0 0 0
443 2 1.2848795608388006e+00 1.0026540293492898e+01 1.0377080632360377e+01 0 0 0
436 1 3.8964977638281124e+00 7.7464002549352307e+00 1.0344238775690561e+01 0 0 0
452 2 8.4734178296565832e-01 1.3607908973898743e+01 8.9923548562291824e+00 0 0 0
463 1 8.6182235550642738e-01 8.8454323132902903e+00 9.1498964361353110e+00 0 0 0
465 2 7.7947264964695229e-01 7.9081844586499255e+00 9.2256747514342958e+00 0 0 0
466 1 5.2082776908673658e+00 9.1304656378631321e+00 7.5968444796747550e+00 0 0 0
467 2 5.3249458702441910e+00 8.3826594162173187e+00 6.9172669396655078e+00 0 0 0
468 2 4.2144047337381076e+00 9.1339469953821641e+00 7.5824782211319697e+00 0 0 0
297 2 2.8249417789294640e-01 1.7671003050695735e+01 4.6518851433627750e+00 1 0 0
470 2 9.0887746598087453e+00 1.0367341870041942e+01 6.9373957556085379e+00 0 0 0
471 2 8.6022064598901125e+00 9.3618310876295272e+00 8.0071508084887171e+00 0 0 0
573 2 1.2779401228536560e+00 1.6125831728588651e+01 9.6271891733223569e+00 0 0 0
487 1 7.4860512450581913e+00 1.2628927777686586e+01 8.7709939196559610e+00 0 0 0
488 2 8.1425079266565490e+00 1.2537113332380494e+01 8.0582938322945168e+00 0 0 0
489 2 6.5775581029292649e+00 1.2397364367236849e+01 8.3921903033805538e+00 0 0 0
499 1 7.3946528025538898e+00 8.8593449152072452e+00 9.0745977329195817e+00 0 0 0
500 2 7.3804291343713517e+00 9.6117905036496971e+00 9.6737016579134902e+00 0 0 0
501 2 6.5570868727857796e+00 8.8297046723506227e+00 8.5994386944484678e+00 0 0 0
558 2 4.3817827337935240e+00 1.7965884741996224e+01 9.7091954249670831e+00 0 0 0
150 2 9.4962603853995056e+00 7.7707888100465743e+00 4.1464426534374068e+00 0 0 0
541 1 2.3382189898509051e+00 1.5990834210934059e+01 6.8071924182101231e+00 0 0 0
542 2 1.8134700809974256e+00 1.5930441146433916e+01 7.6063854187169104e+00 0 0 0
543 2 2.0518185979637069e+00 1.5232119659412657e+01 6.2536067779795630e+00 0 0 0
553 1 4.4810704867188296e+00 1.9434884540698469e+01 8.6487044425752586e+00 0 0 0
554 2 5.4497247336265744e+00 1.9315086182896270e+01 8.6527836169107832e+00 0 0 0
555 2 3.9770292593402043e+00 1.9162868553321104e+01 7.8454405864573120e+00 0 0 0
557 2 4.5783923948937240e+00 1.6465638447119272e+01 1.0140404457795990e+01 0 0 0
559 1 8.6193886276678522e-01 1.9343938987109006e+01 8.6065063677600850e+00 0 0 0
560 2 1.4212146603133844e+00 1.9310899372792136e+01 7.8154641819706105e+00 0 0 0
561 2 1.3060333111603371e+00 1.8701227239894838e+01 9.2888961693590151e+00 0 0 0
711 2 8.3637438749853530e+00 5.7114730078457416e+00 7.1452625204680853e-01 0 0 0
574 1 5.1032376525104048e+00 1.5878237395937854e+01 7.0814653752983707e+00 0 0 0
575 2 5.4526521727668378e+00 1.5850585438287627e+01 8.0164881567512332e+00 0 0 0
576 2 4.1735739307313953e+00 1.5870209488856101e+01 7.1275780537703106e+00 0 0 0
577 1 9.2157774912693711e+00 1.5958636047486145e+01 6.9871406688351927e+00 0 0 0
578 2 8.9094465167835430e+00 1.6927344698114329e+01 6.9640153015106447e+00 0 0 0
579 2 8.5961473132661421e+00 1.5696777942021670e+01 7.7139690996675121e+00 0 0 0
127 1 1.0467445157011088e+00 1.2690509646602896e+01 1.9504002218739152e+00 0 0 0
595 1 7.2671719332964377e+00 1.9383181064084500e+01 8.9998055179485803e+00 0 0 0
596 2 7.3394402714060636e+00 7.5399467800181752e-01 9.3397604284343672e+00 0 0 0
597 2 7.1918008134573297e+00 1.8815925681678426e+01 9.7912481823700226e+00 0 0 0
607 1 7.2390515073744464e+00 1.5288751263625018e+01 8.8608577515935742e+00 0 0 0
608 2 7.2538734351894893e+00 1.4332268331397053e+01 8.9694121733599488e+00 0 0 0
258 2 9.7444775312473872e+00 1.4011641185754812e+01 3.8168112064372259e+00 0 0 0
109 1 2.6165720887902304e+00 9.3201911493062717e+00 3.2339711931736903e-01 0 0 0
111 2 1.9261801676074559e+00 9.2550144814881659e+00 9.6162718380397727e-01 0 0 0
2 2 3.6823353435018675e+00 2.3938027893895160e+00 2.3129813927010853e-01 0 0 0
335 2 1.1341574187143801e+00 3.8637248955593573e+00 1.0384945636357902e+01 0 0 0
218 2 3.7284498120119296e+00 1.5367058440007352e+01 3.3177906839675397e-01 0 0 0
437 2 3.8622090083635880e+00 8.7642889260315222e+00 1.0230315680075172e+01 0 0 0
544 1 4.3879999412065231e+00 1.4652180775556573e+01 1.0071621275333687e+01 0 0 0
250 1 5.6420867702513062e+00 1.5869828661208574e+01 5.3701922459016105e-01 0 0 0
550 1 1.6644642993158663e+00 1.7483991783435972e+01 1.0399521604656412e+01 0 0 0
891 2 3.8131537238785720e+00 1.8666933345311385e+01 4.9561259717813966e-01 0 0 0
925 1 9.2411087069384283e+00 1.8225697155526461e+01 2.0878604926412525e-01 0 0 1
372 2 7.7473665885424765e+00 4.9415701072316525e+00 1.0179415276152488e+01 0 0 0
442 1 1.5438625549999663e+00 1.0832179749867871e+01 1.0824943802283183e+01 0 0 0
787 1 5.6738058626277976e-01 9.0403450070851274e+00 1.6059505199383125e+01 0 0 0
883 1 1.0229254674889963e+00 1.9200311694843311e+01 1.5571894221637500e+01 0 0 0
905 2 9.8445014018836066e+00 1.4408601706646692e+01 1.7537438604445288e+01 0 0 0
39 2 9.3405540463373775e+00 2.6917387312134076e+00 1.9930129591897053e+01 0 0 0
707 2 9.3148493979700433e+00 1.1874286368570193e+00 1.8008436842230896e+01 0 0 0
331 1 5.8334135769916404e+00 5.0004161721465019e+00 1.2493970616032440e+01 0 0 0
332 2 6.7113673932669959e+00 4.7293899264812804e+00 1.2165973443695504e+01 0 0 0
333 2 5.2083143506624525e+00 4.5869030441173413e+00 1.1853217483586029e+01 0 0 0
587 2 8.9188339467141553e+00 1.7380948378055592e+01 1.0723773683439338e+01 0 0 0
602 2 9.8377885665555809e+00 1.9081341038808510e+01 1.3953013656257999e+01 0 0 0
330 2 4.3184644391283227e+00 1.1554679986780110e+00 1.1130423394352846e+01 0 0 0
346 1 1.7301457530086657e+00 1.0189768664023022e+00 1.2020130048322246e+01 0 0 0
347 2 2.3318772843324607e+00 1.2071057449356162e+00 1.1239819336803629e+01 0 0 0
348 2 2.0607926279274480e+00 1.7153445672528158e+00 1.2627204157007299e+01 0 0 0
349 1 2.5195666288257650e+00 5.6828398144367966e+00 1.3770650375990568e+01 0 0 0
350 2 2.2303488205411806e+00 6.4003873719784874e+00 1.3121203389350644e+01 0 0 0
351 2 2.4236380698847402e+00 4.7617897497034898e+00 1.3369094018549646e+01 0 0 0
352 1 5.5861656255389107e+00 1.1788390525311088e+00 1.2364382490750357e+01 0 0 0
353 2 6.4909054577768748e+00 1.3247163628094751e+00 1.2038787121995750e+01 0 0 0
354 2 5.5345289140298002e+00 1.9801792301645950e+01 1.2664506066464696e+01 0 0 0
384 2 8.9737902943482108e+00 1.3719893049363350e+00 1.1165411342591190e+01 0 0 0
382 1 8.3361595000025179e+00 1.3576641016117341e+00 1.1904238904573777e+01 0 0 0
383 2 8.6821358147051253e+00 5.7209667201805592e-01 1.2453744899373957e+01 0 0 0
889 1 2.9989951423849512e+00 1.8531314968016446e+01 2.0532566597630542e+01 0 0 0
385 1 8.8138632851409611e+00 5.7448434192300484e+00 1.3749231245901518e+01 0 0 0
386 2 8.8871146582116918e+00 4.8056270967730192e+00 1.3538254563803411e+01 0 0 0
387 2 8.2524264695175447e+00 5.9455643515107202e+00 1.4539830067678242e+01 0 0 0
341 2 2.9432819682345199e+00 4.4503392030778492e+00 1.1115660212071980e+01 0 0 0
334 1 1.2257079562971387e+00 4.6296766994279555e+00 1.0929536580474744e+01 0 0 0
439 1 5.8271506376693809e+00 1.1176007392917318e+01 1.2773149131380386e+01 0 0 0
440 2 5.6239240323939574e+00 1.2158548072703988e+01 1.2782643623022270e+01 0 0 0
441 2 5.3419847772591087e+00 1.1000819513057261e+01 1.1854398464246053e+01 0 0 0
219 2 2.9141896171483830e+00 1.6824426958880665e+01 2.0426440638493879e+01 0 0 -1
454 1 1.8691668128854200e+00 7.6939433530929335e+00 1.2079715874209034e+01 0 0 0
455 2 2.6351979489038238e+00 7.6545857960715535e+00 1.1451778114594948e+01 0 0 0
456 2 2.0128412733537995e+00 8.4532017724761204e+00 1.2682599316462282e+01 0 0 0
457 1 2.4675743247625168e+00 1.2443318055166845e+01 1.3460416332285190e+01 0 0 0
458 2 3.4216432051230212e+00 1.2528203508733570e+01 1.3737359009876513e+01 0 0 0
459 2 1.9313979576592637e+00 1.2418746239776262e+01 1.4259483740045395e+01 0 0 0
460 1 5.7645909095006385e+00 7.7085874138045192e+00 1.2271443675705441e+01 0 0 0
461 2 5.7729832426741439e+00 6.7557367527682466e+00 1.2491215388912790e+01 0 0 0
462 2 6.6989978374281378e+00 7.9930023029264090e+00 1.2107609440726835e+01 0 0 0
336 2 4.6758568086123775e-01 4.6228923076898951e+00 1.1593562026042109e+01 0 0 0
480 2 7.1727570526174498e+00 1.0952017413384084e+01 1.1446588385435978e+01 0 0 0
586 1 7.9805541707487722e+00 1.7079097484795494e+01 1.0798461827334796e+01 0 0 0
490 1 8.5690141384275389e+00 8.1035360089829744e+00 1.2366078823191350e+01 0 0 0
491 2 8.6463785363000536e+00 7.2662975537522740e+00 1.2846205008573644e+01 0 0 0
492 2 8.8753748874818452e+00 8.7696113942248441e+00 1.2985944421740419e+01 0 0 0
493 1 8.9234869574428703e+00 1.2360075391403141e+01 1.3661541722219319e+01 0 0 0
494 2 8.2087147466575257e+00 1.2526009060769480e+01 1.4362429813224443e+01 0 0 0
495 2 8.7440856556794913e+00 1.3023675405361564e+01 1.2900948641954551e+01 0 0 0
599 2 9.0874783055036854e+00 1.4080012351277226e+01 1.1129845394346768e+01 0 0 0
926 2 9.0866488310061584e+00 1.7521711072667507e+01 2.0546352909274180e+01 0 0 0
876 2 9.6701591826080047e-01 1.7802243976770505e+01 1.8374028019519912e+01 0 0 0
858 2 3.1145178732440293e-01 7.7954167780515311e+00 1.8652717472731524e+01 0 0 0
902 2 9.3029512313964791e+00 1.7298758937145131e+01 1.3389705384106067e+01 0 0 0
252 2 5.7117331788190731e+00 1.6820460812372644e+01 2.0477233589414819e+01 0 0 0
547 1 5.6636302742483462e+00 1.8173053864830756e+01 1.2476829567263991e+01 0 0 0
548 2 5.0243298999540738e+00 1.7877742333595638e+01 1.1835862994238475e+01 0 0 0
549 2 5.8459151808930825e+00 1.7427375604943091e+01 1.3162628631650032e+01 0 0 0
551 2 1.0703181955043415e+00 1.7656730319602907e+01 1.1133831411941742e+01 0 0 0
562 1 2.2190902563101265e+00 1.4465667727575841e+01 1.1718029946057948e+01 0 0 0
563 2 1.2580197632249617e+00 1.4573842827025430e+01 1.1710161137371076e+01 0 0 0
564 2 2.2675839401145041e+00 1.3685754729761381e+01 1.2363966599897338e+01 0 0 0
565 1 2.7529186207160108e+00 1.8655363030297679e+01 1.3614552797189823e+01 0 0 0
566 2 2.5844762329540467e+00 1.9334044607260729e+01 1.2924389301293928e+01 0 0 0
567 2 3.5623633067063949e+00 1.8916497400025353e+01 1.4079412435155232e+01 0 0 0
568 1 5.8658425689181595e+00 1.4127311492246983e+01 1.2234470377962941e+01 0 0 0
569 2 6.8666695395826611e+00 1.4155407649202804e+01 1.2124588919698336e+01 0 0 0
570 2 5.8457886418194880e+00 1.4595772145005004e+01 1.3069757867581334e+01 0 0 0
545 2 3.5746405321771366e+00 1.4712796539184543e+01 1.0599999363859245e+01 0 0 0
933 2 8.5648248405027552e+00 1.5920431871638097e+01 1.4924010452221234e+01 0 0 0
588 2 7.6253664731013986e+00 1.7568451874816812e+01 1.1548175998594415e+01 0 0 0
598 1 8.4986281630622997e+00 1.4234084591606949e+01 1.1840754144713712e+01 0 0 0
513 2 2.5851635644471249e-01 1.1015107968537398e+01 1.1994681386183197e+01 0 0 0
600 2 8.5932590160138762e+00 1.5121615340956820e+01 1.2216071726417660e+01 0 0 0
601 1 8.9170046701509076e+00 1.9004562799346822e+01 1.3606863571493630e+01 0 0 0
603 2 8.3738125525877027e+00 1.8931302289460433e+01 1.4451197895044148e+01 0 0 0
679 1 1.0154137149129663e+00 2.3105033217400708e+00 1.5628532579046121e+01 0 0 0
710 2 9.0632145696762105e+00 4.9375658145977575e+00 2.0283892644692404e+01 0 0 0
649 1 2.8661474324736140e+00 2.8247993015590334e+00 1.3769597903830306e+01 0 0 0
650 2 3.7271862290620104e+00 2.9463505674961077e+00 1.4092782998073469e+01 0 0 0
651 2 2.2458588754815292e+00 2.7406122219412792e+00 1.4555702237328616e+01 0 0 0
652 1 4.4836377553618041e+00 1.9680015653677279e+00 1.6869960101188362e+01 0 0 0
653 2 4.3435887725834519e+00 2.9391967794813083e+00 1.6815255130678704e+01 0 0 0
654 2 4.9831190848025777e+00 1.7121077317263753e+00 1.7683018579635270e+01 0 0 0
655 1 5.9571474530046098e+00 4.8301969302464309e+00 1.9443414994852830e+01 0 0 0
656 2 6.0751486177743086e+00 5.7817250082347433e+00 1.9592706289985486e+01 0 0 0
657 2 6.6759194408541047e+00 4.6338685480118338e+00 1.8779211290402916e+01 0 0 0
658 1 1.1950391641075195e+00 4.5061083303127063e+00 1.7425721444933259e+01 0 0 0
659 2 1.0257503473219907e+00 3.5915976929820754e+00 1.7110604749132499e+01 0 0 0
660 2 9.4386782106632072e-01 5.1483916546520430e+00 1.6682853098530828e+01 0 0 0
661 1 4.9309845186893178e+00 6.0498155387558157e+00 1.5360848917192117e+01 0 0 0
662 2 4.7493351093500413e+00 5.2555400849607263e+00 1.5953495276078131e+01 0 0 0
663 2 4.0855835803090459e+00 6.0152444844236905e+00 1.4784706078952953e+01 0 0 0
664 1 3.9996448891849830e+00 4.3840564643641580e+00 1.7378588350621353e+01 0 0 0
665 2 2.9888248682650906e+00 4.4556164707135091e+00 1.7329168691545476e+01 0 0 0
666 2 4.3315047038721231e+00 4.8331601999528271e+00 1.8196870864717365e+01 0 0 0
146 2 9.0013254581530777e+00 1.1006395001302122e+01 2.0516944140992177e+01 0 0 0
668 2 6.1428355540814550e-01 7.1571145411755221e+00 1.5582989237903234e+01 0 0 0
669 2 1.3289635771341426e+00 5.9435557491161308e+00 1.4889481569196606e+01 0 0 0
670 1 2.3072030680094144e+00 1.2835122861190267e+00 1.8388051669147487e+01 0 0 0
671 2 2.5445948203348960e+00 1.8802016422318131e+00 1.9093962090706768e+01 0 0 0
672 2 3.0567136712834988e+00 1.4444820246917072e+00 1.7771151722602731e+01 0 0 0
676 1 6.0482879424170761e+00 1.1950674195126010e+00 1.8924114314548397e+01 0 0 0
677 2 5.8825344898951384e+00 1.8051126427333286e+00 1.9771406996288885e+01 0 0 0
678 2 6.9732073702770876e+00 1.2705758213397749e+00 1.8657650644827044e+01 0 0 0
798 2 9.7215296869982009e+00 8.3813783902303456e+00 1.7496742037712643e+01 0 0 0
371 2 8.8667992254998254e+00 3.9103084485147299e+00 1.0859060195878520e+01 0 0 0
681 2 1.2064827201315167e+00 1.3656106799216641e+00 1.5695631560601392e+01 0 0 0
682 1 5.5913829393202947e+00 3.1084576371611794e+00 1.4251600360742083e+01 0 0 0
683 2 5.6752329989079442e+00 4.0602373607385704e+00 1.3751341350934268e+01 0 0 0
684 2 5.6175615482155798e+00 2.4098788735371994e+00 1.3591211095002114e+01 0 0 0
685 1 9.2725491082986142e+00 2.9835561202118845e+00 1.3653579605912869e+01 0 0 0
687 2 8.8932505468127960e+00 2.6075700214489212e+00 1.2839614003726433e+01 0 0 0
694 1 7.9203142306795096e+00 4.4015548804689715e+00 1.7640353567881917e+01 0 0 0
695 2 8.8878303769370994e+00 4.4868231672147392e+00 1.7839254928616644e+01 0 0 0
696 2 7.6963395058074289e+00 3.6915923638971657e+00 1.7079925641477420e+01 0 0 0
703 1 7.3770478876716075e+00 6.3031914645456801e+00 1.5752066793527796e+01 0 0 0
704 2 7.5442226190305366e+00 5.7230104348163664e+00 1.6480734620313694e+01 0 0 0
705 2 6.4198706709256204e+00 6.1993992802975590e+00 1.5566962535339085e+01 0 0 0
706 1 8.7963959130671157e+00 1.0945384768179975e+00 1.8837351198310547e+01 0 0 0
709 1 9.0235690671539750e+00 5.8988793110479705e+00 2.0506864390958182e+01 0 0 0
708 2 8.9376850721777696e+00 1.9868275854880004e+01 1.9297309326017395e+01 0 -1 0
715 1 7.7378564121880666e+00 2.5669723455806568e+00 1.5660914739413460e+01 0 0 0
716 2 6.8964895503594343e+00 2.9092718287058079e+00 1.5226716068972047e+01 0 0 0
717 2 8.4422869702252044e+00 2.5750081811859968e+00 1.4927874970019603e+01 0 0 0