LAMMPS data file via write_data, version 8 Apr 2021, timestep = 1740000

1008 atoms
2 atom types

0.03203614142356191 20.640490515807592 xlo xhi
0.03203614142356191 20.640490515807592 ylo yhi
0.03203614142356191 20.640490515807592 zlo zhi
0 0 0 xy xz yz

Masses

1 16
2 2

Atoms # atomic

200 2 11.432047831078881 0.6328427603933837 6.425322808801937 0 1 2
703 1 5.193473176384164 9.519966930758628 9.045369183022265 1 -1 -1
270 2 5.18527108477471 0.7830873094614306 0.3648917326981627 0 -1 -3
627 2 16.599919041358273 5.845155642466447 2.230445084768236 2 2 0
811 1 13.640778999988216 3.373225883039186 1.3182389076997936 1 -2 3
994 1 15.803003305866222 2.491159206606037 0.4744937429985009 -2 0 -1
267 2 2.9635428389151177 8.67224805338496 0.6508230179525686 1 1 1
76 1 2.6065486393338264 4.394369667976005 9.041387833847768 0 -2 -1
380 2 12.356991430142429 9.058483594143704 7.236980388748576 2 -2 0
626 2 17.13141974826978 6.6210517418862045 3.4895553015381475 2 2 0
118 1 11.314900979081145 1.7668229613851767 5.026171550984055 -1 0 -2
569 2 2.216612004489595 1.9167965801207405 4.141946430664833 1 -2 1
231 2 10.550273366171629 6.474174607262712 8.803605079228383 2 1 0
382 1 18.881236947525377 9.014045453260321 0.8871844895870196 0 -1 0
850 1 6.981162678781481 4.459976818618924 2.6732230065485525 0 1 1
271 1 13.929328051010515 10.207363031891548 9.75502351856275 0 -1 -1
181 1 11.106064952943942 9.846523148974445 6.3624740898718475 0 0 1
716 2 10.393972963821598 0.421373628799933 1.3287185652516582 -1 1 0
255 2 1.7585887088711 5.85689495641319 10.179159991118466 1 -2 0
922 1 6.364663189788145 7.919837560264347 4.313603919363758 1 1 3
117 2 9.909877313257658 6.418691083406357 4.239099567213119 -1 -4 0
590 2 19.432800689374616 2.7661342124916777 4.339963849452155 2 0 -1
819 2 10.455651570262427 6.47405037078043 1.1733766319391101 -2 1 1
611 2 1.3852132143012836 10.309516026924923 0.7661580675166736 -1 3 0
617 2 14.973381961107254 9.680983172116052 0.831610245273428 0 -1 3
921 2 12.988959227574107 0.9399772513527929 7.810953582870262 -1 0 -2
579 2 15.455968529763739 2.5176434097589997 5.279367740396798 0 0 1
767 2 9.34779428594373 8.77288978830704 2.8209501205142273 1 -1 2
383 2 18.522646334702152 8.718596899291992 1.8070126903201018 0 -1 0
235 1 11.323366519582434 4.742303144779542 8.63248163322042 -2 2 -3
57 2 20.242816503646782 10.062393213731735 4.61780113350753 -4 0 1
30 2 12.266865389045899 7.502302526854238 1.0538441755711627 -1 0 2
670 1 4.463844661395926 6.055469976119345 8.14359195235263 -1 -3 0
960 2 18.795634815665906 0.42914257632726915 6.813906024571412 1 1 2
48 2 20.173899590817904 1.5786733229504504 1.0949061484380038 0 -2 2
809 2 12.417033787767238 1.7690295096832365 3.7849132898991935 0 1 3
543 2 0.10166755477704914 4.996770075925706 4.752339763634294 -2 0 -1
69 2 10.124193578580345 4.1898243197499 2.927651817573825 -3 -1 2
248 2 2.90488208738672 4.264922242128158 1.4396420126464975 1 1 0
437 2 1.8191568900647623 6.571249505259399 5.694887700681474 1 0 0
951 2 20.497176015299107 5.898912219762529 1.0199317648438517 -2 1 -1
923 2 5.646201588691985 7.716601356413521 3.6600067141151547 1 1 3
991 1 11.525029847243998 4.271154308485378 5.956629062842388 0 2 0
763 1 6.429646419850563 1.9426991859990324 3.277534177463516 4 0 1
872 2 3.5009747650250302 10.26847983375487 4.7008009146713015 -1 1 1
589 1 18.627866614905532 2.2405361405860864 4.272653833162938 2 0 -1
693 2 7.303122175521103 9.126956641041323 6.776494479263196 0 -2 0
982 1 8.327909919139255 1.4729371350245357 4.988935908636306 3 3 0
29 2 11.766394790485931 8.126125704373305 2.307807656905806 -1 0 2
766 1 8.656216426971875 8.725926062652515 2.1617847526833867 1 -1 2
50 2 4.712912402035429 7.736098793653186 1.5148990386723076 -4 0 0
397 1 16.44136374064506 4.555468501391677 7.53940839191831 4 0 2
555 2 18.454885349736777 6.891194617356464 10.129265447187858 0 -1 -2
236 2 12.24590109920078 4.4294655322055485 8.790429231647074 -2 2 -3
384 2 19.836187152397965 8.744849678793894 0.9225530049139563 0 -1 0
801 2 8.029197869688408 6.903658767469497 6.591756451829657 -1 1 -2
970 1 18.918397324444108 5.292373586451811 7.397402980469038 2 -1 -1
817 1 9.541923475215745 6.368116324194691 0.9861370204767099 -2 1 1
347 2 7.127611445788181 1.4874259662812597 8.005538593835984 -2 2 1
582 2 5.37587862761366 3.539005853213512 6.550691604754117 -1 0 0
336 2 5.149406620006482 0.12028922389448933 3.7786672967508115 2 3 -1
754 1 15.318816388882599 6.424277048413606 9.187087150535657 -1 0 3
717 2 10.110046747990909 2.0544589410412217 1.2688650447789256 -1 1 0
790 1 5.593935168720784 1.5446036417447333 8.93296503712348 1 0 2
833 2 17.856331199639733 8.507157992551639 4.175007779809785 -1 0 0
424 1 14.195664772084463 5.002750571404952 5.941055769603593 0 1 2
756 2 16.13721210973668 6.8110186615845985 9.572599325078885 -1 0 3
64 1 9.87856025861248 7.975369434151569 4.496042959653408 1 3 0
140 2 13.707568796513483 2.5863445882080547 9.398559937150464 0 -3 -1
221 2 19.364438094893167 1.2528111232040648 3.168938701124016 -2 3 1
436 1 0.9395432350578483 6.2762074270554296 5.933937032519265 1 0 0
289 1 0.19336882671431516 3.119899325545536 7.167295384202566 3 2 1
972 2 17.902127136789485 5.147135906752775 7.341359494819313 2 -1 -1
959 2 19.915839538930108 1.3222562903273447 6.451835296633404 1 1 1
873 2 3.679928807977759 8.912852715630166 5.563658868657905 -1 1 1
568 1 2.136724464737205 2.488740938028451 4.937527397454743 1 -2 1
577 1 14.92841083197359 1.7142640564892833 5.416419390311502 0 0 1
765 2 6.745571375135416 2.884986708533436 3.0183379952175162 4 0 1
422 2 4.01659390433489 5.710739492935842 3.111771606006838 1 -1 2
641 2 13.999193377485907 9.311429879682013 5.138331420954084 2 2 -3
945 2 2.630273772930258 0.05567445289788874 2.065172254306126 2 -1 -1
59 2 0.5270622916950654 10.194122937072025 6.392947415572933 2 1 0
219 2 17.104987632229214 3.2952062329674043 4.5313774972601575 -4 3 -1
847 1 7.358530063397129 5.582991621188198 5.613441911468292 0 -1 -1
46 1 20.26292521871347 2.110365826021597 0.24845213332015692 0 -2 2
302 2 19.655744625074412 9.377358879672922 10.001941387959814 0 -2 -1
949 1 0.34167739910946265 6.826593050985374 0.8452137099554092 -1 1 -1
60 2 1.4581980570065114 9.897975078811498 7.535053136167996 2 1 0
268 1 5.929290249628344 0.6335741599227265 0.9587591152304923 0 -1 -3
800 2 8.976002862700922 7.575073613550967 7.649991358617676 -1 1 -2
263 2 3.717043858501722 2.9444308562850887 5.028177917576981 -2 2 -1
139 1 13.319907439426885 3.2472603778906466 10.049427489319475 0 -3 -1
708 2 1.9744683016107192 7.729352453260324 8.861849058016304 -1 0 0
852 2 6.318784548722427 4.968138903078346 3.1832162832863653 0 1 1
637 1 3.7253326396123114 7.123776577839988 5.682508503391738 0 -1 1
218 2 16.410199273806686 4.570425884410829 3.9142549699290186 -4 3 -1
764 2 6.221762632027068 1.5446826696930998 2.3969076306506434 4 0 1
445 1 0.9930961801366189 0.5341404804789887 8.957615884158205 2 -1 2
56 2 0.8666851287734161 9.020640192643508 4.214355394963882 -3 0 1
536 2 15.153505870367587 9.913066251516954 3.093817865821828 -1 -3 3
545 2 15.233346556374284 7.867959883935793 6.077365129601117 -1 -2 1
735 2 16.791131900021714 3.9807585587685512 0.6561326695164801 0 0 0
425 2 14.32860865415663 5.941055400415138 5.731179328454194 0 1 2
229 1 10.187512283916705 7.377741254562664 8.778472356345194 2 1 0
262 1 4.634920723047215 3.2514901246034436 5.096932502511897 -2 2 -1
68 2 10.192947416368906 4.08380883079693 1.496831005692322 -3 -1 2
249 2 1.9981619655952074 5.584279330177368 1.3869453704532386 1 1 0
496 1 17.125620368898215 2.3457441935627408 8.933738470188633 -2 -1 -2
944 2 1.2564736059753772 0.7417809497944944 2.4534165911893884 2 -1 -1
462 2 7.870749788845915 4.591266268139391 9.62572721126649 -2 0 1
851 2 7.902686439756286 4.771928399275432 2.855559816545482 0 1 1
182 2 10.554436130123975 10.012104172559948 7.13751869498481 0 0 1
958 1 19.443799442371827 0.5435483332709539 6.143777428519101 1 1 2
591 2 18.748729586222847 1.6175668754883128 5.023280553957078 2 0 -1
535 1 15.544292046551165 9.375774853671786 2.3950996414457406 -1 -3 3
671 2 5.018391619836183 5.28366429560801 7.866708303376752 -1 -3 0
906 2 1.1682093291389901 7.48209473447796 2.4407548776904795 0 0 -1
237 2 10.675811141789412 4.149929989857178 9.047612661226855 -2 2 -3
398 2 15.900450584699392 4.404975281700156 6.736601975347617 4 0 2
995 2 14.964421051512488 2.955220246342568 0.6430099155531265 -2 0 -1
77 2 3.2757442413672155 5.03411757860464 8.617383471162473 0 -2 -1
639 2 3.988888260531598 6.939903188546626 6.588218551884804 -1 -1 1
651 2 19.95044809469249 4.363140745397606 2.6900578949057183 1 2 1
345 2 14.304149594438982 0.16715598733098658 9.124874440700104 0 3 0
799 1 8.376155215786847 7.812060124029725 6.88652994328888 -1 1 -2
818 2 9.130866392886803 7.162942081158473 1.327331260700111 -2 1 1
791 2 5.359898038569716 0.8771093881790959 8.309388936624899 1 0 1
924 2 7.036817840777635 8.429089906404625 3.8190997248701604 1 1 3
264 2 5.135120844908566 2.693067494211578 4.454616758113948 -2 2 -1
813 2 13.535054928069881 4.048421686720308 2.0220003084021805 1 -2 3
51 2 4.671481718023041 9.154658286796577 2.166910551778197 -4 0 0
638 2 4.319858218241474 6.726788120004672 5.0640979692899375 0 -1 1
920 2 14.352238231373606 1.4874014032740093 7.267889378913682 -1 0 -2
115 1 9.743772341416465 5.36601661907352 4.275497033115264 -1 -4 0
301 1 19.084605879638886 9.313071609512239 9.193345305130729 0 -2 -1
678 2 16.828812636078364 9.715178396918349 6.280733427302809 0 -2 1
650 2 18.73780624619495 4.627830729284412 1.695167525944621 1 2 1
706 1 2.261951176181348 8.276476325249572 8.157052827798294 -1 0 0
897 2 13.086454638386064 6.155308627506508 2.689302638462016 -1 0 1
120 2 11.443863978139055 2.657863141018124 5.491480502740044 -1 0 -2
692 2 5.773858123280794 9.414799711680827 6.271835052467175 0 -2 0
676 1 16.782949987243985 8.729398296670867 6.171863029175305 0 -2 1
47 2 20.111904826107327 3.009292880905797 0.5411010891683815 0 -2 2
498 2 16.790332449274228 3.1267910272270316 8.417432614325554 -2 -1 -1
423 2 4.465683136518556 4.703552596174966 4.228672254579731 1 -1 2
715 1 10.076996043679456 1.2090261709801946 0.7468330979466524 -1 1 0
269 2 6.75378752159845 0.8050698922687969 0.4133226694490402 0 -1 -3
707 2 3.2541223419053225 8.315654464913885 8.213243345062196 -1 0 -1
849 2 8.238437032374415 5.404361852244182 5.126814604588739 0 -1 -1
677 2 17.674712587293747 8.464192895538908 6.441427345156944 0 -2 1
247 1 2.895801207183405 5.234541594647541 1.5053724627774676 1 1 0
460 1 7.254037314883123 5.21218020231473 10.072721559781971 -2 0 1
905 2 2.613803490672603 8.071231716480545 2.8652015518399003 0 1 -1
220 1 19.927085494841393 0.734684885851673 2.4895810519762405 -2 3 1
522 2 16.166329503924896 0.8161648057777535 1.3973537593821292 0 0 1
490 1 19.42344411418396 8.233986669688601 6.8245769347203575 0 -1 0
691 1 6.536671670661941 9.803811334473501 6.777784167882411 0 -2 0
755 2 14.694945481474598 7.129354179221765 9.182658914198893 -1 0 3
705 2 5.782329954117185 9.799075916479394 8.330834648408125 1 -1 -1
86 2 5.431635472469739 8.040222046700567 9.956910420519787 1 -2 -2
562 1 19.600383898447376 5.664897128879982 9.842834016839266 -2 3 -2
546 2 13.833679091209962 7.815131557477948 6.817904190599704 -1 -2 1
904 1 1.634721306585203 8.135167493154169 3.0571316472777887 0 1 -1
640 1 14.16262940756002 10.068736472425384 4.481464128278364 2 2 -3
399 2 15.945561083991153 5.201498601965817 8.134562524810336 4 0 2
642 2 13.434003012145917 10.180486270678042 3.9207946061312073 2 2 -3
379 1 12.626240758809152 8.609806435755692 8.044288117624589 2 -2 0
570 2 2.0083572885886136 1.8423054667666772 5.667391704582673 1 -2 1
497 2 16.536274199620618 2.2550695113020414 9.743829636749432 -2 -1 -2
205 1 11.92011618464582 9.789037509760949 2.9516626394541765 -1 -1 1
810 2 13.268780730660643 2.1352813693584416 2.5828402291542787 0 1 3
768 2 8.93198508939952 9.347437605947857 1.4340467951396378 1 -1 2
839 2 17.209071572216015 0.7107116650912804 8.162573451180872 4 2 1
143 2 3.3888450020959624 0.3948723712152305 6.904947624128099 0 -1 -2
581 2 6.71137943369713 4.212784858655267 6.842616999485371 -1 0 0
142 1 2.4556617683896733 0.5169088345485872 6.748467182225799 0 -1 -2
733 1 17.362292147466288 4.768057436555252 0.8108131353203152 0 0 0
207 2 11.256658767076486 10.330336412079266 3.449974704038495 -1 -1 1
144 2 1.9204568751816382 0.4678074130379507 7.5496806469757995 0 -1 -2
291 2 20.548302071240226 4.016078010732219 6.880153459292769 2 2 1
49 1 4.232306340048198 8.300752669886704 2.1941358433788536 -4 0 0
346 1 8.044057687476638 1.53765126159193 7.667862645118006 -2 2 1
544 1 14.27880462900378 7.809975017896647 5.944155636309622 -1 -2 1
290 2 20.34270483735165 3.14128597872337 8.054540814233862 2 2 1
111 2 15.988373183111234 0.24263682298464068 4.956778560917435 -1 0 -4
971 2 19.08318327426253 6.179590638991579 6.971130642235318 2 -1 -1
438 2 0.725345964257257 6.671485553180442 6.760566362402296 1 0 0
217 1 16.270080097766783 3.7737688292925764 4.501392886846604 -4 3 -1
919 1 13.734313639372447 1.4896767705431182 8.047473235169582 -1 0 -2
866 2 6.626377020317129 9.58395518166443 1.577621371798965 2 2 5
421 1 4.710630619604427 5.523699230504926 3.725521179853756 1 -1 2
992 2 11.208302544939547 4.267993719905298 6.905247380414462 0 2 0
541 1 20.611477843945853 4.129100506674671 4.403083375448222 -3 0 -1
348 2 8.135126210240449 1.6932441993075111 6.709514828980099 -2 2 1
580 1 5.88037182116614 3.9404462514609753 7.251095165297407 -1 0 0
65 2 10.715702661214802 8.477640890640965 4.599686854831593 1 3 0
578 2 14.271054998028236 1.6796398849335603 4.662832852907206 0 0 1
993 2 12.502494176762097 4.534648061744296 5.944483942614757 -1 2 0
834 2 19.24971971706504 7.893263522441157 3.625655067133852 -1 0 0
896 2 14.465416700176224 5.580667468858722 3.0109729596310513 -1 0 0
625 1 16.350291977699108 6.176413506448319 3.1257293168910536 2 2 0
381 2 13.094576509747535 9.209395923463358 8.647711542905652 2 -2 0
895 1 13.534611842576792 5.366727422720984 3.0667704693602262 -1 0 1
860 2 6.8045890804451625 9.893529738266166 10.042293018005068 2 1 0
542 2 0.8053751765622282 3.588508585747423 4.628842101214622 -2 0 -1
357 2 2.857381838749335 1.9639490032707885 1.3497162203270479 -3 3 -1
989 2 9.636181060730538 2.6259149187969935 10.163167807989321 2 0 1
426 2 14.347551945426247 4.526260501763706 5.069618531839282 0 1 2
355 1 3.209513020908624 2.680745341478757 0.8685227356210197 -3 3 -1
770 2 8.911906644200887 0.1974719656271552 8.271363780301613 3 0 0
492 2 19.649371388641597 8.71961167967306 7.632799342982669 0 -1 0
119 2 10.398649271725258 1.8382584538427806 4.6795238799107 -1 0 -2
990 2 8.983960347792204 2.4514446554574945 8.748194482713755 2 -1 1
848 2 6.93599965931697 6.215105155326906 5.002582411172238 1 -1 -1
943 1 2.23828442473451 0.844340818389743 2.4569593875816436 2 -1 -1
812 2 12.960872152594508 3.5400288921192002 0.6493104965254978 1 -2 2
983 2 7.568017109689664 1.5529250814013804 4.375954940811218 3 3 0
303 2 18.995287291619533 10.236294175133063 8.837671370466067 -1 -2 -1
491 2 19.900114151455607 8.647414962573558 6.015983141738736 0 -1 0
649 1 19.760784829226186 4.704829521682579 1.7882768329287477 1 2 1
67 1 10.05475566851488 3.505500174620643 2.2396922184722925 -3 -1 2
66 2 9.486191218527564 8.080803728573475 5.392811100515566 1 3 0
988 1 9.2528219548214 3.1222276311189385 9.429002179048734 2 0 1
116 2 10.306465763905644 4.90325832729536 4.948190617980746 -1 -4 0
55 1 0.18625456295598825 9.266623209385344 4.904770578371948 -3 0 1
28 1 11.975739348249967 7.242058108439918 1.9636518793355608 -1 0 2
672 2 4.866602256569456 6.292263264200351 9.011931489249868 -1 -3 0
114 2 20.198703192863945 1.7397945768970047 9.512862884195645 0 0 1
792 2 5.585861193221299 2.329116304739602 8.3257036297371 1 0 2
78 2 2.0123761899417114 3.9009752239821363 8.384525252901405 0 -2 0
832 1 18.309344375351948 8.039319054447617 3.438858520432789 -1 0 0
230 2 11.012569581945023 7.8559146238388955 8.535499576176704 2 1 0
808 1 13.20110550627214 1.4960647561856968 3.286961789303053 0 1 3
564 2 19.300197220182046 5.5961726365244235 8.913073249428319 -2 3 -2
871 1 3.914003136139439 9.859544802444395 5.514138790564714 -1 1 1
537 2 15.425546386901768 8.48300944267939 2.662298190327103 -1 -3 3
253 1 1.3103933835945403 6.738665765686725 10.303789269505488 1 -2 0
865 1 5.915938343491139 10.299959924760671 1.7738572521488292 1 2 5
138 2 4.042949983389666 0.7486102710695364 9.879943905654892 1 -1 2
350 2 7.2152668712060555 3.9249884379484747 0.8104371931952912 2 1 -1
211 1 6.01605928047397 6.978323076984014 0.1645923371399378 0 1 -2
704 2 4.501979523369016 10.19608076021278 9.19139034425589 1 -1 -1
447 2 1.7337738451435623 0.47968919752554956 9.582219858751476 2 -1 2
113 2 18.797681925971787 2.419500056703254 9.251988171747966 0 0 1
112 1 19.669496879039237 2.567448383022399 9.506289248624006 0 0 1
859 1 7.724389938427725 9.777956726758001 10.327464533639505 2 1 0
254 2 0.46258170094241563 6.434202440832235 9.969579096823049 1 -2 0
553 1 17.63469267502364 7.42637111981731 10.116984625687449 0 -1 -2
554 2 17.84623033365024 8.234583304496672 9.62690255168199 0 -1 -2
783 2 8.984136547790824 10.154860762383434 8.808648510794658 0 0 2
213 2 6.231398690441252 6.06060058937991 0.3592238230582723 0 1 -2
984 2 8.158900427496022 0.5870449286174574 5.238362075811082 3 3 0
563 2 19.31603235869015 4.852266024350336 10.302919458557717 -2 3 -2
593 2 3.5411617024944655 5.236584743718452 20.25042777041222 0 2 0
561 2 7.49500440948122 2.908645360709815 11.91463232731314 3 1 2
196 1 19.71639100939776 3.343060125818045 17.282417410445845 -2 1 0
646 1 2.9543616653074314 5.7942018961334885 15.978238398921816 2 -1 3
814 1 11.127227946896777 5.1014088632512955 15.756097839158057 0 -2 0
137 2 3.1843786667527887 1.3164379487559108 10.96127717149445 1 -1 2
161 2 18.873349013429515 2.1277015108253052 19.93482552663554 2 0 -1
748 1 15.07993823573874 3.1366434522921396 18.185018300877662 1 3 4
169 1 4.4501124184647445 6.396738567009316 14.027726627208672 3 2 -1
167 2 16.5221375013082 9.875727896449302 17.559146221608987 -1 -2 -2
669 2 19.830519970824493 9.398883583965567 19.59703783840448 -1 2 0
604 1 8.628302952388932 0.6576934370335229 17.20594026593429 0 0 2
659 2 9.29500885581563 3.5260920857712135 16.09508600830255 1 1 0
1004 2 15.902531744064 5.076439943381192 16.295020744453552 2 -1 0
778 1 13.839421675795656 4.987996394472114 13.996504412301888 1 2 -1
722 2 7.37549196063611 7.113886241105188 15.403515733363259 -1 1 -2
121 1 17.965704277912412 0.12407759384052555 11.643369836691665 -1 1 -1
208 1 10.425031113500538 2.0960432073409625 13.394720700380153 -2 1 -3
967 1 16.60898850376802 8.030081029162945 12.461575357180504 0 -2 2
125 2 12.797187528572547 0.6200872509612968 19.6991023362009 1 0 -1
940 1 18.972930243553307 1.5764388261552886 13.574127239746453 0 0 1
879 2 2.405081779891803 0.18584811010251195 14.43570572099776 2 2 1
902 2 20.331490133551643 6.008468801380924 18.366425351411262 -3 1 0
739 1 15.31688013424417 4.468706553848315 11.589480917904872 -2 0 1
351 2 8.035390209197883 4.141997579507577 20.128756095144116 2 1 -1
655 1 4.95590789126567 7.020156615447494 17.481144908274356 4 -1 1
95 2 1.5446976296529937 9.488412134584623 14.82775442040178 4 -2 -2
286 1 8.035418559807315 9.613254314750831 17.76006644449165 3 3 -1
72 2 4.6092557824154605 8.622843506617867 16.881762166217264 0 -3 0
969 2 16.85158512556195 7.42052984277864 13.129863627486413 0 -2 2
952 1 14.278649083213061 8.259964153045061 11.294542095385609 -1 2 1
323 2 4.34206329534309 0.39501115644236356 13.396384720162795 1 -1 -3
942 2 19.899534762835206 1.8990755570447564 13.74352765254492 0 0 1
828 2 3.0312978891779006 8.82955639320526 13.179012526015638 1 -1 0
594 2 2.8364450378471204 4.287474784574459 19.17469779077206 0 2 0
318 2 3.6682393119122336 3.436788553690533 11.929147854363807 1 0 0
606 2 7.779527971831522 0.5501471086064159 16.67783957820116 0 0 2
21 2 5.303449258937081 3.0816779353565846 16.91767504141705 -3 1 -2
822 2 3.766302613978183 7.41053860547416 11.380417435602626 -2 -2 0
855 2 8.082767875222597 8.248002168848469 11.273036273678503 -1 -1 1
272 2 14.120468187622203 9.506596505677503 10.38657175309488 0 -1 -1
633 2 20.162315998220894 9.22216055573047 12.778414644342213 -1 0 2
122 2 18.423175697056923 0.7545999887432924 12.244790108820958 -1 1 -1
133 1 6.471112051436244 0.34218798400922723 15.638582066614365 -1 -1 -1
210 2 9.726907322992178 2.7468274785874374 13.498349246435854 -2 1 -3
157 1 0.9589447829685597 2.5995628495288927 14.177922169415881 3 1 -2
141 2 14.038321235309551 3.5744144835735256 10.657903328426942 0 -3 -1
246 2 11.497898348362808 0.9106844192992937 10.731667089161883 0 3 0
85 1 5.173364342847251 7.19996485086203 10.422122730875273 1 -2 -2
930 2 1.5447303927533789 3.008749938358587 15.713861488342792 2 0 -1
186 2 18.658249950325448 9.949149175932206 16.259371905225073 4 1 0
684 2 9.113715096166908 7.066750730396051 20.009902716927204 -1 2 -1
185 2 17.99450595317801 8.567106995675015 16.502124292699946 4 1 0
132 2 13.934271520794177 5.97883268946288 18.15978797065003 1 1 -3
773 2 1.1187971175901925 2.629634772376802 19.460195329689455 1 1 -2
7 1 17.244216955796983 7.331662061329273 15.137048526632569 -1 -1 1
209 2 10.75636269342128 2.103002504522391 12.508527716270455 -2 1 -3
376 1 4.955372866721342 4.022879802642476 13.356765429440532 2 1 1
643 1 9.934412346766772 6.733978269233011 17.535989107973254 2 0 1
1000 1 8.573245181159795 4.361990659448273 14.674835054051266 1 0 1
1003 1 15.194902223242481 5.6969161819715355 16.15131624125604 2 -1 0
647 2 3.545673707188386 5.799925743711266 15.188283133376384 2 -1 3
723 2 6.60692689343585 6.5695903782583365 16.624968437683513 -1 1 -2
605 2 8.837213494180366 1.5812520943324888 17.029489217251722 0 0 2
632 2 20.202932023862594 9.016518581536308 14.311089259684215 -1 0 2
996 2 16.001563902076086 2.566402703662307 20.116487233396306 -2 0 -2
338 2 4.812127554497567 1.246621232947811 18.96131701184328 -2 0 0
278 2 16.783524320937946 9.687173260050427 12.888485960798949 2 0 -1
645 2 9.137387869666487 6.776986784214731 16.955521113297326 2 0 1
374 2 1.3746213226873834 7.257100312268437 18.156695690436095 2 4 0
683 2 8.488434534763384 8.127893237262382 19.031326068611346 -1 2 -1
573 2 6.3596549162016185 1.1599931847635878 12.067787172435029 -2 -1 2
158 2 1.5840294512131958 1.9935325277290743 13.785670228849792 3 1 -2
449 2 16.239356490872225 8.860069257406376 19.959852085746952 -2 0 0
527 2 6.762076175735189 10.14227655238575 14.694380982868022 -1 1 1
657 2 5.075996488495236 6.902894973969163 18.430931490819333 3 -1 1
1005 2 14.6231993846808 5.347471534288356 15.44246127164926 2 -1 0
216 2 10.271162877777085 4.3249299387428675 19.420128949339784 1 -1 -1
737 2 14.978790432549205 8.655206840893783 17.665106000522545 0 -1 -3
571 1 6.947273993447434 1.5623571778348233 11.38912391147848 -2 -1 2
854 2 8.979073989161348 7.060580808888617 11.847942348942334 -1 -1 1
648 2 2.872975061926362 4.850872179312031 16.157719864936283 2 -1 3
890 2 12.614174142503156 4.4748161064973075 19.401210860312993 -1 -1 1
198 2 19.495655099774975 3.7401689344643283 16.40771423958626 -2 1 0
403 1 20.633345594059165 10.331770938011607 11.223338653316834 -5 1 1
107 2 18.48127088583106 4.831219632236909 12.531649388343734 2 2 3
450 2 17.70333438913817 8.459359190863895 20.35774337967757 -2 0 0
8 2 16.456921838442337 6.748472086682623 15.29716627052668 0 -1 1
385 1 12.661084391715868 2.5344818794123984 14.872569387090799 0 4 0
212 2 6.76081369713176 7.3081752651698535 20.23201848189368 0 1 -3
721 1 7.4739982185540015 6.496526760566704 16.17881293180778 -1 1 -2
159 2 0.7647002019773083 3.2968127387142676 13.48366772128999 3 1 -2
473 2 12.78936012654067 9.654942464417891 15.632527147637498 1 0 0
386 2 11.806463772861985 2.512728499640611 14.320484664352545 0 4 0
853 1 8.05712780192912 7.33964039173757 11.69873074510924 -1 -1 1
935 2 19.312930926525127 0.3119219355177147 17.23246069744564 0 0 -3
749 2 15.605364842208543 3.072175309949923 17.343957572836203 1 3 4
322 1 5.302235020574727 0.3344258623972406 13.181911948505984 1 -1 -3
560 2 7.9420967803977005 4.233502973811598 11.478569964225663 3 1 1
821 2 2.2186306513761953 7.350191502863821 11.587843310655227 -2 -2 0
699 2 19.777685364798813 5.461951221653656 14.538912019248828 -2 1 0
242 2 13.392990706130325 8.287411585926424 20.2817583447633 0 -1 1
337 1 4.667729938086589 0.33796450128100447 19.208129191678424 -2 0 0
244 1 11.353512593284343 1.855221808097081 10.926617403340284 0 3 -1
572 2 6.4544467820914555 1.5284752568514044 10.557650052143167 -2 -1 2
266 2 2.2678112223231115 8.490634498220166 19.92633906888284 1 1 -1
760 1 10.492356917712836 6.023901170281534 11.729516979105409 1 0 0
826 1 2.9887055726997835 9.484597741642535 13.935256046045028 1 -1 0
88 1 6.961216165272189 7.958298849358033 14.135855560725725 0 0 -1
184 1 18.31326230393694 9.388293666719058 16.925674076689205 4 1 0
682 1 8.265568938539694 7.436802883628511 19.64673659114728 -1 2 -1
162 2 18.367313879068845 2.6066843837065794 18.613255298842557 2 0 0
734 2 17.35910278990959 5.1998960514736545 20.477428528679464 0 0 -1
87 2 5.9310428718356984 6.848951448713962 10.885146438195914 1 -2 -2
90 2 7.322477160588788 7.776343516409313 13.238182560879139 0 0 -1
89 2 6.100457636020554 7.4883885036590865 14.118293639063477 0 0 -1
362 2 14.293048621685003 2.3658707371859147 13.910778775078118 0 1 0
779 2 13.371464593603454 4.148285356554438 14.198357943555997 1 2 -1
412 1 16.584280967076598 3.1503885433154943 15.823683074962725 1 1 2
762 2 11.023217706362741 5.747256753701281 10.922720309489755 1 0 0
874 1 10.667659787628105 9.19310971925996 18.710563650789656 1 2 3
170 2 4.8536676347144505 5.598693676056235 13.576641636470002 3 2 -1
245 2 12.139341106155943 2.3759949638667455 10.667209452338055 0 3 -1
761 2 11.16398513888809 6.505500538467327 12.329365357802665 1 0 0
94 1 0.7704580075366078 9.652975094137338 15.421361577421587 4 -2 -2
9 2 17.979251481977347 6.724219391138706 15.186092057415719 -1 -1 1
126 2 11.393793086044067 1.1424326068913517 20.05006362960991 1 0 -1
387 2 12.500037572982201 2.135871433523782 15.767704340431024 0 4 0
108 2 18.408142255813882 3.3173981592380324 12.627298793222096 2 1 3
513 2 19.88730865516125 6.866358930889085 12.875191965922406 2 3 0
968 2 17.063349623836263 7.664204329110381 11.649946378171117 0 -2 2
288 2 8.63801558667903 10.011987410941755 17.088716171557767 3 3 -1
214 1 9.425926656541833 4.518660431476824 19.02689909708294 1 -1 -1
774 2 1.8728627536969402 2.8435891780122886 17.94939635678373 1 1 -2
468 2 12.767017101349172 6.320199663595732 13.774542133824356 0 2 -2
377 2 5.0912086566246275 3.682158370878883 14.255953147424336 2 1 1
711 2 1.5087208322057937 3.3700106772209892 11.605838822941669 0 1 -1
361 1 15.168268355339931 2.025811885190128 13.698631193546051 -1 1 0
903 2 18.699786081504897 5.761776571661108 18.580342157899377 -3 1 0
373 1 1.6729382448460925 7.108761321540331 19.06632133639478 2 4 0
891 2 12.31550323474961 2.9929532026136134 19.64979722193034 -1 -1 1
215 2 9.518369448722531 5.410383957014278 18.626874448930796 1 -1 -1
192 2 1.7245075039751006 6.91000360511804 16.156406670515672 1 -1 -1
928 1 2.262917922342302 3.175616764111007 16.434380929514674 2 0 -1
953 2 13.590405195759582 7.798080277259474 11.830358237923592 -1 2 1
106 1 18.013909316129215 4.05167511685135 12.20984519325167 2 1 3
772 1 1.953197811249139 2.7582765843610098 18.99921008398066 1 1 -2
741 2 15.398758716552779 5.143649170376752 10.91085103647705 -2 0 1
875 2 11.449261780777615 8.739242133200465 19.093563744634835 1 2 2
736 1 14.379376891363554 7.916624633856474 17.529664250028674 0 -1 -3
954 2 15.060231485701797 8.243172950271033 11.907655650610337 -1 2 1
816 2 10.29964629716959 5.111755321912769 15.227685448708106 0 -2 0
472 1 12.197780802223962 8.899815886219688 15.75491273740263 1 0 0
718 1 11.322909138156637 0.6186482676747047 16.839357779790134 0 1 -3
934 1 20.16981292417583 0.683667625077741 17.080530240312278 0 0 -3
413 2 16.09988212906745 2.8542999637446043 15.018608678598865 1 1 2
467 2 12.29678518277056 7.727659634580817 14.120809655029626 0 2 -2
101 2 15.848208279054871 5.861033875884002 18.892758543335734 -4 -1 -1
644 2 10.587091639916554 6.178771813005734 17.03622794831515 2 0 0
131 2 14.499103141593118 4.490549949710897 18.387004158694644 1 1 -3
660 2 9.56299065055423 3.5876831146936965 17.71644132401098 1 1 0
1002 2 8.072630631157129 5.071919670695816 15.082109606197108 1 0 1
70 1 4.774767938458907 9.347897434987491 16.291843180933377 0 -3 0
877 1 2.6421020557474706 0.6222378772313517 13.575776244663423 2 2 1
135 2 6.2970812733525845 0.22367102915339004 14.715386706463994 -2 -1 -1
901 1 19.61837625994977 5.438826429682577 18.71247819827327 -3 1 0
191 2 0.8265085424269494 8.206440451319132 16.233615058695765 1 -1 -1
698 2 20.208855636552702 6.150256511548915 15.83105980932732 -1 1 0
584 2 4.542438253961835 3.4892872301284594 18.92634865623543 2 1 1
63 2 10.16347643926401 9.569018690240815 15.787780911174751 0 1 2
375 2 2.432370366702733 6.4539120516232655 19.03261544111046 2 4 0
616 1 14.740479280303685 9.452152196217016 20.511067270776376 0 -1 2
339 2 3.7325607008723147 0.1186775425031501 19.34424022136213 -2 0 0
720 2 11.554086486411386 0.839723062981458 17.78450937174713 0 1 -3
329 2 15.528824858396588 1.8001071517313085 12.138483946924422 2 1 0
317 2 3.154696656302846 3.434595605149687 10.40882741424648 1 0 0
363 2 15.126226316040782 1.0947300043593533 14.067040511587413 -1 1 0
511 1 19.859641181220013 5.869260167846606 12.970830012752307 2 3 0
474 2 12.635824610429136 8.4771936933465 16.530984832931406 1 0 0
709 1 0.6040202944294694 3.7628088291061133 11.68581016648941 0 1 -1
102 2 16.95438819101435 6.897730656277995 19.25062154508796 -4 -1 -1
330 2 16.631907342810287 0.9950955768839088 11.362653490680195 2 1 1