LAMMPS data file via write_data, version 3 Mar 2020, timestep = 0

2016 atoms
2 atom types

0.0000000000000000e+00 1.7950789759453095e+01 xlo xhi
-1.5348188227396093e+00 4.6530978799658214e+01 ylo yhi
0.0000000000000000e+00 1.9091125781818192e+01 zlo zhi
4.5576925069798484e-02 -6.6747986649014095e+00 -2.3201981509423319e-02 xy xz yz

Masses

1 16
2 2

Atoms # atomic

579 2 8.0087571142666043e+00 5.2450582132851169e+00 1.8665524197754777e+01 0 0 0
223 1 4.4092069527007407e+00 3.6938443257371176e+00 1.3772514924562550e+01 -2 0 -2
995 2 8.1474913121991417e+00 2.4153205803142499e+00 1.0389614775205319e+01 3 0 1
654 2 1.5412422969631555e+01 6.8488701858186225e+00 5.0189153619173466e+00 -2 0 0
394 1 9.0837868552414207e+00 5.6239362474700787e+00 3.2883598285568141e+00 -3 0 -3
578 2 1.4126658117423954e+01 5.5371136851673191e+00 9.1722300349001118e-01 0 0 1
929 2 1.5635456683752809e+01 3.4025203456090685e+00 5.2343132368564005e+00 0 0 0
354 2 9.6312673971057254e+00 5.7696437450529690e+00 1.1238833224544642e+01 -1 0 0
705 2 -1.2238189271563211e+00 5.4639133264040423e+00 1.4162755035307617e+01 -2 0 -1
302 2 1.1266363762008176e+01 5.6382193114417447e+00 1.8836118582074839e+00 0 0 0
299 2 -3.8673342387239846e+00 1.4991242974881658e+00 1.6910897274624144e+01 -2 0 -2
896 2 1.2669382288182323e+00 5.1527355841126949e+00 3.3703724198423246e+00 0 0 0
843 2 -3.7709162984241296e-01 1.6250386964812069e-02 1.5074873094709830e+01 -5 0 -5
406 1 1.5681748703100311e+00 8.1332232115187209e-01 1.1927436624614826e+01 -2 0 -2
584 2 -2.0557472912436934e+00 9.2952954567253521e+00 9.1139179826487364e+00 -4 0 -4
596 2 3.0088530223614782e+00 5.7601850290483814e+00 6.4996521338314670e+00 3 0 -2
368 2 1.4735897382661307e+01 7.8440275130727404e+00 1.4582055014192725e+00 -2 0 0
714 2 -1.3174233415172427e+00 -3.7758322985376136e-01 1.0493387733240242e+01 0 0 3
881 2 1.1394987510671546e+01 1.9853615678497287e+00 9.0253775358737069e+00 -3 0 2
319 1 1.1907755713296952e+01 2.6178045362574287e-01 1.5070175029138278e+01 -4 0 -3
53 2 9.0582315646975715e+00 1.4504113889915931e+00 1.3662505918029770e+00 2 0 0
277 1 8.1890192747195520e+00 9.4476913595638603e+00 9.7214061386071382e+00 -4 0 -1
609 2 5.2587407074977719e+00 2.1679952767404513e+00 1.0724553715103193e+00 -3 0 0
1583 2 -3.8404467971409102e+00 2.6182449278941569e+00 1.5051603944943349e+01 0 1 1
122 2 1.0002083098039705e+01 4.0673309503396391e+00 1.4951443290112350e+01 -2 0 -1
951 2 -3.0233722533843790e+00 -1.4717856260620237e+00 1.7101279691546353e+01 -1 0 1
407 2 1.2495216125700850e+00 2.7686550218962180e-01 1.2695243071540068e+01 -2 0 -2
165 2 8.4145416434029485e+00 1.0429390193114084e+01 1.1178910197720013e+01 2 0 0
972 2 4.6187102234297086e+00 7.2684926554535334e+00 3.9413737024898354e-01 0 0 1
448 1 6.8843953082297507e+00 7.2188669881058001e+00 9.1117547253139577e+00 -1 0 1
244 1 1.2312337948371415e+01 7.4604949558548892e+00 1.5139782707635513e+01 -4 0 -4
762 2 8.3778667984326916e+00 -7.8663713628491116e-02 2.0325457500219466e-03 -3 0 2
687 2 1.7951916746078638e+00 -1.6212902332976475e-01 1.0489368751757143e+01 -3 0 0
841 1 -1.2550433277105792e+00 -8.1912285070528945e-03 1.5468889474521108e+01 -5 0 -5
977 2 6.1510944830504357e+00 -4.2876468353159991e-01 1.6583380640411715e+01 -3 0 -1
301 1 1.0620894973476208e+01 5.2461148117196927e+00 1.3368388606424857e+00 0 0 0
149 2 8.8487263517785024e+00 6.5761953418627073e+00 1.6903581203444229e+01 -4 0 -1
1664 2 5.6627756446330482e+00 8.3300425263412929e+00 1.4850812130157033e+01 -3 1 -1
463 1 1.7124661506080310e+00 4.0449127003981680e+00 8.8251575717303119e+00 2 0 0
449 2 5.9452493162209006e+00 7.2123606466274826e+00 9.4207392376366936e+00 -1 0 1
524 2 1.4122248579171224e+00 5.7191878020906604e+00 1.3089217613908684e+01 -2 0 -4
539 2 3.3315891336237167e+00 -1.4354116811691977e+00 1.4762091933922219e+00 -4 0 -3
523 1 1.4101243584739649e+00 5.0464313682461590e+00 1.2441475582183118e+01 -2 0 -4
658 1 6.8344098016545223e+00 1.5770521448570931e+00 1.3752033404626953e+01 -1 0 -2
206 2 3.2080629896643353e+00 1.0897915894476027e+00 1.2287922582974026e+01 3 0 0
96 2 -1.0403516764554295e+00 4.8348835024616204e+00 5.8678613289202515e+00 -1 0 -1
441 2 3.5974968023943141e+00 5.9105341770108701e+00 1.5452246414580442e+01 -2 0 -1
151 1 6.9060499482945978e+00 1.1455786393989342e+00 3.9318313134494303e+00 3 0 0
781 1 3.1308204136596536e+00 3.5782830227386535e+00 1.3670674839170838e+00 -2 0 -2
880 1 1.0866193978161405e+01 1.5642465056132715e+00 8.3357951764681122e+00 -3 0 2
626 2 3.5330596586908420e+00 1.8217722618682246e+00 1.8452919436060657e+01 0 0 -1
320 2 1.0901772556213484e+01 2.8831914584098417e-01 1.4970859641606904e+01 -4 0 -3
703 1 -1.0758325360094760e+00 6.1012140094470597e+00 1.4918967707147337e+01 -2 0 -1
382 1 -5.7841525315754383e-01 2.6611110793474406e+00 2.5892008226391741e+00 -1 0 1
585 2 -2.2253059546701408e+00 9.2384232869961469e+00 1.0713716291704507e+01 -4 0 -4
536 2 1.6223767429464679e+00 7.0284873835277537e+00 1.9068048929424901e+01 -3 0 1
54 2 9.2553041480856670e+00 2.7860612778276517e+00 2.1572980316557060e+00 2 0 0
890 2 9.5084064375156689e+00 -1.0308854973338750e+00 6.8659470138136571e+00 -1 0 0
689 2 -2.8695905787047060e-01 1.0051617424435588e-01 6.2169749132120131e+00 -2 0 0
336 2 1.0930902220295881e+01 7.7100837098677761e+00 7.9314972471099132e+00 -2 0 -2
503 2 5.3806720053257031e+00 -6.2447431803348752e-01 9.3439075732675985e+00 0 0 0
652 1 1.6238896887713580e+01 6.3743917067969393e+00 4.7208866372649467e+00 -2 0 0
52 1 9.1628215125623296e+00 2.4230016386113280e+00 1.2373940350065162e+00 2 0 0
356 2 -2.3128881637240517e+00 7.4091526142923669e+00 1.4848889800215968e+01 -4 0 -3
477 2 7.2702169358253119e+00 5.7649210714724903e+00 1.0409172916780609e+01 -1 0 2
500 2 -6.9383764935629078e-01 3.1249430275300156e+00 1.1802420499945127e+01 1 0 0
367 1 1.3824819032384102e+01 7.4316852085817509e+00 1.5986906592334853e+00 -2 0 0
806 2 1.2168693531126893e+01 9.1415771110717436e+00 5.4735537723927443e+00 -4 0 1
789 2 6.7045921073309236e+00 8.3699073073769288e+00 1.2794589824176261e+00 -2 0 0
810 2 6.5612405694972411e+00 7.0140812055446577e+00 5.8689366417737725e+00 -4 0 -1
930 2 1.4288839222009774e+01 3.1457899853106559e+00 4.3410664856214476e+00 0 0 0
702 2 3.5178933960971941e+00 7.8833436208268326e-01 1.4719090115928774e+01 -3 0 -3
501 2 -4.9569691858367637e-01 2.4373808814698892e+00 1.0520882357603123e+01 1 0 0
625 1 3.7661489103690577e+00 2.2389004921623910e+00 1.7620042645041050e+01 0 0 -1
290 2 7.4267495315859628e+00 9.3992371030167181e+00 2.8563550496526644e+00 0 0 3
101 2 3.2482585678845748e+00 7.5721980958245947e+00 1.2365727323180094e+01 -1 0 -1
384 2 1.6468575969567613e+01 2.5160841714239357e+00 2.9789280656980153e+00 -2 0 1
245 2 -5.5877844707368247e+00 7.5429533811183695e+00 1.6134545106182689e+01 -3 0 -4
622 1 -2.1578703980666534e+00 3.8799486640009953e+00 1.7741743307188457e+01 -2 0 -2
624 2 -1.3408537965312517e+00 3.7245811956282981e+00 1.7229813906759247e+01 -2 0 -2
179 2 1.2438944306289526e+01 2.0473082046180964e+00 6.4279895293649325e-01 -3 0 0
672 2 -2.0245746083208385e+00 5.2977974981025389e-01 8.7274087927242157e+00 -3 0 -1
230 2 1.4092158254589586e+00 -1.2957406870145058e+00 6.7356643112250358e+00 0 0 -2
840 2 1.6763601195839133e+01 8.9483256049363042e+00 4.8055819375577286e-01 -1 0 -2
335 2 1.0041111141187852e+01 6.3250301086524630e+00 7.8022932944489982e+00 -2 0 -2
600 2 -2.6707540304077844e+00 2.2935457670608059e+00 9.1194114272072611e+00 -3 0 1
49 1 1.0296681790565218e+01 8.6899586709103627e-01 1.2174664383398230e+01 -1 0 0
183 2 1.3959480690768617e+01 4.9870240220370716e+00 6.1218195434442197e+00 -1 0 0
464 2 1.0016757348233565e+00 4.4571926891472415e+00 9.3091892356574935e+00 2 0 0
560 2 7.3001449083115517e+00 -1.3203241686593221e+00 7.2182401227968027e+00 -2 0 1
926 2 -2.8703930490979923e+00 -8.0845481397970587e-01 1.2408318022680284e+01 2 0 2
389 2 1.3298351206692860e+01 2.0923202091552162e-01 5.6892201854961995e+00 -1 0 0
135 2 1.4551460910505170e+00 2.3141765922446353e+00 8.6564191198337497e+00 1 0 -1
778 1 5.5714134727508693e+00 8.5510281461037607e+00 5.3430531884228882e+00 1 0 0
949 1 -3.8303883423041505e+00 -9.7367536291898260e-01 1.7264253293109658e+01 -1 0 1
598 1 1.4632483745794465e+01 1.5896951785310041e+00 9.0383679050772550e+00 -4 0 1
120 2 5.6799258425774877e+00 4.5274064809003089e+00 3.2284460756281428e+00 -2 0 -2
858 2 1.2176779298259450e+00 9.3607056675327520e+00 3.8173524456402057e+00 -1 0 -3
640 1 -1.0565759279878018e-01 5.4139600177708438e+00 1.0081593783942411e+01 4 0 -1
753 2 -1.6259936044590182e+00 7.2386225406492830e+00 1.7147820858630638e+01 0 0 2
655 1 5.3621692289792797e+00 9.2620270606064512e+00 1.4631614816316292e+01 -3 0 -1
119 2 4.3450904451800589e+00 3.7113061221593870e+00 2.9664269091941264e+00 -2 0 -2
525 2 1.0683352587552992e+00 4.2241781728127963e+00 1.2879852451028317e+01 -2 0 -4
495 2 2.8814761461899541e-01 8.6896382685321338e+00 5.6315490809065132e+00 -3 0 -2
971 2 5.5147419478824453e+00 6.6060138935823360e+00 1.6083519233436312e+00 0 0 1
559 1 7.9175582200409957e+00 -6.3101513231712714e-01 7.5745087789386192e+00 -2 0 1
212 2 8.7058510891053373e+00 3.3938129568314261e+00 8.0087394824631861e+00 -5 0 -2
701 2 3.4532418464829036e+00 1.6138936400009793e+00 1.6044165015696851e+01 -3 0 -3
760 1 8.9717710341614829e+00 -4.7949608592441950e-01 6.2777195965608690e-01 -3 0 2
470 2 1.7369920346336457e+01 2.7342516017457497e+00 8.0129841623579134e-01 -7 0 -2
471 2 1.0857840034426061e+01 3.8152965154154366e+00 1.8842013855944703e+01 -6 0 -3
697 1 2.3515374683053212e+00 9.9160025828989582e+00 1.8515059030047386e+01 2 0 3
535 1 1.1871012668152838e+00 6.8802955019030332e+00 1.8230994409045877e+01 -3 0 1
46 1 9.0557345875864765e+00 5.1887569628020547e+00 7.1481291712886881e+00 -3 0 0
1584 2 7.9657443437408206e+00 8.2003955191295859e+00 1.5638240411424396e+01 0 0 0
856 1 1.7863861069235745e+00 9.1300910859607018e+00 4.5831407986864088e+00 -1 0 -3
627 2 4.7158162649343431e+00 2.2443619514993123e+00 1.7411812156160394e+01 0 0 -1
111 2 6.3041067596937754e+00 8.5174821606695161e-01 2.3495779622042995e-02 1 0 -3
869 2 1.3816511231823446e+01 5.6129670618296190e+00 9.7422500492203898e+00 1 0 0
16 1 1.4665641393380380e-01 4.1383451051091678e+00 1.6431454237551272e+01 0 0 1
178 1 1.2319518179663788e+01 2.9328580178876775e+00 1.1657690727630650e+00 -3 0 0
974 2 -5.7256388921454704e+00 6.9092175744961626e-01 1.7121141754781746e+01 -3 0 -2
118 1 5.1188188019759711e+00 3.7584282442263870e+00 3.5191682551299643e+00 -2 0 -2
922 1 3.6008548596285950e+00 7.9094348092499089e+00 1.6917185337355043e+01 -3 0 -3
623 2 -2.7967571176114880e+00 3.3884973028739545e+00 1.7204952420400410e+01 -2 0 -2
1668 2 7.2007218541250362e+00 2.1595513752535163e+00 1.3127239341725573e+01 -1 1 -2
644 2 1.3379569676655702e+01 8.6266339091032318e-01 1.2151435267614929e+01 -4 0 -3
669 2 6.6496533795017054e+00 9.0920078267106508e+00 1.1962834066649760e+01 -3 0 -3
83 2 1.4673146950210960e+01 8.9044650936624272e+00 6.9976301196408901e+00 -1 0 -3
239 2 6.0053701477305559e+00 4.2961920251894101e+00 1.3752119147900112e+01 0 0 0
716 2 6.6444984420515860e+00 4.7601283506240968e+00 1.4876254292054010e+00 1 0 2
717 2 7.3433026530047911e+00 5.6142297973548096e+00 2.6002743560960639e+00 1 0 2
240 2 6.9259128547818118e+00 4.9451385858642993e+00 1.2653191741650412e+01 0 0 0
904 1 6.1408035845706896e+00 7.9919522160994259e+00 1.8327583191733140e+01 -3 0 1
17 2 3.5945224564804334e-01 3.6787038297290149e+00 1.5641241545493523e+01 0 0 1
779 2 4.8923318912655436e+00 8.1043641967232531e+00 4.8019865107967465e+00 1 0 0
392 2 2.7867948936202076e+00 7.4360691938436592e+00 7.6775060825146877e+00 -1 0 -1
645 2 1.1990529732050042e+01 1.6325285443889297e+00 1.1984494480425157e+01 -4 0 -3
613 1 6.9772941462983624e+00 3.5748353085218580e+00 4.5127187107836025e-01 -2 0 0
246 2 -4.7181239403787494e+00 7.7533012875641685e+00 1.4921671749670121e+01 -3 0 -4
238 1 6.8707072324253113e+00 4.6870994913755064e+00 1.3626975470870615e+01 0 0 0
522 2 7.1488279959016108e+00 -1.8175770261889546e-01 1.0812314212962264e+01 -5 0 -2
715 1 6.5140020770229077e+00 5.4981437153478403e+00 2.1143507369371926e+00 1 0 2
115 1 1.1808035464810800e+01 4.7363159394050616e+00 1.4278503832588685e+01 -5 0 -5
426 2 1.2588926935794891e+01 2.6504807585967658e+00 2.8481127157767228e+00 -2 0 1
494 2 5.1254209690801522e-01 7.5210782536968726e+00 6.7151434239415702e+00 -3 0 -2
85 1 1.7598318089344943e+01 -7.0557489787883898e-01 5.1528630731693048e-01 1 0 -2
250 1 4.4824167628104359e+00 7.4279893055871593e+00 1.0265122485896820e+01 -3 0 2
933 2 -1.3944225309590537e+00 8.0154708098102745e-01 1.2587701627989700e+01 -2 0 -1
857 2 2.4582089449252713e+00 8.5469777040897696e+00 4.2479806266405609e+00 -1 0 -3
868 1 1.3088464044461389e+01 5.3598144674131909e+00 9.1583882245069237e+00 1 0 0
393 2 1.9893433234479980e+00 8.2135045654111956e+00 8.8565864445835523e+00 -1 0 -1
18 2 -2.9400782714069074e-01 4.9259368360444462e+00 1.6058919391175976e+01 0 0 1
981 2 1.1234468871325550e+01 7.6318798256816489e+00 1.1415129238001889e+01 -2 0 0
511 1 7.7751584510012650e+00 -1.4215491992143010e+00 1.5889735981878498e+01 1 0 0
785 2 1.0980202734954687e+00 1.5488019524280432e+00 2.6302058524526521e+00 -3 0 -2
870 2 1.2636971455197868e+01 6.1961481826407470e+00 8.8928833942965984e+00 1 0 0
211 1 8.4225614501565111e+00 2.7609924608230436e+00 8.6819241796966224e+00 -5 0 -2
387 2 1.9170402321291555e+00 3.0157765997700317e+00 6.5311358377855306e+00 0 0 -2
761 2 9.1186676241292695e+00 -1.3847958707119010e+00 2.5842878768039085e-01 -3 0 2
643 1 1.2959157482945658e+01 1.7173251968975869e+00 1.2169005997759127e+01 -4 0 -3
531 2 8.2735727899384308e+00 -9.4768537103863004e-01 2.3738866988562033e+00 -1 0 0
5 2 5.0440230548916842e+00 9.4774323625348753e+00 6.5707281670849724e+00 1 0 0
575 2 8.5813500222055374e+00 9.2193217640369607e+00 1.6787499189521238e+01 0 0 0
116 2 1.2670052537934003e+01 4.0751582210185653e+00 1.4219617725046886e+01 -5 0 -5
224 2 4.1661751815814974e+00 3.0284455439003155e+00 1.4393560285710095e+01 -2 0 -2
845 2 6.9374856594286500e+00 -6.7176437096512220e-03 1.3040974661573157e+01 1 0 1
48 2 8.2550718905248228e+00 5.4176361381240064e+00 6.6846392695820374e+00 -3 0 0
117 2 1.2135538498860003e+01 5.5898377944584787e+00 1.4609023380595991e+01 -5 0 -5
931 1 -1.7249952426326902e+00 1.4686264626607128e+00 1.3217244346855693e+01 -2 0 -1
429 2 -3.9552853156640890e+00 7.1984324053196431e+00 1.7621017166503506e+01 0 0 -1
385 1 1.7289178132073988e+00 2.9769358466924114e+00 5.5914796462864285e+00 0 0 -2
583 1 -1.5775604120586406e+00 9.4112587097545966e+00 9.9939963589011249e+00 -4 0 -4
686 2 1.4978074011484184e+00 -1.3195487567651631e+00 9.5735211783166427e+00 -3 0 0
42 2 4.2548295040641593e+00 3.8342251163881986e+00 6.7111901581385558e+00 -2 0 3
726 2 1.2260869947570285e+01 1.5167872516055461e+00 6.9369732842062106e+00 1 0 1
876 2 -3.3622193464701722e+00 8.2544579578128854e+00 1.2838973817166302e+01 -2 0 1
769 1 -2.8137917786554381e+00 5.8054501992596510e+00 1.1046192735323473e+01 1 0 -3
1002 2 8.3043857466409161e+00 2.7056810791286949e+00 3.9170305643209558e+00 -1 0 1
344 2 1.1882032583487597e+01 -1.3078907527874895e+00 1.5883380484367430e+01 -2 0 1
905 2 5.2723820127872782e+00 7.7650415049079449e+00 1.7864516769595330e+01 -3 0 1
41 2 4.6667411505806005e+00 4.3270214598410952e+00 5.3433549919609407e+00 -2 0 3
4 1 4.6692466243072674e+00 1.0033441320919824e+01 7.2445542759737718e+00 1 0 0
812 2 1.0988109532268243e+01 4.7617680713755153e+00 1.2790588373434113e+01 -2 0 -1
932 2 -2.1901070258290889e+00 9.1224746544995128e-01 1.3858270952754923e+01 -2 0 -1
279 2 7.6744095424397347e+00 8.6600361657548834e+00 9.4548563084845405e+00 -4 0 -1
213 2 7.7510572231253381e+00 2.3039913371812295e+00 8.1747705250276734e+00 -5 0 -2
175 1 4.7713117256494000e+00 -1.4511797708698908e+00 1.2465119521448862e+01 -5 0 1
289 1 7.3956451121250888e+00 9.8589675570010868e+00 3.7820126816390336e+00 0 0 3
338 2 3.2972061742316070e+00 6.5063212833301396e+00 3.8272670612967512e+00 -1 0 -1
938 2 1.1277450660794836e+01 7.5835138405120190e+00 3.6515497256072078e+00 1 0 1
969 2 3.8394289432234472e+00 5.8962446523200356e+00 1.0591754390626141e+01 -1 0 1
545 2 -1.9202894674481641e-01 2.3683782155942525e+00 1.3785323709321117e+01 2 0 1
386 2 2.3621521856190109e+00 2.3911489332453337e+00 5.2174234970498787e+00 0 0 -2
937 1 1.2030626243131751e+01 6.9505483258339957e+00 3.5882895708834694e+00 1 0 2
40 1 4.5396152973988535e+00 4.6554361023048605e+00 6.2941522981573472e+00 -2 0 3
786 2 2.2954086587323346e+00 2.0530835905366809e+00 1.8376020524738683e+00 -3 0 -2
962 2 6.0657135498807246e-01 -1.5140866643601931e+00 1.3646578408670047e+01 -3 0 -1
724 1 1.3209747363663183e+01 1.7409899064557512e+00 6.8173874503296057e+00 1 0 1
784 1 1.9899313622629018e+00 1.2862616901223300e+00 2.3107147013861558e+00 -3 0 -2
967 1 3.5574208890945855e+00 4.9555317848482581e+00 1.0678640629397604e+01 -1 0 1
553 1 1.1166167151288544e+01 5.9465556941196951e+00 1.8947584058344361e+01 -5 0 -2
681 2 6.9916042560872524e+00 2.2534760527487894e+00 1.6685520568139207e+01 -3 0 -3
649 1 6.7041126372603266e+00 1.5017064845010908e+00 6.4877417105330659e+00 -4 0 0
650 2 5.7894676583197260e+00 1.5601386573572351e+00 6.7999697610260412e+00 -4 0 0
51 2 9.6620521886867881e+00 1.5513952080471292e+00 1.1786708833575737e+01 -1 0 0
36 2 1.5655969276219876e+01 1.8549820951627471e-01 5.2183957100144811e+00 -2 0 0
945 2 3.2751006218576992e+00 1.1349465765377680e+00 3.5737086174782697e+00 0 0 3
275 2 9.3429014230201943e+00 -5.5926592059959479e-01 1.9079726847390358e+01 2 0 -1
939 2 1.2643769987843635e+01 7.3797136295038932e+00 2.8593664700691530e+00 1 0 1
397 1 1.3769526062982601e+01 8.1638484444329418e+00 5.4144242147300901e+00 2 0 0
127 1 1.1191791136077342e+01 4.6589144270592175e+00 5.2938128431942673e+00 -2 0 -1
128 2 1.1461155521960691e+01 3.8289368507205150e+00 4.8832809501222787e+00 -2 0 -1
1407 2 1.3165068297052745e+01 7.6375541822228659e+00 4.8083124307576277e+00 2 0 0
34 1 -1.3395024656682688e+00 5.2410089208694055e-01 5.0637956163611886e+00 -1 0 0
928 1 1.5292016847849975e+01 2.9454210887702947e+00 4.4624063362507718e+00 0 0 0
764 2 1.0685845608800383e+01 8.7658754435249531e+00 1.2638985397509474e+01 -4 0 -3
152 2 6.5211125645036514e+00 1.3526544895426116e+00 3.0671161081076495e+00 3 0 0
439 1 2.9897845266459182e+00 5.9506118245145370e+00 1.4680586813355884e+01 -2 0 -2
350 2 1.3409098891121280e+01 2.8842051851401584e-01 1.5521884490432632e-02 2 0 4
699 2 1.6339152865265856e+00 1.0385793622704391e+01 1.8041653381311711e+01 2 0 3
176 2 4.5903252085951873e+00 -4.9830992505661276e-01 1.2361249672647627e+01 -5 0 1
783 2 3.5291869828246614e+00 3.9714347542573885e+00 5.6680081129550985e-01 -2 0 -2
148 1 9.1297887367442971e+00 5.7966376579648253e+00 1.7426241984907417e+01 -4 0 -1
994 1 8.3577223337235171e+00 2.5679530564007651e+00 1.1351451509822715e+01 3 0 1
725 2 1.3329820471551761e+01 2.7616518424262493e+00 6.7304657983560823e+00 1 0 1
991 1 1.3497450819226497e+01 -7.5364257940845392e-01 9.9592678788727760e+00 1 0 1
129 2 1.1444345823301974e+01 5.3158390707704948e+00 4.6137258859090622e+00 -2 0 -1
268 1 6.0556646065216668e-01 8.0720468989472547e+00 1.0042796746423592e+01 2 0 -2
173 2 8.9764821348223638e+00 2.1641764998438084e+00 1.6680001894538766e+01 -1 0 -2
433 1 -4.5342204116728779e-01 1.0015357418138892e+01 3.3372725013725999e+00 -1 0 1
434 2 -7.4611226171197176e-01 9.3856874530772263e+00 2.7296926844769409e+00 -1 0 1
276 2 8.5291898508235882e+00 3.6606902401939601e-01 1.8229648546894996e+01 2 0 -1
462 2 1.2514473873919604e+01 2.6795093678317343e+00 1.0873154422692226e+01 -4 0 -2
651 2 6.6337856899024725e+00 1.4516971509868841e+00 5.4909403416526734e+00 -5 0 0
996 2 8.8077657020555122e+00 3.4362683312152109e+00 1.1462760351652175e+01 3 0 1
611 2 -2.5289110719181025e+00 3.7003696549649261e+00 1.3437264029934100e+01 0 0 2
978 2 5.1310558272416324e+00 -2.3572134358491037e-01 1.7663132382509222e+01 -3 0 -1
750 2 5.9803946678621278e+00 6.3653648524846531e+00 1.5788770661563477e+01 -3 0 1
749 2 6.6167458395928156e+00 6.2104449626220672e+00 1.4401170286799859e+01 -3 0 1
102 2 2.5380426230074384e+00 8.7952013135372464e+00 1.1820231491655658e+01 -1 0 -1
497 2 4.9054240601858998e+00 2.6936797409950772e+00 8.3719821944017383e+00 0 0 1
498 2 3.5371252387871976e+00 2.0906461649408490e+00 7.8534630079978287e+00 0 0 1
395 2 9.4781670418307691e+00 5.6607228911945588e+00 2.4074309352918513e+00 -3 0 -3
924 2 3.9763886025796049e+00 8.5931926410487485e+00 1.6327164807033171e+01 -3 0 -3
349 1 1.2454983161138385e+01 4.5909285739150230e-01 1.3968364916189635e-01 2 0 4
679 1 6.1145511319456878e+00 2.7144208436073196e+00 1.6506352800725256e+01 -3 0 -3
398 2 1.4009888138897082e+01 9.0195897261397402e+00 4.9132009644322903e+00 2 0 0
540 2 2.5032716369016201e+00 -1.0435940503302854e-01 1.3750492639159708e+00 -4 0 -3
513 2 8.4260531456161392e+00 -8.4663886395897814e-01 1.5412120802945530e+01 1 0 0
321 2 1.2363778683837797e+01 3.2430140405911478e-01 1.4204691209863350e+01 -4 0 -3
943 1 3.6730329980345937e+00 1.4658615683542577e+00 4.3798415122955729e+00 0 0 3
515 2 1.1754401536556486e+01 1.0006542346631081e+01 8.7020504683399782e+00 -1 0 -1
671 2 -6.5583968012702876e-01 -3.7271911480062281e-01 8.1784961025741136e+00 -3 0 -1
220 1 -4.1822912752471897e-01 8.5707312696015734e+00 1.6862690317249211e+01 -2 0 -3
172 1 8.6250768760543064e+00 1.8907968863568239e+00 1.7508641316512009e+01 -1 0 -2
298 1 -3.1468138716451035e+00 1.8488214470361455e+00 1.6358948422051739e+01 -2 0 -2
680 2 6.1776479507766240e+00 3.6863214914209834e+00 1.6736462706585513e+01 -3 0 -3
1665 2 5.2858760828236546e+00 9.3123607536527722e+00 1.3663007400092047e+01 -3 1 -1
538 1 3.2597760518643444e+00 -6.0692300304472691e-01 9.5072299785732461e-01 -4 0 -3
944 2 4.3985475789544104e+00 2.0843850702574964e+00 4.1653398394319323e+00 0 0 3
100 1 2.3835517728334548e+00 7.9946322284137636e+00 1.2295238339619504e+01 -1 0 -1
1667 2 6.4770284757673391e+00 2.0267514542850287e+00 1.4522568145091498e+01 -1 1 -2
352 1 9.5922895304123763e+00 6.5747713343021683e+00 1.0735142847025516e+01 -1 0 0
174 2 9.3309416380537868e+00 2.1347752476563042e+00 1.8117835172078692e+01 -1 0 -2
388 1 1.3770016915691354e+01 -5.1313720937312834e-01 5.2092883736230311e+00 -1 0 0
465 2 2.5044686221016028e+00 4.2084268453840359e+00 9.3133658301351332e+00 2 0 0
84 2 -1.7854311098265174e+00 8.5917923495833239e+00 7.1177492241512947e+00 0 0 -3
460 1 1.1930314795784632e+01 3.2303769102391984e+00 1.0220285756086961e+01 -4 0 -2
607 1 5.4496867793495491e+00 1.2189688835511423e+00 1.3137086813663712e+00 -3 0 0
776 2 1.1538328964749422e+01 -1.2057263455149945e+00 2.8510817687178234e+00 -2 0 2
270 2 -1.5417085731447200e-01 8.6497592400994634e+00 1.0234751993759550e+01 2 0 -1
765 2 1.0858103611402987e+01 8.2269285910501111e+00 1.4006362690876793e+01 -4 0 -3
595 1 2.1094285652440705e+00 6.0127668482585834e+00 6.7953068053673364e+00 3 0 -2
528 2 4.0354789610156594e+00 -8.7571885375504976e-02 4.8585945648736786e+00 -2 0 -1
109 1 8.6400221144259604e-02 3.7527903408852414e-01 1.8385818597657192e+01 1 0 -4
615 2 4.5514439130055440e-01 3.7598171263344762e+00 1.8601980786369595e+01 -2 0 -1
251 2 4.7047069441681497e+00 8.1613947698670035e+00 1.0849559613397254e+01 -3 0 1
461 2 1.2512352877377241e+01 3.8535065500064727e+00 9.8381252004554742e+00 -4 0 -2
599 2 1.4140451995551434e+01 1.7168227746131470e+00 8.2331101886828133e+00 -4 0 1
408 2 1.0302072159716626e+00 1.6165046721736056e+00 1.1853467121321078e+01 -2 0 -2
20 2 6.1004142895083735e+00 1.0062484721150089e+01 1.8809146627541306e+01 -3 0 -4
182 2 1.3832236502925481e+01 4.7440414274150582e+00 7.6768866477380131e+00 -1 0 0
35 2 -1.4414933699146109e+00 1.4514071316550226e+00 4.8514867849412191e+00 -1 0 0
763 1 1.0172383824084800e+01 8.6182193941826188e+00 1.3432918721539052e+01 -4 0 -3
844 1 7.1942256083059073e+00 -6.3238108211943700e-01 1.2282824817149011e+01 1 0 1
475 1 6.7990947945571412e+00 5.1272106784044471e+00 1.0941880070237202e+01 -1 0 2
68 2 5.7442778089271798e+00 5.3299493264736357e+00 1.8071444252873885e+01 -4 0 -3
526 1 4.0652320613815167e+00 -1.1002563407325554e+00 4.9290022699915177e+00 -2 0 0
133 1 1.8821265919230998e+00 1.5182835894271833e+00 8.2601181355929771e+00 1 0 -1
610 1 -1.8155797963346951e+00 4.3241375815794543e+00 1.3118155440256482e+01 0 0 2
274 1 8.4145226966872819e+00 -4.0966869963289665e-01 1.8820025364724671e+01 2 0 -1
82 1 -2.4747995593660463e+00 9.1411252485126298e+00 7.5063343840698566e+00 0 0 -2
300 2 -2.5710150398743994e+00 1.0434269233729174e+00 1.6166421426677225e+01 -2 0 -2
369 2 1.3358517340605433e+01 7.7151749854973897e+00 8.1506027978086615e-01 -2 0 0
782 2 2.6285395355552730e+00 4.2670218259651023e+00 1.8470631615772808e+00 -2 0 -2
690 2 8.8711636230339996e-01 6.4540647097000159e-01 7.2338900297434465e+00 -2 0 0
561 2 7.5456330007725789e+00 1.6323123688842167e-01 7.1331626394558167e+00 -2 0 1
728 2 8.1268951051757483e+00 7.4257893155663854e+00 1.1624657839673340e+01 0 0 1
113 2 9.5910174784003175e+00 3.9680508919486668e-01 1.3589298467760690e+01 -2 0 -1
919 1 1.0679297422013439e+01 -6.1951815989436254e-01 9.8323451975536713e+00 0 0 -2
976 1 5.2120966450796997e+00 -4.8405822681211275e-01 1.6663744777168617e+01 -3 0 -1
222 2 -7.8830054005359784e-01 9.3086937235636142e+00 1.7359273041518630e+01 -2 0 -3
334 1 1.0768327633578673e+01 6.8372674746413189e+00 8.2964494073746060e+00 -2 0 -1
67 1 5.4258252818417274e+00 5.2264838944529295e+00 1.7174333732624802e+01 -4 0 -3
727 1 7.7130487920385402e+00 7.9949965283513418e+00 1.2306113916088975e+01 0 0 1
114 2 8.3673325069478501e+00 9.6567386717147707e-01 1.4225793818335433e+01 -2 0 -1
425 2 1.2267748862643916e+01 1.9380562271960429e+00 4.1200094941510104e+00 -2 0 1
544 1 6.5698619314858853e-01 2.8571287920135342e+00 1.4028250801438839e+01 2 0 1
875 2 1.3548827688634637e+01 8.5582607171283236e+00 1.1563738403217139e+01 -3 0 1
1001 2 9.7167806679747315e+00 2.1732482212049034e+00 4.1856099918489891e+00 -1 0 1
496 1 4.3988716778764516e+00 2.4247485692319777e+00 7.5989367708183631e+00 0 0 1
390 2 1.3055803568043183e+01 -1.0406339485105061e+00 4.8651230609055389e+00 -1 0 0
337 1 3.8183420065657430e+00 7.3023752009848408e+00 3.7498787291748901e+00 -1 0 -1
527 2 3.3295765983809922e+00 -1.2927902914283704e+00 5.5730041583221501e+00 -2 0 0
221 2 1.7178283225319824e-01 8.0859027166936901e+00 1.7485904841371987e+01 -2 0 -3
925 1 -3.5983981856216980e+00 -7.1788535388335628e-01 1.3055638432512987e+01 2 0 2
667 1 5.7024845488341889e+00 9.4518508094854585e+00 1.1803877771427738e+01 -3 0 -3
846 2 6.3439239649301129e+00 -1.0797550256656729e+00 1.2104616535515765e+01 1 0 1
641 2 2.2327896484228260e-01 5.1469769549935425e+00 1.0957633861574021e+01 4 0 -1
110 2 -2.9427830336685634e-01 8.5858050125563778e-01 1.7616505433166299e+01 1 0 -4
961 1 9.4589060796881341e-01 -6.7557490157021727e-01 1.4109153293189509e+01 -3 0 -1
47 2 9.6736365097830870e+00 5.0018612277419523e+00 6.4514649250796774e+00 -3 0 0
207 2 4.3797619611112912e+00 1.9255186513706439e+00 1.2740755231192932e+01 3 0 0
808 1 6.7225685673399749e+00 6.2408621070509938e+00 6.4635994747477525e+00 -4 0 -1
278 2 9.1095413638158664e+00 9.2910738603260690e+00 9.5503359564210211e+00 -4 0 -1
577 1 1.4170331959629515e+01 4.7716179408535462e+00 3.0509614488952846e-01 0 0 1
985 1 -4.4853410979269839e+00 1.0184136821666547e+01 1.8218463500854892e+01 -2 0 -3
1000 1 9.2300396553624751e+00 2.9267685388809541e+00 3.8337699035907198e+00 -1 0 1
294 2 -1.0418019876697027e+00 3.4058140013466778e+00 7.8304432739646517e+00 1 0 -3
150 2 9.2597475433456253e+00 5.1273571739025412e+00 1.6790019847467235e+01 -4 0 -1
457 1 -1.0548530915467849e+00 -1.4561676756712334e+00 3.2671823515281102e+00 -2 0 -2
521 2 7.1737973818288445e+00 -2.4281996091067937e-01 9.2592064740420046e+00 -5 0 -2
813 2 1.0945577710224830e+01 4.0452077163642848e+00 1.1493524798956958e+01 -2 0 -1
912 2 1.0439544687943419e+01 2.0586384419316373e-01 5.5199996428553568e+00 -2 0 1
707 2 4.2242495540316316e-01 8.4406450447298376e+00 1.5167721198974787e+01 -1 0 -1
502 1 4.7919633807468474e+00 -1.2981335036032684e+00 8.9186798436866166e+00 0 0 -1
771 2 -3.0136464528721572e+00 6.7352619872178572e+00 1.1257534922290171e+01 1 0 -3
65 2 5.8365767662843879e+00 2.3918458016890396e+00 1.0400320172252028e+01 -2 0 -3
809 2 5.9268731171692082e+00 5.7303864304479202e+00 6.5171673613937458e+00 -4 0 -1
866 2 2.0821470790855710e+00 4.6518972824076243e+00 1.6811279514560553e+01 -3 0 -1
94 1 -6.9979648963176877e-01 4.0325670431823823e+00 6.2808525132752884e+00 -1 0 -1
225 2 3.7778520969954235e+00 4.4181760177440239e+00 1.3979661759244117e+01 -2 0 -2
770 2 -1.9097622294336298e+00 5.8864151578489379e+00 1.0655637133478905e+01 1 0 -3
123 2 8.4481327667941102e+00 3.9239259067523733e+00 1.4671182738712558e+01 -2 0 -1
440 2 2.3839705277777412e+00 6.6698271356518042e+00 1.4874511357588132e+01 -2 0 -2
383 2 -4.2105495173938901e-01 3.5944280886308535e+00 2.7762103655747739e+00 -1 0 1
459 2 -8.0049217772028491e-01 -1.0515942315585121e+00 2.4215667905838569e+00 -2 0 -2
499 1 -3.3884380441991269e-02 2.7768872837802698e+00 1.1285089105053576e+01 1 0 1
910 1 1.0683588525546307e+01 8.9473626612016766e-01 4.8562129530975158e+00 -2 0 1
546 2 1.2863560079353240e+00 2.2181377345964468e+00 1.4324804320892358e+01 2 0 1
980 2 1.1482190195732585e+01 8.9389754551614828e+00 1.0496489928991666e+01 -2 0 0
729 2 8.5085832833145503e+00 8.2196104880789012e+00 1.2860864728823783e+01 0 0 1
612 2 -2.2172087871216597e+00 4.8935823228377027e+00 1.2464234220134426e+01 0 0 1
979 1 1.1705847249121163e+01 8.5090120951260815e+00 1.1353108351228812e+01 -2 0 0
121 1 9.1289480251574204e+00 3.8737141627693719e+00 1.5358065145794201e+01 -2 0 -1
911 2 1.0793123450394981e+01 4.3001602065034228e-01 3.9577499389109820e+00 -2 0 1
424 1 1.2541909268106707e+01 2.7861636410044790e+00 3.7511807972543645e+00 -2 0 1
811 1 1.0303187289540237e+01 4.4818932331404451e+00 1.2077517762663120e+01 -2 0 -1