LAMMPS data file via write_data, version 3 Mar 2020, timestep = 0

2016 atoms
2 atom types

0.0000000000000000e+00 1.7944580037613974e+01 xlo xhi
-1.8263369004047014e+00 4.6822496877320319e+01 ylo yhi
0.0000000000000000e+00 1.9082194017613212e+01 zlo zhi
4.5681152328372374e-02 -6.6797406071346330e+00 -2.2958531026624485e-02 xy xz yz

Masses

1 16
2 2

Atoms # atomic

579 2 2.5684376396013038e+00 5.8752807397097699e+00 1.4817188435473954e+01 0 0 0
223 1 5.2707295371596654e+00 6.7730158940954457e+00 2.6798493362251519e-01 -2 0 -1
995 2 6.5726351263581293e+00 5.5695266917191546e+00 1.0048352861338694e+01 3 0 1
654 2 -9.0397649863387575e-01 7.8424017798077106e+00 5.3600627484906953e+00 -1 0 0
394 1 8.5175531526631918e+00 4.7888212698340800e+00 3.7183241520050387e+00 -3 0 -3
578 2 2.1374680075229344e+00 5.1595640023279632e+00 1.3574914391848621e+01 0 0 0
929 2 -1.2536509200269530e+00 2.5112399602601023e+00 4.8981035587586241e+00 1 0 0
513 2 7.9661571115604870e+00 -1.0598858870308376e+00 1.5884112020789756e+01 1 0 0
705 2 -1.7559703129546103e+00 7.1064762926089404e+00 1.3839936068536224e+01 -2 0 -1
302 2 1.0678342611570894e+01 8.0311734515600612e+00 2.5083001777052680e+00 0 0 0
299 2 1.2066613442972285e+01 8.6692847901506509e-01 1.6294266461678951e+01 -3 0 -2
896 2 1.3735339807744557e+01 6.3221500573439240e+00 2.9135948121259383e+00 -1 0 0
150 2 4.2991002283400082e-01 8.4655379970265674e+00 1.9622498931396546e+00 -3 0 0
406 1 1.9748650459481603e+00 5.8420021599668681e-01 1.1677622746581365e+01 -2 0 -2
747 2 1.2129381641607582e+01 9.1994068753709204e+00 1.3052239710020206e+01 -3 0 0
596 2 1.3235241819623673e+00 5.5681380615652269e+00 5.1675530404518426e+00 3 0 -2
459 2 -9.6047304589586557e-01 -1.4213755264619423e+00 3.0802990574343414e+00 -2 0 -2
85 1 1.7430378256609931e+01 -1.0049200561238294e+00 7.4801649739798026e-02 1 0 -2
881 2 1.1187842231258237e+01 2.6002114236102010e+00 7.2065409022328577e+00 -3 0 2
319 1 1.0864873762869077e+01 -1.0485686421872442e+00 1.4675823241018017e+01 -4 0 -3
53 2 1.1014013466136060e+01 3.6006631126783208e+00 3.8390378489629456e-01 2 0 0
672 2 -6.7683380079942568e-01 -4.3301468658383913e-01 7.7239895458147396e+00 -3 0 -1
609 2 5.3047718681069824e+00 1.3205255332827774e+00 1.2979239849867343e+00 -3 0 0
1583 2 -3.1820733644352894e+00 3.3212350872696383e-01 1.3840258800015231e+01 0 1 1
122 2 6.4108674587741898e+00 5.3450380468289262e+00 1.6427427691754783e+01 -2 0 -1
295 1 3.2949395451085395e-01 9.6891746874675349e+00 3.3624013804368813e+00 2 0 3
407 2 1.1329910869477606e+00 8.3807382614438453e-01 1.2024600593975659e+01 -2 0 -2
707 2 3.4612896029943352e+00 8.2206020880027175e+00 1.8372836013441518e+01 -1 0 -1
972 2 2.8948474241026418e+00 6.2133137057598038e+00 1.7221934082357795e+00 0 0 1
448 1 5.2647428492145902e+00 5.4732126689032734e+00 8.8707605610763238e+00 -1 0 1
244 1 8.0341800687674976e+00 8.5708659329449191e+00 1.3280672657060354e+01 -4 0 -4
291 2 9.3652886481768558e+00 9.7211241147560692e+00 4.3292937763960762e+00 0 0 3
687 2 2.1436403220280931e+00 -7.4972792437244729e-01 1.0504131223806285e+01 -3 0 0
789 2 8.3173029351995211e+00 7.9033755732935251e+00 1.5665901884172226e+00 -2 0 0
841 1 -1.5198446188035604e+00 -1.5632180445659110e+00 1.6145069998671566e+01 -5 0 -5
301 1 1.0752874285491066e+01 8.4059566326778636e+00 3.4236570867341563e+00 0 0 0
149 2 -1.9302628518283679e-01 7.3002061569308658e+00 1.1369389972659021e+00 -3 0 0
270 2 -8.7302346605834025e-02 7.3637396503447352e+00 1.5685790935887429e+01 2 0 -1
463 1 1.9970360610687474e+00 6.1651142115378770e+00 6.8403035884565995e+00 2 0 0
449 2 5.0059187408025796e+00 6.4235282172355959e+00 8.6933972884227622e+00 -1 0 1
524 2 1.5194945056411013e+00 3.0277657090787544e+00 1.2938774404411939e+01 -2 0 -4
585 2 1.3606926801850339e+01 4.9362625035045795e+00 1.2356267311725514e+01 -5 0 -4
523 1 1.6168752623025613e+00 3.8584227594141085e+00 1.2362054498722793e+01 -2 0 -4
658 1 7.4096357170480136e+00 2.3480818417984057e+00 1.5638511381409831e+01 -1 0 -2
206 2 3.4191987482573900e+00 6.1447984465157690e-01 1.3178247330149485e+01 3 0 0
96 2 -1.6926852504405985e+00 4.8927100519821662e+00 8.5214962283145770e+00 -1 0 -1
441 2 7.4097559576965910e-01 3.6960807383829035e+00 1.7151294451211815e+01 -2 0 -1
151 1 7.4836200482666486e+00 9.6007291063053168e-01 3.8289161807766066e+00 3 0 0
781 1 1.0635960838368739e+00 3.3063840504176003e+00 3.1865054098729217e-01 -2 0 -2
880 1 1.0956459421893195e+01 1.6357054343119848e+00 7.1039923649978869e+00 -3 0 2
626 2 3.0735199901702757e+00 5.4461857618939389e+00 1.6960483977271210e+01 0 0 -1
760 1 8.4997693405392809e+00 -1.1502465960147692e+00 8.7809268077765582e-02 -3 0 2
269 2 7.2082898970552023e-01 6.9543967985445825e+00 1.4539637283791675e+01 2 0 -1
382 1 -1.6117069530986703e+00 6.2636950841723031e+00 5.0594285067208959e+00 -1 0 1
144 2 7.5473735599419172e+00 9.4864692010519054e+00 1.9968200598447086e+00 2 0 0
275 2 1.4491884746988458e+01 -9.9026677081805559e-01 8.0092591798297719e-01 2 0 0
54 2 1.0103709630542456e+01 2.6107278970990322e+00 1.3614802313292502e+00 2 0 0
746 2 1.1655459240424218e+01 9.0368517359123821e+00 1.4665065967937819e+01 -3 0 0
689 2 -1.7960565302691369e+00 1.3220694851129813e+00 9.0265395632802505e+00 -2 0 0
314 2 -4.0847992152116648e+00 9.9115202160671121e+00 1.5298060033764575e+01 -3 0 -3
161 2 1.4428305102953281e+01 6.9960450436963022e+00 8.8936247895217324e+00 0 0 -5
652 1 -3.3110939627273739e-01 8.4914269574563228e+00 5.7955690335417946e+00 -1 0 0
52 1 1.0534700602992279e+01 2.7319083144878169e+00 4.8671039911501351e-01 2 0 0
356 2 -2.8075748046077638e+00 5.6993743164966730e+00 1.6781531907309176e+01 -4 0 -3
477 2 8.8230058019718971e+00 2.6663397875192016e+00 1.1209255498415715e+01 -1 0 2
500 2 -6.6349956350278028e-01 2.0897794209534819e+00 1.3157308508357490e+01 1 0 0
367 1 1.4295593094872176e+01 9.5017485898878409e+00 3.3134286964954920e+00 -2 0 0
806 2 1.0698469764455892e+01 6.0396427481107988e+00 9.7552294450891832e+00 -4 0 1
722 2 8.4945830855609383e-01 1.0256475147663046e+01 1.6897834289009189e+01 -5 0 -3
810 2 6.3319167990634941e+00 5.3720928781458275e+00 6.1734978632054380e+00 -4 0 -1
930 2 1.5783288167060594e+01 3.1711857284538212e+00 5.9821425439862201e+00 0 0 0
702 2 4.9377503183645244e+00 5.7679532072941830e-01 1.6712952235029341e+01 -3 0 -3
501 2 -1.0276074104188155e+00 6.1103640048337038e-01 1.2692031100834161e+01 1 0 0
625 1 3.6905304852288783e+00 5.8365392477188722e+00 1.6281984948875525e+01 0 0 -1
503 2 3.9280287266353637e+00 -1.5187597795305767e+00 9.3087215066677800e+00 0 0 0
101 2 3.1613510509683973e+00 7.3069491998725749e+00 1.3232651396788347e+01 -1 0 -1
384 2 1.5564027022226899e+01 6.2613523393448141e+00 4.4497241668860088e+00 -2 0 1
245 2 8.8406141107820488e+00 8.0357449926272029e+00 1.3206791177589922e+01 -4 0 -4
622 1 -3.6447252054927555e+00 2.7812508586103561e+00 1.7884036679434224e+01 -2 0 -2
624 2 -2.8070222460553711e+00 2.3118120281012962e+00 1.8107060775585396e+01 -2 0 -2
179 2 1.2320951511191110e+01 5.1592190755648071e+00 1.2351801128894564e+00 -3 0 0
504 2 4.9377764231411057e+00 -5.7624504626269890e-01 9.9077682774019511e+00 0 0 -1
985 1 -2.3932935738395313e+00 9.8920790194079657e+00 1.8091544436228350e+01 -2 0 -3
981 2 1.0146552880339641e+01 8.4587126802579959e+00 6.9048068148710957e+00 -2 0 0
268 1 6.7118237888978527e-02 7.6120108161416695e+00 1.4746310123643342e+01 2 0 -2
600 2 1.3566467390617046e+01 6.8511053372624042e-01 1.0775552047990052e+01 -4 0 1
49 1 9.5416446980711811e+00 1.9291928265409037e+00 9.3359122358586415e+00 -1 0 0
183 2 1.0250889916528529e+01 4.1169162990678716e+00 7.3252932751681907e+00 -1 0 0
464 2 2.3236580073134299e+00 7.0377389546599591e+00 6.5240107811876014e+00 2 0 0
919 1 1.0919118074383521e+01 -1.1832619340546660e+00 1.0085582878288401e+01 0 0 -2
1582 1 -4.7610390095900339e+00 8.6133872552810438e+00 1.7891893847022811e+01 1 0 0
993 2 1.2614339367376079e+01 -1.1966039645509496e+00 9.8433161052522937e+00 1 0 1
135 2 -2.9493211886808259e+00 1.8194549463638943e+00 1.0626020561934528e+01 1 0 -1
778 1 4.6213550600187911e+00 7.8076848384392257e+00 3.7513607283427479e+00 1 0 0
949 1 -3.7968905647701465e+00 -9.2561655345604765e-01 1.7515335323992705e+01 -1 0 1
598 1 1.3531825867547111e+01 1.4408139101107902e+00 1.1340833379224735e+01 -4 0 1
120 2 4.6319961860358223e+00 2.5027513687148888e+00 2.9103480439987841e+00 -2 0 -2
858 2 -4.4931032301412843e-01 6.5241123365566978e+00 8.0808797618135806e+00 -1 0 -3
640 1 -3.4153779383728411e-01 5.8013108133116731e+00 1.2031944182198153e+01 4 0 -1
753 2 1.0002203855453082e+01 6.7525303819404314e+00 1.5871318635199842e+01 -1 0 2
527 2 3.1791557663488539e+00 -1.0138827082021109e+00 5.5689556331766177e+00 -2 0 0
119 2 3.7180297983722355e+00 3.8206758403180485e+00 3.0447678345697118e+00 -2 0 -2
525 2 2.2490255456392623e+00 3.6670403885676146e+00 1.1621032285695975e+01 -2 0 -4
495 2 6.0053925107750317e-01 7.9297387969104207e+00 1.0267891643880816e+01 -3 0 -2
971 2 2.0970586573844505e+00 7.4955726351123086e+00 1.4542808863873256e+00 0 0 1
559 1 9.1059638479961293e+00 -1.0902608981509609e+00 7.5096702162159525e+00 -2 0 1
212 2 7.9070947910607634e+00 4.1832548810319850e+00 7.2888996762550775e+00 -5 0 -2
701 2 4.1027287391587937e+00 1.9070386593608202e+00 1.6722392691306453e+01 -3 0 -3
5 2 3.9313934238457704e+00 8.5227003202271874e+00 5.2247593422320184e+00 1 0 0
470 2 -1.0617636231903482e+00 6.2598978261286842e-01 3.3832034477902115e+00 -6 0 -2
471 2 1.5696555725668924e+01 2.3302344655291574e-01 2.4562262167953417e+00 -6 0 -2
708 2 2.1590694659299929e+00 7.8979477829865683e+00 1.7592796427569130e+01 -1 0 -1
846 2 6.4374616215930605e+00 -1.5037700555075659e+00 1.2457923432981858e+01 1 0 1
46 1 1.0765750876353204e+01 5.9349768928646851e+00 4.7276207501725551e+00 -3 0 0
992 2 1.3769410521560102e+01 -6.3073882961048611e-01 8.9799965049434771e+00 1 0 1
856 1 -1.2341829488975442e-01 7.3936807207459108e+00 8.3949407077079758e+00 -1 0 -3
627 2 3.4220295768954605e+00 6.7770586280941210e+00 1.6356119922094635e+01 0 0 -1
111 2 1.0374516651904457e+00 -8.8037439050678401e-02 1.7901815778909572e+01 1 0 -4
869 2 9.8128762608926863e+00 6.9606570682786852e+00 1.1300061072533358e+01 1 0 0
16 1 2.2043961347973733e+00 2.6433559749944822e+00 1.7454033322778638e+01 0 0 1
178 1 1.2013722197718041e+01 5.3773652525708586e+00 3.0300495395573007e-01 -3 0 0
974 2 1.0776806411449037e+01 -2.2052461485323627e-01 1.7721158176418840e+01 -4 0 -2
118 1 4.3024828866098987e+00 3.1790410699114746e+00 3.5615933379613121e+00 -2 0 -2
389 2 1.3841557396799272e+01 -1.5400531988987476e+00 4.5058087812217593e+00 -1 0 0
623 2 -4.0636243323263850e+00 2.3079976340677906e+00 1.7089248346511202e+01 -2 0 -2
1668 2 7.3536048016692330e+00 3.0847461331115982e+00 1.5020925297651051e+01 -1 1 -2
644 2 1.0804005793777899e+01 1.4472560543012092e+00 1.2652825822518645e+01 -4 0 -3
279 2 5.3994101435897273e+00 8.3172485023770495e+00 8.5248150701544017e+00 -4 0 -1
84 2 1.5248129926591997e+01 8.7487685271046836e+00 7.6611645290122672e+00 -1 0 -3
239 2 4.9570834272889472e+00 4.8512617780825309e+00 1.5166353794214048e+01 0 0 0
716 2 7.6565230227584689e+00 4.1324875033989521e+00 6.1426312059287813e-01 1 0 2
717 2 6.3005619189970483e+00 4.8623101629088863e+00 6.1013244334926742e-01 1 0 2
240 2 5.9898009616735628e+00 5.2713078706521905e+00 1.4074401460133148e+01 0 0 0
904 1 1.0952612341298789e+01 7.9424378422988866e+00 7.5246728949031183e-01 -3 0 2
17 2 2.7121149724147466e+00 2.7407496261426294e+00 1.8259524675170820e+01 0 0 1
779 2 3.9520240807607516e+00 7.7332086903174417e+00 3.0194752287372788e+00 1 0 0
788 2 7.2199092963206777e+00 6.8647812536511914e+00 1.4622037890848261e+00 -2 0 0
645 2 1.0877585770922572e+01 1.7802101752813870e-01 1.1752800767862549e+01 -4 0 -3
613 1 -1.1823120924457990e+00 1.9666034618579395e+00 1.8661881464893717e+01 -2 0 -1
246 2 8.0958774912368749e+00 8.9678381612680624e+00 1.4168069902157905e+01 -4 0 -4
238 1 5.7933987323306200e+00 4.5440057255167625e+00 1.4750141765919754e+01 0 0 0
522 2 7.7859069092041437e+00 -2.6784079468727073e-01 1.0743301890809555e+01 -5 0 -2
715 1 6.7389326617123846e+00 3.9460971208421647e+00 7.4248810882798799e-01 1 0 2
115 1 -3.6903380210858865e+00 3.6273005150372875e+00 1.4456449711176111e+01 -4 0 -5
426 2 1.4402381552184341e+01 2.5019996162054250e+00 4.0560638461918819e+00 -2 0 1
494 2 2.9087578771407330e-01 7.3177419273603910e+00 1.1626938524651440e+01 -3 0 -2
392 2 9.3736299074035845e-01 9.5428377477925945e+00 1.5055919795949649e+01 -1 0 -1
250 1 3.2783614070302241e+00 8.9218366293075633e+00 1.0651138320550150e+01 -3 0 2
933 2 -2.6664254568924570e+00 2.0681305023590419e+00 1.5102364722424209e+01 -2 0 -1
857 2 -4.2999265180421187e-02 7.8294776646614714e+00 7.5837501396199141e+00 -1 0 -3
868 1 9.6066040580318468e+00 7.1230993607168980e+00 1.0373800169021896e+01 1 0 0
185 2 -1.0360998726768802e+00 -1.1219389818258387e+00 1.8419610406216020e+01 -4 0 -7
18 2 1.6129694852880432e+00 1.8577936700416426e+00 1.7673220333820375e+01 0 0 1
636 2 -1.5606622225587741e+00 7.9894883782739381e+00 9.1596983755077321e+00 1 0 -2
531 2 9.6889167734710711e+00 -1.2666071684791316e+00 3.0305286450599476e+00 -1 0 0
785 2 7.5854314051233007e-01 1.7022743425234381e+00 1.1218666168845701e+00 -3 0 -2
870 2 8.7699520393664052e+00 6.6434591863198715e+00 1.0227135528036268e+01 1 0 0
211 1 8.4698500974356499e+00 3.4306423878015169e+00 7.4991106731138490e+00 -5 0 -2
387 2 3.7913914739332499e-01 3.5428187609550781e+00 4.1425864299502662e+00 0 0 -2
160 1 1.3631480804969272e+01 6.4794183046365745e+00 8.7786677526626100e+00 0 0 -5
643 1 1.0449481432347181e+01 5.3645026812404462e-01 1.2548088744267790e+01 -4 0 -3
951 2 -2.9188276138303029e+00 -1.1200310788110261e+00 1.7017667941531776e+01 -1 0 1
620 2 -4.0505210849649123e+00 7.5853705961739966e+00 1.6783580723084849e+01 -3 0 -1
980 2 1.1722041854272774e+01 8.5048808558186106e+00 6.7484281530155892e+00 -2 0 0
116 2 -2.7763262604791850e+00 3.9175656270036452e+00 1.4337406199489532e+01 -4 0 -5
224 2 4.4696298370234588e+00 7.0323450754308219e+00 8.1150292275431102e-01 -2 0 -1
845 2 7.5295642061522301e+00 -5.0955416538723819e-01 1.2886869449754913e+01 1 0 1
48 2 1.0832370794951405e+01 5.7234378486460882e+00 5.6623297866501430e+00 -3 0 0
117 2 -4.1990409870396803e+00 4.3433541530654542e+00 1.4869886142859132e+01 -4 0 -5
931 1 -2.1078827288417772e+00 1.2718762063872604e+00 1.5272948328326693e+01 -2 0 -1
775 1 1.1113193476566932e+01 -8.4716895530961600e-01 2.9360337218138968e+00 -2 0 2
385 1 1.7251291712760564e-01 2.5865528352187992e+00 4.0757096581994556e+00 0 0 -2
763 1 1.2930267114092839e+01 8.3254744166046635e+00 1.1554187257556325e+01 -4 0 -3
961 1 1.4153004725465710e+00 -6.9926251388459248e-01 1.4769671762395713e+01 -3 0 -1
42 2 2.8502779693069455e+00 4.6734264245984125e+00 7.1417010428370489e+00 -2 0 3
726 2 1.2787973264817825e+01 6.7652992284549640e-01 7.3681916766995412e+00 1 0 1
876 2 1.0429968983892703e+01 8.8602944476165852e+00 1.0013265826406062e+01 -3 0 1
769 1 -1.9128409806521236e+00 4.5649851146097919e+00 1.0185968409358939e+01 1 0 -3
1002 2 8.7945701552539983e+00 1.9083710705104417e+00 3.1613870271965392e+00 -1 0 1
4 1 3.4167124252682317e+00 8.5225034854892456e+00 6.0997613535414459e+00 1 0 0
924 2 4.7730662141829985e+00 9.2260291345049747e+00 1.5593113312956461e+01 -3 0 -3
41 2 3.5140986369517329e+00 3.2833042875157892e+00 6.8007772282590828e+00 -2 0 3
976 1 4.9819274502347684e+00 -1.2610677557324843e+00 1.7063494391313970e+01 -3 0 -1
812 2 1.1832279194294983e+01 3.1378797406364578e+00 1.2525875533430147e+01 -2 0 -1
932 2 -1.1883866678097101e+00 1.5748540423961912e+00 1.5146739671736812e+01 -2 0 -1
1584 2 -5.3034015674566035e+00 8.3576582742316035e+00 1.8685899414581595e+01 1 0 0
213 2 8.3245692747491020e+00 2.6850594231516123e+00 6.9121768997722990e+00 -5 0 -2
998 2 7.6100519141885519e+00 9.6035492119466639e+00 1.6167512041616266e+01 -3 0 2
143 2 8.8409368385988092e+00 1.0094568192065292e+01 1.4011162261010845e+00 2 0 0
338 2 1.6924151716251026e+00 4.9610488929701448e+00 2.7789807208708184e+00 -1 0 -1
938 2 1.3204740823620375e+01 7.9887556386514440e+00 4.7382711094877692e+00 1 0 1
969 2 3.0900548279152753e+00 3.2825273796448338e+00 9.2430432754628455e+00 -1 0 1
545 2 1.5471310684706401e+00 1.1019305207997601e+00 1.4345673589891438e+01 2 0 1
386 2 4.2574326657543238e-01 2.2425424706945583e+00 3.2309759080217626e+00 0 0 -2
937 1 1.3149266657162229e+01 8.0402955268226570e+00 5.6739754981100230e+00 1 0 2
40 1 3.3123518126828762e+00 3.8942928485427339e+00 7.5296662704841717e+00 -2 0 3
786 2 1.3897271944668215e+00 3.6977697146056920e-01 1.7816070456328543e+00 -3 0 -2
390 2 1.5012557274599486e+01 -5.8150171843263165e-01 4.5939540018109346e+00 -1 0 0
724 1 1.3678259927582827e+01 2.0450901853555159e-01 7.4156737872392195e+00 1 0 1
784 1 6.1261561351801663e-01 9.3330619756443944e-01 1.7825858655035687e+00 -3 0 -2
967 1 3.1924808741996542e+00 2.9401569049003182e+00 1.0141932019052192e+01 -1 0 1
553 1 8.7174720841648998e+00 2.0021973377654123e+00 1.7977361959999460e+01 -5 0 -2
681 2 1.4216993606951977e+01 1.4560878281954430e+00 1.9100899055241640e+00 -3 0 -2
649 1 7.9111014758550233e+00 9.0212056336935786e-01 6.4527377436996050e+00 -4 0 0
650 2 7.0601925903286107e+00 5.6247062191703989e-01 6.7784971184478868e+00 -4 0 0
51 2 8.8721751935535131e+00 1.2126958376935728e+00 9.5747372417290446e+00 -1 0 0
36 2 -8.2088089434734890e-02 2.2821248178658946e+00 7.4474065807420482e+00 -1 0 0
945 2 1.7806741047293120e+00 2.0421315649213896e+00 4.8918421965030161e+00 0 0 3
673 1 1.2279167845403542e+01 5.6424380602341744e+00 1.4898313575601748e+01 -1 0 -4
939 2 1.3997868195265045e+01 8.4557757676524581e+00 6.1358114013395078e+00 1 0 1
397 1 1.3938682307134869e+01 5.2951858513772923e+00 6.2399975202244020e+00 2 0 0
127 1 1.2527104164445172e+01 5.0876261118299944e+00 2.8813030199731990e+00 -2 0 -1
128 2 1.2864452139752700e+01 4.1810278352721895e+00 3.1093413059160775e+00 -2 0 -1
1407 2 1.3642943536408380e+01 6.1751710534434370e+00 5.9482231469811673e+00 2 0 0
34 1 2.9912229231023613e-01 3.0761873924885386e+00 6.9649508328377419e+00 -1 0 0
928 1 1.5746480322333658e+01 2.5848589747978776e+00 5.1949773944312243e+00 0 0 0
1914 2 1.1585138589018124e+01 8.6866141947455162e+00 5.8953346757835345e-01 -3 0 2
152 2 6.6065780035285391e+00 8.7531154513194309e-01 3.4352109130920896e+00 3 0 0
439 1 3.3306879035423265e-01 4.4320455781287755e+00 1.6635657941957739e+01 -2 0 -2
350 2 1.2658915699718294e+01 3.7160956181617744e-01 7.1625144507798266e-01 2 0 4
745 1 1.2197316666217670e+01 9.5642680371282438e+00 1.3974340705724863e+01 -3 0 0
176 2 4.7080053666353363e+00 -1.0214081270891351e+00 1.3246808367115561e+01 -5 0 1
783 2 -4.9212513336114352e+00 2.9888684272477102e+00 1.8769819968444761e+01 -2 0 -3
148 1 5.6764243417068383e-01 8.0051161740710324e+00 1.1203157867934621e+00 -3 0 0
994 1 7.3462786243141931e+00 5.5339339572843258e+00 1.0571851707454593e+01 3 0 1
725 2 1.3930614021521732e+01 -1.9262313128034747e-01 6.5470123802370948e+00 1 0 1
963 2 2.2261296039046448e+00 -1.2521243435888696e+00 1.5099560541679518e+01 -3 0 -1
129 2 1.1694651426616565e+01 5.2181570449696171e+00 3.3956304586298209e+00 -2 0 -1
278 2 4.1384638560089329e+00 8.1511406470422436e+00 7.5894832111222366e+00 -4 0 -1
173 2 8.9573104786342697e+00 4.0269326705371986e+00 1.3117560699419919e+01 -1 0 -2
1664 2 6.5181376037593486e+00 7.6969898129593712e+00 1.6708459428760818e+01 -3 1 -1
505 1 1.2900628252232396e+01 9.5862406349440050e+00 1.9089459069157205e-01 -4 0 -2
548 2 6.9123101671293590e+00 7.2722903005455279e+00 1.3031892083960001e+01 -3 0 -4
462 2 1.0060659760588864e+01 5.8645579393237384e+00 1.3235143066526366e+01 -4 0 -2
651 2 7.7707290244196869e+00 8.8952848659219308e-01 5.4595481479727619e+00 -5 0 0
996 2 7.0382344006412367e+00 5.8924848720427088e+00 1.1399328337417151e+01 3 0 1
611 2 1.0904188774265259e+01 2.7545368953678242e+00 1.0091972181859111e+01 -1 0 2
844 1 7.3732089112712149e+00 -1.1967211302242791e+00 1.2212167959363354e+01 1 0 1
905 2 1.1477474307275672e+01 7.1768911761965537e+00 4.1750985883059816e-01 -3 0 2
393 2 2.4236826533597124e+00 9.9071735673833867e+00 1.5019566021786911e+01 -1 0 -1
102 2 3.6089186971627756e+00 8.1928517278418678e+00 1.2073860040601835e+01 -1 0 -1
497 2 5.4258360386867093e+00 -5.2729079177484239e-01 7.8012952582911801e+00 0 0 1
498 2 5.1437091106318142e+00 -3.0384273189632305e-01 6.2060833189118574e+00 0 0 1
395 2 8.4687339740982495e+00 5.4237965145410332e+00 2.9814880003322588e+00 -3 0 -3
433 1 1.5585596930637344e+01 9.4598057389250112e+00 4.5865964385701391e-01 -2 0 1
349 1 1.1753666317496602e+01 2.8850076717171991e-01 3.8435691070125494e-01 2 0 4
679 1 1.4277146635795415e+01 8.2060652177569393e-01 1.1404051227886893e+00 -3 0 -2
398 2 1.3107178678018654e+01 4.7764141868499550e+00 6.0185313543525547e+00 2 0 0
634 1 -2.5141025172092211e+00 8.1772853902883771e+00 9.3637477307037535e+00 1 0 -2
619 1 -3.8293658658141929e+00 6.8201921056064077e+00 1.6183704209381343e+01 -3 0 -1
321 2 1.0976085067033438e+01 -4.7406816815658459e-01 1.3876729854014441e+01 -4 0 -3
943 1 2.6782158986877667e+00 2.0681666391778539e+00 5.3047923245332198e+00 0 0 3
142 1 8.0854463816638553e+00 9.5380254772704109e+00 1.1654098671479631e+00 2 0 0
83 2 -2.0972873512020387e+00 9.5253011463332928e+00 6.4577255016574027e+00 0 0 -3
220 1 3.9841326896338813e-01 7.1064794898112957e+00 1.7357785663251203e+01 -2 0 -3
172 1 9.5123681551923198e+00 4.5311017266665079e+00 1.3838664615094077e+01 -1 0 -2
298 1 -4.8973880695279739e+00 1.0811658224761147e+00 1.6285345859922465e+01 -2 0 -2
680 2 1.4814118682355305e+01 1.2556841734387043e+00 3.9922788062665948e-01 -3 0 -2
575 2 -3.8204881327548348e+00 8.8701341137604857e+00 1.8206535220860996e+01 1 0 0
538 1 2.7045590575037188e+00 -4.9569251629987932e-01 1.1241278143899731e+00 -4 0 -3
944 2 3.2022076735860940e+00 2.4800922156855671e+00 4.6232580835737549e+00 0 0 3
100 1 3.9422705471396355e+00 7.7790108715303283e+00 1.2946269753130258e+01 -1 0 -1
1667 2 6.4267861885299666e+00 2.1342038026975323e+00 1.5760883116798933e+01 -1 1 -2
352 1 8.4844540779241235e+00 7.9045563620883730e+00 6.6062015398762783e+00 -1 0 0
174 2 1.0311433651533092e+01 3.9688551872693738e+00 1.3796462529478900e+01 -1 0 -2
388 1 1.4356041729238607e+01 -1.0225022101059777e+00 5.1551439773851175e+00 -1 0 0
465 2 1.5395335870848315e+00 6.3017338198825019e+00 7.6708659722395049e+00 2 0 0
539 2 2.9825861981444213e+00 -1.2426019854794443e+00 1.6763023754362223e+00 -4 0 -3
460 1 1.0250122516940801e+01 6.7684081476710514e+00 1.2857479994922521e+01 -4 0 -2
607 1 5.1429197705014031e+00 1.1288295456272777e+00 2.2204667986838835e+00 -3 0 0
86 2 -8.6557002757965684e-02 -4.0505728070886993e-01 7.3607656047136394e-01 2 0 -2
296 2 1.2153687632022225e+00 1.0031559218996790e+01 3.1830528522560049e+00 2 0 3
1994 2 -1.4243544608399077e+00 1.0083320953849933e+01 1.7899115772138220e+01 -2 0 -3
595 1 8.5734706815881756e-01 5.3920827570538092e+00 4.2949055834143515e+00 3 0 -2
528 2 3.4086352142985943e+00 3.6118645749359102e-01 4.9368228433809964e+00 -2 0 -1
109 1 6.7295004527789803e-01 3.9879300551777153e-01 1.7114073100899638e+01 1 0 -4
615 2 -5.9376468536793059e-01 2.6991296368093023e+00 1.9032727542222183e+01 -2 0 -1
251 2 3.6138373505035601e+00 8.6568780640078327e+00 9.7439449017883764e+00 -3 0 1
461 2 1.1187288098886526e+01 6.9021825764396976e+00 1.2996912583274574e+01 -4 0 -2
599 2 1.2917638547287364e+01 2.0624532518555196e+00 1.0895624870894780e+01 -4 0 1
408 2 2.0959081826109229e+00 1.3204195501283276e+00 1.1104001275106347e+01 -2 0 -2
335 2 7.6186391031762346e+00 8.8272188865780166e+00 8.0819283170654259e+00 -2 0 -2
182 2 1.1435210600633406e+01 4.6508157296301382e+00 8.0966004892262209e+00 -1 0 0
35 2 1.1555617553451252e+00 2.8127640734998183e+00 6.6975588060763993e+00 -1 0 0
313 1 -3.1392935438975336e+00 1.0089675651099666e+01 1.5434889482405675e+01 -3 0 -3
434 2 1.5899779383027113e+01 8.5896648763922592e+00 5.1637123983427957e-01 -2 0 1
475 1 8.3504214731388089e+00 3.3409342983307706e+00 1.1771778139922919e+01 -1 0 2
68 2 1.6399513860482795e+01 5.6822491371081743e+00 4.5946417525761057e-01 -4 0 -2
526 1 3.8617226898885395e+00 -4.9413161670756556e-01 5.0276394938153111e+00 -2 0 0
133 1 -2.0127430498691359e+00 2.0392813252877042e+00 1.0309956372530905e+01 1 0 -1
610 1 1.1690758796965817e+01 3.2233578371649543e+00 1.0560175461314479e+01 -1 0 2
675 2 -5.2553607061953409e+00 6.3019884905941232e+00 1.5433185147603977e+01 0 0 -4
977 2 4.7913363218870826e+00 -8.9194809659665042e-01 1.7993274365484510e+01 -3 0 -1
300 2 -4.6828287294794810e+00 1.0074690058703708e+00 1.5361669065425476e+01 -2 0 -2
776 2 1.1773566179431652e+01 -1.5601575330021822e+00 2.9459238633330052e+00 -2 0 2
782 2 -6.2022647565439426e+00 3.7513513039047970e+00 1.8798491995632567e+01 -2 0 -3
690 2 -2.6804260772667416e+00 8.0099964189873241e-01 7.8658385898286225e+00 -2 0 0
561 2 8.6860657462761601e+00 -2.4941781098053029e-01 7.1515367819913251e+00 -2 0 1
728 2 1.0029189594760135e+01 8.9959399224422736e+00 1.6080757215109056e+01 0 0 1
113 2 9.1532129930296868e+00 3.9841289755762954e-01 1.3616574821791160e+01 -2 0 -1
979 1 1.0949136714385133e+01 9.0097650778724940e+00 7.0924897520480199e+00 -2 0 0
82 1 1.4987104226739367e+01 9.3810983354505488e+00 6.9207805918319503e+00 -1 0 -2
997 1 8.4593242265592927e+00 9.8022830138369876e+00 1.5698242111959795e+01 -3 0 2
369 2 1.3507701703567578e+01 1.0063188620714008e+01 3.6595286371658968e+00 -2 0 0
67 1 1.6462821772289612e+01 6.5064144114406961e+00 1.0129039411437155e+00 -4 0 -2
727 1 1.0794969678564390e+01 8.4335039629371309e+00 1.5981078617117134e+01 0 0 1
114 2 8.1726830286218295e+00 1.0513922650465046e+00 1.4568975816183741e+01 -2 0 -1
425 2 1.2918425650161865e+01 2.0493542756308334e+00 3.8726247290916516e+00 -2 0 1
544 1 1.6549944770504901e+00 2.1143910289945391e+00 1.4305691049527132e+01 2 0 1
875 2 1.1201868248567209e+01 9.2076968392152221e+00 8.6418872461195857e+00 -3 0 1
1001 2 1.0414370823359686e+01 2.0648741930900409e+00 3.4529305982141496e+00 -1 0 1
496 1 5.8198361797244145e+00 -4.0199851555924915e-01 6.8894011317644654e+00 0 0 1
655 1 6.1672384299839873e+00 8.6282016221473388e+00 1.6623581352308811e+01 -3 0 -1
337 1 2.3410737661607071e+00 4.5894170909290821e+00 2.1090757207084323e+00 -1 0 -1
926 2 -4.4144466565310294e+00 -1.1468593178785662e+00 1.3077607814395170e+01 2 0 2
221 2 3.2083592936894956e-01 6.1394756193032363e+00 1.7178693477640099e+01 -2 0 -3
33 2 5.8291367435515724e+00 8.9289070244117887e+00 3.5085485691375773e+00 -4 0 -4
583 1 -3.8253655161117668e+00 5.5664107369389404e+00 1.1817857192455126e+01 -4 0 -4
584 2 1.3500251050217816e+01 6.3255519921346171e+00 1.1686159482897413e+01 -5 0 -4
641 2 -9.5331152559693777e-01 5.4064177941827021e+00 1.1318678842672922e+01 4 0 -1
110 2 8.9185027682547968e-01 -6.0094139411162040e-02 1.6304586502278852e+01 1 0 -4
277 1 4.5299441707936747e+00 7.9311841000312384e+00 8.4806584996046723e+00 -4 0 -1
47 2 9.8921761506732082e+00 5.6053683575888797e+00 4.5548336169011581e+00 -3 0 0
207 2 4.3572820166321957e+00 9.7289804174232675e-01 1.4395710974299535e+01 3 0 0
808 1 6.9085628742383065e+00 5.6430797209448800e+00 6.8773882458603728e+00 -4 0 -1
962 2 1.2146246022946441e+00 -1.3337680809181629e+00 1.4053620705246070e+01 -3 0 -1
577 1 2.1019720909870436e+00 6.0442720871080819e+00 1.4042333448784609e+01 0 0 0
591 2 -2.3910097327217450e+00 8.8716929364555774e+00 1.2690807140270183e+01 -4 0 -1
1000 1 9.6490072308860633e+00 2.3934048729226767e+00 2.9128349330214141e+00 -1 0 1
294 2 -5.0515096203528920e-01 4.2573121557541764e+00 1.4744809504427227e+01 1 0 -3
950 2 -4.2963074665557928e+00 -2.5225565377564063e-01 1.6998842831847544e+01 -1 0 1
978 2 5.9411244707976492e+00 -1.3889616374288221e+00 1.7042686263967003e+01 -3 0 -1
521 2 8.0338895737715887e+00 -5.2556627541478229e-01 9.1829949346717772e+00 -5 0 -2
813 2 1.2546266955576710e+01 3.0798540470068820e+00 1.3816414988796129e+01 -2 0 -1
912 2 1.1565647624251980e+01 3.3983556148449967e-01 4.2612555233325651e+00 -2 0 1
777 2 1.1082286470128491e+01 -4.0865582372861597e-01 2.0690270759379263e+00 -2 0 2
368 2 1.4861734300519078e+01 1.0205490303843161e+01 2.9648715034236912e+00 -2 0 0
771 2 -2.7553988176081994e+00 4.9291708542484329e+00 1.0502654009367351e+01 1 0 -3
765 2 1.3702918043874584e+01 8.8332256941381395e+00 1.1411317614574827e+01 -4 0 -3
809 2 6.3373604032396011e+00 5.5003174850919727e+00 7.6968157994019055e+00 -4 0 -1
866 2 3.4004139151562578e+00 5.4061729308893298e+00 1.8930229544591420e+01 -3 0 -1
94 1 -1.3093505167599389e+00 5.2111186871616475e+00 7.6733962057712297e+00 -1 0 -1
225 2 -1.8272923073514606e+00 6.2217056898062548e+00 1.8664164593514609e+01 -2 0 -2
770 2 -2.0831117204150322e+00 3.5918160480179502e+00 1.0225584284365755e+01 1 0 -3
123 2 7.7751111952067546e+00 5.9683464700203626e+00 1.6742266874400968e+01 -2 0 -1
440 2 -6.1291249049918584e-01 4.5008525819938372e+00 1.6887357437251389e+01 -2 0 -2
383 2 -1.8772905458560862e+00 5.6549565413580094e+00 5.7736753394344218e+00 -1 0 1
6 2 2.9008279207486516e+00 9.4047341582658053e+00 6.0682543182877327e+00 1 0 0
499 1 -4.5243278208680060e-01 1.4028177738841077e+00 1.2493802679938424e+01 1 0 1
910 1 1.1589902236445678e+01 1.2750455755832548e+00 4.5509742569771783e+00 -2 0 1
546 2 1.9202849296823086e+00 2.3721148581364497e+00 1.5195309709410603e+01 2 0 1
549 2 5.4220907230227064e+00 6.9304571462124969e+00 1.2827347966330823e+01 -3 0 -4
729 2 1.1418242313129706e+01 8.7152551366523205e+00 1.6712175017147342e+01 0 0 1
612 2 1.1721122428251693e+01 4.0996683338141846e+00 1.0150810727829107e+01 -1 0 1
674 2 1.1531769058819116e+01 5.2735836556143010e+00 1.5375828299061958e+01 -1 0 -4
121 1 6.8493696909143535e+00 5.9327360966796094e+00 1.7057443758705553e+01 -2 0 -1
911 2 1.1369858380674387e+01 1.3761688601157713e+00 5.5147393658356334e+00 -2 0 1
424 1 1.3707797490305300e+01 2.4524538947013719e+00 3.3206085013124693e+00 -2 0 1
811 1 1.1701733576284589e+01 2.8804130077900814e+00 1.3437513178893798e+01 -2 0 -1