LAMMPS data file via write_data, version 8 Apr 2021, timestep = 65664000

576 atoms
2 atom types

0.03306551570625756 17.886935484299958 xlo xhi
-0.1719354842950154 17.681934484298473 ylo yhi
0.17806551570655024 18.031935484299805 zlo zhi

Masses

1 16
2 2

Atoms # atomic

149 2 3.5117533959811036 1.53198602252169 3.681667596308186 2 1 1
538 1 2.103278966629861 0.36955164950459096 3.840266009385874 3 0 2
571 1 1.4907295244557912 0.18540649351920943 1.3330427898524815 0 1 2
573 2 1.7033434527576086 0.15630069373349711 2.29524251747249 0 1 2
539 2 1.3861778860161666 0.608183207559799 4.453823430554635 3 0 2
524 2 0.8645044597318531 2.0514187064385783 1.2143677094169119 1 0 1
148 1 4.337616437890667 2.101612819394188 3.6176168355839327 2 1 1
158 2 0.5822700861665363 3.64605602857822 2.541419206945399 2 -1 -1
159 2 1.1729113883842648 4.133967155978145 3.9701454890815446 2 -1 -1
157 1 0.4713075358502904 4.209227640500108 3.3712949052906107 2 -1 -1
572 2 0.5137561397516628 0.010630641756760761 1.3426917685216917 0 1 2
523 1 0.685431882281098 2.962838309797499 1.0385237212130212 1 0 1
557 2 4.664396532097827 3.90430129025625 3.754203927125503 0 -1 -2
422 2 8.550339604958024 2.9897408215815133 2.809133878030291 -1 0 -1
150 2 4.8946296205833635 1.5341553527804317 3.0202294066622817 2 1 1
364 1 5.938268020982267 0.5825567496124598 1.9021689439549272 4 1 0
116 2 7.597319540558431 1.0860743837371056 2.150543189070949 0 -2 -2
365 2 5.828569608565667 1.184899557244558 1.114099878691333 4 1 0
423 2 8.079835331858643 4.001394366226367 4.032344924548406 -1 0 -1
115 1 8.460530190387832 1.5086987663551799 2.2863760159302045 0 -2 -2
421 1 8.79573741097682 3.764239756309738 3.3643129146842417 -1 0 -1
396 2 6.4106497478567075 3.3574883888181986 0.22308949040698955 -1 1 1
468 2 8.59683477857118 0.4877487472171993 3.9785234247561205 1 -2 0
431 2 3.5272789411156764 6.7319458970242625 2.3772093341203733 5 1 1
48 2 1.1666759858943008 6.760135591312457 1.8895991411054363 2 0 1
262 1 2.4866393232487334 6.834614512926301 0.7428044010828838 2 -1 0
264 2 2.3419866511119665 5.923867458985458 0.3711212877164797 2 -1 0
558 2 4.472816476929356 5.519039072812429 3.6712451182638004 0 -1 -2
46 1 0.5559915788052178 6.697960294699648 2.639609773862107 2 0 1
432 2 4.2577823955721295 7.796726460316742 3.239782866829265 5 1 1
430 1 4.410393037497135 6.886072693001337 2.8113467277042905 5 1 1
47 2 0.47176802334604073 5.750683825402607 2.9684253385902992 2 0 1
249 2 7.890657586679247 4.6027645528421655 1.8014933272177922 3 -1 0
247 1 7.657861414915031 4.626819285455478 0.8476112859669757 3 -1 0
556 1 4.570722478259306 4.746809462659496 4.234282245961393 0 -1 -2
248 2 7.074075293795778 5.410835063149906 0.6652357356853498 3 -1 0
302 2 5.550709227720638 6.837598106642816 1.328088633323946 1 -1 0
356 2 7.40075879168596 8.259961031823101 1.0432299892518062 3 2 -5
301 1 6.252735557866233 6.830829269483988 0.6187976908299432 1 -1 0
357 2 8.906478525588554 8.594036396543354 0.7199847950298452 3 2 -5
255 2 0.6434076338680665 0.8182148330012803 7.290045620442703 -1 -2 -2
87 2 1.5699192885603337 2.61399388139898 8.11221557314304 1 1 2
85 1 2.032224810336477 3.449246567272094 8.146707273386872 1 1 2
253 1 0.9283699617049231 0.8370382311261151 8.218370702773234 -1 -2 -2
254 2 1.6845358578045326 0.27059634942749056 8.340463480222136 -1 -2 -2
86 2 2.080128880683597 3.6711814422787037 7.193079552808464 1 1 2
323 2 3.5161829238181976 3.2337112865222144 8.697327681376915 -1 0 0
272 2 0.5851654851686271 4.206047918648717 8.989740793888148 0 -1 -1
322 1 4.477130296479607 3.241633853159494 9.026255388639406 -1 0 0
379 1 0.20631677985485444 0.8954401494384492 5.713613614882206 1 2 2
466 1 8.21425234706012 0.0070084073749986375 4.686219428130057 1 -2 0
68 2 5.217016292170659 1.3030525819603775 5.108093843938973 3 2 1
324 2 5.050383535741508 2.9165745210468357 8.340736489656901 -1 0 0
67 1 5.605194837755575 0.7402774245181757 5.832541947813339 3 2 1
312 2 6.148326773776966 2.04328867350827 6.806208923237159 -1 2 -1
310 1 6.485934821622518 2.8631793781151265 7.274927561828283 -1 2 -1
311 2 7.264438577710134 2.687399731791783 7.852124262710297 -1 2 -1
510 2 6.709448893507533 3.9040611562808682 6.1027427137547 0 3 3
502 1 8.450962249029887 1.9749566342985758 8.927242908469362 2 -2 0
69 2 6.466164464845845 0.4775825601102779 5.466385682313393 3 2 1
373 1 2.0898895325349014 4.458431186959698 5.546513865701303 0 1 1
374 2 3.0043280491874924 4.421846617272627 5.225611481425674 0 1 1
219 2 0.7952556828305932 7.236965715951737 6.140080896839167 -1 -1 -1
375 2 1.9326230581889674 5.388604377194597 5.857462603580374 0 1 1
217 1 1.4754545882971941 6.9352703025208 6.7728077452626705 -1 -1 -1
218 2 1.0068100548863195 6.918557205205521 7.623400432973727 -1 -1 -1
54 2 2.826395017426749 8.060944237397528 6.935811177112253 1 1 1
52 1 3.718598169767923 8.498900021234704 6.828504057599816 1 1 1
549 2 3.813779527482534 8.724266098302273 5.091383525822676 0 0 -2
508 1 7.0340108836169515 4.371639354067096 5.3177227216675895 0 3 3
509 2 6.225313270688364 4.679392372679637 4.9322870879118375 0 3 3
340 1 6.077986142833224 7.542909207622482 7.703753946131573 -1 1 -1
180 2 7.954110822014362 5.619636610977559 5.805751156402052 2 -1 -1
179 2 7.740607923649659 6.976524337719056 6.425486120591692 2 -1 -1
178 1 8.467571914196128 6.38008384305447 6.103547793421016 2 -1 -1
341 2 6.016864385158638 6.9828421759380435 8.496755005894059 -1 1 -1
342 2 5.173027323404461 7.815436847610385 7.339756096754864 -1 1 -1
97 1 3.4989338891196873 -0.0067551134488958164 12.367603708419097 4 0 1
43 1 0.7693369055673378 1.137539566208126 12.55151543887836 0 2 1
45 2 1.6478687300131662 0.6993527748278738 12.389901715766424 0 2 1
561 2 0.7540936078861735 2.931371224872631 12.511419575856335 0 1 2
559 1 0.44341331754759716 3.813551495650285 12.204714583868427 0 1 2
44 2 0.503028899877023 0.7413747354974525 13.341930261720965 0 2 1
98 2 3.6983580776387988 -0.11303337591633904 13.333196657009434 4 0 1
33 2 4.595199955661256 1.4441494150287788 11.816579386847915 1 2 -2
469 1 7.03261284448318 0.21199789109144693 10.32796407718529 0 2 0
32 2 4.924242988583302 2.4040555844784604 10.537817797717064 1 2 -2
504 2 8.118547986769585 1.2090336189392719 9.448713152520702 2 -2 0
31 1 5.234609627420191 2.040503315404848 11.386713373577738 1 2 -2
174 2 5.810135616128487 3.2886378584284888 12.354516879189742 1 0 5
172 1 6.211631172227206 4.025717508602798 12.790492709825376 1 0 5
470 2 6.285758509234165 0.769438458970089 10.66658205182349 0 2 0
197 2 8.145842090994893 0.1697167654149723 11.703911058030599 -1 3 -1
131 2 7.644715337350777 3.237140430889986 13.36155386675589 0 0 -3
196 1 8.62467947724579 0.15242234643536998 12.556165118250854 -1 3 -1
132 2 8.264742518737922 1.8562362656601523 13.273116413697302 0 0 -3
560 2 1.1640955250206322 4.451126374376713 12.352573293705063 0 1 2
541 1 0.35598017937987125 6.991274032339997 9.174356631278451 0 -3 -1
299 2 3.092275344646924 7.973916392959702 10.375204806247613 1 2 -3
300 2 1.9932964536234663 6.962890811255868 9.97970098052446 1 2 -3
298 1 2.8465761864262804 7.031019491395838 10.427539269461851 1 2 -3
369 2 2.6426969751218325 6.105967824900979 11.951451582383624 -1 -2 2
367 1 2.362821186837572 5.653593655135243 12.70351604275014 -1 -2 2
543 2 0.11428847132189315 6.03156411373943 9.457043818181607 0 -3 -1
521 2 4.189092437385065 6.080022542507684 9.979254939277016 0 1 0
368 2 1.9918220651839373 6.362014768235437 13.31096605454732 -1 -2 2
173 2 6.425879490636788 4.785525406660513 12.216845465572009 1 0 5
522 2 4.755353944254088 4.725728680256014 9.327765536226687 0 1 0
274 1 7.649368026100485 8.182492265603333 11.911856802873807 -1 1 1
275 2 7.321769627290519 8.284682386994021 12.801317971794548 -1 1 1
520 1 4.966009233940999 5.70980348781183 9.562831749238622 0 1 0
107 2 8.065005822454228 5.18199289195688 10.670208617159464 2 2 2
108 2 6.544286228881129 5.698282609900589 10.484189981517089 2 2 2
276 2 7.694604023764781 7.234543186167485 11.646426003865813 -1 1 1
106 1 7.274116184453387 5.6495820965842976 11.098164760781426 2 2 2
111 2 1.6459080775242392 3.9679961701397084 17.882169143153902 0 -2 -2
546 2 2.856144937397447 0.20530469943261984 16.061244503291864 1 1 0
545 2 2.0359914043570497 0.5784187323298201 17.363048798896283 1 1 0
137 2 0.8291747898038954 0.8979653446849207 15.585745436525652 2 3 -1
544 1 2.266248539815702 0.8989311837253826 16.503261131885118 1 1 0
386 2 3.3074420974855068 2.4987694503730764 16.028495999543964 -1 0 0
385 1 3.8366360326152424 3.2465041454964942 16.26367362913475 -1 0 0
387 2 4.127577512348173 3.7117959349353495 15.446600656615251 -1 0 0
110 2 2.6959065020616055 4.220113570135919 16.74279657650423 0 -2 -2
81 2 8.654146985726106 0.5949315645881533 17.04821175692963 0 1 2
130 1 8.464494831616921 2.7275224478848776 13.682226728474914 0 0 -3
394 1 6.005693196330639 2.50831172752496 17.74321440555696 -1 1 0
395 2 5.105967507906133 2.7963616889546308 17.292754285465794 -1 1 0
62 2 7.948484595150436 2.029056145790244 15.32088371106885 1 0 1
61 1 7.420164361994234 1.4969028150652248 15.936107585714312 1 0 1
63 2 6.839212583132725 2.039291876714089 16.56041880227947 1 0 1
441 2 6.692389081031458 -0.043519443878278996 15.794721961581692 -1 0 -1
135 2 0.4969581309317531 8.409906146916272 14.075807238676305 1 -1 1
242 2 0.7995544407415501 5.523312182659025 16.573279557161612 1 2 -2
444 2 4.289190358316373 7.440318603346914 16.09602644108218 -2 -5 0
263 2 2.651913778664078 7.3816674098055355 17.815507945645873 2 -1 -1
133 1 0.9454719365083211 7.591160455264159 14.417143042246549 1 -1 1
187 1 2.7350675066217995 8.298034212354617 16.263200928168892 1 0 -1
109 1 1.9813746716476355 4.665567942980014 17.29908634516578 0 -2 -2
134 2 0.3526472576371888 7.086367919420211 15.068962467857487 1 -1 1
189 2 2.2181254757350573 8.05163019059118 15.454219586666845 1 0 -1
105 2 3.748190979478491 5.1066566889771 13.933441726799382 1 0 1
103 1 4.555845289815615 4.941494750658301 14.415914410786069 1 0 1
303 2 5.735732706325358 6.86777777810754 17.646917712359656 1 -1 -1
398 2 6.170350782157807 7.839791061110053 15.25653543452937 0 -1 0
442 1 5.0334565104347355 6.800085635789123 16.102027394640253 -2 -5 0
443 2 4.976524968696002 6.05445574721783 15.3928367912523 -2 -5 0
397 1 6.761536137076275 8.389747499953414 14.64411328751771 0 -1 0
104 2 5.188529624067683 4.520219886718823 13.83909761655921 1 0 1
332 2 8.56112442931245 7.723659582044015 14.890552058607472 0 -3 0
164 2 2.4554823902428766 11.282417699787093 2.861152832722337 1 3 2
163 1 3.395299457161537 11.081593263993978 2.827848361526505 1 3 2
165 2 3.4822105735140134 10.226978243456053 3.361544399238552 1 3 2
306 2 0.8653929434765733 12.620163669356884 3.4636114960296207 -1 2 1
304 1 0.6797487815085926 11.701576164707506 3.226794344552956 -1 2 1
531 2 4.273543482569393 12.027250678251654 4.093200479230076 1 -1 0
56 2 4.027611792094505 11.341287028348892 1.4187329983830264 -1 0 0
55 1 4.449365158009869 11.793301195468297 0.648193252701006 -1 0 0
547 1 4.210819266624511 9.114099883067007 4.257029091383244 0 0 -2
305 2 0.27922189513520157 11.191646431316284 3.936707537331013 -1 2 1
320 2 7.635706636368418 10.00914241098371 4.455351863517732 0 -1 1
57 2 5.374251264294992 11.431813029890922 0.7110638368009256 -1 0 0
548 2 5.152984135227911 9.37692300452008 4.509773902370746 0 0 -2
452 2 8.656443525130046 9.389821350708027 2.732338066264331 0 1 2
451 1 8.93039821636234 9.682390544506383 3.642334706400491 0 1 2
314 2 7.807642913763179 11.809692567301184 0.3319236892798108 4 -2 -2
315 2 7.482870452731441 10.368665641421765 0.7311976384936908 4 -2 -2
313 1 7.086113123296521 11.12327243548789 0.25456164908696133 4 -2 -2
355 1 8.127574424387456 8.898039372984327 1.3103754501259732 3 2 -5
540 2 2.636683533385405 17.48281802687336 4.242397074285696 3 -1 2
38 2 1.748201186760276 15.889076098912394 1.2023140905411092 1 -2 1
338 2 1.5275926581578754 14.413948034209508 2.9348663395572867 -1 0 0
39 2 2.904303534478102 14.904987292540365 1.024732416118582 1 -2 1
37 1 1.9330518387545552 14.965351622914 1.02826268292586 1 -2 1
337 1 0.9491265809988014 14.189611552605761 3.660612666264447 -1 0 0
339 2 1.4304813586472598 14.318355236943276 4.49113803033929 -1 0 0
461 2 4.09365777062824 15.583757044539496 4.126186938302247 -2 0 2
460 1 3.3096525612445675 15.932133994774546 4.635658854688193 -2 0 2
457 1 4.829239546004548 14.343212959149602 1.2714880872759906 -1 -1 1
458 2 4.8395292246321775 13.395872431854457 1.166188622342153 -1 -1 1
231 2 5.1446119070835445 14.503000361648702 2.7287087614204157 -6 0 1
230 2 5.283119754913469 13.785643208244382 4.138558006900283 -6 0 1
229 1 5.5008753986400984 14.676397840015484 3.684882103850138 -6 0 1
277 1 7.921981154258913 15.62820827407287 3.5935970157443515 2 2 1
279 2 7.007084768879625 15.346747600120617 3.4215358887318215 2 2 1
278 2 8.306791517310206 15.567343023749844 2.6792277275816168 2 2 1
459 2 5.484313157106011 14.911244294960492 0.8445943769907137 -1 -1 1
550 1 8.685448286863213 15.457221549173509 1.1188384716932167 1 0 2
467 2 8.125191631128015 16.949798486380118 4.297965199250342 1 -3 0
327 2 7.165330121824299 16.04263471824193 0.50485510183626 -2 -1 0
325 1 6.1916637878459975 16.182170565977366 0.4814397094216908 -2 -1 0
551 2 8.958145341518385 14.526241635002958 1.0795394080881668 1 0 2
366 2 6.027133162414358 17.538371588691085 1.4688478126043127 4 0 0
53 2 3.567640075956037 9.461494480875912 7.238320165696928 1 1 1
478 1 3.0910646581237793 10.755210000826837 8.25460312985026 1 -4 -1
480 2 2.2014922932761407 10.925386992363869 8.077240488331032 1 -4 -1
280 1 0.7370257219301095 11.793687551550038 7.3864658387050595 4 -1 -1
372 2 1.7861856642089586 12.895513749595416 6.396868588090559 -2 -2 -3
506 2 4.216033115892797 12.158065828187004 7.89841399364028 -3 1 1
282 2 0.24871978919267676 12.257966333141848 8.060393870870051 4 -1 -1
281 2 0.12334776838320771 11.315687378371125 6.783260671139516 4 -1 -1
529 1 4.924055491478398 12.257322014672061 4.785711563303822 1 -1 0
530 2 5.663048240044544 11.654220022516123 4.678100287461926 1 -1 0
319 1 6.751932253205364 10.232937433309168 4.860867161831144 0 -1 1
507 2 4.935643097624314 12.434490725926755 6.556867439306341 -3 1 1
321 2 6.862685845975577 10.113411498288208 5.823328701697657 0 -1 1
121 1 7.332344303627725 9.872916649379519 7.5119334416382415 0 4 0
123 2 7.1805367023605555 10.634272941081997 8.168570457569157 0 4 0
122 2 6.857022267780113 8.98677715500287 7.691724629555688 0 4 0
505 1 4.863461675288806 12.780756173952279 7.456567188509219 -3 1 1
239 2 6.0716280307434225 12.275217795019424 8.659061747304628 3 -5 -4
88 1 0.7918686358430027 15.641780184690816 7.631121233258286 -1 0 1
371 2 3.1199026529208447 13.692037602176967 6.32230335430638 -2 -2 -3
370 1 2.150393345716492 13.723470386158585 6.034967084901282 -2 -2 -3
89 2 1.3053476972959444 15.047317271633219 7.0689484964041185 -1 0 1
462 2 3.627118291340358 15.994358221161317 5.547953858755331 -2 0 2
90 2 1.512436589523084 16.13872043830337 8.110934735803363 -1 0 1
72 2 3.5596607565366405 16.75919745518606 8.32703417222452 3 -3 2
70 1 2.8303363670181603 17.001522759844597 8.979842708129892 3 -3 2
139 1 4.426879683139022 16.406559351016913 6.97432918684649 4 -2 -2
140 2 5.1665944128849635 15.860343396950618 7.265440084908672 4 -2 -2
227 2 6.354494240577355 14.049938591449884 7.41895453998901 -1 -1 -3
228 2 7.564255915321635 15.124183261604049 7.466680833517511 -1 -1 -3
226 1 6.68044379093702 14.873467733743166 7.795982391241892 -1 -1 -3
141 2 4.759501857729706 17.270551530254814 6.612104588753855 4 -2 -2
479 2 3.161503495012992 10.267046330190006 9.107715155819493 1 -4 -1
25 1 1.8304810198659927 11.1185528524482 12.270091790423619 2 -5 -4
128 2 2.850542257313065 9.977133358795783 11.407509273932572 -2 4 -1
26 2 0.9953371668050268 10.74157025797799 12.649077986701332 2 -5 -4
127 1 3.4586804094966497 9.655353341904794 10.694706457112234 -2 4 -1
66 2 1.6744162682395398 12.640365453601493 11.407432577689239 -1 1 -2
27 2 2.363892657351136 11.449740749674504 13.018246665446199 2 -5 -4
129 2 4.347971888866661 10.019976815236506 10.996540275487606 -2 4 -1
238 1 6.908504748236703 12.069937325209755 9.14743378322991 3 -5 -4
240 2 6.557485870853116 11.549447894333547 9.909498357432286 3 -5 -4
30 2 6.580076774718493 9.519741211370516 11.36821756832256 1 -2 -1
28 1 6.036266588906275 10.327732929765695 11.151706328558635 1 -2 -1
29 2 5.975159637925255 10.917584187343236 11.997164629311195 1 -2 -1
391 1 6.11916784948452 11.895490213136448 13.37267528425018 -3 0 -2
155 2 7.106625092837278 13.16733018258748 12.607008472035696 -1 1 -1
250 1 0.3161263470227917 14.675299711007082 13.106574974005197 2 1 1
252 2 0.753803618764234 14.164315294175598 12.348623310110101 2 1 1
99 2 3.7124229850150043 16.974001987766655 11.947693403026484 4 -1 1
65 2 0.9899457782914053 13.610256225612515 10.395894854528015 -1 1 -2
71 2 3.0423942868376157 16.54941609122681 9.754138447149115 3 -3 2
64 1 1.676131639354405 13.54753991906672 11.10767847338356 -1 1 -2
447 2 2.881277169518245 14.715619014759186 11.092179639649341 2 1 -1
445 1 3.496808296726808 15.496528441362496 11.142555247226584 2 1 -1
446 2 4.338079701931348 15.244307306180664 10.771983665889866 2 1 -1
75 2 7.717046841908487 15.072190535452831 13.382763763351196 -2 2 2
120 2 6.444256626749041 15.057434308324508 9.371876206449024 -2 0 -2
156 2 8.482605560591518 13.684955159682163 12.09429527823486 -1 1 -1
471 2 6.6744174139003425 17.14081593271196 10.301436111163248 0 1 0
154 1 7.514209789479644 14.024529012932652 12.239642096383546 -1 1 -1
119 2 6.733156938989454 14.813863082413489 10.875502794990139 -2 0 -2
118 1 6.131802670610578 15.300347192521965 10.2713114062041 -2 0 -2
74 2 8.129050759522807 16.67177070026278 13.486107631748625 -2 2 2
501 2 3.2992451749380023 11.098317159095464 17.23649907521888 -2 2 0
499 1 2.694196081305608 10.951686318747896 16.46835465676332 -2 2 0
500 2 1.746784942363841 11.051990578069775 16.750060700262104 -2 2 0
260 2 3.051955253477925 11.886230307747015 15.108109743867685 -1 0 1
259 1 3.4697765601890294 12.360367542983418 14.351349125883072 -1 0 1
188 2 2.727021101423736 9.283582362869572 16.287666172506782 1 0 -1
406 1 0.18552744684876937 11.676995786613361 16.958000347114943 3 -2 0
359 2 8.673894053539604 11.05314905816337 15.218846439875017 0 4 -2
399 2 6.942487717080404 9.24978367629744 15.129430033402475 0 -1 0
392 2 5.276792988888519 12.186790147802782 13.72536482557863 -3 0 -2
393 2 6.644537681824389 11.51703999129061 14.152298291898356 -3 0 -2
360 2 7.552421706203672 11.088200630210652 16.393657577957487 0 4 -2
358 1 7.708609009702042 10.92131811035743 15.411999389251692 0 4 -2
167 2 0.40658569679816736 13.278995350393702 16.68728761894875 0 1 -1
166 1 0.5407891440615723 14.267992282014413 16.661960447481054 0 1 -1
261 2 3.2976895297103215 13.346597973760007 14.48806603090991 -1 0 1
485 2 1.876361069918718 15.167228652535272 14.2952514274103 3 -1 1
13 1 3.7548739790547128 17.212599510060915 15.040092202380622 -3 -1 -2
484 1 2.518952347954117 14.904524737497983 15.029214952484827 3 -1 1
486 2 1.8954664958193308 14.495604441246998 15.676199121236616 3 -1 1
168 2 1.0095257473701726 14.465959255258143 17.47856884863036 0 1 -1
15 2 3.2713490000394563 16.348215376144495 15.132586113325369 -3 -1 -2
439 1 6.26249864126812 16.89716045761438 15.739691933377976 -1 -1 -1
326 2 6.1265328208103735 16.40807147701143 17.39997729640458 -2 -1 -1
14 2 4.7264369340179355 17.15808848130372 15.26581745525052 -3 -1 -2
440 2 6.953886733223711 16.342182807059643 15.270851067214805 -1 -1 -1
73 1 7.9512630974399 15.848423950813949 14.017130095273629 -2 2 2
191 2 11.81161770520137 2.764589954889941 3.8805885986004194 2 0 1
567 2 11.687396561855763 1.5634143211628366 2.039281656767564 -2 2 -1
160 1 12.663833020171985 1.5050093579756647 3.217417904927848 -1 -4 0
162 2 12.682291216303671 0.7542214773722666 3.847210634748674 -1 -4 0
565 1 11.153756331893378 1.5982788287124015 1.1888649596891776 -2 2 -1
192 2 10.47083441241827 3.760642621748683 3.711573900245952 2 0 1
190 1 11.3656556861931 3.6497311048400345 4.13016904258825 2 0 1
566 2 10.99950445029204 2.5144532099656782 0.9015733966608066 -2 2 -1
117 2 9.10537972081277 1.1087053632631578 1.7142320000099969 0 -2 -2
161 2 13.586181953962777 1.53584216267713 2.841340041819697 -1 -4 0
92 2 15.257875859660341 2.349828923029959 1.8334836670528505 2 1 0
91 1 15.223038829393584 1.6207552396581324 2.4680747839414443 2 1 0
93 2 15.79811642517913 0.8392642838202742 2.0889510974447223 2 1 0
143 2 15.836818579077354 2.3465657530088655 4.165583128745758 -3 1 3
525 2 17.687249947380288 3.124953792140531 0.597774752587224 0 0 1
144 2 16.958404301006954 3.3258715887046986 4.408059007510891 -3 1 3
415 1 15.903649930089605 3.4441770657822346 0.34725888191775633 1 2 0
416 2 15.414021726169238 4.253049446323951 0.2195630390650016 1 2 0
464 2 11.26530669844559 6.462486439181081 3.729602965097996 3 2 2
463 1 11.9631791953915 6.01760071737239 3.2016874658795786 3 2 2
465 2 11.849708890261802 5.059787856112646 3.6028367804458257 3 2 2
177 2 12.029139991615347 5.739043502390665 1.6634294673150487 2 2 -1
175 1 11.817208369350384 5.891213792151327 0.7141273143864797 2 2 -1
176 2 11.091086581283731 5.2587326253780855 0.4379546774115209 2 2 -1
207 2 13.335773873446481 7.122423967728584 3.333925333993522 -2 1 0
472 1 10.178121121645345 7.581290084510284 4.5669766737908555 1 -1 0
205 1 14.128552846262885 7.597738138598121 3.5946747760215176 -2 1 0
224 2 17.017169736860826 7.6664875602346845 2.3047809083729898 0 1 -4
225 2 15.576504653814183 8.238673154505674 2.768743938191162 0 1 -4
206 2 14.233650200215369 7.249728043994525 4.534638909708277 -2 1 0
223 1 16.37897874006603 8.445432311222376 2.25440101791093 0 1 -4
348 2 16.101024315642324 7.925011274223915 0.6073855392808603 -2 0 1
476 2 17.66926573426921 7.383938753245029 4.283599501018409 0 -2 -1
195 2 10.781131565465081 0.618570212410843 7.429297589340924 -3 -1 2
193 1 11.123159607933118 1.4299913445251058 7.903268838042364 -3 -1 2
222 2 11.562579728559285 2.7914435664833537 7.158944839928162 -1 1 1
221 2 11.615150145807117 3.6865031791529597 5.935243877788193 -1 1 1
220 1 11.826142157714226 3.700528911970697 6.869822811264763 -1 1 1
194 2 11.607604899062238 1.1044094523419201 8.700617004553047 -3 -1 2
503 2 9.367547417516034 1.6831646211624767 8.651176253903257 2 -2 0
570 2 11.716725449960306 -0.12952750565815577 5.449978258574347 -2 2 -3
513 2 9.51242445906964 -0.08175982899431468 5.770806270221101 2 0 0
489 2 13.695275279906458 3.864229449080431 6.330470111335695 -3 -1 -1
142 1 16.292916193164295 2.805652902266913 4.883909934276117 -3 1 3
488 2 15.059079809904325 3.6977837075905025 5.746731505274357 -3 -1 -1
380 2 17.36830099485806 1.546960846747653 5.382684897308053 0 2 2
487 1 14.562598828066601 4.203221541240613 6.4235708564841545 -3 -1 -1
21 2 15.032994184200614 4.13746801633277 8.050840537405076 3 1 1
19 1 15.284723581512386 4.054877471243497 9.044688613143222 3 1 1
351 2 14.54628950947197 0.24438976138322768 7.871222330084228 -2 0 0
381 2 17.598372513423215 0.005653201316098949 5.8488650984572415 0 2 2
419 2 11.023016798504225 4.687789554052671 7.724895263561716 -4 1 -4
418 1 10.302225612028735 5.268696054693143 8.177371256026062 -4 1 -4
308 2 12.723840536517674 7.983673714880514 8.474918698948315 -3 0 4
420 2 9.68721952186812 5.522576094185008 7.445901388682539 -4 1 -4
474 2 10.892033795337854 8.092140754455245 5.064102812075507 1 -1 0
183 2 11.109915490173071 6.687015913291428 8.860482690086439 -1 3 1
307 1 13.240631535917272 8.595270458386453 7.874423352149935 -3 0 4
473 2 9.571659266492734 7.088058239159658 5.139691451140708 1 -1 0
286 1 14.936630599678155 6.828108622475627 5.977121372729257 -1 0 -3
288 2 14.593949945727106 5.904835129610123 6.144876169558854 -1 0 -3
287 2 14.512490905613024 7.440223674302853 6.615075430240158 -1 0 -3
477 2 16.48043833200941 7.451977671227923 5.445490689832565 0 -2 -1
475 1 17.375520590031407 7.745304696503151 5.137435476044503 0 -2 -1
36 2 12.003117984687288 -0.11115340287621975 11.54443498719368 1 1 -1
171 2 9.197259951825226 3.2199480434465073 10.188030769749872 -1 1 2
343 1 12.53512143982155 1.2748057169279048 10.375651744168898 1 1 0
344 2 12.42982720545771 2.0944246913702 10.900640077045235 1 1 0
518 2 11.924206112932445 3.605197555913192 12.610212354309084 1 0 -2
517 1 11.893303829583276 3.4514163893276524 11.641578877986321 1 0 -2
519 2 11.018448431834404 3.609110128570507 11.25242326614913 1 0 -2
169 1 9.639705273118052 4.0603481946641855 10.430894420154072 -1 1 2
198 2 9.55307652381006 0.012138353637844906 12.351871599441312 -1 3 -1
270 2 15.190209971509814 2.367613589988247 9.201314996084319 0 0 -2
268 1 15.041325459964074 1.425536048209807 9.533478831779352 0 0 -2
246 2 17.81002772899793 0.320295155934755 9.610179012948434 2 0 4
345 2 13.424767366820939 1.3316310611632673 10.062272853996049 1 1 0
20 2 16.208944753489714 4.28528926437937 9.190808863364321 3 1 1
244 1 17.2287901040816 0.16416538419530205 10.384924313049831 2 0 4
269 2 15.772740980849575 1.1841077476622186 10.05620167426936 0 0 -2
245 2 17.724357934939157 0.5895344390354953 11.076699633879203 2 0 4
273 2 17.779039742049363 4.273390553849228 10.475269201637515 -1 -1 -1
435 2 12.98921694831654 4.609745110639118 11.003577603410388 1 0 -1
181 1 11.73742925720572 7.142881144442439 9.40295801158003 -1 3 1
182 2 12.3452118324163 6.424475368030086 9.738567387073077 -1 3 1
377 2 10.432253041092059 8.244853776569752 10.598970237011041 1 2 1
170 2 9.8511298794028 4.5559378088563 9.556772649009407 -1 1 2
378 2 9.121384183517758 8.65822538394135 11.481417008983353 1 2 1
493 1 16.519656899062714 8.220528604057005 10.812898126196483 -2 2 1
433 1 13.504040187695917 5.346016888034701 10.58421707498074 1 0 -1
153 2 14.880567712264833 5.715497859173676 11.697467200596558 -2 -1 3
434 2 14.15003325111943 4.871868689132941 9.974314860901712 1 0 -1
151 1 15.583568366838024 6.151327276609018 12.22772366981307 -2 -1 3
494 2 16.222464179973176 7.452609285962396 11.343369866429976 -2 2 1
152 2 16.23657386846379 5.512079770109772 12.439395798355127 -2 -1 3
542 2 17.625080108052426 7.618226378057578 9.648353550524478 -1 -3 -1
271 1 17.779056813533774 4.6429764743309 9.568135127259781 -1 -1 -1
12 2 12.116885384365492 0.8982935547356881 17.609735607401248 -1 2 1
384 2 9.177098370318602 4.084741346392768 18.00929197820556 -1 -3 2
79 1 9.266590759514077 0.060596336770782994 17.588465346042433 0 1 2
10 1 12.313989355044779 0.20508598308139717 17.023883292359294 -1 2 1
382 1 10.139542374632459 3.944178966723405 17.7016881890304 -1 -3 2
80 2 10.079638315717194 0.5205410276233498 17.57400931019295 0 1 2
352 1 12.195535679758363 3.643955016612521 14.381566897625003 -1 -1 2
354 2 12.549834383465083 2.739276778815697 14.597953158195379 -1 -1 2
353 2 11.278820160003706 3.751677204968807 14.63247155813283 -1 -1 2
383 2 10.057906941767765 4.031376229169661 16.74508983038931 -1 -3 2
294 2 9.246616038156617 4.0018738048708595 14.522463735113789 0 -1 -4
11 2 12.71277721445475 0.5810066456021986 16.20159307616461 -1 2 1
138 2 17.477069016497598 -0.06604500581078315 15.194635075858747 1 3 -1
449 2 17.120803300361196 3.9209480160085746 13.805188318790943 0 -2 -3
136 1 17.77507320351892 0.8868569581423031 15.155900988282726 1 3 -1
202 1 13.53152974665285 1.2331426138873331 14.828596560710698 0 3 -2
203 2 14.348964569863194 1.610704086646206 15.265975371158342 0 3 -2
417 2 15.817755428763082 2.983098841143305 17.334423143463905 1 2 -1
42 2 16.384805002442356 1.559090579382901 15.705747563638628 0 1 1
41 2 16.013384671871922 3.056788184366229 15.375453111178105 0 1 1
40 1 15.677079833333849 2.2425411638424815 15.837088638035192 0 1 1
204 2 13.810358390205678 0.40924780653041926 14.363556778793408 0 3 -2
186 2 11.85942335215552 8.437968713974053 13.642646473148943 -2 -1 -1
292 1 9.841467308640013 4.605050537338071 15.017941714086371 0 -1 -4
210 2 13.159641760052265 5.538618582295289 17.913653855970445 2 -3 0
438 2 13.154989316109965 4.954313431718602 14.565331572907091 -1 2 0
9 2 10.620207936731818 7.240733859436886 17.963104149632304 2 -1 -1
293 2 9.45563430013731 5.509305372446045 14.908272042663702 0 -1 -4
331 1 9.377868449470993 7.201739606680358 15.026314809023654 0 -3 0
8 2 9.823592140838677 7.697344469251523 16.74513716255427 2 -1 -1
7 1 10.061750264543749 7.949683833293421 17.670406239783095 2 -1 -1
333 2 9.988452972417033 7.725243483380822 14.398952251999802 0 -3 0
209 2 13.96550518766368 5.514439453847373 16.545132891515017 2 -3 0
450 2 17.011327135281856 4.860113791815752 14.963049570389897 0 -2 -3
429 2 13.830807749777847 8.59382169716294 14.610968556877923 0 0 0
448 1 16.452892883603692 4.294973677308707 14.423341848287984 0 -2 -3
437 2 14.6188017870224 5.219682854717848 14.300244620831736 -1 2 0
428 2 13.553886455199606 7.242536928369859 13.93760373164548 0 0 0
427 1 13.516676007131915 8.257136033591287 13.8268581400812 0 0 0
347 2 15.098356762506537 6.904319822508845 17.737109699873326 -2 0 0
436 1 13.84972572569837 5.609436367343371 14.745864215596002 -1 2 0
346 1 15.794771541878543 7.616665237150534 17.57307585201312 -2 0 0
243 2 17.222543550050545 6.2228333087128185 16.718231152488364 0 2 -2
208 1 14.074065801854415 5.450976180436679 17.502971040476044 2 -3 0
241 1 17.818796376883576 5.850119821813475 16.076498625986282 0 2 -2
400 1 10.30860238022716 11.74036504593322 2.9319936892789635 -1 -1 -1
101 2 11.955428666904217 11.613503147985409 1.9524541054049265 0 -1 4
100 1 12.719312248916532 11.172717180635125 1.519325341375638 0 -1 4
402 2 10.161547278017425 12.50221490502241 3.5350516016296964 -1 -1 -1
401 2 9.744299274510324 10.994710783402825 3.3389425218226108 -1 -1 -1
492 2 9.526501303083473 12.28961318242094 1.542390219175597 1 -3 0
555 2 13.046614410447198 10.23530039460514 2.9122055136571254 -4 1 0
553 1 13.303475154214532 10.11399924500678 3.8884487980645033 -4 1 0