LAMMPS data file via write_data, version 8 Apr 2021, timestep = 4439000

1008 atoms
2 atom types

0.048436105563154766 18.434963894436606 xlo xhi
0.20251971439047717 22.214680285609 ylo yhi
0.14453806536109826 19.245643934629936 zlo zhi
-0.21614758150734614 -7.000451571364824 -0.04287964770989738 xy xz yz

Masses

1 16
2 2

Atoms # atomic

1 1 1.337626458154022 4.171960354119884 2.7128666571694087 0 0 0
2 2 2.1203896485454767 4.83147442169652 3.054729401976585 0 0 0
3 2 0.8965720095071523 3.8149747372712266 3.5087957856803977 0 0 0
4 1 2.774523915103926 6.0759537660528675 3.833636425127251 0 0 0
5 2 3.5283499167305776 5.791380891957563 4.3527615441325285 0 0 0
6 2 2.8817014716988614 7.031952199390644 3.5843215902461463 0 0 0
9 2 0.516086329074238 5.604448257260488 1.8000369662063824 0 0 0
10 1 0.4570705066361936 3.007768401727988 5.204412959667987 0 0 0
11 2 0.6451443968542526 3.59911583092856 5.960951220432296 0 0 0
12 2 -0.39649429734180164 2.58603495373853 5.5505084929033455 0 0 0
14 2 1.752978972706061 3.631335887877633 1.1068265997987388 0 0 0
16 1 3.014562152058883 1.1863334486870356 2.0723508553478447 0 0 0
18 2 2.0921384779140086 1.40620457931425 2.236996370449925 0 0 0
19 1 0.24472172701455203 1.019352705558717 2.7410493990233027 0 0 0
24 2 -1.0281589865687413 0.9297775256306986 6.900899096163145 0 0 0
28 1 1.0964894683779418 2.3225360020305694 8.994609697482385 0 0 0
30 2 0.6376507568498376 1.622865764072072 8.494868212114042 0 0 0
31 1 0.3333558373462102 6.904521815215958 5.109990340843761 0 0 0
32 2 1.152791315689949 6.394180014020583 4.910793123576819 0 0 0
33 2 0.23743611290254168 7.428479123119045 4.234530981885978 0 0 0
36 2 -0.6896674105426939 7.039905771905373 8.902489547164661 0 0 0
37 1 -1.894678784751295 4.658925161607436 7.892006945923872 0 0 0
38 2 -0.9694523566099644 4.863422887816516 7.5695515793607075 0 0 0
39 2 -1.6474044390506828 4.156678488797443 8.7142628027693 0 0 0
40 1 0.7095025428132358 4.671108611888329 7.413956284305231 0 0 0
41 2 1.3521075042280188 5.420153949749645 7.420779172336008 0 0 0
42 2 0.903894032560055 4.175657391884127 8.211952913148489 0 0 0
43 1 4.224419783908532 3.3260183236729373 7.115248062657675 0 0 0
44 2 4.568964811748803 3.837021103114045 6.309664544050425 0 0 0
45 2 3.4331073559736436 2.831311593926643 6.760303550280794 0 0 0
46 1 2.575865807777499 1.617155536983081 5.99439079455489 0 0 0
48 2 1.719639901235079 1.848975555732168 5.4997089695554875 0 0 0
49 1 5.520391557966866 1.5160679379758928 8.683535658111364 0 0 0
50 2 5.232269749222331 2.184093880610061 7.973117340228548 0 0 0
52 1 5.057150113458976 4.588295578002446 4.958381687295281 0 0 0
53 2 6.019109322480402 4.773767825765808 4.837574121692549 0 0 0
54 2 4.852910314769974 4.047201039429134 4.151394570731246 0 0 0
57 2 4.097700198799846 4.201181756892519 8.519104620074927 0 0 0
58 1 2.405010567440458 6.751378034040859 7.504164123607706 0 0 0
59 2 3.3494494607216247 6.494597659076891 7.5727925004286325 0 0 0
60 2 2.2914919731571763 7.225238250724404 8.344837061494609 0 0 0
61 1 5.09996947603812 6.5775755678420245 7.431443670215041 0 0 0
62 2 5.2995054893509 7.346164867064363 8.043806672271746 0 0 0
63 2 5.804524259894529 5.967618934401912 7.604331678014568 0 0 0
64 1 5.972744468223311 6.934892437420412 2.6034428703263788 0 0 0
65 2 6.710069436171742 6.397193045241016 2.9759554633987966 0 0 0
66 2 5.546720122245525 7.279035194615519 3.439678691780428 0 0 0
67 1 7.474012301603114 5.18282551777239 4.0880083146998984 0 0 0
68 2 7.819818320699868 4.458116833252768 3.5246086548074698 0 0 0
69 2 8.238927215117322 5.691927845375145 4.426650907569488 0 0 0
70 1 4.6338152624803355 5.177302507682896 1.1232063774110488 0 0 0
71 2 5.249117649998582 5.828987831630975 1.6310626002637505 0 0 0
75 2 4.100147763040316 1.1912024638582528 5.184758006631382 0 0 0
79 1 7.513092919989471 2.934707220484957 2.5075614885985167 0 0 0
80 2 7.454501603191672 3.4523551166909305 1.7181139919989084 0 0 0
81 2 6.624103954632408 2.8209546270273416 2.7865062383934536 0 0 0
82 1 4.84197143339359 3.142812070601923 2.7269902927680145 0 0 0
83 2 4.642035231141604 3.83154267593627 2.0508570142627165 0 0 0
84 2 4.208101712094958 2.423309048202579 2.5489468965877737 0 0 0
91 1 9.439912977960107 5.693711531012768 1.3596981817102305 0 0 0
104 2 8.531797850048992 1.6144626198552998 2.8377591038668197 0 0 0
109 1 7.097400351722182 2.3424156200550286 6.011174752533723 0 0 0
110 2 6.222712085723458 2.0137826460375523 5.669251596955023 0 0 0
111 2 6.931712977276425 3.1925538915972465 6.422116932885675 0 0 0
121 1 7.236384973134303 4.591671320061644 7.323696358175097 0 0 0
123 2 7.407267466499992 4.096122233749088 8.1793766845104 0 0 0
153 2 -0.9479813210202171 5.80967411973227 4.653441717503932 0 0 0
180 2 -0.31995746023594823 10.14126084239115 5.190700243156553 0 0 0
184 1 3.050184667126682 8.398512489090393 2.7227606805337183 0 0 0
185 2 2.9658112412745474 8.137896184302006 1.777487618199347 0 0 0
186 2 2.158798461014592 8.764564678428005 2.8550800365708318 0 0 0
187 1 0.2247837147706374 8.45887490278518 2.7976021628582743 0 0 0
189 2 0.10138500533377051 7.941871564080134 1.9532174725136535 0 0 0
190 1 -0.3950276409449896 7.995851499627453 7.428925482315883 0 0 0
191 2 0.16674700237842788 7.524556586086313 6.751569500413056 0 0 0
192 2 -1.1068875345848366 8.28009831409872 6.812219857640723 0 0 0
196 1 0.5865950860789684 10.016326732065998 8.99886762479282 0 0 0
198 2 0.28452685249299087 9.291622140958541 8.465441345149097 0 0 0
214 1 2.6126529749432734 8.970093341957488 5.809197579623001 0 0 0
215 2 2.471063004303359 8.138429463648837 6.341428405274346 0 0 0
216 2 1.755359758582591 9.199339696529726 5.337500631541491 0 0 0
217 1 5.143443436520534 9.082041670496546 8.52357147402727 0 0 0
218 2 4.830002368251626 9.690712118202011 7.809629362337752 0 0 0
241 1 5.053443595188684 7.890446561335855 4.981143490683023 0 0 0
242 2 5.230955897196219 7.370009635036451 5.79898622990688 0 0 0
243 2 4.151868743352394 8.34412566465585 5.187190831366436 0 0 0
245 2 6.1795479859083216 7.919414734181309 0.9690561936164794 0 0 0
247 1 7.420209447102517 10.30570188838764 2.061386312545577 0 0 0
249 2 6.481595690616603 10.020351019787388 2.2425837925211956 0 0 0
250 1 4.8203806423471836 10.468574064189875 2.35526299168377 0 0 0
252 2 3.9958137972097263 9.931706292265387 2.389553416838068 0 0 0
272 2 8.621393980664378 8.680550843069796 2.4718843798444015 0 0 0
273 2 9.259607587540666 7.2854439981417585 2.033283903035077 0 0 0
277 1 7.174677678642675 9.601972288035508 5.369924093984467 0 0 0
278 2 6.329434502514938 9.090034140235202 5.1916641044307905 0 0 0
93 2 9.805625665890751 4.979247550762276 1.9927631508120016 0 0 0
271 1 9.469859152979714 8.149000813783726 2.4833494180154823 0 0 0
108 2 8.394322124567658 1.3311042952139958 6.9904170205528295 0 0 0
122 2 8.065865223218667 4.952396724050287 7.117869688532517 0 0 0
276 2 8.015419128680522 8.600212372366135 6.714317038611718 0 0 0
213 2 3.352327674876344 10.233226705084238 6.649935578426141 0 0 0
103 1 9.311318255154688 1.0070426733935272 2.9632542426810646 0 0 0
96 2 8.852218243527396 2.518869949133503 5.29424641156984 0 0 0
117 2 9.682908563049162 7.2594616665828555 4.1475984324041075 0 0 0
115 1 9.712293148215672 6.568819409991865 4.885576003558816 0 0 0
94 1 9.847197621682438 2.827245032148712 5.2628519502797015 0 0 0
98 2 10.952621929782357 3.2187718015480944 1.2668729715983567 0 0 0
274 1 8.718277440404641 8.109060637900205 7.152569103097709 0 0 0
87 2 10.313321402651567 3.304685956250689 3.6261802077276615 0 0 0
85 1 10.712449132676458 3.570081093545894 2.8013256317570674 0 0 0
275 2 9.024035743134107 7.486469952429112 6.4927318685015765 0 0 0
120 2 8.571603485854615 7.439821284047202 8.848228328799772 0 0 0
95 2 9.736101316079063 3.706432840126378 5.778095347187127 0 0 0
116 2 10.526516835589486 6.07667664395911 4.85776052577512 0 0 0
102 2 11.403319291654256 1.1927132464048489 2.4950146734889556 0 0 0
270 2 11.489778681310042 8.269295268341448 2.617941761665159 0 0 0
86 2 11.3799320690698 4.158400156681555 3.1537280230980174 0 0 0
124 1 9.971155151071644 4.743587857775684 7.310928141953352 0 0 0
114 2 10.143485688403223 1.6574753919743739 8.310157735612972 0 0 0
282 2 9.687341392260134 9.369325153372168 8.176372426012186 0 0 0
269 2 12.080097921321808 7.538109168429923 1.3910491697541625 0 0 0
126 2 10.179936685495568 4.0575573481540435 7.98624368977739 0 0 0
268 1 12.32607707620142 7.9752542392635535 2.2620330892340985 0 0 0
100 1 12.333867982861694 0.9215743544596096 2.402708600880777 0 0 0
132 2 11.13055199374816 1.849181266495913 5.807688080866831 0 0 0
262 1 9.738053263231569 10.603491459007651 4.639427218091654 0 0 0
264 2 8.865715232075921 10.18776290246866 4.836851374904864 0 0 0
178 1 0.5963143586985385 10.458051327103247 4.994052084807246 0 0 0
188 2 -0.3568269214418416 9.256139244961703 2.816328849531558 0 0 0
47 2 2.5805095536182185 0.8923818950229017 6.635727087186517 0 0 0
279 2 6.885041892106781 10.433413424997141 5.760972255751605 0 0 0
73 1 4.948616838701268 0.7673323321032846 4.812067684719229 0 0 0
7 1 0.2908183099048981 6.219248006651136 1.043381359590275 0 0 0
300 2 10.895928384374274 9.357857725695832 5.177836083760623 0 0 0
17 2 2.987342971907585 0.639283512808213 1.28844151348151 0 0 0
29 2 1.8439105736253603 1.7556232331619348 9.401448188420689 0 0 0
219 2 5.913144663757373 9.591248221751533 8.825771286017494 0 0 0
25 1 -2.069283196930581 2.3316654390247726 6.099843162359172 0 0 0
125 2 10.69145436416336 5.341578425221514 7.291596921707104 0 0 0
280 1 10.026195063300861 9.990344955146385 8.801674835255676 0 0 0
88 1 12.151568615475906 5.779363228852306 3.915484063288764 0 0 0
90 2 12.540052311226733 6.426302055614224 3.292481570815287 0 0 0
112 1 10.273421165953138 2.4750952761126155 8.845108904894378 0 0 0
299 2 11.366118192468132 8.009618941283499 5.704085278726014 0 0 0
131 2 11.783235815455052 0.783699056264292 6.798958584037779 0 0 0
130 1 11.97813260484871 1.4672765471797542 6.146202508362184 0 0 0
298 1 11.665677895427157 8.824049374838939 5.341640534390854 0 0 0
336 2 13.688069817527381 9.369433437267533 2.8711150282584277 0 0 0
281 2 10.755199027621599 9.440359658127246 9.20717041645333 0 0 0
193 1 -1.9213272597374493 9.68582096497213 5.868255894713335 0 0 0
51 2 6.089475152277888 1.990752385743116 9.29901101263876 0 0 0
211 1 3.9101683438585937 10.905475288397522 7.044956800732859 0 0 0
303 2 -3.328871885512505 9.472953143965674 9.304906708237471 0 0 0
771 2 8.34928631749666 10.077640839342473 9.361960951883349 0 0 0
22 1 -0.3759567870730475 0.3164503775258575 7.24865264418763 0 0 0
369 2 0.43390775033166107 0.2714257028355928 4.308932696798078 0 1 0
559 1 7.0572828579927585 4.455435090019495 0.25469740004170804 0 0 1
248 2 7.478051497254983 10.825268310203505 1.1722385963270803 0 0 0
197 2 1.3910076436970378 9.703797651038856 9.523017829102857 0 0 0
13 1 1.9043012787145355 3.4647562977903563 0.16085665384199382 0 0 0
156 2 13.246194099221944 5.425132865400905 0.5931792265277129 0 0 0
20 2 -0.381111770564032 1.7833894010037155 2.4877697784299895 0 0 0
687 2 -1.0232008514460456 10.31442127305948 9.617436150910073 0 0 0
266 2 11.065366927552322 10.789860587414376 0.9872438625404313 0 0 0
105 2 9.174686422294288 0.3804432588349185 2.1960879172664582 0 0 0
195 2 -2.274642421154567 10.299138658415572 6.507219388310326 0 0 0
101 2 12.311553650024651 0.3542254042937065 1.5936567532425494 0 0 0
154 1 14.09125881508145 5.149052153621412 1.0725335042727036 0 0 0
168 2 13.54574520773053 2.284552312546105 2.641895316717144 0 0 0
142 1 11.838887726514702 6.465241377407457 7.137352909124905 0 0 0
167 2 13.909684986920073 3.7058317365813127 2.052787980684419 0 0 0
72 2 3.7221102458200432 5.507858729012994 0.8773249656291625 0 0 0
179 2 0.8020941876315477 11.06978067974686 5.776589247579509 0 0 0
335 2 13.799043125440955 10.480987082490019 1.7895348552798536 0 0 0
135 2 -2.6672142146158557 1.8036954840996118 9.172326698034011 0 0 0
182 2 1.8017876651309155 10.90430533069079 1.159620360488821 0 0 0
77 2 6.353394798888364 0.5453635936919992 0.7741362108386339 0 0 0
769 1 7.36643763843709 10.226717222781762 9.507779250141363 0 0 0
560 2 6.078099158606227 4.565823908366801 0.30897642252609075 0 0 0
106 1 9.029696894124688 0.6342470046370914 7.243401103008388 0 0 0
27 2 -2.360518290005236 3.0661675179012726 6.683952287873359 0 0 0
89 2 12.837194963853504 5.6669655326219335 4.614158476610223 0 0 0
155 2 14.535198174559813 5.856491419824214 1.6540115079501163 0 0 0
144 2 11.734833678065359 6.9703508557549885 7.95076117528445 0 0 0
334 1 14.247238615687566 10.172740738798291 2.6035900148503655 0 0 0
129 2 12.894186653478755 2.6206934732620035 6.981503235646099 0 0 0
166 1 14.07821120887941 3.0798715373761847 2.8103535884181863 0 0 0
297 2 12.353010263502611 10.180462226069599 6.458280911476587 0 0 0
159 2 13.356850220901185 0.810862437297182 5.128414671093338 0 0 0
327 2 13.56180971867157 7.991005703714089 5.122084080820074 0 0 0
143 2 12.81070963971562 6.310403829416391 7.160197218576748 0 0 0
402 2 5.6841444789190385 0.25132830511391047 3.219712860942493 0 0 0
113 2 10.851507984620726 2.180946652964288 9.53784605192516 0 0 0
263 2 9.972297941763221 11.139483314262627 5.392263200974188 0 0 0
832 1 11.789398845526042 8.125901925124284 9.683391268561069 0 0 0
97 1 11.000641142241559 3.0275423274159388 0.3103919891208974 0 0 0
181 1 1.9975264370713648 10.797948891342795 0.18062641998766243 0 0 0
603 2 8.703763261682145 3.0672466703389696 9.47132420072051 0 0 0
92 2 8.65416981911578 5.386049637695868 0.8883425455590925 0 0 0
601 1 7.777447687097763 3.3457486722413408 9.671229933639076 0 0 0
118 1 8.534598037655662 6.984199645162737 9.685258471953023 0 0 0
539 2 1.8128253970264527 6.654591150711236 0.20519669086984058 0 0 0
750 2 3.4792266784514085 8.790122409283196 9.316196526640041 0 0 0
55 1 4.126029771169012 4.522332059032927 9.459080759466149 0 0 0
623 2 11.075014684653048 6.0594184312187815 0.37721160815635224 0 0 0
21 2 0.003832478436671144 0.32206054120000144 2.122471453497869 0 0 0
74 2 5.316427069236035 0.19132603622447178 5.536998319203253 0 0 0
56 2 3.2528852475232175 4.8752462312706335 9.674759339397536 0 0 0
255 2 10.379220065119979 11.158091678415131 3.032409347016637 0 0 0
302 2 13.896566110822377 9.382985566563299 8.16561744501541 0 0 0
486 2 14.793471570621033 0.23352601095308795 3.481874237940099 0 0 0
834 2 12.689124870236512 8.515688656772555 9.61983543950325 0 0 0
134 2 14.529337070362375 2.1640196702802066 8.222100692034221 0 0 0
160 1 15.715036461505349 1.4154698469610907 0.3654190560566073 0 0 0
151 1 16.69985813740681 5.200544886608071 4.435092952752758 0 0 0
333 2 16.25010223786405 10.193438766162553 2.2913230248981145 0 0 0
128 2 13.710223600007517 3.8268429720847066 6.588043405144587 0 0 0
138 2 14.122501214809695 3.8811046923957724 4.435572476479914 0 0 0
136 1 14.172047095618508 4.473642723180374 5.210246908756167 0 0 0
295 1 12.946152258785414 10.773406033871407 7.0058954506983335 0 0 0
127 1 13.577375246179486 3.2890516676884145 7.447703065937998 0 0 0
157 1 14.271145253934229 0.5852416135467586 4.971164552151357 0 0 0
325 1 14.563602920939225 7.955263205730302 5.093153910663863 0 0 0
141 2 13.061741107411807 4.188198658262447 8.735142754865981 0 0 0
139 1 13.007046986691583 4.586815521186441 9.623242558737651 0 0 0
152 2 16.979172372478203 4.469447636718607 3.8889434317881695 0 0 0
161 2 15.719301893881141 1.0082599491061337 1.2947235978033547 0 0 0
8 2 17.924105938673474 5.754332697990238 0.7290191289602488 0 0 0
328 1 15.848613325835398 8.797828056963098 0.567016010530865 0 0 0
133 1 14.87700085626952 1.4119218121278474 8.815368469937345 0 0 0
306 2 14.204233057026263 11.013888283267447 4.02745895341278 0 0 0
332 2 17.36983025689339 10.86061694800123 1.490754324111643 0 0 0
26 2 15.667543842333748 1.9792694671006188 5.489986927168161 0 0 0
194 2 15.670822046873727 9.197986662204194 5.536822424827283 0 0 0
145 1 14.76147493855194 6.644517363960718 7.447876063997537 0 0 0
301 1 14.38192109483687 8.878705431823796 8.886834800770536 0 0 0
147 2 15.38008536649834 5.959851786578359 7.7355731186171095 0 0 0
163 1 16.981546963394056 3.1246087508988185 2.563795619250234 0 0 0
146 2 14.818927665882182 7.3374471888096435 8.132664557013412 0 0 0
331 1 17.078385927822936 10.682370879432566 2.3797492970012044 0 0 0
164 2 16.830745498517544 3.461262399838502 1.6178838438829302 0 0 0
329 2 15.956634391355808 8.165592175778434 1.3193084889646038 0 0 0
150 2 15.084540972155528 7.4425980867223265 3.379091831229818 0 0 0
148 1 15.57740792783758 6.951020542376215 2.678085848636746 0 0 0
165 2 15.995506417226565 3.0002445447594304 2.7467070698550655 0 0 0
149 2 15.960672385560631 6.2156843153002885 3.2316670235279568 0 0 0
137 2 15.118256786639574 4.758577725921692 5.1916773851781155 0 0 0
326 2 14.67712265216892 7.338598860489458 5.878617263615763 0 0 0
644 2 15.664951408053474 4.821989476762038 0.22885419814954183 0 0 0
162 2 16.65067007211485 1.659567614010597 0.1640679821531417 0 0 1
906 2 2.2664255967637046 0.2823238338516873 13.158668861804157 0 0 0
805 1 11.331674978994894 8.963890955217503 18.46902559131724 0 0 0
607 1 6.128629242576245 1.0807003158196027 12.124420480960897 0 0 0
665 2 12.158066128287823 0.21569824908217225 10.787400703181202 0 0 0
622 1 4.947169898827478 6.328234825277082 19.234362107298576 0 0 0
799 1 10.07898626789391 10.581150696464817 16.89180762346922 0 0 0
831 2 9.874805477268033 8.68374917540404 14.67528228568964 0 0 0
666 2 13.17974962846419 0.9542635853483918 9.813891497210548 0 0 0
99 2 4.8738684220824116 2.61555641304435 19.149492606738818 0 0 0
538 1 -4.2937351463060285 7.016560987663024 19.235650482196068 0 0 0
526 1 -3.954871373511869 0.572871587849576 16.513847840070937 0 0 0
582 2 4.017527410008638 1.2641842583612324 9.89456097515736 0 0 0
267 2 4.885845202639 10.16097479170998 18.93268737041371 0 0 0
780 2 4.515383557770353 8.379056694688582 16.544705663872453 0 0 0
597 2 6.322152778721171 5.374760124687372 11.168593403571618 0 0 0
512 2 14.496949821340689 5.423564557604355 10.234637416670983 0 0 0
244 1 -0.603532666201695 8.067716933933715 19.152855540720928 0 0 -1
717 2 0.052566525400853416 10.1455866909639 16.05826549554558 0 0 0
517 1 -1.3571871550415326 2.930540800968364 9.97284102975648 0 0 0
802 1 8.41373366973006 9.093308598752923 15.340323361794033 0 0 0
617 2 7.343052877951339 2.1859864653005148 18.882134315673866 0 0 0
836 2 13.31262106469341 10.828384193290638 11.004435639147431 0 0 0
748 1 2.679407413299631 8.523542688378981 9.786063703750699 0 0 0
806 2 11.086336837783739 9.68418695188034 17.80337622062359 0 0 0
635 2 8.261111323321515 0.9564479757275923 16.05990189561094 0 0 0
785 2 7.375282110607869 9.325180516296335 18.988989847283595 0 0 0
609 2 5.940500303962302 0.25158636066131507 11.643076062128618 0 0 0
140 2 12.088782185871118 4.824398594476249 9.873882012145177 0 0 0
804 2 7.722594299125745 9.680924852922823 15.005058140631194 0 0 0
505 1 -1.8222541221111443 4.095719337054615 12.268048973311915 0 0 0
506 2 -1.167870084948024 4.706678946651433 12.732762176886338 0 0 0
507 2 -2.2676464132055245 3.5974402692170977 13.025450731954317 0 0 0
508 1 -0.13977025640323842 5.999839354667948 13.526166329998002 0 0 0
509 2 0.7150555047256251 5.6643810893013855 13.816306795857749 0 0 0
510 2 -0.012994784927655302 6.844590355189391 13.082772035355761 0 0 0
511 1 -3.2260821974155274 5.884694780965691 10.78044737175188 0 0 0
76 1 -0.6356763954965333 0.9060183978929028 18.98675129607781 0 0 -1
513 2 -2.8468014095817327 5.278398818864946 11.418556777375196 0 0 0
514 1 -2.9777008400354803 2.9568201459289285 14.413097077116232 0 0 0
515 2 -2.8593509711487726 3.712370637733934 15.110241876758664 0 0 0
516 2 -3.948930005641301 2.7777737922029244 14.293925957442456 0 0 0
779 2 5.544463374527593 7.266275483298427 16.262105504543932 0 0 0
518 2 -1.6256220575666367 3.270372677183574 10.869342985074073 0 0 0
577 1 1.6107096943286097 0.9463322129604308 14.484985040581133 0 0 0
520 1 -0.3103735507072419 0.950113219751821 12.0149041047606 0 0 0
522 2 -1.1374006665032683 1.425799582816833 12.115133017597271 0 0 0
523 1 -3.0010185793479667 1.1601587191340734 12.26873735144751 0 0 0
524 2 -3.635201565434892 1.8176409110099294 12.037890414290837 0 0 0
829 1 10.839401843799001 8.526937806275335 14.629447147465592 0 0 0
528 2 -4.6351678423632166 1.1810144896950823 16.26621036228181 0 0 0
529 1 -5.462438920517972 2.6031931185989152 15.370412320048645 0 0 0
530 2 12.032147279877403 2.2481261935321823 15.156803774438822 0 0 0
531 2 -5.464523479801596 3.5024604784050237 15.744444698196393 0 0 0
532 1 -2.6581935338270957 2.397607885293697 18.12123337534904 0 0 0
246 2 0.36463051039906264 8.283411845170004 19.171488131064734 0 0 0
534 2 -2.9415332939900383 1.594582492549752 17.53388353932175 0 0 0
535 1 -2.811737358777069 6.738078004939876 14.46050358429723 0 0 0
536 2 -1.9395335906216231 6.348574491151086 14.513037268093903 0 0 0
537 2 -2.858024640476215 7.347205640950551 13.720415953683744 0 0 0
715 1 0.6856806993959759 10.491471065674922 16.757439348680034 0 0 0
637 1 11.187456490774393 1.704500842839556 18.504363522000165 0 0 0
540 2 -4.215566675404179 7.263576641290053 18.296742018493916 0 0 0
541 1 -5.1679500842822135 4.809200447030543 16.768277855996143 0 0 0
542 2 -4.184060259081783 4.967318284846646 16.78575643399822 0 0 0
543 2 -5.302598961042486 4.385348980182756 17.647153859330047 0 0 0
544 1 -2.605692131069474 4.5599711339685545 16.420276295310703 0 0 0
545 2 -1.983144695746728 5.352713107456175 16.62457103082386 0 0 0
546 2 -2.3531307355139135 3.891768419810107 17.067758093603732 0 0 0
547 1 0.6571739401887868 3.203799813670543 16.703483453392877 0 0 0
548 2 1.0587631239687672 3.6707274085755657 15.995843486030388 0 0 0
549 2 -0.012500631471305791 2.649169925353329 16.24235080828164 0 0 0
550 1 -0.9274485874669776 1.63669745789204 15.228005810920962 0 0 0
782 2 3.033907697831818 9.201846031173044 15.105930407004015 0 0 0
552 2 -1.7644905389092056 1.9688066983113153 14.957259407648598 0 0 0
553 1 2.1481442365690286 1.6011634864254527 18.107662625579344 0 0 0
554 2 1.710419839303737 2.310333241801908 17.57328915956366 0 0 0
801 2 9.397314884540716 9.858526267265505 16.78694397398303 0 0 0
556 1 1.771771577648635 4.4628745693355 14.397068777309599 0 0 0
557 2 2.7401603742637466 4.65501683183142 14.194672617358382 0 0 0
558 2 1.5353916866353918 3.7579024782171717 13.709387936645124 0 0 0
561 2 0.305151900603444 4.076537569437842 18.441031591276694 0 0 0
562 1 -1.0911343638998836 6.624479754810372 16.778520682732978 0 0 0
563 2 -0.10903881107029313 6.4974797498825625 16.683750732381643 0 0 0
564 2 -1.238156909647397 7.044781831016011 17.66265479471527 0 0 0
565 1 1.8851021688715073 6.370399093427583 16.621205522156025 0 0 0
566 2 2.1523678785407796 7.004395921223192 17.37573929050414 0 0 0
567 2 2.4989668895394934 5.6998057930827954 16.81261792904687 0 0 0
568 1 3.0262448990484825 7.08469561149854 12.006281213461802 0 0 0
569 2 3.4863623504722296 6.2964447635917695 12.470157757779923 0 0 0
570 2 2.5293340702971 7.594976643418973 12.623338241135155 0 0 0
571 1 4.214615028836109 5.2286257028669265 13.552554591220334 0 0 0
572 2 4.722729044782845 4.72676671069716 12.923653010894247 0 0 0
573 2 4.8436907827551865 5.779226711773454 14.06843788417031 0 0 0
574 1 1.2740017255030562 5.180360560284072 10.463979024420942 0 0 0
575 2 1.83138154348788 5.68773459935597 11.06200683116278 0 0 0
699 2 -5.803757662061297 10.930236263666966 15.953183054573048 0 0 0
701 2 -1.6484034818124615 9.648869742031088 18.69095064412712 0 0 0
770 2 7.394576652831146 10.564492579298339 10.428612256136926 0 0 0
579 2 0.6316610241275132 1.2087144333378612 14.539285104122186 0 0 0
580 1 3.1159332035133307 1.0175424689309491 10.031473018124249 0 0 0
583 1 4.359541895627458 2.9514716992550576 11.807500573945438 0 0 0
584 2 4.401660092336096 3.4662674820129835 10.929598886491483 0 0 0
585 2 3.388461095885585 2.714564294531822 11.889091435348767 0 0 0
586 1 1.6630361372178486 3.085900618205426 11.991180894858623 0 0 0
587 2 1.2116011251871794 3.8776207158932112 11.512011089392415 0 0 0
588 2 1.0085694102184737 2.363268281501715 11.914678755398004 0 0 0
589 1 7.2717804152551535 4.22567468629691 12.060991474228445 0 0 0
590 2 7.751786693678756 4.769521186931485 12.754692730295831 0 0 0
591 2 6.827320757099302 3.5256351502481413 12.544697091654589 0 0 0
592 1 8.451395794209528 6.117425905512545 13.528628129912548 0 0 0
593 2 9.278665266104463 5.754998755687513 13.96768214062875 0 0 0
594 2 8.75236803743195 6.9274695405153865 13.062816549333453 0 0 0
595 1 5.937012298232457 6.082399212807902 10.604035736788552 0 0 0
723 2 2.631990107263233 8.727675205374627 19.0324968255936 0 0 0
576 2 0.46494655219847864 5.741418778188221 10.440397459966121 0 0 0
598 1 6.647654062060406 3.1064284023442204 14.501818978123573 0 0 0
599 2 6.75897714116496 4.0005612060101265 14.978546693803237 0 0 0
600 2 5.7217089826638015 2.838718487912875 14.741764803099397 0 0 0
551 2 -1.0302677395720474 0.7974347161508897 15.700356958866013 0 0 0
602 2 7.854618030944685 3.744065366348244 10.59846005285731 0 0 0
604 1 9.067524151575514 0.7971207579350132 11.951853929385507 0 0 0
78 2 0.26592538657960885 1.1695208340427536 18.835083632154046 0 0 0
606 2 8.136296688185615 1.0803232372122136 12.072721611842859 0 0 0
660 2 10.079688498855855 5.921111810269933 10.186755944321066 0 0 0
608 2 5.426372050444104 1.7255500366628531 12.123568044564703 0 0 0
624 2 4.9069933504555445 6.863236735670125 18.32276888069499 0 0 0
830 2 11.068750078251997 7.7652374639274 15.199605200207438 0 0 0
612 2 4.492436581735788 0.9049781528805569 16.290701543671613 0 0 0
613 1 3.9314496502783602 2.3262106130787803 15.111469079466152 0 0 0
614 2 3.1937852797539135 2.0329872453517877 14.564744497220936 0 0 0
615 2 3.608440538257194 3.081278135465047 15.630132218961743 0 0 0
616 1 6.560319058654913 2.47572202578068 18.329486886814905 0 0 0
803 2 8.00430109116061 8.498145003143629 15.982372692586257 0 0 0
618 2 6.342634662754527 1.7117531377402486 17.718269654900176 0 0 0
619 1 6.207241720548818 6.968901678618158 14.695387529166657 0 0 0
620 2 7.140748369876052 6.743372119987334 14.44702187761176 0 0 0
621 2 5.963140032379639 7.517409011416346 13.905659408297964 0 0 0
686 2 -2.011822561315082 10.77755193283472 10.790562428071022 0 0 0
625 1 3.991424740496927 4.429162001299315 16.95523262967433 0 0 0
626 2 4.977136196798458 4.570933989445648 16.769350864546237 0 0 0
627 2 4.027071244389565 4.103123806202189 17.858632031236674 0 0 0
628 1 6.754459691780096 4.807677627843727 16.740822505080114 0 0 0
629 2 7.2755694059695895 5.557489649263047 17.080197406108567 0 0 0
630 2 6.937370701307961 4.005761349660274 17.26364172146053 0 0 0
631 1 9.987405728707332 3.295715444411421 16.770716559324438 0 0 0
632 2 10.246502788115524 3.902802468272656 15.97685409331308 0 0 0
633 2 9.180342858348842 2.7663760589272255 16.50154668254756 0 0 0
634 1 8.495470158383034 1.6651029538319582 15.52131137054844 0 0 0
555 2 2.8805331912576104 1.963553671554741 18.70711218767288 0 0 0
636 2 7.730606931751729 1.9664930642696226 15.037906169983637 0 0 0
682 1 -3.0046832291319467 10.606810708669192 14.559872640670868 0 0 0
638 2 10.985136947683136 2.363938516971401 17.7581208605925 0 0 0
766 1 6.224997524293057 10.708971824289343 14.5702983239064 0 0 0
640 1 10.622713960672435 4.803067352262495 14.482244097567985 0 0 0
641 2 11.509211838420976 5.070025721703066 14.400942983040578 0 0 0
642 2 10.581977224903389 4.092215293173757 13.828303459732261 0 0 0
645 2 9.685808911541136 4.111729928400565 18.35242838176956 0 0 0
646 1 8.376578463768256 6.990326168528507 17.32967965270404 0 0 0
647 2 9.270631192847619 6.629861801579862 17.08893949207142 0 0 0
648 2 8.463970419300582 7.1201268380762235 18.3170833488174 0 0 0
649 1 11.235973660483081 6.942285682626831 16.695585575400187 0 0 0
650 2 11.455023225003677 7.653857035531125 17.314751240804007 0 0 0
651 2 12.000370999021266 6.418112009037734 16.484913606946254 0 0 0
652 1 11.679043526930899 7.398159419306766 12.399379649566246 0 0 0
653 2 12.414145672025999 6.854948129204047 12.71578175604681 0 0 0
654 2 11.389613249129097 7.970034142768562 13.196160167889063 0 0 0
655 1 13.262153322046773 5.438899594776104 13.701876708036098 0 0 0
656 2 13.286486247124595 4.608153626068589 13.235710667025657 0 0 0
657 2 -4.229922452904541 5.662444011892249 13.882655162409671 0 0 0
658 1 10.681888938712133 5.400899514712538 10.713532234574442 0 0 0
659 2 11.025663731344759 5.98382079735239 11.388618747165658 0 0 0
578 2 1.7439658322920197 0.20789693139109625 15.131585490346422 0 0 0
685 1 -1.9463531265316338 10.405964244199348 9.896887742319677 0 0 0
838 1 10.524229108047399 10.46597155361183 12.174659638476514 0 0 0
663 2 10.081923566373431 1.1170887054956231 14.33857425961015 0 0 0
835 1 13.324250061145277 10.322790854152608 11.882251865597974 0 0 0
667 1 13.252060010026671 3.1456773014159127 11.895596042549197 0 0 0
668 2 13.189808832876114 3.519408453835219 10.979483991931437 0 0 0
669 2 12.3282844007989 2.8637364846653135 12.18325737226854 0 0 0
670 1 10.588654680646723 3.238559758002311 12.311617025835208 0 0 0
671 2 10.32010414982231 4.000318334153728 11.714914303995029 0 0 0
672 2 9.936374455920054 2.5010782789011143 12.334956825204191 0 0 0
605 2 9.033123789006034 0.4320203764355779 11.04971761265347 0 0 0
837 2 12.40957631341488 10.107525962120606 12.052080789114271 0 0 0
684 2 -3.919179636611398 10.324908471632751 14.708315385906257 0 0 0
688 1 -0.1410301428137849 8.606451803078855 11.883285121919018 0 0 0
689 2 -0.41881833773119953 8.112597322979822 11.120033694716827 0 0 0
690 2 -1.0368832225955638 8.8375234674434 12.328302809622283 0 0 0
691 1 -3.055278934734301 8.363699135798111 12.257781121541834 0 0 0
692 2 -3.7490799414644234 9.00895681148801 12.006274870533714 0 0 0
693 2 -3.179559781027135 7.57725628044425 11.668927317783766 0 0 0