LAMMPS data file via write_data, version 8 Apr 2021, timestep = 21655000

576 atoms
2 atom types

0.317420128959992 17.60258087105384 xlo xhi
0.11241912896214738 17.397579871053953 ylo yhi
0.4624201289591851 17.747580871053938 zlo zhi

Masses

1 16
2 2

Atoms # atomic

445 1 3.4070674987167835 3.6613829558414386 3.1483132719524365 1 0 0
356 2 3.6664760490949577 2.1708373834476578 2.541238016165403 2 1 1
355 1 3.8066132104121744 1.356215050663956 2.0990356913533015 2 1 1
446 2 4.103785558792767 3.7708763595930015 3.7858708068067877 1 0 0
137 2 1.9799244887071268 3.7141646900887673 4.229706229463935 3 0 2
492 2 3.0482665492655965 1.7316057344717213 0.6843082858925842 2 1 -1
41 2 0.3939546203486194 4.045986776472714 1.6475233012967117 0 0 -1
138 2 0.45190982919681255 3.7414719072965834 4.200280443156683 3 0 2
357 2 4.819052914655885 1.2006460525674296 2.1434386626613433 2 1 1
309 2 6.640834930768141 0.8642660314572532 4.062624955408914 0 0 1
465 2 7.882056346918575 3.15493120021534 2.0419632728426733 0 1 2
463 1 7.875367131353103 2.606567942371728 1.2163511260070154 0 1 2
135 2 6.825271279177888 1.2450942837595238 1.690081112374255 1 -1 2
133 1 6.266322166271661 0.6641385334532234 2.2573054590378803 1 -1 2
227 2 7.370821535094899 3.1582046515465083 4.146559571357176 0 -1 0
226 1 7.8761873633785076 3.8576483523375145 3.6758062068999995 0 -1 0
464 2 8.767004282495456 2.5833148541506827 0.8381196360600882 0 1 2
548 2 8.95017860621262 1.218201349993463 4.241341963847333 2 1 -1
447 2 3.372505875348517 4.454744771486529 2.6060045164182255 1 0 0
185 2 2.96268227007847 6.369274687710911 0.967594965179678 1 1 1
184 1 2.5514591792731847 5.611432582140637 1.464833558010227 1 1 1
186 2 1.990531153185857 5.1343178740681825 0.8419486608236624 1 1 1
2 2 1.3163450483577404 6.223617539659979 3.1886748388439714 1 2 2
1 1 0.7324673345746974 6.939327719470365 3.521061487607417 1 2 2
3 2 1.3631358213272529 7.59635101061862 3.729375679714791 1 2 2
37 1 3.8308318912243458 7.812712524024503 0.8400001343817306 1 0 -2
168 2 4.625042159019459 8.18667615412013 2.251441178141739 1 0 0
485 2 0.48453443355009485 7.356910680057392 1.6806045302441694 2 0 0
559 1 8.715137265847067 6.844837079154963 1.7413530550275358 -1 3 1
228 2 7.244815982606569 4.575212085624402 3.4831117918648324 0 -1 0
504 2 6.023839643463168 5.7693795667382295 1.728888680988696 1 -1 2
503 2 5.836204035151476 6.658777791909682 3.0075728851047825 1 -1 2
502 1 6.222727285174857 5.8191558937701116 2.6784459853648164 1 -1 2
560 2 7.898539852190702 6.422893748929661 1.9744515160457208 -1 3 1
166 1 4.988809952855429 8.228587402232987 3.204107827824392 1 0 0
179 2 8.710122819361617 7.776691121532722 4.75174063438562 1 0 0
384 2 3.0357059468641454 11.962962612756701 0.651433276567019 2 0 -1
189 2 3.212247462498425 8.774434090054342 3.7239452219048172 -1 1 0
459 2 2.279081677526889 11.82374509046278 2.914407836094331 -1 0 0
382 1 2.621675443984674 12.428704080338436 1.324318958973271 2 0 -1
457 1 2.2478641966039947 11.58961602275384 3.8483853985484497 -1 0 0
458 2 1.4511929147461922 12.027708955836328 4.217893937061661 -1 0 0
285 2 3.6714226049967116 12.23779844584347 4.47185403721708 0 1 0
188 2 2.3546132221645295 9.918607073446882 4.257850161336523 -1 1 0
187 1 2.5039548559034515 8.943070658669384 4.3659330122288615 -1 1 0
408 2 1.0247848054208806 12.451215571088005 0.9698489722100104 2 -1 0
128 2 6.008387726854304 10.893693698694312 1.2792582777113586 -1 2 1
167 2 5.432137320574169 9.111732502650732 3.1866723528210996 1 0 0
394 1 6.605932536484982 10.562899375770597 3.1158143340865365 2 0 3
396 2 6.284072920487167 11.308898920884054 3.6437929682907195 2 0 3
395 2 7.552165438051874 10.53269533130807 3.24120162156001 2 0 3
283 1 4.65162033636286 12.236562369811955 4.6086793351808835 0 1 0
383 2 3.252367699598095 13.079212702950276 1.624336440676778 2 0 -1
347 2 3.101774841639348 17.30604042897491 3.0912316640142197 1 0 2
346 1 2.864066856166822 16.519716064788167 3.648185113233749 1 0 2
348 2 1.939371540001859 16.366478233489403 3.450763190323222 1 0 2
86 2 3.7989251848295753 15.191796855289732 2.8551567928350394 1 -1 1
85 1 4.043745530866093 14.269687812086318 2.691095420741862 1 -1 1
87 2 4.333078116154084 13.763035943056224 3.520614802005839 1 -1 1
549 2 8.739006371211927 16.93012970958449 4.218206914064275 2 0 -1
134 2 6.466128715580239 17.03934409596146 1.9937034341909028 1 -2 2
278 2 5.94632355180159 14.97472648863469 1.6942700211173003 0 3 2
277 1 6.752753920188016 15.334629677839734 2.0307681738467624 0 3 2
279 2 7.636859620857391 14.944563777888188 1.7098774136013828 0 3 2
93 2 7.000937062429507 15.333016053347539 3.6936024408202983 2 -1 1
91 1 7.421703187493383 15.405133274201944 4.6155378088051995 2 -1 1
148 1 0.9813196313875918 2.8893100668848395 8.770987962546391 4 0 0
136 1 1.2045702108467862 3.7901795604994786 4.831983029080659 3 0 2
441 2 3.528351648742897 1.8420348040837937 8.102741314306934 0 0 -2
439 1 3.000519871669661 1.9069296416083616 7.30211965733715 0 0 -2
440 2 2.1765325079147746 2.238714646021538 7.656400569645575 0 0 -2
269 2 4.152848350618841 2.8813641750813517 6.148465518432016 -1 1 4
57 2 3.1158385809894673 0.12484596864118205 6.833955124675269 0 0 0
249 2 8.86690789345905 4.331960598574299 4.968377856242963 0 0 0
268 1 4.746320454918303 3.283079026010858 5.485690226584426 -1 1 4
315 2 4.7643249703351245 4.000524985010782 8.638808079676519 -3 -1 1
61 1 6.070465888456667 2.652220186906563 8.485899239627638 2 0 -1
307 1 6.7325257899353135 1.4790261139828014 4.809040034534343 0 0 1
8 2 6.413477016836492 1.1513837815987604 7.802007183775039 1 1 -1
270 2 5.458337722631626 2.6145227294383044 5.325540673451852 -1 1 4
308 2 6.6661696033352005 0.913563204396505 5.613683562853791 0 0 1
7 1 6.665581253137007 0.44759742281033466 7.221801430545142 1 1 -1
63 2 6.693748974786361 3.357101308253334 8.647352689296616 2 0 -1
313 1 3.9238776526134793 4.490017868047821 8.793822745982741 -3 -1 1
218 2 2.00126675704504 4.577112079818844 6.166619660635279 0 1 0
314 2 3.431644165152888 4.600156418127172 7.889371828314651 -3 -1 1
272 2 1.4330251512924495 7.253579268795401 9.082839657390231 2 2 -1
217 1 2.564457414075072 4.964744116789219 6.81573994750089 0 1 0
219 2 2.0722671151442853 5.688754941926249 7.256217100234737 0 1 0
271 1 1.6242914044324104 7.132697398990017 8.115162998083434 2 2 -1
556 1 3.637131535830251 8.114011553596589 6.670797354735155 0 -1 0
273 2 2.4325188306358987 7.726341279593291 7.938405500012157 2 2 -1
558 2 3.1437556194716962 8.369301347978613 5.865295098354253 0 -1 0
36 2 4.627398190149692 6.574023756809141 6.578732035425836 0 1 -1
155 2 8.136009765321353 4.818280391236609 7.091582464931915 -1 1 1
288 2 7.50600486924606 8.395571082424762 7.696069801345428 1 -1 -1
35 2 5.143308078335738 5.098947086835768 6.040978265478571 0 1 -1
435 2 6.531619329325755 7.113441993523354 5.471293856749136 0 0 -1
433 1 7.116194280821254 7.934391072831988 5.369828468174831 0 0 -1
34 1 5.424550029191651 5.991906494394868 6.4231010593760365 0 1 -1
154 1 7.614678454741578 5.144287932547863 7.8668424605150795 -1 1 1
156 2 6.841050380374959 5.614645766779496 7.5291722317900085 -1 1 1
434 2 6.617962190157319 8.687313066856612 4.963131806050679 0 0 -1
448 1 4.2606852413116805 11.260000642859636 8.83897098033114 0 0 -1
557 2 4.3013865998615675 8.78069934471578 6.8171267707401295 0 -1 0
555 2 0.9645593992952404 11.450792906776455 8.504037473541908 -1 -1 2
290 2 0.6371474905655711 12.785264133390243 6.550080267235246 2 1 2
289 1 0.7202680680419462 12.896867299477497 7.515298297464955 2 1 2
449 2 3.270264316431086 11.214184114653085 8.881968272306603 0 0 -1
553 1 1.3942495826475048 10.736892288916057 9.096298936603525 -1 -1 2
284 2 4.927829497227774 12.977809903999937 5.19630172477739 0 1 0
469 1 8.435953455198018 12.90775812847473 4.8863601978467575 1 1 0
287 2 8.281083044622527 9.499072646528385 8.600092948684267 1 -1 -1
195 2 7.194029722179712 12.877176460303806 7.574221802685314 0 0 0
286 1 7.6229533223806385 8.779787318353556 8.564098194236918 1 -1 -1
14 2 8.827071397667593 10.185555105613028 6.348096957239942 0 0 0
332 2 5.199311455613576 10.744588897897849 7.214279867203166 1 -1 -1
333 2 5.176127673105056 11.104874994077672 5.855247602359261 1 -1 -1
331 1 5.4091231309896886 10.294376744108881 6.370562760103452 1 -1 -1
15 2 7.169109699735215 10.265711292573451 6.210306561741489 0 0 0
13 1 8.07249155379449 10.704437631382456 6.082768489986572 0 0 0
471 2 8.23996133602466 12.017147956041816 5.257862325784273 1 1 0
516 2 4.516605478394743 15.566580735714485 5.886738071473538 0 -2 1
55 1 3.1664299401223412 16.577595466799533 6.37853847062511 0 -1 0
462 2 2.044335915068391 15.46488760770454 8.495493532735674 -1 -1 0
460 1 2.5978425960212683 14.693889835061192 8.233228173778333 -1 -1 0
291 2 1.4441295099271243 13.5239748534712 7.675780410616503 2 1 2
56 2 2.8919555314595717 16.75212945165933 5.427227117789605 0 -1 0
461 2 3.2295082653842835 15.121469103812299 7.601422184194171 -1 -1 0
92 2 7.801928505670295 14.514310801559086 4.784068938964276 2 -1 1
194 2 6.1377578593966335 13.946016347677768 7.0311398403582945 0 0 0
252 2 8.250483820891812 17.39328517164557 7.205939571201138 1 0 1
9 2 6.3424275909929095 16.9542134294007 7.7593283567979885 1 0 -1
515 2 6.025470324588457 15.149846073375823 5.310883647330074 0 -2 1
514 1 5.21420375157796 14.800714415434568 5.855563888055671 0 -2 1
193 1 6.327214998107608 13.248345805117651 7.7001267977667816 0 0 0
507 2 6.0618922796939225 14.807706456085667 8.755791906994377 -1 -2 2
505 1 6.209447000489416 15.7832872090095 8.86311797753264 -1 -2 2
80 2 4.559512062142685 0.8783420942346009 10.19217313334133 0 1 0
349 1 2.569122405705272 3.8089390204795905 11.093461682974223 1 2 0
79 1 4.088909625537995 0.24107616825275485 9.55233125285696 0 1 0
350 2 3.2373868177995293 4.141817575805255 11.78428793806761 1 2 0
223 1 0.9706528985253375 2.4314509515490466 13.012272435771886 1 1 -2
351 2 2.9288179507560024 4.070739132595508 10.231737542614086 1 2 0
571 1 4.321450184005757 4.187296288536736 13.132895841739876 1 -1 0
225 2 1.6270082829169332 2.634363342119715 12.37544636332752 1 1 -2
81 2 3.156510663388096 0.15989448278250754 9.975270952417134 0 1 0
150 2 1.4602417152828506 3.2777031979878193 9.531440744232095 4 0 0
141 2 0.8152509274612711 0.1514924933937036 9.511918720405502 0 2 -1
224 2 1.3049947044518537 1.5904419307520266 13.346683084358094 1 1 -2
66 2 5.0974058702 3.0132371052199187 11.60446346567275 -2 1 0
64 1 5.381523491254274 2.2100599264714678 11.123093379240702 -2 1 0
65 2 5.807386213213122 1.705637820761608 11.888154674082521 -2 1 0
62 2 5.832737198924053 2.4354354025415343 9.436964289652233 2 0 -1
342 2 8.741131370014807 2.4193046975515466 12.18118412761883 1 0 0
340 1 8.640882645074523 2.363579986253109 13.19492807963793 1 0 0
367 1 8.626334681729237 2.738800114343823 10.572852283040087 0 -2 1
368 2 8.590023890314185 3.700662491018988 10.406607450132684 0 -2 1
108 2 1.0703246296156999 4.7746817305224045 12.003608480960406 -1 1 0
174 2 1.711442213596264 6.818582173052091 12.290712116258813 1 1 -2
173 2 2.737018942690622 7.284997798952209 11.307158125559852 1 1 -2
172 1 2.250419790229808 7.603700161851937 12.081960273633499 1 1 -2
575 2 4.211246958357034 5.914238400327389 9.703303178571167 0 1 1
574 1 4.296756960546204 6.68640486098839 10.431912065596183 0 1 1
106 1 0.6174439082386084 5.4803571215137525 12.423394305165512 -1 1 0
375 2 5.044729162963967 8.204936313131148 10.02837089044215 -1 0 0
497 2 6.906245000841009 5.557526471356119 12.607896590376859 -2 0 0
576 2 5.07200105901056 6.43416473131032 11.079742818540522 0 1 1
498 2 7.515498850332746 5.937910470660966 11.295241013085747 -2 0 0
496 1 6.696872839987948 6.062528442315888 11.794760301492008 -2 0 0
413 2 7.140702379594082 7.833154437006563 12.05853802096122 0 -1 0
412 1 7.250565700857027 8.575678899784355 12.700381030665955 0 -1 0
246 2 8.589331611182706 5.6412848584756 9.366088378095832 -1 0 2
244 1 8.729804269384697 5.667218147755913 10.337364537170131 -1 0 2
537 2 0.6211554026825052 8.825313668804895 11.522937704791833 0 -2 0
450 2 4.552502694427768 10.45326912849406 9.292052306962356 0 0 -1
305 2 1.1961066217621463 12.874645386637015 12.658470136473284 -1 -1 0
554 2 1.1774645728511264 11.051138938406938 10.0024599584859 -1 -1 2
531 2 4.600285329115306 9.3962849516151 12.08364404198069 1 -1 0
414 2 6.387200296822199 9.041421119380924 12.715585785742265 0 -1 0
373 1 5.409800615315189 9.139761715950337 10.168014333622716 -1 0 0
529 1 4.727714522792942 9.436810871025056 13.01355564698301 1 -1 0
530 2 5.095280383078253 10.360706330786623 13.134481847683782 1 -1 0
114 2 6.219668250740911 12.108634123715461 12.425226884134402 0 -1 1
403 1 5.555599668193028 12.866035673533688 10.592426816091313 1 -1 -2
112 1 6.156360600345466 11.794220327193045 13.332223229984406 0 -1 1
421 1 8.421522444503125 12.717715378227341 11.023129873833268 0 1 -1
405 2 5.179010994953863 12.30631133073894 9.915922570705632 1 -1 -2
26 2 8.649773768117328 9.595790267774968 12.408880877634237 0 0 -1
423 2 8.857964812409051 12.143362746493198 10.37708381610564 0 1 -1
404 2 6.5582700674426535 12.6803214996525 10.464145095010013 1 -1 -2
374 2 6.264838570711927 9.258951250871963 9.662185104442804 -1 0 0
304 1 0.9414483913604839 13.390215445972254 11.864721008903068 -1 -1 0
401 2 4.032411869301423 13.701125143574938 10.8486089842632 0 1 -1
306 2 1.8024233246006431 13.58235490653924 11.368816524349468 -1 -1 0
140 2 0.9007263837540982 16.49333861939875 10.59733392284935 0 1 -1
400 1 3.171926409513526 14.13387437680957 10.831192987644487 0 1 -1
95 2 2.4888901546353615 16.77687603241697 13.317722001745567 0 0 0
334 1 4.066410261927176 16.075143225790995 12.620660124117252 1 1 -1
335 2 3.727524701014099 15.47947442993183 11.933024660380715 1 1 -1
139 1 1.5155715044464042 16.802478806610626 9.908250724089324 0 1 -1
96 2 0.8916549291482576 16.554013887532356 13.146509758412513 0 0 0
402 2 3.1638022086633817 14.552418821657714 9.91804588114137 0 1 -1
506 2 5.379532552675977 16.19150500037934 9.178101924421815 -1 -2 2
336 2 5.036488962445597 15.878863270646576 12.663455057010085 1 1 -1
422 2 8.41168383294629 13.674809553604412 10.823762282618913 0 1 -1
358 1 6.635472662956849 15.352646920082162 13.110100233642097 -2 0 -1
359 2 7.151952695848138 15.17388325860596 12.317621497949077 -2 0 -1
427 1 8.174225522130056 15.445006897894112 10.79780425175216 0 -1 0
429 2 7.549911735629603 15.683896568538039 10.08172119859074 0 -1 0
397 1 1.047595648325167 3.8181576332242586 17.04194886452429 3 1 -2
572 2 4.030278866614401 3.3750524608137717 13.6480898450735 1 -1 0
398 2 1.7682894920666876 3.129756324803697 17.013303484543275 3 1 -2
131 2 3.518566602361495 1.8133173729010272 15.444181943207187 2 0 0
490 1 2.6720835203058453 1.7787410391966996 17.083153673062967 2 1 -2
130 1 3.7622619607428542 1.927090332405894 14.463773949630918 2 0 0
491 2 2.2518693297924997 0.8621521019353093 16.892257781063634 2 1 -2
132 2 4.374225414640272 1.2677971395770486 14.210970134454836 2 0 0
153 2 6.829663585614133 3.377461194219743 17.31479912495747 1 2 1
145 1 6.431759642278917 0.919454822616974 13.72644073354591 -1 0 1
147 2 7.15891941948 1.5364878550566234 13.603112279434859 -1 0 1
341 2 8.357639922100747 3.2813304418336977 13.628997283362375 1 0 0
152 2 5.823221003195563 2.841580100143341 16.328325609157673 1 2 1
337 1 5.9227253622240195 0.6365245755349186 16.41445292646215 1 0 -2
338 2 5.956707062210752 0.7677128195346125 15.45009965105182 1 0 -2
151 1 6.3232186737420015 3.6557488250791863 16.516030174173277 1 2 1
339 2 6.792056661436569 0.3206655759576911 16.716026444048797 1 0 -2
39 2 4.4789726467153 7.21523455043712 17.69212447337506 1 0 -3
573 2 4.137321942045701 4.9649186186221534 13.669208603011999 1 -1 0
159 2 3.696829072457847 7.121966349349472 13.484958572391008 0 1 1
303 2 1.6810308754253431 5.264910159222151 15.959399132483899 1 -2 -2
157 1 4.117866157070962 6.605625380538407 14.167581628214695 0 1 1
301 1 1.8159861335094716 6.251577193265026 15.93069143149113 1 -2 -2
302 2 2.670814450399288 6.41057079891343 15.448238270075176 1 -2 -2
38 2 3.582872952702785 8.564301842234501 17.60851238981261 1 0 -3
486 2 0.7832785810255108 6.7095501082752 17.654995455346505 2 0 -1
105 2 7.307525490462221 4.560475527867625 14.97204446956825 1 1 0
158 2 5.022894214180829 6.953875321347184 14.403763470596818 0 1 1
310 1 5.450979026744428 6.02952671925062 17.237198677933943 2 0 0
103 1 7.792157775561807 4.651075813711364 14.152247221527915 1 1 0
311 2 6.028404350862564 6.679445168749823 16.785598766060083 2 0 0
104 2 8.624551699478264 5.093758092588978 14.3248566526326 1 1 0
241 1 6.571870770539943 7.502279670274019 15.376094658329134 -2 1 0
243 2 7.311096034553737 7.346229907665008 14.782830561551322 -2 1 0
242 2 6.613140472948659 8.478155566845857 15.347536140766783 -2 1 0
312 2 5.623857858148647 5.081524979279015 16.894219618537903 2 0 0
68 2 2.870421207950703 9.254404377392751 13.736397482108883 -1 -1 -1
73 1 1.903419219044852 12.308713119696474 14.101856607691191 1 -2 1
75 2 2.7894678426596595 12.666171995866778 14.37535145247613 1 -2 1
74 2 1.8385291964711155 11.347552784601772 14.217306436300404 1 -2 1
88 1 3.030767484394541 10.005866080060102 16.969516396678713 0 0 0
67 1 2.2218263113447585 9.547838944116645 14.427075432568481 -1 -1 -1
69 2 1.4436340342754848 8.964106808588264 14.453121751186266 -1 -1 -1
89 2 2.8259314983498105 9.876040439323827 15.987456588587563 0 0 0
90 2 3.8772860951949184 10.364162213473033 17.187015262360358 0 0 0
127 1 5.697115492846508 11.002157850853022 17.641329729201452 -1 2 0
182 2 8.535134427112872 11.442045697429478 16.62379718105529 0 0 1
533 2 5.67359664300193 12.555217760493969 17.29502154952591 0 2 0
113 2 5.478399619183193 12.472438789821807 13.687735986140554 0 -1 1
206 2 8.126423170024545 10.047744461421745 15.45564164719765 -1 1 0
207 2 6.931700624118042 10.896233658474923 14.816811266093445 -1 1 0
205 1 7.264021761673861 10.483662804427311 15.589648887379447 -1 1 0
129 2 6.276729565027036 10.502658116479607 16.95767174858117 -1 2 0
192 2 4.261670914029209 14.306836585667218 13.884885611813733 -1 0 0
513 2 0.6497722160232526 13.146081523704527 14.97462471668099 0 0 1
417 2 4.545726314918771 14.935388502265715 17.025388338367414 -1 0 -1
94 1 1.589213077197638 17.006764595643542 13.688624130080733 0 0 0
190 1 4.289042268076629 13.509804200244353 14.444738755512132 -1 0 0
32 2 1.6113241964151797 16.79419886597517 15.253202732316424 0 1 -1
415 1 3.9916817536295244 15.738313609244221 17.02991691931312 -1 0 -1
33 2 2.562856774201166 16.29586500723449 16.371496960676165 0 1 -1
31 1 1.7501820074378893 16.868448271793888 16.283486744426902 0 1 -1
387 2 0.43386661020576583 16.66817825213919 17.41122318265414 1 -3 1
299 2 8.426996822401557 14.098564629521379 15.141051688471084 0 -1 0
21 2 8.877802187806038 17.285344898481572 17.48956331979332 -1 0 2
534 2 6.549831857707905 13.728762707961305 16.49595505566988 0 2 0
298 1 7.849297337943653 14.63791286870755 15.647594366361808 0 -1 0
191 2 4.840644845850771 13.815507647243946 15.235762123518144 -1 0 0
146 2 6.7022802702042545 17.27775765429441 13.45224947208721 -1 -1 1
360 2 6.802469723874792 14.630687805262449 13.725234283786953 -2 0 -1
532 1 5.699479858712714 13.415104208508314 16.820895310148014 0 2 0
416 2 4.645048166280309 16.421941135145758 16.87697940801859 -1 0 -1
300 2 8.324916923821352 15.427507613925576 15.980207078709553 0 -1 0
19 1 8.476389204655415 17.107347293519332 16.592157758686454 -1 0 2
510 2 12.062224095932788 2.5356900310820154 2.946973681425076 -2 1 1
508 1 12.319522375784917 2.6518327752329425 2.0317580088877496 -2 1 1
570 2 11.0659935036741 2.595913474281945 0.8565622809825665 1 0 2
547 1 9.305340170429309 0.38903563746862835 3.9031646012604164 2 1 -1
509 2 13.317688930152178 2.573459256944882 2.03109009064157 -2 1 1
432 2 15.451883510080311 2.340997413870951 1.350324163431238 -1 4 1
431 2 15.520684584278397 2.0648348318452925 2.90633328250766 -1 4 1
430 1 14.959759632779518 2.5491353742324727 2.2070510518507835 -1 4 1
444 2 14.024473236810357 0.3078833347796582 3.1769085412383333 -2 0 1
40 1 17.161076955951636 4.265375378741928 2.481320551980749 -1 0 -1
42 2 16.25657297634601 3.774431931592127 2.376459530831411 -1 0 -1
564 2 16.87571548581207 0.5369998367394082 4.009189000620541 0 0 -1
562 1 16.669306305532675 1.5049802034633188 4.275417899071229 0 0 -1
563 2 17.50936650654909 1.9510043912808626 4.427514406595653 0 0 -1
473 2 9.500060611719725 6.015540709383963 0.6374015622176499 -1 0 1
200 2 12.411677144171266 4.665064686384413 1.881374502515758 -1 0 1
329 2 11.902351620146959 5.801024136547112 3.8550322245333897 2 -2 -2
199 1 12.78454136050006 5.5446998269638055 2.0932847083728388 -1 0 1
540 2 13.210298205571382 7.50449396367295 2.0179680769131854 -2 -1 1
178 1 9.537124743553456 7.7047729659551045 4.171329845640118 1 0 0
328 1 11.468666648716802 5.978892756490468 4.749290247478703 2 -2 -2
180 2 10.097519746276518 6.988997986480787 4.540964024432718 1 0 0
539 2 13.031152307263136 8.580537394720832 3.0758177012105814 -2 -1 1
561 2 9.107572337021319 7.148945871954738 2.5975696055275272 -1 3 1
201 2 13.521984324612635 5.289090277515504 2.6241364631909345 -1 0 1
466 1 15.22307059381994 6.0610206276008105 3.665992025739802 -1 -1 -1
468 2 14.919721935482013 6.975815894242827 3.4615440025043234 -1 -1 -1
467 2 16.101430631903824 6.023271713039203 3.2382432283106426 -1 -1 -1
538 1 13.713295819013412 8.145023587426513 2.5513315518297404 -2 -1 1
484 1 17.400850985133822 7.2541748042528065 0.7839498558758237 1 0 0
493 1 9.346052726879275 10.571310149042496 3.552714750474506 2 -1 1
494 2 9.418839531811797 9.652628916946066 3.858869088194586 2 -1 1
235 1 10.969535956007398 10.719664483864838 1.3866063944983336 -1 0 -3
495 2 9.856610356434494 10.507447709917901 2.730532614741855 2 -1 1
46 1 12.941682750269171 12.098652892745685 2.9257460878942116 -2 1 0
236 2 11.35767629926684 9.877173172340086 1.101932526259327 -1 0 -3
237 2 11.77119583441638 11.165555169538782 1.7664195803406932 -1 0 -3
47 2 12.31110482356286 12.831992055269433 2.942374821314508 -2 1 0
256 1 12.608639849634175 9.77765882863779 4.419642272065307 -2 -1 0
257 2 12.908093430896912 10.513874378001248 3.8727197516562515 -2 -1 0
470 2 9.086487077435848 12.76233787347782 4.198799740966681 1 1 0
48 2 13.746674538028953 12.292092850850237 2.3469702133918706 -2 1 0
102 2 14.322802283978579 9.427273503249276 1.4224966553717433 0 -1 0
518 2 15.937980266152756 12.73292251046056 1.448385951569939 0 -2 0
406 1 17.402386218224308 12.292571717048954 0.650465124730568 1 -1 0
100 1 14.270363727958827 9.988089526999605 0.618631966458925 0 -1 0
165 2 9.875854596828834 17.094200867195948 2.335810907337101 -2 -1 -1
164 2 10.906440286448786 17.311375665939178 1.0505583460791568 -2 -1 -1
325 1 10.925162397213448 13.800484075317481 3.5681464753292524 0 -1 2
327 2 10.342910248472721 13.875685011958295 2.7798199985854266 0 -1 2
163 1 10.043508468094124 16.983827075787605 1.3597164242683637 -2 -1 -1
326 2 11.145878548034096 14.664470221532945 3.9960015757817215 0 -1 2
265 1 9.132500951378518 14.367029733656997 1.4045989270046495 -1 0 -1
266 2 9.170180431033021 13.568965365756911 0.8093503448013052 -1 0 -1
267 2 9.676359185775325 15.093494518231584 0.9771433639370691 -1 0 -1
443 2 13.007901208002092 16.852491554080128 2.3336706347200495 -2 -1 1
420 2 12.34645498504784 16.66717896530158 4.341815870465471 1 2 0
419 2 10.912720618465208 17.153512641462033 4.590430475056925 1 2 0
222 2 17.19844485079135 16.668336551653802 2.105274044443732 1 0 1
517 1 15.051011725223516 13.094472707456905 1.6150839547239464 0 -2 0
220 1 17.37460516911975 16.43771642012577 3.088126000508414 1 0 1
519 2 15.000070599108495 13.781865746472542 0.9227523710873026 0 -2 0
442 1 13.577351329049137 16.71108174415892 3.107986065187271 -2 -1 1
282 2 14.846456334572196 15.271183602587021 3.4704067432820516 0 -2 -1
280 1 15.345953201774005 14.511079901725108 3.791857785892408 0 -2 -1
281 2 15.355913625485123 13.9030003802601 2.9917546775129544 0 -2 -1
221 2 16.833539770202428 15.683381766503334 3.278732821295641 1 0 1
385 1 16.904235322578348 16.878219949031852 0.6348494598673098 0 -3 2
386 2 16.13708209194582 16.229417571690966 0.47488518834596505 0 -3 2
238 1 12.531662360941402 2.273795162066359 8.806656327758413 -1 -1 1
144 2 11.85257307691284 2.6447951365993005 5.420036655685771 0 -1 0
161 2 9.975857585990227 2.9342955372469497 6.776598428207511 0 1 1
240 2 11.899563009677792 2.3013502327989506 8.077625407477827 -1 -1 1
162 2 10.291685434982323 1.382429199112943 6.926331277488999 0 1 1
160 1 10.672347026937269 2.2937501369349964 6.859761509493914 0 1 1
239 2 12.967700314872438 3.128390485812864 8.570808192744698 -1 -1 1
142 1 12.655780819022397 2.6432149543062367 4.849657392568262 0 -1 0
143 2 13.259326356083989 1.9408376416160122 5.262282838986986 0 -1 0
247 1 9.261989046293385 4.404013741752002 5.871855185219783 0 0 0
453 2 13.493970207343896 0.7301969156827962 8.909410610064056 -1 1 -1
541 1 14.391310260124103 0.9829904824796404 5.835623626126332 -1 0 -2
543 2 15.278744660200749 1.3055809002947012 5.672771041845484 -1 0 -2
99 2 14.028640356701818 3.6538347245886205 5.601382648607742 1 2 1
97 1 14.84234911344327 4.16734218840675 5.6913265310969425 1 2 1
365 2 17.001072909512207 4.179031779832729 8.326195303797979 0 -1 2
542 2 14.252339520777493 0.6925255609854106 6.739769905195607 -1 0 -2
501 2 14.59265839785889 4.418650957594029 8.340057624070761 0 2 0
125 2 15.731379569133324 0.657784599057518 8.919503545200435 -1 -1 0
248 2 10.086161601163765 4.887474710972023 5.642066936328878 0 0 0
330 2 12.130195394200586 6.187572622209816 5.481551443741946 2 -2 -2
231 2 12.241809303181357 7.36821834355751 7.891188494327443 0 -1 -4
550 1 13.077928016851954 6.476700268713714 6.59486490331557 -1 -2 0
229 1 11.731749617562624 7.891072601284264 8.521777923523242 0 -1 -4
230 2 12.469023390240334 8.385001807377058 8.919577669876709 0 -1 -4
392 2 17.57741478977524 7.0811158292186605 6.714798742265403 -2 1 1
98 2 14.882588254038742 4.813256538526776 4.962978906736617 1 2 1
393 2 17.134836985819987 6.745807900356442 5.196377407355905 -2 1 1
552 2 13.637098016844877 5.729962537355037 6.99740228765346 -1 -2 0
551 2 13.7318345828756 7.102050677282263 6.307650304089327 -1 -2 0
364 1 16.273672993825514 4.815701233991158 8.179556309915839 0 -1 2
366 2 16.20589254479001 4.830929497950574 7.141899638570831 0 -1 2
391 1 16.85955828804548 6.731411733962823 6.145545529087805 -2 1 1
4 1 14.812086742368042 8.38692700620471 6.208151201918823 -1 1 2
5 2 15.60337777568394 7.700807223283796 6.316197002186722 -1 1 2
6 2 14.65012154646378 8.563763357862857 7.151983798774004 -1 1 2
499 1 13.646805931971862 4.5735148341085985 8.614433714278869 0 2 0
52 1 14.516125604143044 8.172307289310499 9.001279518364575 0 -1 1
528 2 12.82825794302942 11.302790705345293 8.53431028485866 -2 -1 0
526 1 11.984890921213708 11.814667138441102 8.728467171013262 -2 -1 0
479 2 11.346841134089377 12.700711231036438 4.89225566738209 -1 -2 0
116 2 11.20655762007971 9.328304406474457 5.938549068170518 0 0 1
480 2 11.443571609684502 11.41676335057123 5.746427591036302 -1 -2 0
478 1 11.739961265840273 12.363003614260672 5.75349996082428 -1 -2 0
115 1 10.717263408539466 9.815784441141314 6.569308834043679 0 0 1
117 2 10.822216833781264 9.417380045102282 7.419532105702712 0 0 1
527 2 11.74056279533761 12.234689946338026 7.884428079519642 -2 -1 0
297 2 10.408388017139139 10.92781037626893 9.039907594208087 -1 0 -2
72 2 16.679568688898918 13.026511757911077 4.840606923875983 0 -1 -1
381 2 13.283818394588533 12.873450823268456 5.975213196088762 0 -2 -1
437 2 15.000528296438192 11.97621018475977 9.064241223681693 -1 0 1
109 1 16.425444868604345 10.442075883493027 6.543689166441092 -2 0 0
110 2 15.964724914751928 10.700143283337383 7.341842339654097 -2 0 0
71 2 16.703901060986134 11.600285810631846 5.455967635934077 0 -1 -1
111 2 15.80980260141652 9.862858625764598 6.062491794803164 -2 0 0
436 1 14.623304672508835 11.22056111062516 8.591593608039714 -1 0 1
258 2 13.362561382046849 9.543691829031125 5.010652963398093 -2 -1 0
70 1 17.239781820916196 12.346546484910972 5.093759959841418 0 -1 -1
438 2 14.956666216218613 10.44527486299062 9.060332129380111 -1 0 1
250 1 9.251311149807083 17.271605619076194 7.1553120209910706 1 0 1
426 2 10.003082945532428 16.87815454506451 9.088409587151297 0 -1 0
251 2 9.343346072524701 16.43279104431089 6.706769989653299 1 0 1
254 2 13.026614741560563 14.839799986220811 6.821304695378893 -1 0 1
418 1 11.545591429615316 16.458345524590346 4.853836129005725 1 2 0
253 1 12.43534729105424 15.499633704705385 7.286417837772805 -1 0 1
255 2 12.113536216031989 16.099682739427525 6.557458115722364 -1 0 1
262 1 9.723810603016304 14.315299516376115 6.937368825131518 -3 -2 -1
264 2 10.69597285910842 14.35789231311791 7.115014673904616 -3 -2 -1
263 2 9.639314650045156 13.621973360640087 6.305295261734064 -3 -2 -1
451 1 14.0253980929333 17.219796237293284 8.753650306147504 -1 0 -1
379 1 14.00293546029303 13.473950299560515 6.303777181244075 0 -2 -1
17 2 14.979280273964903 13.709667110711951 7.741202222630431 -1 0 0
380 2 14.485207503760131 13.721722445567364 5.461305891519518 0 -2 -1
452 2 13.58375034957832 16.560926433242706 8.215256236363897 -1 0 -1
16 1 15.481725111740541 13.741218216420055 8.54561963542324 -1 0 0
18 2 16.476353175890594 13.700069801696317 8.314215037638725 -1 0 0
565 1 11.302421729337755 2.0327476068145636 11.127880277300006 0 1 1
44 2 11.803923640769783 1.0469473943713508 12.362118594083933 -1 2 -1
369 2 9.455156768451612 2.4176458358323574 10.18582798247979 0 -2 1
566 2 11.857325197375376 2.438603007065638 10.398324847159182 0 1 1
567 2 11.193761156581267 2.833698660075667 11.736669704967191 0 1 1
425 2 10.68920594341136 0.4600407204293813 10.12330953162666 0 0 0
43 1 11.950230112349358 0.5182429879953323 13.217025117685253 -1 2 -1
10 1 11.467169459396732 3.9033222369867935 13.238218482494707 2 -2 0