LAMMPS data file via write_data, version 15 Apr 2020, timestep = 1155000

1920 atoms
2 atom types

5.3066987901763341e-02 2.4671338012100428e+01 xlo xhi
2.0358280262147588e-02 2.4704046719742458e+01 ylo yhi
1.3755348867345418e-02 2.2778616651136062e+01 zlo zhi
3.8650693102703623e-02 1.7180167710621749e-02 -5.6949797858330750e-02 xy xz yz

Masses

1 16
2 2

Atoms # atomic

1 1 4.8888384661068383e+00 1.7559874063739087e+00 4.2909395028048252e+00 0 0 0
2 2 5.6847397414187517e+00 1.6105905049630074e+00 3.7666360927400424e+00 0 0 0
3 2 4.8111582472841423e+00 9.6079988141013684e-01 4.8130019688021717e+00 0 0 0
4 1 3.1479418666649406e+00 1.2375647147147850e+00 2.1286092609669653e+00 0 0 0
5 2 3.3061458166528066e+00 5.3964119994297133e-01 1.4857723981611310e+00 0 0 0
6 2 3.8357196785847334e+00 1.3009808707315231e+00 2.7905850848976743e+00 0 0 0
7 1 6.0012021920985514e+00 4.6685647384584410e+00 3.3674265791641966e+00 0 0 0
8 2 5.0854001398217967e+00 4.8858945203676045e+00 3.3615472355263112e+00 0 0 0
9 2 6.1854097368546643e+00 3.8505194239299136e+00 3.8092723959287773e+00 0 0 0
10 1 3.2679099822150475e+00 4.4032554942856388e+00 3.3753574337696812e+00 0 0 0
11 2 2.7201006796185561e+00 3.7679261734288971e+00 3.9629299581355375e+00 0 0 0
12 2 2.8932477156136578e+00 5.2812280972473262e+00 3.6428228942748371e+00 0 0 0
13 1 1.4629944968495938e+00 3.0982243857570886e+00 4.9560473645942817e+00 0 0 0
14 2 1.5922817749016496e+00 2.0300268177889000e+00 5.1250656734432534e+00 0 0 0
15 2 1.4346439572646856e+00 3.5592704592876019e+00 5.7878401642688031e+00 0 0 0
1539 2 2.4768440574392211e-01 3.5717962592942025e+00 2.0940339934768112e+01 0 0 0
17 2 1.4890511699630660e+00 1.6093872669122433e+00 2.2953794933857239e+00 0 0 0
19 1 4.8535608408425333e+00 2.9391808378415427e+00 6.0239315723026721e-01 0 0 0
20 2 4.1170029805609873e+00 2.4699026607172057e+00 1.0630576063453012e+00 0 0 0
21 2 4.5809977622464624e+00 3.9387354825507650e+00 5.6507910885105017e-01 0 0 0
22 1 1.7788015325744040e+00 4.7144590398865986e+00 1.2055659263488481e+00 0 0 0
23 2 2.4245439018943027e+00 4.5211083530328233e+00 1.9999846083875201e+00 0 0 0
24 2 1.6217819790119501e+00 3.8592265071870666e+00 6.9835227346882411e-01 0 0 0
25 1 4.7993951549294742e+00 6.1069762420777272e+00 8.3257543843355186e-01 0 0 0
26 2 4.0253579239053563e+00 6.5119241384948472e+00 1.2237955241195655e+00 0 0 0
27 2 4.8797966831247654e+00 6.4474979274730151e+00 2.2722076897582703e+01 0 0 0
1611 2 1.1683947367553397e+01 8.9117194805016471e+00 1.8468952530162895e+01 0 0 0
31 1 1.0858947641287344e+01 1.6691060995551494e+00 3.8276199970788722e+00 0 0 0
32 2 1.1035871356154006e+01 2.3784772461206996e+00 4.5181070658698168e+00 0 0 0
780 2 7.2850970707431477e+00 1.2173389481371270e+01 9.7625047952380637e+00 0 0 0
34 1 9.0280386949486005e+00 1.4536086649668849e+00 1.9070699272158396e+00 0 0 0
35 2 9.7607850560445666e+00 1.6647654112357588e+00 2.5389196234472711e+00 0 0 0
36 2 9.3586514274158521e+00 1.9614573238198592e+00 1.1103455973108816e+00 0 0 0
976 1 1.0890964228560455e-01 1.5433855221368329e+00 1.3534596301162688e+01 0 0 0
39 2 1.1244750945440659e+01 4.6757293127139867e+00 3.1032847338521306e+00 0 0 0
40 1 9.2991437396370653e+00 4.5676786606611683e+00 3.0691932746131290e+00 0 0 0
41 2 8.8152536972124764e+00 4.7490665870527229e+00 2.1939649456722141e+00 0 0 0
42 2 8.7743424896988511e+00 3.7788299888138126e+00 3.3506079821012378e+00 0 0 0
43 1 7.7198795869192329e+00 2.7128647593503983e+00 4.7303847174393256e+00 0 0 0
44 2 7.8619361432407882e+00 3.1228696449569586e+00 5.5953496706124861e+00 0 0 0
45 2 7.6707087560521297e+00 1.6856275131913601e+00 4.8101654279922270e+00 0 0 0
46 1 6.4327757832512136e+00 1.3183545562278631e+00 2.2009330161134311e+00 0 0 0
47 2 7.3456202880657271e+00 1.6722462185017115e+00 2.2363260512978318e+00 0 0 0
48 2 5.9682009340770730e+00 2.0511237242763096e+00 1.7307163696523233e+00 0 0 0
49 1 1.0504800183748525e+01 3.1867489142558125e+00 3.9688449119972125e-01 0 0 0
50 2 1.1204688916518919e+01 3.0145561469625921e+00 1.0185118713812347e+00 0 0 0
51 2 1.0941488930855897e+01 2.6574433305706426e+00 2.2411373246094843e+01 0 0 0
52 1 7.5831897413647509e+00 4.6456202776177307e+00 1.0492655292118649e+00 0 0 0
53 2 7.4270380747633249e+00 5.5477061903059033e+00 6.7343289411474416e-01 0 0 0
54 2 7.0451695173361690e+00 4.6525440384685108e+00 1.8741248157258781e+00 0 0 0
55 1 1.0877414711335932e+01 5.8020573672496525e+00 4.5685816009050562e-01 0 0 0
56 2 1.0152534512379452e+01 6.3443554938947688e+00 7.6202459928731936e-01 0 0 0
57 2 1.0718893220788722e+01 4.8480076576402320e+00 3.6433723941220980e-01 0 0 0
625 1 4.7959136898769268e+00 1.2044719302409044e+01 6.5779191020312373e+00 0 0 0
1597 1 1.2126345989501878e+01 1.0547987161534779e+01 2.0810803540996542e+01 0 0 0
1608 2 7.3014673185959120e+00 7.9787663399946238e+00 1.9077456300607366e+01 0 0 0
531 2 1.0925492071208680e+01 4.3210033605434557e+00 6.2893598798483676e+00 0 0 0
121 1 4.9661130385202110e+00 7.8173179478161847e+00 4.1565763094051675e+00 0 0 0
122 2 5.6693580337705658e+00 7.6941657032508992e+00 3.4700165770877462e+00 0 0 0
123 2 4.1829331864123356e+00 7.9909663448778714e+00 3.5133576321155604e+00 0 0 0
124 1 3.0379702671646505e+00 7.6191098991741892e+00 2.0818006758063579e+00 0 0 0
125 2 3.3459192837233931e+00 8.3696411123888765e+00 1.5207101917448378e+00 0 0 0
126 2 2.0658703621118679e+00 7.6272129406380165e+00 2.1144168612841607e+00 0 0 0
127 1 6.0767701606871967e+00 1.0969367742624321e+01 3.4534883650907848e+00 0 0 0
128 2 6.6665144290114915e+00 1.0262493884627165e+01 3.8595300751294261e+00 0 0 0
129 2 5.1557318574493403e+00 1.0736231950878659e+01 3.6456341445199452e+00 0 0 0
130 1 3.4351225352647141e+00 1.0698061059720144e+01 3.9285938468173089e+00 0 0 0
131 2 2.9239666999502769e+00 1.0001730857109585e+01 4.2852129183459020e+00 0 0 0
132 2 3.2912614885252873e+00 1.0641881933604310e+01 3.0141718520808762e+00 0 0 0
133 1 1.7412764330473287e+00 8.7563399380783231e+00 5.0259953392969150e+00 0 0 0
134 2 1.8144972511888662e+00 9.2077172036917432e+00 5.9879114318369044e+00 0 0 0
135 2 1.0058052839288028e+00 9.2278520266074651e+00 4.5947699748424231e+00 0 0 0
1135 1 1.1189988501850671e+01 1.2288037782644437e+01 1.2291107304566106e+01 0 0 0
139 1 4.8062108496959635e+00 9.5061397949843389e+00 5.7261464644739513e-01 0 0 0
140 2 4.7964503268061218e+00 1.0481990537902764e+01 5.9774585423350657e-01 0 0 0
141 2 5.6261937855500834e+00 9.2157479082774625e+00 9.7931976207771188e-01 0 0 0
142 1 1.9415817906575603e+00 1.0702595843232597e+01 1.5013714510878979e+00 0 0 0
143 2 1.8148274645769369e+00 9.9173045568131837e+00 9.3486547050944790e-01 0 0 0
144 2 1.9515784307943500e+00 1.1342251250866466e+01 7.8713680677065523e-01 0 0 0
138 2 1.1322781187493140e-01 6.9625507672613445e+00 1.3975650660880952e+00 1 0 0
148 1 2.0041571441517450e+00 6.1571430503656988e+00 4.7821192350552355e+00 0 0 0
149 2 1.2387529107469359e+00 5.7494235940130878e+00 4.3563483021174747e+00 0 0 0
150 2 1.7225848527897309e+00 7.0517902058539246e+00 4.7733226356767799e+00 0 0 0
151 1 1.0782264102618305e+01 7.7111207278390763e+00 4.2220866906248169e+00 0 0 0
152 2 1.1541469058923267e+01 7.8004436747423034e+00 3.5548342722443018e+00 0 0 0
153 2 1.0804829866015858e+01 8.5409067679901263e+00 4.7087155756358863e+00 0 0 0
154 1 9.2008667849335151e+00 7.5122516126536407e+00 1.8414972287207905e+00 0 0 0
155 2 9.4347561879716739e+00 8.4373895067365581e+00 1.6209089546630486e+00 0 0 0
156 2 9.5874688054179984e+00 7.4347640400293811e+00 2.7284347304124847e+00 0 0 0
416 2 1.0976616157895050e+01 7.2130384820890528e-02 2.2617124137771906e+01 0 0 0
158 2 1.1624585302612015e+01 1.0867653570276374e+01 3.7344619995866162e+00 0 0 0
160 1 9.7443478273885695e+00 1.0781924969595032e+01 3.4708576088293897e+00 0 0 0
161 2 9.3110564170387260e+00 1.1093926287698624e+01 2.6355641867210049e+00 0 0 0
162 2 9.3203238545352871e+00 1.1380212717762479e+01 4.1771841519924200e+00 0 0 0
163 1 7.8044984401424999e+00 9.0304273081510242e+00 4.7335045565040410e+00 0 0 0
164 2 7.8867843524214436e+00 8.0432439120344466e+00 4.8432821342482644e+00 0 0 0
165 2 8.6682304497369174e+00 9.3111706357254942e+00 4.3677640430193270e+00 0 0 0
166 1 6.5166629214365512e+00 7.8417090349131593e+00 1.9306700916276822e+00 0 0 0
167 2 6.1446540535591447e+00 7.0245719381461615e+00 1.4744816920530173e+00 0 0 0
168 2 7.4974833122946851e+00 7.8043412071466118e+00 1.8515731987825628e+00 0 0 0
169 1 1.0836566531627927e+01 9.3166928125371768e+00 8.9866365929574787e-01 0 0 0
170 2 1.0865268956115754e+01 1.0284195987187321e+01 6.6372780557193278e-01 0 0 0
171 2 1.0868734967374538e+01 8.8302184900045475e+00 3.5302911766574754e-02 0 0 1
172 1 8.1403658816453408e+00 1.1128321452418955e+01 1.2533035017942162e+00 0 0 0
173 2 7.2747899966447234e+00 1.1223221115772143e+01 1.6896056675260340e+00 0 0 0
174 2 7.9407058724035657e+00 1.0364193354461063e+01 6.4656351749498131e-01 0 0 0
896 2 1.0962373384772871e+01 3.8512336518459483e-01 5.2152502986260059e+00 0 0 0
178 1 7.8803767063144798e+00 6.2086857252795546e+00 4.7862725149307561e+00 0 0 0
179 2 7.1517612166146654e+00 5.5634554232857090e+00 4.5998899673377762e+00 0 0 0
180 2 8.5503769894026469e+00 5.6536555304454046e+00 4.3036033903827242e+00 0 0 0
678 2 1.2083972487079242e+01 7.1193520006276776e+00 7.2689025665465641e+00 0 0 0
496 1 4.2800644562568757e-01 1.4211783824240056e+00 7.7965279295282173e+00 0 0 0
1036 1 1.2282013650426022e+01 1.5070896555541637e+00 1.3481815551612744e+01 0 0 0
997 1 1.2094210305696963e+01 4.5674946421385396e+00 1.4839239719706237e+01 0 0 0
1619 2 7.7984745593739113e+00 7.2492443323725952e+00 2.1859683534357053e+01 0 0 0
867 2 3.9472065554117206e+00 9.6014365499678275e-02 6.6983806688325389e+00 0 0 0
1618 1 7.8098962592440380e+00 6.3149833165620173e+00 2.1882891804399392e+01 0 0 0
1498 1 7.9102823335164381e+00 -1.4040845740983021e-02 2.1829025051119039e+01 0 0 0
37 1 1.2184812548776415e+01 4.6427449968363685e+00 3.3642746036197564e+00 0 0 0
481 1 4.9086362921882527e+00 1.7596042389030857e+00 9.7136269959791903e+00 0 0 0
482 2 4.8969915949790686e+00 8.9426408136475599e-01 1.0114131313762858e+01 0 0 0
483 2 5.6060238300533918e+00 1.6883680420517071e+00 8.9865170242541925e+00 0 0 0
484 1 3.0360203453643591e+00 1.5932160245243607e+00 7.6912837237502245e+00 0 0 0
485 2 3.5572982636404817e+00 1.6931914538201482e+00 8.5266763045908540e+00 0 0 0
486 2 2.0560480790393916e+00 1.7105376499471276e+00 7.8605232158444327e+00 0 0 0
487 1 5.8320433470749755e+00 4.6346694453093251e+00 8.9028820805667301e+00 0 0 0
488 2 4.8792854725620556e+00 4.5342927679254359e+00 9.0832633911245146e+00 0 0 0
489 2 6.2691845569107665e+00 3.9615381552885287e+00 9.4461399065742597e+00 0 0 0
490 1 3.2891078785628824e+00 4.5433376474723346e+00 9.4546394414499328e+00 0 0 0
491 2 2.9846350722774364e+00 3.7826285225628635e+00 9.9335872963081364e+00 0 0 0
492 2 2.7214281025060796e+00 5.2528431709011860e+00 9.8615698381355550e+00 0 0 0
493 1 1.3459756407638186e+00 2.8363424298057915e+00 1.0640767399493280e+01 0 0 0
494 2 1.5052491482387056e+00 3.1234142719780760e+00 1.1548181163876583e+01 0 0 0
495 2 6.6102085751640582e-01 3.3457619897938509e+00 1.0270051494298560e+01 0 0 0
1613 2 7.6111599009669657e+00 1.1281951012584432e+01 1.7684420207477757e+01 0 0 0
499 1 4.4613624195352086e+00 3.3893591343253577e+00 6.3459560512570503e+00 0 0 0
500 2 3.6291245969348735e+00 3.0894367470485302e+00 6.7330251757111865e+00 0 0 0
501 2 4.4668890317058736e+00 3.0661596802532332e+00 5.4100865206967077e+00 0 0 0
502 1 1.6307652928128591e+00 4.8620561550782719e+00 7.0094732399989992e+00 0 0 0
503 2 2.3622687304538785e+00 4.8830560837196755e+00 7.6217274580000147e+00 0 0 0
504 2 1.7711917083263697e+00 5.5613170596187143e+00 6.3736326983457001e+00 0 0 0
505 1 4.6851521353758230e+00 6.0153023900993432e+00 6.3317526879754560e+00 0 0 0
506 2 4.4669010329688650e+00 5.0930666944189431e+00 6.2282668821880200e+00 0 0 0
507 2 4.7184847260489118e+00 6.5413001305813347e+00 5.5368839051616519e+00 0 0 0
558 2 1.1771105984185780e+01 2.2059367438079578e+00 7.3241736946853573e+00 0 0 0
509 2 1.5774297901856646e+00 1.1668284929232409e+00 1.0672784629876691e+01 0 0 0
511 1 1.0763074779057829e+01 1.7062853833994391e+00 9.8891440133319897e+00 0 0 0
512 2 1.0532268288961214e+01 8.8910694931074608e-01 1.0310656187096200e+01 0 0 0
513 2 9.9809920691796208e+00 1.6879095906994410e+00 9.1800872099778559e+00 0 0 0
514 1 9.4071488386797864e+00 1.8257329428530200e+00 7.5544078207444816e+00 0 0 0
515 2 8.4756855929470856e+00 1.6884747043575457e+00 7.6587955252102136e+00 0 0 0
749 2 1.9598308770600619e+00 1.2159470262724211e+01 1.1598764132690986e+01 0 0 0
1230 2 2.0443671043586846e+00 1.1905639400779124e+01 1.5929709561666600e+01 0 0 0
520 1 9.4808171831898811e+00 4.4640598906375546e+00 9.0573576867993175e+00 0 0 0
521 2 1.0442095375662674e+01 4.4058251409633700e+00 8.9354367627912143e+00 0 0 0
522 2 9.0276406194677552e+00 4.3728810534657674e+00 8.2413438260928924e+00 0 0 0
523 1 7.7036268130349024e+00 2.9131380983380204e+00 1.0654533854615197e+01 0 0 0
524 2 7.5187516418439104e+00 1.9742659816368848e+00 1.0367953906307987e+01 0 0 0
525 2 8.4875973957404689e+00 3.2762507670969714e+00 1.0247193529165054e+01 0 0 0
526 1 6.4199320042736998e+00 1.6729666325457622e+00 7.5299574430587111e+00 0 0 0
527 2 5.8785120610592081e+00 2.5323603956730540e+00 7.2336016315431548e+00 0 0 0
28 1 1.7722079017399284e+00 2.4695166392451018e-01 5.0479899066815186e+00 0 0 0
529 1 1.0870527741085739e+01 3.3521270434870725e+00 6.0427352081353556e+00 0 0 0
530 2 1.0117572833921935e+01 2.9026676944481280e+00 6.5304022637560877e+00 0 0 0
145 1 4.8908652609474688e+00 1.2105888157143369e+01 6.0421279276384399e-01 0 0 0
532 1 7.8081654531922080e+00 4.4922665094726497e+00 6.9124640251139002e+00 0 0 0
533 2 8.0221406161299562e+00 5.2552091134975685e+00 6.3476236202827856e+00 0 0 0
534 2 7.0017054069689060e+00 4.6887969508541802e+00 7.4014948359601043e+00 0 0 0
535 1 1.0910425775320947e+01 6.1612081707321051e+00 6.4598988173727081e+00 0 0 0
536 2 1.0220386926868418e+01 6.6316915492099859e+00 7.0060027836154859e+00 0 0 0
537 2 1.0806105002104866e+01 6.5538692368323970e+00 5.5747183153339437e+00 0 0 0
1607 2 6.1224794596349970e+00 7.7324342127223318e+00 1.9928969593325608e+01 0 0 0
219 2 3.3288437338077820e-01 1.1654398719712391e+01 4.2178669612188120e+00 0 0 0
508 1 1.6982260006978971e+00 2.3320572672222262e-01 1.0656877686015569e+01 0 0 0
1638 2 1.2333784356361731e+01 7.9490095355555290e+00 2.0338602135092966e+01 0 0 0
1612 1 7.6852651690978337e+00 1.0403838279058650e+01 1.8159870576239381e+01 0 0 0
601 1 4.8382809176409705e+00 7.6085180576030478e+00 9.7607447296633758e+00 0 0 0
602 2 5.5265412491166135e+00 7.7463468861116542e+00 9.0833828009005710e+00 0 0 0
603 2 4.9807557212415992e+00 8.3733710907849215e+00 1.0397117898814084e+01 0 0 0
604 1 3.0885154363195824e+00 7.4425276454015838e+00 7.7215887220598116e+00 0 0 0
605 2 3.4662697322981759e+00 7.2957483727976964e+00 8.6078131010076273e+00 0 0 0
606 2 3.5478679372666710e+00 6.8474676391859921e+00 7.1220649326245642e+00 0 0 0
607 1 6.1851527398835344e+00 1.0506642646525732e+01 9.2533622248822063e+00 0 0 0
608 2 6.7180429760516072e+00 1.0468916642645732e+01 8.3472483396678498e+00 0 0 0
609 2 6.6596642384182951e+00 9.7677606848708383e+00 9.7378464708247865e+00 0 0 0
610 1 3.0939052677628545e+00 1.0617963496965423e+01 9.5794587604922050e+00 0 0 0
611 2 2.7844788442058586e+00 1.0413976004448315e+01 8.6788298946028117e+00 0 0 0
612 2 4.0585916168726559e+00 1.0637093542608577e+01 9.5579132142184662e+00 0 0 0
613 1 1.4384643664347032e+00 9.0574175878952428e+00 1.0816123954943970e+01 0 0 0
614 2 6.9887739395173831e-01 9.5120360048241324e+00 1.0355700307692844e+01 0 0 0
615 2 2.2071664818198817e+00 9.4337295710668769e+00 1.0311550279324353e+01 0 0 0
637 1 1.2321077211137450e+01 1.0753287609064900e+01 9.1666731219121491e+00 0 0 0
618 2 1.2027404689187884e+00 7.4550329685209897e+00 8.0503658794065256e+00 0 0 0
619 1 4.9834176377902226e+00 9.1836275995665311e+00 6.5914277725043551e+00 0 0 0
620 2 4.8303696562539509e+00 8.8819841180460184e+00 5.6419660283425577e+00 0 0 0
621 2 4.2537616246840217e+00 8.8172685634992281e+00 7.0981299534744284e+00 0 0 0
622 1 1.6841641015864555e+00 1.0793520087277411e+01 7.0437719666377037e+00 0 0 0
623 2 8.6338831018223239e-01 1.0733659071227251e+01 7.5807540580507062e+00 0 0 0
624 2 1.5794786731049797e+00 1.1492037058215445e+01 6.3787678194841142e+00 0 0 0
528 2 6.0245411625597889e+00 9.3518365180150664e-01 7.0948701766951050e+00 0 0 0
626 2 4.8159268060272895e+00 1.1083006106633091e+01 6.6052493438841937e+00 0 0 0
628 1 1.6623451056083931e+00 6.3554556702447842e+00 1.0593404829420097e+01 0 0 0
629 2 1.6299976596688193e+00 6.0116698661095009e+00 1.1558593938126091e+01 0 0 0
630 2 1.5426295969627639e+00 7.3098722902466768e+00 1.0633802974255893e+01 0 0 0
631 1 1.0927130909593490e+01 7.6825596747458054e+00 9.9108412060630187e+00 0 0 0
632 2 1.0974131829844598e+01 7.1072297646168758e+00 1.0730854535043457e+01 0 0 0
633 2 1.1679966716234333e+01 7.4853326904610231e+00 9.3451364555542575e+00 0 0 0
634 1 9.2938583237567194e+00 7.6459090919354686e+00 7.8569247178849757e+00 0 0 0
635 2 9.7074824521038909e+00 7.6142485048506341e+00 8.7814870300146985e+00 0 0 0
636 2 8.3356563762643692e+00 7.4541990684565969e+00 7.9496525748695221e+00 0 0 0
1158 2 1.2324155141165379e+01 8.4435608524227597e+00 1.3273747252716483e+01 0 0 0
639 2 1.1347821518950926e+01 1.0782668448717857e+01 9.1360703483491079e+00 0 0 0
640 1 9.5250001095138295e+00 1.0830799765567406e+01 9.0934922543514460e+00 0 0 0
641 2 9.0357920028105223e+00 1.0800116475810009e+01 8.2627670231466102e+00 0 0 0
642 2 9.2262897050200063e+00 1.0079324786891133e+01 9.6975545490004400e+00 0 0 0
643 1 8.3137171928043845e+00 9.0539298951562017e+00 1.0577925607973327e+01 0 0 0
644 2 8.2178819790474105e+00 8.0801477284216769e+00 1.0624071018034304e+01 0 0 0
645 2 8.0121833688498256e+00 9.4943364211653432e+00 1.1464212325635778e+01 0 0 0
646 1 6.6593699438806135e+00 7.3396832843326001e+00 7.6619833782801052e+00 0 0 0
647 2 6.1743093512644478e+00 6.5419592645304077e+00 7.4750156717208469e+00 0 0 0
648 2 6.1841482969994148e+00 8.0458518223594382e+00 7.1146397025954418e+00 0 0 0
649 1 1.0908348689717011e+01 9.4355476425094320e+00 6.1690002792297038e+00 0 0 0
650 2 1.1054444175896096e+01 1.0345526008766427e+01 6.4666386489081100e+00 0 0 0
651 2 1.0213227393227289e+01 9.0800016511775894e+00 6.7752893531522878e+00 0 0 0
652 1 7.9061016697082547e+00 1.0701248108096957e+01 6.9479158149348148e+00 0 0 0
653 2 7.6063159556218283e+00 1.0003712651773258e+01 6.4089607323378210e+00 0 0 0
655 1 1.0764334085089764e+01 1.2151758482030690e+01 6.5981165548476177e+00 0 0 0
1089 2 5.0872725258587490e+00 1.0854302815760741e+01 1.4607145346961676e+01 0 0 0
658 1 8.0843596019140413e+00 6.4383848605783065e+00 1.0497701133878882e+01 0 0 0
659 2 7.2357016326248118e+00 6.0041750636824549e+00 1.0246468447935941e+01 0 0 0
660 2 8.8026484273435273e+00 5.9007030438651151e+00 1.0150765657626010e+01 0 0 0
1610 2 1.0747651465789577e+01 8.9875768600357890e+00 1.7128656561634777e+01 0 0 0
1347 2 5.2903515790963089e+00 4.3136873846547624e-01 1.2533519274668894e+01 0 0 0
1856 2 1.0731478670596188e+01 2.0218817370739739e-01 1.6755866975135881e+01 0 0 0
750 2 2.4846498147563714e+00 1.2257051687189151e+01 1.0171562050711877e+01 0 0 0
1614 2 8.3686666536196874e+00 1.0562341829713430e+01 1.8884426833775503e+01 0 0 0
1456 1 3.1602939227938831e-01 1.5319691984489594e+00 1.9394076860776988e+01 0 0 0
498 2 8.1466500236148043e-02 2.1410154646795099e+00 7.2653544420998104e+00 1 0 0
1616 2 1.0689686111798068e+01 1.1398004622541006e+01 1.7749859173101630e+01 0 0 0
497 2 1.0815625929766343e-01 1.5085810724396149e+00 8.7089981491070230e+00 1 0 0
1464 2 7.4877699504033235e-01 4.6180064107950116e+00 1.8869528360656233e+01 0 0 0
961 1 4.7817329837854015e+00 1.4177784627156493e+00 1.5775431654699416e+01 0 0 0
962 2 4.5570701647666221e+00 2.2362882476814625e+00 1.6144797261913840e+01 0 0 0
779 2 8.7119158501652105e+00 1.2062157544619803e+01 9.7446951706211706e+00 0 0 0
964 1 2.8868582321141560e+00 1.3498768692726553e+00 1.3512191942661454e+01 0 0 0
965 2 3.4548824233855866e+00 1.2399524680800056e+00 1.4312115196610060e+01 0 0 0
966 2 3.3569960063800415e+00 2.0561994434820670e+00 1.3002638882749027e+01 0 0 0
967 1 5.9342363163371292e+00 4.9350192396184500e+00 1.4683716332072436e+01 0 0 0
968 2 6.4580598955960395e+00 5.4263930258235469e+00 1.5340959103476429e+01 0 0 0
969 2 6.4805337525996247e+00 4.6659483694022059e+00 1.3899307911945142e+01 0 0 0
970 1 3.2349238865296095e+00 4.6677957001113262e+00 1.4892763937399899e+01 0 0 0
971 2 4.1673697973967467e+00 5.0703212167253282e+00 1.4783039337687352e+01 0 0 0
972 2 2.7196817343173501e+00 5.2748021016726030e+00 1.5493667597492896e+01 0 0 0
973 1 1.4557363994084522e+00 2.9360667498185142e+00 1.6296321386924305e+01 0 0 0
974 2 1.9815447480145665e+00 3.4627282756052562e+00 1.5605567648799289e+01 0 0 0
975 2 1.3820904683172832e+00 3.5302033745675057e+00 1.7091516014259494e+01 0 0 0
677 2 1.2294250498531978e+01 8.5962429051379878e+00 7.6560443362536938e+00 0 0 0
977 2 1.0855654180938450e+00 1.5589256333263748e+00 1.3632992169985870e+01 0 0 0
979 1 4.8026814534204618e+00 3.2690359300557077e+00 1.2056029631030471e+01 0 0 0
980 2 4.6845926310547359e+00 2.9963560086766563e+00 1.1119445634821449e+01 0 0 0
981 2 5.6012305985148947e+00 2.7729782725537269e+00 1.2457844983714248e+01 0 0 0
982 1 1.5690797134668579e+00 4.7094234290812054e+00 1.2809150595780652e+01 0 0 0
983 2 2.3413645697023573e+00 4.7383543954795293e+00 1.3458531122608420e+01 0 0 0
984 2 7.6471250279704495e-01 4.7510018101149170e+00 1.3363460320962588e+01 0 0 0
985 1 4.6117135687149284e+00 5.8866159793229826e+00 1.1938344621320313e+01 0 0 0
986 2 4.4725304195122080e+00 6.3512905662489816e+00 1.1039212950511015e+01 0 0 0
987 2 4.6493123956244116e+00 4.8952508730985045e+00 1.1833778030389910e+01 0 0 0
1857 2 1.0029850206319407e+01 -7.2044028142304387e-03 1.8049254959021631e+01 0 0 0
989 2 1.6962878143746973e+00 1.1892167475090698e+00 1.6470952314665109e+01 0 0 0
991 1 1.0474417158148018e+01 1.5736097642696976e+00 1.5507769893102836e+01 0 0 0
992 2 1.0539418066298415e+01 2.2315638515400438e+00 1.6225302495271226e+01 0 0 0
993 2 9.6527660518321472e+00 1.7144220520859972e+00 1.5024011427173990e+01 0 0 0
994 1 8.9109894471418549e+00 1.6644356334691826e+00 1.3233673149153612e+01 0 0 0
995 2 9.3116631546062134e+00 8.1674392124835626e-01 1.2926369063788693e+01 0 0 0
996 2 9.6285208717843478e+00 2.2966362220597034e+00 1.3109259688872847e+01 0 0 0
1602 2 9.0936047597952800e+00 1.1369296248780394e+01 2.1021531384272279e+01 0 0 0
998 2 1.1118118757758269e+01 4.6531546989331343e+00 1.4954027450824967e+01 0 0 0
1000 1 9.4520556766321828e+00 4.5901328642905268e+00 1.4973202516128147e+01 0 0 0
1001 2 8.9858009059115496e+00 3.8834259802880355e+00 1.5543281787100756e+01 0 0 0
1002 2 8.8545348114237026e+00 4.6592095565460836e+00 1.4165526814686272e+01 0 0 0
1003 1 7.6174228448893384e+00 3.0808268658647142e+00 1.6236907658159573e+01 0 0 0
1004 2 6.7538889606158303e+00 3.2487339345527313e+00 1.5820410844715884e+01 0 0 0
1005 2 7.7441701581337643e+00 3.5782812124867052e+00 1.7035634617965599e+01 0 0 0
1006 1 6.2568113999543078e+00 1.3020948528908782e+00 1.3425835120797503e+01 0 0 0
1007 2 5.7936938840559336e+00 1.3239173620420261e+00 1.4344915303440319e+01 0 0 0
1008 2 7.1980781089120134e+00 1.2981301808162935e+00 1.3520510974434824e+01 0 0 0
1009 1 1.0903166094861458e+01 3.2897093063809129e+00 1.2080357589754326e+01 0 0 0
1010 2 1.1610523496183603e+01 2.7613634861307195e+00 1.2431687215002349e+01 0 0 0
1011 2 1.0714099956259988e+01 2.8928470547357832e+00 1.1210197561175145e+01 0 0 0
1012 1 7.7517943785939218e+00 4.7457460489769128e+00 1.2806255596980833e+01 0 0 0
1013 2 7.7479867128170490e+00 3.9705776782121371e+00 1.2197822651595567e+01 0 0 0
1014 2 7.6306045293705749e+00 5.5575351366874433e+00 1.2299610634410893e+01 0 0 0
1015 1 1.0808503534062844e+01 6.0961133507272791e+00 1.2247666229986770e+01 0 0 0
1016 2 1.0808801173973070e+01 5.0931276195760287e+00 1.2261527912634261e+01 0 0 0
1017 2 1.1295319604614678e+01 6.3326313570314063e+00 1.3036075256060307e+01 0 0 0
136 1 3.8512701647413583e-01 7.6600232539797606e+00 2.0666226575413127e+00 0 0 0
1019 2 7.7199303450743111e+00 1.0798251500030405e+00 1.6695063944502827e+01 0 0 0
654 2 7.8348446986944467e+00 1.1518299276106765e+01 6.3544312518396469e+00 0 0 0
578 2 1.1775764527019728e-01 5.2480706572986291e+00 9.6997795433559730e+00 0 0 0
1081 1 4.7548869271500962e+00 7.8290704602256236e+00 1.5426163321812595e+01 0 0 0
1082 2 5.4835729283587389e+00 7.9572969514652367e+00 1.4746218010304222e+01 0 0 0
1083 2 4.9116731803659341e+00 7.0707126741716744e+00 1.6025825824351873e+01 0 0 0
1084 1 2.8218840574827309e+00 7.7634413708492156e+00 1.3483598119573980e+01 0 0 0
1085 2 3.2197852354004066e+00 7.7781053247770950e+00 1.4359135446512344e+01 0 0 0
1086 2 3.1792403821380875e+00 6.9431043848675884e+00 1.3000495639082876e+01 0 0 0
1087 1 6.0327562429590929e+00 1.0850170937290191e+01 1.4712584856237784e+01 0 0 0
1088 2 6.2114559407770216e+00 1.0091016332616414e+01 1.5243881032278214e+01 0 0 0
557 2 1.1858030815714597e+01 1.3419375399977618e+00 8.6182898164674917e+00 0 0 0
1090 1 3.1624684694434428e+00 1.0838900098632577e+01 1.5164043544923606e+01 0 0 0
1091 2 2.8515710541905377e+00 1.0035809023622269e+01 1.5674533161119765e+01 0 0 0
1092 2 2.6253002472308915e+00 1.0785380733324061e+01 1.4359799169986056e+01 0 0 0
1093 1 1.5183334427139894e+00 8.8988944221145054e+00 1.6286456075463263e+01 0 0 0
1094 2 1.5026697106292766e+00 7.9073463551238126e+00 1.6352594554016445e+01 0 0 0
1095 2 6.9131049997642435e-01 9.1636420151848892e+00 1.5859372511788536e+01 0 0 0
510 2 1.6880335363931775e+00 4.4448457005580852e-02 1.1605734483295342e+01 0 1 0
1097 2 9.3253096359481613e-01 7.7436086014635022e+00 1.3646929785177669e+01 0 0 0
1099 1 4.6385540657622482e+00 9.2361339752815024e+00 1.2093324449405788e+01 0 0 0
1100 2 3.8183878860867684e+00 8.9588455786744987e+00 1.2500322067240960e+01 0 0 0
1101 2 4.6057015668989418e+00 1.0156462063819752e+01 1.1772534497724017e+01 0 0 0
1102 1 1.6777446162720284e+00 1.0673631250640838e+01 1.2865064331812611e+01 0 0 0
1103 2 1.7386086363397393e+00 9.9331076897336708e+00 1.2223339035612783e+01 0 0 0
1104 2 8.9027983834311919e-01 1.0561927254449126e+01 1.3435217382484966e+01 0 0 0
579 2 2.6311243877824175e-01 4.6229549874888169e+00 8.2288486162760250e+00 0 0 0
1108 1 1.5156435032284497e+00 6.1492045230271311e+00 1.6180020381346097e+01 0 0 0
1109 2 7.2534862846548431e-01 6.0305118105644775e+00 1.5664236116461483e+01 0 0 0
1110 2 1.3411222546396513e+00 5.8062381884395027e+00 1.7083570323890637e+01 0 0 0
1111 1 1.0786029540005050e+01 7.5527022991973727e+00 1.5598437829897373e+01 0 0 0
1112 2 1.1519193299497887e+01 7.8846135019485120e+00 1.4977138711397078e+01 0 0 0
1113 2 9.9250742330229116e+00 7.4927413914403740e+00 1.5047090105730312e+01 0 0 0
1114 1 9.1188913731738630e+00 7.6395404688489021e+00 1.3448610937328237e+01 0 0 0
1115 2 9.5323984379275863e+00 6.8658832817764743e+00 1.2950809214020873e+01 0 0 0
1116 2 8.1052884397838838e+00 7.7021118445216663e+00 1.3561667452773467e+01 0 0 0
33 2 1.1582705744174600e+01 1.7307609619650397e+00 3.1498863386199671e+00 0 0 0
1120 1 9.4771053393815698e+00 1.0717128557300621e+01 1.4959651612662618e+01 0 0 0
1121 2 9.1527311211276103e+00 1.0823669350858180e+01 1.4059610657279912e+01 0 0 0
1122 2 1.0439481058169344e+01 1.0944594018168745e+01 1.5005991636830677e+01 0 0 0
1123 1 7.6064753980043962e+00 8.9968213156913954e+00 1.5856552119482133e+01 0 0 0
1124 2 8.3166764640406186e+00 9.4954749294423753e+00 1.5376169375483389e+01 0 0 0
1125 2 7.5602427832580776e+00 9.2537760557259023e+00 1.6757032482566547e+01 0 0 0
1126 1 6.3382985134059089e+00 7.6302065802635086e+00 1.3266393485731060e+01 0 0 0
1127 2 5.6602373142603630e+00 7.1272946966994697e+00 1.2783043652464633e+01 0 0 0
1128 2 6.2243265979829046e+00 8.4407598836639792e+00 1.2759260842862627e+01 0 0 0
1129 1 1.1006599951148484e+01 9.5276080351446613e+00 1.2226002315463985e+01 0 0 0
1130 2 1.0288984931954815e+01 9.0300323085648735e+00 1.2705784508819731e+01 0 0 0
1131 2 1.0977310359336977e+01 9.0766773352096166e+00 1.1287605059270717e+01 0 0 0
1132 1 7.7950624445894015e+00 1.0836275887640506e+01 1.2716055064204861e+01 0 0 0
1518 2 1.1866551064027322e+01 6.7389636423670829e-01 1.8434626208774144e+01 0 0 0
1134 2 7.1432245607878668e+00 1.0973039379663687e+01 1.3451542502543077e+01 0 0 0
516 2 9.8247909366237067e+00 9.9756699674559268e-01 7.2458086758981004e+00 0 0 0
1137 2 1.0943965440863872e+01 1.1346990127086141e+01 1.2288338356976851e+01 0 0 0
1138 1 7.7514485651193743e+00 6.3946535248152463e+00 1.6144245220061897e+01 0 0 0
1139 2 7.7829733829059196e+00 7.4216156130886679e+00 1.6071902133767846e+01 0 0 0
1140 2 8.5877771263283869e+00 6.1024896457427555e+00 1.5711886118275716e+01 0 0 0
1376 2 1.1320470537105207e+01 1.6113931924793770e-01 1.2519838174277250e+01 0 0 0
1133 2 7.8195562845585114e+00 1.1698822502519414e+01 1.2259384612050225e+01 0 0 0
300 2 7.3482494630571660e+00 1.2263565680345785e+01 4.2837210591096637e+00 0 0 0
1178 2 1.1429986560321742e-01 1.1330113544411423e+01 1.5416733348528874e+01 0 0 0
1739 2 7.0349699906565490e+00 1.2193452569646173e+01 2.1404028446179566e+01 0 0 0
197 2 1.2093480617244948e+01 8.4512274859052994e+00 1.6521599547824461e+00 0 0 0
1576 1 1.6677175465901350e-01 7.5312796574013703e+00 1.9170200555195049e+01 0 0 0
16 1 5.1397851043166809e-01 1.6704794073952636e+00 2.4203763500178095e+00 0 0 0
1105 1 4.9086661887146752e+00 1.2093770106823365e+01 1.2164254018765485e+01 0 0 0
1441 1 4.9591370590733694e+00 1.0833889410021083e+00 2.1427314673934564e+01 0 0 0
1442 2 4.8353705942518799e+00 3.5517025364418670e-01 2.2084019200552380e+01 0 0 0
1443 2 5.2241196501507963e+00 1.9029637211258585e+00 2.1960505734537826e+01 0 0 0