LAMMPS data file via write_data, version 15 Apr 2020, timestep = 0

2016 atoms
2 atom types

0.0000000000000000e+00 1.8285310134400000e+01 xlo xhi
-1.1627950182378939e+00 4.5633729024232615e+01 ylo yhi
0.0000000000000000e+00 1.8979055948900001e+01 zlo zhi
-2.2435782160812323e-04 -6.8019904549699994e+00 -3.5620835569432074e-03 xy xz yz

Masses

1 16
2 2

Atoms # atomic

80 2 1.3439023683185283e+01 1.0845234663355402e+01 9.0961165563704700e+00 -2 0 0
498 2 1.3497375373714688e+01 5.4727157645239952e+00 4.7947926034609374e+00 -3 0 2
716 2 7.1636877473334719e+00 4.7894478976521455e+00 1.6605618682706911e+01 1 0 4
400 1 -3.3076925302032918e+00 5.2230381864553355e+00 1.7542500035303988e+01 3 0 2
326 2 1.1256420555190099e+01 4.2695462619252007e+00 8.1608190957919398e+00 1 0 3
151 1 3.8337864816755247e+00 6.4755166817175915e+00 6.7694780010778342e+00 2 0 1
649 1 -1.6361259074727648e+00 -5.4905297369283002e-01 7.7977642669993159e+00 0 0 -3
733 1 1.3442353532056135e+00 -5.4102028479527164e-01 2.5205339679196048e+00 1 0 4
647 2 6.3145837649673009e-01 1.4044403585650564e+00 1.6226678904884647e+01 -2 0 2
600 2 2.7478800319145211e+00 2.0703656977312117e+00 3.3308897678392140e+00 -1 0 4
546 2 3.0526898584330375e-01 -3.5630222780084320e-01 7.5057059477265540e+00 0 0 2
650 2 -1.7052133992188856e+00 -1.0311856969855251e+00 8.6595555176984309e+00 0 0 -3
403 1 -4.7447561824456996e-01 1.7949923447934393e+00 6.4331859010320196e+00 1 0 0
689 2 -3.3167276360694391e+00 1.2910403218372448e+01 1.1288568063757980e+01 -3 0 0
562 1 1.4092156627577539e+01 1.0780121449324328e+01 2.1505267593281476e+00 -2 0 1
89 2 1.0052930940790457e+01 4.4068556657110047e-01 1.3910558779756254e+01 -4 0 -1
228 2 9.3245229849065492e+00 3.8066927048661086e+00 1.1795976857827700e+01 1 0 0
879 2 5.0631277117667990e+00 3.1611223755870936e+00 1.6357900257229595e+01 0 0 2
226 1 8.6923500342963109e+00 3.0471422490290943e+00 1.1814430490485998e+01 1 0 0
52 1 3.0182786122260961e+00 3.3316634281770474e+00 2.0868324641707652e+00 1 0 4
305 2 6.8451537535134435e+00 -6.5848328185161176e-02 4.6264346179417748e+00 1 0 1
141 2 4.5093974031235655e+00 5.2168624400957175e-01 4.6077348731625429e+00 -4 0 3
68 2 -6.4074767276015736e+00 2.1268093589463795e+00 1.7895753996797211e+01 1 0 3
33 2 1.0094163274787562e+01 2.6159350795106464e+00 1.7079465240822458e+00 1 0 0
82 1 7.0960774109700449e+00 -2.1530066793418401e-01 1.6738295111676557e+01 0 0 -2
758 2 4.3181198287537175e+00 1.0216069714182684e+01 1.8683389507979772e+01 -5 0 -2
759 2 1.0964986741634286e+01 8.8676745992251149e+00 1.7707148145341137e-01 -5 0 -1
495 2 6.4791205339886568e+00 1.6797047428020040e-01 4.9151462023855071e-02 0 0 2
638 2 5.7253861245963682e+00 1.7689432619682353e+00 1.8089202627349717e+01 2 0 3
950 2 1.7331382970781341e+01 1.7460719356127430e-01 3.5111658434238890e-01 2 0 4
568 1 1.9601551668010564e+00 6.1990282902176332e+00 1.0912292784301695e+01 -1 0 -2
1056 2 5.5816050940087827e+00 2.1802722821169112e+01 8.0107795664110277e+00 0 0 0
138 2 1.8550252815470394e+00 8.9858868653279007e+00 6.3262010277332674e+00 -2 0 2
941 2 1.1540252334237412e+01 7.1140164026773540e+00 1.1341313914533618e+01 2 0 5
379 1 1.6948454765270067e+00 2.5953272306539210e-01 1.0410539869897255e+01 2 0 3
327 2 1.2684421776860976e+01 3.8086920494762859e+00 8.2129320436726800e+00 1 0 3
103 1 1.0483258148997502e+01 -4.5056768017995452e-01 2.2996906571540814e+00 0 0 2
637 1 1.2500411439438118e+01 1.4206922118394885e+00 2.0208752383546285e-02 2 0 4
159 2 2.6404572203732148e+00 9.1809813343800304e+00 8.9556597281934458e+00 1 0 0
570 2 2.4623368676890163e+00 5.6568561479568853e+00 1.0266271139981205e+01 -1 0 -2
471 2 1.2968605017735287e+01 2.4415449244997989e-01 1.4157070100732263e+01 -3 0 1
565 1 8.5920063110403042e+00 1.1743741320857950e+01 1.3300131825723749e+01 -2 0 -2
715 1 8.0445415064678194e+00 4.8367441034602345e+00 1.7046107333729534e+01 1 0 4
321 2 9.7053099603736754e+00 2.4272519469184717e+00 4.2726133589126709e+00 -1 0 1
158 2 4.0114209564538328e+00 8.4046391433498684e+00 8.9996005057115553e+00 1 0 0
693 2 1.0020183027243856e+00 2.0012534599021072e+00 1.2893436891932815e+01 -1 0 1
227 2 8.6729276026895779e+00 2.7858918938491262e+00 1.0923129122455551e+01 1 0 0
639 2 1.1624073214448725e+01 1.4765237802208038e+00 3.5786407209206372e-01 1 0 4
335 2 2.9621838711783619e+00 -1.1606711868116859e-01 1.4035686187861478e+01 -2 0 2
130 1 1.1186804718726286e+01 -4.5154713181531314e-01 1.4482553306600087e+01 -3 0 -2
954 2 1.8120141723580838e+00 8.2379119198362520e+00 1.8739775230610054e+01 -1 0 3
1118 2 7.3283904244931408e+00 2.1588077642730031e+01 5.3754402062335203e+00 0 0 0
140 2 4.9335303706715630e+00 -8.0939835737810628e-01 3.8684234818574734e+00 -4 0 3
303 2 -2.3034139406634133e+00 1.5960889267806383e+01 9.6855496003542338e+00 0 0 2
790 1 4.4829216545503439e+00 -3.4264795696779726e-01 1.6906920700228067e+01 1 0 3
220 1 -2.9597163975398861e+00 4.6729770919692024e+00 1.4572664553128570e+01 2 0 0
1084 1 1.5323110361086231e+01 7.8830333545324773e+00 3.8861527776096518e+00 -1 0 0
65 2 6.8358096532068533e+00 7.1983392661985324e-01 1.0995718423226617e+01 -2 0 2
810 2 1.1401131324465544e+01 3.0363364283118495e+00 1.4401018024544081e+01 0 0 1
436 1 9.8675685796858748e-01 5.0806394071201550e+00 1.4617799457107408e+00 0 0 4
91 1 1.0015198145650883e+01 6.8687613353001069e+00 6.6204070095758345e+00 4 0 1
104 2 1.1225772337553494e+01 1.0429247084287518e-01 2.7061837259555794e+00 0 0 2
707 2 6.0936375671082637e+00 6.9303160046285246e+00 1.5755941950730385e+01 2 0 3
616 1 1.1204365899239376e+01 7.7750051881080768e+00 2.9922680759747382e+00 -1 0 1
769 1 9.4868890948863935e+00 7.2992653270930621e+00 9.0164839663635132e-01 2 0 5
989 2 1.4325026218698710e+01 3.9474665259555808e+00 9.1438140498950613e+00 3 0 2
63 2 7.8660324811140327e+00 7.7126855147833844e+00 1.1861471073456183e+01 1 0 3
968 2 8.3720773481131214e+00 -6.9076373689005210e-02 1.2397038496553273e+01 0 0 4
646 1 -3.3123464819992510e-01 1.5471173881402773e+00 1.6192879613743781e+01 -2 0 2
183 2 1.2566437927891602e+01 4.6831262828182911e+00 2.3243907494778764e+00 1 0 5
282 2 5.1902439209921614e+00 6.4119498618072166e+00 1.2604770045595428e+01 -1 0 1
88 1 9.3617731010957321e+00 9.1183718237411204e-01 1.3318659986445761e+01 -4 0 -1
749 2 1.1181358409657109e+00 8.2249274139632806e+00 8.2913838096501280e+00 0 0 1
1082 2 -3.2345042687397263e+00 1.2564717601422908e+01 1.4890627549488805e+01 0 0 -1
700 1 6.2954752700332657e+00 3.3050630677362616e+00 1.2611800688175920e+01 3 0 2
734 2 9.1237036788142589e-01 2.8369728421865181e-01 2.3265994103559096e+00 1 0 4
819 2 1.5734166369537320e+01 4.6676567824691428e-01 4.8775411636218236e+00 -1 0 -1
272 2 1.5179693538821377e+01 2.8634999973302735e+00 4.6065909161476037e+00 -3 0 1
150 2 1.0112018092570256e+01 9.6737857659697912e+00 5.0556130786162452e+00 1 0 -2
607 1 1.2664197880508623e+00 2.1986497125566423e+01 8.9565582887023698e+00 2 0 3
69 2 -6.1280721420788433e+00 6.4805100437596863e-01 1.7668320156133650e+01 1 0 3
86 2 7.0893877837108512e+00 8.2030937507932400e+00 2.9449050601502043e+00 3 0 4
219 2 1.0764738038723658e+01 2.7926648143706823e-01 7.0690284471202549e+00 -1 0 3
951 2 1.5888744696830765e+01 -3.2735733597059014e-01 7.3809851629956713e-01 2 0 4
521 2 1.2813823508028172e+01 9.7637543386982948e+00 1.5228432828534594e+01 0 0 -1
168 2 1.3856238242273927e+01 2.0407090929325724e+00 3.2914691336098176e+00 1 0 2
110 2 -3.6616047525036555e+00 1.2434392438543176e+00 1.5047869252569184e+01 -3 0 3
267 2 1.6114705925428190e+01 9.1806212824723445e+00 4.5103313966870635e+00 0 0 0
1006 1 7.8595870664586864e-01 9.1713206281360069e+00 3.3088950987704933e+00 0 0 1
380 2 1.3481490021667089e+00 -6.0151668890124477e-01 1.0779963809220346e+01 2 0 3
198 2 1.1759583087492432e+01 1.0762877489176725e+01 4.9924353903222016e+00 -2 0 -2
440 2 1.2130888129797638e+01 5.3263438609888851e+00 1.1998195930357640e-01 3 0 3
269 2 2.6998616718737924e+00 3.7527663453682978e+00 1.2733990581251120e+01 2 0 1
217 1 1.0049023494701377e+01 -4.1572599821774237e-01 7.0410901994706157e+00 -1 0 3
71 2 2.9936583221460715e+00 5.3916400475722286e+00 4.4479372001494344e+00 3 0 3
351 2 5.0765377285431121e+00 6.6930161632967149e+00 3.7797691143435710e+00 0 0 3
415 1 7.0055604560773359e+00 9.4786205562626762e+00 1.7581286279454119e+01 0 0 1
342 2 3.0211952531830768e+00 1.1342335548977294e+01 1.6639176790724377e+01 0 0 -1
591 2 -4.2686319550402594e+00 2.5098969897823755e+00 1.8338333834634614e+01 -3 0 -1
489 2 7.6034154263571754e+00 1.3739655015437724e+00 9.1499862254731479e+00 -6 0 -5
833 2 5.0208278573328773e+00 8.6112891754966725e-01 1.4499631523467649e+00 0 0 4
659 2 5.9103605946812046e+00 1.2719708314770342e+01 1.8526424401578321e+01 0 0 -1
743 2 3.7549510932159462e+00 1.6221268532293367e+00 1.2295825960937247e+01 1 0 -1
735 2 9.4158832132621861e-01 -9.3457786891903039e-01 3.3230597381404734e+00 1 0 4
683 2 5.3866245874943814e+00 4.7664566020607646e-01 1.3770410664877877e+01 3 0 -1
205 1 2.5276471619125500e+00 7.4633132274194569e+00 1.6451693027841143e+00 -2 0 1
163 1 5.8751684457694129e+00 3.2045179375927839e+00 9.1451919643167443e+00 -3 0 0
838 1 3.9323900251647648e+00 -4.0754932068428784e-01 9.1990626369497850e+00 1 0 -3
231 2 -1.5202877578080325e+00 7.2905667818142224e+00 6.8349086242987296e+00 2 0 2
181 1 1.2198400840420522e+01 5.1072787656972185e+00 3.1907762489843989e+00 1 0 4
831 2 -2.9701350149052761e+00 2.1137295533291628e+01 9.3524813104496634e+00 -1 0 2
1641 2 9.7916646810767389e+00 2.2075614006715362e+01 1.5658665728680157e+01 0 0 0
468 2 5.8021498653251928e+00 6.8142389935747678e+00 1.0353778558016384e+00 4 0 2
942 2 1.1858920625304929e+01 6.2126289265741592e+00 1.2591160202097168e+01 2 0 5
490 1 4.9033328855112899e+00 5.3295536268555486e+00 9.8528825616155602e-01 1 0 4
252 2 9.7358616981032675e+00 1.5562443858768678e+00 1.7224630070301671e+01 2 0 4
469 1 -4.3594715151374670e+00 3.7421865224533413e-01 1.3888575917237217e+01 -1 0 1
55 1 9.5573383105149148e+00 2.7788896181286509e+00 7.1514107774948332e+00 1 0 1
1562 2 2.9437331719654027e+00 2.1802045174832902e+01 1.8815532833782537e+01 0 0 0
265 1 -1.4763912248995898e+00 9.8612537296275704e+00 4.6904539223749220e+00 1 0 -1
853 1 -2.0556860485597053e+00 -5.9543117365769882e-01 1.6623516067281123e+01 1 0 0
407 2 -8.1135540933185091e-02 4.2106141620218258e+00 1.1343845274125542e+01 -1 0 2
186 2 4.5939779173311877e+00 -1.0853929413331351e+00 6.2433527679489655e+00 1 0 2
680 2 2.9501731849375528e+00 2.7468553341092985e+00 1.5951571037898397e+01 2 0 3
864 2 -3.2056329319153183e+00 1.0410992474345779e+01 1.5471156129660899e+01 -4 0 2
845 2 -1.6043448820374939e+00 3.7828440542634967e+00 1.7806511050345268e+01 0 0 1
109 1 -3.0759830681610847e+00 1.8647399170660370e+00 1.5630447036778140e+01 -3 0 3
12 2 2.8474787823940568e+00 4.9914967772804362e+00 1.6542771856298124e+01 -1 0 -4
581 2 1.3570796730664552e+01 4.3332935833709052e-01 9.5272633610792035e-01 -2 0 3
766 1 1.1478480200437735e+01 2.2681776182280911e+00 1.0815221413159959e+01 -2 0 1
208 1 1.9865002187618037e+00 8.1184452109618803e+00 1.3197054601424929e+01 3 0 3
304 1 7.5582656244823934e+00 2.1554529983197712e-01 4.0331383612174729e+00 1 0 1
524 2 4.2078088696401945e+00 9.9533872911513672e+00 3.3240722271902352e+00 0 0 1
501 2 9.8962973056958781e+00 8.5203389657889961e+00 1.1694071920271845e+01 -1 0 2
487 1 8.5191840563795846e+00 1.5710747124938007e+00 9.3763390956984463e+00 -5 0 -5
83 2 7.0378944545826352e+00 -6.1784411686731644e-01 1.5898035158946527e+01 0 0 -2
325 1 1.2044421277704181e+01 4.1959668176807963e+00 7.5882151507859303e+00 1 0 3
239 2 -1.4429422635260447e+00 9.2311447448935660e+00 7.2293921065411970e+00 0 0 1
580 1 1.4286120971839406e+01 -1.5011922291888746e-02 1.4921010418039038e+00 -2 0 3
31 1 9.8801188498767640e+00 2.0417013059122544e+00 9.3977171518704838e-01 1 0 0
111 2 -3.0483069918753172e+00 2.7154497952784218e+00 1.5295687722734234e+01 -3 0 3
15 2 6.8309260305824804e-01 4.0119549936243990e+00 7.3910230084024455e+00 2 0 1
311 2 -2.6220222240797844e+00 5.2452554999381320e+00 9.9605401638438558e+00 1 0 3
108 2 -3.3968982157114822e+00 7.7640550851480707e+00 1.3854518549934777e+01 1 0 1
736 1 1.2424414768659759e+01 1.0941338654664974e+00 3.8107116430539243e+00 -2 0 1
780 2 3.0959653905420410e+00 6.4512127191377422e-01 1.6718888273025755e+01 -1 0 2
466 1 6.1137728211389533e+00 7.7418685064124961e+00 1.2538300127826092e+00 4 0 2
856 1 3.1395114392335497e+00 7.8730060346345674e+00 1.5480186029011275e+01 -3 0 3
439 1 4.9410964588243314e+00 6.1894903701637727e+00 1.8831488354982000e+01 3 0 2
478 1 -1.3021411571589314e+00 5.7846837239974365e+00 1.1696468984933215e+01 4 0 2
259 1 -4.0533865057532719e+00 2.3751470531364962e+00 1.2071850814775043e+01 -4 0 1
373 1 1.8952919522234946e-01 3.4246584033384302e+00 4.3097903750843649e+00 1 0 1
93 2 1.0082838542518621e+01 7.5710724036533588e+00 5.9545165943784442e+00 4 0 1
480 2 -1.1394411467059271e+00 6.5612684913922585e+00 1.1109714959049303e+01 4 0 2
18 2 8.0330846423386149e+00 -1.5757758288751411e-01 6.9089361219220793e+00 0 0 3
1117 1 8.1475046279925500e+00 2.2121653309952254e+01 5.3672281616259045e+00 0 0 0
290 2 -5.3153738667373496e-02 6.1336395941963042e+00 1.5604220802182301e+01 1 0 0
791 2 5.2938757348512855e+00 -2.0802118905260958e-02 1.6524314716777223e+01 1 0 2
850 1 6.1229674150653430e+00 8.0939027466676290e+00 6.4413195830450523e+00 -1 0 2
767 2 1.1583664559542534e+01 2.4505576983049449e+00 1.1770011674658480e+01 -2 0 1
1998 2 1.4229906454853230e+01 2.3113907165035514e+00 8.7847424872814059e+00 3 0 2
182 2 1.1909741398346929e+01 5.9868132585582146e+00 2.9585657411981487e+00 1 0 4
164 2 6.0252638717527240e+00 2.5310076472426375e+00 9.8355198133741943e+00 -3 0 0
79 1 1.2821657861372065e+01 1.0171923268401969e+01 9.4004243929713809e+00 -2 0 0
886 1 -1.1350272125994745e+00 9.3114531849580526e+00 1.2933427113185706e+01 0 0 2
484 1 -4.0514508134832600e-01 1.7345366701772584e+00 2.3393718032866779e+00 1 0 3
807 2 -4.0921701720426160e+00 3.9770128099449513e+00 1.1813128290095609e+01 7 0 5
310 1 -2.7655306325735189e+00 5.1513138476606244e+00 8.9760019975063994e+00 1 0 3
857 2 4.1384738237362084e+00 7.9744700221679476e+00 1.5416697967470618e+01 -3 0 3
674 2 -1.5353286847412000e+00 4.0131611187962042e+00 6.3216902375978927e+00 0 0 2
895 1 1.1744045514206675e+01 6.1766690778690752e+00 1.4491763865694333e+01 0 0 3
92 2 1.0882747319545452e+01 6.7241650618730366e+00 6.9971925056371118e+00 4 0 1
411 2 1.0664732877948152e+01 3.7203413417956694e+00 1.0193734445442498e+01 -3 0 3
270 2 3.5499053409231935e+00 5.0170357507513748e+00 1.3062050997607875e+01 2 0 1
544 1 1.1788321745573040e+00 -5.6775647088671066e-01 7.1695548431193661e+00 0 0 2
312 2 -2.7334300218297294e+00 6.0404356496116716e+00 8.6025661317093789e+00 1 0 3
263 2 1.2502907583180837e+01 5.8988296233375008e+00 7.9957244736739996e+00 0 0 1
349 1 4.1301483830208578e+00 6.7720475480400646e+00 3.8367230001291510e+00 0 0 2
474 2 1.2003803360684838e+01 3.9442051811283783e+00 1.7516225578872021e+01 1 0 4
50 2 1.2008652823059972e+01 2.3421637454151649e+00 6.7004517473571177e+00 1 0 3
762 2 7.7536551681777048e+00 1.2537477995259878e+00 1.4205875053599177e+01 2 0 4
360 2 1.0769275334308787e+01 1.1580487742277938e+01 1.1306359348998670e+01 -1 0 0
165 2 6.5567458946507138e+00 3.9496320496277511e+00 9.3499067249032208e+00 -3 0 0
222 2 -2.9164454221654799e+00 5.6247210066990974e+00 1.4313312307097659e+01 2 0 0
406 1 6.5474531149081638e-01 3.6238106128177794e+00 1.1182104948414054e+01 -1 0 2
703 1 1.4768936945138780e+01 1.2615705643299400e+00 7.4570015869556183e+00 -2 0 1
525 2 3.7149045233925415e+00 8.4760934232508767e+00 3.9151953371138077e+00 0 0 1
288 2 -4.4965978626154168e-01 5.8928361927701651e+00 5.8784698085027935e+00 -3 0 2
206 2 2.0146072449107639e+00 7.9845007661771348e+00 2.2768515628992385e+00 -2 0 1
742 1 3.1258314580243480e+00 2.3070467140087176e+00 1.1922759117963791e+01 1 0 -1
673 1 -9.6560884676454450e-01 4.5815753751121600e+00 6.9039040792738904e+00 0 0 2
356 2 -3.8714248347409508e+00 -4.2273842866238165e-01 1.6798557025840864e+01 -1 0 1
507 2 1.6955512574048079e+01 6.3814548822721040e+00 4.6550209002727444e-01 -1 0 1
276 2 2.5521182594514111e+00 1.6388789843895659e+00 5.6711569372266641e+00 -2 0 0
863 2 -2.0098876148121803e+00 1.0675560121821773e+01 1.4327603283440038e+01 -4 0 2
152 2 3.9926016382658744e+00 5.9191026968715770e+00 7.6075837122958205e+00 2 0 1
802 1 1.4008248342361046e+01 -5.9264666339720218e-01 4.9311599556016867e+00 -1 0 1
64 1 6.0303912966303628e+00 1.2238337170854776e+00 1.0727463341660366e+01 -2 0 2
952 1 1.1222734743264215e+00 8.8241529104641110e+00 1.8409635997360450e+01 -1 0 3
318 2 1.3487067422676791e+01 8.0331532733191384e+00 7.0227926283678137e+00 1 0 -2
948 2 2.0041303344409056e+00 1.1400868318129977e+01 6.5267924872031786e+00 1 0 1
545 2 1.8299923652249288e+00 1.6874113774655730e-01 7.2511331238959169e+00 0 0 2
760 1 6.7895391960716545e+00 1.4309208086951464e+00 1.4336297321947631e+01 2 0 4
757 1 1.1428412475605082e+01 9.6893477607026171e+00 4.4322333211009673e-01 -5 0 -1
540 2 1.0399362240704294e+01 1.2238862896759306e+01 2.0878879941787982e+00 2 0 6
744 2 2.6760044263051332e+00 1.7602328346048695e+00 1.1252616357180219e+01 1 0 -1
875 2 5.5607754361801849e+00 2.3041407384906605e+00 3.3843321254262926e+00 -2 0 4
281 2 5.7000233379197631e+00 4.8511182494913303e+00 1.2879764372941116e+01 -1 0 1
567 2 8.3023770781115793e+00 1.2596996379220112e+01 1.3741011253522807e+01 -2 0 -2
438 2 3.8961546816496884e-01 5.2919202584661962e+00 2.2343478052962480e+00 0 0 4
1003 1 6.4666711678750168e+00 5.6335906040753168e+00 4.2253408749430585e+00 3 0 0
738 2 1.1858448116166707e+01 1.4281465914485603e+00 4.5467537659416761e+00 -2 0 1
57 2 9.4891294330962470e+00 2.1996132434444400e+00 6.3634286517891345e+00 1 0 1
492 2 4.4001601296404207e+00 5.2534220789731787e+00 1.9879910025624151e-01 1 0 4
877 1 5.9288975872497236e+00 2.7158891313425202e+00 1.6610815433106438e+01 0 0 2
953 2 1.1517102887333808e+00 8.7063931524189488e+00 1.7453962266168070e+01 -1 0 3
876 2 6.4292901637349127e+00 2.3805686355934088e+00 2.0438183431198107e+00 -2 0 5
1672 1 -1.7122648101037790e+00 8.3689456245414302e+00 1.6523434782669074e+01 1 0 0
242 2 9.3720054735122726e+00 4.5182509241279032e+00 2.7866963320936571e+00 1 0 0
54 2 2.2464439543884991e+00 3.9509636134150874e+00 2.0086187178537602e+00 1 0 4
203 2 1.4724303095575394e+01 7.3535353343098748e+00 1.3072847343003897e+00 -1 0 5
682 1 4.4626680451089848e+00 3.4717472684739170e-01 1.3318105039732217e+01 3 0 -1
648 2 -3.6193021228228517e-01 1.8011904936938081e+00 1.5259425875253314e+01 -2 0 2
852 2 6.5267643267997304e+00 8.1981031738898498e+00 5.5986680651402345e+00 -1 0 2
320 2 8.9454495788812487e+00 1.0825410958084580e+00 4.4204640096068717e+00 0 0 1
201 2 4.2047179654139786e+00 3.5573082118537602e+00 4.6281182636079921e+00 -2 0 0
589 1 -3.4809656764703454e+00 1.9974198516688668e+00 1.8196912741497616e+01 -3 0 -1
1086 2 1.4676466090449699e+01 7.8784144535576086e+00 3.1152719658431094e+00 -1 0 1
818 2 1.6661280653942036e+01 -5.6520450898716879e-01 4.2110957028385192e+00 -1 0 -1
1408 1 1.3279413350390810e+01 4.0730032998266461e+00 8.3364072211901619e-01 -1 1 0
319 1 9.7133622254335190e+00 1.6243794053662937e+00 4.7921836229203585e+00 0 0 1
499 1 1.0793831507550777e+01 8.4825342990611077e+00 1.1392927230611360e+01 -1 0 2
1004 2 5.9834726213554390e+00 4.8086652477657887e+00 4.3739876500432580e+00 3 0 0
221 2 -3.3897292664456007e+00 4.3715127536886200e+00 1.3774732261072336e+01 2 0 0
404 2 -1.6575790718205385e-01 2.4947008963949835e+00 5.8110502772759478e+00 1 0 0
1085 2 1.5053456433318734e+01 7.1421002989113820e+00 4.4835827697291668e+00 -1 0 0
491 2 4.5943157509982777e+00 4.6102116035332976e+00 1.5400828531049848e+00 1 0 4
842 2 1.6747542062744515e+01 5.8253319545062281e+00 2.6259569231962896e+00 0 0 1
913 1 8.0976096872997001e+00 5.3348637246307149e+00 2.1891863863931063e+00 -2 0 1
136 1 1.6875897868808489e+00 8.0989985382123511e+00 6.6041310437622398e+00 -2 0 2
556 1 8.1330827323967458e+00 5.0542790401128963e+00 6.4769221870035674e+00 1 0 7
563 2 1.4361955673654689e+01 1.0088484927987377e+01 1.4802013663984857e+00 -2 0 1
878 2 6.2269109657266721e+00 2.3304926486592024e+00 1.5757566274560622e+01 0 0 2
428 2 9.0979273668782437e+00 2.6343012579748484e+00 1.8923370082180792e+01 0 0 3
1673 2 -1.1804739664635777e+00 7.4902467312880674e+00 1.6656411364493863e+01 1 0 0
1674 2 -1.1227260314250964e+00 9.0418019252312156e+00 1.6056005928375637e+01 1 0 0
725 2 1.2826499256451415e+01 8.6142337295983680e+00 1.3078029725871136e+01 1 0 3
887 2 -3.0185636577479347e-01 9.3344749077359594e+00 1.3429936874540859e+01 0 0 2
172 1 5.5375134535139470e+00 1.7358548662546309e+00 6.8626389796875449e+00 0 0 3
840 2 4.2085777482876452e+00 -9.8112405683916626e-01 9.9546440382519155e+00 1 0 -3
174 2 5.7535636497033593e+00 2.2713255413685665e+00 7.7057580171132258e+00 0 0 3
656 2 1.1350812851664571e+01 8.4514500062549267e+00 1.8844276848244725e+01 2 0 2
306 2 7.0890282790883665e+00 8.6863026862096948e-01 3.4386858429183671e+00 1 0 1
723 2 -1.1350798791781913e+00 1.3727384341019206e+00 9.4119879956748065e+00 4 0 4
106 1 -2.5085156549641825e+00 7.3706659249829922e+00 1.4117025887684765e+01 1 0 1
557 2 8.7823926896716564e+00 5.7650351052370601e+00 6.4784300050233989e+00 1 0 7
515 2 6.2765817003919242e+00 7.4471525774108542e+00 1.0529555962880213e+01 1 0 2
618 2 1.1920578642714442e+01 8.3969845096576226e+00 3.2241654159711981e+00 -1 0 1
832 1 4.6918957722606836e+00 1.3207564119955895e-01 8.5799239913901182e-01 0 0 4
523 1 3.5813449610314145e+00 9.4929062306601200e+00 3.9295991999038860e+00 0 0 1
261 2 -4.4487854132536624e+00 1.7125076670938673e+00 1.2677595789008729e+01 -4 0 1
771 2 1.0097740662034871e+01 7.5425692614446032e+00 1.6533561722907422e+00 2 0 5
479 2 -2.2155642313189010e+00 5.9461527112080121e+00 1.1943299402526266e+01 4 0 2
708 2 5.2366189300910619e+00 5.7806602748575360e+00 1.5177635804702140e+01 2 0 4
148 1 9.7193193719255220e+00 8.7414992004161078e+00 4.9902958018344705e+00 1 0 -2
846 2 -5.7970652648697207e-01 2.9509263931952674e+00 1.7095990307477130e+01 0 0 1
722 2 -3.2386144824904539e-01 1.6864715675433843e+00 8.1416261475342093e+00 4 0 4
597 2 -3.2519656581352252e+00 7.8587056051675468e+00 1.0196797597457934e+01 1 0 4
526 1 -1.5121301399637077e-04 9.8424526646995858e+00 5.9960071418570127e-01 -2 0 3
274 1 2.6084096825814305e+00 1.6881722932605889e+00 6.6474716319322518e+00 -2 0 0
101 2 5.6512085524133484e+00 9.3007996690736672e+00 1.7406465657878123e+00 2 0 2
516 2 7.5128659913534648e+00 8.0129273819742366e+00 9.6296589705208770e+00 1 0 2
679 1 3.3621878262772968e+00 3.6277252092939705e+00 1.5779620672798544e+01 1 0 3
137 2 2.5091066926942363e+00 7.6407342108439877e+00 6.6841830868439569e+00 -2 0 2
691 1 4.0384887071626796e-01 1.3670000105170370e+00 1.3333110692516632e+01 -1 0 1
204 2 1.3194222696538072e+01 7.6735251701361218e+00 1.1844936856120949e+00 -1 0 5
289 1 -1.9296712967370055e-01 6.2240339898585342e+00 1.6589390960756663e+01 1 0 0
62 2 7.5339873756291222e+00 8.8672622816153481e+00 1.2896332114975662e+01 1 0 3
564 2 1.4963449842626787e+01 1.1162955113835284e+01 2.4486192494684800e+00 -2 0 1
11 2 1.5326833211000084e+00 5.7660289077652687e+00 1.7024793912800298e+01 -1 0 -4
961 1 8.6522210700980970e+00 7.4669326505924296e+00 1.7235290474216640e+01 1 0 0
704 2 1.5184368104450776e+01 1.8903847728467089e+00 6.8404797766990511e+00 -2 0 1
505 1 1.6179064580739780e+01 5.9341984144770574e+00 9.3187539751623227e-01 -1 0 1
569 2 1.7023446224860175e+00 5.4239259024445223e+00 1.1493856535092426e+01 -1 0 -2
855 2 -1.3969897906887461e+00 1.1902914207562709e-01 1.6652836891504069e+01 1 0 0
291 2 -5.2218540246578549e-01 5.3560903403269222e+00 1.6883680491632376e+01 1 0 0
841 1 -9.1244204953400931e-01 5.5343907533485366e+00 3.3111009999049195e+00 1 0 1
721 1 -2.2343510799135125e-01 1.5412122833791813e+00 9.0859220330160699e+00 4 0 4
669 2 -3.3695568391666337e+00 1.6913317593030319e-01 1.0203104337202310e+01 0 0 2
229 1 -2.0429042633876242e+00 7.6979793159761680e+00 7.6056606083712515e+00 2 0 2
768 2 1.2346978291241413e+01 2.4166723752832335e+00 1.0449647517807062e+01 -2 0 1
260 2 -3.6139733416226094e+00 1.7779593279836559e+00 1.1350913457465852e+01 -4 0 1
1036 1 1.5829872349359782e+01 1.3673620615974224e+01 1.7501433532354135e-01 -1 0 0
200 2 5.2264543004712953e+00 2.7056562363050860e+00 5.5511916003960726e+00 -2 0 0
350 2 3.8302875290141580e+00 6.7207002608986377e+00 2.9167591097169754e+00 0 0 2
463 1 4.6819368048536791e-01 5.9314832999265361e+00 1.4020145830350828e+01 2 0 0
778 1 2.3865561271328071e+00 1.2558514154609259e+00 1.6882648260918028e+01 -1 0 2
51 2 1.3095801029631074e+01 1.2653449799282681e+00 6.8562670781290374e+00 1 0 3
359 2 1.2154091634104418e+01 1.0939121525703422e+01 1.0725236584459532e+01 -1 0 0
604 1 7.5841138697227546e+00 3.1430539062869860e+00 9.2336457710315922e-01 -2 0 3
590 2 -3.5308557621970604e+00 1.8713541947861478e+00 1.7219115529932338e+01 -3 0 -1
858 2 2.9596708974277242e+00 7.0587503142528103e+00 1.6013936705601655e+01 -3 0 3
268 1 2.7040381912124900e+00 4.5599427423775722e+00 1.3312500258133905e+01 2 0 1
706 1 5.7368025904822408e+00 6.0514852061751254e+00 1.5946484876058205e+01 2 0 4
464 2 1.0571645660147482e+00 5.2426168014233694e+00 1.3861309649822170e+01 2 0 0
806 2 1.3479106092992019e+01 5.4003250360890300e+00 1.1578667044035068e+01 7 0 5
914 2 7.5278281256437776e+00 5.7057578625266405e+00 2.8792506182673887e+00 -2 0 1
1005 2 6.8956641192738548e+00 5.7586712176638351e+00 5.0870495021405393e+00 3 0 0
1626 2 7.8373158947979586e+00 2.1637809165861693e+01 1.8741237143814200e+01 0 0 0
675 2 -1.3861181090453554e+00 4.6381741631720859e+00 7.8104385811281425e+00 0 0 2
287 2 5.8425104741176037e-01 7.1130515952749267e+00 5.7618970156242160e+00 -3 0 2
737 2 1.2976568572840916e+01 3.5185650456786677e-01 4.2158466649107593e+00 -2 0 1
681 2 3.1673373039416779e+00 3.9578420128197340e+00 1.4919679143692189e+01 1 0 3
909 2 9.8358861775566275e+00 -2.2374125966463643e-01 9.6480363284314858e+00 3 0 5
374 2 1.0826970720561815e+00 3.7979935996125818e+00 4.5297054463269522e+00 1 0 1
84 2 7.8567605712913799e+00 4.3796337517271633e-01 1.6641772071728941e+01 0 0 -2
874 1 6.0236487795177922e+00 1.7330911415308656e+00 2.6627163588580007e+00 -2 0 5
844 1 -6.4324864853349517e-01 3.7521185532777812e+00 1.7663796484393838e+01 0 0 1
14 2 1.9824570755082198e+00 3.0993118141744169e+00 7.1365053485264447e+00 2 0 0
717 2 8.2295387628123464e+00 5.8387310126085321e+00 1.7131968573543006e+01 1 0 4
470 2 -4.1953938144296439e+00 -3.2902246074078079e-01 1.3233906786519935e+01 -1 0 1
770 2 1.0054346818688963e+01 6.7506905797426855e+00 3.7128912441608131e-01 2 0 5
582 2 1.4550405861357367e+01 6.8856106293763508e-01 2.1286531020042156e+00 -2 0 3
341 2 3.3267009363200843e+00 9.8658011700304620e+00 1.6527831248763540e+01 0 0 -1
1410 2 -3.0064436438722151e+00 4.9854522224470479e+00 1.6670658999450094e+01 3 0 2
605 2 7.7565223423164369e+00 4.0107200261933844e+00 1.3169852373189377e+00 -2 0 3
599 2 2.6231399874064607e+00 5.9884159853832908e-01 3.6744726714236227e+00 -1 0 4
839 2 3.0693101253387356e+00 -8.5401918516165409e-02 9.6046974669879646e+00 1 0 -3
67 1 1.1448722526686856e+01 1.2733516063359178e+00 1.7961282157047485e+01 0 0 3
748 1 9.6272409129927716e-01 8.4897721378271029e+00 9.2666127319307421e+00 0 0 1
897 2 1.2475753063166486e+01 6.5223577138664419e+00 1.5062099919037362e+01 0 0 3
667 1 -2.6876747005636119e+00 8.2475311487466074e-01 1.0421723604252954e+01 0 0 2
514 1 7.2632380091106725e+00 7.4169239350822895e+00 1.0390961569611386e+01 1 0 2
1025 2 4.2692989966325383e+00 4.3894082946521289e+00 9.0502819447069633e+00 0 0 0
358 1 1.1634406677955564e+01 1.1082637837669267e+01 1.1562926796781442e+01 -1 0 0
61 1 8.1587530112582183e+00 8.1051906560323417e+00 1.2760625205973378e+01 1 0 3
750 2 1.3162497835189924e+00 7.7842070389699956e+00 9.7631409318624467e+00 0 0 1
273 2 1.4865311415181786e+01 4.1193740509611168e+00 5.6257358045508781e+00 -3 0 1
199 1 5.1544313802125457e+00 3.2909335713397061e+00 4.7165877753617904e+00 -2 0 0
473 2 8.6592918950923148e-01 4.2523513763189653e+00 1.8648865931803624e-02 2 0 5
405 2 -7.5689467248831832e-01 1.0690224215635653e+00 5.8382089881176995e+00 1 0 0
805 1 -4.0424944648738359e+00 4.9285182037644217e+00 1.1978058678421291e+01 8 0 5
963 2 8.0440288879425506e+00 8.2089210672035335e+00 1.7512520445542702e+01 1 0 0
988 1 1.3814939914957570e+01 3.0960429773795113e+00 9.1994473292731307e+00 3 0 2
488 2 8.9014485009163806e+00 1.8874309135206984e+00 8.5905340527602529e+00 -5 0 -5
250 1 8.8809019691800728e+00 1.8059723594227726e+00 1.7522945520566722e+01 2 0 4
53 2 3.0295150193178908e+00 2.8513136941951238e+00 1.2845376743551407e+00 1 0 4
598 1 2.8446549102796501e+00 1.4262236917498146e+00 4.0731498001508246e+00 -1 0 4
385 1 1.0745719603782995e+01 4.2237339960161657e+00 1.5955705239665022e+01 -1 0 1
962 2 9.5227930431165166e+00 7.6151038904518646e+00 1.7715819016757600e+01 1 0 0
657 2 1.1890711636704424e+01 7.3000977207646596e+00 1.7810943616529162e+01 1 0 2
408 2 3.4723752633041993e-01 2.9132477649348862e+00 1.0571610781244241e+01 -1 0 2
381 2 9.5196273422846911e-01 6.7778690972935540e-01 9.9169145649914476e+00 2 0 3
520 1 -4.6868638473032647e+00 9.6121734389850975e+00 1.5787898622536774e+01 1 0 -1
46 1 7.8751475105350908e+00 5.0125768261448433e+00 9.4441721421903360e+00 -1 0 4
809 2 1.2074107659664437e+01 3.9938180512997414e+00 1.3446087767349690e+01 0 0 1
275 2 3.5399345451490496e+00 1.6275006053873629e+00 6.8987230464088887e+00 -2 0 0
788 2 8.7925464985924151e+00 7.8877996366170251e+00 7.8435707424547827e+00 2 0 -1
251 2 8.7312425012193913e+00 2.6781071093439377e+00 1.7167075757409737e+01 2 0 4
566 2 8.7894681642145294e+00 1.1998210214522590e+01 1.2397873026741253e+01 -2 0 -2
997 1 4.7219068965589734e+00 7.5614672221004113e+00 1.0828780392772982e+01 1 0 2
497 2 1.3647214501768243e+01 5.6731598217891426e+00 6.4024097596210829e+00 -3 0 1