LAMMPS data file via write_data, version 8 Apr 2021, timestep = 1765000

1008 atoms
2 atom types

0.04361458560768303 20.628912071627337 xlo xhi
0.04361458560768303 20.628912071627337 ylo yhi
0.04361458560768303 20.628912071627337 zlo zhi
0 0 0 xy xz yz

Masses

1 16
2 2

Atoms # atomic

834 2 3.1176833035701192 15.567877717850529 3.447292604520331 1 0 1
328 1 5.791100000494949 8.12485283458166 7.58591485699915 3 0 -1
869 2 3.705228487761556 6.285276918504819 6.437145345870355 -3 1 0
774 2 2.7186429249353896 2.5310856064791825 5.897001293728081 1 1 -1
677 2 6.176978437562621 11.838159315514465 0.42015367593882724 1 -1 2
382 1 2.604713258285971 5.660749904086506 2.0462092707248485 0 -1 1
668 2 10.26712577025354 20.181431587138192 7.452460428836627 -1 1 1
269 2 5.349994059961852 9.101298756719709 6.171898958709531 0 0 -3
365 2 2.5796129828173577 6.1936215352074155 4.055325890752423 2 1 1
95 2 7.502187440222284 9.197875404507773 2.644697560401411 3 -1 0
338 2 5.480697519207112 4.575898680811815 1.2442492755136332 -2 0 1
94 1 7.9465250582369125 9.139038801420318 1.7858864640398566 3 -1 0
175 1 9.731870184322945 9.847500302042196 9.340103374748296 1 1 3
433 1 7.434675997828337 8.766930080181195 4.590272093385943 -1 0 -1
891 2 7.609304530964089 13.370915966344374 9.724173421618444 0 -1 1
727 1 8.796855118030555 3.2546514719505546 5.06115592459828 0 -1 3
621 2 9.629283424087538 19.103491374848353 2.387734545934587 -1 0 -1
107 2 5.016531162380011 16.1593267200581 2.7952984777168117 2 1 3
728 2 8.28891929864846 3.261529855833211 5.844144111633869 0 -1 2
7 1 6.037668790628942 11.846922417344102 7.567619251093482 0 0 1
96 2 7.687006596738383 9.980307705101534 1.3851279892955566 3 -1 0
400 1 4.609445639722835 10.1554689468064 2.619788099314144 0 2 -3
366 2 2.396637203155146 7.192883557544819 5.191567828468329 2 1 1
330 2 5.231325773917657 7.343602664090157 7.339901237167225 3 0 0
655 1 1.24857840706599 7.9547375601162855 6.064777598104345 3 0 2
220 1 2.2330857817514604 7.439211185387158 8.93958106156077 -1 3 0
990 2 5.004357665096935 8.39532086586265 2.8115324315868975 2 -1 1
578 2 7.409214332059767 16.270503670440373 3.1572506036715215 0 -1 1
174 2 7.603605836403879 5.934899216234227 3.9810687359882944 1 1 0
698 2 2.9366588566856926 19.513518535544723 7.389414203480075 0 1 0
576 2 3.5397274173283337 8.99967275990546 9.800280129676175 -1 -1 0
9 2 6.513042864036922 11.507944568677122 8.380343564904894 0 0 1
564 2 5.831918592112874 20.431859282335456 7.350573384298441 -1 1 0
401 2 5.075530639597382 10.81673207323642 2.0434636557662427 0 2 -3
634 1 0.7011842120209744 9.349158978114387 8.78546971576586 0 0 2
843 2 8.085229826443591 19.564773371611757 8.125286480909198 -1 -1 -2
282 2 2.3410078728312835 19.44218131272109 9.653027051352955 0 1 0
619 1 10.000331367303197 19.671834603171124 1.7056601206781439 -1 0 -1
8 2 6.77089483510892 11.91170547288999 6.871501402136853 1 0 1
874 1 2.1414006570037376 16.833514088913553 6.900523996195675 2 1 4
649 1 10.184520849630507 0.9205313346294112 4.949595123262464 1 2 1
171 2 10.323138336195806 10.539246385407708 4.332802463877736 2 2 0
184 1 1.8938255362286691 1.9470042517005064 0.43178054506145536 2 0 1
173 2 6.217582362602726 6.672810021552564 3.8023627882503526 1 1 0
729 2 9.374141921339888 2.429369606496175 5.106630850004424 0 -1 3
147 2 8.260003105951718 13.375259640943927 6.115602611862121 4 -1 0
600 2 2.645054962165545 17.96291556380578 4.025517960826704 -1 -1 -2
383 2 1.6734343035624426 5.464710080540794 1.7718487647029417 0 -1 1
221 2 1.446028918516012 8.029889936501718 8.821744835210454 -1 3 0
279 2 0.4368749791001267 9.65853523029204 4.0682623493206815 2 2 -1
384 2 3.1967064034608934 4.94175148655948 1.7804134397515157 0 -1 1
876 2 2.0505260469753894 17.182342596465073 5.988049353082393 2 1 4
76 1 9.765334778821956 5.224939513552408 7.404313391904719 -1 -2 -1
101 2 3.614083708478579 6.607267901069488 0.6880022212635972 -3 -1 0
291 2 6.001316532480436 1.5391206787281766 7.818551094322044 2 1 2
371 2 2.920130009988131 15.566435025866607 0.18600817467270786 -1 -1 2
135 2 6.748835546025773 15.131426519490072 6.573159817177994 -3 -2 0
299 2 6.3446260930748375 3.3195461722329447 9.403068677240324 3 -2 -1
935 2 9.258994680032833 16.21310606275564 1.8805096037781985 1 0 -1
195 2 1.4575873246421174 12.295910360125832 1.0626499697042644 1 1 0
685 1 2.275358511551336 18.63064055030956 1.5620732740901804 -2 -2 -2
735 2 10.330729433027255 12.301124478008697 3.2275424119467515 0 0 0
575 2 4.975855051175657 9.380986701669148 10.140320897079645 -1 -1 0
832 1 3.909723253513885 15.035689787786339 3.445388660867299 1 0 1
108 2 5.658665309390142 17.441363188095746 2.133088553464629 2 0 3
993 2 1.1207923049497222 5.904894339771386 6.739260234804473 0 2 0
785 2 5.49109989590218 19.694027134093016 1.609551066237131 0 -1 0
557 2 6.270610209133233 19.410300049933248 9.732881744119902 2 -1 2
998 2 8.608670763266694 15.470176326116349 5.031771229281455 0 0 1
929 2 0.9498999041907193 15.337711193184072 1.01277807000637 2 -1 0
997 1 8.50117318857995 15.197347509887273 5.950828141365403 0 0 1
86 2 9.093244700808759 0.9006697923780752 1.5449017252101718 2 -1 -2
573 2 9.345051790466291 10.690752932738217 6.389887301043124 0 -1 2
89 2 6.211939914475502 15.471157927379942 1.6120071475742626 0 0 -2
270 2 5.3711425617385 10.6979991992437 6.075464648365724 0 0 -3
833 2 3.9269540697740717 14.632894604649946 4.3606235763004095 1 0 1
683 2 4.257833027168296 1.5003437684285215 2.337100427983741 0 3 -1
301 1 8.537561874954086 16.65008839607979 9.469242536553175 0 -3 -1
786 2 5.776994341452782 18.65136342068903 0.43831378228443535 0 -1 0
448 1 3.9207448258425885 13.641166952612025 5.618885288995825 -1 -1 1
4 1 8.36370432899157 7.8683386033202085 8.30924354336676 -2 -1 0
783 2 3.51453470511728 10.168738898168456 6.60165109057613 -1 0 1
657 2 0.2690004025622422 8.033307416030953 6.027131706123885 2 0 2
676 1 6.633766538287934 11.330492032664955 1.0933753395195314 1 -1 2
213 2 9.915254312280906 19.650805754065583 10.09639824243659 1 0 -3
947 2 0.8106351313317338 14.073217932395128 7.210334810168609 3 1 1
682 1 4.926130986351408 0.7745999889188605 2.347724795025076 0 3 -1
948 2 1.9777593568122906 13.377630163637543 7.783736237433453 3 1 1
129 2 4.374051899236658 16.426766336839027 8.691530507571086 0 -2 -1
250 1 3.762056032273899 12.65949312211825 9.063513081610997 3 0 2
117 2 9.49534225243644 8.402544569472328 1.4491646009932284 -1 -3 0
988 1 5.093873224754243 7.461352618683113 2.937800556932667 2 0 1
875 2 2.0047445534028454 15.859874903676092 6.84340506959825 2 1 3
684 2 4.542446884347646 0.22816602212643797 3.1079943092058864 0 3 -1
87 2 8.385275581885494 1.4359859193761322 0.2623190617381044 2 -1 -2
991 1 0.8216266667749854 5.023963687120819 6.585350622406359 1 2 0
699 2 1.8390995827483474 19.288184945382273 6.383075660386114 -1 1 0
360 2 8.22563876245541 18.641770709377028 4.854703608601734 0 1 0
198 2 3.3797722190769797 19.509419013861358 4.762134031288969 -2 0 1
128 2 3.586419322062914 17.065805897565145 7.53171739799191 0 -2 -1
970 1 1.9935446098098915 12.574830963493982 3.939654591499131 2 -1 0
887 2 0.8868431365547143 13.970662975136939 4.22041824739973 -1 -1 -1
635 2 0.3362181379211382 9.843937778303669 9.544291840497001 0 0 2
53 2 1.7142267650593899 7.481888834985542 2.131936357071677 2 0 2
88 1 6.420227071695623 14.63097048208733 1.1353040064226319 0 0 -2
186 2 1.604423159086304 1.8836003858318204 1.3844780212689805 2 0 1
403 1 1.5472989349632256 15.607879573945919 10.119212170580102 -3 -1 0
890 2 6.601857411602502 14.13675277264229 8.672016380663548 0 -1 1
750 2 6.52407634400593 19.350860001525483 6.030259543982074 1 2 3
809 2 6.405420618282699 1.3098486763418165 3.356159114022106 1 2 1
886 1 0.20708997438572369 14.635248867263023 4.067290491925838 -1 -1 -1
805 1 5.541454375036645 5.0084948450684275 9.149792803435059 1 0 1
934 1 9.773407499979598 16.168735842589477 1.0582337222464249 1 0 -1
434 2 7.278915572671208 7.8227261656301215 4.788266816024218 -1 0 -1
268 1 5.1756656157806775 9.906628306774744 5.570711127635664 0 0 -3
714 2 1.7928262056121436 2.4081000178279988 3.781887839795625 0 0 2
165 2 0.9351246892770798 3.030580177116664 9.443028277587045 0 0 1
280 1 3.2005432307544064 19.591456343791613 9.100181591780704 0 1 0
54 2 1.453069295384086 8.83405434668046 1.6847550629489707 2 0 2
922 1 9.923650914053917 2.617704988649945 8.576057876657885 0 2 2
134 2 5.459704217100776 15.857951638267613 7.0440275872020415 -2 -2 0
748 1 6.475243735280029 19.249881807591006 5.053115831987429 1 2 3
281 2 3.718441241269847 18.782427864910296 9.204674260621186 0 1 0
329 2 5.226778044934017 8.573340955281093 8.318761875242734 3 0 -1
782 2 2.743869797105157 10.317351902642674 7.870540962358532 -1 0 1
123 2 8.415424925601505 10.54324724060665 9.81779767538933 0 1 -1
697 1 2.754682761336484 19.602311589498576 6.454712520403269 -1 1 0
889 1 7.327887728685066 14.234253099850557 9.348878405997471 0 -1 1
936 2 9.34597146872057 15.57120157115665 0.44085031566652055 1 0 -1
3 2 3.4219958856989923 13.366180545466094 0.3012132074635831 1 0 1
133 1 5.795794173586507 14.985917261965218 6.870068494804074 -2 -2 0
807 2 4.787862709726389 5.208911378333698 8.56530592949314 0 0 1
686 2 2.437800444385619 17.694520748202006 1.2846838783323646 -2 -2 -2
571 1 9.76025530361992 9.889048107679818 6.0178664790438186 0 -1 2
85 1 9.150871711190858 1.6171259922287176 0.835805212531204 2 -1 -2
298 1 6.481114323599489 2.3652075681121514 9.23674974502308 3 -2 -1
358 1 8.970944907341503 18.737835937675346 4.220243802868452 0 1 0
176 2 9.218012020314198 8.92228911425496 8.977035105160374 2 1 3
799 1 2.7356551223939354 1.6749485639856987 7.334654015415726 -1 2 -2
302 2 8.158793824302078 15.722872253855089 9.410740310682394 0 -3 -1
781 1 2.5993752721794006 10.12775904589475 6.931112436884091 -1 0 1
784 1 5.331994806678613 18.789667522184686 1.3090232888078333 0 -1 0
989 2 4.348463141597032 7.086711990836181 3.438011012912787 2 0 1
870 2 3.287140062600563 6.683673433124234 7.822042906248938 -3 1 0
568 1 7.035266044689288 5.070457317975682 0.30227219045392706 0 -1 2
339 2 4.596598862893466 3.39800294255725 0.7927227584686477 -2 0 1
939 2 9.268611769881003 3.3747826804190457 1.1718700852116102 1 3 1
66 2 5.015432835134952 1.5605780788042662 9.8691367796066 1 2 0
687 2 3.061877495645236 19.076286535705105 1.86198258194485 -2 -2 -2
146 2 7.76006903760412 12.588248612976184 4.995408203202676 4 -1 0
127 1 4.4131199459217205 17.22016474345085 8.07331217679192 0 -2 -1
808 1 7.268583665057563 1.2520118705955827 3.7977820198418377 1 2 1
773 2 3.19729751000565 3.506287252000662 4.725173199551187 1 1 -1
749 2 6.835819917943375 20.10745670262242 4.65599531417783 1 2 3
938 2 9.325976008577927 4.745877990993108 2.059000155494756 1 3 1
946 1 1.7558586014648159 14.159028289311198 7.290350371624775 3 1 1
65 2 4.150680877543375 0.32792858815909065 10.110774378077739 1 2 0
193 1 2.4144976278182844 12.129098656818424 1.2901309467760405 1 1 0
733 1 10.116407603492158 13.156773642282955 2.787114227429662 0 0 0
435 2 6.584996862618902 9.130843101874465 4.794665727719223 -1 0 0
337 1 4.636409791436213 4.0712349658984905 1.538090629181176 -2 0 1
806 2 5.52042554050655 5.6517019023709745 9.854719081257008 1 0 1
810 2 7.604214393658115 2.138537393769633 4.093558970627418 1 2 1
707 2 5.535293468721809 4.6182779858584775 4.338660333268115 0 0 0
563 2 5.610282943963949 18.816361075792397 7.879409357876055 -1 1 0
599 2 1.1455496945853794 17.49179150697834 4.241242635164572 -1 -1 -2
882 2 8.516317976290978 13.051647217562694 2.8405917447351405 -3 -1 -1
449 2 3.263408037350389 14.018933948349408 6.230336239854424 -1 -1 1
788 2 2.8940763700348713 10.07833398282215 0.8014253069974693 0 0 -2
972 2 2.8898900415725493 12.836242792408306 4.333837473243919 2 -1 0
77 2 8.861801622350399 5.301198415989171 6.935016456208324 -1 -2 -1
842 2 8.775768453551064 18.40077970057478 8.869696641480497 -1 -1 -2
290 2 6.2281139894637425 1.5402441642860618 6.321967628175397 2 1 2
187 1 0.5756458901923376 19.95729726327937 3.4303372648903983 0 -1 1
52 1 1.0877250920591726 8.139070687900979 2.2554141674049273 2 0 2
800 2 2.4683383216492025 0.7403231726497022 7.3120254497215855 -1 2 -2
196 1 3.9687691354491927 19.341350110226255 3.996212713469761 -2 0 1
577 1 8.359422413633903 16.206992585143627 3.4052413040948277 0 -1 1
706 1 4.977137341131881 3.825790670524626 4.177745393606967 0 0 1
300 2 7.433282349160949 2.035497190965326 9.47773100665432 3 -2 -1
197 2 4.7781389830928545 19.125874108931338 4.4209295792543175 -2 0 1
402 2 4.420662560968387 10.516381274798022 3.528186867382916 0 1 -3
636 2 0.3096154114567185 9.716035257973726 7.942209278376576 0 0 2
163 1 0.6593341257503138 3.9371792008276714 9.179109105334943 0 0 1
364 1 3.11549288576167 6.633339725436412 4.758930887526981 2 1 1
598 1 2.0642774512891466 17.238014162214608 4.353025179635276 -1 -1 -2
506 2 6.508487528224589 4.863702799827147 7.490110997125178 -1 2 0
450 2 4.794572397378486 13.935308348332452 5.97545975890978 -1 -1 1
713 2 0.9183347947500486 1.0702910406925001 3.3069453607404333 0 0 2
6 2 7.37894836880155 7.952708687794907 8.209521423260668 -2 -1 0
712 1 1.2801468102448814 1.9556891272872545 3.0412277767595715 0 0 2
678 2 6.899038689731557 12.001893223096447 1.7515928375073306 1 -1 2
370 1 2.1457774915282943 16.253888410171044 0.34915221853341505 -1 -1 2
937 1 9.465835479190833 4.386299474682035 1.1222744163693674 1 3 1
579 2 8.632856070381367 17.181628016288233 3.601194282858144 0 -1 1
188 2 1.115633518235757 19.285144024691764 2.9380065495209093 0 -1 1
508 1 9.133544177458315 5.268113043425216 3.533869616204799 2 2 3
572 2 9.035174020667176 9.346428427699946 5.661501960504706 0 -1 2
992 2 1.4726109607055646 4.547098607883235 6.053907055543537 1 2 0
656 2 1.649820266631077 8.786736689867592 6.403195073613159 3 0 2
868 1 4.018375069426531 6.219635558870065 7.338448502594853 -3 1 0
841 1 8.918608830746965 19.26997034237396 8.507399287362636 -1 -1 -2
172 1 6.721420966978523 6.010943545197261 4.373173613287417 1 1 0
405 2 1.4443224251308642 15.560670212748919 9.131056777511208 -3 -1 0
289 1 5.624921754377709 1.2034087168645726 6.939596555696871 2 1 2
765 2 4.0436788560646715 14.348928286215031 9.405018870184728 4 -1 1
5 2 8.486641233158318 7.157513119046833 8.934111585564942 -2 -1 0
787 1 2.573354384520483 9.305949643532992 0.31947602946668935 0 0 -2
303 2 9.493627883295083 16.569395188623574 9.172167267404244 -1 -3 -1
971 2 1.7957909271212127 11.72159401023031 4.386253524412496 2 -1 0
880 1 7.571769875737664 12.877274499289202 3.0705382304486526 -3 -1 -1
507 2 6.819691380253265 5.421875639293971 6.160737931998905 -1 2 0
569 2 7.962990580054782 4.826898745274106 0.5267941676335921 0 -1 2
801 2 3.722432149412715 1.6119869970005816 7.430741371281062 -1 2 -2
2 2 4.521678800295284 14.367291748381401 0.3905861884837344 1 0 1
510 2 9.152078719779508 4.639948132328565 4.283379158226444 2 2 3
763 1 4.156467976215301 15.250711337535558 9.861413982063812 4 -1 1
106 1 5.866135514895012 16.55176009095052 2.5517532003826076 2 0 3
562 1 6.154063855909852 19.611938123003164 7.85640449325301 -1 1 0
708 2 4.913511681373701 3.603600294697587 3.24647247920383 0 0 1
222 2 2.0645064913697135 6.770933057038566 9.606086934663358 -1 3 0
505 1 7.182447565932935 4.805698980399475 6.817804748263712 -1 2 0
772 1 2.411307299159588 3.1496006349922596 5.133244181188316 1 1 -1
344 2 6.862820761271582 8.155603536183564 0.598833041941506 1 2 0
574 1 4.357816451197914 9.304847318939489 9.424518422430916 -1 -1 0
194 2 2.329392845888328 12.271090621673531 2.2507930604044053 2 1 0
509 2 9.78400494061488 6.008636331357514 3.6959768644905004 2 2 3
359 2 9.798632523010747 18.537906707164836 4.727371801439192 0 1 0
923 2 10.065041945203475 2.6278996346343053 9.52031764242575 0 2 2
181 1 0.113155336000063 19.381900591957503 6.3136931696125265 -1 0 1
924 2 9.748376875555536 3.6169684566970517 8.50460427227615 0 2 2
251 2 3.7840494282314143 12.393676260212443 9.978097078296383 3 0 2
252 2 4.538350070669036 12.41293444698246 8.524806355784586 3 0 2
164 2 0.9461890058561896 4.069476414377569 8.266497422712716 0 0 1
881 2 7.135156971064458 13.68180999550071 2.829683874504982 -3 -1 -1
145 1 8.163415451375867 12.412749191914735 5.858821919827544 4 -1 0
764 2 3.259344457772148 15.50725540400584 10.213648663775869 4 -1 1
650 2 9.635590078922412 0.23236606041769636 4.550414338921552 1 2 1
277 1 0.1122429252869708 10.56164968231291 4.300833239548677 2 2 -1
905 2 2.3308034298932174 1.4362908337453781 9.999723048168898 0 0 -1
620 2 9.668801538500245 19.349984710898244 0.8739141269887708 -1 0 -1
789 2 3.259424841249292 8.572166753227922 0.34793502798284376 0 0 -2
999 2 9.379503705749238 15.431387634044716 6.35958727923884 0 0 1
121 1 7.728055490941876 11.354147743690962 9.920669924292627 0 1 -1
90 2 7.029984873521231 14.88859274908024 0.4099461203116021 0 0 -2
79 1 10.139777291742915 12.219405322782672 0.11089635776411828 -3 -1 -1
975 2 1.8225447001748971 4.731150038952099 10.284688480148702 -1 -2 0
734 2 10.205458311892599 13.060714809093515 1.8097324535743073 0 0 0
977 2 0.31200573934354064 6.325545365335811 8.7826176089415 -1 -1 1
928 1 0.13286860731703054 14.86145706074948 1.2784380363663328 2 -1 0
930 2 0.24961797231353483 14.451644178468738 2.1681630786384742 2 -1 0
463 1 0.2526427970268011 5.302638892617356 1.138930757556163 1 1 -1
177 2 10.197800830252518 9.510415437004236 10.127898351533881 1 1 3
185 2 1.5142671990111765 1.1189450492307018 0.0735017063361982 2 0 1
601 1 0.12510707464699775 13.297398126927442 11.16905350856152 4 -3 1
451 1 5.375213689218441 10.348141322846587 14.285111378907356 -4 0 -2
151 1 2.448942858026433 9.63228176603078 12.564213159455655 2 1 0
759 2 4.511361506580359 6.983945473613053 11.927516699941723 -2 3 -1
343 1 6.5887992188308395 7.5646702852405605 20.39233212316404 0 2 -1
346 1 6.002439411636678 11.434246763286485 18.8936963846144 -2 2 -1
325 1 8.884259927341022 6.2250904468929695 10.397802000521995 1 0 -1
1000 1 6.271251944865594 8.322634318298558 17.781385055957006 0 0 0
679 1 7.872188811289545 12.491518726145229 14.52201830243021 -1 -1 -1
167 2 0.2698966485706661 2.6483228065672093 17.769746633740745 0 -1 -2
914 2 9.131804140258422 1.0265303039323763 14.66856106018211 0 2 1
452 2 6.222249053399612 10.442584412760297 14.61124355196645 -4 0 -2
512 2 6.81516072647045 4.804930121391897 17.73304255737145 3 3 0
425 2 2.356471762864204 6.405450490120979 13.3351665313929 0 -1 2
372 2 1.9564012347704411 16.67661296954876 20.029715440007738 -1 -1 1
689 2 9.024925881213543 10.728096120541004 13.422515648764943 2 0 0
710 2 7.136265589012248 8.026971865701096 14.838678902698945 0 0 0
866 2 3.5246714724860246 5.809285871027855 16.808957829350955 2 3 3
628 1 2.5984518956527207 20.52702810915342 13.360742349056844 -1 2 0
373 1 8.17323745934248 14.47778965685111 19.7042904328428 1 3 1
231 2 5.0580360439952 19.13150546412299 15.053395850171874 2 1 0
21 2 3.3577330972814288 2.062196489295416 17.092740771212323 -3 0 -2
10 1 3.9158214099178776 5.10551455267022 18.57423240195436 -1 1 -1
511 1 6.469736891771388 4.257511513079168 18.423040815120377 2 3 0
375 2 8.73879884007086 13.660065956883491 19.73885422344386 1 3 1
424 1 2.6134844104281307 6.99223062160303 12.581213112478299 0 -1 2
472 1 7.31698593021495 1.7986597108185822 19.42683424506361 0 1 0
525 2 3.431020489267207 12.413642269670332 12.279907139923374 -1 0 0
153 2 2.66561484544301 8.673814515712962 12.62460576711621 1 1 0
229 1 5.811660959042941 19.621329927400343 15.426884486203168 2 1 0
835 1 5.458234523920897 5.012539686793031 14.360320681599559 0 -1 -1
821 2 0.7911430668807214 8.773465888160649 17.35905427119033 0 -2 0
407 2 8.524791218892606 19.511601116024632 17.33261422226368 0 2 0
739 1 1.484137047065094 14.354180851538493 16.914817694468432 0 -1 0
523 1 4.028288532873814 11.724450384514512 11.986436839936795 -1 0 0
831 2 3.7291342996323364 9.408795311588394 16.9715827186172 -2 -2 0
481 1 1.0501801404968367 20.038141403761838 20.014663375392253 2 -1 -2
521 2 1.4452949007665725 4.23735924068722 13.786906552714097 0 -2 0
829 1 3.964727333428946 8.781540410347837 16.29116401744509 -2 -2 0
412 1 5.894514724693212 2.456156029371253 14.816875788902397 0 1 1
836 2 6.206312059776493 5.672198357059852 14.36997657091023 0 -1 -1
283 1 7.994406904045084 17.06078591857727 11.986080148377821 -2 0 -2
272 2 5.8525714886359745 12.390615686935984 12.415819472675313 0 0 0
190 1 6.67506610893305 13.271384281032052 16.899297396911177 1 -1 -1
745 1 4.139382795354226 14.3904047789426 17.694879396804563 1 -1 0
413 2 5.780556151455835 3.3953769952253943 14.60417368423292 0 1 1
591 2 8.949199473962423 8.584960633249676 12.53162696788913 2 0 0
136 1 9.387221088722125 16.412041821716937 14.1011328506205 1 -1 1
844 1 10.325299100376903 6.6735181991847154 16.78321502787278 0 1 1
688 1 9.820252148042973 10.32663174945153 13.07971057317657 2 0 0
531 2 0.3814140097568331 18.16143499111823 14.962557468833257 0 0 2
853 1 8.296283251311465 9.23591090328971 15.801613494276928 0 0 1
515 2 3.2599739631972517 19.84281150430856 17.969640182383294 0 2 1
230 2 6.51075822311611 19.356617576624863 14.740264979649682 2 1 0
44 2 7.6600063616047525 17.637573884153134 16.019895803386593 1 -1 -1
670 1 1.4748339370974337 10.91815566315697 14.93389536760261 0 -3 0
855 2 7.7190053965936665 9.389454934460305 16.579075864404228 0 0 1
522 2 2.0761843179848984 5.083345948465733 15.038723336195478 0 -2 0
672 2 1.2441679004358204 10.318876723689058 15.703465760444466 0 -3 0
374 2 8.1698324021488 14.79698758063214 18.812082171332 1 3 1
981 2 10.162307912274422 12.62498074476131 10.873350260072858 0 2 2
590 2 8.54740530877691 7.298236285574779 11.56939113417111 2 0 0
520 1 1.3808965352546683 5.05615166531095 14.346942030701381 0 -2 0
19 1 4.222357788877856 2.122661555381055 17.45337251218987 -3 0 -2
430 1 5.898660860096842 15.483897266622751 11.864674643137526 -1 -1 0
780 2 9.472195727715329 4.602707415080782 16.633433984482497 1 1 -1
820 1 0.39621401962573005 9.51704749122393 16.814368880444295 0 -2 0
43 1 8.489036642772982 17.739552008143004 16.45206073312099 1 -1 -1
959 2 7.521073256488 6.2775864037674545 16.061361493356454 2 1 0
396 2 5.295654725674615 19.786909487447616 17.222096332600916 0 -1 1
431 2 5.218686074319557 15.480489736848904 11.159123107037207 -1 -1 0
778 1 9.523329880249571 3.967590307023421 15.93272177596823 1 1 -1
432 2 6.588184642543751 16.12261646441685 11.824363728018145 -1 -1 0
681 2 8.705574037939446 12.948994546477456 14.435192218348142 -1 -1 -1
130 1 4.538134211651444 1.9821102326906184 20.14626418157678 0 0 -3
348 2 6.166734300236762 12.017701974906938 18.125403414707083 -2 2 -1
863 2 10.043573281943024 11.262653848766774 17.387908074962127 1 0 1
324 2 0.5933429817362139 11.167067070585517 17.954446148209676 0 -1 -3
295 1 4.433046454882933 3.862935286210814 12.11270944888093 0 1 0
499 1 1.5832482669642098 3.273221851223469 18.75759183490669 -2 1 -3
645 2 4.065818880594823 17.951526029429694 13.017734321935297 3 -1 1
216 2 8.738016115863264 10.04974353859619 19.081581415978583 1 -1 -1
99 2 8.266530179309559 0.9241632125299852 16.528126060692497 2 -2 0
191 2 6.862440052134107 12.932393164144875 15.999606133408204 1 -1 -1
296 2 5.239791530867045 3.589242165224163 11.643249141013326 0 1 0
602 2 0.9142288797066395 13.515674722158938 10.672067203087833 4 -3 1
548 2 5.434197226723636 17.516238431270143 18.40790088906342 -2 1 -2
513 2 5.493810682835258 4.347162646539087 18.375500732186854 2 3 0
305 2 5.182020320564893 1.171760380986789 11.847892474084944 -1 -1 0
126 2 3.2055940389094824 2.9555603728566053 12.619607532021272 1 0 -1
549 2 4.381431212718547 17.219068650412883 17.287082240463654 -2 1 -2
81 2 9.352694611667854 11.882819286617769 20.18031691637445 -3 -1 -2
1 1 3.725702439249715 14.2013288823965 20.489380923575613 1 0 0
915 2 10.144636523462053 0.8064781741171316 13.493693101545988 0 2 1
584 2 3.8915431705007033 13.834522019509436 14.169912810943067 2 0 2
631 1 3.597766065321232 12.316859386687259 15.38249282758175 0 1 1
214 1 8.647914105492946 11.020467718494343 18.93163259966645 1 -1 -1
57 2 8.388398472954947 14.494967850404823 16.451357945726077 -2 0 1
719 2 6.859100778553865 8.838004347690097 11.706652579690992 -1 0 -3
830 2 4.432826609982881 9.30277475567137 15.676523575682323 -2 -2 0
532 1 6.206950731019628 16.339309103119326 15.308115839975798 -4 0 3
56 2 9.743635875948371 14.597789823437664 17.35134055594181 -2 0 1
883 1 9.136294855787533 8.37551362647168 18.977032908214415 -1 2 2
285 2 8.196495772000548 16.85668990565257 10.976002441099183 -2 0 -2
747 2 4.458585671533927 15.302012797941517 17.83306534054297 1 -1 0
45 2 8.657953152562175 16.82393354946893 16.84170037945909 1 -1 -1
139 1 1.9717758897910356 1.1139976787461565 15.842667629884748 1 -1 0
516 2 1.7810858889106487 19.946129302654196 18.626281861623852 0 2 1
255 2 8.334605535804025 19.82290985194751 13.691700048594006 0 -2 0
347 2 5.11309529826115 11.06454836889779 18.723575703117447 -2 2 -1
137 2 8.575569407846924 16.430147053172764 13.498220876034772 1 -1 1
671 2 0.7460704679259709 11.319623817318544 14.453745473365785 0 -3 0
215 2 7.67766450555645 11.146305134978245 18.97332485843624 1 -1 -1
284 2 7.892386492797813 18.037308703524154 12.199136923750576 -2 0 -2
11 2 3.7052518076126804 5.8227264321967604 19.186774537455143 -1 1 -1
304 1 6.05387941097723 0.9951253094048528 12.319694846544131 -1 -1 0
974 2 3.1548815284511917 4.727666434991853 11.130076766963805 0 -2 0
603 2 0.1951862897631237 12.295338437507079 11.15155707309976 4 -3 1
854 2 9.03867735847821 9.857201589605618 15.950138301273487 0 0 1
850 1 8.42733216912197 1.4948437759474194 11.198140437695734 0 1 1
878 2 0.8670666965132028 17.63118551559034 17.871487480109927 2 1 1
757 1 5.284951403485119 6.6444646798480385 11.38789083101507 -2 3 -1
410 2 3.3336004349403927 10.194470999701181 19.22168300634886 1 1 -2
630 2 3.355187226678686 19.942780755624675 13.173540464210843 -1 2 0
641 2 9.879819040473246 14.640891684284973 13.781457946048063 2 1 -2
556 1 6.196395568115647 18.911328961996308 10.530669223136252 2 -1 2
547 1 5.022323793240309 16.812628285788296 17.90010100790531 -2 1 -2
720 2 5.553138645906988 9.634731283711432 12.293715609107124 -1 0 -3
323 2 0.7828967097696236 11.987723358708012 19.28693932613766 0 -1 -3
72 2 2.1940890905085446 7.585464636668305 19.16688878091568 1 -3 0
140 2 2.2477120550476117 0.5079762272109513 15.145878247428202 1 -1 0
589 1 8.24278029601126 8.019009192519444 12.245522261250857 2 0 0
64 1 4.247911383616482 1.2612831104178546 10.389940505754211 1 2 0
711 2 7.324292617151575 7.217711229247644 13.597666457954599 0 0 0
746 2 3.9673091150604307 14.043194439404772 18.588581641340394 1 -1 0
273 2 6.482322538047781 13.64412823782171 11.896335143950962 0 0 0
297 2 4.782840878762329 4.599714158401365 12.789141650889288 0 1 0
326 2 9.6466759247489 5.652422510778646 10.42415094536524 1 0 -1
406 1 8.575868873499347 20.39211029926943 17.766517448284088 0 2 0
851 2 7.593191330124986 1.2700203843351152 11.672333435684166 0 1 1
141 2 1.9785715050504247 0.512142011810816 16.58699251356919 1 -1 0
125 2 2.2218464998174126 1.919558713811072 13.264353949029378 1 0 -1
408 2 9.47057198763268 20.56710069620133 18.042036026332177 0 2 0
629 2 1.964447017671839 20.37776510346582 12.671029399779446 -1 2 0
388 1 3.307961143968724 17.620899750812768 16.0710543711856 1 0 0
265 1 7.480406652158617 4.059105358299604 11.518431445938257 1 2 1
240 2 0.716409374544371 14.437814198802851 15.674344335871298 -1 -1 1
20 2 4.206215677905391 2.389047810739985 18.40118391180131 -3 0 -2
392 2 9.529114253700353 17.329037031571144 20.228585548621428 2 0 -1
969 2 9.55472816516713 6.071721713767319 13.506675636670172 1 0 2
913 1 9.512273373668481 0.3598938883417646 14.101159409613066 0 2 1
1001 2 6.183488405329442 8.301619766687375 18.772536030995543 0 0 0
533 2 5.7032044748444015 16.404575154420254 16.15529031629762 -4 0 3
816 2 1.0651165950223078 10.27232102234526 11.48762999770688 0 -1 -1
779 2 8.904292815433742 3.152028464789825 16.03925755219132 1 1 -1
148 1 1.05028996989699 19.49710079458073 10.526967275222757 2 -1 -1
865 1 3.518610094422779 6.058466760163607 15.855448571361588 1 3 3
71 2 0.9085519101663971 6.943745847258021 18.633905315530242 1 -3 0
740 2 1.0832311962873036 13.518823624672384 17.34929392764699 0 -1 0
152 2 2.1444707213396854 9.863794132962717 13.480081937655186 2 1 0
524 2 3.5607133589893905 10.890087044280978 12.177613035746742 -1 0 0
473 2 7.483421699427048 1.2479051671328871 18.6369351558085 0 1 0
837 2 4.718797625273876 5.498145160821218 14.864572763853332 0 -1 -1
482 2 0.10544878082345602 19.79055825677242 19.955899312856307 2 -1 -2
271 1 6.735942042288691 12.740224628424658 12.160878087178007 0 0 0
585 2 4.56869624205021 14.749552700691716 13.273464041614641 2 0 2
55 1 8.914223003539263 15.015770246835208 17.12896372512558 -2 0 1
644 2 5.012090823592654 18.8894703683875 12.220220878158202 3 -1 0
565 1 2.9988456062486715 17.009770383609478 13.462383900529048 -1 -2 0
552 2 0.7034112336930427 7.414827308622387 11.938571304654232 -3 0 1
411 2 2.707901669639749 11.113177135669291 18.08378602404895 1 1 -2
414 2 5.21428010740667 2.277156949677918 15.488164940609927 0 1 2
266 2 8.005844604775747 3.2230915154547457 11.453255928890655 1 2 1
37 1 6.679463061732114 18.395177872633422 19.61275666589169 1 -1 -1
138 2 9.070798633155821 16.773343898129298 14.933777144780928 1 -1 1
390 2 3.168699074715459 17.221931543955197 15.1733634099427 1 0 0
718 1 5.988077900910895 9.257366242318986 11.522506433024054 -1 0 -3
632 2 3.5809234464499666 12.83539551796841 16.22095482867748 0 1 1
967 1 9.078106923234856 5.223594779869418 13.531535673824255 1 0 2
680 2 7.476215949760689 12.651206487120133 13.647131909385907 0 -1 -1
267 2 7.623553241715941 4.410770513907146 12.419467876962095 1 2 2
583 1 3.7253227694030038 14.389183643077429 13.379103904511023 2 0 2
70 1 1.4409925841928 7.730834502195961 18.548294014403403 1 -3 0