LAMMPS data file via write_data, version 8 Apr 2021, timestep = 21725000

576 atoms
2 atom types

0.11291986630293852 17.80708113369041 xlo xhi
-0.09208113369684408 17.60208013369132 ylo yhi
0.2579198663021121 17.952081133691113 zlo zhi

Masses

1 16
2 2

Atoms # atomic

66 2 1.5408715134326363 2.834876301371394 2.769996441557575 0 -3 5
385 1 3.1078439304061565 1.8878619397221388 2.530187273806593 0 -7 1
387 2 3.4390380593529413 2.2992503083130025 1.7563895038441537 0 -7 1
386 2 3.6715979558908978 2.3611261874280514 3.1986353910526 0 -7 1
64 1 0.5919407733125224 3.1198875919744538 2.907824572309856 0 -3 5
78 2 3.7570136057820327 0.1143994089716464 2.5374522758428535 -2 -6 4
322 1 4.890222754100591 3.0197490239695304 3.9939097675085073 2 5 3
33 2 7.502707442289606 1.8262337383496174 0.675419482114476 2 -1 3
323 2 5.636436258758503 2.7071908383704066 3.4221750300249747 2 5 3
565 1 7.252347581839544 2.7197328016520226 2.5125507872846224 0 2 0
567 2 7.728819605049558 2.081375618885034 3.1453512278394986 0 2 0
566 2 7.644039755331131 3.588453393243691 2.8161500601582077 0 2 0
163 1 8.355600315765933 0.9164943341050467 4.038037688316467 0 -3 3
164 2 8.153898836426137 -0.032553097739929024 4.203405946287898 0 -3 3
371 2 11.993340828127085 2.4092954262793502 2.8059701903765704 -4 0 1
539 2 9.946600743743442 1.1059661657931361 3.400156433654964 6 -1 7
538 1 10.922047429030748 1.1668219069378398 3.287060186363277 6 -1 7
370 1 12.625634254572574 3.077751747822746 2.4543686619919747 -4 0 1
372 2 12.116995982536192 3.735778450728937 1.9457496561683154 -4 0 1
293 2 13.277363680389886 3.7794943332701343 4.025806720949053 1 -3 -1
540 2 11.241620080496528 0.7517918316492862 4.074418376268269 6 -1 7
65 2 17.67297025821818 2.3530028092809476 2.8202702960671258 -1 -3 5
250 1 14.583547880348538 1.8874853504770834 1.1520861192014742 -1 -1 0
10 1 16.445299515620476 1.2160647523822044 2.976066311170911 1 0 3
12 2 16.183333763614986 0.9010629389353029 3.902122910187609 1 0 3
251 2 15.086033532409926 1.5784115651541932 1.8792881232259413 -1 -1 0
252 2 13.824890528625692 2.4275811246789116 1.5426134048716176 -1 -1 0
11 2 16.676253286706142 0.40307773952318593 2.5188388116415865 1 0 3
246 2 15.709594920339953 3.2011534670832025 0.2721742010797903 1 0 -4
276 2 0.9017760416565327 6.557869992859663 0.8227066325386861 7 3 1
275 2 2.4454734081423672 6.644024152786227 0.41093125382980156 7 3 1
358 1 4.128655709300356 5.882232188975249 0.8586310402483217 1 -2 3
360 2 4.077952771149303 5.775079894647436 1.8219022434568397 1 -2 3
359 2 3.972875781900295 5.006977063474511 0.44875666677296727 1 -2 3
254 2 3.690734026579482 6.061446307202574 4.297549036423948 2 1 3
274 1 1.6113315165181041 7.133922101142394 0.43479683229138844 7 3 1
253 1 4.248080147443054 5.630742790815994 3.5939738457366004 2 1 3
255 2 4.435948927367089 4.753843815749159 3.852307573250965 2 1 3
458 2 6.09114509324417 6.477761966153092 3.5386024520490182 -3 -4 0
168 2 8.247258214517533 5.5709158156359555 3.5727715930385586 1 -1 -1
457 1 7.024774927588451 6.831029504727005 3.5511706105010985 -3 -4 0
450 2 6.8441263876689105 8.165754187127034 2.689903088292946 0 4 7
166 1 8.827590923168044 4.823975690714316 3.2636860119253432 1 -1 -1
449 2 6.347083868667676 8.54362422997389 1.2190114262274316 0 4 7
459 2 7.06111188139142 7.20825209784914 4.465121109017498 -3 -4 0
190 1 10.88425372554312 8.457533906015934 1.8911397031785262 1 3 -1
537 2 9.271212609426824 5.890362266758931 1.8275488880182773 0 0 -7
167 2 9.346295820854367 4.456639128037655 4.014208295616699 1 -1 -1
535 1 9.632196602603498 6.254361029006425 0.9674717943732335 0 0 -7
192 2 10.289352527585908 7.724471958134003 1.6515277466833829 1 3 -1
191 2 11.705944644197796 8.008323984850602 1.7045669267972976 1 3 -1
536 2 10.43155633777887 5.69760207995452 0.6846806348257235 0 0 -7
529 1 13.142872679956469 7.397557903376735 1.3832278987141564 2 4 5
528 2 17.76870477377755 4.551125605596959 1.9289492696760724 -2 2 -1
526 1 17.518129054958912 5.3574237783497205 1.44863772433038 -2 2 -1
531 2 13.490520870000065 6.928944903417772 2.1308117875976538 2 4 5
410 2 13.962891798414626 5.679472265987404 4.032764066060364 -2 0 2
527 2 16.792797920322418 4.95628858361914 0.8525892671645254 -2 2 -1
380 2 17.086566940952945 6.311678798651315 3.0550214948330767 -1 0 -2
409 1 14.232441563599524 6.598665492190424 3.7595139401635587 -2 0 2
411 2 15.231942381641602 6.570124104847695 3.781640550038094 -2 0 2
379 1 16.876536312440425 6.9682913276988145 3.7732492397232433 -1 0 -2
248 2 13.459080929656121 7.915230197380049 4.494211284316194 0 3 4
81 2 17.2457018668781 8.645837187686338 3.780624427051475 1 6 -1
530 2 13.558345109940172 7.058311967571662 0.5309348017742982 2 4 5
381 2 17.472261173610896 6.727167810761631 4.49172884165784 -1 0 -2
48 2 1.8484055091905733 3.6101853378090203 8.343581323351897 2 0 -3
108 2 2.1928986686616696 1.6579122807991542 7.325088026462138 2 1 3
107 2 0.7530602017235599 2.295397758730566 6.8849634595890885 2 1 3
106 1 1.319039877158509 1.9267713469131937 7.646156460951023 2 1 3
377 2 0.676240987924156 0.825517415120857 8.671790270140459 3 0 2
504 2 4.111747336767922 0.589549879327444 6.335235672366067 3 4 1
502 1 4.000368902492477 1.1392527018330543 7.135878578229705 3 4 1
63 2 4.164206579935727 0.7128861662480795 8.77724649296384 -4 2 -2
399 2 0.35221013306444404 3.28189461805996 4.828879168294645 0 -3 -3
165 2 8.42886090987645 1.3877108134622165 4.899854902312927 0 -3 3
324 2 5.3146966908965645 2.992536912479708 4.9083256106151 2 5 3
503 2 4.620243824115373 1.903566949592543 6.984055996580605 3 4 1
368 2 6.934588093726257 2.4625266391447194 6.49098916121502 -4 -1 3
369 2 6.340917832462617 3.673758419020519 7.007280538950855 -4 -1 3
367 1 6.051924011934935 2.8809256739179863 6.502271244460752 -4 -1 3
556 1 8.382510978667712 1.8230475604674912 6.6758250699589645 -2 -2 1
562 1 8.595600149500319 0.15966877294425424 8.812487407698237 2 1 0
558 2 8.495927980130789 1.0695944376844737 7.2813735164206195 -2 -2 1
292 1 13.262094722666019 4.308132505274037 4.859759090312363 1 -3 -1
298 1 11.701532470306796 0.05948191766211154 5.797655629345183 1 5 -3
68 2 11.77541934760297 0.6019246742276055 9.009115487046918 0 -5 -3
69 2 11.547268220000065 2.0468864683419206 8.522805119171815 0 -5 -3
362 2 11.134934371805265 3.5007326634539315 5.504419669885144 -1 -2 0
557 2 9.154892723985379 2.355318715668554 6.582290200740395 -2 -2 1
67 1 11.8282910805275 1.1735503646136005 8.174282329447335 0 -5 -3
361 1 10.182312037294261 3.467069715940423 5.661037963593692 -1 -2 0
300 2 11.714785032537499 0.5508708671275561 6.6712668074871235 1 5 -3
363 2 10.128737027702476 4.160310352163573 6.327815718881918 -1 -2 0
259 1 15.994155436812077 0.2750874907067521 5.486180895486888 -7 1 1
397 1 17.734482475106674 3.650043723494372 5.696938312804228 -1 -3 -3
294 2 13.793390531630049 3.889671386392799 5.567752612719133 1 -3 -1
156 2 13.418882733226141 1.3512369315293904 7.804928655535115 -4 1 1
261 2 15.849804880954183 0.6383267139196626 6.380312811813171 -7 1 1
154 1 14.381120880847812 1.320785541829432 7.69628208963425 -4 1 1
160 1 15.251385426378812 3.6078465823821344 6.5239957944828655 2 0 -4
161 2 14.88686180193851 2.809452592384903 6.897817179861547 2 0 -4
162 2 16.12531961150654 3.48992384344436 6.0806152504541195 2 0 -4
155 2 14.817627221371726 1.827552424698952 8.399003203172313 -4 1 1
548 2 3.7182037014635494 7.416154691848757 8.806254296138562 2 -5 -2
398 2 0.3022716050086214 4.556771133005875 5.772187495869769 0 -3 -3
103 1 0.5048833140354766 6.238198350355609 5.942443465676347 1 2 -3
505 1 3.057665544006106 7.139927377889842 5.371959055665475 -2 -1 7
506 2 2.8688850293479207 8.03761320525476 5.050893894691672 -2 -1 7
507 2 3.5739996066517237 7.12717763452001 6.261446297806483 -2 -1 7
105 2 1.4513087536266707 6.399581408248374 6.056594533125763 1 2 -3
466 1 4.114762726070054 6.437797009719578 7.6062297123445735 -1 0 -2
467 2 3.481122876873698 5.72182810404796 7.879244767294832 -1 0 -2
46 1 2.265396433130638 4.423790034957054 8.609302175209516 2 0 -3
395 2 6.629225132928462 4.7005548015868 9.051553186445975 1 -4 2
468 2 4.992566065989145 6.068735645915322 7.880135840032592 -1 0 -2
394 1 6.420507105749761 5.009524335480042 8.164715774206007 1 -4 2
396 2 7.053459204817014 5.758427333662825 7.918697260873297 1 -4 2
136 1 8.097617759088909 6.955295839951139 8.167816052548899 3 2 0
152 2 7.6440344549027825 7.880200130492974 6.800600436957658 1 3 1
138 2 8.830298599701521 6.392711001876062 7.839519918220767 3 2 0
151 1 7.341273018296282 8.177083325648056 5.8768578288144875 1 3 1
137 2 8.550634790073461 7.471238290400521 8.833374687863307 3 2 0
247 1 13.28171753214282 8.578279439328668 5.224092402290735 0 3 4
38 2 10.17050057202356 4.503385306488185 8.125972493133775 5 5 0
39 2 10.80875518826029 5.820699601156103 7.515901008568663 5 5 0
316 1 12.276940765591544 6.863374320375944 7.30510279523573 4 -1 -2
317 2 13.103125891847299 6.473911384628542 7.5718553933233 4 -1 -2
37 1 9.94451405892251 5.3053132462282955 7.593258283444852 5 5 0
318 2 12.489717340199656 7.277137415996554 6.467140532198641 4 -1 -2
35 2 12.07121627640587 8.471450730489037 8.558183131410555 0 4 -4
342 2 17.228410858655234 6.828313137355748 8.820706321078116 0 -2 -4
519 2 14.768750963327738 4.863658335337286 7.683299839593329 -4 5 1
340 1 16.591202298483676 7.226179553806024 8.145879386780425 0 -2 -4
104 2 17.782779836955072 6.566704055175499 6.745642381552142 0 2 -3
517 1 14.553170279490379 5.623192855215011 8.232666622239753 -4 5 1
518 2 15.272877341322587 6.282657030024961 8.056717681098242 -4 5 1
341 2 16.62868800209222 8.15852124872548 8.373478467338593 0 -2 -4
569 2 3.648515661036442 3.530697981373208 9.670989293847716 1 -3 3
568 1 4.391783756854163 3.227268021374047 10.186765389541664 1 -3 3
570 2 4.3561162778662235 2.2074336338017995 10.218974673115099 1 -3 3
83 2 3.531318035574545 2.8182607321128716 12.06455299143206 -1 0 3
443 2 1.970831751873779 1.7567613506553676 13.13812605489875 -2 -5 5
442 1 1.2206810196180038 1.1318419068914323 13.30726919299474 -2 -5 5
82 1 3.4297220800908903 2.373952379947819 12.957309863214588 -1 0 3
61 1 4.382079451030506 0.6159755619976505 9.746692920367172 -4 2 -2
444 2 0.41938860109128384 1.6474593662202959 13.463486923533617 -2 -5 5
84 2 4.239687433074073 1.9717613262287692 13.324341418276381 -1 0 3
62 2 3.738715187061247 -0.07289391462540519 10.068481903109799 -4 2 -2
376 1 0.29204090605151944 0.16602518077598882 9.334375284255328 3 0 2
374 2 6.0110948009788165 3.6545616299738657 10.611650426376038 -3 5 -2
87 2 8.017992834964252 2.62462594615532 10.81306739896823 2 6 5
85 1 8.829270726461749 2.0612892106869483 10.67075608229891 2 6 5
373 1 6.930037768314075 4.07911993052576 10.62120751155193 -3 5 -2
564 2 8.544377823054466 0.72716929639329 9.633463602344449 2 1 0
490 1 11.776872517253171 0.11006061481112929 10.601751370550733 -1 2 -3
86 2 9.354148194302311 2.0299667453672856 11.483374946877902 2 6 5
480 2 10.012002139894879 3.0812012772041233 9.886775550740865 -4 -3 1
525 2 11.978408140504621 2.9529820797385486 12.446925069733265 2 1 0
523 1 12.151840788929416 2.0184406545824234 12.433796965994176 2 1 0
479 2 11.264453699586868 3.997130039429601 9.986864363097313 -4 -3 1
491 2 11.730261043064216 0.9143714510580081 11.181683612840246 -1 2 -3
524 2 12.313454510481627 1.791889085474516 13.383676056419358 2 1 0
478 1 10.718648258346747 3.499499326893278 9.347441354436015 -4 -3 1
270 2 13.933544763908092 1.9717888839030566 12.260649219616965 -1 2 1
268 1 14.817950066687947 1.5932481478550136 12.180208374577429 -1 2 1
269 2 15.084654114073974 1.6493468529220625 11.225950891813513 -1 2 1
572 2 16.520203563361974 2.747852188449505 10.09762200471233 0 3 -2
545 2 16.90109096318499 3.719805776991761 12.131310494074473 -1 0 5
544 1 16.859703646017497 3.889620550421398 11.15256822343917 -1 0 5
571 1 16.08647130038592 1.9383937824848672 9.619023881955332 0 3 -2
482 2 15.71540268782932 2.4330776841604203 13.337068087859809 -2 -1 -4
573 2 16.79666735118661 1.250403614308393 9.575939403352733 0 3 -2
389 2 14.484301724295106 -0.004896926175842128 13.007310484241447 5 -5 -1
547 1 3.411996249105084 7.965379647660683 9.571432881800304 2 -5 -2
18 2 4.062831927323722 7.642415141343245 11.21082215765384 -2 1 1
3 2 0.7465551550211661 7.020480063017828 10.562745291579057 -1 1 2
1 1 0.5349037358717735 6.328770713144949 9.946913813391243 -1 1 2
19 1 0.43628851489927345 8.491612682262637 11.315403918636644 5 0 0
516 2 3.533936752635448 7.13099925449236 13.457481449797793 5 -2 1
2 2 0.22611241107316588 5.565651650419198 10.457074509029164 -1 1 2
549 2 2.483783390253986 8.17746434009332 9.519470363133031 2 -5 -2
47 2 1.7143925613878503 4.904960181907702 9.187615227286381 2 0 -3
16 1 4.599161621854011 7.684054862376811 12.077064797251262 -2 1 1
375 2 6.945823727571095 4.784393507283911 11.320567153996885 -3 5 -2
309 2 5.966973348314088 6.67353507258552 12.310562344537368 -3 -1 -6
307 1 6.748444668747318 6.012898811518422 12.407234768820869 -3 -1 -6
560 2 8.059392695006562 6.995990391081656 12.53814657247387 2 0 -5
559 1 8.814263236088125 7.649998653965607 12.610697126512157 2 0 -5
561 2 8.661675498260744 8.160672023529804 13.409296179411122 2 0 -5
17 2 5.003356791509281 8.585770588236342 12.166619534469241 -2 1 1
308 2 6.581087405576628 5.5406193348736315 13.251887224384305 -3 -1 -6
403 1 12.094873206915826 4.448492360403032 11.357771151104219 5 -3 -9
404 2 13.02698650798185 4.7111285354757 11.321587445591634 5 -3 -9
405 2 11.701601382410908 5.066944165682055 12.033693514907585 5 -3 -9
135 2 10.110487276522539 6.473149384898329 13.024246285712563 3 -3 1
133 1 10.770052643465288 5.883843699248597 13.37777406714725 3 -3 1
477 2 9.010224854701317 8.423447251951316 10.960263332040785 -2 3 -1
546 2 16.062574779202066 4.410361787818419 11.071155269645754 -1 0 5
224 2 17.000474622437203 6.181083909171258 13.40798350865253 1 6 -4
74 2 16.74187856579753 7.726773523342199 11.618057298208438 -3 0 0
141 2 14.581470289885694 5.31931903168721 9.938424170934145 -4 5 -3
140 2 14.8838687078695 5.966262030988846 11.382002012008444 -4 5 -3
139 1 14.562055987614038 5.170133081957461 10.900709812058137 -4 5 -3
73 1 16.03139249302845 7.131001755186275 12.062794353863323 -3 0 0
75 2 15.329346265106688 7.796326352174605 12.46228988959541 -3 0 0
8 2 13.497236209433948 8.320777885306386 13.494349639142936 5 -2 -4
211 1 1.1677566088282243 0.7096134548394634 16.493785749438516 1 0 1
462 2 2.8142500522391622 3.635916646786389 17.37941031207333 -1 -1 -2
213 2 1.3124295559797796 1.6735830620151373 16.429456460586522 1 0 1
178 1 1.3206343074002587 3.478421846474893 16.45181923893999 0 -5 -2
180 2 1.5759678347038075 3.933194393872119 15.54860786564157 0 -5 -2
461 2 4.297536756721444 2.9114673285578094 17.29555640330897 -1 -1 -2
179 2 0.46536908785278686 3.799093681637877 16.71450341722695 0 -5 -2
510 2 2.789758592765888 4.173238727335099 13.738006494698313 2 3 2
460 1 3.638399205961137 3.3510320169661356 17.881260930803908 -1 -1 -2
212 2 0.38708189434653884 0.5869732407052818 15.956894905387694 1 0 1
176 2 0.20064815133095243 -0.007044223604146249 17.86530384528984 0 -1 4
30 2 8.511687100236895 0.9029349700153376 13.612783257460807 1 3 -6
31 1 7.596304756044432 1.3080742114696324 17.539297073377746 2 -1 2
343 1 5.139309628358179 0.6330488727627407 14.42418187426015 -2 3 -3
344 2 5.944036111293072 0.3874651343318924 13.99662979725507 -2 3 -3
357 2 6.423074503830997 2.325261085071762 16.6467857298298 -7 -2 -3
355 1 5.625081613106574 2.7475607903813977 16.20283888543637 -7 -2 -3
356 2 5.264621739626043 1.9523903986878657 15.688969035996418 -7 -2 -3
453 2 6.542632892815143 3.9323833739575615 15.202419774825806 -3 2 -3
32 2 7.304989743539547 0.42357395588441044 17.93673290357502 2 -1 2
28 1 9.356246191337489 1.3766380263922935 13.563305661391949 1 3 -6
29 2 10.011554637428283 0.6796025850957408 13.791473514588429 1 3 -6
402 2 9.192798511407569 3.027383520032464 14.32948801492938 4 2 4
56 2 9.0921040261501 0.7561519795610667 17.056175725981305 1 2 -6
400 1 9.414091642052563 3.94813669383028 14.70384317614798 4 2 4
95 2 10.707564228194022 1.9315775437076481 16.443156695658075 -2 -3 -3
96 2 10.521729519116523 3.354492233011128 15.786629750383947 -2 -3 -3
94 1 11.229587673229963 2.7652609588081947 16.16865356159659 -2 -3 -3
240 2 12.763703702059583 2.7000447491828377 15.434437627555395 0 -1 0
183 2 11.66541279779773 4.062599297878253 17.182734938490665 1 2 3
55 1 10.008168440825331 0.4296814754048714 16.841652282773588 1 2 -6
57 2 10.507097548780266 0.042376374701521294 17.654552280347232 1 2 -6
278 2 12.957912782544273 -0.0323329129433388 16.772629940268136 -1 -2 -3
481 1 16.513517137948917 2.756493592567626 13.857955633477893 -2 -1 -4
277 1 13.877287612576042 0.28180762566289663 16.68137322130494 -1 -2 -3
238 1 13.481046665697944 2.4226107505173986 14.8162282941988 0 -1 0
239 2 13.717363389753249 1.5724197370278363 15.17927617298046 0 -1 0
245 2 15.782772516913662 4.242444277917489 16.775511737356343 1 0 -5
279 2 14.111064353818417 0.6144838080340211 17.597273321375408 -1 -2 -3
244 1 16.263743816813907 3.809258699524452 17.49872027500081 1 0 -5
483 2 16.57424351086566 2.109243440673405 14.594570627674225 -2 -1 -4
257 2 14.488752508572825 3.9442502832995485 15.064643745710535 6 2 1
329 2 15.667043940726206 0.3500438667516443 15.987574082720009 -3 1 0
328 1 16.50082161744077 0.3089936944861188 15.400204055699295 -3 1 0
225 2 0.5241947396145502 5.308231936392954 13.99321287836542 2 6 -4
132 2 0.6139921365542408 7.661756478323472 16.566470640089104 2 -2 0
508 1 2.202467523336761 4.748367929015861 14.240530527514222 2 3 2
509 2 2.513431506810552 5.706995584151375 14.307973451834348 2 3 2
514 1 3.057242137620927 7.180063104468539 14.300413563300642 5 -2 1
515 2 3.5932110385495477 7.820498087468683 14.94431107406741 5 -2 1
392 2 0.8401770363606268 8.72914171779294 14.4791328179639 5 1 9
412 1 5.8827513605305635 7.649932280908699 17.56398427924938 4 2 -3
413 2 5.299834958761712 6.889617855450103 17.80171618260906 4 2 -3
401 2 8.544253550529517 4.4195502545547924 14.76529851779275 4 2 4
451 1 6.951955089079158 4.766902073150977 14.818813346874958 -3 2 -3
408 2 8.61565114019442 6.307601028191979 17.386049438338894 -1 4 3
414 2 5.282577805371184 8.061201429655076 16.86011001682412 4 2 -3
407 2 7.18204760659884 7.057600658255257 16.994560171697316 -1 4 3
406 1 7.990603819973924 6.497339074831798 16.61695785485359 -1 4 3
60 2 8.44626534199363 8.24632885141528 15.699073342819245 -2 -5 2
452 2 7.274696535192653 5.219222317720521 15.636648973173202 -3 2 -3
181 1 11.776584098768618 4.798746338657126 17.814630983557873 1 2 3
129 2 11.570191722801884 8.618900910553107 14.743267554634983 -1 5 -4
127 1 12.142489276701454 7.854448009680208 14.573580446727684 -1 5 -4
210 2 12.97817811237072 7.110301490834053 15.901815856062534 -3 -5 0
134 2 10.323337695743474 5.274045577154962 13.982008289594319 3 -3 1
182 2 12.38373802985962 5.360440152802408 17.271023163186918 1 2 3
128 2 11.63013134308131 7.111953712498432 14.20230908802878 -1 5 -4
258 2 15.790614874703996 4.841071338580981 14.840237811122305 6 2 1
256 1 14.99133996053216 4.773406317546036 15.37554122379694 6 2 1
223 1 17.44974512681615 5.928358274334415 14.187594940182446 1 6 -4
130 1 17.617056988522574 7.7911102122152105 15.889004286445324 1 -2 0
131 2 17.56149607294297 7.0421919783947855 15.335756190991745 1 -2 0
208 1 13.407835481008238 6.6176993816783325 16.63677297718299 -3 -5 0
209 2 14.042406077460587 6.010048065710326 16.166967790263364 -3 -5 0
142 1 3.595223074848122 11.698560770643478 1.4057020654106474 0 6 1
144 2 2.80398287373427 12.201799236112315 1.8427102051083588 0 6 1
143 2 4.083765777449128 11.339737510524063 2.2092066061510427 0 6 1
494 2 0.6549191367530441 12.561321173858971 2.7073931933486293 8 -2 1
493 1 1.5553526406924025 12.893585679037068 2.7579592049576904 8 -2 1
533 2 2.7653367866296517 10.567709035969067 0.5534161373617595 3 4 3
302 2 0.2859494185185364 11.655161886854879 0.5734999144149089 1 -3 3
80 2 0.6798289640554441 9.635008345061966 4.277836988639838 2 6 -1
470 2 3.1283755304795995 10.115659349754784 4.206957344910133 -2 3 -3
272 2 2.1542340459548464 12.657497462305447 4.6692665456628335 3 -6 1
346 1 4.785245192605953 10.398309523798982 3.3751695789398504 -2 0 -9
348 2 5.18676150985757 11.117759517829583 3.8507058969036043 -2 0 -9
347 2 5.430605156084286 9.951919936370167 2.7522404863721386 -2 0 -9
27 2 8.062459081038389 11.966578305615638 1.1726450594764222 1 -1 -1
351 2 8.231046730401875 9.902578628038965 2.098180903515704 -2 2 -1
350 2 8.933174907404926 11.212970975452635 2.8172470775498955 -2 2 -1
25 1 7.877676943422351 12.682222959783259 0.5106365695769778 1 -1 -1
448 1 6.674521897636865 8.918098433645959 2.0472306695191524 0 4 7
349 1 8.765132548504356 10.68547829163637 1.992829314557898 -2 2 -1
222 2 4.656169997429142 12.498342661578793 0.47923500702923244 10 -2 -4
118 1 8.658669060022273 12.396451325666678 4.0882441129876845 -3 1 -1
26 2 6.924070199132324 12.632128602706057 0.4068402446460518 1 -1 -1
71 2 11.356273258633856 11.054794881019355 3.2775545560756014 1 5 3
70 1 11.232830879750962 10.184146439230517 3.7536965788427836 1 5 3
72 2 10.87442075514051 9.486232818227903 3.0839554934476756 1 5 3
575 2 9.993201239418848 10.774557902719947 0.7767783908333609 -4 5 6
424 1 11.161152954823859 13.060910789130547 3.2813271202595837 -9 0 -1
425 2 11.000753243111436 13.116287010401761 2.3338957823149538 -9 0 -1
500 2 11.343688163714686 12.423600145545015 0.35798097766366604 -1 -1 2
120 2 9.544628328438877 12.83415538407811 4.357976694061145 -3 1 -1
576 2 11.311213043491776 9.975370221870666 0.7021595167754331 -4 5 6
574 1 10.834268430551171 10.72427551687012 0.32320719812414983 -4 5 6
79 1 17.4560175443077 9.610619734625747 4.082743713154748 1 6 -1
195 2 17.126424628234883 10.845251360277402 2.9409687450524378 -3 4 -1
171 2 13.996798652453814 11.939577688740297 3.248856346891753 4 0 0
193 1 17.00128905093431 11.606691048863134 2.3696555296058497 -3 4 -1
169 1 14.23590625314798 11.936184256540432 2.2826544004087435 4 0 0
194 2 15.987499692456131 11.599602233738725 2.2923266716490462 -3 4 -1
170 2 14.00615770392131 11.153701508011041 1.7566256233795114 4 0 0
366 2 13.567483255306303 8.978279294432907 1.0781400401845533 -1 0 1
364 1 13.64827135973838 9.893797042659683 0.685803345933069 -1 0 1
216 2 2.1208263975774098 16.187035154726996 2.5720934149343244 2 -3 1
214 1 1.3447874926226118 15.617869130975267 2.539866231726499 2 -3 1
76 1 3.8031643561793658 16.937582870856954 2.849316924059864 -2 -7 4
495 2 1.5154029644069318 13.891905101925053 2.6670862873791426 8 -2 1
215 2 0.8211958006300484 15.793175558552143 3.377181979510669 2 -3 1
77 2 4.292350857375874 16.37829971050184 2.146176128719336 -2 -7 4
177 2 0.14520390739792258 16.612861577242015 1.3259856280058369 0 -2 5
321 2 4.472879722072378 16.854150159232347 4.453377436880914 -1 -1 -8
44 2 4.4331091467869035 14.56244444324817 0.5682176748252257 -4 -1 5
43 1 4.433134409381319 15.51059093321127 0.8219136125577667 -4 -1 5
218 2 8.699751553085951 15.190278359291788 2.6208823424781227 -2 -2 2
484 1 8.28971168845357 15.878117407160646 4.22174634827626 -1 0 6
217 1 8.797042426180589 15.100205615045633 1.6501795367275216 -2 -2 2
335 2 7.726584724506494 15.965042195105433 0.8888957088716155 1 -6 -1
219 2 8.546082112831145 14.239630188320245 1.3258617984088128 -2 -2 2
45 2 5.331106705711322 15.709622065600191 0.49829975975634416 -4 -1 5
334 1 6.995246581320793 16.380083002010238 0.316675743970473 1 -6 -1
204 2 11.01824717649099 17.3835477383519 2.043231171176764 -2 1 -2
426 2 11.989208936750824 13.5470697261627 3.4199926224270754 -9 0 -1
202 1 11.101084610459539 16.608300752398623 1.4159277340528924 -2 1 -2
203 2 10.219417298451438 16.13512993496752 1.5011360540050873 -2 1 -2
113 2 12.397033072360754 15.774187927581885 2.512765996055767 -4 -3 -5
112 1 13.035917485072183 15.271893737914485 3.034714446101299 -4 -3 -5
501 2 12.200374729355952 13.580367241017504 0.8971800746714779 -1 -1 2
499 1 11.323320379266336 13.407149560288293 0.5353473062054194 -1 -1 2
497 2 14.249522812602976 13.181623598790457 1.2485445345511104 -7 5 0
114 2 13.719936305292423 15.035666540141584 2.327128484021896 -4 -3 -5
496 1 14.047277378285566 13.982713944166013 0.7405659852277677 -7 5 0
175 1 17.273849754313105 17.220720007360956 0.7848233302467875 -1 -2 5
233 2 13.63180096694772 16.130957917589324 4.593067588015371 7 -3 2
313 1 17.375564580949874 15.732984576614946 4.474351720748387 0 1 0
498 2 14.874581603383758 14.323321332932018 0.27782712210723953 -7 5 0
436 1 3.962452560934427 12.882315368635098 8.719124976237845 -5 -4 6
469 1 2.411515068685962 9.90196848376366 4.8437046635131145 -2 3 -3
111 2 2.225221471419003 10.491605070554698 8.411966728652057 0 -4 1
109 1 2.7343737178091736 10.545010124856079 7.588008596945906 0 -4 1
471 2 2.5960965788361836 10.284258876915352 5.688115698815143 -2 3 -3
273 2 1.617238259186915 12.493988101233636 6.185623562709561 3 -6 1
15 2 4.149740202204737 12.496128068265573 5.827900536228615 2 2 -2
229 1 0.34038737584093093 12.178533759262416 7.165338775678246 -4 -2 -4
271 1 2.3584373227989364 12.881808066184961 5.643920139116131 3 -6 1
110 2 3.539982869159943 9.976362228341149 7.634506939875167 0 -4 1
438 2 3.57308908891249 12.084639325473036 8.226571528752766 -5 -4 6
231 2 0.4392865622296618 12.024148390470593 8.11890268464122 -4 -2 -4
153 2 8.035340886984596 8.813993903065862 5.6636643031547855 1 3 1
242 2 5.772364003877928 9.655838504988937 7.576931776493667 4 4 2
310 1 8.056926112752064 12.120415787389021 8.6482051829229 -3 2 2
311 2 7.447445958703657 12.818741545426253 8.386671678585564 -3 2 2
13 1 4.99261962030278 12.206754553860295 5.512341049721353 2 2 -2
14 2 5.221635059681464 11.32679356355768 5.9699472874719275 2 2 -2
241 1 5.277951039029331 9.799416029146444 6.724705640719221 4 4 2
243 2 5.851084128385238 9.286729156274236 6.098474395535782 4 4 2
119 2 8.624951325432477 11.668352220987153 4.740986075805871 -3 1 -1
312 2 7.624782893569092 11.283129848755372 8.771522295588284 -3 2 2
249 2 12.624450969925284 9.234125363650833 4.867966493577311 0 3 4
419 2 9.970196867251559 9.825599610339223 4.951472423263206 0 -1 3
418 1 9.252069089486541 10.019422514554453 5.630752171271691 0 -1 3
420 2 9.719594406773673 10.38766380593539 6.457395276095596 0 -1 3
124 1 10.368337841381289 11.124724601360564 7.760253632731366 0 7 0
117 2 11.346127469328517 12.349293756717383 6.729047049483856 2 -4 -1
125 2 10.840360307399976 10.585499719776458 8.387052133829906 0 7 0
126 2 9.596971816571116 11.546166556807185 8.244123099115821 0 7 0
237 2 13.316477308067943 12.57096549104422 5.423357757231835 -2 -7 -1
115 1 11.921768709935156 13.058426326238292 6.448871375074973 2 -4 -1
230 2 17.07005641040583 12.092865842637917 7.000560147192447 -5 -2 -4
100 1 15.919398468188595 9.87161672331278 8.59465894605729 -5 -4 1
431 2 14.653461592430418 9.56727085587572 5.725039042080352 3 6 4
432 2 16.15960680639533 10.008444653949006 5.2905839123857055 3 6 4
235 1 14.11023186440726 12.441066380600107 4.900925494197816 -2 -7 -1
101 2 15.467740195543543 10.18130733673907 7.750035003961698 -5 -4 1
236 2 14.493261161323714 11.672489817014931 5.260927906717744 -2 -7 -1
430 1 15.42097441918173 10.177200555667248 5.933190558110109 3 6 4
437 2 3.282609834995812 13.590396055871212 8.641265589763524 -5 -4 6
189 2 1.4680945176086397 15.807596394007769 6.684206341947561 0 -4 -3
188 2 2.3287292655441014 14.715109955329494 6.189753750409352 0 -4 -3
187 1 2.380530349379184 15.586458531756957 6.521199107949308 0 -4 -3
320 2 3.8224469309198317 16.18729136990808 5.746505189235973 -1 -1 -8
485 2 7.704637914468766 15.265802493758601 4.728790515566038 -1 0 6
319 1 4.66323566383006 16.60323549092712 5.441370457492195 -1 -1 -8
543 2 5.47659912402242 13.779099280158704 8.652455741479503 0 9 2
541 1 6.338244943994474 14.25021875394332 8.481103401834439 0 9 2
41 2 5.825522432989256 15.413198115376264 5.58626027724041 -1 -9 -2
542 2 6.322460697571993 14.505006315303591 7.5546831037213416 0 9 2
40 1 6.457196738580484 14.697287204933733 5.732438542335539 -1 -9 -2
42 2 6.120986583888216 13.766291813406268 5.656235515042372 -1 -9 -2
563 2 7.878396004191371 17.20151218005557 9.00844123490462 2 0 0
5 2 9.776611326700728 16.572739083597757 8.796072111435487 3 1 3
486 2 9.07214713522781 15.793248780948192 4.8562506451529535 -1 0 6
234 2 13.125515545691645 16.995979836627903 5.7781198923381085 7 -3 2
116 2 12.287085798262805 13.503840926062525 7.243783611619295 2 -4 -1
4 1 10.093135221840873 15.635826081488036 8.592269328259352 3 1 3
299 2 11.179559096587456 16.941078770209952 5.906227713186706 1 4 -3
287 2 10.23136547654153 15.453636852331666 6.871650444605522 -2 -1 3
288 2 10.924582415505922 14.633445869746708 5.639858600699984 -2 -1 3
286 1 10.366294073685033 15.45708916405845 5.843900169729781 -2 -1 3
157 1 12.741266189298742 14.807061595260752 8.683683310256779 0 1 0
158 2 11.85527109508234 15.283232803020587 8.75632745649531 0 1 0
232 1 13.928014541792585 16.44914314230903 5.4462645955603355 7 -3 2
53 2 14.690191234025919 15.007032136053878 6.113364848472438 1 0 1
159 2 13.42700013798522 15.460830384047647 8.662490024188807 0 1 0
197 2 14.673850352866147 17.425646649212375 8.774460878160369 0 -1 1
384 2 17.766577569838454 14.834377582128598 8.310259986305365 -1 0 1
52 1 15.450025275800407 14.36515763129828 6.0805849949707556 1 0 1
314 2 16.70051692847306 15.145479818982038 4.793815893801775 0 1 0
54 2 14.924868264320533 13.580958447710058 5.778261602682117 1 0 1
383 2 16.50466803988974 14.962764986316902 7.292521435235816 -1 0 1
378 2 17.713565916865402 17.062033711544146 8.764547467176246 2 -1 2
260 2 15.110520364308908 17.491742086852625 5.346872240355585 -7 0 1
382 1 17.215872958102242 15.455505349444756 7.78228914094901 -1 0 1
315 2 17.229725902258732 16.571861245875763 4.982626342625689 0 1 0
429 2 3.5846605255309028 12.056475060183546 12.069816983301298 4 -1 -1