LAMMPS data file via write_data, version 3 Mar 2020, timestep = 25400000

2016 atoms
2 atom types

0.0000000000000000e+00 1.7938480711446825e+01 xlo xhi
-4.3538339104870261e-02 4.5039698316013030e+01 ylo yhi
0.0000000000000000e+00 1.9074521652842030e+01 zlo zhi
4.3971016353228004e-02 -6.6820853202579649e+00 -2.1832629936319847e-02 xy xz yz

Masses

1 16
2 2

Atoms # atomic

404 2 -1.6093565897136464e+00 2.5891698596752950e+00 1.4481168618164126e+01 3 0 0
1009 1 -3.6196363625569683e-01 4.8911423152717166e+00 1.2101853619148962e+01 1 0 0
456 2 9.3767951749077803e+00 7.9748023040859035e+00 1.4389959259892626e+01 -1 0 0
103 1 1.2806617773395793e+01 6.7765482755252959e+00 8.4221076830289778e+00 -2 0 -1
871 1 4.0861360972422576e+00 3.4907671809879708e+00 1.2370086793176004e+01 -1 0 -1
915 2 9.5271915598678021e+00 1.3257737223737007e+00 3.9314221926170201e+00 0 0 2
443 2 1.0136928065524851e+00 3.7086660869747283e+00 2.4193297419568208e-01 2 0 1
613 1 -1.3079794917812320e+00 3.0990047131728118e+00 6.0315524003305585e+00 -1 0 -1
115 1 6.6710446816089330e-01 2.8116748663839823e+00 1.7903535736212024e+01 -4 0 -5
543 2 -3.7351557517872660e+00 7.0745773924875826e+00 1.5163124737180532e+01 -1 0 1
783 2 9.4601401399117506e+00 4.0639599743537369e+00 1.2572599780787868e+01 -3 0 -2
362 2 1.1077182127250806e+01 6.0153711318316649e-01 7.8968119673783104e+00 -1 0 -2
836 2 1.0324326503399357e+01 2.0647732568147696e+00 1.2464402124452688e+01 -1 0 1
501 2 1.2747066204943408e+01 4.4171739723091168e+00 1.1395314431678418e+01 1 0 0
729 2 -3.1211671599290005e+00 6.2579709131237253e+00 9.9363116026244942e+00 1 0 1
457 1 1.1499632521204704e+01 7.5852006355955561e+00 1.6731622742799985e+01 -3 0 -3
265 1 -1.8494287112488017e-01 5.0647551682125362e+00 1.5872995101483815e+01 0 0 -3
179 2 1.0474372525504538e+00 1.0909930505125729e+01 1.3036523810768584e+01 -2 0 -1
718 1 3.2201013097837934e+00 5.4150996406723380e+00 6.0924579538937991e+00 -1 0 -3
649 1 8.6706638905414053e+00 6.5434511371305302e+00 6.0939083041104896e+00 -5 0 0
391 1 6.1747820676675111e+00 5.7738904739101633e+00 1.2395484357427922e+00 -1 0 -1
750 2 3.6233197335557743e+00 6.0779623159701144e+00 9.9176850911489574e+00 -3 0 2
380 2 3.0292428200251669e+00 4.0737973252605286e+00 2.1673833315947548e+00 -4 0 0
40 1 8.9078398778692787e+00 4.7957296546519252e+00 1.5506372314093758e+01 -3 0 2
413 2 1.4266435002525364e+01 2.1509125227670700e+00 2.0181936650299521e+00 -1 0 -1
762 2 1.0700132809902712e+01 5.1506817084078271e+00 3.4610984911647962e+00 -3 0 2
385 1 5.4216861608161704e+00 3.0564745298463563e+00 3.6115777388305301e+00 0 0 -1
727 1 -3.0335633976722169e+00 7.0517169368534267e+00 1.0512398098578776e+01 1 0 1
953 2 7.2883655457286567e+00 9.8943045899174908e+00 1.1550915245322175e+01 -1 0 1
712 1 1.0388788356805771e+01 9.0950484131972100e+00 1.0793518362792826e+01 0 0 3
995 2 1.7554399688268214e+00 6.8735797219347337e+00 1.3133733996104608e+01 4 0 1
1994 2 5.2001970428572042e+00 8.8520495471142340e+00 6.3148647573066938e+00 -2 0 -2
799 1 8.5462194529229762e-02 7.2796209927631033e+00 1.3758418974680868e+01 1 0 -4
651 2 8.1493365072974218e+00 7.1762078021425149e+00 5.5571237545603021e+00 -6 0 0
640 1 8.2377072250154590e+00 5.5470681665337684e+00 8.5822220593713645e+00 3 0 -1
937 1 6.8961670417055556e+00 1.1082109610435850e+01 1.8930053258494979e+01 1 0 1
278 2 1.0628502295293648e+01 2.8290342985795398e+00 4.8378004093806304e+00 -4 0 -1
462 2 1.1550858449690885e+01 3.0019097077553469e-01 4.0054636507150327e+00 -3 0 -2
812 2 7.0306721081861543e+00 7.2859629350746600e+00 1.0789970844649233e+01 -2 0 -1
222 2 9.8297858300807874e+00 7.7060190791417131e+00 7.0248600884072587e+00 -3 0 -3
301 1 -4.4634237632639406e+00 3.2542126798941511e+00 1.5355125876912245e+01 1 0 -1
28 1 7.6808726222610701e+00 3.5063962333899017e+00 5.9760685873068846e+00 -3 0 -4
682 1 -2.7320923014808649e+00 5.3717849842958314e+00 1.3049970589686298e+01 2 0 2
25 1 6.0825894075239084e+00 5.2646320091091932e+00 1.3016123401335266e+01 -2 0 -4
526 1 2.6294231647039403e+00 7.3173542905127205e+00 1.7055383579577153e+01 -2 0 -1
993 2 1.0584149606358496e+01 3.6246518400778691e+00 1.7961035914377696e+01 0 0 1
441 2 7.0439682587549868e+00 8.2300822964234328e+00 4.0579505675089322e+00 -3 0 0
258 2 5.3687219147354357e+00 5.1534801700612913e+00 9.6366141437682060e+00 -1 0 0
781 1 8.6408072456144556e+00 4.5508958398887867e+00 1.2258372999747660e+01 -3 0 -2
99 2 8.0469445441124261e+00 8.1053776130038404e+00 1.2090969542243390e+00 0 0 -1
882 2 1.5740901200062837e+01 3.6704298975628963e-01 3.9785942757913948e+00 -3 0 3
544 1 3.1024309017790346e+00 6.9392486528814246e+00 1.0547826487906962e+00 3 0 2
36 2 -3.2300716585032774e+00 1.3400997794861087e+00 1.3174252456298516e+01 -1 0 -1
991 1 9.7791297847210288e+00 3.0621597614908365e+00 1.7930075404038341e+01 0 0 1
66 2 9.6526991597877974e+00 9.9837874996479901e+00 1.5637547422428568e+01 -3 0 -4
320 2 1.2019619192604051e+01 3.8703019533437950e+00 2.0724216411331184e+00 -4 0 -3
117 2 -1.8457904442092232e-01 3.3129441369797390e+00 1.7761257463003862e+01 -4 0 -5
977 2 1.3485184738576695e+01 8.2918694334081655e-01 1.0424864142231128e+01 -4 0 -2
175 1 9.6302371199759218e+00 1.0380187448650840e+01 1.7664999765272345e+01 -5 0 1
557 2 1.7939014592089961e+00 8.6627107334952491e+00 1.5836781018573625e+01 -1 0 0
461 2 1.2823414977443392e+01 5.4866560931128094e-01 4.9838965424061970e+00 -3 0 -2
521 2 4.1512034440417533e+00 9.9578947391841659e+00 8.9836513488293690e+00 -5 0 -2
842 2 1.7420947428229181e+00 9.9375340528933016e+00 6.6693721998468911e+00 -5 0 -4
220 1 1.0394734625334744e+01 8.2227502481668697e+00 7.6591609767725419e+00 -3 0 -3
516 2 -3.2703576158562333e+00 5.9358631342614077e+00 1.7179134870666509e+01 0 0 -2
266 2 6.7273526905307790e-01 4.7204104351470209e+00 1.5713342684400006e+01 0 0 -3
642 2 8.5326250263510008e+00 5.9754262971042404e+00 7.7379638075736805e+00 3 0 -1
934 1 4.3455015267515327e+00 9.2245600106530130e+00 1.0453320431318023e+01 -2 0 0
612 2 8.9280298304550012e+00 3.5274040389394318e-01 1.0856686132884033e+00 -2 0 1
982 1 6.0296529844524329e+00 7.7904463598334432e+00 7.6055783289369661e+00 0 0 -1
130 1 6.6167720554207570e+00 1.1609360257314119e+00 1.2919524541589237e+01 0 0 1
18 2 -1.2798583595737574e+00 8.1078116801941089e+00 1.3078372759493202e+01 0 0 1
707 2 4.1938163322309023e+00 9.1230230032068391e+00 1.4428161085679172e+01 0 0 -1
291 2 1.2536817838772158e+01 8.2201830240076728e+00 1.3532860790139175e+01 -1 0 2
600 2 1.3896010271351400e+01 5.0588336773860112e+00 5.6581533641540984e+00 -3 0 1
8 2 6.9857512321630164e+00 5.0982224191161496e-01 3.9540981317404862e+00 -1 0 -1
305 2 -2.7767610126330737e+00 8.5966063571616029e+00 1.7526468255389403e+01 1 0 -3
34 1 -2.3306744606318861e+00 1.6754303894239662e+00 1.3102403222429134e+01 -1 0 -1
835 1 1.0657431364441813e+01 2.6251248813842816e+00 1.3190305842327113e+01 -1 0 1
567 2 -1.2469060529239568e+00 7.2329493679122816e+00 1.0507250860283831e+01 -1 0 0
633 2 1.1049945738195937e+01 9.7319501632080985e-01 1.0915322873775025e+01 -3 0 -2
618 2 1.4875841619313883e+01 1.0932691943390259e+01 3.3361318837881799e+00 -3 0 -1
363 2 9.9806498793812075e+00 2.0493916394966161e-01 6.9040129017932816e+00 -1 0 -2
889 1 7.8085573134250357e+00 3.8567241196012869e+00 2.6475409684860196e+00 -1 0 0
933 2 4.6197511838223999e+00 7.2245375845020732e+00 8.2028604380561490e+00 -2 0 0
784 1 1.1784020437785207e+01 4.0308100032780797e-01 1.7224363026454061e+01 -4 0 -4
989 2 4.3684727638598719e-01 9.2817499382570801e-01 1.4839514956562750e+01 -2 0 -1
183 2 8.4421363248576675e+00 7.1078194413125297e+00 1.7699655001994675e+01 -2 0 -1
768 2 -2.6287433272963283e+00 1.0766822700696924e+01 1.5183984363298455e+01 -4 0 -2
437 2 5.6612612468046253e+00 8.6903711326331585e+00 1.7875217852156403e+01 -3 0 -2
962 2 2.7209429090561499e-01 1.2157892809435440e+00 3.9431784815719175e+00 -3 0 0
706 1 4.6701598394395853e+00 8.3519823039809307e+00 1.3979822752074631e+01 0 0 -1
979 1 1.4625047868976008e+01 6.6771233189310433e+00 3.4859816070964831e+00 -2 0 0
913 1 1.0407119103234333e+01 1.6452930511621857e+00 3.6627987457787188e+00 0 0 2
507 2 1.9515279481964047e+00 8.4948416304193675e+00 3.5092165498690737e+00 -4 0 -2
547 1 7.1461278920808278e+00 8.9615825720270443e+00 1.3095446550138400e+01 -3 0 -4
339 2 9.3493963593957963e-01 4.2696408646467425e+00 8.7914922123746972e+00 -1 0 -2
381 2 3.4903287519517021e+00 5.5854241033880845e+00 2.2887906539293432e+00 -4 0 0
321 2 1.2824530379074099e+01 4.2769453307329375e+00 3.2458091431998453e+00 -4 0 -3
448 1 6.8111497500645335e-01 1.0471856864472064e+01 1.7797922653068571e+01 -1 0 1
49 1 4.2105675513097722e+00 2.9320193271538422e+00 1.5983446182340035e+01 -1 0 0
749 2 2.5874766038329069e+00 4.9427697849930494e+00 1.0098471320332278e+01 -3 0 2
539 2 1.2453392378156686e+01 5.8557510077710955e+00 6.7507602310709416e+00 -5 0 -3
395 2 1.4819612432368624e+01 7.9548413141634553e+00 6.6761634720174863e+00 -4 0 -3
713 2 1.0337894979031208e+01 9.5628338911049813e+00 1.1626775664826186e+01 0 0 3
702 2 6.6193073559555349e-01 5.9387521243675838e+00 2.4990920062103963e+00 -2 0 -3
256 1 5.9094039420659410e+00 4.3896856459632945e+00 9.2212924090760477e+00 -1 0 0
566 2 3.1148368625413125e-01 7.7997175998155770e+00 1.0528521395184621e+01 -1 0 0
367 1 1.0716394923895855e+01 1.1005049016024147e+01 9.1615125550890895e+00 -2 0 0
454 1 8.9128325310980951e+00 7.2009929237984798e+00 1.3975235174576730e+01 -1 0 0
715 1 1.0707584375119907e+01 1.0742997980546583e+01 1.2985415820914765e+01 1 0 1
685 1 5.7793983602753558e+00 6.6802373607236323e+00 1.5611654923694923e+01 -2 0 2
958 1 1.0176121565490678e+01 9.4330487585139231e+00 3.1838636429805445e+00 1 0 0
527 2 3.3803511940440485e+00 7.6311076643840892e+00 1.7583331300898173e+01 -2 0 -1
415 1 2.5198196943943429e-02 6.9531532322322249e+00 1.7756334561769776e+01 1 0 -2
299 2 7.9343184984190849e+00 9.7705247171945011e+00 9.4186421042442880e+00 -3 0 -2
118 1 1.6660739228655469e+01 1.3945705904608614e+00 1.1754687453150132e+00 -3 0 -3
515 2 -3.3274157207321071e+00 5.9882380398490138e+00 1.8695506937157194e+01 0 0 -2
414 2 1.3777725013639150e+01 2.4048398888926772e+00 5.5427539213533938e-01 -1 0 -1
127 1 3.2297786878482082e+00 7.7473725870129320e+00 4.5136084539506056e+00 -1 0 -1
528 2 2.9269188050366246e+00 6.5430835161929339e+00 1.6542808654834285e+01 -2 0 -2
972 2 1.0539390875609119e+01 1.0373060096024590e+01 1.7823057691061397e+00 -1 0 1
455 2 8.9713757230756244e+00 6.4153549907611458e+00 1.4509500148417303e+01 -1 0 0
924 2 1.6081760324797041e+00 2.2454538504879284e+00 1.9061107570728413e+00 -3 0 -3
684 2 -3.0105767529385696e+00 5.6774728662923160e+00 1.3917406114122389e+01 2 0 2
608 2 2.0262474159045372e+00 3.2043620135622031e-01 1.6333265531105432e+01 -3 0 -1
393 2 5.5754006565144110e+00 5.0185010096931091e+00 9.8318294847305820e-01 -1 0 -1
298 1 8.0293344499762114e+00 9.3310367470469906e+00 8.5379386210162895e+00 -3 0 -2
133 1 4.1011719711542511e+00 1.2872912147593409e+00 1.0603508955959761e+01 1 0 -1
495 2 -4.5501985484036487e+00 9.8987343322807675e+00 1.7197103789838319e+01 -3 0 -3
767 2 -1.5376066697531749e+00 9.9686483821588805e+00 1.5797494295142169e+01 -4 0 -2
531 2 8.9031451016898302e+00 1.6940486433935944e+00 7.9442639060852578e+00 -1 0 -1
212 2 -1.7569678783929517e+00 9.7404448209816437e+00 1.1476310431649253e+01 -5 0 -2
872 2 3.9160397310660295e+00 4.2058477280427304e+00 1.1724670908690010e+01 -1 0 -1
617 2 1.3949733490829253e+01 9.7975136889061556e+00 2.8932965356910176e+00 -3 0 -1
583 1 7.3468375126843535e+00 8.2021070939930905e+00 1.7127661640450533e+01 -4 0 -4
29 2 7.7220624465681826e+00 2.9933927550263797e+00 6.8521962180915095e+00 -3 0 -4
231 2 4.0086207058132963e+00 5.5854942410588493e-01 1.8019074448364623e+01 0 0 -3
116 2 8.9289090237508262e-01 2.3622522904091570e+00 1.6980921716481674e+01 -4 0 -5
152 2 8.9280760818560800e+00 6.2458374079481702e+00 1.1564133437119636e+01 2 0 -1
777 2 6.8569064776282316e+00 7.9578061099326386e-02 1.6487267402689984e+01 -2 0 1
1516 1 -2.0772619214333803e+00 6.6397263670156947e-01 1.6907512176543406e+01 0 0 -1
416 2 9.8437110109276293e-01 7.0434451452698230e+00 1.7683839253576519e+01 1 0 -3
1599 2 -4.8505894448211540e-01 1.1100170519236306e+01 5.9099805631392197e+00 2 0 1
151 1 8.6844978404456263e+00 6.9241769100123127e+00 1.0856183069088180e+01 2 0 -1
647 2 6.6014519757110044e+00 3.2764556363742492e+00 1.0251063588892709e+01 -3 0 -1
865 1 4.1725145688427405e+00 6.5714793723940534e-01 1.4040703580428470e+01 -2 0 -1
131 2 5.6689147252781016e+00 9.2419427261931653e-01 1.3169730271904049e+01 0 0 1
558 2 8.8983144435401940e-01 9.7748474315240479e+00 1.6319317023240067e+01 -1 0 0
174 2 3.1984969310521114e+00 4.8334503822638757e+00 1.8354320424853622e+01 -1 0 -2
943 1 9.9031080474241229e+00 1.5528591150533504e+00 1.5628102131686623e+01 -1 0 2
839 2 -4.2830974794454750e+00 2.6613040141384490e+00 1.7229262428346665e+01 -1 0 -3
793 1 1.1298807560782310e+01 7.0124746312297468e+00 1.2846874410330056e+01 -2 0 0
936 2 4.3975425420401475e+00 9.6797076631801708e+00 1.1297578180315970e+01 -2 0 0
431 2 -3.5232197625035111e-01 6.1077939697869548e+00 8.7439609050231475e+00 1 0 4
864 2 5.4374738878896904e+00 5.8587908812367893e+00 1.7158364198649082e+01 -4 0 -2
764 2 1.5744002448617096e+01 8.6058328221128111e+00 1.0640765605762486e+00 -5 0 -3
409 1 1.4284246807842566e+01 2.9127966826407827e+00 3.6633509650480800e+00 0 0 -3
561 2 7.1764088636123287e+00 2.3360315461657795e+00 1.5886464711110461e+01 -2 0 1
725 2 1.1249197078775563e+01 5.1083038199489641e+00 1.0050648069344552e+01 0 0 1
319 1 1.2169893336567625e+01 4.6110964659072149e+00 2.6568609516878148e+00 -4 0 -3
688 1 5.9334009501568543e+00 5.7876588062437806e+00 5.6420738055704289e+00 -3 0 0
283 1 7.2277910930693974e+00 3.8825368203240243e+00 1.8657689213868757e+01 -4 0 0
56 2 2.3188221998810272e+00 1.1143798925426502e+01 8.6725970345225836e+00 -3 0 2
277 1 1.0502809715607418e+01 3.1963517683288054e+00 5.7740718571402541e+00 -4 0 -1
225 2 1.0076233818840956e+01 7.0711019145996152e+00 1.2721059664174221e+00 -3 0 -2
85 1 1.6578058199004769e+01 3.7236078364665608e+00 2.5146165701764400e+00 1 0 -2
26 2 5.3710873504141823e+00 4.6202528271047099e+00 1.2960014597734917e+01 -2 0 -4
614 2 -1.9802458020755176e+00 3.8559381843972123e+00 5.8354321635168294e+00 -1 0 -1
285 2 8.1218209256109724e+00 3.6810114574505790e+00 1.8270076614293203e+01 -4 0 0
153 2 9.3725369689303157e+00 7.5436642818152340e+00 1.0887455933009182e+01 2 0 -1
862 1 5.0670829852719290e+00 5.3334784445003036e+00 1.7895885332189575e+01 -4 0 -2
559 1 6.8899748729942640e+00 2.8749756117781584e+00 1.5135563799569434e+01 -2 0 1
224 2 8.9529690458062543e+00 6.1223568618718325e+00 9.1066824238924327e-01 -3 0 -2
720 2 3.3142875984044329e+00 5.6325897727874557e+00 7.0292328150688377e+00 -1 0 -3
984 2 6.7557263760631070e+00 8.2488022400506438e+00 8.1485122650907460e+00 0 0 -1
387 2 4.7123200879245619e+00 3.7110964584894579e+00 3.6697500218697479e+00 0 0 -1
97 1 7.5110303380427936e+00 8.9018749621965672e+00 1.0541064404048224e+00 0 0 -1
545 2 3.7911980968313945e+00 7.6114170508759260e+00 1.1864617862415299e+00 3 0 2
686 2 6.0275096935577546e+00 6.1413492549208364e+00 1.4842048133685436e+01 -2 0 1
696 2 1.3011231640519249e+01 8.8087765292791111e+00 5.3990711501924613e+00 0 0 0
585 2 7.6205465521125744e+00 8.9561813161633879e+00 1.6544953930736902e+01 -4 0 -4
985 1 4.5580374238390267e+00 9.4433988131810143e+00 5.8659596763193784e+00 -2 0 -2
42 2 9.8391933684857396e+00 4.6179999807148029e+00 1.5267888362367913e+01 -3 0 2
410 2 1.5209480552866269e+01 3.0771536785998612e+00 3.3230801589145340e+00 0 0 -3
710 2 3.2086596672228271e+00 4.2508972557668354e+00 1.5794033065468078e+01 -2 0 -2
438 2 4.7269119657613592e+00 9.4755767190863747e+00 1.8777490861276863e+01 -3 0 -1
714 2 1.1331101121651376e+01 8.8694979207907316e+00 1.0663986336359583e+01 0 0 3
477 2 -9.7765390123189055e-01 2.3269153117372090e+00 7.2973351774307673e+00 -1 0 2
411 2 1.4281321474240062e+01 2.3789234462606430e+00 4.5005694337118838e+00 0 0 -3
584 2 6.9920706047997871e+00 7.5595422068989624e+00 1.6397036506459553e+01 -4 0 -4
944 2 9.2716651367493306e+00 9.5592893107093224e-01 1.5265216051543838e+01 -1 0 2
522 2 4.7716810466465844e+00 1.1055950568424930e+01 8.2348233473850065e+00 -5 0 -2
677 2 1.1849538456957516e+01 6.8746836792851269e+00 4.4682551603071774e+00 -3 0 0
837 2 1.0261546940210577e+01 2.2432850905369919e+00 1.3994739842403821e+01 -1 0 1
1597 1 -1.2386484104220958e+00 1.0598953783495348e+01 6.1563056027616945e+00 2 0 1
64 1 1.0138759857899529e+01 9.3520307349587171e+00 1.5088834200730931e+01 -3 0 -4
910 1 7.8083656296260795e-02 6.6623646097358158e+00 5.8275521287993985e+00 -1 0 1
923 2 2.5031371916966920e+00 2.4285826374951940e+00 5.6766488219092803e-01 -3 0 -3
458 2 1.0738234761646574e+01 7.1990315160507690e+00 1.7212982158568931e+01 -3 0 -3
967 1 1.4289549215658695e+00 3.3116373957008247e+00 5.7814185487948144e+00 -1 0 1
763 1 1.6679957670279681e+01 8.9879781649660195e+00 9.7092014483680456e-01 -5 0 -3
1677 2 4.8603486543420704e+00 1.7536656911999857e+00 2.0986291012624698e+00 1 0 1
499 1 1.3137069005142175e+01 3.7355172586605541e+00 1.2001675928390236e+01 1 0 1
300 2 8.9185203695700963e+00 8.9406406451981155e+00 8.4903717883233174e+00 -3 0 -2
902 2 7.3631795735691288e+00 1.0791363853090198e+01 3.0259432076151587e+00 0 0 0
288 2 1.0210634215343500e+01 3.4847815206422532e+00 7.9309365293310707e-01 1 0 -2
17 2 -1.8126923972562250e+00 9.4507658012767202e+00 1.3651491880817630e+01 0 0 1
500 2 1.2385006534112296e+01 3.3706593459550089e+00 1.2537957399289558e+01 1 0 0
897 2 1.2307962208774279e+01 6.2745286514771150e+00 1.7831036402770626e+00 -2 0 1
760 1 9.8009948684008190e+00 5.4667840548506232e+00 3.7092986640134411e+00 -3 0 2
683 2 -3.4471854382240812e+00 4.7114856575488515e+00 1.2869497378596101e+01 2 0 2
920 2 4.0311548995342816e+00 8.3656361420917014e-01 5.2221313613103844e+00 0 0 -2
35 2 -2.2564790615677910e+00 2.0572469829445863e+00 1.2197030538534014e+01 -1 0 -1
687 2 5.3228189856513648e+00 7.4314571393430544e+00 1.5256727069779936e+01 -2 0 1
912 2 5.1462481453170450e-01 6.3652466596180997e+00 4.9715237979312334e+00 -1 0 1
396 2 -2.0864076522231052e+00 7.7462531817496725e+00 7.8249499951031085e+00 -3 0 -3
821 2 1.0768941178261443e+01 3.6441508486180703e+00 8.4745705458884046e+00 -3 0 1
439 1 7.7993301792647403e+00 8.7217121753440683e+00 4.4866592125499904e+00 -3 0 -1
350 2 4.0777370712891287e-01 6.0883477748513606e+00 7.4320768921122671e-01 3 0 4
176 2 9.8036636003396929e+00 9.7760106757213645e+00 1.8427532348353285e+01 -5 0 1
895 1 1.2175919579311749e+01 6.9457988303518032e+00 1.0587095407764586e+00 -2 0 1
945 2 9.5524274548001031e+00 1.9974430348259040e+00 1.6453985134291486e+01 -1 0 2
655 1 1.3795979232656461e+00 8.4523294612668776e-01 7.3850822523282087e+00 -2 0 0
927 2 -2.4983770034736823e+00 4.2453045542147212e+00 9.8191022595585249e+00 3 0 2
822 2 9.4762769638148967e+00 4.4210156596468257e+00 9.1001583057570130e+00 -3 0 1
436 1 4.7216630222698761e+00 8.9114577639331642e+00 1.8000824531467586e+01 -3 0 -2
355 1 1.5321147648007578e+00 2.9737622552056480e+00 1.3111515074595582e+01 -4 0 -4
794 2 1.0294863027987141e+01 7.0421484251748145e+00 1.3041866490967141e+01 -2 0 0
776 2 8.1874239970528357e+00 1.4876017134217367e-01 1.7318347547665550e+01 -2 0 1
606 2 -7.6345652386613649e-01 8.6886597070119329e+00 3.9322683868036612e+00 1 0 2
128 2 4.0028045672389698e+00 7.4741516164239128e+00 4.0101792073591387e+00 -1 0 -1
957 2 -1.1263687070428832e+00 9.3068635733306397e+00 9.1039861656483438e+00 -2 0 -2
303 2 -3.4536024558838854e+00 3.2361122881495286e+00 1.5344132881534978e+01 1 0 -1
904 1 4.8844591531704840e+00 8.8995142417817057e+00 1.3823003566413088e+00 -3 0 2
983 2 6.4927102154143617e+00 7.0449161810922236e+00 7.1649161029975268e+00 0 0 -1
811 1 6.0385707288756203e+00 7.0579261409333771e+00 1.0695493285227951e+01 -2 0 -1
405 2 -1.2771180735644405e+00 3.7050395018774900e+00 1.5615481939819217e+01 3 0 0
598 1 1.4923851938653225e+01 5.1225555758409627e+00 5.7194056330398997e+00 -3 0 1
922 1 2.0375114625434794e+00 2.8878277751154293e+00 1.3213597507895400e+00 -3 0 -3
120 2 1.5796195364013286e+01 1.0961565002080540e+00 9.7179749522811054e-01 -3 0 -3
86 2 1.6912284559427651e+01 2.9250179542115951e+00 2.0357498663791196e+00 1 0 -2
444 2 -5.2847762590139249e+00 4.9240349273285648e+00 1.8644855624680623e+01 2 0 0
604 1 -1.5616204013881492e+00 8.5129556989814965e+00 4.4992232650911008e+00 1 0 2
58 1 1.3271186040789374e+01 1.0455001097306745e+01 8.1816158818530802e+00 -2 0 1
349 1 5.0398176258165328e-01 6.9842214966396829e+00 1.1508933688253289e+00 3 0 4
748 1 3.2701238483410311e+00 5.4672654697706875e+00 1.0615135317501547e+01 -3 0 2
911 2 -6.7187482066766724e-01 7.2525969877565997e+00 5.5560047075897456e+00 -1 0 1
926 2 -2.1530667710189029e+00 4.9274742457992131e+00 8.5057888003157096e+00 3 0 2
356 2 9.8620622100755551e-01 3.7247688683356324e+00 1.2707613237356274e+01 -4 0 -3
542 2 -2.3597063584831783e+00 7.5194567501660385e+00 1.5802694688903289e+01 -1 0 1
572 2 7.9363784422596844e+00 2.2569562488323101e+00 1.6593588212329387e+00 1 0 4
599 2 1.5100891741011235e+01 5.8466750343525158e+00 6.4040113768172517e+00 -3 0 1
650 2 9.1828772355138426e+00 6.1659995081568297e+00 5.3546137396310893e+00 -5 0 0
132 2 6.8200916282852022e+00 1.6980565923778519e+00 1.3676781821568243e+01 0 0 1
386 2 5.2556286872086062e+00 2.5145284454174637e+00 4.4230448724803706e+00 0 0 -1
304 1 -1.9090903350209008e+00 8.8376689337597796e+00 1.7182680569576330e+01 1 0 -3
514 1 -3.5722856920764032e+00 5.4369143694918378e+00 1.7937460569929552e+01 0 0 -2
51 2 5.1365515535575019e+00 2.9925380305217959e+00 1.5681448520325143e+01 -1 0 0
728 2 -3.0310448466884456e+00 6.7056213471937047e+00 1.1443529575853187e+01 1 0 1
494 2 -5.2163500649960932e+00 8.5768686749942784e+00 1.7574399171196358e+01 -3 0 -3
931 1 3.7905585529436783e+00 6.7816172842014124e+00 8.3545932409330277e+00 -2 0 0
896 2 1.2337932106569598e+01 6.4387242709500541e+00 2.0865525299916318e-01 -1 0 1
537 2 7.3267442857573739e+00 1.0024079382300185e+01 1.4610064068129635e+01 -3 0 2
261 2 5.1757900204164438e+00 9.8952197854718627e+00 2.7748960489314038e+00 -1 0 0
571 1 7.7485450211676836e+00 1.4449934835815217e+00 1.0681444751382489e+00 1 0 4
726 2 1.2421052353458217e+01 6.0518115911035677e+00 9.7821071199567005e+00 0 0 1
988 1 1.0509024881088749e+00 1.5463175058514715e+00 1.5313848481560136e+01 -2 0 -1
284 2 1.4106501390692319e+01 4.6360328311575350e+00 1.8753277819547576e-01 -4 0 1
497 2 -1.3040940065250646e+00 4.0729390699891099e-01 1.3472032512705194e+01 1 0 1
548 2 6.1954115649440213e+00 8.7384083438911233e+00 1.3335027923941754e+01 -3 0 -4
724 1 1.1903372588845777e+01 5.6719262779870592e+00 1.0531878418472614e+01 0 0 1
4 1 1.3138428648568812e+01 9.1553913020447180e+00 1.0653802313303647e+01 0 0 0
620 2 5.9554733099476040e+00 6.7124782971338641e+00 2.5652630279986828e+00 -3 0 0
121 1 1.5663321798764924e+00 8.9288489998966423e+00 1.0962959286238050e+01 -2 0 0
976 1 1.2772150700528810e+01 1.5449685487147520e+00 1.0351953918888688e+01 -4 0 -2
290 2 -3.8097248447525036e+00 8.3896417607950813e+00 1.3263254072047564e+01 0 0 2
549 2 7.6916006132065249e+00 8.1696431102384661e+00 1.3303028143771567e+01 -3 0 -4
394 1 1.5071976152529503e+01 7.3156120390449111e+00 7.3479726669266476e+00 -4 0 -3
959 2 1.0756104332352708e+01 8.6517520852937029e+00 3.1870518476282870e+00 1 0 0
223 1 9.1618366937534752e+00 6.9298249603328292e+00 1.4646884016983786e+00 -3 0 -2
765 2 1.6638036603652960e+01 9.6869287362545062e+00 1.6386685325258101e+00 -5 0 -3
182 2 9.3569931401381528e+00 6.1588745471439399e+00 1.8593755580813959e+01 -2 0 -1
671 2 4.9094848328630034e+00 2.9118967969260652e+00 2.5313792088189419e-01 -4 0 -1
987 2 4.2388354895544040e+00 1.0039183514676633e+01 6.5756595580190460e+00 -2 0 -2
221 2 1.0462684175104613e+01 9.1289937773891907e+00 7.2642493771761920e+00 -3 0 -3
7 1 7.7981358111012948e+00 8.6920137272891229e-01 4.3819595682066819e+00 -1 0 -1
619 1 5.7305251086747582e+00 7.1818586710995316e+00 3.4236051165953678e+00 -3 0 0
981 2 1.4795562407325589e+01 6.1079733427379255e+00 4.2893237161594957e+00 -2 0 0
905 2 5.8680010004375873e+00 8.7974322259137185e+00 1.3353675661993722e+00 -3 0 2
870 2 1.3599388318217169e+01 9.6536820599163899e+00 7.3691487777842368e-01 1 0 1
621 2 5.9366291668112590e+00 6.4886380547098259e+00 4.1019348063714709e+00 -3 0 0
65 2 1.0624615526791274e+01 8.7700893587351363e+00 1.5718437885325416e+01 -3 0 -4
493 1 -4.4326945117405296e+00 9.1490603142677394e+00 1.7787532881150362e+01 -3 0 -3
417 2 -1.1165286070223157e-01 6.5626672364359564e+00 1.8643452609893682e+01 1 0 -3
782 2 8.2383409730999340e+00 3.9538750765654154e+00 1.1612576222698159e+01 -3 0 -2
956 2 -1.1424091503299496e+00 9.8172094852293643e+00 7.6377210342770558e+00 -2 0 -2
605 2 -1.5976406563821675e+00 9.3438799967493047e+00 5.0452800332997016e+00 1 0 2
980 2 1.5274005958732559e+01 7.3665253297661826e+00 3.6045392394611966e+00 -2 0 0
306 2 -1.2231847254547255e+00 8.2448693129239601e+00 1.7485848038003109e+01 1 0 -3
890 2 6.9804459825410330e+00 3.6056110367144329e+00 3.2410913144978051e+00 -1 0 0
87 2 -6.4573061210992244e-01 4.2706284567477004e+00 2.9274003324417293e+00 2 0 -2
134 2 4.3510255483834870e+00 2.0310080878025345e+00 1.1237071853028064e+01 1 0 -1
540 2 1.1644884350946732e+01 4.6114434774732569e+00 6.0843318092935483e+00 -5 0 -3
1675 1 5.0269626104974323e+00 1.4816123985165424e+00 1.1876451197421978e+00 1 0 1
164 2 1.2625268412299270e+01 4.8042579746095404e+00 1.5074780349695891e+01 3 0 1
19 1 1.6549209207329891e+00 8.1516180239070941e+00 7.7922910526950906e+00 -2 0 -3
689 2 5.0150504710444812e+00 5.4117609052139821e+00 5.6987038790208180e+00 -3 0 0
820 1 1.0237402082692817e+01 3.7828167196251745e+00 9.2664079395661005e+00 -3 0 1
129 2 3.6057474333609294e+00 8.4333450437065469e+00 5.0622466845584890e+00 -1 0 -1
676 1 1.2198209460929720e+01 7.6543952065586698e+00 4.0622517506636120e+00 -3 0 0
412 1 1.4091565105704017e+01 1.6975839182482779e+00 1.1552760189060742e+00 -1 0 -1
165 2 1.1935127122989254e+01 5.8647632853511000e+00 1.4223628411935866e+01 3 0 0
546 2 2.2474892162530438e+00 7.3584556521447730e+00 1.1439019463730018e+00 3 0 2
560 2 7.5221043125318294e+00 3.6474676559798862e+00 1.5112297646328253e+01 -2 0 1
403 1 -1.8467914696298142e+00 2.9582455370344509e+00 1.5338100155858859e+01 3 0 0
122 2 1.5748691226899165e+00 9.4046252216333865e+00 1.1838355007872076e+01 -2 0 0
963 2 1.8109379057814783e+00 9.5318225503768317e-01 3.8275627632166014e+00 -3 0 0
795 2 1.1408274994060967e+01 6.6754595088109614e+00 1.1920935519681350e+01 -2 0 0
211 1 -1.2960889484579909e+00 1.0167779795361330e+01 1.0707701634587067e+01 -5 0 -2
840 2 -4.8855578488980633e+00 1.3039570535832070e+00 1.7881663759326905e+01 -1 0 -3
30 2 8.6781050653808691e+00 3.6056822941165318e+00 5.8243682745991228e+00 -3 0 -4
672 2 -2.4707755883402904e+00 4.0117089218946633e+00 1.8437770112956326e+01 -4 0 -2
1010 2 -1.2334983674675373e+00 4.9596385250244897e+00 1.2538811615876677e+01 1 0 0
123 2 2.5192747893235077e+00 8.8207793415280911e+00 1.0698072971646265e+01 -2 0 0
711 2 3.0230103039791567e+00 5.3954921040908701e+00 1.4737254665045754e+01 -2 0 -2
556 1 9.9381141408929441e-01 9.1354710534471089e+00 1.5545919882620437e+01 -1 0 0
974 2 1.5125646523446420e+01 6.2597621549555695e+00 1.8469718470658094e+00 -4 0 -1
41 2 9.0417033554230049e+00 5.3197686265292239e+00 1.6316229737800395e+01 -3 0 2
970 1 1.1030172447186905e+01 1.0791048651468866e+01 1.0064567873011359e+00 -1 0 1
430 1 -4.2128315554180418e-01 5.3712024260149009e+00 8.1165075460246356e+00 1 0 4
925 1 -2.9054216551296799e+00 4.8779510078356241e+00 9.1194936598394296e+00 3 0 2
302 2 -4.7760708129322085e+00 2.4114840835566040e+00 1.4979989494327276e+01 1 0 -1
172 1 2.5039903239158443e+00 4.6600141073531312e+00 1.9001094111258624e+01 -1 0 -2
891 2 8.4629026429352603e+00 4.3479640169704776e+00 3.2278010078688157e+00 -1 0 0
873 2 3.2022718920146165e+00 3.4317835812502828e+00 1.2772882563820861e+01 -1 0 -1
921 2 4.1140460289556389e+00 1.8830570106333031e+00 6.3652439789452950e+00 0 0 -2
292 1 -1.7082169072446516e+00 2.8794196164340367e+00 1.0541493899127939e+01 0 0 -4
529 1 7.9218310467078812e+00 1.7641041185729385e+00 7.9921567620168421e+00 -1 0 -1
869 2 1.3242251574546744e+01 8.2249441691561334e+00 1.3413115979427537e+00 1 0 1
5 2 1.3239181952033466e+01 9.4309502517337833e+00 9.6978809594598694e+00 0 0 0
337 1 1.6989400769978991e+00 3.8119771535591380e+00 9.2032491718354699e+00 -1 0 -2
992 2 1.0013468988705087e+01 2.4187824908264237e+00 1.8593680046650991e+01 0 0 1
868 1 1.3901367147136225e+01 8.9466531759993764e+00 1.3133983109215563e+00 1 0 1
641 2 8.5122707197554046e+00 6.0402153644450332e+00 9.3699118980798541e+00 3 0 -1
440 2 7.4531046634806524e+00 9.4076688344754746e+00 5.1320240251106037e+00 -3 0 -1
975 2 1.6119679879761467e+01 5.0670480518980954e+00 1.5777157604180363e+00 -5 0 -1
541 1 -2.9576940141843782e+00 6.7195234269183155e+00 1.5621810871102204e+01 -1 0 1
459 2 1.1778471637886332e+01 6.8802648600125575e+00 1.6057766623797363e+01 -3 0 -3
230 2 5.5165851288931771e+00 9.8697515542270331e-01 1.8011468966292671e+01 0 0 -3
392 2 6.8499737345443021e+00 5.1944161094861352e+00 1.6829226820414476e+00 -1 0 -1
761 2 9.6155425398560528e+00 6.1920121831755566e+00 3.0734569096960200e+00 -3 0 2
932 2 3.1122268304393419e+00 7.4318345903123868e+00 8.3692340770536280e+00 -2 0 0
229 1 4.6081127496262813e+00 1.3168504411660256e+00 1.8106240650655856e+01 0 0 -3
357 2 1.4030053882379834e+00 2.2676577020176123e+00 1.2375139282320738e+01 -4 0 -4
955 1 -9.8622234402326603e-01 9.0110314072331743e+00 8.1978285643163904e+00 -2 0 -2
294 2 -9.9314693405247434e-01 3.2621765190682641e+00 1.1068959403986979e+01 0 0 -4
289 1 -4.5843432775077009e+00 8.5783398809122886e+00 1.3908634277058885e+01 0 0 2
949 1 3.9061636343594501e+00 2.7208356176393069e+00 8.1044191472343350e+00 -1 0 2