LAMMPS data file via write_data, version 3 Mar 2020, timestep = 1000000

1008 atoms
2 atom types

1.9812418413721034e-01 1.8201430815856867e+01 xlo xhi
6.5824262274704282e-02 2.2504564737721267e+01 ylo yhi
2.0136936398750827e-01 1.9304346636003899e+01 zlo zhi
7.0177481391440991e-02 -6.6663949365718125e+00 1.9249301507029026e-02 xy xz yz

Masses

1 16
2 2

Atoms # atomic

1 1 6.4943620524694490e+00 1.0196120865010823e+00 4.8665449949781800e+00 0 0 0
151 1 6.9269133378160106e+00 5.3609140763051388e-01 8.1214955583592694e+00 0 0 0
3 2 6.6362201727185344e+00 1.6629409316827592e+00 4.1730678223937385e+00 0 0 0
4 1 3.6326921602207420e+00 9.5977257865591570e-01 4.8336024362717458e+00 0 0 0
482 2 3.0304220190662556e-01 1.1126841798195877e-01 2.0078652054994288e+00 0 0 0
6 2 3.5810919680750422e+00 1.5045270178307051e+00 5.6691835080089019e+00 0 0 0
7 1 -5.5773615503897933e-01 6.6420722551075180e+00 5.1168103769162174e+00 0 0 0
8 2 -6.5530635275846172e-01 6.3462403473843185e+00 6.0093636819804752e+00 0 0 0
9 2 -1.0494187930132370e+00 7.5034316752404253e+00 4.9880521535068176e+00 0 0 0
10 1 2.1983775265047565e+00 6.4207795247861954e+00 4.5542893394957398e+00 0 0 0
11 2 1.2747097702202936e+00 6.7383168238750661e+00 4.7715796269345176e+00 0 0 0
12 2 2.8056810379083199e+00 7.1240043238229216e+00 4.7977661501503874e+00 0 0 0
13 1 5.1208335349485932e+00 4.6181457589404946e+00 9.6290251452963229e+00 0 0 0
14 2 4.9919712029028336e+00 4.9674716655862321e+00 8.7343815804741300e+00 0 0 0
667 1 1.2508188327919370e+01 1.5569714737988671e+00 9.7362790477067076e+00 0 0 0
521 2 2.3602519357579248e+00 5.3753903163141183e+00 9.2435942675931067e+00 0 0 0
18 2 5.7799646821306627e+00 5.2057093683309485e+00 9.1542642508642103e-01 0 0 0
219 2 6.0287797296496075e+00 1.0462657897068476e+01 6.8705015176251942e+00 0 0 0
24 2 -3.6188053586899516e-01 3.0922243610357523e+00 9.4746698784168437e+00 0 0 0
21 2 9.5066298550902739e-01 2.4808657804886209e+00 1.0064980702292443e+00 0 0 0
248 2 7.6479395439711793e+00 8.1289676517396110e+00 4.8680955404268927e-01 0 0 0
106 1 9.5457607708428043e+00 2.7606566590958068e+00 9.4375982054343979e+00 0 0 0
311 2 1.0879709809975925e+01 1.1229235658717844e+01 5.8909405372977970e+00 0 0 0
25 1 4.8190276704935400e+00 6.1026242174628607e+00 7.3119110314427065e+00 0 0 0
26 2 5.5206038246138913e+00 6.7503713614271703e+00 7.5854504009659278e+00 0 0 0
27 2 3.9508411944162387e+00 6.4916259561773160e+00 7.6004975854149004e+00 0 0 0
28 1 5.8924748392481536e+00 6.2249229056835160e+00 2.5531311033091639e+00 0 0 0
29 2 5.6686017749077742e+00 5.7733340241795670e+00 3.4675118909966556e+00 0 0 0
30 2 5.1309445402338323e+00 6.8256520059108485e+00 2.2553629973500042e+00 0 0 0
31 1 1.3503702760927787e+00 1.3414119766183099e+00 2.2518902335981386e+00 0 0 0
32 2 2.2673544792485529e+00 1.0482397948161553e+00 2.3396954611690104e+00 0 0 0
33 2 1.1883826391078751e+00 1.6602216063715427e+00 3.2022008439008443e+00 0 0 0
34 1 4.2422792138814591e-01 9.5685678938544738e-01 7.1623536027807191e+00 0 0 0
35 2 -5.1675858734830804e-01 7.3117450787685978e-01 7.3342930434834210e+00 0 0 0
36 2 6.6760911938676237e-01 1.4216290336822337e+00 7.9530331731165225e+00 0 0 0
37 1 6.2004160995869064e+00 2.8323593912558391e+00 2.6376403755580737e+00 0 0 0
38 2 5.3016258268461867e+00 3.1291229985695743e+00 2.8570932293567544e+00 0 0 0
39 2 6.8423136130050031e+00 3.5786722488658649e+00 2.7691358191168769e+00 0 0 0
40 1 4.0518619586402149e+00 2.4813112998936062e+00 7.0235194869004394e+00 0 0 0
41 2 5.0237525661895148e+00 2.6929066468126903e+00 7.1007023649394636e+00 0 0 0
42 2 3.4797001239720515e+00 3.2777470261010091e+00 6.9617855578560297e+00 0 0 0
43 1 -1.0851840722155170e-01 4.9266875316502068e+00 7.3129308954861987e+00 0 0 0
44 2 -6.9559919901951228e-01 4.1175306755060097e+00 7.2575749649921972e+00 0 0 0
45 2 -2.8188936549360255e-01 5.3048390715005027e+00 8.2677689015184139e+00 0 0 0
46 1 1.7095504582090881e+00 4.8137721962155062e+00 2.4284669106337486e+00 0 0 0
47 2 7.8616028398298521e-01 4.6481656425115077e+00 2.6328638647189075e+00 0 0 0
48 2 2.0105848984794310e+00 5.5133257457300191e+00 3.0197917787750197e+00 0 0 0
49 1 6.5228891450222992e+00 3.2044933311145836e+00 6.6627517381264196e+00 0 0 0
50 2 6.1238505193314676e+00 3.8455766562394245e+00 6.0743222917520905e+00 0 0 0
51 2 6.5720422744399016e+00 2.4287569447597424e+00 6.0905033804422004e+00 0 0 0
52 1 3.8321563230721085e+00 3.4007859140902807e+00 3.5820782814421630e+00 0 0 0
53 2 3.0616060683060109e+00 3.6709400428039407e+00 2.9692164119297253e+00 0 0 0
54 2 3.5052739943795705e+00 2.4833547770620354e+00 3.8929988058987961e+00 0 0 0
55 1 -8.3781687591748510e-01 4.4537534639877618e+00 3.5265978781674332e+00 0 0 0
56 2 -9.5857005059860900e-01 5.2820563939981904e+00 4.0695756063510711e+00 0 0 0
57 2 -4.9146276979394499e-01 3.7879776726705843e+00 4.1921019530690256e+00 0 0 0
58 1 2.3086764197803622e+00 4.3268295491418556e+00 6.0941312422477720e+00 0 0 0
59 2 2.4244563052265891e+00 5.0599580878385657e+00 5.4653789906741146e+00 0 0 0
60 2 1.7165310122408997e+00 4.7887977623085556e+00 6.6827264851539425e+00 0 0 0
61 1 8.3710570466381320e+00 7.1292541772012914e+00 1.6754085548107598e+00 0 0 0
62 2 7.5014386106550948e+00 6.9590240077243060e+00 2.0346761964749289e+00 0 0 0
63 2 8.5631418718300498e+00 6.2783415740135018e+00 1.1597823423324880e+00 0 0 0
64 1 2.5960020692315635e+00 6.9372528500814212e+00 8.3905312217570103e+00 0 0 0
65 2 1.7570691685660220e+00 7.3391016229026702e+00 8.0342782456986139e+00 0 0 0
66 2 2.7931969473314484e+00 7.5517747923418019e+00 9.1692858829871433e+00 0 0 0
221 2 4.4356879507450788e+00 1.0370163106803037e+01 2.7618829724098037e+00 0 0 0
68 2 -2.4068070388805451e+00 1.2692981080019601e+00 8.5405183647805067e+00 0 0 0
84 2 3.0348962861984465e+00 6.6382088620568638e+00 6.4137917084345519e-01 0 0 0
72 2 4.1298483127819976e+00 1.3223565118323921e+00 1.1132857143442818e+00 0 0 0
73 1 5.4001572493405465e+00 5.0391948541718428e+00 4.9574410283232426e+00 0 0 0
74 2 5.1265618760130813e+00 5.4919715282392820e+00 5.7700025671607476e+00 0 0 0
75 2 4.6247926667857335e+00 4.5055033793675401e+00 4.6414150633382656e+00 0 0 0
76 1 6.9283917609897094e-01 2.2940001812944040e+00 4.5861313589668180e+00 0 0 0
77 2 8.3722704671789705e-01 1.7592857379906970e+00 5.3391369725169406e+00 0 0 0
78 2 1.3756949461425505e+00 3.0043940758055978e+00 4.7138395686503491e+00 0 0 0
218 2 7.5158722467526058e+00 1.1193247209293027e+01 6.6792384519758841e+00 0 0 0
70 1 3.9845512875727902e+00 6.0665860767422397e-01 1.7738520051118059e+00 0 0 0
290 2 1.5972874503200053e+01 1.0499734872257234e+01 2.7545716625624661e+00 0 0 0
85 1 1.5512292703758595e+01 1.3878874171331348e+00 4.7486139383927144e+00 0 0 0
87 2 1.5628792591617083e+01 1.8414968974173340e+00 3.8665567753848835e+00 0 0 0
88 1 1.2798330023469324e+01 1.0056773162753188e+00 4.8333020837128942e+00 0 0 0
89 2 1.2666640085503431e+01 1.8560104172977077e+00 4.3541165438412683e+00 0 0 0
90 2 1.3730816470841461e+01 8.7465608374935078e-01 4.7737370547504652e+00 0 0 0
91 1 8.3214039509377571e+00 6.8962685609140539e+00 5.0063896076150645e+00 0 0 0
92 2 8.2099623432924922e+00 6.1840162863458916e+00 4.2904580641810730e+00 0 0 0
93 2 9.2833496008176564e+00 7.0697755400821087e+00 4.8527377670182599e+00 0 0 0
94 1 1.0944256331165127e+01 6.5847386191835096e+00 4.7652731597985847e+00 0 0 0
95 2 1.1669545201138332e+01 7.2832204917128971e+00 4.7475253036264009e+00 0 0 0
96 2 1.1223006274906620e+01 6.0816087561313381e+00 5.5330702517216723e+00 0 0 0
22 1 5.5098811081372068e-01 2.7090285887479317e+00 9.3365409074836432e+00 0 0 0
189 2 1.9747704415260363e+00 1.0351591861957630e+01 4.4814830779384213e-01 0 0 0
274 1 9.5815073311593437e+00 1.0301862362744520e+01 9.5826082292081729e+00 0 0 0
101 2 1.4354909145357345e+01 5.6388070626388860e+00 1.1755835994862149e+00 0 0 0
209 2 3.7357476535463294e+00 1.0516300236790594e+01 7.3837793584883507e+00 0 0 0
117 2 9.6858779134033259e+00 6.3067832099887466e-01 2.5302305426078195e+00 0 0 0
583 1 3.8584080057099257e+00 1.3236453391094762e+00 9.4584563636813339e+00 0 0 0
109 1 1.3796112014737055e+01 6.7157706923855800e+00 7.1077910665720214e+00 0 0 0
110 2 1.3988925756158505e+01 6.0977540705283531e+00 7.8295626690912989e+00 0 0 0
111 2 1.2885194029277915e+01 7.0221035184623632e+00 7.2656693079005388e+00 0 0 0
112 1 1.4719371089378839e+01 6.7705838530027158e+00 2.5424772345528650e+00 0 0 0
113 2 1.4124121659653072e+01 7.5636182881620284e+00 2.3269361939342548e+00 0 0 0
114 2 1.5618876472909003e+01 7.0300205967817577e+00 2.6366492983483183e+00 0 0 0
115 1 1.0397287585682012e+01 1.2386918841113637e+00 2.7568769966723448e+00 0 0 0
116 2 1.0287500422211068e+01 1.9287997906476286e+00 2.0386238662850804e+00 0 0 0
776 2 7.5917987541687904e+00 1.0645785633066350e+01 9.6319412491479817e+00 0 0 0
118 1 9.4883254772602577e+00 1.0515926835410356e+00 7.2522202740043111e+00 0 0 0
119 2 9.8226570399762316e+00 1.7871710574846382e+00 7.8923170222634305e+00 0 0 0
120 2 9.5914277566244905e+00 1.4641794514925748e+00 6.4072287369007386e+00 0 0 0
121 1 1.5530734861696317e+01 2.8366503117973410e+00 2.6138278030773456e+00 0 0 0
122 2 1.6066517320173077e+01 3.6201427907807289e+00 2.6720883781261611e+00 0 0 0
123 2 1.5583099581720035e+01 2.5057330765050652e+00 1.6641642698964714e+00 0 0 0
124 1 1.2964379997281398e+01 2.6314303349398336e+00 7.3677131530760835e+00 0 0 0
125 2 1.3868077825459237e+01 2.9698524106845441e+00 7.1710377536492906e+00 0 0 0
126 2 1.2813601162547867e+01 2.0278459549280337e+00 6.6551824011543701e+00 0 0 0
127 1 8.5279991219086817e+00 5.0449557132470932e+00 7.1462950044586089e+00 0 0 0
128 2 7.8725145275396358e+00 4.3796375894490209e+00 6.9338311367720404e+00 0 0 0
129 2 8.4565313526043688e+00 5.6570743111328756e+00 6.4105657196692789e+00 0 0 0
130 1 1.0852800466900371e+01 5.1672869411127689e+00 2.3969982577727067e+00 0 0 0
131 2 1.1449651543249853e+01 4.4489278947886470e+00 2.6015061831729382e+00 0 0 0
132 2 1.0815402715251548e+01 5.7595191192638984e+00 3.2042992779366797e+00 0 0 0
134 2 1.5279479739049359e+01 4.0094148580110556e+00 5.8223926501835930e+00 0 0 0
136 1 1.2813612071806842e+01 3.3837456788284594e+00 3.2224547966776806e+00 0 0 0
137 2 1.3129209506899306e+01 4.1428781822014642e+00 3.7356816593001132e+00 0 0 0
138 2 1.3630512302531230e+01 3.0094914355414755e+00 2.8209850920518980e+00 0 0 0
139 1 8.1944841279675487e+00 4.6120716977631719e+00 3.3352220120158216e+00 0 0 0
140 2 8.8744775593038518e+00 4.7697995592844968e+00 2.6722197820204197e+00 0 0 0
141 2 8.5599359009778677e+00 3.9124138904905803e+00 3.9776785740929883e+00 0 0 0
142 1 1.1170308136099226e+01 4.4056957406435151e+00 6.4008903670435755e+00 0 0 0
143 2 1.1838428424579909e+01 3.9680337106397232e+00 6.9388613925512628e+00 0 0 0
144 2 1.0407721585039374e+01 4.6239627622416810e+00 6.9325858009922001e+00 0 0 0
147 2 1.7248964151709817e+01 7.6340683533497895e+00 1.1377598052458988e+00 0 0 0
148 1 1.1237929164590719e+01 7.2693190278142445e+00 8.3158461668521184e+00 0 0 0
149 2 1.1097510675680855e+01 6.3741837421801151e+00 8.6667081368724155e+00 0 0 0
150 2 1.1582110416850373e+01 7.7091050550559377e+00 9.1009360858250741e+00 0 0 0
486 2 1.1967418822708209e+01 2.9983924829813102e-01 8.8765605346552778e+00 0 0 0
606 2 1.0685711725227044e+01 4.0705296203999373e+00 9.5421670628409601e+00 0 0 0
153 2 6.6425050287605627e+00 1.3201773233867489e+00 8.6414442306001451e+00 0 0 0
330 2 9.1671735911905792e+00 1.0556203933602262e+01 4.5716969307730118e+00 0 0 0
155 2 1.3009536928149165e+01 9.9330541985535503e-01 1.3170809660666845e+00 0 0 0
102 2 1.3748488727300229e+01 4.4769181459289369e+00 3.8237705211126249e-01 0 0 0
157 1 1.3968007601438625e+01 5.2995279399966240e+00 4.8179739862841773e+00 0 0 0
158 2 1.4287998247829453e+01 5.8262982108729613e+00 4.0743134403018839e+00 0 0 0
159 2 1.3831253496969831e+01 5.8725488169208848e+00 5.5669380322271023e+00 0 0 0
160 1 9.4453607452451358e+00 2.7605756930524512e+00 4.9600917872616241e+00 0 0 0
161 2 1.0063549899426008e+01 3.3423997692375611e+00 5.4634089039200546e+00 0 0 0
162 2 9.8477920138399178e+00 2.3942787633228124e+00 4.1357790837290604e+00 0 0 0
222 2 2.9872494197275841e+00 1.1087732782087961e+01 2.7518564245730057e+00 0 0 0
399 2 7.9512837331558393e+00 3.6921319684034953e-01 1.1588901912188687e+00 0 0 0
5 2 4.5999517256872648e+00 7.5677498309160440e-01 4.7487316391013490e+00 0 0 0
169 1 6.6559165355108743e+00 8.8011232175861398e+00 4.4919621536484016e+00 0 0 0
170 2 7.3457252436297509e+00 8.0936901041337688e+00 4.6313188822926383e+00 0 0 0
171 2 6.8837337966653314e+00 9.4932930483404796e+00 5.1317693314818031e+00 0 0 0
172 1 3.8910311906231838e+00 8.4722429836719773e+00 5.1620844807693471e+00 0 0 0
173 2 3.5484645452440611e+00 9.2528162862312673e+00 4.6599823932670645e+00 0 0 0
174 2 4.8503287706828644e+00 8.4845146888534391e+00 4.9180108209701334e+00 0 0 0
133 1 1.5580830528631825e+01 3.4412873057604005e+00 6.5222424451334833e+00 0 0 0
67 1 -2.1578887741024042e+00 4.7205146830883027e-01 8.0130465795511299e+00 0 0 0
302 2 1.4909283414198097e+01 1.0651585968569114e+01 7.2007850712467443e+00 0 0 0
192 2 9.2547374376018388e-01 9.8290127641372891e+00 8.8043426947763610e+00 0 0 0
199 1 1.2822964366855896e+00 8.6441418271311381e+00 2.7771734590961068e+00 0 0 0
200 2 1.2231139649945155e+00 9.2930719562757851e+00 2.0386212830119153e+00 0 0 0
201 2 7.5860617085304127e-01 7.8707975305965983e+00 2.4114908655897747e+00 0 0 0
202 1 3.6923032657476051e-01 8.6522811624169442e+00 7.4980688126205042e+00 0 0 0
203 2 -6.0215649450419728e-01 8.6263635355933932e+00 7.5699391045628461e+00 0 0 0
204 2 4.7122043013903792e-01 9.0110976095746675e+00 6.5701895234311678e+00 0 0 0
205 1 6.3148332229114814e+00 1.0203082545961179e+01 2.4646570078475030e+00 0 0 0
206 2 6.5137461375574137e+00 9.5929177306411582e+00 3.2406078971668681e+00 0 0 0
207 2 6.3716256866970795e+00 9.6416249087936254e+00 1.6500142438593135e+00 0 0 0
208 1 4.4011811604547004e+00 9.8215576602948076e+00 7.5515650933150607e+00 0 0 0
237 2 1.5165769130076011e+01 7.7498895039601807e+00 7.9055212790746916e+00 0 0 0
210 2 4.1028436692347778e+00 9.1056411865747471e+00 6.9351847587801911e+00 0 0 0
254 2 1.5681441005593838e+01 9.6390057856144544e+00 5.4659273813623672e+00 0 0 0
610 1 1.2770946445346814e+01 2.5487104280696817e+00 2.2131200413363739e-01 0 0 1
187 1 9.6482953540092187e-01 1.0236287715290064e+01 4.5307838764788722e-01 0 0 0
167 2 1.0965619468369892e+01 5.9114592631846996e+00 9.0654528281893942e-01 0 0 0
145 1 1.7444818923979380e+01 6.9349730941581305e+00 1.7695964287496679e+00 0 0 0
235 1 -2.0791599822025488e+00 7.9567114920760176e+00 8.4778044628086171e+00 0 0 0
236 2 -2.2302000059452380e+00 8.7555506066908677e+00 9.0440362819459992e+00 0 0 0
238 1 3.6650470484034949e+00 7.8752318221292059e+00 1.5805415932472826e+00 0 0 0
239 2 3.0334559665083258e+00 8.0984383190243925e+00 2.2672138463218019e+00 0 0 0
240 2 3.8451017925301527e+00 8.8072480307020822e+00 1.2062998867821371e+00 0 0 0
244 1 6.5297801270199596e-01 9.7948053587137345e+00 4.9288430235025302e+00 0 0 0
245 2 8.5840234626804657e-01 9.2816060108269394e+00 4.1180454414288263e+00 0 0 0
246 2 1.4115885800538499e+00 1.0309853564314642e+01 5.2639595055864090e+00 0 0 0
668 2 1.2678732685349477e+01 2.0895696816780123e+00 8.9515439362996982e+00 0 0 0
253 1 1.5605132339921374e+01 8.8408245354521178e+00 4.9008557897081806e+00 0 0 0
255 2 1.5462316988334331e+01 9.2718040613856694e+00 4.0262153850607287e+00 0 0 0
256 1 1.2942192433178212e+01 8.5250220455518875e+00 5.1101464083923966e+00 0 0 0
257 2 1.3959396940297761e+01 8.3612624491483167e+00 5.0704844779250289e+00 0 0 0
258 2 1.2737257934550833e+01 9.2819735503267662e+00 4.5135682483703610e+00 0 0 0
304 1 1.2905186717675916e+01 1.0788752800995894e+01 3.4821227309482992e+00 0 0 0
272 2 1.0095383237190422e+01 9.8201869979881629e+00 9.3213842164242677e-01 0 0 0
585 2 3.9696816989446946e+00 1.7791754928862096e+00 8.6074533068650041e+00 0 0 0
276 2 9.6524339048883654e+00 9.8786137850993931e+00 8.7272232644426566e+00 0 0 0
283 1 1.0366480613899686e+01 8.7996713831246343e+00 2.5300982178778075e+00 0 0 0
284 2 1.0202538682182379e+01 9.2350072166290840e+00 3.4260152341750754e+00 0 0 0
285 2 9.5701164789633228e+00 8.2348598799208315e+00 2.3473066863111733e+00 0 0 0
286 1 9.3203068493340027e+00 8.8182589750101652e+00 7.2505853632921298e+00 0 0 0
287 2 9.9916103102873066e+00 8.1407483421788314e+00 7.5409809671220343e+00 0 0 0
288 2 8.4635522928856481e+00 8.3057085211762018e+00 7.3004880961031251e+00 0 0 0
289 1 1.5292880282453471e+01 9.8789901867476075e+00 2.4351415660293210e+00 0 0 0
80 2 6.3117978038432687e+00 1.9488662568008843e+00 1.1487896827539064e+00 0 0 0
291 2 1.5546646015087637e+01 9.6579434948676433e+00 1.5311039323541873e+00 0 0 0
292 1 1.3137389859502587e+01 9.9666697080688031e+00 7.6227412130093368e+00 0 0 0
217 1 6.7146045672465231e+00 1.0811992670943573e+01 6.2783181324304262e+00 0 0 0
294 2 1.2781492076970766e+01 9.4891388282407050e+00 6.8331344761220416e+00 0 0 0
104 2 9.5752865451255360e+00 3.6224949657619350e+00 3.5002315005312551e-01 0 0 1
753 2 4.0282099805098524e+00 9.5666936125527560e+00 9.3190611214186916e+00 0 0 0
306 2 1.3550996481422104e+01 1.0494909820916266e+01 2.8677904796242202e+00 0 0 0
224 2 -2.3623605877478460e-01 1.0933973301655442e+01 4.1423955282306428e+00 0 0 0
319 1 6.6766865266503110e+00 7.9474303439513241e+00 8.1524596097777895e+00 0 0 0
320 2 6.5632548761934686e+00 8.8028023468426646e+00 8.5806917922132246e+00 0 0 0
321 2 7.3338877427366249e+00 7.3997949710984114e+00 8.7420430544449808e+00 0 0 0
322 1 1.2762394604387085e+01 8.1822726251001630e+00 1.4535689350333656e+00 0 0 0
323 2 1.1962174003315642e+01 8.3664409432093603e+00 1.9399021142341160e+00 0 0 0
324 2 1.2474512390446108e+01 7.3726048131998834e+00 8.9285977675113926e-01 0 0 0
328 1 9.8167349868385045e+00 9.8564364341187272e+00 4.8462319390508277e+00 0 0 0
329 2 9.6099376873258766e+00 9.4522585750598935e+00 5.6895433658135861e+00 0 0 0
152 2 7.8423534203901593e+00 7.5085655786462113e-01 7.7472313933548662e+00 0 0 0
190 1 9.2553870321304954e-01 1.0219393858588475e+01 9.7326298426778681e+00 0 0 0
220 1 3.7145532569537787e+00 1.0709166665031020e+01 3.3349782497757441e+00 0 0 0
154 1 1.2781086839759000e+01 2.2294913263415320e-01 1.8359690625276446e+00 0 0 0
99 2 1.3151826526906705e+01 4.7737868750369925e+00 9.3371207873207602e+00 0 0 0
146 2 1.7603543514589461e+01 6.1751709526170533e+00 1.2173563665959930e+00 0 0 0
780 2 1.3082415136425478e+01 9.6093213882109474e+00 5.1688772210999634e-01 0 0 0
301 1 1.5601568746207032e+01 1.1130645318257997e+01 6.7310649426804368e+00 0 0 0
671 2 8.6376755226974815e+00 5.9864608498017979e+00 8.6896797919518391e+00 0 0 0
83 2 2.1506018496870807e+00 5.3703198765850768e+00 7.7007019155097867e-01 0 0 0
156 2 1.1928639102207860e+01 4.1898736081974297e-01 2.3534850585743916e+00 0 0 0
135 2 1.5775274324573047e+01 2.6299608045595666e+00 6.0482235207761281e+00 0 0 0
2 2 7.2302779454691901e+00 3.3432942259451293e-01 4.7834704816049323e+00 0 0 0
836 2 1.2879789073062858e+01 9.2952100025374662e+00 9.2827460368559809e+00 0 0 0
108 2 8.5563523572723277e+00 2.8628929134159375e+00 9.3391167241355024e+00 0 0 0
100 1 1.4425267407919220e+01 5.1388455389777548e+00 2.8451050390832633e-01 0 0 0
587 2 -1.2962590850869251e+00 6.5128114780836963e+00 9.5995454048830702e+00 0 0 0
584 2 3.2046421533584994e+00 6.1007866049353854e-01 9.2505546514897681e+00 0 0 0
165 2 1.6541682841466212e+01 9.6000307454915090e-01 8.4963086412937916e-01 0 0 0
293 2 1.2656734606452730e+01 1.0780858543559889e+01 7.4898971296942687e+00 0 0 0
163 1 1.5801162503129531e+01 1.4819875852147353e+00 3.9056182312821253e-01 0 0 0
79 1 6.8174684724538546e+00 1.4973145060516901e+00 3.7502095411038150e-01 0 0 1
103 1 9.9272742633254936e+00 2.7428991550338933e+00 6.5672553332543226e-01 0 0 0
86 2 1.5911005338836416e+01 5.0307993937860873e-01 4.6840118311619072e+00 0 0 0
97 1 1.4159461329826531e+01 4.8520758318006241e+00 9.3493567160049427e+00 0 0 0
604 1 1.1398591942316683e+01 4.7359360588121486e+00 9.5146630496097746e+00 0 0 0
23 2 1.1527930191958138e+00 3.3942220087803130e+00 9.6213437316546582e+00 0 0 0
670 1 8.4310966222943922e+00 6.4496340333866344e+00 9.5302899213661671e+00 0 0 0
612 2 1.1848723671357243e+01 2.7552028600700567e+00 3.6304349750824183e-01 0 0 0
524 2 -2.6847421745269884e+00 3.3536159364570022e+00 9.6283503539721824e+00 0 0 0
694 1 3.6331045055068656e+00 1.0118675130968139e+01 2.4082205238569215e-01 0 0 1
485 2 1.1026526587580152e+01 1.3705381462410762e-01 7.7053367292833492e+00 0 0 0
523 1 -2.1622190279579936e+00 2.5686931523521732e+00 9.7303965110757158e+00 0 0 0
827 2 1.0288182932786086e+01 7.4686046499847327e+00 1.1572208876978710e+01 0 0 0
693 2 -9.1048921555874163e-01 1.0477699623480886e+01 1.0149041547874129e+01 0 0 0
273 2 4.4164789564403861e+00 1.0455451832676687e+01 1.8975206816178357e+01 0 0 0
752 2 3.3164366432076315e+00 9.4229780600459563e+00 1.0793584462903137e+01 0 0 0
602 2 9.6119245675806297e+00 4.6843558338686710e+00 1.9182431449159736e+01 0 0 -1
608 2 6.0158951869117363e+00 3.1352513181448471e+00 9.9212879990612048e+00 0 0 0
620 2 6.2385709025074059e+00 3.1563287783574445e-01 1.2371234277118980e+01 0 0 0
659 2 1.0144385003793474e+01 1.6931234495504885e-01 1.1720517437829175e+01 0 1 0
777 2 6.0626888015550140e+00 1.0825614664190896e+01 9.8037937203489651e+00 0 0 0
249 2 7.6312031086708032e-01 9.2030212030621108e+00 1.8351724063336320e+01 0 0 0
658 1 9.3595301227140340e+00 5.9643185220308448e-01 1.1395524854699522e+01 0 0 0
333 2 9.0200734948502195e+00 8.0618872267111001e+00 1.8913804492982912e+01 0 0 0
105 2 2.7976269592222414e+00 2.0563994771181360e+00 1.9242504701058103e+01 0 0 0
509 2 4.3959910094129029e-02 3.1840421356612331e-01 1.4682656633790575e+01 0 0 0
778 1 6.3372494784488591e+00 1.0442994767522697e+01 1.8955901471155840e+01 0 0 0
794 2 1.2644900724173567e+01 1.0928056692583294e+01 1.2440655590597618e+01 0 0 0
837 2 1.2355567617601043e+01 9.3350655681532135e+00 1.0671887091630259e+01 0 0 0
571 1 -5.4839285810326857e+00 6.5103602721460097e-01 1.8128362473876699e+01 0 0 0
505 1 3.3782230628964305e+00 9.9855823020692536e-01 1.4111416213893540e+01 0 0 0
506 2 3.5303664053534423e+00 1.6178713236229203e+00 1.4808794749424983e+01 0 0 0
573 2 1.1638784431796086e+01 4.3687809468182953e-01 1.7704693785120384e+01 0 0 0
508 1 6.5719142872468161e-01 1.0642746227433082e+00 1.4818518158614699e+01 0 0 0
692 2 -2.4421759267176366e+00 1.0889181806888402e+01 9.9712618604354226e+00 0 0 0
510 2 1.5355628226497489e+00 7.1681118519350995e-01 1.4525390580180435e+01 0 0 0
511 1 -3.7722431195308728e+00 6.6498174920981112e+00 1.4762196121850065e+01 0 0 0
512 2 -3.6979511741296180e+00 5.8934155710183997e+00 1.4170888005626205e+01 0 0 0
513 2 -3.8191787812495637e+00 6.1005554386843404e+00 1.5602716401326504e+01 0 0 0
514 1 -1.1056716805363607e+00 6.6261776424650058e+00 1.4181935155994667e+01 0 0 0
515 2 -1.0411052366138294e+00 5.9091735819343008e+00 1.4894672097780273e+01 0 0 0
516 2 -2.0459411475171767e+00 6.9919242569231308e+00 1.4250241111031691e+01 0 0 0
507 2 4.1337254881986283e+00 3.5270121657769077e-01 1.4228599032754465e+01 0 0 0
519 2 1.8217846473048862e+00 5.6094645864767152e+00 1.8163718843457708e+01 0 0 0
835 1 1.2612512558713842e+01 8.6928652582171555e+00 9.9944578429792443e+00 0 0 0
522 2 2.1914609446903328e+00 4.9713620816427992e+00 1.0701922274291579e+01 0 0 0
331 1 9.4859863557572695e+00 8.8610499635817295e+00 1.9260775204763839e+01 0 0 -1
588 2 -1.0630231962440684e+00 5.4119334836302606e+00 1.0798256177917363e+01 0 0 0
525 2 -2.0384435688686788e+00 2.3412204661384184e+00 1.0698973809092431e+01 0 0 0
749 2 -1.9237135971730974e+00 1.0973104662749344e+01 1.5034212303346848e+01 0 0 0
527 2 -2.6364255306808406e+00 2.3761094249130954e+00 1.8215811046782491e+01 0 0 0
529 1 1.6247579971994890e+00 6.6358486396911305e+00 1.6782829238106615e+01 0 0 0
530 2 1.6668054195387052e+00 6.1663139194276155e+00 1.5915266865435092e+01 0 0 0
531 2 6.5277850821204364e-01 6.7740124987743613e+00 1.6985463272714163e+01 0 0 0
532 1 2.4018942259109695e+00 6.1450855119799659e+00 1.2064923195488099e+01 0 0 0
533 2 3.3124239319510540e+00 6.4714351117087201e+00 1.2062603452695548e+01 0 0 0
534 2 2.1516839378323471e+00 5.9559022101005867e+00 1.2958845056128251e+01 0 0 0
535 1 -1.9653991564228805e+00 1.4257514798024411e+00 1.2352287581847484e+01 0 0 0
696 2 -2.4844496219785772e+00 1.0908609967693133e+01 1.9274366937681670e+01 0 0 0
537 2 -1.1704165263113566e+00 8.3182769707858928e-01 1.2303292599685324e+01 0 0 0
538 1 -3.2161124545207080e+00 1.4666531805139018e+00 1.6988492035027740e+01 0 0 0
539 2 -4.1499466662258930e+00 1.2249311351974344e+00 1.7129531174736094e+01 0 0 0
540 2 -3.1852377187620746e+00 1.6211065089075305e+00 1.6000081901544924e+01 0 0 0
541 1 3.2288305789187186e+00 2.5849067481397183e+00 1.1788146350549274e+01 0 0 0
542 2 3.7021096307571817e+00 2.0756137108361288e+00 1.2470217594476429e+01 0 0 0
543 2 3.4490821028575045e+00 2.2843189550275773e+00 1.0895577865908910e+01 0 0 0
544 1 7.6256619412689641e-01 2.6949500727832723e+00 1.6859790074382694e+01 0 0 0
545 2 5.5033050020987151e-01 2.5523595351189607e+00 1.7807200289758818e+01 0 0 0
546 2 5.1048605915691514e-01 1.8685474058557234e+00 1.6439884759601469e+01 0 0 0
547 1 -3.7005300029561248e+00 4.8702494753993832e+00 1.6771147787491024e+01 0 0 0
548 2 -4.3833455688697338e+00 4.1809881699881908e+00 1.6560797951128983e+01 0 0 0
549 2 -4.0296056420292414e+00 5.1578027025822628e+00 1.7682636353477413e+01 0 0 0
550 1 -1.3121997508724066e+00 4.8110898420198192e+00 1.2211840764767155e+01 0 0 0
551 2 -6.6597255046051140e-01 4.1328260614359005e+00 1.2529354044263195e+01 0 0 0
552 2 -1.2000335539636104e+00 5.5444157795995892e+00 1.2887140730031200e+01 0 0 0
553 1 3.4237272744184475e+00 3.2277220166344791e+00 1.5856444956498587e+01 0 0 0
554 2 2.6830919069672712e+00 3.2529549138423342e+00 1.6460626566858181e+01 0 0 0
555 2 4.1594260492067248e+00 3.7139865498297269e+00 1.6219177411116299e+01 0 0 0
556 1 7.1810235343945195e-01 3.1798133561328781e+00 1.3041751798867706e+01 0 0 0
557 2 1.3924187130716428e+00 2.9525428088394645e+00 1.2386081908472219e+01 0 0 0
558 2 5.5283938178442149e-01 2.4216110689868557e+00 1.3725522198958215e+01 0 0 0
559 1 -4.0541772680182806e+00 4.3896833405764335e+00 1.3056378802517250e+01 0 0 0
560 2 -3.2636880839314930e+00 4.5052422771128473e+00 1.2505815590025817e+01 0 0 0
561 2 -3.7803372835403586e+00 3.6420215816438430e+00 1.3609397557256280e+01 0 0 0
562 1 -1.2677854282747605e+00 4.3144213716022568e+00 1.5931849919204575e+01 0 0 0
563 2 -5.2420566167800686e-01 3.9503705786659729e+00 1.6435338421997869e+01 0 0 0
564 2 -2.0245049208672872e+00 4.5161272607979539e+00 1.6494196417383733e+01 0 0 0
565 1 4.9153481142562105e+00 7.1149342303407375e+00 1.1612157905711493e+01 0 0 0
566 2 4.7085915931844733e+00 7.8103897537191731e+00 1.0989627796113114e+01 0 0 0
567 2 5.1170550337303897e+00 6.3335022833632202e+00 1.1074460735817704e+01 0 0 0
568 1 -9.7720778985545298e-01 7.0466553949092869e+00 1.7613232070280880e+01 0 0 0
569 2 -1.0232875754286646e+00 6.2110319093105701e+00 1.8140049386806950e+01 0 0 0
570 2 -6.4660260426715510e-01 7.7142873116145028e+00 1.8306404017021201e+01 0 0 0
82 1 -4.0438072980059632e+00 5.9204636728064486e+00 1.9196909309356101e+01 0 0 0
572 2 -5.6593671040183597e+00 1.3459693236033761e+00 1.8791733346069748e+01 0 0 0
824 2 3.0046314115879085e+00 7.5846628796189126e+00 1.7114684231102196e+01 0 0 0
81 2 -4.4561572807142724e-01 8.7685522279453398e-01 1.8988613677261377e+01 0 0 0
576 2 7.5563029179472929e-01 1.2186449957108114e+00 1.0860936570491889e+01 0 0 0
577 1 1.9779285604887891e+00 5.0772297960368364e+00 1.4427016012506208e+01 0 0 0
578 2 1.5386437032641140e+00 4.2439636285384958e+00 1.4011945588428967e+01 0 0 0
579 2 2.6792435491965678e+00 4.6503037816429833e+00 1.4918973590287401e+01 0 0 0
580 1 -2.7450978089870564e+00 2.6039627898129725e+00 1.4652633122222918e+01 0 0 0
581 2 -2.3259918130862745e+00 2.0459043652899753e+00 1.3933051902622706e+01 0 0 0
582 2 -2.0854947130157497e+00 3.1700339385017684e+00 1.5106561752275136e+01 0 0 0
833 2 6.4455618246083555e+00 9.4705554590016181e+00 1.3806823272632460e+01 0 0 0
807 2 1.2539592346109451e+01 1.0373749677661499e+01 1.5687107464110316e+01 0 0 0
589 1 1.2221929616102900e+01 1.1459393033657839e+00 1.4272422464435117e+01 0 0 0
590 2 1.1306092264985006e+01 9.4590768380394208e-01 1.4564992110453598e+01 0 0 0
591 2 1.2533296161275224e+01 1.7789444164581976e+00 1.4930711045673052e+01 0 0 0
592 1 9.2452370041709795e+00 1.0808598855299629e+00 1.4765526473029679e+01 0 0 0
906 2 -2.2069024577345568e+00 2.1326379361703629e-01 1.7716252889790866e+01 0 0 0
594 2 9.1758791968755133e+00 1.7332884456118487e+00 1.4064347061607558e+01 0 0 0
595 1 5.5159099660851778e+00 6.7910401669379041e+00 1.4571148473825357e+01 0 0 0
596 2 5.5175063943058538e+00 6.3098608935700842e+00 1.5470353858349343e+01 0 0 0
597 2 5.4412411312730811e+00 5.9855809523630459e+00 1.3908919023259104e+01 0 0 0
598 1 8.3201582672132979e+00 6.5218092392514100e+00 1.4408791425234053e+01 0 0 0
599 2 7.4099277699986628e+00 6.7061445273750619e+00 1.4599656909336190e+01 0 0 0
600 2 8.3408962253458547e+00 6.2518918839659117e+00 1.3457171060112202e+01 0 0 0
574 1 6.0961162166231819e-01 3.2046990788588048e-01 1.1216738373832538e+01 0 0 0
603 2 1.0529770280453819e+01 5.1344870270869372e+00 1.8068993209113515e+01 0 0 0
828 2 8.7840978804871757e+00 7.8576918815563470e+00 1.1709227126707308e+01 0 0 0
605 2 1.1390636595468717e+01 5.0956646064361237e+00 1.0398625416013015e+01 0 0 0
775 1 6.7977504158914455e+00 1.0203534540853635e+01 9.9481919210687622e+00 0 0 0
823 1 3.8399356611296245e+00 8.0358644982412635e+00 1.7223268907954882e+01 0 0 0
826 1 9.5749566642069901e+00 7.9305891544581621e+00 1.1132635868498818e+01 0 0 0
609 2 6.5864286721077612e+00 2.0877463822577700e+00 1.0932938161434540e+01 0 0 0
586 1 -6.8795644429326597e-01 5.8284626938687643e+00 9.9387788182600065e+00 0 0 0