LAMMPS data file via write_data, version 3 Mar 2020, timestep = 0

2016 atoms
2 atom types

0.0000000000000000e+00 1.7939600438028148e+01 xlo xhi
-1.5494781451715873e+00 4.6545638122087183e+01 ylo yhi
0.0000000000000000e+00 1.9074631697909506e+01 zlo zhi
4.6804013357072190e-02 -6.6907362778201929e+00 -2.1595687428153099e-02 xy xz yz

Masses

1 16
2 2

Atoms # atomic

579 2 2.3287703876468839e+00 3.4346518690631962e+00 1.3474177470114631e+01 0 0 0
223 1 -1.7608661181836496e+00 6.7293736606601371e+00 1.7137552394478295e+01 -2 0 -2
995 2 8.8867769160181069e+00 5.2775098478722002e+00 7.2383727781849307e+00 3 0 1
654 2 5.0120900100851440e-01 8.0257063340394001e+00 4.1017869349084473e+00 -1 0 0
394 1 8.9914726627107022e+00 5.1539765995312923e+00 2.8845396867851338e+00 -3 0 -3
578 2 2.3708061984390394e+00 4.0278030693413918e+00 1.4936117830371956e+01 0 0 0
929 2 1.5213920257899181e+01 1.3239941480016677e+00 2.2770996036547166e+00 0 0 0
513 2 7.8372289489315436e+00 -4.9954958288871398e-01 1.5801369256373063e+01 1 0 0
705 2 -4.3916737234102685e+00 6.3053399028644872e+00 1.3829863129947494e+01 -2 0 -1
302 2 8.9217874113697242e+00 7.1755579184257954e+00 8.4658084560431202e-01 0 0 0
299 2 1.1629012283912527e+01 1.2288401452566498e+00 1.7067912257058996e+01 -3 0 -2
896 2 1.5564475542918649e+01 5.9496891971244299e+00 2.8004467250370451e+00 -1 0 0
150 2 9.3705213011891857e+00 5.1437394906452854e+00 1.6365873911210809e+01 -4 0 -1
406 1 -7.8332933315117348e-01 2.1007613183489120e+00 1.0315282235422009e+01 -2 0 -2
230 2 1.9412560494937190e+00 -1.2271277682341597e+00 7.0701231525183461e+00 0 0 -2
596 2 2.1142069100927250e+00 5.1448016180873424e+00 5.5823200143821374e+00 3 0 -2
368 2 1.3863535745855353e+01 6.1607186769981048e+00 4.5061244005749437e+00 -2 0 0
992 2 1.4064307856950855e+01 -1.7420652057781760e-01 9.5477105458514391e+00 1 0 1
881 2 1.0433105653502551e+01 2.2352989700030124e+00 9.2569756041209725e+00 -3 0 2
319 1 1.0375819464441381e+01 -5.2401340320941658e-01 1.4131375033658614e+01 -4 0 -3
53 2 1.1272172410740934e+01 3.5892409683484070e+00 2.3929884208911334e-01 2 0 0
548 2 7.5376764830572380e+00 8.2470266790303395e+00 1.6741916501958656e+01 -3 0 -4
609 2 6.0291994897435091e+00 8.9915523897580663e-01 2.9295785849429965e+00 -3 0 0
1583 2 -5.2516873867033462e+00 7.9956115715880838e-01 1.5010968580425580e+01 0 1 1
122 2 8.4766708237249695e+00 5.2247733010075708e+00 1.1823103102572546e+01 -2 0 -1
295 1 2.0347666985272661e-01 9.2228638010569082e+00 2.2719004095591524e+00 2 0 3
407 2 -1.0852199340235300e+00 1.2484009082276248e+00 1.0681200881735432e+01 -2 0 -2
707 2 2.2581097527110661e+00 5.9198802463268754e+00 1.3661347104091954e+01 -1 0 -1
972 2 4.4489567179094518e+00 6.7655882013396820e+00 1.1612475196356056e+00 0 0 1
448 1 5.7264127073770243e+00 5.7397971497056988e+00 6.1276991602283273e+00 -1 0 1
244 1 8.9790206832140527e+00 7.9353132631319792e+00 1.4053213177411939e+01 -4 0 -4
991 1 1.3759329064978488e+01 -1.0725903928852745e+00 9.9015782529141756e+00 1 0 1
687 2 3.9952006018725683e-01 -3.1337657903450711e-01 8.6451800706178563e+00 -3 0 0
767 2 1.3358076463901515e+01 9.6744723665514503e+00 5.9498537220235619e+00 -4 0 -1
699 2 6.0008944318868007e+00 9.0128947566933242e+00 1.8944449907599719e+01 2 0 3
301 1 9.0201387611869741e+00 6.3097902463831916e+00 4.2108595660272752e-01 0 0 0
149 2 8.7078886197412526e+00 5.0582228725444240e+00 1.7813905977501353e+01 -4 0 -1
270 2 -1.0090406827203378e+00 9.4304598233963493e+00 1.4899235804979869e+01 2 0 -1
463 1 2.9702682731541867e+00 8.6101288387771628e+00 7.3830392511846084e+00 2 0 0
449 2 6.0428109674231596e+00 6.3434100464516359e+00 6.8610364852350427e+00 -1 0 1
524 2 1.8998315002458126e+00 5.9591358986334031e+00 1.1615696109153548e+01 -2 0 -4
585 2 -1.1791857188220853e+00 7.8057430282473916e+00 1.3469736286443208e+01 -4 0 -4
523 1 1.7263018066421809e+00 5.4886793200528849e+00 1.0758880101341598e+01 -2 0 -4
658 1 5.4648413777399956e+00 4.1310920949043766e+00 1.3058202422384346e+01 -1 0 -2
206 2 3.3340563920299831e+00 2.0554263216212578e+00 1.1774289077557590e+01 3 0 0
96 2 1.5140972596041752e+01 6.0793641711144462e+00 6.6831561242576649e+00 -2 0 -1
441 2 -8.5517389328617011e-01 3.9691736629395908e+00 1.4719250917602771e+01 -2 0 -1
151 1 8.8466965315453727e+00 1.9690182203899380e+00 1.1987095089933930e+00 3 0 0
781 1 2.4345047714936698e+00 2.3415367562980363e+00 1.2245501748244456e+00 -2 0 -2
880 1 9.9432388003783014e+00 1.4519696679176692e+00 8.9490216163637264e+00 -3 0 2
626 2 1.7304892543112844e+00 2.6759477443568844e+00 1.6512123672566926e+01 0 0 -1
526 1 4.8353738757716336e+00 -2.4274052807171764e-01 5.8041302224371432e+00 -2 0 0
703 1 -4.3907157347403327e+00 5.3580694733609402e+00 1.3979605166455690e+01 -2 0 -1
382 1 -9.5120519915918678e-01 5.3912285206896389e+00 3.9098435022069373e+00 -1 0 1
21 2 1.2093421359757983e+01 7.0459601238373750e+00 3.1426149330392295e+00 -3 0 -3
505 1 1.4140451131927442e+01 9.0341094714226760e+00 2.7767666042263084e+00 -4 0 -2
54 2 1.0188702271077165e+01 2.4823416749658875e+00 4.6463569570669178e-01 2 0 0
502 1 4.7721835688556737e+00 -9.2662973666033466e-01 9.3779968136996565e+00 0 0 -1
689 2 2.5917927154633085e+00 4.6623514547552469e-01 8.3133730952074245e+00 -2 0 0
670 1 -1.2277995585556940e+00 -7.2170455620364837e-02 7.9291180262124685e+00 -3 0 -1
392 2 -3.9178491281563721e-01 7.7237469857678587e+00 1.1391998699207521e+01 -1 0 -1
652 1 8.6351530702251034e-01 7.2381664191875945e+00 4.5982798423387283e+00 -1 0 0
52 1 4.1896522606036761e+00 2.8054238957334627e+00 1.8853945834605803e+01 2 0 -1
356 2 -3.1966228459208725e+00 5.9453189029619784e+00 1.6880663362703743e+01 -4 0 -3
477 2 6.5785924637182953e+00 2.8828513402311167e+00 1.3167276978196444e+01 -1 0 2
500 2 3.7197779088821026e-01 3.6115362934151918e+00 1.2669667002068532e+01 1 0 0
367 1 1.2885684577697504e+01 6.2081358964469908e+00 4.5183224177777062e+00 -2 0 0
806 2 1.1590631064955696e+01 3.7784110900051529e+00 7.8589697228521773e+00 -4 0 1
789 2 4.5868180911726091e+00 8.6489938504732429e+00 2.1564499113037150e+00 -2 0 0
810 2 1.0445976809171194e+01 4.2382777203127633e+00 6.1210105334404643e+00 -4 0 -1
930 2 1.4600489179294948e+01 2.3879961793870841e-01 3.3826022121247381e+00 0 0 0
702 2 4.4617465607778639e+00 7.0427299249217645e-01 1.6139006929353648e+01 -3 0 -3
501 2 1.0516462870106813e+00 4.1834041454836068e+00 1.1393471877765348e+01 1 0 0
625 1 2.2704480463734544e+00 3.4409204116965020e+00 1.6570149803968828e+01 0 0 -1
776 2 1.2513118269085206e+01 1.7218645341850758e-01 1.1377993131485339e-01 -2 0 2
101 2 4.7432538603121852e+00 6.6002711836068357e+00 1.1091581510078376e+01 -1 0 -1
384 2 -2.7829697416559240e-01 4.8920911559096094e+00 3.3471258193692366e+00 -1 0 1
245 2 9.9065371117543410e+00 8.0673238340336706e+00 1.4273609603091273e+01 -4 0 -4
622 1 -3.5080891736230453e+00 2.9562687206920062e+00 1.7691282152187934e+01 -2 0 -2
624 2 -2.6100548108868136e+00 2.8634206275243184e+00 1.7260199051262511e+01 -2 0 -2
179 2 4.6300084560284098e+00 7.0928236372188529e+00 1.7945123407969437e+01 -3 0 -1
736 1 1.2354082502497510e+01 7.2444730130328434e+00 6.9656566424443218e+00 -1 0 1
274 1 1.4073010397160777e+01 -7.9279596476338676e-01 3.0073140143428656e-01 2 0 0
925 1 1.3174637381473193e+01 -1.3928412499203080e+00 1.2851564573908714e+01 1 0 2
268 1 -1.6768565891996734e+00 9.6180335703776674e+00 1.4243420486806386e+01 2 0 -2
600 2 1.3818244891269128e+01 1.4161031270831983e+00 7.9691616792402140e+00 -4 0 1
49 1 8.3101275426348629e+00 4.3231190020996273e+00 1.0474536126587596e+01 -1 0 0
183 2 1.2073086823741415e+01 2.1410189993920503e-01 6.4797837097842130e+00 -1 0 0
464 2 3.6047182429505966e+00 9.2108493697578684e+00 7.0597796639795067e+00 2 0 0
393 2 -6.6178157000499604e-01 8.5575610248202540e+00 1.0090893010854078e+01 -1 0 -1
977 2 4.8175326911723957e+00 -6.6481527594563372e-01 1.7602441272010843e+01 -3 0 -1
671 2 -9.1755851339025418e-01 2.4948616165062920e-01 7.0060223659240926e+00 -3 0 -1
135 2 -3.3225818753977165e-01 3.3162956576836784e+00 7.3758390737800630e+00 1 0 -1
778 1 6.1337278178646644e+00 8.9160693799259096e+00 4.6323859592245453e+00 1 0 0
949 1 -4.4954096799452170e+00 -6.4386444924261610e-01 1.8993123155430354e+01 -1 0 1
598 1 1.4555728459612261e+01 1.4567047323506417e+00 8.6166501178990487e+00 -4 0 1
120 2 5.5337513218139236e+00 4.8354308023349502e+00 1.2631521073341441e+00 -2 0 -2
858 2 -2.3670237875922950e-01 7.0485869265163075e+00 7.7457355934893615e+00 -1 0 -3
640 1 -3.7962545444427542e-01 5.7114982885246093e+00 9.1848732044167978e+00 4 0 -1
753 2 -5.4062507668788520e+00 6.2720273676943403e+00 1.7074187042573630e+01 0 0 2
428 2 1.1487628762389049e+01 9.3579494230104903e+00 1.5306657662906428e+01 -1 0 -1
119 2 4.4963077165745657e+00 4.6794716407807089e+00 2.5053650025608363e+00 -2 0 -2
525 2 2.5372566426494756e+00 5.3985253055703604e+00 1.0184321794585834e+01 -2 0 -4
495 2 1.7922187579833415e+00 8.3095121983115039e+00 1.0268560105526531e+01 -3 0 -2
971 2 3.2087097729610718e+00 7.6723066297623035e+00 5.9465958271131281e-01 0 0 1
503 2 4.7409975229073451e+00 -8.4240178936248045e-01 1.0340544777355188e+01 0 0 0
212 2 7.4071813743486867e+00 2.1767215540408151e+00 6.8210139692902318e+00 -5 0 -2
701 2 3.7927544588096715e+00 2.0600292541445522e+00 1.5715320791825663e+01 -3 0 -3
5 2 5.4862829420998356e+00 1.0105601603600217e+01 5.8808127101152401e+00 1 0 0
470 2 1.4252612993175680e+01 3.1980087255604390e+00 2.4989128658258113e+00 -7 0 -2
471 2 1.4970564659160292e+01 3.3598854020950917e+00 1.2067616655629061e+00 -6 0 -2
708 2 1.0579481530056025e+00 6.9416205188354851e+00 1.3106923112842122e+01 -1 0 -1
527 2 4.1138946794001026e+00 -7.7703852400836448e-01 5.5416345700825733e+00 -2 0 0
46 1 9.9518678675235464e+00 7.0905614815771258e+00 4.7799701671240147e+00 -3 0 0
389 2 1.3660897045009003e+01 -1.1414746737564618e+00 4.5830449498671149e+00 -1 0 0
856 1 -1.7131654382806616e-02 7.6828909591962109e+00 7.0365575863500478e+00 -1 0 -3
627 2 2.8851318238568853e+00 3.2012437373599667e+00 1.7286617238802236e+01 0 0 -1
111 2 1.3279986895134863e+00 7.1368578609328992e-01 1.7441613347554583e+01 1 0 -4
869 2 1.1323550348360069e+01 4.5627597673478162e+00 1.0307316452941651e+01 1 0 0
16 1 -1.2264007444442093e+00 2.6012766696999163e+00 1.6224273293709217e+01 0 0 1
178 1 3.8560665528754523e+00 6.7436020101509957e+00 1.7468152089098535e+01 -3 0 -1
974 2 9.6075863348024626e+00 1.7303929148302433e+00 1.6702011615521776e+01 -4 0 -2
118 1 5.0228609023455064e+00 5.2597318453027828e+00 1.9508483579890377e+00 -2 0 -2
922 1 2.9528948467612484e+00 8.9433329966589596e+00 1.4129504550367828e+01 -3 0 -3
623 2 -4.1180908710584596e+00 2.3564828999867689e+00 1.7180568699156236e+01 -2 0 -2
1668 2 4.6379118918595674e+00 3.7215958316787745e+00 1.2715381888598744e+01 -1 1 -2
644 2 1.1113131310998181e+01 -1.1729113767191057e-01 1.0973088550576927e+01 -4 0 -3
458 2 -1.0592106407685369e+00 -1.9404574485107018e-02 3.1264491061709077e+00 -2 0 -2
83 2 1.4594547449381380e+01 6.2284599654191375e+00 9.3639858451493811e+00 -1 0 -3
239 2 5.8162194671047729e+00 6.9763527991427274e+00 1.3074148563264949e+01 0 0 0
716 2 6.2385226848620432e+00 2.5417836724080312e+00 4.4039526736757523e-01 1 0 2
717 2 8.6410719442689299e-02 3.8093692542033573e+00 1.8627192023365993e+01 1 0 1
240 2 5.9510814159588064e+00 5.6037647879310937e+00 1.2306179543944440e+01 0 0 0
904 1 8.9962419268635312e+00 8.3941580558819879e+00 2.2586676439234883e+00 -3 0 2
17 2 -1.7547435005024528e+00 2.1252312448003248e+00 1.5553133440842714e+01 0 0 1
779 2 5.8292541567456109e+00 9.3397274539458817e+00 3.8261342550813953e+00 1 0 0
747 2 -4.7016749032443110e+00 8.4010965251110470e+00 1.4256393296867689e+01 -2 0 0
645 2 1.0500722449131487e+01 1.1953301729243893e+00 1.1629741229876714e+01 -4 0 -3
613 1 5.2420690932136500e+00 1.1769575413275595e+00 1.1916626533918162e+00 -2 0 0
246 2 8.8057219070179968e+00 7.1901008856745783e+00 1.3418396512878097e+01 -4 0 -4
238 1 5.8752436103897709e+00 6.5830587277108368e+00 1.2184786249901325e+01 0 0 0
522 2 7.5400021454909041e+00 -6.9268495389505524e-02 1.0903969874178626e+01 -5 0 -2
715 1 6.7606243258086858e+00 3.3657004569041753e+00 4.6093123669705161e-01 1 0 2
115 1 1.1542638307375046e+01 3.4382039304356846e+00 1.3678081375152127e+01 -5 0 -5
426 2 1.2698226972149731e+01 4.5665780448268665e+00 3.7940551030922238e+00 -2 0 1
494 2 2.7219264280993132e+00 8.5999134761091014e+00 8.9965016840360885e+00 -3 0 -2
457 1 -5.0151505309483535e-01 -7.0231400444101644e-01 3.5085998244446377e+00 -2 0 -2
250 1 6.1530122021888740e+00 7.2074754075895964e+00 8.4072211723375148e+00 -3 0 2
933 2 -3.2061220168309372e+00 1.1790161612845482e+00 1.4127835108860712e+01 -2 0 -1
857 2 -2.0561915996972724e-01 8.5180326786135740e+00 7.5284288158150279e+00 -1 0 -3
868 1 1.1456160319077085e+01 3.7875631190760641e+00 9.7630065006492899e+00 1 0 0
291 2 9.0938409964545084e+00 8.5570318670233476e+00 5.5860792642373500e+00 0 0 3
18 2 -4.6606695695905920e-01 1.9774962909013496e+00 1.6523050692343759e+01 0 0 1
976 1 4.7093363206605998e+00 -8.4520944954833255e-01 1.6617819591496797e+01 -3 0 -1
504 2 4.8301452677482981e+00 2.9354759549289788e-02 9.1141825024874663e+00 0 0 -1
785 2 1.7242652236066434e+01 2.2379016918568175e+00 1.5158541418207658e+00 -4 0 -2
870 2 1.2163818149884076e+01 3.2470945426237803e+00 1.0216063414703067e+01 1 0 0
211 1 8.2167138987208173e+00 1.6443392980103342e+00 6.6870666152378258e+00 -5 0 -2
387 2 2.6152097615999099e+00 1.5224989029193647e+00 6.0461587588470813e+00 0 0 -2
345 2 -5.1211036092714490e+00 -1.4959811169817976e+00 1.6323965742935908e+01 -1 0 1
643 1 1.1097849172874637e+01 4.6763907461151089e-01 1.1731662082008519e+01 -4 0 -3
507 2 1.4550133163683656e+01 8.1400611907211360e+00 2.6667284533665119e+00 -4 0 -2
962 2 2.6178509185826027e-01 -7.2446982366961177e-01 1.4397521951977664e+01 -3 0 -1
269 2 -1.2103030451423202e+00 1.0062533912630427e+01 1.3483005606626827e+01 2 0 -1
116 2 1.2207874792604191e+01 2.8035526482796893e+00 1.4027246844169047e+01 -5 0 -5
224 2 -9.8602422878311113e-01 6.1737440070834246e+00 1.7351267397530748e+01 -2 0 -2
845 2 7.2395419414427877e+00 4.2327220674593113e-01 1.2875313270549876e+01 1 0 1
48 2 1.0003913262373583e+01 6.5691746146663519e+00 3.9361399352728212e+00 -3 0 0
117 2 1.2012149172908206e+01 4.2862309225983708e+00 1.3517282444294421e+01 -5 0 -5
931 1 -2.2856110045688953e+00 9.1762927305592434e-01 1.4274890464143850e+01 -2 0 -1
429 2 1.1696114489211499e+01 7.8546660886612134e+00 1.5746374070311242e+01 -1 0 -1
385 1 2.1366036858424922e+00 1.7848618515889250e+00 5.2285013303403503e+00 0 0 -2
872 2 5.8424931795431601e+00 -1.5061651672811127e+00 6.3058601588813463e+00 -2 0 -1
961 1 1.1035267558822959e+00 -2.7551836190921275e-01 1.4566913017832402e+01 -3 0 -1
42 2 3.0428525736438035e+00 6.7579893534909647e+00 7.4145349214520460e+00 -2 0 3
726 2 1.4671644619553742e+01 4.0616523735735832e+00 8.2335194713088740e+00 1 0 1
876 2 1.3533226829022782e+01 8.0089191888517455e+00 1.2135820598058585e+01 -3 0 1
769 1 -2.5923687721333395e+00 4.2210363955791896e+00 1.0259117666147754e+01 1 0 -3
1002 2 8.0163717670964516e+00 2.0187976867923263e+00 3.7311543483233347e+00 -1 0 1
851 2 1.3393125909159506e+01 1.0114590268513494e+01 1.1860801696807309e+01 0 0 1
905 2 9.9072953763320033e+00 8.1227133757488232e+00 2.5430408157676672e+00 -3 0 2
41 2 4.0998117846105373e+00 5.9576980148473435e+00 6.5946080221837322e+00 -2 0 3
290 2 7.6646480759364755e+00 9.1341292922944088e+00 5.3694945977020758e+00 0 0 3
812 2 9.2939906407980022e+00 3.3076577892404933e+00 1.1399243302876165e+01 -2 0 -1
932 2 -2.0224607915500248e+00 1.0207439720871152e+00 1.3357121250479928e+01 -2 0 -1
760 1 1.5607345125553156e+00 -3.2010794603832049e-01 1.8934477989288446e+01 -3 0 1
213 2 8.8552815246764744e+00 1.8719068979119418e+00 7.4197184821374371e+00 -5 0 -2
277 1 6.3600518785024676e+00 1.0016013667862277e+01 9.0168541551319343e+00 -4 0 -1
838 1 1.6034133238056416e+01 1.0339225581746774e+01 1.3743402593560767e+00 -1 0 -2
338 2 3.8475959839318361e+00 6.5589498105141697e+00 3.8498745004692703e+00 -1 0 -1
938 2 1.5192504776393189e+01 8.5073658747651351e+00 5.5489414403506201e+00 1 0 1
969 2 3.0581975198386186e+00 4.3067459341741428e+00 8.2139468381010641e+00 -1 0 1
545 2 3.4206700139650410e+00 1.0718375953633599e+00 1.3752403828215860e+01 2 0 1
386 2 1.9130701572355622e+00 2.7131592799071500e+00 5.2482219761579936e+00 0 0 -2
937 1 1.4775071830844855e+01 9.3461297161674217e+00 5.3535812971319805e+00 1 0 2
40 1 3.1949841843810702e+00 5.8957657518659223e+00 6.9906648255967569e+00 -2 0 3
786 2 6.4908437331951863e-01 1.4234979677617661e+00 1.4104972330808636e+00 -3 0 -2
164 2 1.0382098615452822e+01 1.0082384658991437e+01 1.0782453188832987e+01 2 0 1
724 1 1.4485743676166715e+01 4.3983908856881282e+00 7.3643022077941369e+00 1 0 1
784 1 -3.0827441992107396e-01 1.3240928373274272e+00 1.4825959784124518e+00 -3 0 -2
967 1 2.8571813177159346e+00 3.4778848980750956e+00 8.7071462619816238e+00 -1 0 1
553 1 1.1245874752296849e+01 4.0551710641122458e+00 1.8918380289091772e+01 -5 0 -2
681 2 6.2752568634009238e+00 3.8267828346164778e+00 1.6070273508341280e+01 -3 0 -3
919 1 1.0899524965328002e+01 -1.0543106567268721e+00 9.4629611793936999e+00 0 0 -2
650 2 7.9213503390472981e+00 -5.4540811294245994e-01 3.2340025997846631e+00 -4 0 0
51 2 7.4087416350210606e+00 3.9578938139193180e+00 1.0484495601227549e+01 -1 0 0
36 2 5.5906425699869566e-01 1.0363021069162417e+00 5.5416675005667146e+00 -1 0 0
945 2 5.1063288745178701e+00 2.3473318037838000e+00 4.1962284161773464e+00 0 0 3
673 1 1.5861802629198078e+00 8.5633272698821372e+00 1.0279236325518970e-01 0 0 -3
939 2 1.4619135840245674e+01 9.3247933049200409e+00 4.3580694128671418e+00 1 0 1
397 1 -1.0298834132474695e+00 3.3262214626825211e+00 5.9561421967819408e+00 3 0 0
127 1 1.2151096882660893e+01 4.9759917694881786e+00 9.7428978978310377e-01 -2 0 -1
128 2 1.2165818610042058e+01 4.3948785616179382e+00 1.7849128388669444e+00 -2 0 -1
1407 2 -6.2119779538981224e-01 3.9662124966783079e+00 5.3398714513522449e+00 3 0 0
34 1 -3.6018979493164127e-01 7.9721703742913608e-01 5.6249644931549572e+00 -1 0 0
928 1 1.5147654519090310e+01 3.7652697711702454e-01 2.6032231771062144e+00 0 0 0
777 2 4.5924158178237322e+00 1.0580642421190478e+00 1.8940224394594939e+01 -2 0 1
152 2 8.1757987330503283e+00 2.5655602461706311e+00 8.7368121794612041e-01 3 0 0
439 1 -9.8261796667733714e-01 4.3211892926300557e+00 1.3845150994307975e+01 -2 0 -2
350 2 6.8691242799056447e+00 4.5029045604354421e+00 1.9000806376862908e+01 2 0 3
320 2 9.6260075955195141e+00 -1.1412866938109785e+00 1.3990050019838106e+01 -4 0 -3
176 2 4.0127956124124866e+00 -4.8105022462027525e-01 1.2272654165289609e+01 -5 0 1
783 2 2.6557788316069444e+00 2.7803687483493427e+00 3.2808484226024431e-01 -2 0 -2
148 1 9.3380417299300333e+00 5.5334997380392101e+00 1.7256660024768607e+01 -4 0 -1
994 1 8.6164953754839253e+00 5.5945774343770172e+00 8.1378751558214777e+00 3 0 1
725 2 1.5029034133015358e+01 3.8172058698701870e+00 6.7553211403627280e+00 1 0 1
160 1 -1.6486631065087691e+00 8.9011608508408742e+00 8.7759942903030357e+00 1 0 -5
129 2 1.1845856477126123e+01 5.8281727503251037e+00 1.3271176641287548e+00 -2 0 -1
335 2 8.9541249847396465e+00 9.4944295909945104e+00 7.2913275704089342e+00 -2 0 -2
173 2 1.0029327977701005e+01 3.7502972821375549e+00 1.4734012177236444e+01 -1 0 -2
1664 2 1.5126244406495735e+00 9.1268164973867076e+00 1.6598808646556531e+01 -3 1 -1
993 2 1.2896798644749321e+01 -1.2101093087092014e+00 9.4527113303026180e+00 1 0 1
761 2 6.3769130110332206e-01 -6.3681692933934031e-01 1.8960703701572442e+01 -3 0 1
462 2 1.0926436368639948e+01 6.4400133806593738e+00 1.0332815659526402e+01 -4 0 -2
559 1 8.4063601501889682e+00 -8.8514142707498955e-01 7.7687483002708975e+00 -2 0 1
996 2 7.8250266616997397e+00 6.1661260572616996e+00 8.0807124754719712e+00 3 0 1
611 2 1.3654403114875976e+01 2.3530531540046460e+00 1.1697402299216240e+01 -1 0 2
950 2 1.5021276641441970e+00 -1.2577548215726728e+00 1.1011327493168001e-01 -1 0 2
709 1 9.4576881980770846e+00 9.9618802274103082e+00 2.3436956747563331e-01 -3 0 -1
749 2 4.7050794165403129e+00 9.4088809330510017e+00 1.3848762343706158e+01 -3 0 1
102 2 3.7527643206664738e+00 7.3223160819263207e+00 1.0037310094924591e+01 -1 0 -1
497 2 5.5855258646839197e+00 3.1117850766590127e+00 7.9653271552704510e+00 0 0 1
498 2 5.9089791161718193e+00 3.8973805215099988e+00 6.6701135212913201e+00 0 0 1
395 2 8.9229555370018474e+00 5.4168571150717675e+00 1.9115871939525568e+00 -3 0 -3
924 2 2.8002921477213008e+00 8.0645247370851170e+00 1.3824393668241429e+01 -3 0 -3
349 1 7.7311040480789099e+00 4.1419570767652818e+00 1.8639488725284448e+01 2 0 3
679 1 6.8440838010185194e+00 3.0317976011830714e+00 1.6311680680784850e+01 -3 0 -3
398 2 -1.0173529240448327e+00 2.4173067125301881e+00 5.5964884961294743e+00 3 0 0
540 2 2.1878585085967437e+00 4.9193700419338393e-01 3.4448506536113230e+00 -4 0 -3
530 2 1.1439481373619733e+01 -1.2347589346665022e+00 2.7858238962192456e+00 -1 0 0
321 2 1.0577770234664507e+01 -3.1461154942596137e-01 1.3184256886053793e+01 -4 0 -3
943 1 4.4704540305561133e+00 2.9737270482940614e+00 3.8202954678698302e+00 0 0 3
762 2 8.8234923793026976e+00 -1.0832484795508528e+00 3.7725797136914721e-02 -3 0 2
953 2 -1.7558724332752833e+00 1.0390171581031037e+01 5.3226288925574119e+00 0 0 1
220 1 -2.5052313625155254e-01 8.8172330445002185e+00 1.6385336244278381e+01 -2 0 -3
172 1 9.1244380316381051e+00 4.0871171652204481e+00 1.4829416999429233e+01 -1 0 -2
298 1 -5.3291539058219977e+00 1.0832608827955466e+00 1.6908759101037681e+01 -2 0 -2
680 2 6.2347408915305778e+00 2.3056969565462881e+00 1.6120447526468361e+01 -3 0 -3
649 1 8.3774423632352750e+00 -1.3631278609814856e+00 3.0463887340375022e+00 -4 0 0
538 1 1.9836496088547244e+00 -1.7864055844668392e-01 2.7993431900843655e+00 -4 0 -3
944 2 3.6277495915886648e+00 2.6255826972530274e+00 4.1129788587587477e+00 0 0 3
100 1 4.2781521007871532e+00 6.5049560887416114e+00 1.0194410045409883e+01 -1 0 -1
1667 2 5.2123972133733600e+00 4.4100722663524259e+00 1.3971256896760549e+01 -1 1 -2
352 1 1.0509938017341510e+01 7.2792372241555405e+00 8.8987573546447631e+00 -1 0 0
174 2 8.5699157019233070e+00 3.3668680075876303e+00 1.5146357138668245e+01 -1 0 -2
388 1 1.4278681804319369e+01 -5.5115492585561943e-01 5.0184637821737104e+00 -1 0 0
465 2 2.1186050078821053e+00 8.8283489033786609e+00 6.9776534738618441e+00 2 0 0
84 2 1.3938463992338113e+01 7.5405462050176464e+00 9.8050376417687506e+00 -1 0 -3
460 1 1.1221410435703820e+01 6.0795203542137148e+00 1.1233634752926219e+01 -4 0 -2
607 1 6.4234536382037479e+00 7.2722944348016139e-01 3.7853403314201692e+00 -3 0 0
575 2 9.4024039431066324e+00 9.6325476331585964e+00 1.2767800231281099e+01 0 0 0
279 2 7.3717508642474101e+00 9.9949857541111182e+00 8.8169269635962930e+00 -4 0 -1
547 1 8.1742611943703327e+00 8.2280922142938788e+00 1.7478884207001574e+01 -3 0 -4
595 1 1.7353567295231087e+00 4.5060016024111036e+00 4.9155305302019041e+00 3 0 -2
528 2 4.4910887659526697e+00 3.4121220629042481e-01 6.5213791276795945e+00 -2 0 -1
109 1 9.9601963297279195e-01 1.1976270196532006e+00 1.6644660443096225e+01 1 0 -4
615 2 5.2245982122023769e+00 4.5640485416495657e-01 5.5277055897717109e-01 -2 0 0
251 2 6.1686749954590372e+00 8.1892418134253884e+00 8.5978750310343131e+00 -3 0 1
461 2 1.0409880747529684e+01 6.0553665849660545e+00 1.1816273868002229e+01 -4 0 -2
599 2 1.4127590104793503e+01 1.6444385781609472e+00 9.4862709844878115e+00 -4 0 1
408 2 -1.9686214358234588e-01 2.5595336818596133e+00 1.0993815099343147e+01 -2 0 -2
20 2 1.2216022081127228e+01 7.9240901863667350e+00 1.8470724140813066e+00 -3 0 -3
182 2 1.2332567822688413e+01 1.6837394492501296e+00 6.1585518575451168e+00 -1 0 0
35 2 -4.7686032664200062e-01 2.0201189416841259e-01 4.8224830459793004e+00 -1 0 0
737 2 1.3135949203996732e+01 7.2100941452031364e+00 7.5532923957642799e+00 -1 0 1
459 2 3.8156216810004118e-01 -5.0695951255915794e-01 3.2094062630949365e+00 -2 0 -2
475 1 7.2128841769324614e+00 2.1009441464866621e+00 1.3261647109051099e+01 -1 0 2
68 2 6.0213075414424431e+00 5.9195516421297150e+00 1.5682817329014320e+01 -4 0 -3
714 2 -1.9856939453472733e+00 -7.2072441369966889e-01 1.0641609449330129e+01 0 0 3
133 1 1.4689928544854736e-01 3.3194511025885376e+00 8.2104631299775317e+00 1 0 -1
610 1 1.3136243378340952e+01 2.0984428802309383e+00 1.0882444667650480e+01 -1 0 2
675 2 -5.5764446902750162e+00 7.9168205619963423e+00 1.8476374752059638e+01 0 0 -4
82 1 1.4384847002133434e+01 7.1153545738648258e+00 9.0437520534232902e+00 -1 0 -2
300 2 -5.0391267677601146e+00 4.2354801356341132e-01 1.7514585593617078e+01 -2 0 -2
697 1 6.0771124493296877e+00 8.0411183283887055e+00 1.9049280020345183e+01 2 0 3
782 2 2.3224992075399014e+00 3.0646850462433308e+00 1.8033201406360799e+00 -2 0 -2
690 2 3.3134879624008544e+00 1.8683866534534230e+00 8.0633921711212899e+00 -2 0 0
561 2 8.2594143864248259e+00 -5.9192924904459598e-02 7.1987842300741516e+00 -2 0 1
728 2 6.1437370440178372e+00 8.3142186069942685e+00 1.4853420005213920e+01 0 0 1
113 2 9.4698183368815378e+00 7.5755920804568433e-01 1.4785144289612624e+01 -2 0 -1
713 2 -1.0474063618993723e+00 -8.1180903052224140e-01 1.1809532808415964e+01 0 0 3
168 2 9.7243725870671405e+00 1.0376058848357278e+01 3.7864922351034398e+00 -4 0 -3
222 2 -2.1595679597315520e-01 9.2772397514611100e+00 1.7255713831504398e+01 -2 0 -3
529 1 1.0820160011569934e+01 -6.1378996417430054e-01 2.3514870549875160e+00 -1 0 0
67 1 5.4313542355060616e+00 5.1376105721029859e+00 1.5610871996136314e+01 -4 0 -3
727 1 6.6114316804136060e+00 7.5809527075287946e+00 1.5381953123398439e+01 0 0 1
114 2 7.9867636161568907e+00 1.4175966087813832e+00 1.4652527197806727e+01 -2 0 -1
425 2 1.2189372919570243e+01 3.0815125638784693e+00 3.7577517951361750e+00 -2 0 1
544 1 2.9040160712168861e+00 8.9588052625286707e-01 1.2938411259041239e+01 2 0 1
875 2 1.2506276438160008e+01 7.2849071510576078e+00 1.1258736074027292e+01 -3 0 1
1001 2 8.5665393378017676e+00 1.9749412555206387e+00 5.2088948105983253e+00 -1 0 1
496 1 5.9090744719395918e+00 2.9808112519584222e+00 7.0057523724548334e+00 0 0 1
655 1 2.5006144726627921e+00 8.9634658836581842e+00 1.6708251347661761e+01 -3 0 -1
337 1 3.1974522846776638e+00 6.9629503551502925e+00 3.3357934371687676e+00 -1 0 -1
506 2 1.4739609031906392e+01 9.6259957796739037e+00 2.2620502730059862e+00 -4 0 -2
221 2 -8.5007568786254772e-01 8.0435534965215965e+00 1.6456222137666725e+01 -2 0 -3
844 1 7.1783448821579778e+00 -4.3265774347832786e-01 1.2416734730704349e+01 1 0 1
583 1 -7.5079412217399533e-01 7.0541644023261814e+00 1.3023500063708932e+01 -4 0 -4
584 2 -1.1604710235532210e+00 6.1951817366620014e+00 1.3322702587959171e+01 -4 0 -4
641 2 3.4862669291537651e-01 5.7606984266041437e+00 9.9118532422757948e+00 4 0 -1
110 2 1.0705473719416867e+00 6.0509462675002279e-01 1.5873590458418466e+01 1 0 -4
963 2 1.7512637709360943e+00 -9.2603276871414297e-01 1.4874491013411527e+01 -3 0 -1
47 2 9.9602363755675523e+00 6.3673741785782276e+00 5.4317933135106484e+00 -3 0 0
207 2 3.1022459915085179e+00 3.2688428979828972e+00 1.0762339461815081e+01 3 0 0
808 1 9.5806172390770161e+00 4.6312839776994563e+00 5.9561811586677456e+00 -4 0 -1
289 1 8.4116560038951071e+00 9.0027822715214896e+00 6.0518047265570134e+00 0 0 3
577 1 2.5334637991742230e+00 4.2462864179980473e+00 1.3979842902787158e+01 0 0 0
19 1 1.1608584158234297e+01 7.3468426353477909e+00 2.3619783394784726e+00 -3 0 -3
1000 1 8.7727151223315882e+00 2.3252613815293870e+00 4.2572334820229552e+00 -1 0 1
294 2 -3.0089217756852098e+00 3.7949514832754767e+00 1.1761420316813000e+01 1 0 -3
390 2 1.3762369955911071e+01 1.1074839809226789e-01 5.5163309247444436e+00 -1 0 0
951 2 2.5069956640580124e+00 -4.0772045428266113e-01 8.3114872784906080e-01 -1 0 2
521 2 7.9277614713314222e+00 -3.4862231145361200e-01 9.3454854967648551e+00 -5 0 -2
813 2 1.0244381194145811e+01 2.9391316987083034e+00 1.2630715882858619e+01 -2 0 -1
912 2 1.0512313086502314e+01 1.9923456743774310e+00 4.0177330783704059e+00 -2 0 1
549 2 8.6725481302451328e+00 7.3611232585579156e+00 1.7289868944383336e+01 -3 0 -4
369 2 1.2702959488621547e+01 6.4703926501010507e+00 5.4484138143055842e+00 -2 0 0
771 2 -1.9591710441343086e+00 4.9824913293359971e+00 1.0080929036106340e+01 1 0 -3
539 2 2.4898045819343713e+00 -9.2806642797149808e-01 3.1486109949432284e+00 -4 0 -3
809 2 9.0908031799679172e+00 3.9791132027419467e+00 5.3671413603224600e+00 -4 0 -1
866 2 8.6894691325882256e-01 5.9509831487933873e+00 1.8389887342929153e+01 -3 0 -1
94 1 1.5374692525867385e+01 6.9959879733649437e+00 6.3600836410297710e+00 -2 0 -1
225 2 -2.0313652701673330e+00 7.0598295035638809e+00 1.8008096179293762e+01 -2 0 -2
770 2 -1.9863180045575877e+00 3.4044055371660731e+00 1.0225961771987809e+01 1 0 -3
123 2 8.9108716581112706e+00 5.0589482263333121e+00 1.3421533148191315e+01 -2 0 -1
440 2 -1.7312498809664807e+00 3.9138488791815682e+00 1.3404183416434359e+01 -2 0 -2
383 2 -3.7321512360723408e-01 6.0896611210790992e+00 4.3364212896690404e+00 -1 0 1
750 2 6.0139619632615711e+00 9.7962859699251279e+00 1.3001180948373836e+01 -3 0 1
499 1 7.9399077367876725e-01 3.3698239273223134e+00 1.1832981173548404e+01 1 0 1
910 1 1.1419714869333811e+01 1.6819402530660850e+00 4.1776155524724885e+00 -2 0 1
546 2 2.0126094742410245e+00 6.0367772681892129e-01 1.3228303387435696e+01 2 0 1
745 1 -3.9046057425735414e+00 8.0281899782902180e+00 1.3827288023044893e+01 -2 0 0
729 2 7.4864142213290439e+00 7.6087389332957152e+00 1.4947752797277525e+01 0 0 1
612 2 1.2549987393418951e+01 1.3648714631501280e+00 1.1217301298115510e+01 -1 0 1
674 2 9.3369327382502876e-01 8.7727663742108177e+00 7.8631283355112813e-01 0 0 -3
121 1 8.8818302767464203e+00 5.6528093396704202e+00 1.2619792412069897e+01 -2 0 -1
911 2 1.1421506428799061e+01 8.4409257057947196e-01 3.5839466603354881e+00 -2 0 1
424 1 1.2695512256091645e+01 3.7705144689651648e+00 3.2551339598673183e+00 -2 0 1
811 1 9.5298185582409047e+00 2.6117401897988373e+00 1.2092969453646363e+01 -2 0 -1