LAMMPS data file via write_data, version 8 Apr 2021, timestep = 21699000

576 atoms
2 atom types

0.2070169098080788 17.712984090172757 xlo xhi
0.002015909808710085 17.507983090173948 ylo yhi
0.35201690980708716 17.857984090173645 zlo zhi

Masses

1 16
2 2

Atoms # atomic

471 2 1.7940170245781595 1.512132389053074 3.0743217950366986 -3 5 -3
469 1 2.6150974486767833 1.5919406121389121 2.599080585723824 -3 5 -3
470 2 3.1273715423101196 2.312889572281188 3.114918784781441 -3 5 -3
216 2 2.494818366908757 1.850593329197635 0.8313403250740742 2 -2 0
456 2 2.069129239227097 3.9762239710195573 1.2502593751928912 1 4 -5
349 1 3.9567808379786573 3.638675148192387 3.5009875704082245 -1 2 -1
350 2 3.6640355124487383 4.125416869908667 4.319212207333641 -1 2 -1
534 2 3.8907294027607784 0.653527336436689 3.5812338290661296 1 5 2
181 1 7.0261189336838195 2.935947962087845 2.140059409263855 0 2 3
165 2 6.21791789751056 0.39037682645814553 3.559128897942571 0 -2 4
163 1 7.100816114071556 0.5468654692853918 3.1997839833042394 0 -2 4
183 2 6.888898250538504 2.0328597979435874 2.5894938125874245 0 2 3
182 2 7.290769326982655 3.5551942689541334 2.852950172823115 0 2 3
92 2 5.814573352268985 2.9079279695343514 0.7902943457429907 3 2 -1
351 2 4.880914057767157 3.7779383431815945 3.297557736213291 -1 2 -1
164 2 7.020601366217946 0.2696440397464529 2.2687550365806164 0 -2 4
532 1 4.587718306749612 0.2416015755703421 4.1405544852963025 1 5 2
5 2 8.286380770396795 3.5025704431855273 0.9117472855571581 2 1 3
466 1 2.8318359643140436 7.062402138109467 2.4347320329439253 -2 0 -1
455 2 2.5041474609779892 5.463666832200553 1.9085811366873013 1 4 -5
454 1 1.7699669950568024 4.897337762244484 1.4983131155844935 1 4 -5
189 2 2.9506193707918564 6.7948637419047415 3.920087336990442 0 -2 -2
468 2 3.714494009821891 7.408094060492447 2.201006289461798 -2 0 -1
467 2 2.098189494733756 7.56949729599573 2.0766402687653582 -2 0 -1
134 2 0.45002769955947103 5.001958270132981 2.373118501084008 2 -2 2
6 2 8.856418916073817 4.969117529540687 0.7968989726799324 2 1 3
3 2 8.063979802641859 5.163455378318436 4.371685392957255 0 1 4
269 2 5.489904686688926 8.284912223664838 1.4701179319487467 1 0 3
1 1 7.234927535964771 4.521466324505883 4.3694754095947115 0 1 4
268 1 4.853792982499015 8.742455079647156 2.0478463087398175 1 0 3
232 1 7.115640017270593 8.444432144911977 0.49923825179894793 7 -3 1
330 2 8.267466970892546 7.245057366473353 1.1398120496490733 -3 2 -1
514 1 1.1086254063542877 8.809570450448147 1.689478189090425 5 -1 1
465 2 2.3786246785485017 10.44891920574605 4.296817672296421 3 0 0
464 2 1.4174632826409759 11.358263928341177 3.637659227768455 3 0 0
463 1 2.135958657523189 10.793510677561303 3.40664125701076 3 0 0
545 2 3.926551194613429 12.143661788013869 3.484410608371331 0 -2 7
516 2 1.4230330682515826 9.494136736807418 2.3114351484199838 5 -1 1
544 1 4.535337507141612 12.842357346277273 3.266349870051772 0 -2 7
488 2 3.92087888471669 9.59735373499876 0.597289083397679 2 -4 3
515 2 1.265828203420963 9.174136761536223 0.8136689313711737 5 -1 1
546 2 4.679974641134092 12.795670224507116 2.3079292343246958 0 -2 7
458 2 7.071440155252055 9.133249834903499 4.511320391582621 -1 -3 0
270 2 5.474929963146682 9.083318697384348 2.7138125128954 1 0 3
485 2 6.830499249919898 11.120546851642109 2.5076516502796533 -1 0 5
459 2 6.610169332320749 10.62311133362733 4.646042257997563 -1 -3 0
457 1 6.568043418871608 9.845612065449478 4.052486725488148 -1 -3 0
484 1 7.454475786677115 11.741970424118914 2.0432390582861286 -1 0 5
486 2 7.708955082417904 11.265889986529844 1.222435165362949 -1 0 5
19 1 1.3339324697334534 16.83236502647156 0.5959464538294839 4 0 2
11 2 1.5468876373164109 14.125141493284707 3.8820321516500105 0 -1 1
10 1 2.1682080889873276 14.858111337616526 3.9932724960079926 0 -1 1
12 2 2.707504702931624 14.943465342515225 3.1268100804630743 0 -1 1
308 2 3.5592036062002084 14.781160769637582 1.3803061139894823 -2 -3 -5
307 1 3.4880569534571273 15.639108234793712 1.8926788907300873 -2 -3 -5
309 2 2.7898184667026 16.168714549510398 1.4610870459711482 -2 -3 -5
20 2 0.5257001083569268 16.65916422630067 1.1749192985838786 4 0 2
508 1 4.254377946485665 13.244957218118271 0.6792900803245006 2 2 2
419 2 8.659618638230539 15.094283569474191 4.650148223665739 -1 -2 4
231 2 8.256897722730663 17.222507420358387 4.128744510070055 -5 -3 -2
314 2 4.89583339404976 16.44880433360238 1.42144193443292 -1 2 0
313 1 5.801805708122621 16.636249797437063 1.0085843137315724 -1 2 0
507 2 7.1085599455227975 14.751243204788901 1.3835058975251915 -1 -2 7
506 2 7.64059539597262 13.439703999936647 2.0702921475029012 -1 -2 7
505 1 7.881574594784829 14.34334684771975 1.8528663069054356 -1 -2 7
167 2 5.063645703330539 14.528135299717633 4.0824341287952155 1 -2 -2
166 1 5.326475459818322 15.380083275877313 4.497343816688232 1 -2 -2
168 2 4.762362805704472 16.068548461467266 4.154646095596378 1 -2 -2
418 1 8.677147845193 14.14788689621233 4.418505116093968 -1 -2 4
420 2 8.575890505269507 14.266638222658612 3.4483727899906684 -1 -2 4
533 2 4.250293760919534 0.4641727106855915 5.044392975289737 1 5 2
140 2 1.160082097539253 3.98262957770082 6.067989252572184 -4 5 -4
495 2 3.2506513367663334 3.1699305158998574 6.0373686738869194 6 -1 0
493 1 2.912612463394559 4.061866781322897 5.950597028006115 6 -1 0
84 2 3.25054482209391 0.9019484501832515 6.832815574842046 -2 -2 2
82 1 3.8742865370430515 1.5687331652866985 6.486123774419728 -2 -2 2
260 2 8.850002016099657 2.356686777075966 6.139594287810985 -5 0 0
83 2 4.723094234287749 1.4031406682697622 6.970354647468719 -2 -2 2
107 2 8.187523745509113 3.884057654595269 7.73970160503573 1 1 4
259 1 7.997239665366501 2.7905206177921555 6.186900651862493 -5 0 0
261 2 7.404987471167947 2.17717129383843 6.576260187023699 -5 0 0
121 1 6.431832994515112 1.0135299566070657 7.1173051808192 1 4 2
123 2 6.5743629748195085 1.34939942109373 8.034883725181764 1 4 2
2 2 7.661879839345712 3.8431077406434335 5.012756775345281 0 1 4
106 1 8.561900944502229 4.171299703367112 8.611228485131512 1 1 4
122 2 6.6507219588298705 0.029347663029028328 7.107130481462779 1 4 2
290 2 0.2940632820726599 6.738517341492865 5.908153574549626 -4 2 1
187 1 3.236319855692294 6.896683834587182 4.884518215668522 0 -2 -2
345 2 4.574335622378676 8.244640651985662 8.995624739907063 -2 4 -3
494 2 3.2473703688327156 4.661949430895619 6.626897911397924 6 -1 0
274 1 1.2424730410464866 5.0163439581922855 8.523565479235328 4 2 0
275 2 2.1761073063353105 4.944947679182179 8.829600928680234 4 2 0
188 2 2.422559944544735 6.724057690139432 5.435247687816941 0 -2 -2
289 1 1.0666028779380365 6.851627757949297 6.532591072240494 -4 2 1
291 2 0.9559841247559537 6.107413175665558 7.129056101593741 -4 2 1
32 2 0.9582543470836189 7.962889163594761 7.6857971351720265 2 -1 2
31 1 1.1695737105221455 8.439972193195203 8.550130207914963 2 -1 2
33 2 2.159030484576488 8.354740680137752 8.610152657175295 2 -1 2
450 2 2.863019036654256 8.517321937518256 5.513097732293987 1 3 6
462 2 8.838013351120265 7.058090004767127 4.764884696688963 0 -2 0
108 2 8.166925553564031 5.053234458511536 8.808830710993346 1 1 4
198 2 8.902851738150694 7.282548832806461 8.547155165633567 1 -1 2
138 2 4.81190945193559 5.97119225267225 8.60418002466588 3 3 0
324 2 4.7090478919348815 6.389182921812873 5.409015283563075 1 3 4
136 1 5.277906215896919 6.771768517316718 8.430725549672205 3 3 0
302 2 6.972042747604545 7.432765753692351 5.794455974660852 3 -1 3
323 2 6.169722922146898 5.566051499447369 5.273371837086008 1 3 4
137 2 5.461054899464818 6.7585946333424145 7.484881839435889 3 3 0
322 1 5.624458601395806 6.182906158201732 5.794758107080622 1 3 4
303 2 8.27408711329166 8.062884615917163 6.444964574020332 3 -1 3
301 1 7.681719008578138 8.10122201931086 5.671269148274684 3 -1 3
88 1 0.3637429639301515 11.051241809558903 6.157246574541107 -1 0 0
9 2 0.5804813078609408 12.603545078190422 6.813466591214812 5 -3 -4
90 2 1.114915300695181 10.45434744143863 6.289587477946963 -1 0 0
448 1 2.7065249864280116 9.425691845183941 5.771313971116433 1 3 6
191 2 4.026436587386459 11.923157544679128 7.3314309326232125 1 2 -2
449 2 3.513279516122667 9.723111415306128 6.173943244594798 1 3 6
190 1 4.473525392985083 11.14168882448597 7.592976255216013 1 2 -2
401 2 7.362821353742393 13.098478986063707 4.984422471156862 3 1 4
111 2 6.960590040492035 12.06522203881148 6.771274423266062 -1 -3 0
192 2 5.450357439803889 11.306210684579897 7.576753545213055 1 2 -2
110 2 7.98545352479797 11.289451324580153 7.803392913620314 -1 -3 0
109 1 7.135563291890878 11.845946221838167 7.742814620151178 -1 -3 0
400 1 6.586980996051554 12.591427481044175 5.425704773667563 3 1 4
402 2 5.8127995746532575 12.539741390684268 4.855969598863715 3 1 4
7 1 0.6846541122068064 13.504077433540438 7.168236777165939 5 -3 -4
8 2 1.0150050618571964 13.411021417993382 8.088292855739981 5 -3 -4
273 2 2.4213353142199696 13.343490897246399 6.608688672294334 2 -6 2
271 1 3.11002433461784 13.133585486898305 5.956972933511823 2 -6 2
272 2 2.883633007943651 13.644684038994415 5.189665269119709 2 -6 2
294 2 1.4195423527641469 15.867176667270902 4.937904923134221 3 -3 0
277 1 2.7822657040059573 16.923407707901546 7.280110182436498 0 -4 -4
278 2 2.0313556679981706 16.598344763231044 6.704117996630374 0 -4 -4
158 2 4.226363307162567 14.072731711344058 7.0149771980966085 0 2 -1
279 2 3.285367651808025 16.07003024091631 7.357194274386528 0 -4 -4
292 1 0.9991088907376264 16.586006076543285 5.499297671478493 3 -3 0
355 1 6.690767090042326 16.005755865570386 6.656180643900522 -6 -4 -2
157 1 4.6331333822407395 14.661348099525751 7.703173521293768 0 2 -1
357 2 6.322573416836202 15.717240008773263 5.783822495403795 -6 -4 -2
184 1 8.415256154015793 14.505276376470544 8.048685235423928 -2 4 2
186 2 8.178912000701771 13.586172688409796 8.02335614246337 -2 4 2
185 2 8.493994534378386 14.67504310935274 9.07455603356012 -2 4 2
159 2 5.397020337646294 15.169363912356998 7.31126284897491 0 2 -1
356 2 7.340841931786293 15.362473848970291 7.04803647255449 -6 -4 -2
288 2 3.5399287916329287 1.4919070778399008 10.165961884732877 -1 2 2
75 2 1.5225923979962366 0.29631267274815326 10.356441202314462 -2 1 0
73 1 2.3993253331049873 0.1424799631783331 10.027545038503405 -2 1 0
362 2 3.983970186041385 2.278042604261993 12.210096243229264 0 -1 0
286 1 4.212773993246181 2.2221445971757876 10.476952716734408 -1 2 2
195 2 0.6502915070089501 3.488293610194662 12.738553108137937 -2 5 0
361 1 4.169885666188208 2.2878528546313808 13.139967295950369 0 -1 0
371 2 4.1925842473461445 3.8022387698031057 10.060035082247722 -4 -1 2
287 2 5.095175862702683 1.998282890664017 10.136844607365687 -1 2 2
353 2 6.973479460368549 1.3951304553884984 10.184937799126608 1 -1 -1
352 1 6.721663457457518 2.196825684868639 9.63250781210011 1 -1 -1
563 2 8.478830831120728 1.7113773493047846 13.435560250689216 1 0 -2
565 1 7.283735173920488 0.16747472640269254 11.093988827390254 0 2 -1
567 2 6.5732615289897565 0.11727401666746139 11.767036729170679 0 2 -1
354 2 7.4711262904470255 2.7420299642809054 9.656072291881234 1 -1 -1
398 2 8.252660887252365 4.3078394247082805 12.128998017575832 0 -2 -4
363 2 4.7656493805777105 1.5117104990205628 13.27115882961433 0 -1 0
151 1 2.938007214146594 6.701632396068675 11.307013475562531 1 4 -1
81 2 3.6983554678083443 7.553370633098586 12.820306843406609 1 5 -1
152 2 3.2653258247757413 7.431667731908299 10.718624504059543 1 4 -1
153 2 1.9798585163338007 6.6982431041685135 10.969838661270797 1 4 -1
372 2 3.667020163446539 5.20290760698918 10.527249967508173 -4 -1 2
79 1 4.079420734244513 8.244591830800953 13.412812781928949 1 5 -1
343 1 3.8654088773741577 8.748831981609149 9.4238740176509 -2 4 -3
276 2 0.7215629454436381 5.370940779559975 9.250588632291052 4 2 0
370 1 3.7681505354768796 4.683401007970622 9.685555259091744 -4 -1 2
145 1 0.27201829296834934 5.7694562068060256 11.202319480334126 -4 -6 -3
146 2 0.22354923190103193 4.8132016006514045 11.438708033119257 -4 -6 -3
285 2 8.924713009464625 8.279033399267936 10.947288580473616 0 -1 -2
399 2 6.9940609045795235 4.835928146895838 12.911478049175457 0 -2 -4
397 1 7.740006230364775 5.086527902318793 12.3383588054153 0 -2 -4
437 2 7.612179822648753 6.247437898962166 10.760932938876834 -6 -4 4
211 1 5.4387822284005765 4.767315959776999 13.48135618597781 0 1 2
436 1 7.748585950316522 6.703129780584563 9.904295479242954 -6 -4 4
438 2 6.849479816721684 6.8886069472527724 9.541669996055093 -6 -4 4
504 2 4.0945198810318315 10.89705451863321 11.482871784624809 3 3 1
69 2 1.9575236481027452 10.015706561853008 11.967159652484973 2 -3 -4
68 2 2.920131890723565 9.681908858858474 12.976418632118735 2 -3 -4
67 1 2.362189980857396 10.409797595343765 12.752581365325645 2 -3 -4
208 1 0.7107598831124231 12.922778124540402 9.806530627135759 -2 -5 2
391 1 1.0470974140753826 10.41709466411139 10.44575986712332 7 1 8
393 2 1.1070710263593497 11.358852158210308 10.263928776857037 7 1 8
392 2 0.819317172374693 9.890612427028755 9.65890915348327 7 1 8
344 2 4.20201565537754 9.604068980718242 9.1606559290184 -2 4 -3
101 2 5.180409651403883 13.05303630629514 10.60265823271496 -3 -4 2
502 1 4.8739309014327015 11.439806659562068 11.446785712196647 3 3 1
527 2 4.810776067834216 12.115990917677461 13.0166938527362 -2 2 -3
503 2 5.6855521766390025 10.93557753198762 11.528047726712606 3 3 1
383 2 7.281050557717504 9.736551280054748 12.909756579768219 -2 1 1
382 1 7.354863065675807 10.34656483447724 12.129099046164217 -2 1 1
384 2 7.998448603452736 9.849206960068287 11.55609214744878 -2 1 1
113 2 8.38321121159071 11.63274392997118 12.515732618130318 -3 -4 -5
209 2 1.1613751556001293 13.438625088946923 10.529875563764657 -2 -5 2
390 2 3.3800145681089706 16.527084723401174 11.063514552845994 5 -6 -1
220 1 1.4951805669223892 14.278950020852777 12.307150080600415 10 -2 -5
221 2 2.277322840535311 14.78070316130833 12.093914959444305 10 -2 -5
222 2 0.6707421848413974 14.873248489073607 12.457015928513286 10 -2 -5
388 1 3.8501985576993962 15.830669261917592 11.593885894572374 5 -6 -1
389 2 4.409255724710496 15.303588318905069 10.981986431307757 5 -6 -1
74 2 2.4018788151195287 17.398442262521026 9.126797459140997 -2 0 0
299 2 4.788954677954243 16.707785531375237 12.614572644676166 2 1 -5
100 1 5.463647217656901 13.948860013794265 10.250962548801068 -3 -4 2
566 2 7.299101950043221 16.76327940554292 10.774128189009321 0 1 -1
116 2 8.25947113476395 15.094978880573587 11.39816077434378 2 -3 -2
115 1 7.831350251427347 15.118172614107078 10.536222353141191 2 -3 -2
117 2 7.000751755741243 14.642045961022415 10.442751638822063 2 -3 -2
102 2 5.047189604178909 14.080653111868795 9.366497119422997 -3 -4 2
298 1 5.381247287690856 17.218833092955755 13.227433735497424 2 1 -5
56 2 8.789926435065809 13.85541713373075 13.034802587922902 1 1 -6
55 1 8.772256729557277 14.874444557159753 13.122029026690209 1 1 -6
214 1 2.444184690299383 2.5105774104822127 17.567958968575415 2 -2 -1
177 2 2.6267939483708433 3.285294526818006 13.969047321156497 -2 -3 5
176 2 1.4761982787764438 2.594575504004192 14.758068906553302 -2 -3 5
175 1 1.7025847811253352 3.396544101706665 14.356039155624442 -2 -3 5
387 2 2.248118420605841 1.2887776121119474 16.163175708152714 0 -5 1
385 1 2.2557131206685916 0.6483542210883342 15.39864430023169 0 -5 1
215 2 3.4140401183060707 2.6569139882544985 17.429008733657966 2 -2 -1
317 2 0.2951663724484284 2.9351767636837547 17.215026895157294 4 0 -3
212 2 5.076677980046496 3.849803806483762 13.511215221773751 0 1 2
91 1 5.302326356073034 2.768648421576169 17.4738951349107 3 2 -2
93 2 5.767049947922765 2.1002129717651843 17.02027055508307 3 2 -2
541 1 6.850523594726542 1.0147794273248971 16.166877779089567 -1 8 1
564 2 7.888461340735272 2.8480683310509782 14.232671298833361 1 0 -2
543 2 7.035873056506739 1.2143251567176128 15.204199648345892 -1 8 1
562 1 7.677925431432376 2.0179704497805036 13.78965743647991 1 0 -2
542 2 7.6588089008036215 1.208272875832034 16.65945461208791 -1 8 1
408 2 5.866491637523359 4.307176800180172 16.596159776795524 -1 3 1
4 1 8.779833318928096 4.112028572794113 17.830846135132816 2 1 2
18 2 1.7442684356467106 4.707437099665766 15.82398337168803 -2 2 0
80 2 3.852312404355693 7.871067763808492 14.282904428984581 1 5 -1
16 1 1.6740222635790294 5.602767773387125 16.236844621471466 -2 2 0
530 2 3.1795310156025014 6.48006781597841 16.159063447325146 3 2 5
529 1 4.025536575725039 6.967640366614172 16.18527698366418 3 2 5
17 2 1.5696764593908243 5.375729066790971 17.174639924053807 -2 2 0
489 2 3.5414299159810145 8.723853308429934 16.90736062277836 2 -4 2
342 2 5.871444325269606 8.379702346199934 13.7471559946928 0 -1 -2
531 2 4.760324701873457 6.257146303928903 16.235588825752416 3 2 5
213 2 5.733171001962403 4.869464308368029 14.386256827280349 0 1 2
407 2 6.959622709983582 5.281450734115338 16.03413865867843 -1 3 1
406 1 6.000903062244226 5.130906030755083 16.095558890640724 -1 3 1
205 1 8.02038412793284 7.075763532418686 15.785650226783654 -1 4 1
206 2 7.6901363302019305 7.650569398738606 15.097112560635049 -1 4 1
234 2 7.114560321442291 7.92105286723276 17.172634519705895 7 -3 0
340 1 6.689259425051081 8.615451726561425 14.186010737546683 0 -1 -2
573 2 8.835836823333905 5.020385316784541 15.009364765320479 1 2 -1
180 2 0.8702626683256374 10.941494378870718 13.842966379467741 1 -4 -2
432 2 1.1763352609660929 12.44115904912348 17.040623919713966 2 5 3
487 1 3.5136485530155475 9.627794494331622 17.246884293552625 2 -4 2
431 2 2.359355056893533 11.309312740094622 16.864047419137997 2 5 3
430 1 2.133161217733362 12.239581594383974 16.895743479709218 2 5 3
332 2 2.286460348124144 13.046701407850353 15.341010764041856 -1 -2 -7
528 2 3.988055770139243 12.972024136429601 14.114995598304901 -2 2 -3
509 2 3.48691116166603 12.945058696777831 17.580395684237004 2 2 1
233 2 7.111768066777023 9.37092343541926 17.737708165200115 7 -3 0
246 2 7.127575519024581 12.7858283828319 16.96707483252974 4 -1 -3
526 1 4.860598616812682 12.588421843862184 13.907648608726584 -2 2 -3
144 2 4.729713753067855 10.608640016159914 16.234132032891118 0 6 2
200 2 8.30754547676402 10.8301439442992 16.323982025740385 -2 -4 -3
341 2 6.299771065068133 9.268842294041141 14.769205395266406 0 -1 -2
143 2 5.1354895343076965 11.428293338257081 14.904484892771833 0 6 2
142 1 5.418968216656751 10.725638634392386 15.54284043335785 0 6 2
199 1 7.608537518259017 11.173991506682627 16.953359937513696 -2 -4 -3
201 2 6.780034218680574 11.166513938939763 16.441189524024114 -2 -4 -3
21 2 1.2219485560653993 16.266836376133064 17.31181902501935 4 0 1
377 2 3.377358392444023 15.091971712505115 15.636158018524315 4 -1 -1
331 1 2.608983224187975 13.691704940637832 14.675156946302767 -1 -2 -7
376 1 3.7512633045056902 15.754234846024112 16.235312283914485 4 -1 -1
386 2 2.947430784708275 17.475977982304283 15.41181366887681 0 -6 1
576 2 0.91341780868469 17.299941586898917 15.416202472987992 -3 4 4
333 2 1.9962564044356959 13.809769874904731 13.950747822346978 -1 -2 -7
378 2 4.088753493344047 15.419859110441964 17.05052203439218 4 -1 -1
315 2 5.5952574635339944 16.87641685138884 17.592206000341847 -1 2 -1
510 2 5.090577840712437 13.367586378380283 17.620376575968777 2 2 1
326 2 8.732715520476898 15.856700593381142 16.04617490494516 1 3 -4
245 2 7.2206365170382405 14.337680612623851 17.00018072351734 4 -1 -3
57 2 7.886614357717155 14.977683931723655 13.60087030617422 1 1 -6
300 2 5.492127547397494 16.61233104945403 13.996102542268451 2 1 -5
327 2 7.473717583421485 16.71502292652803 16.32319350162302 1 3 -4
44 2 6.483349524393174 14.526279161795 15.212359110636557 -5 -1 5
244 1 6.601262307775479 13.607866579855088 17.00066831757847 4 -1 -3
45 2 5.844540745385375 13.943557929796317 14.068028004763395 -5 -1 5
43 1 6.332198437450129 14.781254422298742 14.29697089327997 -5 -1 5
325 1 7.925220405035341 15.868406656434605 16.598263843325782 1 3 -4
70 1 11.33267099157637 3.0088534864896355 1.2669867722610872 1 5 3
71 2 11.571423217109295 2.0733055411122407 1.442928258740098 1 5 3
72 2 10.426197907703006 3.0276174612419324 0.8976051422819051 1 5 3
480 2 10.85610118186927 3.5699232102204834 3.2401532031449736 -4 -2 2
478 1 11.109384491404189 3.9120340761279064 4.167610782945168 -4 -2 2
22 1 12.423894211926159 0.7170794820252454 2.0911532816341545 1 -1 -4
555 2 12.52705794339001 4.1150923699696165 0.9354388946160712 -3 0 -1
263 2 13.005565827148084 0.2858611168330364 4.075614203878571 -3 1 1
479 2 12.068334260658887 3.9798436648018494 4.2122990924834 -4 -2 2
95 2 9.199693226050865 0.57591682371841 0.5078796639795019 -1 -3 -1
24 2 13.399398575595248 0.5636216075807167 2.1262621865729363 1 -1 -4
501 2 15.129709416541548 2.1601516233996914 1.809287716401721 -1 0 2
499 1 15.121383684887986 1.5074233903662415 1.0814888139262966 -1 0 2
78 2 16.235371679502656 0.1989791255174809 1.5103130201408952 -1 -5 3
500 2 15.734686176131518 2.003552995848885 0.48518963739445864 -1 0 2
77 2 16.904752394896846 0.01389693141789148 2.8187481255292877 -1 -5 3
39 2 17.03920385156407 2.1626599486536033 4.289136265162405 3 5 2
226 1 14.904228312080793 3.7850467164296546 2.5113136123708006 -4 -1 3
227 2 14.349209690725697 4.268617912304115 1.8669638809796145 -4 -1 3
228 2 14.45643972715144 3.9911839776173132 3.407720349555442 -4 -1 3
135 2 16.61851336428264 4.2763757253113575 2.891835900522746 1 -2 2
38 2 17.608201587118984 0.7518956577139942 4.64767997707864 3 5 2
37 1 17.48102616596557 1.3840076583165235 3.907035483115005 3 5 2
328 1 9.01165170684937 6.68292559619651 1.3326218763020325 -3 2 -1
360 2 12.200408967347858 7.628676670697669 1.4584123451705568 1 -3 2
461 2 10.053249496622872 6.048371320667769 4.682138024411151 0 -2 0
358 1 11.75152928871074 7.122259319815834 0.7644601629131776 1 -3 2
460 1 9.13754162372371 6.239518093795826 4.3364104293073265 0 -2 0
359 2 10.772829986761137 7.057984428833422 0.8473725927345416 1 -3 2
118 1 13.330781270778747 8.285268749979101 2.3171075314876677 -3 0 -1
554 2 12.546677458688048 5.633364196795483 1.083703512114321 -3 0 -1
553 1 13.182956806431644 4.869352443749108 0.8772712524572213 -3 0 -1
329 2 9.03694563220839 6.62945028465667 2.3300156039308257 -3 2 -1
119 2 13.43354097077255 8.601426839111777 3.177022014718652 -3 0 -1
47 2 16.58525149421701 8.208410113432034 0.9916995658333025 2 1 -1
120 2 14.199994436564719 8.505103299499115 1.9037212575838016 -3 0 -1
46 1 15.681867364315181 8.019012139294636 1.0937793285484132 2 1 -1
99 2 16.615264171226272 7.887808106897419 3.838493853890987 -1 -1 -3
48 2 15.62722603710619 7.052319571958334 0.8654386434774228 2 1 -1
98 2 16.930530810907896 6.3456912280532976 3.908855297342628 -1 -1 -3
97 1 16.61588387393787 7.108239567574772 4.4242509693114895 -1 -1 -3
133 1 17.326389878708152 4.899860389018169 3.1319791250913585 1 -2 2
334 1 13.783720686745058 4.687192896092361 4.6293043287517435 0 -4 -1
556 1 10.175864218585101 11.576346371192493 2.756838601504394 -2 -3 1
204 2 10.967050779367948 10.770577603154756 4.103012374177804 -1 3 -2
558 2 9.27638916408816 11.521976394859246 2.4273744786286295 -2 -3 1
411 2 12.587011420086402 10.167032522513017 1.8699780035875837 -2 0 4
409 1 12.453238657089386 10.879867625520834 1.2201600501963197 -2 0 4
410 2 12.997201194548438 11.648702830295981 1.4629725783722658 -2 0 4
202 1 11.6769294424997 10.327634927941446 4.577939040198879 -1 3 -2
557 2 10.86749161729304 11.408465711548164 2.128727506317144 -2 -3 1
365 2 13.215726017642286 10.940460040408716 4.105358937386953 -1 1 0
60 2 11.282042580505596 12.838394142163281 3.4471360867858287 -5 -4 3
306 2 16.783380974853735 12.891332122195038 4.202863778972326 0 1 1
364 1 14.181195267607903 10.966680359116424 4.070537523564136 -1 1 0
539 2 15.731891086491583 10.134284714513122 3.762440332632708 5 -2 7
538 1 16.571815727566722 9.696134516483934 3.6716514629604564 5 -2 7
366 2 14.364368486404013 11.904351365975973 4.225119760722056 -1 1 0
525 2 16.36661903347025 10.562406685119068 1.8419565209159077 3 1 1
540 2 17.257748912417263 10.294047715780524 4.021983763219216 5 -2 7
394 1 14.268459104615859 12.96051320093411 1.5040662999458174 0 -4 1
523 1 16.06979710353445 10.807477238052803 0.9569062566496008 3 1 1
524 2 15.386519066209734 11.525078836473105 1.1410503532336362 3 1 1
413 2 17.014902425649904 12.280069483688289 0.589332802251036 4 2 -3
412 1 17.56520384904206 13.085398976083644 0.5632750948934935 4 2 -3
304 1 17.709420701817066 12.87219513157529 3.8001892559665804 0 1 1
229 1 9.10565680862659 16.840214109704473 4.505894922247732 -5 -3 -2
475 1 9.65897846193542 16.379747744881733 1.5976062300195377 -2 2 0
23 2 12.169727920933653 17.38156019041463 1.668461100743794 1 -2 -4
248 2 11.083894620852847 15.576538087680326 1.30533168536145 -1 2 3
249 2 11.927123061381378 14.450591740213387 2.004198613032673 -1 2 3
247 1 11.97771671651615 15.127536358139414 1.3214499272789466 -1 2 3
59 2 11.858322517478657 14.224109328224761 4.0978117842101325 -5 -4 3
58 1 12.019345872630801 13.46554630554065 3.4147804580614167 -5 -4 3
476 2 9.625092161906244 16.416962561276954 2.5761302143983373 -2 2 0
477 2 9.195753378534317 15.576706961470856 1.4013545306234565 -2 2 0
76 1 16.634501641666425 17.009481629682693 2.006820666584954 -1 -6 3
237 2 15.153215322710858 14.138286433860307 4.384665574174559 -2 -7 -1
396 2 14.023295149738411 13.470713163318278 2.305392665499207 0 -4 1
225 2 14.195571725065706 15.965758560194457 3.682767626207043 2 5 -3
224 2 15.488402993880396 15.85269384180317 2.6986826178378625 2 5 -3
223 1 14.76539257266745 15.284551432953762 3.146253357250259 2 5 -3
262 1 13.371916945510057 17.17001229171397 4.720762914155646 -3 0 1
395 2 14.322705098430736 13.52276900694592 0.7035626298438212 0 -4 1
305 2 17.532346585583085 13.135160176207314 2.899124662065205 0 1 1
230 2 9.687129968753869 0.13287277628250116 4.743775353004779 -5 -2 -2
51 2 10.138560368214538 3.614324998008104 8.926726816920693 0 -1 -1
29 2 10.759954048789618 2.308190942680084 4.94483333890835 1 3 -5
30 2 10.927859418878542 1.5189358715955175 6.163568484260584 1 3 -5
295 1 11.77490057127178 0.8779878790387919 7.8647038816533055 0 -5 -1
28 1 10.457307058508434 1.4653164051812286 5.346593336689167 1 3 -5
297 2 12.693338463500078 0.5756245367413051 7.739881544377986 0 -5 -1
296 2 11.38578471422016 0.31470263357928235 8.536689193381621 0 -5 -1
139 1 17.694118989441552 4.078407156777958 5.810287257729366 -5 5 -4
141 2 17.691275770094897 4.245731197855709 4.8614441671605 -5 5 -4
53 2 15.205084696975707 0.6055198121036849 8.587827365516647 2 2 0
560 2 14.39415994993742 0.7817837179890818 6.158392458995019 2 1 -6
559 1 14.678188761299928 1.110054825798561 7.0610507181388495 2 1 -6
561 2 14.866684923541262 2.025063091021601 6.956881060087712 2 1 -6
536 2 16.18416410068002 3.918110463025006 6.369147144591669 -2 0 -7
535 1 15.22905914935616 3.7707766011051604 6.725234062998678 -2 0 -7
537 2 15.31191734272769 4.004555690735003 7.599646961151026 -2 0 -7
336 2 14.101281956454088 4.260754059933677 5.492505157963142 0 -4 -1
196 1 9.29709456471468 7.674299632444872 7.739588252809433 1 -1 2
197 2 9.469298934890997 8.589581022144506 7.926121445869618 1 -1 2
520 1 12.501392593993474 7.839735244243765 5.015770153084108 4 4 3
521 2 12.100125406478554 8.714101264099712 5.064696278232047 4 4 3
522 2 11.977502708728254 7.198390064980808 5.603790459701829 4 4 3
513 2 11.774247791229016 5.974808203602706 7.448466954222536 0 -1 2
511 1 11.139779507594243 6.074638055627014 6.727530148384734 0 -1 2
512 2 10.478449443116183 6.75898905982492 7.108058158912501 0 -1 2
417 2 11.895912228014847 4.81054914971097 9.02072864010088 -2 -2 2
337 1 15.820416815761012 7.2422484644023175 8.859514816522248 -2 1 3
335 2 13.456914713301474 5.57551643589927 4.928054302663617 0 -4 -1
339 2 15.577568129728695 7.427279824167742 7.931174147297168 -2 1 3
369 2 15.318442462078293 7.38715179513837 5.664048146577021 -5 -1 3
368 2 13.975544312354618 7.793817058370423 5.792570104740464 -5 -1 3
367 1 14.731215189768234 7.613520668104054 6.404783461788898 -5 -1 3
338 2 16.642744346592416 7.718586133464407 9.033459669910162 -2 1 3
40 1 9.432486397353319 10.38569745806995 8.137924353436157 -1 -9 -4
203 2 11.673888618430603 10.694706829746613 5.531766025417391 -1 3 -2
41 2 10.403357432969186 10.604341953784385 7.94466166317455 -1 -9 -4
256 1 11.751424940762144 11.170671345270854 7.202460400271846 6 3 4
257 2 12.54528124363158 11.024917380157227 7.790974911763786 6 3 4
258 2 11.637318886960767 12.157349295941177 7.184100128437355 6 3 4
42 2 9.451279666854257 10.322704341404293 9.084662309460768 -1 -9 -4
217 1 14.071038664188686 11.223138579632908 8.845964101403318 -2 -1 2
156 2 15.017824886001888 9.314698977329769 6.576786793368584 -2 2 1
218 2 14.628399932147083 11.019118388585188 8.054759810485358 -2 -1 2
89 2 17.003793012340836 10.644212421885022 6.332976746987063 -2 0 0
155 2 14.716127735713389 10.524025699234238 5.756139803295295 -2 2 1
154 1 15.067088069122736 10.293957630584144 6.637323882287454 -2 2 1
64 1 11.608302137251178 15.272535939005708 5.272652738779903 -1 -4 4
66 2 10.747514289377468 15.720527453469153 5.165180947053897 -1 -4 4
447 2 10.100949744415303 14.069848104488756 7.6198759076606715 1 3 2
264 2 12.627064802532173 16.61370667153842 5.066993291549813 -3 0 1
445 1 11.096262048225661 13.794554030729394 7.494317623657189 1 3 2
65 2 11.540432628572498 14.79660480114833 6.206668721247211 -1 -4 4
446 2 11.353753973343743 13.830733741172603 8.465149115737988 1 3 2
310 1 16.22571159061285 15.194324252064153 6.7907419913664935 -3 0 3
250 1 14.309006566578274 14.945041583566928 8.676207758860052 -2 -1 0
235 1 15.368277518078573 13.411044042082489 5.048785816613709 -2 -7 -1
312 2 15.577477948631454 14.991054359744235 7.5094079360639645 -3 0 3
236 2 15.707863325558119 13.845903780380675 5.880398300060692 -2 -7 -1
311 2 17.00354952379201 14.671674388265918 7.079498811260862 -3 0 3
293 2 17.64545309099076 16.164714188951216 5.809055293268931 2 -3 0
252 2 14.561297936212124 15.877140046616553 8.995631760716691 -2 -1 0