LAMMPS data file via write_data, version 3 Mar 2020, timestep = 1000000

1008 atoms
2 atom types

2.1919126413787815e-01 1.8180363735855124e+01 xlo xhi
7.7333777100481171e-02 2.2493055222895215e+01 ylo yhi
2.0344608784450635e-01 1.9302269912150493e+01 zlo zhi
9.6197528145941291e-02 -6.7139894366508921e+00 -8.4794481095834019e-03 xy xz yz

Masses

1 16
2 2

Atoms # atomic

1 1 6.5613792535867113e+00 1.0871808149995783e+00 4.6579149499285224e+00 0 0 0
152 2 7.6158961397046419e+00 1.0540076708711150e+00 7.7824026547456446e+00 0 0 0
3 2 6.5557406925940702e+00 1.5771160598465133e+00 3.7863444302477141e+00 0 0 0
4 1 3.9545515354219258e+00 1.3437771354725252e+00 5.1864596951683506e+00 0 0 0
5 2 4.8875238301829800e+00 1.0724757433454113e+00 4.9869896596890237e+00 0 0 0
6 2 3.9095698285007421e+00 1.6747573880050572e+00 6.1555496036256754e+00 0 0 0
7 1 -4.9795405187712971e-01 6.4470291733659071e+00 5.1549862527809012e+00 0 0 0
8 2 -4.5483132966784123e-01 5.9667689252444172e+00 5.9872397308318810e+00 0 0 0
9 2 -1.1907090784406460e+00 7.1556707954229584e+00 5.2587590123478805e+00 0 0 0
10 1 2.3374916593624588e+00 6.5762385898570059e+00 4.7881839964871613e+00 0 0 0
11 2 1.4833658295415686e+00 6.9500941328107011e+00 5.1367647003322743e+00 0 0 0
12 2 3.0667440494731197e+00 7.1423461885083022e+00 4.9531575012996747e+00 0 0 0
16 1 5.5102373422898587e+00 4.8736662547670653e+00 3.6416973100981836e-01 0 0 0
14 2 5.0525183703277028e+00 5.2200008278393586e+00 8.8478787035590365e+00 0 0 0
274 1 9.1868779329433732e+00 1.0398462111706573e+01 9.5234909391258942e+00 0 0 0
22 1 7.8738326760581856e-01 2.6121685697433903e+00 9.2870051017077806e+00 0 0 0
18 2 5.4707963685055692e+00 5.2714911058661036e+00 1.2757262505319624e+00 0 0 0
224 2 1.5843326570788019e-03 1.0984789562421826e+01 4.2026999131216343e+00 0 0 0
156 2 1.2027394019593535e+01 5.8551159057341484e-01 2.1192759395342065e+00 0 0 0
21 2 1.1193506736905232e+00 2.6428596752559290e+00 1.2605857458643206e+00 0 0 0
304 1 1.2682107543784555e+01 1.0825765216495975e+01 3.4552936361729696e+00 0 0 0
780 2 1.3195532765300165e+01 9.6170172934947740e+00 7.7015340059180692e-01 0 0 0
254 2 1.5586200506369407e+01 9.1694965436000544e+00 5.4943232408140084e+00 0 0 0
25 1 4.7221139637440306e+00 5.9889554288334086e+00 7.3907174042144694e+00 0 0 0
26 2 5.3787556719402190e+00 6.7576453343052352e+00 7.6000020577828877e+00 0 0 0
27 2 3.8560874763079318e+00 6.3806590781126058e+00 7.5037514588956187e+00 0 0 0
28 1 5.7257617515727421e+00 6.4251369222999903e+00 2.4693746627200457e+00 0 0 0
29 2 5.5615902347858359e+00 6.0584674342065377e+00 3.3578528111606736e+00 0 0 0
30 2 5.1326055714204877e+00 7.1957529662591559e+00 2.3230810469448375e+00 0 0 0
31 1 1.5434387584376146e+00 1.3999809446648339e+00 2.3919364713185414e+00 0 0 0
86 2 1.6195371911610827e+01 5.0506535386797879e-01 4.8285467836410216e+00 0 0 0
33 2 1.5733659303492062e+00 1.6702558370795055e+00 3.3197855571888990e+00 0 0 0
34 1 4.8584789058477185e-01 1.0102667876203695e+00 7.2508241157863420e+00 0 0 0
311 2 1.0714235403325290e+01 1.0795305551301382e+01 6.3289911866845436e+00 0 0 0
36 2 4.1221510095660507e-01 1.5244587783121712e+00 8.0741801602478276e+00 0 0 0
37 1 6.1735146827691265e+00 2.3661705993033189e+00 2.4234572803402821e+00 0 0 0
38 2 5.2646336385678882e+00 2.6718397897126680e+00 2.5632530839533794e+00 0 0 0
39 2 6.7392255903344775e+00 3.1208962134187739e+00 2.6437678023697493e+00 0 0 0
40 1 4.3002288115818113e+00 2.7028756416087529e+00 7.4384657340900420e+00 0 0 0
41 2 5.1053192403786163e+00 3.0826253017420635e+00 7.0008730151578469e+00 0 0 0
42 2 3.6413150679219415e+00 3.4372175337630821e+00 7.3730553700282133e+00 0 0 0
43 1 -2.4238815529890134e-01 4.8174105552375002e+00 7.5235372715595048e+00 0 0 0
44 2 -9.9897495499607403e-01 4.2052708056536421e+00 7.3662589630120845e+00 0 0 0
45 2 -5.7529993462848861e-01 5.2601630696029558e+00 8.3782448246545123e+00 0 0 0
46 1 1.8389659360827404e+00 4.9743606608656465e+00 2.5748306818978302e+00 0 0 0
47 2 9.0543239592251445e-01 4.7877736037095602e+00 2.8127661842820251e+00 0 0 0
48 2 2.0394604656674522e+00 5.6729701411578795e+00 3.2258516219268678e+00 0 0 0
49 1 6.7561163585082156e+00 3.3499240565122892e+00 6.3475645580669671e+00 0 0 0
50 2 6.3292295609115499e+00 4.0280290901913300e+00 5.7980266042356865e+00 0 0 0
51 2 6.8147751476032674e+00 2.5900587757141693e+00 5.7902141620272758e+00 0 0 0
52 1 3.9552000328286203e+00 3.5478412686054837e+00 3.4370038124371076e+00 0 0 0
53 2 3.0022336607847935e+00 3.7579934997661075e+00 3.1398918449451219e+00 0 0 0
54 2 3.8197053404499428e+00 2.7673139463246050e+00 4.0205457799560023e+00 0 0 0
55 1 -6.8827206956905451e-01 4.3207699285438528e+00 3.4126693822662206e+00 0 0 0
56 2 -8.8330765107760967e-01 5.1095381554436834e+00 3.9692195041427816e+00 0 0 0
57 2 -3.1379413149970259e-01 3.5674816461268843e+00 3.9253822590133072e+00 0 0 0
58 1 2.1079456723756227e+00 4.2883496350028549e+00 6.4621336416654795e+00 0 0 0
59 2 2.4108295794017214e+00 5.0700754081632740e+00 5.9657902132901368e+00 0 0 0
60 2 1.3443426091020569e+00 4.6303853957779664e+00 6.9673199499914498e+00 0 0 0
61 1 8.3994356300665576e+00 6.9276763677977984e+00 2.0031927611340481e+00 0 0 0
62 2 7.4571122517327089e+00 6.7480240598570145e+00 2.2314910591775452e+00 0 0 0
190 1 6.7956378969489339e-01 1.0276929960594133e+01 9.4529192132367417e+00 0 0 0
64 1 2.3665513223536840e+00 6.8734777516994852e+00 8.0597193143492021e+00 0 0 0
65 2 1.4921553909717975e+00 7.2367004425947661e+00 7.7548638377267967e+00 0 0 0
66 2 2.6472142379994601e+00 7.5441491850770053e+00 8.7654551750277712e+00 0 0 0
290 2 1.6158544982309202e+01 1.0769479566676370e+01 2.8234747054308831e+00 0 0 0
68 2 -2.0386439881408709e+00 1.5385054983847997e+00 8.7085693640417503e+00 0 0 0
671 2 8.3193049594177246e+00 5.5115652931322483e+00 9.0296701842465765e+00 0 0 0
72 2 4.1428813431943894e+00 1.3754185234480698e+00 6.0052591430361613e-01 0 0 0
73 1 5.3720769215548820e+00 5.2060916595877780e+00 4.9279698388081243e+00 0 0 0
74 2 5.0868952954141040e+00 5.6850799651340633e+00 5.7378609266907175e+00 0 0 0
75 2 4.6044408477650212e+00 4.6789006790368060e+00 4.5666517933654900e+00 0 0 0
76 1 8.3462488599235463e-01 2.5930766076541953e+00 4.7660810085515832e+00 0 0 0
77 2 4.8031808186623270e-01 1.9557708265727733e+00 5.4533157729628829e+00 0 0 0
78 2 1.2767308665798969e+00 3.1600355448588875e+00 5.5035390803569531e+00 0 0 0
80 2 6.6240200969911207e+00 1.8522414378630077e+00 9.5774811627155843e-01 0 0 0
83 2 1.9585266794532847e+00 5.9900105243347461e+00 1.2043561548081723e+00 0 0 0
668 2 1.2946395230855590e+01 1.7180668266651060e+00 9.0703865684578133e+00 0 0 0
85 1 1.5462795791232432e+01 1.1713147170084752e+00 4.8607464551698518e+00 0 0 0
87 2 1.5468650265643213e+01 1.7928606645412268e+00 4.1032051568135790e+00 0 0 0
88 1 1.2754062903588538e+01 1.1662375898608985e+00 5.3284342260682500e+00 0 0 0
89 2 1.2735057203258183e+01 1.9681258858089301e+00 4.8153400151876014e+00 0 0 0
90 2 1.3642947291050346e+01 8.6992167659752184e-01 5.0484872493608455e+00 0 0 0
91 1 8.3338035747083410e+00 6.2305479962232955e+00 5.1324157453040291e+00 0 0 0
92 2 8.1509787465923473e+00 5.5529031833412441e+00 4.4762370542705021e+00 0 0 0
93 2 9.3220720296648505e+00 6.4010541490484822e+00 5.1218250401767058e+00 0 0 0
94 1 1.1006545980306695e+01 6.4756201787121412e+00 4.7524540317253861e+00 0 0 0
95 2 1.1702557121349180e+01 7.2482438905280393e+00 4.8043802753047888e+00 0 0 0
96 2 1.1451829390788600e+01 5.7889787328558331e+00 5.2769050787528231e+00 0 0 0
584 2 3.2229564448309675e+00 6.6443205850247633e-01 9.4034201254791103e+00 0 0 0
145 1 1.7263130705739215e+01 7.2003954512589239e+00 1.8736126212006823e+00 0 0 0
221 2 4.4896670798727403e+00 1.0859400493688602e+01 3.1907647881143224e+00 0 0 0
101 2 1.4368755955233008e+01 5.3879332358300092e+00 1.1419991424453992e+00 0 0 0
331 1 1.5879807819862810e+01 9.0938274435516053e+00 3.9356492941114002e-01 0 0 0
70 1 4.0593912669610779e+00 7.4042831884563964e-01 1.3388976845055471e+00 0 0 0
189 2 2.1971956399380010e+00 1.0344314877516300e+01 3.3243535216344944e-01 0 0 0
692 2 1.4871458778108083e+01 1.0902087944435927e+01 9.5582647561624796e+00 -1 0 0
109 1 1.3486159083538906e+01 6.5256549163933393e+00 7.4840821660998644e+00 0 0 0
110 2 1.3750477364390326e+01 5.8689349921844425e+00 8.1476815445630120e+00 0 0 0
111 2 1.2592793228691503e+01 6.7120475529091790e+00 7.7237721955397678e+00 0 0 0
112 1 1.4809240899913483e+01 6.4153493778066899e+00 2.6605286179634056e+00 0 0 0
113 2 1.4216112460915847e+01 7.0136178388805028e+00 2.1539933297752665e+00 0 0 0
114 2 1.5705476931179380e+01 6.7172576687140539e+00 2.4090346634432733e+00 0 0 0
115 1 1.0177929870777110e+01 1.1286458690080652e+00 2.7623145303013832e+00 0 0 0
116 2 1.0129690840783466e+01 1.7473099184481888e+00 1.9679798607393630e+00 0 0 0
753 2 3.7739001640233409e+00 9.2622297800095197e+00 8.8499857917627001e+00 0 0 0
118 1 9.3024977835892866e+00 1.0149157064085752e+00 7.3163641276828528e+00 0 0 0
119 2 9.4976417003415605e+00 1.6915641875188909e+00 8.0426708373787079e+00 0 0 0
120 2 9.2941957056560227e+00 1.5746991344299777e+00 6.5057415253529287e+00 0 0 0
121 1 1.5402516545752261e+01 2.6926764299945281e+00 2.4998486756705280e+00 0 0 0
122 2 1.6097886907722483e+01 3.3674476474337829e+00 2.5672933046463946e+00 0 0 0
123 2 1.5369633719397561e+01 2.3876568417586124e+00 1.5805810954738828e+00 0 0 0
124 1 1.2989385491038851e+01 2.4637537411967956e+00 7.5435708161877288e+00 0 0 0
125 2 1.3877260940748380e+01 2.8310902865879308e+00 7.5095650070893436e+00 0 0 0
126 2 1.3027332763468225e+01 1.8856071038509907e+00 6.7353221003741321e+00 0 0 0
127 1 8.4859759324484099e+00 4.8552112207989788e+00 7.4641807839565102e+00 0 0 0
128 2 7.8336172078754416e+00 4.1348405048346635e+00 7.1181136635259934e+00 0 0 0
129 2 8.3438526414511625e+00 5.4484840766100442e+00 6.6871764980986326e+00 0 0 0
130 1 1.0799360361442039e+01 4.6303840390891642e+00 2.5445719729832152e+00 0 0 0
131 2 1.1649777204009386e+01 4.1687254839448737e+00 2.7041321841067649e+00 0 0 0
132 2 1.0765880704358171e+01 5.3541378755790809e+00 3.1552050555026963e+00 0 0 0
134 2 1.5127687639928903e+01 4.1305791366517051e+00 6.0340261498476515e+00 0 0 0
136 1 1.2907257963411913e+01 3.4212001032861981e+00 3.7278570236496980e+00 0 0 0
137 2 1.3204662296326633e+01 4.1528476757321888e+00 4.3021107227719337e+00 0 0 0
138 2 1.3715402163298796e+01 3.1249985635623192e+00 3.2536508886756419e+00 0 0 0
139 1 8.1124191124604437e+00 3.9119294640177493e+00 3.3918144338116707e+00 0 0 0
140 2 8.8360291135433506e+00 4.2833963036861604e+00 2.9081323119101601e+00 0 0 0
141 2 8.5451466929114517e+00 3.2288023963566825e+00 3.9737654234387665e+00 0 0 0
142 1 1.1022366587681015e+01 4.1360545814159844e+00 6.2522470023128740e+00 0 0 0
143 2 1.1674040220664461e+01 3.8438822678665576e+00 6.9771092890612092e+00 0 0 0
144 2 1.0214711731574528e+01 4.3635257177849915e+00 6.8344048492889069e+00 0 0 0
147 2 1.6903083153262074e+01 7.9170125903178787e+00 1.3608303237423691e+00 0 0 0
148 1 1.0877060141100127e+01 7.0715911556335325e+00 8.6345229720782033e+00 0 0 0
149 2 1.0829310150770164e+01 6.1813949959150323e+00 9.0377290523630602e+00 0 0 0
150 2 1.1369362978104279e+01 7.6543014016628357e+00 9.2523684756600879e+00 0 0 0
35 2 -4.2647754363437262e-01 6.6066134760098894e-01 7.2497344599929656e+00 0 0 0
79 1 7.2404095625789884e+00 1.4537670073263134e+00 2.4344911499957383e-01 0 0 1
153 2 6.4622547124392362e+00 1.5375880613464845e+00 8.7998213485275443e+00 0 0 0
836 2 1.2554017047503505e+01 9.5514026003552690e+00 9.1989903675295412e+00 0 0 0
155 2 1.2861820922248068e+01 1.3243400054850756e+00 1.1064613892796007e+00 0 0 0
585 2 4.1901014235451175e+00 1.7004613737930423e+00 8.9817550935289763e+00 0 0 0
157 1 1.4165142176801174e+01 5.3474131145533423e+00 5.2557166187709221e+00 0 0 0
158 2 1.4504962378289100e+01 5.9257616610603110e+00 4.5748414484875424e+00 0 0 0
159 2 1.3948608726300272e+01 5.9180842869319523e+00 6.0106022974941551e+00 0 0 0
160 1 9.5049967520711789e+00 2.3598583410033900e+00 4.9028391272276011e+00 0 0 0
161 2 1.0251893389828414e+01 2.7884138071323163e+00 5.3436863413932665e+00 0 0 0
162 2 9.9787470450132254e+00 1.7798168955929234e+00 4.2419199643142269e+00 0 0 0
237 2 1.4685724949961520e+01 7.6881911241422838e+00 7.6862475299493163e+00 0 0 0
401 2 1.9208964366427224e+00 9.1157247267842925e-02 7.6714008146440857e+00 0 0 0
99 2 1.2973479115648649e+01 4.4846860844447445e+00 9.6188536766839814e+00 0 0 0
169 1 6.7545131126635267e+00 8.4622493829585199e+00 4.9339317287933016e+00 0 0 0
170 2 7.4143709089542718e+00 7.7936447487133993e+00 5.0608969516644660e+00 0 0 0
171 2 7.0108473853462208e+00 9.2286276722650253e+00 5.5257328386536280e+00 0 0 0
172 1 4.1595676891490330e+00 8.6634715962441042e+00 5.3221933759768847e+00 0 0 0
173 2 3.9584237600080612e+00 9.3785133220343528e+00 4.6405434944066490e+00 0 0 0
174 2 5.0844525310314825e+00 8.3784637608308934e+00 5.1897354085692236e+00 0 0 0
146 2 1.7329914445201247e+01 6.5302780324885594e+00 1.1243117653590051e+00 0 0 0
135 2 1.5618722427253047e+01 2.7044295617682232e+00 5.9951256429784046e+00 0 0 0
248 2 7.8115785615256641e+00 8.4355680822110983e+00 8.9844258116340669e-01 0 0 0
192 2 6.2137636687785180e-01 9.8189677060485927e+00 8.5514641183996982e+00 0 0 0
199 1 1.4435270356279222e+00 8.7476708226307451e+00 2.6458670757610321e+00 0 0 0
200 2 1.2652111049190193e+00 9.4709927071580378e+00 1.9878713119163551e+00 0 0 0
201 2 5.7914689393473107e-01 8.2311248548076854e+00 2.5744840774995978e+00 0 0 0
202 1 2.8020052790244643e-01 8.4885460120035159e+00 7.3139859002692633e+00 0 0 0
203 2 -6.6271823148581266e-01 8.4632504481448123e+00 7.5617806155958975e+00 0 0 0
204 2 4.1400349943822023e-01 9.0748722120511367e+00 6.5046949691655174e+00 0 0 0
205 1 6.0254378652829930e+00 1.0161890987522190e+01 2.6628467957909105e+00 0 0 0
206 2 6.1420949443883188e+00 9.4268759603644483e+00 3.2483237622209171e+00 0 0 0
207 2 6.2088721995285452e+00 9.9036015670897015e+00 1.7465465355690191e+00 0 0 0
208 1 4.2437561057868205e+00 1.0401025572799417e+01 7.4119900562684391e+00 0 0 0
154 1 1.2822948161747526e+01 4.8621848546410401e-01 1.5947753631763861e+00 0 0 0
210 2 4.2498579769201896e+00 9.7934764633429854e+00 6.6409099829726923e+00 0 0 0
97 1 1.3946425228038880e+01 4.7058148372909558e+00 9.5324122154634647e+00 0 0 0
586 1 -1.2515524838409555e+00 6.1770714575766990e+00 9.4845361405257513e+00 0 0 0
84 2 3.0296842819873930e+00 7.0492331502605854e+00 7.9364927180002021e-01 0 0 0
587 2 -1.8073369606488692e+00 6.9419798043137382e+00 9.1409221885386813e+00 0 0 0
301 1 1.5552477304077117e+01 1.0774832500945333e+01 6.2342233885214275e+00 0 0 0
235 1 -2.4175025431883554e+00 8.0237346577849955e+00 7.9762933273353660e+00 0 0 0
236 2 -2.4971251989243695e+00 8.8619157016978019e+00 8.4589505906788531e+00 0 0 0
238 1 3.8710845875435251e+00 8.2442580137646750e+00 1.8293800331018930e+00 0 0 0
239 2 3.0873588023170901e+00 8.4758781352793058e+00 2.3220014621348612e+00 0 0 0
240 2 3.9961898377703018e+00 9.0132280049725750e+00 1.2027452970843020e+00 0 0 0
244 1 1.1085463084381852e+00 9.8892191531116378e+00 5.1863029459506906e+00 0 0 0
245 2 1.2833407228573792e+00 9.5300040024262032e+00 4.2713490454233209e+00 0 0 0
246 2 1.7151625792893905e+00 1.0524258269839525e+01 5.4871985007209156e+00 0 0 0
2 2 7.3310044948239401e+00 4.8629350989509140e-01 4.6468024220977622e+00 0 0 0
271 1 1.0094310329078507e+01 1.0286450622481320e+01 2.1504574899418816e-01 0 0 0
253 1 1.5514111297964527e+01 8.3879482392049560e+00 4.8820853707749787e+00 0 0 0
255 2 1.5552504719706770e+01 8.8484297279462396e+00 4.0643807298320027e+00 0 0 0
256 1 1.2657008501318298e+01 8.5674215152613638e+00 5.1870359508888235e+00 0 0 0
257 2 1.3609650306497119e+01 8.3120379278603096e+00 5.0451394103953229e+00 0 0 0
258 2 1.2514073879426597e+01 9.2167407705588840e+00 4.4593972684330483e+00 0 0 0
273 2 1.1039552260200537e+01 1.0417587363545094e+01 2.2378736127822274e-01 0 0 1
272 2 1.0008910951851961e+01 9.8763667041426668e+00 1.1247234869877216e+00 0 0 0
305 2 1.1938489669921857e+01 1.0906468630551416e+01 2.8498697160185356e+00 0 0 0
276 2 9.3968296533969653e+00 1.0249671134810461e+01 8.6002551155704872e+00 0 0 0
283 1 1.0207380465219538e+01 8.8505609075992275e+00 2.6638379368501126e+00 0 0 0
284 2 1.0013492339970410e+01 9.3328521400938929e+00 3.4925849067268580e+00 0 0 0
285 2 9.5206606988734137e+00 8.1534576294050467e+00 2.7689648753016218e+00 0 0 0
286 1 9.1442906259914860e+00 8.4956928149016839e+00 7.1168993477369797e+00 0 0 0
287 2 9.8057143245968845e+00 7.8883776249293120e+00 7.5681191005982642e+00 0 0 0
288 2 8.2583734391481975e+00 8.1913266169781043e+00 7.4348506354829542e+00 0 0 0
289 1 1.5334037555351259e+01 1.0241827254710030e+01 2.8342759232552610e+00 0 0 0
100 1 1.4503122545242945e+01 5.1086025025173276e+00 2.6156945548506705e-01 0 0 0
291 2 1.5439700285774801e+01 9.7559534459325388e+00 1.9686149797036552e+00 0 0 0
292 1 1.3348209880385733e+01 1.0186365552736707e+01 7.6802719095230341e+00 0 0 0
167 2 1.0985107514427755e+01 5.5884523939857571e+00 1.0200836407637937e+00 0 0 0
294 2 1.3076179739333655e+01 9.5477562727965211e+00 6.9512545188950101e+00 0 0 0
399 2 8.0765572639820782e+00 2.7196398050087206e-01 1.2207651273862912e+00 0 0 0
32 2 2.5361571490210340e+00 1.2361899096432920e+00 2.1453382581673948e+00 0 0 0
306 2 1.3514166129544508e+01 1.0665628794878202e+01 2.9964586951764285e+00 0 0 0
219 2 5.9146414169646286e+00 1.0651631844899635e+01 7.0248309634634483e+00 0 0 0
319 1 6.7292794802806135e+00 7.7235712656784274e+00 8.1681362925186107e+00 0 0 0
320 2 6.5220603820809302e+00 8.5670889309659533e+00 8.5938620155638201e+00 0 0 0
321 2 7.1642957178389608e+00 7.1202229004110089e+00 8.9032190416084660e+00 0 0 0
322 1 1.2792580503108759e+01 7.8615636310864936e+00 1.6859618908841494e+00 0 0 0
323 2 1.2267902925240698e+01 8.1661779109423023e+00 2.4834006613305037e+00 0 0 0
324 2 1.2251893530787315e+01 7.0997624666788788e+00 1.2260930834520087e+00 0 0 0
328 1 9.8328057040080292e+00 9.8089474466520983e+00 5.0366779335179039e+00 0 0 0
329 2 9.5365912035429652e+00 9.1088932879915951e+00 5.7028261062716350e+00 0 0 0
330 2 9.0475599662754984e+00 1.0505507143798724e+01 4.9474456440997781e+00 0 0 0
187 1 1.2665810832755706e+00 1.0239192539212992e+01 4.1741071845576655e-01 0 0 0
521 2 2.2048642599329580e+00 5.4347446679863083e+00 8.9704761172909091e+00 0 0 0
133 1 1.5437789279276776e+01 3.4195047227031576e+00 6.6106633589539276e+00 0 0 0
117 2 9.4309575486438515e+00 5.5266838766264759e-01 2.4760610804223604e+00 0 0 0
63 2 8.6589391049273345e+00 6.2337697411593034e+00 1.3407301550395470e+00 0 0 0
82 1 2.3816368180453535e+00 6.4190576225928915e+00 4.0625804024340562e-01 0 0 1
69 2 1.5228095836708640e+01 2.9609822269248820e-01 7.8763469104955321e+00 0 0 0
217 1 6.7330448477499880e+00 1.0720896780076277e+01 6.4324749070511720e+00 0 0 0
13 1 5.2014068915272844e+00 4.7983376491316774e+00 9.7211426689153271e+00 0 0 0
302 2 1.4888369727597526e+01 1.0754671291211208e+01 6.9203562877900762e+00 0 0 0
67 1 -2.0273364562563536e+00 5.7081386413548407e-01 8.5827760143536853e+00 0 0 0
103 1 1.0235767276971659e+01 2.6557618280761774e+00 3.8953679051902712e-01 0 0 0
220 1 3.6235978144141789e+00 1.0910652415295067e+01 3.7459178363352148e+00 0 0 0
151 1 6.8093647468776766e+00 7.1338161932041411e-01 8.2422890842214649e+00 0 0 0
602 2 1.6511017017013245e+01 4.8255869465219199e+00 2.8101097628725658e-01 0 0 0
293 2 1.2728401146414511e+01 1.0886780119872419e+01 7.4765831185787803e+00 0 0 0
24 2 -5.4080880520994690e-02 3.1098527086244365e+00 9.2892500805045994e+00 0 0 0
775 1 6.3744167067187485e+00 1.0133671811622744e+01 9.7269828374237193e+00 0 0 0
209 2 3.5905885403226816e+00 1.1080590538009426e+01 7.3076516166700900e+00 0 0 0
751 1 3.5158152989750966e+00 8.6809806332760520e+00 9.6488603671656445e+00 0 0 0
777 2 5.6047517122739769e+00 1.0768331273440202e+01 9.7004915593076664e+00 0 0 0
17 2 4.7874109973812775e+00 4.2022497714436806e+00 2.6795312959158823e-01 0 0 0
693 2 -1.4762598746850102e+00 1.0657314773829546e+01 9.5131489072288300e+00 0 0 0
23 2 1.4216377440117931e+00 3.3957797114200896e+00 9.5010068551914983e+00 0 0 0
691 1 -2.3524322071439876e+00 1.0233842479333482e+01 9.6325412576690965e+00 0 0 0
776 2 7.2271406672744121e+00 1.0577692070920239e+01 9.5585308274999239e+00 0 0 0
523 1 -1.8855290053259250e+00 2.9530997112658799e+00 9.5862884458775621e+00 0 0 0
520 1 2.3946582964986165e+00 4.6608803757144281e+00 9.5647601478064672e+00 0 0 0
106 1 9.7073716534904211e+00 2.4900057682941781e+00 9.6159761814129148e+00 0 0 0
19 1 1.2377739366634004e+00 3.0040471461750764e+00 3.5315801778704858e-01 0 0 0
247 1 7.2789186025211006e+00 9.0983455883643529e+00 4.5995669217800733e-01 0 0 0
166 1 1.1309111893800864e+01 6.2157270297600755e+00 3.4232429419746624e-01 0 0 1
104 2 9.4604450681072905e+00 3.2916237746303820e+00 2.0476142080841522e-01 0 0 1
524 2 -2.7643462996428916e+00 3.4695469027959245e+00 9.5277924730897503e+00 0 0 0
517 1 8.3859380222616391e+00 4.6919294440857140e+00 2.0669338863335460e-01 0 0 1
612 2 1.2016554424015322e+01 2.8884992209415246e+00 2.1987525299228317e-01 0 0 0
102 2 1.3895212146014060e+01 4.3282292324791012e+00 2.0400992835024834e-01 0 0 0
608 2 6.3819700421168459e+00 3.5550765347657438e+00 1.0110762711915530e+01 0 0 0
797 2 1.0620081316743127e+01 1.0427892130732742e+01 1.6882045598003494e+01 0 0 0
518 2 7.1085355162915143e-01 4.4624760503176892e+00 1.9118413601744955e+01 0 0 -1
824 2 2.4659734034345204e+00 7.6365036501116812e+00 1.7376295521098427e+01 0 0 0
163 1 9.4823139374422443e+00 1.4466057051438450e+00 1.9097195194638537e+01 0 0 -1
812 2 4.0397641285417052e+00 1.1186542471637638e+01 1.2232176150587025e+01 0 0 0
694 1 -2.7887789238994074e+00 1.0390217027783560e+01 1.9296532755802879e+01 0 0 0
588 2 -1.5249436531713270e+00 5.8992008071768112e+00 1.0386979548623268e+01 0 0 0
333 2 8.7646739875942590e+00 8.2906002757542403e+00 1.9055840650125859e+01 0 0 0
805 1 1.2461659275697633e+01 1.0807740548317065e+01 1.6303762202811960e+01 0 0 0
191 2 5.2828806667606365e-01 9.5951683848932525e+00 1.0110911231614953e+01 0 0 0
728 2 -3.6444975234722623e+00 1.1147709738410146e+01 1.3497131018566531e+01 0 0 0
98 2 1.4089457150754514e+01 5.3497414314366765e+00 1.0249806363257887e+01 0 0 0
275 2 9.3839677511294237e+00 9.5838103284042635e+00 1.0034770344623341e+01 0 0 0
659 2 1.0399710847570391e+01 2.0130409068023947e-01 1.1536861282940485e+01 0 1 0
827 2 1.0287696555179705e+01 7.6033805640748584e+00 1.1676028732723589e+01 0 0 0
721 1 3.1918105318678203e+00 1.0591082183645216e+01 1.5913330068908705e+01 0 0 0
834 2 5.7742607010081421e+00 1.0895897230449309e+01 1.3886993814950106e+01 0 0 0
505 1 3.3843068464892800e+00 1.3002963486187127e+00 1.4175028989497992e+01 0 0 0
506 2 3.7170194150740210e+00 1.9604523622972994e+00 1.4769696481099656e+01 0 0 0
537 2 -9.5199629594598578e-01 9.8567665056692921e-01 1.2043667777641579e+01 0 0 0
508 1 6.0571778193774595e-01 1.6246435971548818e+00 1.4749527344312410e+01 0 0 0
778 1 6.1138916623860862e+00 1.0257508267903059e+01 1.9226455916281814e+01 0 0 0
510 2 1.5528381155270328e+00 1.3014074221977350e+00 1.4647722932178178e+01 0 0 0
511 1 -4.1041948434515003e+00 6.8231218357194132e+00 1.4705855295531709e+01 0 0 0
512 2 -4.1654151473275078e+00 5.9993663222033753e+00 1.4079920596786568e+01 0 0 0
513 2 -4.0971690316121299e+00 6.4214547942943900e+00 1.5545937977842744e+01 0 0 0
514 1 -1.2365862914326593e+00 6.8735965180986556e+00 1.4560554735988299e+01 0 0 0
515 2 -1.1886697267033157e+00 6.0884068496091652e+00 1.5158759757178020e+01 0 0 0
516 2 -2.2391224347250875e+00 6.9887019576684422e+00 1.4562832427182435e+01 0 0 0
574 1 6.7637832503937823e-01 2.3349185687948096e-01 1.1002820015991807e+01 0 0 0
519 2 1.8300685664081815e+00 5.1151615143492526e+00 1.8416116491718306e+01 0 0 0
188 2 -5.6729256472995200e+00 9.6007557395959271e+00 1.8799702872005987e+01 0 0 0
522 2 2.3911261778906905e+00 5.0269813173884170e+00 1.0453063913649933e+01 0 0 0
20 2 -5.8896343234143895e+00 3.8771348926762572e+00 1.9254422681677319e+01 0 0 -1
903 2 4.9726637082083371e+00 2.4344972964004957e-01 1.0610201354108973e+01 0 0 0
525 2 -1.7275647460200025e+00 2.5081807447604172e+00 1.0423412324567588e+01 0 0 0
749 2 -1.9069880255754619e+00 1.0696003385445787e+01 1.4904150707801838e+01 0 0 0
527 2 -2.8871125978492733e+00 2.7282266107651996e+00 1.7977078774207335e+01 0 0 0
529 1 1.1871392220880423e+00 6.4822770930509872e+00 1.6884791916960339e+01 0 0 0
530 2 1.2105002840203110e+00 6.0847513507093822e+00 1.5987526148289509e+01 0 0 0
531 2 2.5302417737437999e-01 6.7352218426096115e+00 1.7058832659049067e+01 0 0 0
532 1 2.4563082150270255e+00 6.2392190154053733e+00 1.1943856119241612e+01 0 0 0
533 2 3.3259872537519923e+00 6.6100244948822766e+00 1.1865158577202738e+01 0 0 0
534 2 2.4547037720978304e+00 5.8725238954158563e+00 1.2863876617685948e+01 0 0 0
535 1 -1.7846158729481334e+00 1.4842883071257313e+00 1.2155171192233396e+01 0 0 0
658 1 9.4974549912068742e+00 4.6316535206801002e-01 1.1237050713051286e+01 0 0 0
107 2 9.8055417414080495e+00 1.7015036409446671e+00 1.0163240942892321e+01 0 0 0
538 1 -3.0654177221204817e+00 1.4799688504773192e+00 1.6696329501195876e+01 0 0 0
539 2 -3.9725535776643577e+00 1.2224965837047330e+00 1.6972584580394887e+01 0 0 0
540 2 -3.1107651274557782e+00 1.6574144894193139e+00 1.5684222762497022e+01 0 0 0
541 1 2.9894152993063363e+00 2.8223134906571912e+00 1.1903669538652522e+01 0 0 0
542 2 2.9908402245987462e+00 2.1554290659803601e+00 1.2597867167443814e+01 0 0 0
543 2 3.2138331970049423e+00 2.2926072454047901e+00 1.1097369161435994e+01 0 0 0
544 1 5.6005445052110581e-01 3.0669430878605666e+00 1.6927683878004828e+01 0 0 0
545 2 4.5830069597889977e-01 2.6206382534696324e+00 1.7777737881794778e+01 0 0 0
546 2 6.4347930862718261e-01 2.3555447530092444e+00 1.6278184066003135e+01 0 0 0
547 1 -3.8933703016055121e+00 5.2808166661782003e+00 1.7000229683672821e+01 0 0 0
548 2 -4.3156775445251681e+00 4.4056674016724653e+00 1.6731162912829227e+01 0 0 0
549 2 -4.0706338761686789e+00 5.3969823265486063e+00 1.7956399840280575e+01 0 0 0
550 1 -1.7337194969888170e+00 5.1511239127565016e+00 1.1877263639642468e+01 0 0 0
551 2 -1.0192822728218252e+00 4.5220183412266692e+00 1.2109991907176388e+01 0 0 0
552 2 -1.6867330608975002e+00 5.8942133856318328e+00 1.2501068487434518e+01 0 0 0
553 1 3.4599792313405624e+00 3.3183856173389166e+00 1.6114563134823477e+01 0 0 0
554 2 2.6064277630935049e+00 3.2018416445878999e+00 1.6578351547631470e+01 0 0 0
555 2 3.9382171171901588e+00 4.0567907570410542e+00 1.6561814024539053e+01 0 0 0
556 1 3.0542819632317464e-01 3.6211388494184207e+00 1.2652352070005241e+01 0 0 0
557 2 1.1498819734545993e+00 3.6393683426873396e+00 1.2168315793604460e+01 0 0 0
558 2 2.5633762103674407e-01 2.7232198198397608e+00 1.3034060493171364e+01 0 0 0
559 1 -3.9789305671745208e+00 4.3995307659519858e+00 1.3184597764897612e+01 0 0 0
560 2 -3.2589478470108979e+00 4.5296057358252071e+00 1.2524140335381274e+01 0 0 0
561 2 -3.6243630840797572e+00 3.7228249863939347e+00 1.3727074742601619e+01 0 0 0
562 1 -1.4168175832175454e+00 4.6259333606011213e+00 1.5902739489186626e+01 0 0 0
563 2 -7.1525867460635251e-01 4.1135582738048884e+00 1.6383415048611631e+01 0 0 0
564 2 -2.1992101220097036e+00 4.7239151737083702e+00 1.6535081825949007e+01 0 0 0
565 1 5.0953959442415080e+00 7.0213447134406817e+00 1.1273270661044311e+01 0 0 0
566 2 4.8517078657692378e+00 7.5793153209649375e+00 1.0547119386692724e+01 0 0 0
567 2 5.2680980656959839e+00 6.1048363002387935e+00 1.0884842412444254e+01 0 0 0
568 1 -1.1519962574339111e+00 7.1558737694791565e+00 1.8218260839417979e+01 0 0 0
569 2 -1.2782995045347159e+00 6.3265005836919208e+00 1.8711639300886972e+01 0 0 0
570 2 -5.5755099472138614e-01 7.7331195456407249e+00 1.8714443328822369e+01 0 0 0
573 2 1.2018565972416761e+01 8.4965485341878838e-02 1.7534856530277708e+01 0 0 0
572 2 -5.7583991761821096e+00 1.4714826925675546e+00 1.8401275563482585e+01 0 0 0
711 2 2.0359451708325578e+00 1.0246060914230519e+01 1.2215154420640040e+01 0 0 0
794 2 1.2438303170055830e+01 1.1054839525331468e+01 1.2318631190741980e+01 0 0 0
576 2 6.2419672437071183e-01 1.0367454598498114e+00 1.0459442562326130e+01 0 0 0
577 1 1.9798909697583715e+00 5.1832006296146425e+00 1.4575877137699715e+01 0 0 0
578 2 1.2757203525017884e+00 4.6853350759056251e+00 1.4163232533915387e+01 0 0 0
579 2 2.5660417670020950e+00 4.5551309951244887e+00 1.5017005827647457e+01 0 0 0
580 1 -2.5699935958548306e+00 2.5396253690628536e+00 1.4372756166421677e+01 0 0 0
581 2 -1.9306144896841797e+00 2.2222703660812004e+00 1.3653477151174364e+01 0 0 0
582 2 -2.0688973797408896e+00 3.1563093294337512e+00 1.4937588730081215e+01 0 0 0
724 1 4.8576476536844382e-01 1.0829406304279198e+01 1.2875876628156478e+01 0 0 0
528 2 -3.9354128349220137e+00 2.9442111191038460e+00 1.9149573987554909e+01 0 0 -1
589 1 1.2358273812190998e+01 9.5219905470821486e-01 1.4406418255593278e+01 0 0 0
807 2 1.2408270106938534e+01 1.0070823832020759e+01 1.5692235755257844e+01 0 0 0
591 2 1.2624027134588541e+01 1.8288857814761414e+00 1.4748641044987391e+01 0 0 0
592 1 9.8907050117753759e+00 1.0850201929737429e+00 1.4731780867649105e+01 0 0 0
249 2 1.0556229578050695e+00 9.5183546331132867e+00 1.8883280065913297e+01 0 0 0
594 2 9.5673793126476028e+00 1.8382824041339310e+00 1.4281113080403463e+01 0 0 0
595 1 4.9548346548870601e+00 6.4067624812210768e+00 1.4824770221644432e+01 0 0 0
596 2 4.6837487798938779e+00 6.0496790231940683e+00 1.5696890482493565e+01 0 0 0
597 2 4.9052254728073210e+00 5.6276988134686698e+00 1.4153779961952829e+01 0 0 0
598 1 7.6077543357022828e+00 6.3859627160585655e+00 1.4579803215024834e+01 0 0 0
599 2 6.7182348768524625e+00 6.5266129216015401e+00 1.4936700600270532e+01 0 0 0
600 2 7.5694611596280978e+00 5.9057648916256626e+00 1.3699083836845588e+01 0 0 0
823 1 3.2255312985231441e+00 7.8631312958948820e+00 1.7917814720104303e+01 0 0 0
603 2 1.0308287152494783e+01 5.5214688725097796e+00 1.8154975545696949e+01 0 0 0