LAMMPS data file via write_data, version 3 Mar 2020, timestep = 46600000

2016 atoms
2 atom types

0.0000000000000000e+00 1.7950789759453095e+01 xlo xhi
-4.7316117442066776e+00 4.9727771721089702e+01 ylo yhi
0.0000000000000000e+00 1.9091125781818192e+01 zlo zhi
5.1639447638951966e-02 -6.6747986649014095e+00 -2.3201981509423319e-02 xy xz yz

Masses

1 16
2 2

Atoms # atomic

1637 2 3.7288144097279026e+00 -4.3711167254817536e+00 6.9999691547567586e+00 -1 1 -1
1420 1 4.0935174666972793e+00 -3.3682439337874062e+00 4.2529968662888091e+00 0 1 0
811 1 1.2869158787119616e+01 -3.1080981952669182e+00 4.3708582096195521e+00 -2 0 -1
1856 2 7.9604570209464400e+00 -3.7124616438256157e+00 1.5090221932308037e+01 -2 1 -1
728 2 1.2978187856837653e+01 -3.2385525765914815e+00 8.8675438937746964e+00 0 0 2
729 2 1.3513017695088688e+01 -3.4338856988926558e+00 1.0256329873622859e+01 0 0 2
781 1 6.9633640575884215e+00 -3.8070326531851180e+00 7.9162685830458583e+00 -2 0 -3
821 2 4.6867309065103866e+00 -4.1993514736321291e+00 1.3918292916899114e+01 -4 0 1
482 2 9.4537672070601886e+00 -3.8398694363663601e+00 5.8262628881707830e+00 0 -1 1
394 1 8.5432738986431289e-01 -3.5666792432503676e+00 5.6376019862008135e+00 -1 0 0
1213 1 2.4556941929690206e+00 -3.6342617054190538e+00 8.0488404166402976e+00 2 1 1
1579 1 5.7034464257102684e+00 -3.3007526540116903e+00 1.6893732236686446e+01 2 0 0
139 1 9.6252532823040937e+00 -3.2060008824698061e+00 1.8607424916815575e+01 -5 0 -1
395 2 1.4501457377365408e+00 -3.4549315359224995e+00 6.4433542501902688e+00 -1 0 0
397 1 1.0013407127688886e+01 -3.6564132386381218e+00 1.1289460966848459e+01 2 0 1
1240 1 -1.8024389943683194e+00 -3.2720999521880385e+00 8.6287883062693176e+00 -3 1 -2
899 2 8.3977999449829888e+00 -3.7569840232924445e+00 1.1767829077297101e+01 -1 1 1
898 1 7.4772166252840941e+00 -3.4963741226780574e+00 1.2104780523011168e+01 -1 1 1
1407 2 1.0668277071020674e+01 -3.7234203053266777e+00 1.1975513476475209e+01 2 0 1
1489 1 8.8176834509812441e+00 -4.5522831174920420e+00 5.9796411762644173e+00 1 0 1
871 1 1.3405189824008350e+01 -3.9902686273281485e+00 2.0512740954138344e+00 -3 0 -1
567 2 -2.2769253619318603e+00 -3.1888811265466339e+00 1.3438273165614978e+01 0 0 1
734 2 9.2708489737442257e+00 -3.7483045369928583e+00 4.1045159860213226e-01 -1 0 0
785 2 1.6282288760587583e+01 -3.3083409018405745e+00 1.2523322518356310e+00 0 0 -1
1581 2 6.2578941219293895e+00 -2.9558867592869413e+00 1.6102121663277160e+01 3 0 0
1601 2 1.2091081732111750e+01 -3.7643793129603722e+00 1.6321355051562549e+01 0 0 0
140 2 1.0211268790274003e+01 -3.2689601372216259e+00 1.7819434325467817e+01 -5 0 -1
733 1 8.8588158839573090e+00 -2.8796555229811975e+00 4.4997726684700662e-01 -1 0 0
1241 2 -2.6990750629065001e+00 -3.0681514431870287e+00 8.9194352234950962e+00 -3 1 -2
396 2 1.1550093177788163e+00 -3.1098824305272084e+00 4.8323498927219131e+00 -1 0 0
784 1 1.6455118302419379e+01 -3.2026041041689215e+00 2.2377244547006359e+00 0 0 -1
1857 2 7.4712577725273190e+00 -3.1378620393867855e+00 1.3667068074859737e+01 -2 1 -1
735 2 9.3434444831472341e+00 -2.6330606337883942e+00 1.3031147395181160e+00 -1 0 0
398 2 1.0007359488739409e+01 -2.6942113343230272e+00 1.1019911237326495e+01 2 0 1
373 1 -3.0132634823975089e+00 -2.4504766607344903e+00 1.4927609443953017e+01 0 0 0
486 2 5.4792908792704056e+00 -3.0134801138894831e+00 3.0942386811588412e+00 1 0 0
1492 1 6.2876912299851471e+00 -2.8688591711749010e+00 2.5535221173939631e+00 1 1 0
1944 2 6.3382858045954293e-01 -3.2117929657152402e+00 1.1736043940161020e+01 -1 1 0
1600 1 1.1228479836757383e+01 -3.3243575256478186e+00 1.6431277705014864e+01 0 0 0
1148 2 2.1895741677508478e+00 -2.9649413225780190e+00 7.9548175287370471e-01 1 0 -1
1691 2 1.0188340451038274e+00 -2.9562344643364042e+00 1.4340935592197646e+01 0 1 1
1215 2 3.0865754111515145e+00 -2.9438438732830905e+00 8.3823193051823388e+00 2 1 1
812 2 1.3571570611325285e+01 -2.4279776807258928e+00 4.6389339460811279e+00 -2 0 -1
1855 1 7.5016256513017856e+00 -2.9333476154415168e+00 1.4674399334860963e+01 -2 1 -1
114 2 -1.6252238055571375e+00 -1.9908417270451535e+00 1.7694550963041397e+01 -1 0 0
301 1 4.7058329932487508e+00 -2.4892655638199384e+00 1.9107119344428750e-01 -2 0 -2
374 2 -2.4606347832738029e+00 -2.0112002214571190e+00 1.5598493167711055e+01 0 0 0
752 2 1.6412359305504038e+00 -2.2907143929007630e+00 1.6375657865847408e+01 2 0 1
751 1 7.9348753012807016e-01 -2.6469334080572993e+00 1.5989909437953447e+01 2 0 1
753 2 4.3106329755390860e-02 -2.1014049153618379e+00 1.6311550084499263e+01 2 0 1
782 2 6.9162131422810269e+00 -2.8661623385270980e+00 7.5463581098405452e+00 -2 0 -3
633 2 1.1140147953500783e+01 -2.8426882397583100e+00 6.5695969949695536e+00 -6 0 -2
1943 2 -9.2171546584494290e-01 -3.3048148310105669e+00 1.1599823546632331e+01 -1 1 0
1692 2 2.2026973284262477e+00 -2.9426594597884055e+00 1.3384296542838673e+01 0 1 1
1690 1 1.3324216104153512e+00 -3.3437322377140513e+00 1.3481482383682714e+01 0 1 1
681 2 1.1156622797058288e+01 -2.1222344481022315e+00 2.8812384917325993e+00 -4 0 -3
680 2 1.0382325931617761e+01 -3.3435603857379830e+00 2.7978733466944670e+00 -4 0 -3
1580 2 5.8844614846621486e+00 -4.2442511927484832e+00 1.6975542907113450e+01 2 0 0
783 2 6.1980801530173322e+00 -4.1402924366510572e+00 7.3679344719087503e+00 -2 0 -3
873 2 1.3151773283083603e+01 -3.6602309328898750e+00 2.9581104055527070e+00 -3 0 -1
900 2 7.0841109529707644e+00 -4.3470911460183084e+00 1.2237699672715708e+01 -1 1 1
566 2 -2.8819552110890436e+00 -4.0469921674904121e+00 1.2188919206258204e+01 0 0 1
565 1 -2.2960076138722370e+00 -3.2690469883116755e+00 1.2461421386414312e+01 0 0 1
1660 1 1.2449097289508035e+01 -3.9865758781330891e+00 7.1442818331930393e+00 2 1 0
791 2 9.9116567691086210e+00 -4.4991071140734231e+00 1.6238747454903983e+01 1 0 1
1485 2 -3.1853836382538319e+00 8.3290674354538261e+00 1.8537667168494387e+01 1 1 -3
1242 2 -1.1662356661913731e+00 -3.5289124292442580e+00 9.3454307513643080e+00 -3 1 -2
1422 2 3.7236046022247544e+00 -4.0102591068274576e+00 3.6035128629707365e+00 0 1 0
1421 2 4.1243551216769703e+00 -3.9603147414349302e+00 5.0973062600924255e+00 0 1 0
1047 2 3.5835503267726168e+00 8.3836032130489979e+00 1.5472819990649777e+01 1 0 -1
1337 2 4.6519607944613162e+00 8.7619327070738517e+00 1.7318514109724710e+01 -1 0 -1
440 2 1.2379127278550477e+01 -4.1491257044998484e+00 1.4318437477524444e+01 -3 0 -3
1872 2 -3.8201559762628312e+00 -3.8012819351686806e+00 1.5470973736867773e+01 0 1 0
1214 2 2.3539630410180035e+00 -4.3777400954777947e+00 8.7005349690784186e+00 2 1 1
1451 2 7.0506005537921652e+00 8.6327642025722131e+00 1.2818433693020673e+01 2 0 -1
1491 2 8.2433999296905256e+00 -4.2353718356083014e+00 6.7356493501289707e+00 1 0 1
1045 1 3.3838590172348004e+00 7.7602713588756327e+00 1.6197263480204320e+01 1 0 -1
944 2 1.0372666597912193e+01 8.5619145983402820e+00 1.1139471731107475e+01 0 0 2
545 2 3.4553908795130024e+00 8.1765911828975977e+00 1.1204848041884274e+01 3 0 2
272 2 6.7641865060404767e+00 -4.0176245230455381e+00 6.7371930797589782e-02 -1 0 -2
467 2 -6.1300671743377828e+00 8.7710622261829840e+00 1.7913282765674484e+01 0 0 1
285 2 1.2693349865594673e+01 8.8046477822490186e+00 1.0537207205770251e+01 -4 0 2
1013 2 7.1280747973088578e+00 -4.3669809227105745e+00 3.1924138309349943e+00 2 1 0
85 1 6.0799845830730170e-02 8.3330682037824886e+00 1.5756010109053232e+01 1 -1 -3
4 1 -9.1046520343677084e-01 6.9883272262121388e+00 7.1628364002307405e+00 0 0 -1
1082 2 1.1551121551935486e+00 -4.2319111913732952e+00 1.6147984308191546e+01 -1 0 -1
141 2 9.0222286837688870e+00 -2.4846298397125746e+00 1.8497256985075374e+01 -5 0 -1
704 2 1.5116936205879341e+01 -2.6022205257269260e-01 3.2905284059027434e-01 -4 0 -1
1004 2 -1.4971866424609934e+00 8.7584184537190310e+00 1.2382923884600011e+01 -1 0 -4
86 2 -8.7353690248141547e-02 7.5214702177906911e+00 1.6338218310823112e+01 1 -1 -3
1388 2 6.0056842010218956e+00 -2.7760756168291376e+00 1.8335446151296779e+01 -1 1 1
727 1 1.3544386951343641e+01 -2.8604337181141584e+00 9.5166482007361957e+00 0 0 2
1389 2 1.3132502903316411e+01 -3.0579207943802778e+00 8.7683700194561465e-01 -1 1 2
303 2 5.3370999101430510e+00 -1.9433810959182805e+00 6.8214793733235624e-01 -2 0 -2
705 2 7.4310209398906721e+00 -1.3385407871600443e+00 1.8938741366296433e+01 -4 0 -2
1147 1 2.2405794193570210e+00 -2.0804992905325173e+00 1.1063618901281043e+00 1 0 -1
1149 2 1.7757439197092870e+00 -2.1286206569355004e+00 1.9830288556122573e+00 1 0 -1
1200 2 -1.3597934410970034e+00 -2.4103549247336096e+00 7.3788913047384614e+00 1 1 1
311 2 -1.9592355901311309e-01 -2.4746142537762577e+00 2.9417691232018419e+00 2 0 -2
310 1 7.4420894568546725e-01 -2.2533083448434574e+00 3.2339371897779734e+00 2 0 -2
1199 2 -6.0691545731507146e-01 -2.5344284462526070e+00 6.0425427321069112e+00 1 1 1
1387 1 1.2960806045057822e+01 -2.3265881135444331e+00 1.8306006669823741e-01 -1 1 2
1198 1 -1.1861663399234246e+00 -1.9492908207815622e+00 6.5226289647253299e+00 1 1 1
786 2 1.5947782088002725e+01 -2.4089577051316748e+00 2.4245767655735015e+00 0 0 -1
1602 2 1.1283649084708275e+01 -2.4588379940306844e+00 1.6005988961779479e+01 0 0 0
375 2 -3.4874260365809979e+00 -1.8042725111832181e+00 1.4320222200997835e+01 0 0 0
302 2 3.8455010123979720e+00 -2.1892769975109969e+00 5.6740071592740171e-01 -2 0 -2
1309 1 3.9591764376871579e+00 -2.5610867680753127e+00 1.3463904119192645e+01 2 1 1
1370 2 6.0561999022135442e+00 -2.3415161456564726e+00 1.1192937590103570e+01 -1 1 -1
1748 2 1.5389071063653335e+01 -1.6641028683730772e+00 5.7475966558357054e+00 -1 0 -1
485 2 6.8545022755269125e+00 -2.2235106920844441e+00 3.0604989807298653e+00 1 0 0
1369 1 5.3148295681945124e+00 -1.6910611755539584e+00 1.1156610645972631e+01 -1 1 -1
703 1 8.1339046538326318e+00 -6.9867927040244915e-01 1.8611773770446710e+01 -4 0 -2
743 2 3.8746769858095904e+00 -2.7482822858181781e+00 1.6958736338794605e+01 1 0 -2
631 1 1.0470434256611208e+01 -2.3078579435499855e+00 6.1559847463480990e+00 -6 0 -2
389 2 4.2471663186542070e+00 -1.4140842879314346e+00 9.7516013408292892e+00 -1 0 0
1942 1 -8.1560672155017500e-02 -3.3813674860047298e+00 1.1059376496569291e+01 -1 1 0
1967 2 3.7434462195253131e+00 -1.7117428760135240e+00 4.4309838365586192e+00 1 0 3
112 1 -1.4940603189219450e+00 -1.6621130225693412e+00 1.6792057815272933e+01 -1 0 0
1310 2 4.5049154949704064e+00 -2.1872038451158460e+00 1.2729444829453287e+01 2 1 1
1311 2 3.8103132108126943e+00 -1.8056751484360056e+00 1.4097441036602293e+01 2 1 1
632 2 1.0933567641158827e+01 -1.6563327314085217e+00 5.5782886425984977e+00 -6 0 -2
742 1 3.2336122678518544e+00 -2.0681629225459135e+00 1.7320847937493223e+01 1 0 -2
939 2 7.7078480205842608e+00 -1.4674484792475346e+00 5.1420729065935235e-02 1 1 1
679 1 1.0315840895587613e+01 -2.4254154589134593e+00 2.5342445997750040e+00 -4 0 -3
1495 1 7.2533542829426843e+00 -1.4383928581325596e+00 6.4153704585733360e+00 0 1 0
388 1 3.8354377114970482e+00 -1.1028398699115840e+00 8.9212554512014659e+00 -1 0 0
312 2 6.7430048289681377e-01 -1.3159280359166980e+00 3.4583303814139117e+00 2 0 -2
1747 1 1.4666955976109113e+01 -1.3635869669804546e+00 5.2101815035240877e+00 -1 0 -1
1709 2 7.7067906547734077e+00 -1.1947466241031317e+00 4.8115787409873025e+00 1 1 2
1708 1 7.8113600696698642e+00 -9.8265334202371912e-01 3.8536655637963988e+00 1 1 2
53 2 1.2956451513353521e+01 -1.4562711636812806e+00 1.0302690127542659e+01 2 0 -1
1710 2 8.7393551831739629e+00 -9.8856856412623850e-01 3.7122822864686205e+00 1 1 2
744 2 2.9847811643561801e+00 -2.4646995972459824e+00 1.8235260768681982e+01 1 0 -2
1392 2 1.3729725039188263e+01 8.2466073992615812e+00 2.2951666337734014e+00 -1 1 1
1009 1 1.8560455353213063e+00 7.5895609147913241e+00 7.6428604015466117e+00 3 0 1
813 2 1.2652908289830227e+01 -3.7699654510734804e+00 5.0731417971239763e+00 -2 0 -1
1662 2 1.3384386301412198e+01 -4.4008922795003453e+00 7.0422198833918372e+00 2 1 0
1869 2 1.3414838806226070e-01 7.0648813035537383e+00 1.1214769935544336e+01 0 1 1
283 1 1.3614169752766157e+01 8.4968503105015554e+00 1.0591038378668431e+01 -4 0 2
247 1 1.3187910474052444e+01 8.3620677897269609e+00 5.8022357649437621e+00 -1 0 2
1473 2 1.6228027304518793e+01 8.6716211331321187e+00 4.3033569789416592e+00 -2 1 -1
945 2 9.5598415296685157e+00 7.5558158339376877e+00 1.2107825449484782e+01 0 0 2
248 2 1.3767576084643569e+01 8.6745617432265547e+00 6.5578622738383574e+00 -1 0 2
1959 2 1.1149012429473379e+01 8.3805055212094128e+00 9.1297015016304410e+00 -1 1 0
1101 2 8.5947078406227764e+00 7.5839764223315775e+00 2.9758764371832171e+00 3 0 0
113 2 -1.4621406867218640e+00 -7.1291882096098380e-01 1.7026830317689075e+01 -1 0 0
143 2 1.0859022457006271e+01 4.8966673310803177e-01 4.9831890478519814e+00 1 0 0
80 2 1.2523790453916876e+01 -1.0025766764518855e+00 1.2807071068291673e+00 -2 -1 0
399 2 8.3052107219989892e+00 -1.3730129039887524e+00 1.4692576895715227e+01 2 0 0
1497 2 6.4490095867557482e+00 -8.3966150462630829e-01 6.6742412936226758e+00 0 1 0
1679 2 1.0425845626275340e+01 -7.9048935371830442e-01 1.5075088268451371e+01 -3 0 0
1371 2 5.7811115594107232e+00 -7.9598933698367125e-01 1.0964246992881717e+01 -1 1 -1
1678 1 1.1374491526891749e+01 -8.6307634166133695e-01 1.5383256140731588e+01 -3 0 0
1961 2 -2.5438748999327503e+00 8.5629070945035579e-02 1.1085452906270618e+01 0 1 -1
1749 2 1.4339876949051085e+01 -5.5089514782373517e-01 5.7048310640182303e+00 -1 0 -1
700 1 -4.6116852131509658e+00 -7.2537934576194285e-01 1.3515581958912277e+01 -3 0 -4
558 2 1.5123621389152358e+01 -8.4420768590946826e-01 3.6853046368913152e+00 -3 0 1
556 1 1.5221875602892844e+01 -7.2864286950830692e-01 2.7328704832250255e+00 -3 0 1
1960 1 -2.0569186388318776e+00 -5.4915055446411021e-01 1.1574482626066308e+01 0 1 -1
1962 2 -2.5114478673140841e+00 -1.4338789565857257e+00 1.1683425324342611e+01 0 1 -1
919 1 1.0147851572826919e+01 -9.3316680479791181e-01 1.0616082180076473e+01 -2 0 -3
1966 1 3.8035959911000345e+00 -6.9684594562734858e-01 4.3508856656850314e+00 1 0 3
1496 2 7.9123953299887173e+00 -1.0487982027304810e+00 7.0641095520299757e+00 0 1 0
390 2 2.9946340998456424e+00 -7.8310081584301416e-01 9.2410759057344656e+00 -1 0 0
54 2 1.2955955237459301e+01 -5.7879907046070667e-01 1.1693782708419556e+01 2 0 -1
921 2 1.1111611481926946e+01 -8.2568246386106736e-01 1.0529957782278771e+01 -2 0 -3
1968 2 2.9339241344614813e+00 -3.6620720946053886e-01 4.0546437867823339e+00 1 0 3
74 2 4.4307753282889770e+00 -2.5815132628819892e-01 6.0020669921946395e+00 -6 0 0
73 1 4.9411401744702221e+00 -5.1346252379597779e-02 6.7939733105375790e+00 -6 0 0
605 2 1.3382946739165165e+00 -5.8279690591186117e-01 5.6672673282367836e-01 -2 0 1
75 2 4.4727997219066769e+00 -3.8184873439592071e-01 7.6107191314484490e+00 -6 0 0
1405 1 8.6850665264229701e+00 -5.3978470834629366e-01 1.4510804444870040e+01 2 1 0
702 2 1.2655357567727050e+01 -9.3717372452283954e-01 1.4169344610764117e+01 -4 0 -4
142 1 1.0738439080509238e+01 -2.2832324583580466e-01 4.3443238508590669e+00 1 0 0
144 2 1.1484043894988103e+01 -2.1465980667052431e-01 3.7256664520385008e+00 1 0 0
81 2 1.3372942547071654e+01 -5.5931535593177895e-01 2.4357400289595015e+00 -2 -1 1
79 1 1.2452974250910843e+01 -4.5409503400281537e-01 2.1189212766886691e+00 -2 -1 1
692 2 5.9585008892577696e-01 -9.6221210447455707e-01 1.0285777243931529e+01 -1 0 0
557 2 1.5877458288670967e+01 1.9453780619329564e-03 2.6384200597125567e+00 -3 0 1
1681 1 1.3424142627565322e+01 8.5277874434877621e-01 6.3129917619241684e+00 0 0 0
1471 1 -9.3700257116166397e-01 8.5185561802274066e+00 4.8423954373968874e+00 -1 1 -1
1971 2 4.8837004759982126e+00 8.4417729193676934e+00 2.4054811537150544e+00 0 1 1
439 1 1.1686136560965316e+01 -4.3192331746241415e+00 1.3653714696365489e+01 -3 0 -3
495 2 1.0102804198204183e+01 7.7022881054483001e+00 1.7062475197669524e+01 -6 0 -6
1700 2 8.1004478639504534e+00 6.8161959722968213e+00 1.0961222038789465e+01 -1 1 -1
1867 1 1.4676924378309586e-02 7.8746854358561791e+00 1.1743311030343493e+01 0 1 1
588 2 -2.1482827420132660e+00 8.0148448323240071e+00 7.7916599237614044e+00 1 0 0
1575 2 1.1556436161338477e+01 6.8499668650219920e+00 1.2711392368636108e+01 0 0 0
591 2 2.3782620719872050e+00 8.5436517504003842e+00 1.8958429618037339e+01 -5 0 -5
167 2 1.0154811239338670e+01 8.6101141348977244e+00 5.1287535310886403e+00 -4 0 -5
938 2 7.5968647427054972e+00 -3.5317096477478493e-02 4.4776356492551045e-01 1 1 1
937 1 5.9362465306773338e-01 -6.6812794784805973e-01 1.8858632889022537e+01 1 1 1
294 2 -6.9572878715841568e-01 1.3010935016973502e-01 1.4570424470386932e+01 1 1 -3
293 2 -1.3151523132157825e+00 7.5545045795504251e-03 1.3117229137495899e+01 1 1 -3
1931 2 9.5848836067920757e+00 -8.0694508304066259e-01 8.9138125804949819e+00 1 1 -2
1930 1 9.3487561493902938e+00 -6.0475386912360474e-01 7.9765252353197216e+00 1 1 -2
1527 2 -4.0576903344557080e-01 -5.2931836719451919e-01 6.3149095538511046e+00 -2 0 -1
52 1 1.2777349070559485e+01 -5.7396753865329320e-01 1.0690404129179967e+01 2 0 -1
185 2 5.0690011689312344e+00 2.4048284062827197e-01 3.5127615851453013e+00 -2 0 -5
186 2 6.6428770959976422e+00 3.6159040116561858e-01 3.3921153158037338e+00 -2 0 -4
701 2 -4.1746830729009137e+00 3.5381090151250127e-02 1.3957137917687664e+01 -3 0 -4
162 2 9.7545535551202480e+00 2.2244669936268924e-01 2.1242704765552807e+00 1 0 -3
920 2 9.6871250004548877e+00 -2.8598539263517964e-01 1.1237445590793737e+01 -2 0 -3
180 2 8.6786534495863599e+00 3.6771186033335290e-01 1.3064803805881155e+01 -2 0 -1
1680 2 1.1414756913276033e+01 -3.5897343356972478e-02 1.5915783553791085e+01 -3 0 0
1406 2 8.2313249986366799e+00 2.5258427769547787e-02 1.5178634835055405e+01 2 1 0
741 2 3.6893108567561308e+00 -3.6213768868447183e-01 1.7914119170353381e+01 1 0 1
691 1 1.3582508442335235e+00 -4.0288472315260115e-01 1.0089302717646632e+01 -1 0 0
1683 2 1.3121032811196400e+01 1.6401116880912250e+00 5.7897498503088585e+00 0 0 0
160 1 9.1050436797607137e+00 7.2603053725782463e-01 1.6133760227034835e+00 1 0 -3
161 2 9.3777023098693419e+00 6.6741791987277299e-01 6.8508152316709514e-01 1 0 -3
1682 2 1.3320527961724583e+01 9.8550633646547059e-01 7.2820098980689298e+00 0 0 0
604 1 8.2758755978008769e-01 2.4838710193419633e-01 5.3973007721285238e-01 -2 0 1
1740 2 -5.9213712749802632e+00 7.0262905626695193e-01 1.7893498668613734e+01 0 1 1
1525 1 -1.7422093554865459e-02 3.6554952749025116e-01 6.1443263654140159e+00 -2 0 -1
739 1 3.6112598431004832e+00 4.8586546848645629e-01 1.8339116756611709e+01 1 0 1
693 2 1.0265327941980056e+00 2.5052821288417793e-01 9.4573625373933652e+00 -1 0 0
625 1 -1.4017913709979339e+00 8.9706145579764041e-01 1.7152487484480389e+01 -1 0 -1
1592 2 1.3370633253601811e+00 -1.9508803454020551e-01 1.7038921999621291e+01 1 1 2
292 1 -8.0480441809373549e-01 6.3455954007669657e-01 1.3745529387010254e+01 1 1 -3
1606 1 1.2743700068579706e+00 4.6494351964251646e-01 3.7716821301000762e+00 1 0 0
1608 2 6.9806475611827357e-01 2.3680634253725419e-01 4.5856470254710970e+00 1 0 0
1932 2 9.8810416853611898e+00 -1.1254998959148477e+00 7.3411991270196619e+00 1 1 -2
1738 1 -5.8495802286119316e+00 1.1233338014717011e+00 1.6981048807386497e+01 0 1 1
1591 1 1.1714183144828123e+00 3.6360368392935527e-01 1.6236528863453390e+01 1 1 2
178 1 8.8046629125284053e+00 7.9383531617963943e-01 1.2196651792097907e+01 -2 0 -1
1377 2 2.4361633638246172e+00 2.7619804202460330e-01 1.5094383248107331e+01 -1 1 -2
184 1 5.7613947216087311e+00 7.9279943256971297e-01 3.1494634806532145e+00 -2 0 -5
1314 2 7.6039975857890694e+00 4.2984792372499570e-01 1.7110143442192545e+01 0 1 -1
732 2 -4.3875745428674824e+00 9.7477666937854401e-01 1.6066856362470570e+01 -1 0 2
582 2 1.7370710190555577e+01 8.9837957407744184e-01 1.2627250063549675e+00 -3 0 2
1428 2 1.3087825675100101e+01 5.4404394479811025e-01 9.6847514412319740e+00 -1 1 0
626 2 -1.3897429420876772e+00 1.1500689662159358e+00 1.8104251219729029e+01 -1 0 -1
1375 1 3.0668524785451741e+00 1.7833061257552796e-01 1.4316750623088749e+01 -1 1 -2
179 2 7.9219003231167768e+00 7.9509863772413603e-01 1.1780101906965905e+01 -2 0 -1
731 2 -2.7691248414102287e+00 8.8752129122996859e-01 1.6046935246760878e+01 -1 0 2
1312 1 7.5561278604332260e+00 1.0386355118634585e+00 1.6315837965297540e+01 0 1 -1
1313 2 6.6099460775267929e+00 1.0919057691308707e+00 1.6151014676531126e+01 0 1 -1
606 2 1.4236281169065266e+00 9.2834273969074932e-01 9.5242867253777697e-01 -2 0 1
165 2 1.2271031962534558e+01 1.1673478771491892e+00 1.8205369654921519e+00 1 0 0
1376 2 2.5884231085540126e+00 5.0356820099974087e-01 1.3409428696305481e+01 -1 1 -2
853 1 6.6066285664538569e+00 7.3534578310159038e-01 1.0663513222209918e+01 -1 -1 -2
730 1 -3.5848994976338195e+00 9.6730556527211053e-01 1.5476484473289242e+01 -1 0 2
1526 2 -8.4895666657229585e-01 8.5836053170292015e-01 5.9263389421346764e+00 -2 0 -2
1587 2 1.5607388352621285e+00 6.5504914178716955e-01 1.1460074147660492e+01 1 0 1
581 2 -6.3970852977015158e-01 1.6323229620042383e+00 2.6363959065141493e+00 -2 0 2
589 1 1.7839458906580781e+00 8.1421475652325146e+00 1.8326615289744641e+01 -5 0 -5
627 2 -4.2095651639660137e-01 8.8649249674829544e-01 1.6937024766223281e+01 -1 0 -1
740 2 3.7588720219415048e+00 1.0784600441322034e+00 1.7611573435266333e+01 1 0 1
1760 2 5.2962765449016516e+00 1.1893155869629082e+00 1.3043999876429757e+00 0 0 1
1759 1 5.0067511959140552e+00 1.7434722120962265e+00 5.9322566700366053e-01 0 0 1
580 1 1.6704568931084335e+01 1.2761572155259220e+00 1.9153102155989654e+00 -3 0 2
1385 2 4.4212271650408139e+00 9.6654468459220144e-01 1.4911185635914045e+01 0 1 1
1607 2 1.5444286337514117e+00 1.4311545861742943e+00 4.0173115821330416e+00 1 0 0
1446 2 -5.1290126766727617e-03 1.1936450022774494e+00 7.7398910946164605e+00 1 1 0
855 2 5.8971535636904182e+00 1.3529894320524960e+00 1.0812780155128211e+01 -1 -1 -3
1427 2 1.4036475901106526e+01 1.6980499103338893e+00 8.9047140885566094e+00 -1 1 0
1426 1 1.3168368878051675e+01 1.2147877677976062e+00 8.9631243388421460e+00 -1 1 -1
1585 1 1.5144935369555217e+00 1.0998318534232725e+00 1.2347242839686487e+01 1 0 1
1704 2 8.9511809149844108e+00 2.3338934456183118e+00 2.1265357038175479e+00 -1 1 1
854 2 7.1437333799577463e+00 1.0984186291661047e+00 9.8966045683200026e+00 -1 -1 -3
1799 2 1.4085353859699934e+00 8.8287087830982482e+00 2.4988966436221132e+00 2 0 2
750 2 1.4049023025929522e+01 8.1902623443772953e+00 2.3246530488347289e-01 -3 0 2
808 1 1.4617013162498793e+00 6.9549713253186969e+00 1.3937240286511916e+01 -4 0 -1
1010 2 9.6158206157462667e-01 7.3083902318064435e+00 7.7618523708278282e+00 3 0 1
469 1 1.1076883453700212e+01 7.2064315589163552e+00 7.9740562599299603e+00 -6 0 -2
586 1 1.4947217859774902e+01 8.4258386313713931e+00 8.0103213546172469e+00 0 0 0
513 2 5.8398815670831015e+00 7.1796933830721681e+00 1.1449717896135287e+01 1 0 3
1800 2 5.9205818586347481e-01 7.4448314436530119e+00 2.4593952998605602e+00 2 0 2
1073 2 4.4059642313877845e+00 6.4436223511217054e+00 9.6318805596574517e+00 2 0 2
718 1 2.2657167920238317e+00 7.1478559245317879e+00 5.0099951685111517e+00 -2 0 -2
590 2 2.2897910170256228e+00 8.0540801822059489e+00 1.7512234441165344e+01 -5 0 -5
1798 1 1.0186433693026877e+00 8.1258689381118785e+00 3.0835768732043047e+00 2 0 2
109 1 3.8576969855287020e+00 5.9663973208193344e+00 1.3301159641082506e+01 0 0 -4
1472 2 -2.5454656808206066e-01 8.3033487384892037e+00 4.1537146057601690e+00 -1 1 -1
720 2 1.8599419702120787e+00 7.5436657559500055e+00 4.2144907213585228e+00 -2 0 -2
1699 1 7.6789337858961959e+00 6.9845691527718081e+00 1.1824452804038378e+01 -1 1 -1
1092 2 9.5250002862788694e+00 6.9286569353467780e+00 8.8237627252998259e+00 -1 0 -3
954 2 1.3760257857453093e+01 6.7474065739917108e+00 1.0980572835376147e+01 2 0 3
1074 2 3.3814550647138399e+00 6.7850533870264673e+00 8.5199959480290204e+00 2 0 2
64 1 6.6951445848847619e+00 6.7259446987314000e+00 7.6926748143154589e+00 -2 0 -2
87 2 5.5155266449658225e-01 7.9426423024266395e+00 1.5032901503223815e+01 1 -1 -3
289 1 4.7383307243932684e+00 6.7575559440748236e+00 1.7004136025551537e+00 -1 0 1
290 2 4.0474229966917976e+00 6.8238755279088164e+00 1.0452310543126897e+00 -1 0 1
110 2 3.2595051880100758e+00 5.1704665377633940e+00 1.3323851265052539e+01 0 0 -4
1900 1 -9.6872151766969061e-04 6.5652518339487251e+00 1.1393270011321059e+00 -1 1 0
1054 1 5.0147616537180895e+00 5.6511219949289391e+00 1.5561507143523885e+01 -2 0 -1
1564 1 4.9483264152442574e-01 5.1958873315591436e+00 1.0445580791869961e+01 -1 0 1
595 1 1.2733413233777572e+01 5.4156919871457418e+00 4.8584707252020154e+00 2 0 -2
189 2 1.6113315446625002e+01 5.0623430406565255e+00 4.1513015086351270e+00 -6 0 -4
548 2 1.4792175245465726e+01 5.1938709868465942e+00 7.6307243309750152e+00 -3 0 -4
1574 2 1.2018124167766647e+01 5.6484799755892503e+00 1.3581401559572832e+01 0 0 0
291 2 5.5947785509626335e+00 6.5105428117568422e+00 1.3421144124330406e+00 -1 0 1
1391 2 1.2766211639752056e+01 7.0720518833702908e+00 1.7544809133700581e+00 -1 1 1
480 2 1.5102801786865300e+01 6.3301662729918213e+00 2.1032639128135027e+00 -2 0 -2
1084 1 1.1427876868209655e+01 6.0341752742646015e+00 2.3365420330273761e+00 1 1 0
1797 2 7.8270869191438290e+00 4.4191732037783691e+00 5.0155757250586914e+00 2 0 1
134 2 1.1068491075800033e+01 3.8357433401496976e+00 1.3806444568705748e+01 2 0 -1
1795 1 8.5637559153473202e+00 3.8237039762435199e+00 4.7572417882184546e+00 2 0 1
332 2 7.6513037072550709e+00 6.4085524746175757e+00 4.3708388029789962e+00 -4 0 -3
1085 2 1.1846279149888984e+01 5.7157410674355642e+00 3.1810746110060593e+00 1 1 0
478 1 1.5770778981537900e+01 5.6457161012020283e+00 2.2046795608787710e+00 -2 0 -2
133 1 1.1881411402074354e+01 4.1397675974985351e+00 1.4269392688874341e+01 2 0 -1
1086 2 1.0570223255164857e+01 6.4402310242427294e+00 2.5582063185378088e+00 1 1 0
1739 2 1.1580926975310408e+01 1.9001779590025505e+00 1.6976665407807772e+01 -1 1 1
1460 2 5.2781015423406439e+00 1.4897635837087915e+00 7.0071292212808665e+00 0 1 1
1593 2 1.3167982777883989e+00 1.2817569001959495e+00 1.6497615573109663e+01 1 1 2
483 2 -4.3682424475332366e+00 3.8705449942510661e+00 1.4193936060396762e+01 0 0 -1
1490 2 -3.6078481497919883e+00 2.6597674937274149e+00 1.4759364323189587e+01 -1 0 -1
481 1 -3.4700129674341267e+00 3.5679941615024582e+00 1.4380042190109473e+01 0 0 -1
1395 2 -1.0593727443885599e+00 2.2565647537181688e+00 1.3340177396739090e+01 1 1 1
1299 2 9.6702814895461291e+00 2.7400367986992409e+00 5.6257417926916604e+00 1 1 -1
1925 2 5.1831518379185058e+00 2.1622026666277945e+00 3.8353185869810122e+00 -1 1 1
135 2 1.1677337637455988e+01 4.0282400655833950e+00 1.5239589709377961e+01 2 0 -1
1444 1 5.8106418888928424e-02 1.5933394085202197e+00 8.6315983657409010e+00 1 1 -1
1761 2 4.1066750346948764e+00 2.0635313877679566e+00 8.8240532579724573e-01 0 0 1
382 1 6.3847819666960222e+00 3.0508151325429385e+00 1.3008440742256157e+01 -3 0 1
383 2 5.6133821463010962e+00 3.1554492194575214e+00 1.2413447116508880e+01 -3 0 1
1461 2 6.5663865682441909e+00 2.3732793496278743e+00 7.5217978085692279e+00 0 1 1
1459 1 5.6333862632454919e+00 2.4644302690723761e+00 7.1056674129542072e+00 0 1 1
1297 1 1.0350519029810799e+01 2.0264027275487795e+00 5.7790144621601733e+00 1 1 -1
1796 2 8.5827614505206711e+00 3.6601451714505533e+00 3.7904951426183193e+00 2 0 1
1924 1 4.9125495092385867e+00 2.9107330689359223e+00 4.4021665862199217e+00 -1 1 1
1926 2 5.2489505123635292e+00 2.8370742188929121e+00 5.3212463206788447e+00 -1 1 1
1298 2 1.0550886511658007e+01 2.2097199335948892e+00 6.7009442699120818e+00 1 1 -1
384 2 6.0598171723638288e+00 2.4254838375573256e+00 1.3680343166214898e+01 -3 0 1
1702 1 8.8037834386575611e+00 3.3020969429560889e+00 2.1123882722607430e+00 -1 1 1
861 2 3.3322131179782950e+00 2.7035738528443094e+00 4.1611218687614189e+00 -1 0 1
176 2 1.1679466886392875e+01 2.6562313483586166e+00 4.9777239807522911e+00 -7 0 -2
1384 1 5.1793616280492385e+00 1.4548109661314070e+00 1.5273294453349186e+01 0 1 1
1386 2 4.8411689069416877e+00 2.2327072035830682e+00 1.5740514223696819e+01 0 1 1
1586 2 6.5237573712272390e-01 9.0678167288578138e-01 1.2812462384447437e+01 1 0 1
1547 2 -1.5947504074862935e+00 2.0615363682182357e+00 8.8183913880901574e+00 0 0 2
363 2 -3.5226874456912416e-01 4.0370835262528022e+00 1.4240306113843513e+01 -3 0 -5
473 2 -3.4424228901433005e+00 4.8638675296508218e+00 1.6148607669835922e+01 2 0 0
1409 2 3.5052429314345694e+00 3.2707237992490636e+00 1.1541988355428130e+01 0 0 2
402 2 4.3273633055546785e+00 3.1641990570194327e+00 1.0279580263643725e+01 0 0 2
1445 2 5.0567233670034017e-01 2.4558323979090178e+00 8.5475097475790918e+00 1 1 -1
400 1 4.3847237821568292e+00 2.9481983832000118e+00 1.1240766920823605e+01 0 0 2
1441 1 1.4652807160561068e+00 2.8080997997320312e+00 1.6997817600265176e+01 1 1 -1
1442 2 9.7869767642510830e-01 2.9780210670814098e+00 1.7847857023688402e+01 1 1 -1
1343 2 2.4113207318579608e+00 2.7020531714147316e+00 2.2863425092219418e+00 1 1 2
1342 1 2.4704311254568103e+00 2.5390174189831791e+00 1.3053088771709531e+00 1 1 3
1394 2 -2.1705004940149388e+00 3.3663470178009760e+00 1.3660609948846622e+01 1 1 1
1344 2 2.2193665618243572e+00 3.3689997064414285e+00 8.5642410074365349e-01 1 1 2
1393 1 -1.2585248234058968e+00 3.1866603456740155e+00 1.3221543104239409e+01 1 1 1
654 2 7.0706078211339483e+00 5.2568899613037203e+00 4.5391042099816897e-01 -1 0 -1
268 1 8.2664220295065149e+00 3.4550260655522305e+00 1.7474893526541347e+01 3 0 -3
269 2 8.0592801446491578e+00 2.5512173894702590e+00 1.7120653446485491e+01 3 0 -2
270 2 8.3575020234323816e+00 3.2714009033283489e+00 1.8425620568729549e+01 3 0 -2
1703 2 9.6249533470310631e+00 3.7255441609934312e+00 1.6754408524451139e+00 -1 1 1
860 2 2.0379845682530107e+00 3.4912490518825727e+00 4.4903627766564806e+00 -1 0 1
859 1 2.3601274722512748e+00 2.6858422684554064e+00 3.9260117068201419e+00 -1 0 1
255 2 1.4967663778407086e+01 1.6517566576369047e+00 5.5052963841163924e+00 -2 0 -4
1598 2 8.4151843159185251e+00 2.6494240296332316e+00 8.8160220571368999e+00 -1 0 1