LAMMPS data file via write_data, version 15 Apr 2020, timestep = 0

6144 atoms
2 atom types

-1.7072150510771351e+00 6.1675504182259338e+01 xlo xhi
0.0000000000000000e+00 2.8099957908750010e+01 ylo yhi
0.0000000000000000e+00 2.7160996649628736e+01 zlo zhi
1.0152343955475509e+01 1.0179088351303875e+01 7.1150439531463796e+00 xy xz yz

Masses

1 16
2 2

Atoms # atomic

1595 2 1.6634296226587054e+01 2.3091144457405491e+01 1.9265045992075560e+01 0 0 0
1604 2 1.6889871612448747e+01 2.0719265912175437e+01 2.2502045338740203e+01 0 0 0
1138 1 2.3179042678735613e+01 1.5488458223810110e+01 1.6343592155931642e+01 0 1 -1
987 2 1.3893028363275066e+01 1.1755459326682391e+01 2.0499327030986429e+01 0 0 0
225 2 4.9231934599400571e+00 2.0037998925336886e+00 4.5269110703558582e+00 0 0 0
52 1 1.5806056601648116e+01 2.8889008078575142e+01 1.0739844181605351e+01 0 -1 0
25 1 1.1969607046698989e+01 1.2874326047858807e+01 5.7403294180074420e+00 0 0 -1
1625 2 1.7540408884505670e+01 2.0264099039871965e+01 1.9987207915471050e+01 0 0 0
2464 1 1.1445460530571934e+01 1.7459354530456832e+01 7.4749215531607192e+00 0 1 0
886 1 1.8532524126433408e+01 2.3209001952736173e+01 2.1684235080575494e+01 0 1 -1
1633 1 1.7369347852346984e+01 1.2022056391128835e+01 2.2426826005745227e+01 0 0 0
849 2 1.2369456576128531e+01 2.0525471405450357e+01 9.4046765697653019e+00 0 0 -1
2443 1 1.3637011506899062e+01 1.3899032766651843e+01 9.7149186453017826e+00 0 1 0
358 1 1.7455161261044914e+01 2.4013958903766333e+01 2.4318163696607396e+01 0 0 0
2466 2 1.1175670357552185e+01 1.7875702729556657e+01 8.2974572467327921e+00 0 1 0
1895 2 9.6199925719337891e+00 1.0206977406580306e+01 5.9577892237747054e+00 0 0 1
1670 2 6.3820371245676206e+00 4.6656248394555151e+00 2.9609839157147606e+00 0 0 0
1634 2 1.8122960956502670e+01 1.2481083755671516e+01 2.2847130399200523e+01 0 0 0
1064 2 2.2504851657854012e+01 3.0145692851614001e+01 2.2811148597472201e+01 0 0 -1
1894 1 1.0197892718145276e+01 9.4502516481361312e+00 6.1662767505286196e+00 0 0 1
1740 2 1.5059878066879577e+01 2.0481803783398153e+01 2.5693083587118235e+01 0 0 0
1916 2 1.5391301552268867e+01 2.3462914398879150e+01 1.5891400700544384e+01 0 0 0
611 2 8.5609534700864600e+00 6.0183349136883955e+00 1.6171761006436480e+01 0 1 0
1709 2 1.2837272116742493e+01 5.5515887813820104e+00 1.7333330964151418e+01 0 0 0
487 1 8.0210649880127161e+00 1.9508517178088528e+01 4.8977962946854575e-01 0 0 0
53 2 1.6016254253740943e+01 2.8039598276845748e+01 1.1179438155644924e+01 0 -1 0
1587 2 1.5707231032818960e+01 1.3827349943007755e+01 1.2810903488036397e+01 0 0 0
1586 2 1.5152307474437535e+01 1.5211393257864717e+01 1.3359663368762430e+01 0 0 0
1012 1 2.3321638688681659e+01 8.6465950353030188e+00 2.5287049548024360e+01 0 0 0
2564 2 9.4591884759067444e+00 1.0797506084515778e+01 3.1604283277911356e+00 0 1 0
416 2 1.4361680181352597e+01 1.8048575475563851e+01 1.8314844643756118e+01 0 0 0
829 1 1.1951773279860490e+01 2.7214899567971035e+01 1.2790665359069985e+01 0 0 0
610 1 8.7594567744013414e+00 5.0515420407652289e+00 1.6063718856888809e+01 0 1 0
1275 2 5.7347912348493457e+00 8.5314336627335301e+00 8.3728340620706099e-01 0 0 0
147 2 1.4652334646981487e+01 3.1165265516007068e+01 1.6772136150403458e+01 0 -1 -1
2450 2 1.5638280905351372e+01 2.3404822410419357e+01 2.3414988828010426e+01 0 0 0
1708 1 1.2848347188490518e+01 5.8159235278203756e+00 1.6394991140176259e+01 0 0 0
27 2 1.1519071274191093e+01 1.2384705015945361e+01 5.0155443647332172e+00 0 0 -1
907 1 1.8851508464315391e+01 2.6385789834182592e+01 2.0323701686972203e+01 0 0 -1
99 2 1.1584914841990553e+01 5.3647173696367805e+00 7.3046008085960645e+00 0 0 0
1561 1 1.0940053449888723e+01 1.7015214315674605e+01 1.3261125325945008e+01 0 0 0
1901 2 2.3858582828937607e+01 3.4661129087110560e+01 2.5704271401580279e+01 0 -1 0
174 2 2.0058853566046228e+01 5.9395812450888688e+00 1.9126140982835263e+01 0 0 -1
345 2 3.1754384110293561e+00 1.1333176092052668e+01 1.4195727087153076e+00 0 0 0
924 2 1.7186802417037260e+01 1.9692242755035327e+01 1.0964455774106133e+01 0 0 0
149 2 1.1472347556914034e+01 1.0367369813843110e+01 2.6578344824395703e+01 0 0 -1
224 2 1.6125875458130245e+01 2.9358747365080990e+01 5.3482375435242888e+00 0 -1 0
1781 2 1.1279965678694904e+01 1.3282719899557941e+01 1.3493414971554222e+01 0 0 0
1710 2 1.3654971051567315e+01 6.2861748773181434e+00 1.6163012794073900e+01 0 0 0
1689 2 1.4185362964203099e+01 6.4196312641525530e+00 1.2282084396926104e+01 0 0 0
1705 1 1.3824351527115116e+01 1.5894764422154500e+01 1.5944887746190769e+01 0 0 -1
1773 2 2.1877713246170231e+01 3.2096126495821082e+01 2.7147236715526883e+01 0 0 -1
101 2 5.8228318054050874e+00 7.5532111127858403e+00 7.9899370205803484e+00 0 0 0
1570 1 1.3768691076432759e+01 1.3015654607567299e+01 1.5677327988042164e+01 0 0 1
2314 1 1.1334045171871573e+01 2.5995263919460093e+01 4.3656962263795451e+00 0 0 1
1129 1 1.3774576307857915e+01 1.4676348956249353e+01 2.1369023598460128e+01 0 0 -1
2360 2 9.4764840510083275e+00 1.5775416441418820e+01 9.9628872439784200e+00 0 0 0
1635 2 1.6562733403892889e+01 1.2287344339280907e+01 2.2972977839675572e+01 0 0 0
1017 2 1.8757495093192475e+01 2.9729941057648393e+01 1.4678320872655354e+01 0 0 -1
2589 2 1.9681235583965790e+01 9.9209955675102535e+00 1.0449242917948872e+01 0 1 0
821 2 1.2282427738706890e+01 1.7446110848710962e+01 8.4104621643743149e-01 0 0 0
1059 2 1.1199518463856561e+01 2.6438961969106437e+01 1.3345994756906594e+00 0 0 0
896 2 1.8786065521595567e+01 2.9228038393666949e+01 2.0966836553784862e+01 0 0 -1
868 1 7.5843813720674298e+00 1.5423179437899707e+01 8.5708895006068353e+00 0 0 0
944 2 5.5475609103573484e+00 1.3932620913796320e+01 1.9631407919277823e+00 0 1 0
1571 2 1.4298158070812569e+01 1.2371615455312355e+01 1.5176038725020213e+01 0 0 1
1659 2 1.5902670098121391e+01 2.7774157233643667e+01 1.9137668842373870e+01 0 -1 0
894 2 1.4267339943221170e+01 2.3626528115797470e+01 7.1320020572099434e+00 0 0 0
1699 1 1.1909784424035143e+01 1.6864565531248900e+01 2.6333504776552431e+01 0 0 0
1274 2 6.3247153017729065e+00 7.7355290097639555e+00 2.1040274945973501e+00 0 0 0
81 2 -4.2586930593319394e-01 4.3513896066928803e-01 1.1836516523291170e+00 0 0 0
1669 1 6.8830283272445349e+00 5.4828409938149374e+00 2.8274476476447457e+00 0 0 0
1063 1 2.2426196949124517e+01 2.9421912796808055e+01 2.2154932017098456e+01 0 0 -1
1671 2 7.4642425092834017e+00 5.5522691828859392e+00 3.5876945372676827e+00 0 0 0
1791 2 4.7825584009870106e+00 8.1445296022239386e+00 4.8845780530782310e+00 0 0 1
1001 2 6.8976096308066026e+00 1.4527314260639656e+01 5.0308049662978878e+00 0 0 0
846 2 1.4582192054030319e+01 1.6457615541345422e+01 2.4313566414176183e+01 0 0 -1
359 2 1.7084259585018515e+01 2.4806343331882822e+01 2.3934227245313185e+01 0 0 0
1739 2 1.6454234030847786e+01 2.0889180105131050e+01 2.5503741338588860e+01 0 0 0
822 2 2.2685238050339890e+01 2.5533407814266134e+01 2.6702776293294345e+01 0 0 -1
2471 2 1.9575258153741391e+01 9.1759147991139827e+00 2.0337799119042618e+01 0 1 0
1790 2 3.7665940170589343e+00 7.4816350469603696e+00 5.7723412594593162e+00 0 0 1
887 2 1.7774774172419860e+01 2.3299708193001706e+01 2.1134521848033529e+01 0 1 -1
2465 2 1.1828484772944670e+01 1.8179860771753233e+01 6.9654334460287419e+00 0 1 0
54 2 1.4882081003931329e+01 2.8830498495052979e+01 1.0369999237220528e+01 0 -1 0
102 2 5.8984156713099534e+00 9.1174751697135310e+00 7.7203345800683918e+00 0 0 0
223 1 1.5190941347255514e+01 2.9264331056301302e+01 5.0602846869135325e+00 0 -1 0
1917 2 1.3983488290191836e+01 2.4172046847667232e+01 1.5378643320469488e+01 0 0 0
353 2 8.9505473169488727e+00 7.3874493517519646e+00 7.9938401963220933e+00 0 0 0
2407 1 9.1228212980394687e+00 1.6329445399558821e+01 6.4851072542590265e+00 0 0 0
1687 1 1.4131563792727832e+01 6.6820115360629710e+00 1.3194095185083222e+01 0 0 0
986 2 1.3358964632428005e+01 1.2461178997310100e+01 1.9118705357012729e+01 0 0 0
1706 2 1.4812855027510174e+01 1.5905469848669732e+01 1.6217631098134092e+01 0 0 -1
1703 2 9.9105579714031506e+00 1.3835846328431149e+01 1.5259756570037094e+01 0 0 0
1374 2 1.8582984133255422e+01 1.7288020076465177e+01 1.8986884970668974e+00 0 0 0
1688 2 1.4092476868699226e+01 7.6221553070674135e+00 1.3300868490128053e+01 0 0 0
1783 1 2.5808998309199751e+00 3.6003877522327583e+00 5.5670037508139814e+00 0 0 0
1610 2 7.5724935084660903e+00 1.7945388803842000e+01 3.1565489795946533e+00 0 -1 0
922 1 1.7091210094004971e+01 1.9771628353543335e+01 1.1900246616840572e+01 0 0 0
2409 2 8.7327913969047106e+00 1.7078903277340473e+01 5.9495138110145485e+00 0 0 0
845 2 1.3667937356678067e+01 1.6507191653772690e+01 2.5564226626976797e+01 0 0 -1
1563 2 1.1409134845940667e+01 1.7744162079856054e+01 1.2809840083025644e+01 0 0 0
908 2 1.9405532754933059e+01 2.6969427042432855e+01 1.9841277873970618e+01 0 0 -1
893 2 1.3596441704812435e+01 2.2300544258460668e+01 7.7509075459130266e+00 0 0 0
28 1 1.8707079709308029e+01 2.2176299889704936e+01 1.4093028466822227e+01 0 0 0
2652 2 2.6738149360459012e+01 2.4777611284075419e+01 2.2980579991205584e+01 0 0 0
870 2 7.6633911295183168e+00 1.4483270334670285e+01 8.4647453283543879e+00 0 0 0
300 2 1.1883823212965178e+01 1.9699138545609877e+01 1.1302132915323304e+01 0 0 0
1585 1 1.5843291427692101e+01 1.4523083608517219e+01 1.3505741788804352e+01 0 0 0
2414 2 1.3747871307745209e+01 2.1313434334771365e+01 1.5698596373170318e+01 0 0 1
1589 2 1.8119935548428003e+01 3.0296464937652253e+01 2.6936310022888822e+01 0 -1 0
2441 2 1.6542654850706370e+01 2.2322875419598386e+01 1.3475802502915114e+01 0 0 1
847 1 1.2403456627979105e+01 2.1283895705520901e+01 8.7610912317754899e+00 0 0 -1
1562 2 1.0545064668882196e+01 1.7312741872384041e+01 1.4102862809923229e+01 0 0 0
1015 1 1.8931414667730888e+01 2.9981245619610849e+01 1.3798041012784267e+01 0 0 -1
1738 1 1.5592037227238855e+01 2.1184790297620403e+01 2.5207329087691615e+01 0 0 0
949 1 2.0824628194963942e+01 2.1060569962685143e+01 1.6051143752239334e+01 0 -1 0
30 2 1.9513404098795132e+01 2.2730964969543013e+01 1.4201477894336305e+01 0 0 0
632 2 8.3607443841120350e+00 1.5199237455683955e+01 1.4658425594148769e+01 0 0 0
2580 2 2.0192422868608926e+01 1.3772081683611885e+01 8.2544353310878815e+00 0 0 0
150 2 1.1879732889491244e+01 1.0596570162297159e+01 2.5156328216921619e+01 0 0 -1
2440 1 1.5751968686208158e+01 2.2027725057172859e+01 1.2996439253690779e+01 0 0 1
98 2 1.1326422648261342e+01 6.8957878355365674e+00 7.4052478589487096e+00 0 0 0
2408 2 9.9789415310895890e+00 1.6788931280946688e+01 6.6958077725846410e+00 0 0 0
369 2 1.6774642373817347e+01 1.0765156118911680e+01 1.4652436915188650e+01 0 0 -1
1065 2 2.3306337741852090e+01 2.9143873848484915e+01 2.1862408027487263e+01 0 0 -1
1130 2 1.4579997163327903e+01 1.4950732285500063e+01 2.1866004981504318e+01 0 0 -1
2355 2 1.8426386738014322e+01 2.3446849522016009e+01 1.7938578982029220e+01 0 0 0
962 2 2.2036427782813995e+01 2.7998570071169336e+01 1.9203140427632878e+01 0 0 -1
888 2 1.8705888777756179e+01 2.2238908918812243e+01 2.1829024043527252e+01 0 1 -1
1135 1 1.3103767383096400e+01 1.1257857116228028e+01 2.1764282122963330e+01 0 1 -1
299 2 1.2133868298480465e+01 1.8311782635278856e+01 1.0676274306087222e+01 0 0 0
626 2 2.4221546575602510e+01 1.3695952640719632e+01 2.6435184309873193e+01 0 0 -1
873 2 1.1507294289715984e+01 1.6025648446901215e+01 1.7857482110873352e+01 0 0 0
105 2 7.7579598785722741e+00 1.1932142205096131e+01 9.4444601451457473e+00 0 0 0
2311 1 1.8685567608071587e+01 1.4845461063121610e+01 2.6268670683115531e+01 0 1 -1
1515 2 9.7630598914132900e+00 1.9529329498888824e+01 3.0551932727204205e+00 0 0 0
1896 2 1.0239774602944212e+01 8.9195879324432106e+00 5.3349885293207722e+00 0 0 1
1546 1 1.5384201949761447e+01 1.5136229340152992e+01 2.3202914185699008e+01 0 1 0
984 2 1.9777771092882521e+01 7.5764881455414175e+00 1.5321847710195364e+01 0 1 -1
588 2 5.8515103182895203e+00 1.0472998415150631e+01 6.2264541409011720e+00 0 0 0
909 2 1.8053317353220617e+01 2.6723645700289055e+01 1.9801733096678184e+01 0 0 -1
2668 1 2.0362727152453104e+01 2.5467475131707051e+01 1.1833815402973384e+01 0 0 0
2354 2 1.7367207726212825e+01 2.2454901432463757e+01 1.7174526333839037e+01 0 0 0
59 2 1.6077785201203362e+01 2.7294732840222935e+01 2.4207273830448489e+01 0 0 -1
435 2 1.8920471979513366e+01 1.3393657138369537e+01 1.1194049834636228e+01 0 0 -1
1273 1 5.5503287300137654e+00 8.1180005841793577e+00 1.6822358620365363e+00 0 0 0
1132 1 1.2581362657287640e+01 9.3157841200850360e+00 1.0204028826660606e+01 0 1 0
1780 1 1.1182061498381699e+01 1.2814404269676750e+01 1.4322853929025976e+01 0 0 0
898 1 1.4142660006143682e+01 2.5552970879992067e+01 1.8138024031053021e+01 0 0 0
1514 2 9.3107966853071638e+00 1.9605974887621375e+01 4.4075500982012015e+00 0 0 0
1752 2 2.4053179307620493e+01 2.0964961538814997e+01 1.5673008710685961e+01 0 0 0
352 1 9.7662102196099436e+00 7.8238750112347564e+00 8.1817341391209872e+00 0 0 0
961 1 2.2892114723985536e+01 2.7922186722750372e+01 1.8743989252830868e+01 0 0 -1
885 2 1.6461012455549824e+01 7.0413670709260465e+00 1.7055694542978298e+01 0 1 -1
2767 1 2.2656384002265447e+01 1.0094491049150264e+01 2.1028707599113684e+01 0 1 -1
2316 2 1.1114912033990008e+01 2.6453648491473782e+01 3.5256769351931201e+00 0 0 1
1654 1 2.0558956796999645e+01 3.4589906362832998e+01 2.5537765929734920e+01 0 0 1
818 2 2.1445458552103695e+01 3.2420183396150357e+01 1.8145120157671244e+01 0 0 -1
1712 2 8.1928163453807379e+00 1.6164457709131614e+01 1.2438925172373727e+01 0 0 0
1603 1 1.7841294133137026e+01 2.0537070688873783e+01 2.2524338852465714e+01 0 0 0
293 2 6.0624540255315171e+00 1.2947324003511373e+01 8.0950007246715110e+00 0 0 0
1605 2 1.8077661924129409e+01 1.9628163507773195e+01 2.2415620266078964e+01 0 0 0
2532 2 1.2619635286770887e+01 2.2962331916370420e+01 1.4812145728713395e+01 0 0 0
2671 1 6.4892770056631051e+00 7.2303047699133609e+00 1.3039257903859095e+01 0 1 0
100 1 5.4573546433467079e+00 8.4188606931195178e+00 8.2924955992423008e+00 0 0 0
1877 2 1.0657158415206784e+01 6.5168453743674624e+00 2.3859110642580227e+01 0 0 0
2669 2 1.9481413794520527e+01 2.5420618327390386e+01 1.1357290055480718e+01 0 0 0
2323 1 7.5839397774352886e+00 2.1355034711732760e+01 2.4293814582785656e+00 0 1 1
1579 1 2.1498433292571068e+01 1.5698554550423164e+01 2.1129084605311018e+01 0 0 0
1016 2 1.9348842370768764e+01 3.0880745839864709e+01 1.3675753475297874e+01 0 0 -1
2283 2 1.1180391468251013e+01 2.0145234036830818e+01 6.2215332812275994e+00 0 -1 0
995 2 5.0668189199984193e+00 9.4238425006934676e+00 2.3601571327488702e+00 0 1 0
97 1 1.1967881211509010e+01 6.2297528155832769e+00 7.0769537576517774e+00 0 0 0
2361 2 1.0321296929767369e+01 1.4727145033680888e+01 9.2792937036353269e+00 0 0 0
2653 1 1.7028875652482490e+01 6.6020337416270714e+00 4.4852035610244121e+00 0 1 0
1513 1 9.2488322559402114e+00 1.9016999373229989e+01 3.6242131228259877e+00 0 0 0
1078 1 1.6434515355235245e+01 2.6601035083749093e+01 1.1941944050113600e+01 0 0 0
963 2 2.2791343241813195e+01 2.8592681598768529e+01 1.8031177503281800e+01 0 0 -1
1547 2 1.6275381354894733e+01 1.5372410725397986e+01 2.3510898568564347e+01 0 1 0
2353 1 1.7894053238091111e+01 2.2617515580420417e+01 1.7964513615601902e+01 0 0 0
917 2 3.5132536075369014e+00 7.3188877596337099e+00 1.3752195150919283e-01 0 1 0
417 2 1.5192363788451587e+01 1.9107954427385465e+01 1.8997444261519064e+01 0 0 0
985 1 1.4128251442589352e+01 1.2235843177203400e+01 1.9693068720060975e+01 0 0 0
1884 2 1.1069183842396654e+01 2.0105307184772151e+01 1.3182889566045541e+01 0 0 0
437 2 2.1474196833877308e+01 1.5192285169616708e+01 9.7919266786307890e+00 0 -1 0
298 1 1.1774231166035381e+01 1.9225261903518518e+01 1.0450543431860552e+01 0 0 0
1707 2 1.3673922721692913e+01 1.6810711256305044e+01 1.5657718060679281e+01 0 0 -1
2614 1 2.4953319951465218e+01 2.1752371553385753e+01 2.0468142152248454e+01 0 0 0
612 2 9.5658925759797881e+00 4.8740658298473125e+00 1.6611355290058569e+01 0 1 0
802 1 2.2258601141850676e+01 1.8052728006820693e+01 8.3219529459304624e+00 0 0 0
1079 2 1.6580254792092887e+01 2.6443913889076470e+01 1.2932580490480094e+01 0 0 0
883 1 1.7329157550300135e+01 7.1655771783560134e+00 1.7518132697898004e+01 0 1 -1
2442 2 1.6069444636785370e+01 2.1332771433254461e+01 1.2445641726260087e+01 0 0 1
1915 1 1.4870620919155719e+01 2.4309531414405242e+01 1.5764475295181921e+01 0 0 0
2451 2 1.4402406856304378e+01 2.3957279296540317e+01 2.2642394199661421e+01 0 0 0
2315 2 1.1791831848104733e+01 2.6736287180759927e+01 4.8450105166428612e+00 0 0 1
1006 1 2.6995482314831108e+01 2.9605734267366380e+01 1.2782920813744076e+01 0 0 0
983 2 1.8661344691160057e+01 6.4592716201446088e+00 1.5074773923996176e+01 0 1 -1
923 2 1.7911601529442649e+01 1.9745886872441382e+01 1.2421730730393518e+01 0 0 0
2572 1 1.3767064789593837e+01 2.3118983694115144e+01 1.9457072766081062e+01 0 0 0
354 2 9.8639133281827664e+00 8.4859438740335804e+00 7.4767231075518295e+00 0 0 0
156 2 8.8569281979506265e+00 4.5140204347713446e+00 9.8626186640047386e+00 0 0 0
1103 2 1.1575325024688272e+01 1.4379241296501554e+01 2.4092932716092495e+01 0 1 -1
1616 2 1.4323698324811652e+01 2.2950529592457698e+01 1.0732472428211102e+01 0 -1 0
1050 2 1.3210645633722441e+01 2.1974232097744469e+01 3.6388867776884624e+00 0 0 0
1081 1 1.8045405951333812e+01 1.3182256043756315e+01 2.0040787217134959e+01 0 0 -1
1594 1 1.6275205354412815e+01 2.3623808053201873e+01 2.0016533533233670e+01 0 0 0
2445 2 1.2920943883099241e+01 1.4238936796780191e+01 1.0222880757641656e+01 0 1 0
1588 1 8.5631445547283711e+00 2.3003134229798366e+01 5.1486440408061895e-01 0 -1 1
1150 1 1.5776236019684113e+01 1.9490891495013198e+01 1.5970712057436685e+01 0 0 0
1841 2 2.1595842938444157e+01 1.3345746229914013e+01 2.5731743275764750e+01 0 0 0
313 1 1.3221468741667856e+01 1.8332725552462872e+01 1.5206240792755382e+01 0 0 -1
1118 2 2.3910440498901053e+01 2.5877366504307012e+01 2.1565908335242611e+01 0 0 -1
1872 2 1.5584111080370953e+01 2.5128142307239614e+01 2.0928184981184813e+01 0 0 0
2613 2 1.7605494292799555e+01 2.6032863285622316e+01 1.0845903847687874e+01 0 0 1
1133 2 1.1910842479318024e+01 8.6231947453775994e+00 1.0377747858166076e+01 0 1 0
1762 1 1.1221808786132701e+01 1.3582093002925944e+01 1.1870431538773071e+01 0 0 0
2556 2 1.8513044033452950e+01 1.9700175685537328e+01 2.5466686005385888e+01 0 0 0
2548 1 1.1144590353672321e+01 5.3672580787534327e+00 1.5505087289958860e-01 0 1 1
1870 1 1.4947143365362450e+01 2.5720634059633987e+01 2.1470279998528408e+01 0 0 0
1662 2 6.8677861902133230e+00 1.5469094984274038e+01 2.6317734893481530e+00 0 -1 1
1136 2 1.2513352321755180e+01 1.1431560753320438e+01 2.2539562594390016e+01 0 1 -1
1736 2 1.6467941887679466e+01 1.3585202934937989e+01 1.0719797636053187e+01 0 0 0
376 1 2.1226891194405852e+01 3.0697886221520427e+01 2.0144547264229061e+01 0 -1 0
1109 2 8.1512948423335416e+00 7.5373967717224959e+00 1.3001666282457453e+01 0 0 0
372 2 1.2516354212375370e+01 8.6457774447648870e+00 2.6120064050901970e+01 0 0 0
333 2 1.7260604398252738e+01 3.2237180916672379e+01 1.8281745127588330e+01 0 0 0
2555 2 1.7880148029925174e+01 1.9910123919203098e+01 2.6816127538946738e+01 0 0 0
374 2 7.0485131821301028e+00 8.7257108150365461e+00 4.9455489123159904e+00 0 0 0
1801 1 1.3195083398581843e+01 2.1043319871773985e+01 1.7179582569690350e+01 0 -1 0
442 1 1.0629006176597146e+01 7.0616113966359393e+00 4.5462855059408804e+00 0 0 0
2601 2 1.8955800439290019e+01 2.1526583076062174e+01 8.0875046020947092e+00 0 0 0
2600 2 1.8740768521817394e+01 2.1131826817584297e+01 6.6381700337420453e+00 0 0 0
188 2 1.2802449808275531e+01 2.5199427247823078e+01 4.0552126256104355e+00 0 0 0
2444 2 1.3588178018604264e+01 1.4375786858033155e+01 8.8178764057426040e+00 0 1 0
1862 2 3.0623447883791659e+00 1.0031661761182937e+01 3.3151490030460606e+00 0 0 0
2642 2 1.7816133108799995e+01 2.8638358271943890e+01 5.9997776612470650e+00 0 -1 1
2307 2 1.9917879708079937e+01 2.8261025966835604e+01 3.2420714747686596e+00 0 -1 0
1119 2 2.4904896557072576e+01 2.6558331474121442e+01 2.2506811763712172e+01 0 0 -1
1088 2 2.0160690908640028e+01 2.9325532210686859e+01 2.7138515013848835e+01 0 0 -1
1715 2 7.9146066037043532e+00 8.3558576621648548e+00 2.1986256752653141e+01 0 0 0
269 2 1.5514930688986404e+01 1.9665347484829528e+01 2.1235970416509460e+01 0 -1 -1
2306 2 2.0402642359841799e+01 2.6787951519543579e+01 3.0353327722623389e+00 0 -1 0
198 2 1.8947046228155241e+01 2.8649837620371272e+01 9.3577575220833058e+00 0 -1 0
1089 2 2.0998887200648504e+01 2.8590135034808419e+01 2.5946401386751376e+01 0 0 -1
2468 2 9.2178791775461502e+00 1.1961692833939155e+01 7.3826529506046548e+00 0 0 1
2570 2 1.8886415575475450e+01 2.4033450143721581e+01 5.3134838698507334e+00 0 0 0
776 2 9.8997644722813707e+00 2.5692373796428491e+01 5.2788171017083334e+00 0 0 0
1002 2 5.7298398862412343e+00 1.4197243300116725e+01 5.9486311218791244e+00 0 0 0
1658 2 1.5950120557021872e+01 2.6255090563261021e+01 1.8909444871974131e+01 0 -1 0
1467 2 2.0738558048567562e+01 1.5542307406152805e+01 7.2888565939085392e+00 0 0 0
2604 2 1.8707122812198868e+01 1.5398651654371903e+01 2.3686048948116284e+01 0 1 0
2397 2 6.0604263814501262e+00 3.9477342217939375e+00 1.1762265202389148e+01 0 1 0
1134 2 1.3461119118049393e+01 8.8614798292756944e+00 1.0407556289641850e+01 0 1 0
2644 1 1.4245482554389643e+01 7.1143935930871152e+00 2.0174743678561967e+01 0 0 0
287 2 2.2110416823190484e+01 1.9675062993634310e+01 3.4450108444824621e+00 0 0 0
332 2 1.7650172599614475e+01 3.2241385123415512e+01 1.6829322757375525e+01 0 0 0
1735 1 1.5677619574871716e+01 1.3170015937637631e+01 1.1181915743666869e+01 0 0 0
2646 2 1.5046197524497082e+01 7.7082325323752521e+00 2.0011249916756658e+01 0 0 0
2413 1 1.3737995929144475e+01 2.1317452406633617e+01 1.4689192573971340e+01 0 0 1
895 1 1.8621756283568065e+01 3.0118692946984666e+01 2.1353081103703303e+01 0 0 -1
2603 2 1.8594251948439627e+01 1.6887967142749119e+01 2.4141018498565238e+01 0 1 0
2554 1 1.8153815635475155e+01 2.0397089729584199e+01 2.6015238461277857e+01 0 0 0
2629 1 1.0509513366685056e+01 7.4537505648047802e+00 1.0617877342367985e+01 0 0 0
2305 1 1.9872891076042158e+01 2.7371293150131205e+01 3.6424173417450647e+00 0 -1 0
443 2 1.1224269170556713e+01 6.8497149308343728e+00 3.8482645017124502e+00 0 0 0
707 2 2.1045859469082380e+01 1.1993708329554957e+01 1.7674697436238176e+01 0 0 0
2375 2 4.7281534055624794e+00 1.9908333687633981e+00 6.5917443993140692e+00 0 1 1
994 1 4.5538664620461002e+00 1.0241114620081216e+01 2.4966343181900488e+00 0 1 0
2641 1 1.7521269105455431e+01 2.9577542524528443e+01 6.2011774102198123e+00 0 -1 1
897 2 1.7697915427161234e+01 3.0407748344988860e+01 2.1312540941289509e+01 0 0 -1
318 2 1.1908595659734164e+01 2.3711749237677111e+01 1.8400512642970068e+00 0 -1 0
725 2 5.4512562677391649e+00 2.7088935387460005e+00 2.5541914493114652e+00 0 0 1
2456 2 1.5807232033301144e+01 1.9557486150948929e+01 1.1621516549281086e+00 0 0 1
1672 1 1.7733892503826119e+01 2.9721258583653892e+01 8.9194746512953991e+00 0 -1 0
1617 2 1.4469070647968849e+01 2.2875043370764448e+01 1.2185999640813263e+01 0 -1 0
1117 1 2.4805042923555739e+01 2.6266858860912578e+01 2.1571905334259174e+01 0 0 -1
1737 2 1.4858829245550488e+01 1.3521745756372761e+01 1.0713229044542663e+01 0 0 0
1909 1 1.3093466994998149e+01 9.6636946528871839e+00 1.6535124582631425e+01 0 0 0
1682 2 7.4804515043690873e+00 6.0862079604950567e+00 6.6685415543680291e+00 0 0 0
368 2 1.5898429958981485e+01 1.0518165778940300e+01 1.5844429290230158e+01 0 0 -1
197 2 1.9193892890264763e+01 2.7186344626411742e+01 9.8562663417863376e+00 0 -1 0
759 2 2.0885093647835191e+01 2.7125120158533040e+01 5.0252864008439788e+00 0 -1 0
2576 2 5.2696002109380693e+00 4.4418593049213060e+00 9.4927769924302083e+00 0 1 0
444 2 1.1127014074204959e+01 6.8442134484781709e+00 5.3348021011190498e+00 0 0 0
2513 2 1.6392936989024953e+01 2.6687595303075462e+01 1.4998830595025421e+01 0 0 0
226 1 9.0051750339689818e-01 1.1463913753803963e+00 3.7114166542962508e+00 0 1 0
1681 1 7.1302461652354125e+00 6.2230507642629451e+00 7.6253510209875222e+00 0 0 0
2467 1 8.8228218218521661e+00 1.1674418886421206e+01 6.5109789611310225e+00 0 0 1
1596 2 1.5310056889561764e+01 2.3411379616333633e+01 1.9903958336896231e+01 0 0 0
1621 1 1.0616864835491118e+01 1.0263780038485752e+01 1.7948994661397979e+01 0 0 -1
1622 2 1.1203610450266737e+01 1.1055035411677228e+01 1.7872161056850992e+01 0 0 -1
1151 2 1.6529529530895452e+01 1.8999984559152111e+01 1.5628467612473587e+01 0 0 0
1691 2 1.0837896493478729e+01 2.0517076651468983e+01 1.0419170251397538e+00 0 -1 1
316 1 1.2043237647117165e+01 2.3025273636392122e+01 2.5627632931338948e+00 0 -1 0
2612 2 1.8099774137883294e+01 2.4986800355664037e+01 9.6614186609600186e+00 0 0 1
2491 1 1.3381148274960124e+01 1.8858899976378645e+01 3.7534950554902449e+00 0 0 1
2322 2 1.0951878853981288e+01 1.7862412115595959e+01 1.8548763407835381e+01 0 0 0
1110 2 9.4627186340057179e+00 7.7680253244983355e+00 1.3781102543136688e+01 0 0 0
1876 1 1.0650432949399043e+01 6.8100939467413797e+00 2.2935872079694221e+01 0 0 0
2563 1 8.5448320600581411e+00 1.0570887664858803e+01 2.9063387668320000e+00 0 1 0
2630 2 1.0154895065555909e+01 7.6602229166690723e+00 9.7093112085426920e+00 0 0 0
216 2 1.8807919181792904e+01 2.2458103367990898e+01 1.2351887966041371e+01 0 0 0
819 2 2.0185677288105261e+01 3.1810480443503589e+01 1.8500962067723560e+01 0 0 -1
373 1 7.1152051608325344e+00 8.4213586331824803e+00 4.0213567446969352e+00 0 0 0
1049 2 1.3527356023600564e+01 2.1675428215014172e+01 5.1090097091013353e+00 0 0 0
2512 1 1.6760816931221669e+01 2.5916269881879909e+01 1.4492083691268377e+01 0 0 0
214 1 1.8762492908742296e+01 2.2638635570191884e+01 1.1375617017893250e+01 0 0 0
1900 1 2.4574047776480789e+01 3.4092471716606944e+01 2.5393876793896474e+01 0 -1 0
375 2 7.4046715852141602e+00 7.5079396336332032e+00 4.1939571113275544e+00 0 0 0
1668 2 6.1253693110144232e+00 1.2145490882952441e+01 9.3283819012248781e-01 0 0 1
2439 2 6.4299329392694471e+00 1.2608616225117846e+01 4.4073397851052123e+00 0 1 0
189 2 1.3999734594997157e+01 2.4163519330309224e+01 4.0501720498044484e+00 0 0 0
844 1 1.4428581944674761e+01 1.6977827524939183e+01 2.5135510940257287e+01 0 0 -1
187 1 1.3727902936764780e+01 2.5039238702625870e+01 4.2592310311501196e+00 0 0 0
1611 2 6.0666185568735376e+00 1.7460328495789003e+01 3.4823561077859093e+00 0 -1 0
314 2 1.3025322750792370e+01 1.9274822790442272e+01 1.5499557686625336e+01 0 0 -1
2602 1 1.8179901866541790e+01 1.6220375101124532e+01 2.3540157783777172e+01 0 1 0
1548 2 1.5256872299414834e+01 1.4151635417955784e+01 2.3556957604031286e+01 0 1 0
1560 2 1.4287204540529444e+01 2.6502269239695682e+01 3.6399942101855047e+00 0 0 1
2531 2 1.1565163907765871e+01 2.4074418020848615e+01 1.4659449148977306e+01 0 0 0
271 1 1.0943241244542847e+01 1.3109400784362045e+01 2.0473067290647620e+01 0 0 0
2469 2 8.7897397562781219e+00 1.2428567891143706e+01 5.8949113043411190e+00 0 0 1
1657 1 1.6491250179140774e+01 2.7060831960669613e+01 1.8801309864734048e+01 0 -1 0
385 1 1.9625890914529318e+01 1.8289917062699331e+01 2.4897813025614045e+01 0 0 -1
154 1 8.4368324741598819e+00 4.1684584377420322e+00 9.0135182337384965e+00 0 0 0
29 2 1.8981976611869399e+01 2.1274065921920116e+01 1.4113160130460356e+01 0 0 0
1152 2 1.5498246670941903e+01 1.9092000245642943e+01 1.6812046828539199e+01 0 0 0
625 1 1.3996260631318044e+01 7.2608106356062461e+00 3.7707145241285727e-04 0 0 0
1878 2 1.1214708112557510e+01 6.2312343461189341e+00 2.2407385798286285e+01 0 0 0
2437 1 6.4682175405874300e+00 1.2000846466188264e+01 3.6855378887618540e+00 0 1 0
1615 1 1.3808791223823823e+01 2.3228459275352126e+01 1.1469337309205702e+01 0 -1 0
920 2 2.1090309188923136e+01 2.1453542577406722e+01 2.1353836943521987e+01 0 0 -1
284 2 2.4063249535811703e+01 2.8694646069059935e+01 1.9892846125305127e+01 0 0 -1
871 1 1.1569724435676264e+01 1.5222103295858584e+01 1.7295474974751773e+01 0 0 0
820 1 1.1967493060719784e+01 1.8168521725173846e+01 2.8925138771096959e-01 0 0 0
2670 2 2.0278032053336734e+01 2.5104416285830276e+01 1.2761118399619269e+01 0 0 0
117 2 1.1122512019777581e+01 1.5460126226728871e+01 1.3253181153559779e+00 0 0 0
2639 2 2.0826182607243577e+01 1.7981720553653162e+01 2.5334911044720072e+00 0 1 0
2492 2 1.3068920433615498e+01 1.9717643071740937e+01 3.9715645698883599e+00 0 0 1
1085 2 1.3510939164539788e+01 1.5291088863022543e+01 6.5770888010044990e+00 0 0 0
848 2 1.1578859669626588e+01 2.1843625222026287e+01 8.9373725448610806e+00 0 0 -1
273 2 1.1839100418949791e+01 1.2916570276883700e+01 2.0405386962814916e+01 0 0 0
1084 1 1.3844721606184553e+01 1.5457065497568943e+01 7.4914914371792252e+00 0 0 0
1910 2 1.2921048574161782e+01 9.8519781711209085e+00 1.5584897833945327e+01 0 0 0
1087 1 2.0983713830800404e+01 2.8867981020481942e+01 2.6869578349132787e+01 0 0 -1
360 2 1.7969281561164202e+01 2.3612472367074915e+01 2.3582255057216578e+01 0 0 0
196 1 1.9628925437360760e+01 2.7974418120016843e+01 9.6200874456502383e+00 0 -1 0
939 2 2.0794504831774979e+01 7.4544954736034521e+00 2.7058251056583064e+01 0 1 -1
308 2 2.5619426452725754e+01 3.1626231604302411e+01 2.2097074840157241e+01 0 0 -1
309 2 2.5309746360115028e+01 3.0385711057001274e+01 2.1040878515999982e+01 0 0 -1
3003 2 1.0204715243349218e+01 3.9132456865710115e+00 8.1656588212606049e+00 0 1 0
1809 2 1.7294668523447775e+01 1.7089187241472697e+01 1.3546486801073900e+01 0 0 0
880 1 1.5054026336750546e+01 2.0641082799554397e+01 2.2769642165623562e+01 0 0 0
315 2 1.2521626610667607e+01 1.8191542116986803e+01 1.4571013344314204e+01 0 0 -1
283 1 2.4686879804174303e+01 2.8903431187914077e+01 2.0657816830290319e+01 0 0 -1
386 2 2.0049405414567616e+01 1.7743116659201181e+01 2.5591908249350841e+01 0 0 -1
2376 2 4.7515281141860779e+00 2.9786078610037841e+00 7.8285449729433623e+00 0 1 1
726 2 4.4628413767271393e+00 3.6698525097098886e+00 3.1704178256310254e+00 0 0 1
1545 2 8.4360246026388275e+00 9.7039177026540315e+00 1.3933763990177793e+01 0 0 0