LAMMPS data file via write_data, version 15 Apr 2020, timestep = 21064000

6144 atoms
2 atom types

-1.0958804491029390e+00 6.1064169580263894e+01 xlo xhi
0.0000000000000000e+00 2.8099957908750010e+01 ylo yhi
0.0000000000000000e+00 2.7160996649628736e+01 zlo zhi
1.0152343955475509e+01 1.0179088351303875e+01 7.1150439531463796e+00 xy xz yz

Masses

1 16
2 2

Atoms # atomic

147 2 1.7106342944367061e+01 3.1177441349098913e+01 1.5074847500443830e+01 0 -1 -1
67 1 1.4430981524174609e+01 2.9910728923955656e+01 1.4885668473511247e+01 0 -1 -2
2322 2 1.0242800713256710e+01 1.0477641815947669e+01 3.6246675228867709e+00 0 0 1
372 2 2.3685045193676860e+01 1.4761887625181018e+01 2.5730899363441296e+01 0 0 0
13 1 6.7596993066842090e+00 1.8781129044539874e+01 1.6379204841769024e+00 0 0 0
52 1 2.0655381555019577e+01 3.2901464080237602e+01 2.1718880784879769e+01 0 -1 0
900 2 1.0972200517206474e+01 1.1061674022093872e+01 2.4367576036695159e+01 0 0 0
303 2 1.0143504972917434e+01 2.2622418304947139e+01 4.7932014419862590e+00 0 0 0
2244 2 1.8048814926180039e+01 3.1956461677222357e+01 2.0214171954607391e+01 0 0 0
357 2 1.5543695548494949e+01 2.6231751034721199e+01 2.4515518184708199e+01 0 0 -1
611 2 1.6603909271371442e+01 1.3606689710255250e+01 5.0720266780648018e+00 0 0 1
1143 2 2.5624352432713675e+01 1.8143260538789136e+01 2.0813887520395259e+01 0 0 -1
2168 2 1.5493436498879415e+01 5.3474161890002669e+00 1.6837372022619768e+01 0 0 0
358 1 1.9191507806241894e+01 1.8407562597484095e+01 2.1380427669061312e+01 0 1 0
1890 2 1.5959458813867446e+01 2.9727754930878174e+01 1.5514300405013595e+01 0 0 0
344 2 1.1811267357786733e+01 1.0795738947483164e+01 2.0549681424441850e+01 0 0 -1
1610 2 2.3560223405740469e+01 2.7770188114764565e+01 1.5281186989205187e+01 0 -1 0
362 2 1.2681243140428130e+01 7.9282300967903900e+00 1.5776397157984542e+01 0 0 0
474 2 1.1721042985716929e+01 1.4569945693460371e+01 7.1054736823325513e+00 0 -1 1
1779 2 1.5806496574034803e+01 2.3045036847235323e+01 1.6479181123759748e+01 0 0 -1
809 2 2.5372323922648718e+01 3.2780056175628616e+01 2.0127586501638639e+01 0 -1 -1
2527 1 1.7933990544429005e+01 3.3105316502229364e+01 2.4084683531712617e+01 0 0 -1
288 2 1.2167357488597110e+01 1.4101266003597543e+01 8.8357106400937990e+00 0 0 0
2617 1 1.2100782940178744e+01 2.9274064940239882e+01 5.6382446195566684e+00 0 0 0
1447 1 1.1867961961941489e+01 1.0333999505609846e+01 1.7666290879539456e+01 0 1 0
53 2 1.9844660734819069e+01 3.2924335854259986e+01 2.1164944097395693e+01 0 -1 0
2320 1 1.0956100450510887e+01 9.7497720114380506e+00 3.6049955170894057e+00 0 0 1
2376 2 1.7628143924172967e+01 2.5192223427520435e+01 1.1397930367448225e+01 0 0 1
1665 2 1.3746490661402101e+01 1.8480882190266769e+01 1.1751058718665771e+01 0 0 0
931 1 2.1943034438744842e+01 1.3753775240866464e+01 2.5915461721395406e+01 0 1 0
333 2 1.7029462978499339e+01 2.5586340372682777e+01 2.0499624338577853e+01 0 -1 0
59 2 1.3171619832651160e+01 2.0642546979609211e+01 1.2175258133597485e+01 0 0 0
114 2 1.8110979159273239e+01 2.9972020161339550e+01 2.1282540239863138e+01 0 -1 0
2379 2 1.5461279858690251e+01 6.0010425659870368e+00 1.1037547243214474e+01 0 0 0
2335 1 1.9790435221027074e+01 3.0055958891944382e+01 1.7994663452143463e+01 0 0 0
1609 1 2.4478181195773708e+01 2.7765721710317713e+01 1.5074970158803328e+01 0 -1 0
324 2 3.7322064055988609e+00 2.7224918752443594e+00 2.6594066346058893e+00 0 0 0
1622 2 1.6423538145268150e+01 2.3961114320867889e+01 1.8473563013355815e+01 0 0 -1
1046 2 8.5725738089673751e+00 8.1298759959362989e+00 1.9607597085946324e+01 0 1 0
2367 2 2.5849715050546845e+01 3.0952557582955951e+01 2.3851934278443224e+01 0 -1 -1
2492 2 1.6510897570238377e+01 2.3483498226608042e+01 1.1066209960145313e+01 0 0 0
2372 2 9.9530895919872613e+00 9.4794251132281282e+00 1.2294883176289977e+01 0 1 0
458 2 2.4553618840541393e+01 2.2047528021282258e+01 2.6804184520227906e+01 0 0 -2
107 2 1.7730887535137516e+01 2.1431254162855861e+01 8.1123049542314707e+00 0 0 0
81 2 1.5638853607235195e+00 3.5206935762380174e+00 2.9628034311297520e+00 0 0 0
1062 2 1.2424666816331854e+01 1.6350414298170573e+01 2.6544990043635291e+01 0 1 -1
1591 1 8.4531701202946739e+00 8.7114870344267636e+00 1.2056313365894004e+01 0 0 0
903 2 2.5634314402994615e+01 2.7160855951124201e+01 2.5084710017849279e+01 0 0 -2
339 2 4.0571104218627427e+00 1.0046572036509941e+01 4.2068357361038347e+00 0 0 0
1812 2 8.1774196048685397e+00 4.0673047065760564e+00 1.1718184987766227e+01 0 1 0
1047 2 7.9888244317087640e+00 7.5102930939303567e+00 2.0910142233526006e+01 0 1 0
2343 2 1.6864784597431573e+01 9.6871749126356548e+00 2.5472841171878326e+01 0 1 0
78 2 1.6465619955911659e+01 1.7545678573459409e+01 2.0146364486895489e+01 0 -1 -1
519 2 1.6366595188516694e+01 7.8187315449767887e+00 1.4396046253838156e+01 0 1 0
138 2 2.3494271925391544e+01 1.0670660314182443e+01 2.6105793801983957e+01 0 0 -1
1119 2 8.8822158677173650e+00 1.2699969483101283e+01 2.8056475198247433e+00 0 0 0
2528 2 1.8818280397211918e+01 3.3506044348293308e+01 2.4204279242856984e+01 0 0 -1
113 2 1.6694306664565477e+01 3.0508719760895680e+01 2.1872560675365552e+01 0 -1 0
79 1 1.9067368136025133e+00 3.1283170049135851e+00 2.1224641406724549e+00 0 0 0
203 2 6.1732112189003461e+00 6.3296434522546896e+00 1.7771693415467034e+01 0 1 0
2267 2 1.6909644677948851e+01 2.0821621651121404e+01 2.6855342055963796e+01 0 0 0
234 2 1.2012374927071299e+01 2.1465652959740574e+01 1.7795895574364454e+01 0 -1 0
1880 2 1.9894442553243888e+01 1.0571423375356442e+01 2.5595459929453071e+01 0 0 0
984 2 1.6247391619900355e+01 1.2915371873752257e+01 1.6682311310727778e+00 0 1 -1
881 2 1.2917645684699890e+01 1.3591051814555504e+01 1.7808056557507758e+01 0 0 1
875 2 1.0215546405558030e+01 2.7946409160509187e+01 3.8783622060757219e+00 0 0 0
1659 2 2.2223572021486589e+01 2.2780496845107226e+01 6.1069385958030509e+00 0 -1 1
894 2 2.0817919049598448e+01 1.3724333481581420e+01 1.3482210376447762e+01 0 0 0
2450 2 1.8517764431950194e+01 7.4901126548878079e+00 2.2612820431682021e+01 0 0 0
341 2 7.1047550017505987e+00 1.1421368365914905e+01 1.0346342163220346e+01 0 0 0
2533 1 1.7701722987038792e+01 1.4374225858939614e+01 1.3242026614485576e+01 0 1 0
1669 1 6.4125413480638853e+00 1.7814707323093482e+00 1.5680678872686042e+00 0 0 0
56 2 1.6172548017865136e+01 3.2185582061747972e+01 1.7886353653799336e+01 0 -1 0
1671 2 5.9378121012421703e+00 8.9727047046126185e-01 1.6078460501147960e+00 0 0 0
1539 2 1.1464364523211870e+01 1.4799828866283901e+01 1.9338084614557193e+01 0 0 0
1595 2 3.1060996858589402e+01 3.4558588341755716e+01 2.4952704774890609e+01 0 0 0
757 1 2.3297200983167162e+01 2.2851062560802976e+01 2.1486799531964873e+01 0 -1 -1
359 2 1.9099001634925504e+01 1.8931312512632665e+01 2.0560596690497405e+01 0 1 0
825 2 2.1744002774944224e+01 3.1777236855561938e+01 2.1071805388053829e+01 0 0 -1
2583 2 4.0060631356212753e+00 3.5902513098458879e+00 6.0467103203633332e+00 0 2 0
1662 2 1.3357550857232901e+01 1.1931973327391143e+01 5.8716413180957030e+00 0 -1 1
2559 2 1.7514882990074064e+01 2.1119674556772516e+01 5.3318498825662941e-01 0 -1 1
1649 2 7.4615217301514534e+00 1.6522230319501332e+01 7.9578758358546411e+00 0 0 1
771 2 8.0396015932625762e+00 7.2588914760393966e+00 1.3555906684193844e+00 0 0 -1
54 2 2.0456559510612959e+01 3.3255570700444210e+01 2.2581731668651265e+01 0 -1 0
108 2 1.8965048588984413e+01 2.2083516170297663e+01 7.4592506013448086e+00 0 0 0
1570 1 1.5579413805624018e+01 1.5247401899911313e+01 1.7937716098508744e+01 0 0 0
2363 2 1.2896633193987125e+01 2.4384718823318718e+01 1.7500554987752992e+01 0 0 0
1498 1 1.8501384984260788e+01 2.2206559337764638e+01 2.1712413811346362e+01 0 1 -1
3036 2 1.3971988692256096e+01 4.3209800192287204e+00 1.1493145410619677e+01 0 1 0
1687 1 2.1626931385239697e+01 2.8136477478068404e+01 1.4825331962938215e+01 0 -1 0
860 2 1.3012946394458009e+01 2.5222275338757154e+01 1.5329711866340144e+01 0 0 0
1300 1 1.9356736079422330e+01 1.3673459317867584e+01 3.5771392927027703e+00 0 0 0
1668 2 2.0857214926446506e+01 1.6663423207294525e+01 6.5403977230791828e+00 0 0 1
1514 2 1.7354681449937104e+01 2.8688681822027242e+01 1.4287955975628904e+01 0 0 -1
1465 1 1.9706652764466440e+01 1.4233181682060739e+01 7.6581347812973162e+00 0 0 0
2265 2 1.4481852508239005e+01 2.5613941889822506e+01 5.4806526445103314e+00 0 0 1
1105 1 7.0055998853211747e+00 2.4338839226117699e+00 6.8797704870652598e+00 0 0 0
2048 2 2.1816241852241351e+01 2.5824454951985214e+01 1.2639373949443799e+01 0 0 0
91 1 1.0297741524873828e+01 2.6562441581215520e+01 6.2392187542984665e+00 0 -1 -1
1201 1 1.2746264249024183e+01 9.0318699465157106e+00 2.0355364114712120e+01 0 1 0
1563 2 2.3230889237588642e+01 2.4581809894392318e+01 9.6805010022080218e+00 0 -2 0
865 1 1.6711214078951738e+01 2.6018149721271868e+01 1.4680776255566137e+01 0 0 -1
893 2 1.9309642723715690e+01 1.3671963951564054e+01 1.3604507017750697e+01 0 0 0
1719 2 1.2979877400368647e+01 2.2809881241753562e+01 1.1648885226284568e+01 0 -1 0
466 1 2.2567438571299061e+01 1.6789193251221828e+01 1.8253423836537440e+01 0 0 -1
841 1 7.6488998662563255e+00 1.6703938588028723e+01 1.3672661735267982e-01 0 0 0
1551 2 1.0031993927688347e+01 1.4367179996059953e+01 9.2823394810654278e+00 0 0 0
1068 2 3.2333837576525220e+00 6.7764385122885136e+00 3.0518869404352369e+00 0 1 0
2628 2 1.4936770930518833e+01 2.4471330483920170e+01 2.2150941679643100e+01 0 0 0
334 1 1.3291678704898377e+01 2.2680090610061225e+01 2.0085191423051743e+01 0 0 0
488 2 8.1270765160754639e+00 1.9544783692251823e+01 5.5519547892001908e+00 0 0 -1
678 2 1.8081436739363024e+01 3.0569401131464961e+01 2.7009576454820067e+01 0 0 -1
366 2 1.4535930787007317e+01 6.7291691804142584e+00 1.9055413890328257e+01 0 0 -1
1255 1 1.7932175388921191e+01 2.9456347865021151e+01 1.0852862519414899e+01 0 1 0
1738 1 2.1754264684656338e+01 8.7899497484738323e+00 1.9275172671087905e+01 0 1 0
949 1 1.6587777928255750e+01 2.0303293418979536e+01 2.1634496660294101e+01 0 -1 0
956 2 1.2251480392145908e+01 1.9431597601132232e+01 1.8412784496876423e+01 0 0 -1
217 1 2.1973829941595774e+01 2.8683142545493624e+01 1.8568582476380698e+01 0 -1 -1
2169 2 1.5100917262324785e+01 6.3840235804697851e+00 1.5765709432497218e+01 0 0 0
2324 2 2.3115648006430874e+01 2.4175997308239047e+01 1.2047495478025446e+01 0 0 1
1630 1 1.5887375562484692e+01 3.6622387334408213e+00 3.0895198861253581e+00 0 0 0
1638 2 8.1578245839089991e+00 1.5351824873138121e+01 9.8876959245334710e+00 0 0 0
269 2 1.0458933393431748e+01 2.3724366178461324e+01 8.5106082460895838e+00 0 -2 0
2613 2 6.6035628522907537e+00 1.1407373225480251e+01 9.5542674080160250e-01 0 0 2
363 2 1.3384956038393256e+01 7.0968290617510563e+00 1.6768138977372452e+01 0 0 0
1103 2 1.7646362772086686e+01 1.5464231823918066e+01 1.4851667161536412e+01 0 0 -1
2792 2 6.8073065394554284e+00 6.2077666133845604e+00 9.8344619033425893e+00 0 1 0
1572 2 1.4980419153214935e+01 1.5735545673659413e+01 1.7362914715408699e+01 0 0 0
1100 2 1.0410249790848182e+01 6.4825659728163068e+00 5.2420340887193388e+00 0 1 0
270 2 1.2058629282626407e+01 2.3839935132351872e+01 9.0222833231459028e+00 0 -2 0
299 2 1.0080093899055672e+01 6.1813737409752818e+00 1.8356581808213129e+01 0 0 0
2313 2 2.3622042624691620e+01 2.7521458316793900e+01 7.4790655182243553e+00 0 0 0
859 1 1.3638725994647146e+01 2.5027149676786351e+01 1.6075335738739795e+01 0 0 0
701 2 7.7060048121776674e+00 7.7548686371255142e+00 1.7865934052393495e+01 0 1 -2
1705 1 1.8599613389408010e+01 8.6349540817475656e+00 6.5932022567126110e+00 0 -1 0
1303 1 1.3100217828441188e+01 2.6168773457132964e+01 6.4489776933624174e+00 0 0 0
1674 2 2.3198463072408156e+01 2.0122680814133439e+01 8.4055066644563414e+00 0 -1 0
1546 1 1.3537823897659084e+01 1.6595485634251723e+01 1.6774099172842519e+01 0 1 0
1783 1 1.0631364924883124e+01 9.9075046455982587e+00 1.5391580045401358e+01 0 -1 0
1275 2 2.5950734528463965e+01 1.4802838468273539e+01 2.6831395603338535e+01 0 0 -1
1848 2 2.8301277849525562e+01 3.3131347785344360e+01 2.2246115526068078e+01 0 -1 1
215 2 1.5178998968321530e+01 2.0333091879063382e+01 1.8791348197730635e+01 0 0 0
1861 1 1.3384160184762685e+01 1.8440289158596215e+01 2.1227568051980587e+01 0 0 -1
26 2 6.3589881909638128e+00 6.0973138496532222e+00 1.2493520659059421e+01 0 0 -1
1866 2 2.8118738514481930e+01 3.0233062453134419e+01 1.4652042550934224e+01 0 -1 0
1623 2 1.6480187669774853e+01 2.2394007062672255e+01 1.8565637946541866e+01 0 0 -1
1704 2 9.9239624459373061e+00 8.6539894318173829e+00 4.3353310070014563e+00 0 0 0
146 2 7.1758321919729049e+00 4.2679943143760752e+00 1.4076936937581566e+01 0 0 -1
974 2 1.0476870911136063e+01 1.9120822740227066e+01 3.8165204459285018e+00 0 0 0
1972 1 2.4013098291509245e+01 1.2414298416052432e+01 2.0479357123499693e+01 0 0 0
2585 2 4.7475341004385037e+00 9.5021918049764853e+00 7.6767406596295320e+00 0 1 1
223 1 2.3964236914700670e+01 2.1193415136738732e+01 1.2583434748797119e+01 0 -1 0
2534 2 1.6757414456704751e+01 1.4073356944003233e+01 1.3352163547035255e+01 0 1 0
361 1 1.2487113808981665e+01 7.4991592919831422e+00 1.6644268857064699e+01 0 0 0
1129 1 9.3522955788182820e+00 2.1075210335022796e+01 2.1295083379034399e+00 0 -1 0
2457 2 1.7041945132679242e+01 2.0222432290652414e+01 1.6781654165448277e+01 0 0 0
3004 1 2.3992498298466600e+01 1.5456648901612599e+01 2.0271956489154704e+01 0 0 0
1164 2 1.8180631559588395e+01 8.8257387095655755e+00 1.9650240510695355e+01 0 1 0
1712 2 8.8818216267863175e+00 5.6746487354237374e+00 2.6586092614829067e+00 0 1 0
1499 2 1.7729097606318742e+01 2.1517871240767725e+01 2.1785117805319590e+01 0 1 -1
2636 2 1.6352205876776843e+01 2.0527692512956961e+01 1.3373731257247515e+01 0 0 0
2673 2 2.3317303264154862e+01 3.0602246614092650e+01 1.1919646845132785e+01 0 0 0
1613 2 1.7489638926131732e+01 2.8369548977673844e+01 3.7876790422728526e+00 0 -2 0
537 2 1.3428745264790990e+01 1.1255601001086536e+01 1.7725316908019813e+01 0 0 0
313 1 2.9727417160181549e+01 3.0192465020062627e+01 1.9082755441043396e+01 0 0 -1
1102 1 1.7633619449112398e+01 1.6168835085245071e+01 1.5480578600908384e+01 0 0 -1
112 1 1.7311907782918027e+01 3.0545474250119234e+01 2.1044390702265222e+01 0 -1 0
2669 2 1.6550788572265581e+01 1.5869096623514046e+01 8.3629603471709973e-02 0 0 1
1013 2 1.8746288263634764e+01 1.9878197286824459e+01 9.8341825670679697e+00 0 0 0
686 2 2.2974392902031344e+01 2.6750493830021064e+01 5.1535665621280335e+00 0 0 0
200 2 1.9572139194936835e+01 1.5781414023219089e+01 1.9443829723117084e+01 0 0 -2
1731 2 8.4765135913022220e+00 1.0675074294681510e+01 3.1552111475857467e+00 0 -1 0
2440 1 2.8535385854451572e+01 2.2978033553643716e+01 2.3376128821841942e+01 0 0 1
2664 2 1.3173495878616949e+01 1.2709244049851069e+01 1.7000569353064106e+00 0 1 1
323 2 5.2308092320559663e+00 2.4083065390390428e+00 2.6239626035520018e+00 0 0 0
1513 1 1.7691474937918681e+01 2.8176344061399732e+01 1.3455586684427505e+01 0 0 -1
2380 1 9.2857898578640548e+00 1.7808287309044829e+01 3.1620548056722506e+00 0 0 1
2600 2 8.1505575634850178e+00 1.7399489174772713e+00 1.0692692514084163e+00 0 0 0
1547 2 1.3081692103725793e+01 1.5738980852646776e+01 1.6982566398858868e+01 0 1 0
625 1 1.6706442103115563e+01 1.0670700181560207e+01 1.2733295561665761e+01 0 0 -1
2456 2 1.8392744146888358e+01 1.9435610942055810e+01 1.6459509575774977e+01 0 0 0
1076 2 9.6990682895918994e+00 1.8336701108159250e+01 1.4299697410762073e+01 0 0 0
252 2 1.9191435772405558e+01 1.7651527413993012e+01 1.3836372550638808e+01 0 0 0
3011 2 2.0887462636159242e+01 5.6186725038305347e+00 1.9371289251204900e+01 0 1 0
2979 2 1.4619583783124559e+01 3.0744965167401257e+00 7.4210941032372642e+00 0 0 0
298 1 1.0316545572873121e+01 5.8856288663864005e+00 1.7441917499382033e+01 0 0 0
947 2 1.8661335853615672e+01 2.8782699851660091e+01 1.7711583631686040e+01 0 0 0
2769 2 1.6807049879237578e+01 1.9486589861808771e+01 5.0587884019965470e+00 0 0 0
25 1 5.6625122577166129e+00 6.5041025007523814e+00 1.2986335988013176e+01 0 0 -1
655 1 9.9856729617429600e+00 1.5835209431021555e+01 1.6442648924661036e+00 0 0 0
849 2 2.0233777904732385e+01 9.3174695817208004e+00 1.3787123624128872e+01 0 0 -1
883 1 1.2344261632836693e+01 9.0209493711380500e+00 1.1462447915961265e+00 0 1 0
908 2 1.8091720493520878e+01 4.4608261030390874e+00 8.8244692926817638e+00 0 1 -1
184 1 6.8099149937857835e+00 8.4099181547613799e+00 1.4274164340000203e+01 0 1 0
1618 1 7.3935204838909474e+00 1.6052484016065215e+01 4.1399161634919075e+00 0 0 1
2370 2 2.1482599479750291e+01 1.9990489828393464e+01 4.9937351335495048e+00 0 1 0
756 2 1.4923371063756242e+01 2.5248849739175260e+01 1.9616391829531427e+01 0 0 0
1372 1 2.0289727746887930e+01 1.9327420259711552e+01 9.8476410740777487e-01 0 0 -1
2473 1 2.2328911444213290e+01 2.2385343570756930e+01 2.3851711209959067e+01 0 0 0
2572 1 1.2064832647543756e+01 7.5580495887494532e+00 9.5970501465876961e+00 0 1 0
1000 1 1.0996379992183883e+01 1.6563024057985242e+01 1.3165932912966376e+01 0 0 0
243 2 1.6453742659087528e+01 1.3844643478543784e+01 2.4650546219903394e+01 0 -1 0
830 2 2.4395979253511282e+01 2.9085819113211507e+01 2.1107549705845244e+01 0 0 0
283 1 2.6915839798893991e+01 2.2874306078827740e+01 1.9719921217445467e+01 0 0 -1
1205 2 2.9580931765224111e+01 2.9280187176865017e+01 2.4336499173438714e+01 0 1 -1
2387 2 4.8675463015739551e+00 4.3354431061222796e+00 1.4720491447726850e+01 0 1 0
1594 1 3.0476580523786502e+01 3.3772791966031342e+01 2.4709852860593649e+01 0 0 0
2371 1 1.0650733039462676e+01 1.0141131855338916e+01 1.2339494372593123e+01 0 1 0
2555 2 2.4470125248465632e+01 1.8192778147545113e+01 2.4320851518280517e+01 0 0 0
1924 1 2.2127179588582575e+01 1.4393509462994071e+01 1.2615198118274389e+01 0 0 1
1841 2 6.6764390122308201e+00 4.6534367947163595e+00 4.6359121145601820e+00 0 0 1
1859 2 1.7245515534708623e+01 1.4980712507659598e+01 2.2784466398242529e+01 0 0 0
700 1 8.4821431000641692e+00 8.3861763095688033e+00 1.7763397126858475e+01 0 1 -2
76 1 1.6078552309063344e+01 1.7549877791350102e+01 2.1037486076126005e+01 0 -1 -1
1713 2 7.3794555495624969e+00 6.0990163944389062e+00 3.0132821865469421e+00 0 1 0
20 2 1.9672593552565061e+01 2.5621617326045989e+01 1.5786723989989561e+01 0 0 -1
2314 1 1.8383179209454291e+01 1.9991807093359643e+01 5.0064087411239981e+00 0 0 1
353 2 2.6003968787598719e+01 2.8934689801595496e+01 2.6131527316176200e+01 0 -1 -1
1905 2 1.2739780238806887e+01 1.0720812657446860e+01 9.9155704240838265e+00 0 0 1
1870 1 1.3685783331864158e+01 2.4785121453582917e+01 8.6178504063696995e+00 0 0 1
251 2 1.7876529759240011e+01 1.8466825315415150e+01 1.4195431333863503e+01 0 0 0
2988 2 1.6616150896104017e+01 1.1543678427705348e+01 2.6080801080713847e+01 0 1 0
1206 2 2.8123832622966436e+01 2.9806259263223893e+01 2.4256468177068037e+01 0 1 -1
8 2 1.1987415172386648e+01 2.6292914962097495e+01 3.8223251102784692e+00 0 0 0
897 2 1.5254899027191438e+01 2.7669916641978368e+01 2.2585379015710703e+01 0 0 -1
35 2 2.7731301597670353e+01 2.3902847139304107e+01 2.0725997103054116e+01 0 -1 -1
1130 2 9.6821215248076165e+00 2.1789932254072305e+01 2.7121052865067372e+00 0 -1 0
1701 2 1.2596709118405801e+01 3.0190577795461815e+00 8.9667238763628863e+00 0 0 1
374 2 1.7818971331014083e+01 4.9110054081858143e+00 1.7657732095480750e+01 0 0 0
1780 1 2.9021899212831720e+01 2.4843092780014445e+01 2.6422839256713566e+01 0 -1 -1
442 1 1.5461794907647405e+01 1.7716584941669762e+01 2.4955465927392257e+01 0 0 -1
1850 2 1.7363908619837911e+01 4.4030710200716898e+00 5.4797519203991998e+00 0 0 0
1451 2 1.9708331479723700e+01 2.5615220825534916e+01 5.4253653077677360e+00 0 0 0
300 2 1.0976858098830185e+01 6.5017801558418959e+00 1.7156534814348561e+01 0 0 0
2765 2 2.2528749430077845e+01 2.3243577944512030e+01 2.0047005970496258e+01 0 0 0
858 2 1.5845543403243436e+01 1.3197068007865122e+01 1.0355610607673039e+01 0 0 0
1537 1 1.0699089984632790e+01 1.5300394834526859e+01 1.9643854643832217e+01 0 0 0
347 2 6.6604386002280869e+00 9.6175802261882630e+00 9.3376309341283452e+00 0 0 0
1256 2 1.8873436886610261e+01 2.9316980519181957e+01 1.0712832990916306e+01 0 1 0
1006 1 2.2995271037613836e+01 1.7020443556279567e+01 2.3802140907722883e+01 0 0 0
857 2 1.6689258311796063e+01 1.3196087193438160e+01 9.0292896295889911e+00 0 0 0
1763 2 1.7238184045070028e+01 1.9236016055140649e+01 1.1022123694640470e+01 0 0 0
1904 2 1.2238435624260473e+01 1.0483848695933647e+01 1.1385560114285592e+01 0 0 1
198 2 1.1101681608619220e+01 1.3585492728725033e+01 1.4756380092525541e+01 0 -1 0
1131 2 8.7306797441993726e+00 2.1444425620485962e+01 1.4846982063283809e+00 0 -1 0
851 2 1.7575575158255258e+01 1.0274842187884351e+01 2.1143826908314352e+01 0 1 0
3034 1 1.4716722952276971e+01 4.2669572640594637e+00 1.0841361656126942e+01 0 1 0
345 2 1.0974642198783309e+01 1.2072227519776330e+01 2.0143835600202230e+01 0 0 -1
2410 1 2.5001191884017576e+01 3.3796330859568734e+01 2.5987321153714884e+01 0 0 0
1658 2 2.0915720887304015e+01 2.3558390479020488e+01 5.7228699227038469e+00 0 -1 1
2598 2 1.1387392831581272e+01 1.6110405852064019e+01 2.2530463109388762e+01 0 0 0
2337 2 2.0629342426762143e+01 2.9586298435604050e+01 1.8113333314554819e+01 0 0 0
1562 2 2.4134708111554716e+01 2.3463123216700840e+01 1.0194447687163581e+01 0 -2 0
1808 2 1.4458601019153628e+01 1.5222980881972289e+01 2.2987163331439319e+01 0 0 0
2411 2 2.4936545054707537e+01 3.4136729509504413e+01 2.6904594644276767e+01 0 0 0
607 1 2.4782922856024900e+01 3.0747335038297532e+01 1.4578125474187910e+01 0 0 0
1708 1 2.2993673200450527e+01 1.5526116417880973e+01 1.4789529170457975e+01 0 -1 0
656 2 9.2182621178294486e+00 1.6018468399805460e+01 1.1033064381063167e+00 0 0 0
2474 2 2.1494642756396050e+01 2.1759422198708471e+01 2.3786105242812027e+01 0 0 0
515 2 2.4827200312109373e+01 3.1399777044436917e+01 2.1917642234951025e+01 0 -1 -1
2668 1 1.7345777320139717e+01 1.5932426631741505e+01 5.6775863811481653e-01 0 0 1
1847 2 2.7556485303091378e+01 3.1940158954680690e+01 2.2954098847751407e+01 0 -1 1
2336 2 1.9589964806641166e+01 3.0685488381639040e+01 1.8747223236845102e+01 0 0 0
2569 1 8.9198199125633586e+00 2.1214925173841834e+01 8.1861925096164150e+00 0 0 0
902 2 2.5617136896864015e+01 2.8261171374965599e+01 2.4051620463728021e+01 0 0 -2
443 2 1.6275652232723811e+01 1.7761486429455644e+01 2.4395438814781574e+01 0 0 -1
2325 2 2.2981870936906400e+01 2.4139001120364924e+01 1.3700214713543813e+01 0 0 1
2375 2 1.6757251334165819e+01 2.5855699197819945e+01 1.0342005344944852e+01 0 0 1
292 1 1.7574621545321428e+01 1.4864916606017575e+01 6.1040866798058273e+00 0 0 0
80 2 2.1774759312345440e+00 3.8904391267022156e+00 1.5370476783747729e+00 0 0 0
2573 2 1.1734006787591140e+01 7.3139118350733332e+00 1.0508568035893580e+01 0 1 0
2243 2 1.8126630066366022e+01 3.2736289277646982e+01 1.8775433808490646e+01 0 0 0
1788 2 1.8853282062812550e+01 2.1489932439154025e+01 1.6035454558534617e+01 0 -1 1
612 2 1.5124392313846755e+01 1.3246401761392704e+01 5.2803260247527071e+00 0 0 1
2631 2 1.1872414284423385e+01 1.4179284524645539e+01 2.3303198805342614e+01 0 0 0
1080 2 2.8687815424998405e+01 2.7189620522290681e+01 1.9756885246052803e+01 0 0 0
1117 1 8.8476500451381170e+00 1.3264283072033122e+01 2.0226923312398757e+00 0 0 0
2452 1 1.5496619421642162e+01 9.3666328746547922e+00 1.0875533222504298e+01 0 0 1
1909 1 2.2651607030059328e+01 2.8990612738466776e+01 2.3867069158947903e+01 0 0 0
1901 2 1.1415967886463651e+01 2.0483762009096345e+01 1.2762083428985013e+01 0 -1 1
2331 2 2.8103429071238022e+01 2.7240708845329074e+01 2.4554393430647224e+01 0 0 -1
197 2 9.9416350872110471e+00 1.3041956762364958e+01 1.5688373322936727e+01 0 -1 0
1716 2 9.3765402910274140e+00 6.7753320575028315e+00 1.4970079150830880e+01 0 0 0
748 1 1.4479702979200789e+01 5.7975001303063598e+00 6.1411855506958881e+00 0 0 1
444 2 1.5704352666364169e+01 1.8149250857653847e+01 2.5749074941846292e+01 0 0 -1
2339 2 1.1159558586056288e+01 1.7764917057955245e+01 1.0076261497153492e+01 0 0 0
327 2 1.2796028228956253e+01 5.6885280080599099e+00 3.3291552734361320e+00 0 0 0
318 2 2.1309207814016759e+01 2.0474095190836415e+01 1.6664491252148174e+01 0 -1 -1
1596 2 2.9766806101815224e+01 3.3760492091227455e+01 2.5407677828091209e+01 0 0 0
2412 2 2.4166933253029672e+01 3.3299376535417160e+01 2.5931846673586865e+01 0 0 0
1621 1 1.6709674268238764e+01 2.3121923219436837e+01 1.7961213002257082e+01 0 0 -1
1787 2 1.9755208988557637e+01 2.1528294196332844e+01 1.4733659440026850e+01 0 -1 1
1883 2 1.7268220811769456e+01 1.5140154450184067e+01 1.0224596700249855e+01 0 0 0
866 2 1.5803962513015385e+01 2.5889473036548075e+01 1.4255259819955102e+01 0 0 -1
96 2 2.1360122512827278e+01 3.1651793167832846e+01 1.5499657111357434e+01 0 1 0
1672 1 2.2729049336019411e+01 2.0740905566244610e+01 7.7725657248471638e+00 0 -1 0
2491 1 1.6128342849535333e+01 2.2631524874483755e+01 1.1156402306020913e+01 0 0 0
2415 2 1.1708168505377227e+01 1.3069124398484098e+01 1.3061434139449265e+01 0 0 2
1257 2 1.7719664809402243e+01 2.9108717916211912e+01 1.1735985935097107e+01 0 1 0
168 2 2.5350874794491890e+01 2.5711025544868672e+01 2.2390114886094921e+01 0 0 -2
1084 1 2.3728028962706539e+01 1.8936149862753648e+01 9.4571222003575617e+00 0 0 0
2340 2 9.9216940543946563e+00 1.8437842790791596e+01 1.0728486003282161e+01 0 0 0
803 2 1.9406215406740817e+01 2.5074204260788424e+01 2.4559052557534148e+01 0 0 -1
37 1 1.9825346583083025e+01 1.1854639332337833e+01 1.9610885487376610e+01 0 -1 0
373 1 1.6993860753152592e+01 4.5706291798836078e+00 1.7299115682415820e+01 0 0 0
11 2 1.1778831306203051e+01 6.2886438832741405e+00 1.2377037574896537e+01 0 0 0
2512 1 5.3344883507929159e+00 8.8504589749223381e+00 3.7754457651044229e+00 0 1 0
1868 2 1.4060681176688490e+01 2.1016577965121876e+01 2.3826639389275703e+00 0 0 0
2508 2 1.5057131537096677e+01 2.1691148707106642e+01 2.4489351533160960e+01 0 0 0
375 2 2.7249443122875469e+01 3.2340628385713593e+01 1.6400147759328835e+01 0 -1 0
149 2 9.4624869429952003e+00 1.2947401467411673e+01 1.8409058160312746e+01 0 1 0
1107 2 6.2433300537249421e+00 2.3526205254439132e+00 6.3031924629364084e+00 0 0 0
2507 2 1.6472015977682123e+01 2.1173826737947767e+01 2.4769264415745337e+01 0 0 0
2633 2 1.4657909860271289e+01 8.2559052278384577e+00 4.6762258372094863e+00 0 0 1
82 1 1.2677429924603867e+01 1.8919235903053575e+01 2.4626361147773647e+01 0 0 -1
2791 1 5.8280264328753999e+00 5.8992267265904417e+00 9.6781552496557044e+00 0 1 0
867 2 1.7125513041596459e+01 2.5115186192592404e+01 1.4627256416800565e+01 0 0 -1
705 2 1.3117304829562860e+01 1.0689835932614876e+01 2.6398010679395266e+01 0 1 -1
1548 2 1.3131567393790704e+01 1.7283349916456565e+01 1.7360980851190082e+01 0 1 0
769 1 7.7630562537684433e+00 7.7358782767150842e+00 5.2809671033401107e-01 0 0 -1
104 2 1.5726256009424734e+01 9.8585915872520271e+00 5.4022289955565297e+00 0 0 0
2603 2 1.9081652134459894e+01 2.3592829312439633e+01 1.4932673129737516e+01 0 0 0
2361 2 2.8932495724311590e+01 2.9892510203029211e+01 2.6169729488884201e+01 0 0 -1
1657 1 2.1547194803094943e+01 2.2878838514548818e+01 5.4526657461477388e+00 0 -1 1
101 2 5.2033375215527791e+00 7.2127721836295509e+00 6.6353579261934845e+00 0 0 0
884 2 1.2354786789389783e+01 8.1109956852959311e+00 1.4426792323879731e+00 0 1 0
2311 1 2.3342536939241995e+01 2.8204987760120609e+01 8.1216197593624244e+00 0 0 0
588 2 1.5180134806491267e+01 2.1967785612284647e+01 7.7220209967791913e+00 0 -1 0
32 2 1.8124618602485270e+01 1.2802226319967312e+01 1.0895087972150758e+01 0 0 0
1072 1 1.2244271571785493e+01 1.8441890827663933e+01 8.8398351873596894e+00 0 0 0
2540 2 2.3085914701034721e+01 2.6041361857977346e+01 2.1989152523327576e+01 0 0 -1
2681 2 1.4639352577598512e+01 3.0358929443097164e+01 9.0436109369240363e+00 0 0 1
1874 2 1.1233243639136651e+01 6.5116820535676094e+00 8.7359405515811961e+00 0 0 0
285 2 2.6619290429827405e+01 2.3289261621341932e+01 1.8874095584912354e+01 0 0 -1
1949 2 3.1770479839697234e+01 3.2938088336342126e+01 2.3221103398109303e+01 0 -1 1
1636 1 8.9012005217370742e+00 1.5633287732246764e+01 9.2521450741788946e+00 0 0 0
964 1 1.0656474015313441e+01 2.1722368402851828e+01 6.1691083665868218e+00 0 -1 0
117 2 1.9088455000400593e+01 2.6165656157080004e+01 7.2355604084186420e-01 0 -1 1
535 1 1.4011241798350305e+01 1.2010836048479531e+01 1.7987571089128732e+01 0 0 0
2289 2 1.7936208990506831e+01 1.1600648512115495e+01 1.9617568013435784e+00 0 0 1
1678 1 1.5781067456363733e+01 2.5272879215164842e+01 2.5385842588894683e+00 0 -1 1
885 2 1.3236997764085570e+01 9.4409725203320924e+00 1.1041600399150313e+00 0 1 0
913 1 2.1308777966936788e+01 2.6178729301141814e+01 1.8558872195055045e+01 0 0 -1
2682 2 1.3962199700984995e+01 2.9483741887407056e+01 8.1390652184728154e+00 0 0 1
1910 2 2.2104092859117575e+01 2.9127289877448483e+01 2.4624867974599297e+01 0 0 0
1810 1 7.4176898372140165e+00 4.2838415547240327e+00 1.2233446508086896e+01 0 1 0
360 2 1.9814037472292537e+01 1.8921070263405444e+01 2.1946118375427513e+01 0 1 0
196 1 1.0618092204831875e+01 1.3778512383795844e+01 1.5563358036013025e+01 0 -1 0
262 1 2.6424914207103924e+01 2.8258382791428360e+01 9.0445007699442108e+00 0 0 -1
610 1 1.5940594068619497e+01 1.2975677732337804e+01 4.7984297923315617e+00 0 0 1
2626 1 1.4363102776708008e+01 2.4819763964649326e+01 2.1465711799642193e+01 0 0 0
1699 1 1.1635782945274967e+01 3.3629831416357230e+00 9.1506126060647333e+00 0 0 1
2070 2 1.9193707219620194e+01 2.6546978851750332e+01 9.7021856049813220e+00 0 0 1
750 2 1.5351262103464887e+01 5.3872567172996622e+00 5.9311758099833245e+00 0 0 1
787 1 2.0178456559255533e+01 2.6280755243985883e+01 3.6953169312483345e+00 0 -1 1
1751 2 1.4082520002003722e+01 6.7786214730281680e-02 2.2400232914681717e-01 0 1 0
2741 2 2.1096313090202287e+01 2.2455963212919265e+01 1.6512209698912383e+01 0 0 0
2547 2 2.3338044353825079e+01 1.5191323290759044e+01 2.3329946431437623e+01 0 0 0
1762 1 1.7021802428860546e+01 1.8448690814874020e+01 1.1587605759119633e+01 0 0 0
1030 1 2.0521695386414095e+01 2.2377531629857415e+01 1.1369672782032113e+01 0 0 0