LAMMPS data file via write_data, version 15 Apr 2020, timestep = 500000

3072 atoms
2 atom types

1.2431213496006777e-01 3.0015881865037251e+01 xlo xhi
1.1515633025203798e-01 2.8225309669744728e+01 ylo yhi
1.2573687905727127e-01 2.7285708120938544e+01 zlo zhi
1.0141625585718719e+01 1.0184227763769377e+01 7.1614824084655258e+00 xy xz yz

Masses

1 16
2 2

Atoms # atomic

1 1 7.8273092996069504e+00 5.4847351072732566e+00 4.3116528206846985e+00 0 0 0
2 2 6.9783980438003770e+00 5.0367584612202752e+00 3.9046653671204461e+00 0 0 0
3 2 7.5914650290385959e+00 6.4498069382236434e+00 4.7151269757134902e+00 0 0 0
4 1 1.0318196878099062e+01 7.0190170183334839e+00 1.1083283621872114e+01 0 0 0
5 2 1.0678506389730476e+01 6.6522573902685007e+00 1.1898409535024051e+01 0 0 0
6 2 1.0063106626603114e+01 7.9327932071025451e+00 1.1286977850834605e+01 0 0 0
7 1 1.0005413067410409e+01 1.2288360597633401e+01 4.2559965617097566e+00 0 0 0
8 2 1.0653027714174495e+01 1.2010190124141484e+01 4.9069569181644619e+00 0 0 0
9 2 9.8653247055226512e+00 1.3268907125590594e+01 4.4232746905718638e+00 0 0 0
10 1 1.2706336151471277e+01 1.4352662209514190e+01 1.0708440181287450e+01 0 0 0
11 2 1.3534597971390895e+01 1.4448147419715776e+01 1.0226477953929447e+01 0 0 0
12 2 1.2401712956898024e+01 1.3490658008768554e+01 1.0324264361654395e+01 0 0 0
13 1 1.4948345827456757e+01 5.0677932768883274e+00 3.9855642149256760e+00 0 0 0
14 2 1.5228262978079451e+01 4.8293277699883888e+00 4.9031687453495190e+00 0 0 0
15 2 1.4469144146918271e+01 5.9446971166039706e+00 4.0984453276554760e+00 0 0 0
16 1 1.7426067839203501e+01 7.2109046762672167e+00 1.0995348750770091e+01 0 0 0
17 2 1.7794715552920479e+01 6.9114559353554661e+00 1.1844627451402340e+01 0 0 0
18 2 1.8261791367452897e+01 7.3528865515537980e+00 1.0531157137305026e+01 0 0 0
19 1 1.7476722359452310e+01 1.2381430987247388e+01 3.7200867091928460e+00 0 0 0
20 2 1.8433920698992456e+01 1.2252490676819342e+01 3.5560283822117547e+00 0 0 0
21 2 1.7308340782987774e+01 1.1969686535218816e+01 4.5487326460335336e+00 0 0 0
22 1 2.0108224759427756e+01 1.4204219233231578e+01 1.0954915772547023e+01 0 0 0
23 2 2.0963715104550456e+01 1.4368463066233405e+01 1.0486739504951041e+01 0 0 0
24 2 1.9850912151619152e+01 1.5120502220140288e+01 1.1234641231672720e+01 0 0 0
25 1 1.1718672741674514e+01 8.3842670059560866e+00 6.4797727188105831e+00 0 0 0
26 2 1.0945535563168798e+01 8.7924595617670533e+00 5.9339843737910121e+00 0 0 0
27 2 1.1273567612478399e+01 7.8177708885729453e+00 7.2051640806625530e+00 0 0 0
28 1 1.4429264269628824e+01 1.0144371799068413e+01 1.2978165451674100e+01 0 0 0
29 2 1.4651152784945891e+01 9.5282145506722671e+00 1.2215058319930199e+01 0 0 0
30 2 1.3624750885042817e+01 1.0651419089389208e+01 1.2725842972917537e+01 0 0 0
31 1 1.4278334088143083e+01 1.5454584439484588e+01 6.4841936669815210e+00 0 0 0
32 2 1.4593725218468895e+01 1.4865044482909497e+01 5.7448187878547277e+00 0 0 0
33 2 1.3452193383285659e+01 1.5869232819007429e+01 6.1472541037587831e+00 0 0 0
34 1 1.6686883488370359e+01 1.7100627492792214e+01 1.3083919161309783e+01 0 0 0
35 2 1.5988817548550333e+01 1.7637186435431978e+01 1.2594149398458482e+01 0 0 0
869 2 1.3038410277994849e+01 2.1038796699183958e+01 1.3275981273837543e+01 0 0 0
37 1 1.9137794904642675e+01 8.1329862170709166e+00 6.3207123722683347e+00 0 0 0
38 2 1.8388624128040885e+01 8.5253840242536345e+00 5.8866045482296867e+00 0 0 0
882 2 1.9908157636543098e+01 1.9670114350077728e+01 1.3232575310832432e+01 0 0 0
341 2 6.6667596798322259e+00 8.9246326395801532e+00 1.1715762809740401e+01 0 0 0
1152 2 2.3990254580010333e+01 3.1119682035300134e+01 1.1713948405644313e+01 0 0 0
42 2 2.1144445873445115e+01 1.0307365837489474e+01 1.2706241834149585e+01 0 0 0
1191 2 9.5659615046425124e+00 2.1560910998770524e+01 5.5799620838246149e+00 1 0 0
44 2 2.1300679780323058e+01 1.5869000246642731e+01 6.1285632048566159e+00 0 0 0
953 2 2.4339960809987126e+01 2.0712220598657559e+01 1.3490727778820226e+01 0 0 0
851 2 1.1632854057019141e+01 2.4284270074430051e+01 7.0262829914135434e+00 0 0 0
47 2 2.3147382601847905e+01 1.7411494702069980e+01 1.2803441489277050e+01 0 0 0
286 1 2.2269713479374481e+01 1.4895543700860774e+01 9.8019751559469359e+00 0 0 0
49 1 5.1529874728165037e+00 3.7256214758917303e+00 3.0584156168368701e+00 0 0 0
50 2 5.5971889161442201e+00 3.0069900269634235e+00 2.5429134557857074e+00 0 0 0
51 2 4.5479379299784997e+00 3.3545031820856512e+00 3.6833334274010645e+00 0 0 0
52 1 7.8829755294118726e+00 5.4151069526179008e+00 9.9707276047343729e+00 0 0 0
53 2 7.4582344905600273e+00 5.8329949065344575e+00 9.1815539425556718e+00 0 0 0
54 2 8.5368011764429923e+00 6.0817395017968590e+00 1.0189437516820536e+01 0 0 0
55 1 7.7963405863520086e+00 1.0888839893060370e+01 2.9836419991964624e+00 0 0 0
56 2 8.1248238935383217e+00 9.9835280133837401e+00 2.7486303266640806e+00 0 0 0
57 2 8.5717702948988297e+00 1.1301546124529409e+01 3.3624160490955330e+00 0 0 0
58 1 1.0289896198662706e+01 1.2548998519779360e+01 9.8545922570843612e+00 0 0 0
59 2 9.8354409934900211e+00 1.2858583106497036e+01 9.0284738032154781e+00 0 0 0
60 2 1.0610937134211937e+01 1.1679385479477666e+01 9.5451761643356665e+00 0 0 0
61 1 1.2848021831837904e+01 3.6254039223134567e+00 2.9433106405577369e+00 0 0 0
62 2 1.3657492178060584e+01 4.1368168928983753e+00 3.0896239400179377e+00 0 0 0
63 2 1.2333891568507612e+01 4.0091283346458759e+00 2.2693602384123341e+00 0 0 0
64 1 1.5319334571285376e+01 5.5048471573981832e+00 9.8317322254419306e+00 0 0 0
65 2 1.6085250386248482e+01 5.9318973328840352e+00 1.0228938492347025e+01 0 0 0
66 2 1.5568566355924906e+01 4.5995010057691319e+00 9.5535944939272603e+00 0 0 0
67 1 1.5287089750610708e+01 1.0736334532863347e+01 2.9558616892178096e+00 0 0 0
68 2 1.6044894879795450e+01 1.1236770195365615e+01 3.1776495949256409e+00 0 0 0
69 2 1.5552071984564552e+01 9.8937007967896076e+00 2.5181737517002456e+00 0 0 0
70 1 1.8148098529615623e+01 1.2811149973084047e+01 9.7496942533462274e+00 0 0 0
71 2 1.8022806791820827e+01 1.3316892424457066e+01 8.9053596471160592e+00 0 0 0
72 2 1.8867324430649195e+01 1.3338699252089041e+01 1.0193182455047987e+01 0 0 0
73 1 1.0942316695648751e+00 8.6898560701267025e-01 6.6487887237887811e-01 0 0 0
92 2 1.0412678966839282e+01 7.5166853224653831e+00 2.0208108567142566e-01 0 0 0
1611 2 6.9322517231237173e+00 5.0679346511752925e+00 1.3555657605703221e+01 0 0 0
76 1 3.4590471534812912e+00 2.7501725092114961e+00 7.4049659016072118e+00 0 0 0
77 2 4.2460955147239297e+00 2.2668005407098253e+00 7.7492691823649578e+00 0 0 0
1190 2 1.0179830752676944e+01 2.2487799944858402e+01 6.5863131599508629e+00 1 0 0
1028 2 2.2263620538855747e+01 2.5020304650466315e+01 3.1177914030917586e-01 0 0 0
1095 2 1.6217804002122740e+01 1.7887265863731422e+01 1.6775488935613669e-01 0 0 0
81 2 4.4310176273556507e+00 7.4053138629303126e+00 1.4543971378578056e+00 0 0 0
1054 1 2.7199293277150744e+01 2.8918625980207398e+01 9.5185291811030304e+00 0 0 0
1151 2 2.4132983934159206e+01 3.0122293085921747e+01 1.2827466235711356e+01 0 0 0
84 2 7.0381963708767294e+00 9.2967882207152712e+00 7.8689304942366478e+00 0 0 0
85 1 8.6340286064510554e+00 9.1931464833338628e-01 8.5662276537861504e-01 0 0 0
897 2 1.0283583639612154e+01 2.4512240900514119e+01 4.8322683772773036e+00 0 0 0
87 2 8.3104284217763471e+00 1.2998928202910192e+00 1.6693267397413727e+00 0 0 0
88 1 1.1112418492986743e+01 2.4969835176044741e+00 7.3523724635654846e+00 0 0 0
89 2 2.1861757370241808e+01 3.0076820722592945e+01 7.9346987002578091e+00 0 -1 0
90 2 1.1672567451845739e+01 2.9956969824659447e+00 6.7445646228814420e+00 0 0 0
91 1 1.1127301143793975e+01 7.9836525714338453e+00 6.5987788763826183e-01 0 0 0
855 2 1.2866017428805435e+01 1.4623666330620651e+01 2.4316469771859883e-01 0 0 0
93 2 1.1749315822897771e+01 7.3211253789061042e+00 9.6659558640658250e-01 0 0 0
94 1 1.3730572612360762e+01 9.7519504947215250e+00 7.8059853405623194e+00 0 0 0
95 2 1.4486451603759727e+01 9.2627588277687245e+00 8.1563432435391050e+00 0 0 0
96 2 1.3090755855325654e+01 9.1740534561803386e+00 7.2749879324464279e+00 0 0 0
97 1 5.2801900763110883e+00 4.5221378469094651e+00 6.1842843370401379e+00 0 0 0
98 2 5.5693254289760237e+00 5.2665547418548702e+00 6.7304284018678908e+00 0 0 0
99 2 4.6022195425736214e+00 4.0282562885486222e+00 6.7326320992061808e+00 0 0 0
100 1 8.0256029515281764e+00 6.2837884147463505e+00 1.2899744964142135e+01 0 0 0
101 2 7.5081600947053015e+00 6.8587760001894509e+00 1.2333605302946548e+01 0 0 0
102 2 8.5841734622885362e+00 5.6956345811485338e+00 1.2331578823036891e+01 0 0 0
103 1 7.9476751142195594e+00 1.1307255834357928e+01 6.1452134544520982e+00 0 0 0
104 2 7.5610699130183390e+00 1.1990844923236191e+01 5.5676089654599412e+00 0 0 0
105 2 7.2110451403946794e+00 1.0872593523709620e+01 6.6078264582640305e+00 0 0 0
106 1 1.0470376944001394e+01 1.3366173989637669e+01 1.2814913177756782e+01 0 0 0
113 2 1.5786207413585760e+01 6.9657960102673684e+00 1.3592659188489714e+01 0 0 0
108 2 1.1068496558207304e+01 1.2632261177704182e+01 1.2564631028943447e+01 0 0 0
109 1 1.2815684843795148e+01 4.5270520581420639e+00 6.0705783832993108e+00 0 0 0
110 2 1.3557144231987801e+01 4.0109962347087649e+00 5.6690722560982252e+00 0 0 0
111 2 1.2666828450608822e+01 5.1132920771856245e+00 5.3081600315112691e+00 0 0 0
112 1 1.5484486758806819e+01 6.2663207801724052e+00 1.2913018367787553e+01 0 0 0
36 2 1.6178930017800656e+01 1.6446088577318353e+01 1.3640042575216697e+01 0 0 0
512 2 1.9826135115860499e+01 1.0206181548638407e+01 4.9302752818839037e+00 0 0 0
115 1 1.5352424225817838e+01 1.1217312959752789e+01 6.2742944186603049e+00 0 0 0
116 2 1.4726996452721844e+01 1.0673485367266366e+01 6.8056820254668358e+00 0 0 0
117 2 1.5710323678879742e+01 1.1987043924423766e+01 6.8678236170072875e+00 0 0 0
118 1 1.8175988895450246e+01 1.3067959200412393e+01 1.2794808821844402e+01 0 0 0
216 2 2.0966401844183387e+01 1.0878694787952895e+01 8.6372127773171368e+00 0 0 0
120 2 1.7900064854146866e+01 1.3541018996209528e+01 1.2004129197396686e+01 0 0 0
121 1 3.1040505670386951e+00 2.6108234428397639e+00 4.4078876219329839e+00 0 0 0
1150 1 2.4632790111271451e+01 3.0444518748630681e+01 1.2076834873035210e+01 0 0 0
123 2 3.1995840256997790e+00 1.7589758446254684e+00 4.9148876558627155e+00 0 0 0
124 1 5.2376256039497662e+00 4.8559472927537737e+00 1.1204401920777780e+01 0 0 0
125 2 5.8955858767973730e+00 5.4855726494393364e+00 1.0998755206007742e+01 0 0 0
126 2 5.6175279289338365e+00 4.0199710314353574e+00 1.1526652246098610e+01 0 0 0
127 1 5.5697936884270440e+00 1.0015346840613748e+01 4.5927108589491397e+00 0 0 0
119 2 1.7454934833075999e+01 1.2429069393920630e+01 1.3019256670415871e+01 0 0 0
129 2 6.3165437092549030e+00 1.0529143550225278e+01 4.2518028885517465e+00 0 0 0
130 1 8.0976730735738087e+00 1.1741234638716382e+01 1.1177579394237537e+01 0 0 0
1089 2 1.0867225764127028e+01 2.4859560318042437e+01 4.7567392652752949e-01 0 0 0
132 2 8.9141294336807277e+00 1.2209303614273205e+01 1.0881551934640811e+01 0 0 0
133 1 1.0643641285647956e+01 2.8310141729147134e+00 4.5516878959127327e+00 0 0 0
134 2 1.1116244042955731e+01 2.0218131764880329e+00 4.7844996131998494e+00 0 0 0
135 2 1.1252721456026226e+01 3.5220865518457600e+00 4.3198931996698375e+00 0 0 0
136 1 1.3077547913397819e+01 4.2920217105860994e+00 1.1078771435183253e+01 0 0 0
137 2 1.3766630251158885e+01 4.9332172660919706e+00 1.0743175596173611e+01 0 0 0
138 2 1.2737042851287756e+01 4.7303083245529534e+00 1.1876622426253830e+01 0 0 0
139 1 1.3325616721995546e+01 9.7749720052946785e+00 4.3848058791025020e+00 0 0 0
140 2 1.4037888104271875e+01 1.0225783517081286e+01 3.8490516234932524e+00 0 0 0
141 2 1.3697974280705786e+01 9.0020669692768021e+00 4.8043359883464767e+00 0 0 0
142 1 1.5880728710227800e+01 1.1812720883277969e+01 1.1229519295658200e+01 0 0 0
143 2 1.6543194120062076e+01 1.2175441772710405e+01 1.0583902248516486e+01 0 0 0
144 2 1.6366764373848209e+01 1.1068719630716092e+01 1.1621289688129252e+01 0 0 0
145 1 6.6211432488816175e+00 2.1206034757233398e+00 5.2315566915232008e+00 0 0 0
146 2 7.3949318368126971e+00 1.8997784511766502e+00 5.7699528841947725e+00 0 0 0
147 2 6.4665748747696998e+00 3.0192453620520965e+00 5.6219872478506945e+00 0 0 0
148 1 9.4437717536871055e+00 4.1558118681759026e+00 1.1856582620311926e+01 0 0 0
149 2 9.8571928533100461e+00 4.1063269137131435e+00 1.0957284991952662e+01 0 0 0
150 2 1.0148060236760395e+01 3.9257043912796932e+00 1.2447902619068982e+01 0 0 0
151 1 9.6101393204666561e+00 9.2435917036424566e+00 5.2662579707344559e+00 0 0 0
152 2 9.3541087637389637e+00 1.0089423978888142e+01 5.6635002358432178e+00 0 0 0
153 2 1.0056337298261797e+01 9.4186677248113373e+00 4.3338338985251657e+00 0 0 0
154 1 1.1857643163959121e+01 1.1141344827587673e+01 1.2217041759389538e+01 0 0 0
155 2 1.1272973635663444e+01 1.0334216381986579e+01 1.2332119287712805e+01 0 0 0
156 2 1.2179301806251583e+01 1.1190295506613925e+01 1.1264533449179812e+01 0 0 0
157 1 1.4365547160761146e+01 2.3954456027310629e+00 5.3877125147482161e+00 0 0 0
158 2 1.5141299557556078e+01 2.0721568539408430e+00 5.8886418825861195e+00 0 0 0
159 2 1.4701753619278978e+01 2.3437356034126742e+00 4.4692991568272857e+00 0 0 0
160 1 1.6846484497393323e+01 3.9827424636489903e+00 1.2145605960303403e+01 0 0 0
161 2 1.6623066765742088e+01 4.8917592743004565e+00 1.2443257597984495e+01 0 0 0
162 2 1.6064677463465983e+01 3.4342111966181696e+00 1.2193352310902950e+01 0 0 0
163 1 1.7049528899038325e+01 9.2845485622928585e+00 5.2561341536335346e+00 0 0 0
164 2 1.6485229188885292e+01 9.9344652802072666e+00 5.6681966706249263e+00 0 0 0
165 2 1.7129123606307370e+01 9.3953430518919259e+00 4.2825457609999278e+00 0 0 0
166 1 1.9876989615227284e+01 1.1047022181840068e+01 1.1767142684020790e+01 0 0 0
167 2 1.9449584712134545e+01 1.1827715761048692e+01 1.2256876418036205e+01 0 0 0
168 2 2.0159588340517899e+01 1.1367127184339740e+01 1.0886955945773211e+01 0 0 0
169 1 9.3044058240234904e+00 4.7112477271888782e+00 6.3713745723835000e+00 0 0 0
170 2 9.8722726800945004e+00 4.1873004239519647e+00 5.8778917635209487e+00 0 0 0
171 2 8.5347175477480732e+00 4.9044525628622102e+00 5.7984482658132128e+00 0 0 0
172 1 1.1614315247854133e+01 5.9313533545310140e+00 1.3133133122748974e+01 0 0 0
210 2 1.9154070829517622e+01 4.4697943185047713e+00 1.0013850599267975e+01 0 0 0
890 2 7.8115124053263827e+00 1.7423259485170206e+01 4.8957287256667321e+00 0 0 0
175 1 1.1836911493572464e+01 1.1295426514803520e+01 5.9009121152779471e+00 0 0 0
176 2 1.2602709265270917e+01 1.0889531186330473e+01 5.4206356631167925e+00 0 0 0
177 2 1.2206419617409056e+01 1.1945924338835722e+01 6.5376336224590874e+00 0 0 0
178 1 1.4067932979168944e+01 1.3186183528963689e+01 1.2987937143512305e+01 0 0 0
179 2 1.3590650098817896e+01 1.3647518115909588e+01 1.2247133885878053e+01 0 0 0
180 2 1.4792792993517532e+01 1.2754975456858531e+01 1.2512518459264902e+01 0 0 0
181 1 1.6243185769410729e+01 4.6296695872096851e+00 6.3232453795734971e+00 0 0 0
182 2 1.7058642485638135e+01 4.2738406562899485e+00 5.9192560110732177e+00 0 0 0
183 2 1.6554566704853269e+01 5.2794632310803742e+00 6.9391606309376872e+00 0 0 0
184 1 1.9193288104309598e+01 6.1920972583094356e+00 1.2778635436746338e+01 0 0 0
1134 2 1.4476046521278858e+01 2.3232463254318755e+01 1.2949990588868195e+01 0 0 0
1144 1 2.2161046377267454e+01 2.3687771914098143e+01 1.2100725036818748e+01 0 0 0
187 1 1.9083024236923439e+01 1.1294316217541912e+01 6.1447172207141971e+00 0 0 0
188 2 1.8868999149858183e+01 1.0838079003619532e+01 6.9473734537443992e+00 0 0 0
189 2 1.9564338475966895e+01 1.2125965507143645e+01 6.4478030068575363e+00 0 0 0
190 1 2.1689093595730430e+01 1.3394580487262203e+01 1.3020577776595113e+01 0 0 0
345 2 6.1722976028918586e+00 1.3259431991951651e+01 3.8931816404299022e+00 0 0 0
192 2 2.0908559585652942e+01 1.3706974604250409e+01 1.2486708028574249e+01 0 0 0
193 1 8.2656430653180433e+00 2.6241034679532542e+00 3.0294829711222118e+00 0 0 0
194 2 7.6259988743371565e+00 2.5904596646571219e+00 3.8459425332009460e+00 0 0 0
195 2 9.1620933377291642e+00 2.6308162230129599e+00 3.4903963283737354e+00 0 0 0
196 1 1.0886364611585511e+01 4.3691748971519520e+00 9.5012052663648650e+00 0 0 0
197 2 1.0539688127074928e+01 3.6780103077295143e+00 8.9498336563585514e+00 0 0 0
198 2 1.1683656517034485e+01 4.0411719191255582e+00 9.9998869405282829e+00 0 0 0
199 1 1.0978883736936556e+01 9.7209708635711731e+00 2.7277140318533570e+00 0 0 0
200 2 1.0971606153801607e+01 9.1116264950150310e+00 1.9566616667840322e+00 0 0 0
201 2 1.1798445490925939e+01 9.5968852330307737e+00 3.2246250939070618e+00 0 0 0
202 1 1.3563563703592543e+01 1.1308641368707168e+01 9.9242870423219927e+00 0 0 0
203 2 1.4454861938697128e+01 1.1377651939258445e+01 1.0328664481007266e+01 0 0 0
204 2 1.3534538299849615e+01 1.0554942535307443e+01 9.3122076229390505e+00 0 0 0
205 1 1.6103510717434375e+01 2.7249187972751292e+00 2.4600845809732834e+00 0 0 0
847 1 8.7174204382735230e+00 2.2035758963756553e+01 8.1109796358749942e-01 0 0 0
881 2 2.1000437016628336e+01 2.0788737703434364e+01 1.3410456279940195e+01 0 0 0
208 1 1.8282257510396420e+01 4.2874436670427087e+00 9.6395179502763870e+00 0 0 0
209 2 1.7798308810490905e+01 3.9726854211693441e+00 1.0430646049720727e+01 0 0 0
983 2 2.6012717405475843e+01 2.4679029084865729e+01 9.0661594484946981e+00 0 0 0
211 1 1.8148313264616242e+01 9.8231863030094644e+00 2.6942050928651828e+00 0 0 0
173 2 1.2250627162890547e+01 6.5963519612534380e+00 1.3405628639891408e+01 0 0 0
213 2 1.8125572186536928e+01 1.0622027451379349e+01 2.1648471066828265e+00 0 0 0
214 1 2.0972117910023773e+01 1.1634827901823174e+01 9.2765591046546376e+00 0 0 0
1053 2 2.5542545694572944e+01 2.6986766462840411e+01 2.9742215574233311e+00 0 0 0
974 2 2.1827149920833847e+01 1.6870452495362343e+01 3.2243558191699289e+00 0 0 0
217 1 5.4591149310649154e+00 1.5062764476100139e+00 1.6936838004608046e+00 0 0 0
218 2 4.6250469288493292e+00 1.0016640915364805e+00 1.7185784330970462e+00 0 0 0
219 2 5.7083777522753447e+00 1.6182304489315671e+00 7.6417216747380223e-01 0 0 0
220 1 8.0337017490135132e+00 3.0100567923727595e+00 8.3749666601340156e+00 0 0 0
221 2 7.9645388250162803e+00 3.7583658009228138e+00 8.9931562701013235e+00 0 0 0
222 2 8.3604998764792136e+00 3.5227126530747981e+00 7.6139317290572261e+00 0 0 0
223 1 8.3777314345794274e+00 8.2770224297324031e+00 2.0301109460200175e+00 0 0 0
224 2 8.9053085993937735e+00 7.5103775251626823e+00 2.3292172912641114e+00 0 0 0
225 2 8.5861404296404586e+00 8.4070489703187512e+00 1.0564271046849041e+00 0 0 0
226 1 1.0882267234980119e+01 1.0169364932484834e+01 8.8819979865353957e+00 0 0 0
227 2 1.1401647505277683e+01 9.4366927226309230e+00 9.2133145179194837e+00 0 0 0
228 2 1.1232324270641865e+01 1.0383590996688328e+01 7.9689898566252273e+00 0 0 0
229 1 1.3252816999553851e+01 1.2626032374012204e+00 1.4884991529651035e+00 0 0 0
230 2 1.2409444042976260e+01 8.2744490636009460e-01 1.6127247635739321e+00 0 0 0
231 2 1.3177985713400270e+01 2.0831095761770571e+00 2.0252657191973924e+00 0 0 0
232 1 1.5397627486045414e+01 3.0996128526398721e+00 8.7287384998257824e+00 0 0 0
233 2 2.6067256691196974e+01 3.0556467868271973e+01 9.1913050198346760e+00 0 -1 0
234 2 1.5847552018993222e+01 3.3057950373194629e+00 7.8617290647732885e+00 0 0 0
235 1 1.5423484196365076e+01 8.3483577708691108e+00 1.8538601089824396e+00 0 0 0
236 2 1.5757734400945585e+01 8.4703286345743116e+00 9.4817814488752050e-01 0 0 0
237 2 1.6065594970335848e+01 7.6452882268549764e+00 2.1194326909631442e+00 0 0 0
238 1 1.8361431652859000e+01 1.0297700337824548e+01 8.7060439310896669e+00 0 0 0
239 2 1.9005348462006694e+01 9.6187833200481947e+00 9.1305942012271064e+00 0 0 0
240 2 1.8660783718846083e+01 1.1145925194186180e+01 8.9937653070640504e+00 0 0 0
241 1 7.4557173437189546e+00 4.6926185916760756e+00 1.0482433171122287e+00 0 0 0
242 2 7.6796566964452033e+00 4.1274410228062051e+00 1.8331231331217730e+00 0 0 0
243 2 6.8440245161809310e+00 5.3212720488455805e+00 1.4048280664238482e+00 0 0 0
244 1 1.0006252062278410e+01 6.7530149224192337e+00 7.8866477415209344e+00 0 0 0
245 2 1.0429277741239900e+01 6.0668354362849621e+00 8.4488585014245512e+00 0 0 0
246 2 9.6371944907071612e+00 6.1319284219234174e+00 7.1953997049407405e+00 0 0 0
247 1 1.0039140361174844e+01 1.1593549695723826e+01 9.7811709172900729e-01 0 0 0
248 2 9.4372297654672082e+00 1.2313121903551279e+01 1.2952809743230300e+00 0 0 0
249 2 1.0464647923188542e+01 1.1165257351445465e+01 1.7267667014507706e+00 0 0 0
250 1 1.2815962711753002e+01 1.3112126278790489e+01 8.0275822445836873e+00 0 0 0
251 2 1.3293355532368178e+01 1.2509387842589103e+01 8.6588509757794210e+00 0 0 0
252 2 1.3353572066184542e+01 1.3888487804290893e+01 7.9829474426855676e+00 0 0 0
253 1 1.5165956294890227e+01 4.6361943515029509e+00 9.2926351266632956e-01 0 0 0
254 2 1.5512044689743977e+01 3.9505095402160917e+00 1.5599636436382844e+00 0 0 0
255 2 1.4557240908307369e+01 5.2423543264989458e+00 1.3534818124835870e+00 0 0 0
256 1 1.7474898724067579e+01 6.5782410236286655e+00 7.8688404346825918e+00 0 0 0
257 2 1.7663507705165738e+01 6.1220015507046881e+00 8.6833531037689458e+00 0 0 0
258 2 1.6719488987829102e+01 7.1383329682183945e+00 8.1238451886715168e+00 0 0 0
259 1 1.7692219949725409e+01 1.1722278319747366e+01 8.6665298622356135e-01 0 0 0
260 2 1.7074091140043773e+01 1.2405646253375689e+01 1.1801334091936906e+00 0 0 0
1022 2 1.9786875735202589e+01 1.7854425541580593e+01 3.8489692684235643e-01 0 0 0
262 1 2.0005059337605868e+01 1.3536053904941792e+01 7.7735171197491919e+00 0 0 0
263 2 2.0418663440604668e+01 1.2909404526963653e+01 8.4367164582849430e+00 0 0 0
264 2 2.0771082135633183e+01 1.3995979375500612e+01 7.3243479777521072e+00 0 0 0
265 1 9.7649819166281606e+00 6.2267007107579095e+00 2.7141940939229761e+00 0 0 0
266 2 9.0277376988732225e+00 5.8874483679291583e+00 3.2385358915248661e+00 0 0 0
267 2 9.9474344968210477e+00 5.5498974402878405e+00 1.9978623446519757e+00 0 0 0
268 1 1.2463948829692246e+01 7.7458285052324101e+00 9.7071092690297665e+00 0 0 0
269 2 1.2745487632002551e+01 7.3802068115745634e+00 8.8881390984366622e+00 0 0 0
270 2 1.1766670137819887e+01 7.2023270432179523e+00 1.0079624808347802e+01 0 0 0
271 1 1.2183459291567607e+01 1.3285200597724593e+01 2.8313111624547371e+00 0 0 0
272 2 1.2710885595135034e+01 1.3612383300415958e+01 3.5376735191635356e+00 0 0 0
273 2 1.1464664382181683e+01 1.2813540508041784e+01 3.2596884430946798e+00 0 0 0
274 1 1.4933755906357160e+01 1.4842092239710567e+01 9.3575245567550098e+00 0 0 0
275 2 1.4455968805206862e+01 1.5672797451724946e+01 9.2853450319853366e+00 0 0 0
276 2 1.5632179911546391e+01 1.5053246404139283e+01 9.9750880837410136e+00 0 0 0
277 1 1.7142418869969113e+01 6.3578852719030996e+00 2.8214169190512028e+00 0 0 0
278 2 1.6523551105122962e+01 5.7832437896713982e+00 3.2844885120295184e+00 0 0 0
2630 2 2.1731885981223513e+01 2.3039372882455364e+01 1.3646907347293276e+01 0 0 0
280 1 1.9615858856998731e+01 7.9848556633208529e+00 9.8414740154906610e+00 0 0 0
1133 2 1.4694778444627405e+01 2.2613168709383348e+01 1.1596305574874741e+01 0 0 0
314 2 3.0652160603463283e+00 3.8805383159948192e+00 8.9433529365452580e-01 0 0 0
283 1 1.9840327564037409e+01 1.2990381540585016e+01 2.7601703770598753e+00 0 0 0
798 2 1.8483492746166622e+01 2.3463815343335881e+01 1.3541659023306300e+01 0 0 0
811 1 2.6752098128073126e+01 2.9225170735399360e+01 6.1631912312182733e+00 0 0 0
808 1 2.6486119182707501e+01 2.3807292043407170e+01 1.3136223750437503e+01 0 0 0
1141 1 1.9598820839745386e+01 2.1691572741738025e+01 5.3506972352238611e+00 0 0 0
288 2 2.2035279998507438e+01 1.5643179757932614e+01 9.2512559184774794e+00 0 0 0
289 1 6.0744762763228808e+00 6.8349133380619067e+00 1.8325264435285182e+00 0 0 0
290 2 5.7023602267313507e+00 6.6820387916446009e+00 2.7550421649097676e+00 0 0 0
291 2 6.8714427807363840e+00 7.3807788115755271e+00 1.9180685675296554e+00 0 0 0
292 1 8.5774936458344015e+00 8.7047387696328826e+00 9.1512560594123364e+00 0 0 0
293 2 8.9301058913529587e+00 7.9408396227780393e+00 8.6297871558462980e+00 0 0 0
294 2 9.3280910468578284e+00 9.3301920576477837e+00 9.1322488909536137e+00 0 0 0
295 1 8.6041740294971465e+00 1.3925706796559917e+01 2.0743593885124136e+00 0 0 0
296 2 8.2023021290302669e+00 1.3476271456643540e+01 2.9167478621245619e+00 0 0 0
297 2 7.8232520726345003e+00 1.4118531859769922e+01 1.4902698571249688e+00 0 0 0
298 1 1.1176037596090756e+01 1.5531295024964351e+01 8.3686003056725511e+00 0 0 0
299 2 1.1295844286427721e+01 1.4575832739994981e+01 8.2928625725522487e+00 0 0 0
300 2 1.0313741759243413e+01 1.5811164806141266e+01 8.0021185342163346e+00 0 0 0
301 1 1.3280681279130837e+01 6.7504568933957891e+00 1.7953178351513388e+00 0 0 0
302 2 1.3027418645912698e+01 6.6050407641661986e+00 2.7357365697908822e+00 0 0 0
303 2 1.4023995552378981e+01 7.4059408556081294e+00 1.8401954051425464e+00 0 0 0
304 1 1.6128550853338904e+01 8.6606481608200721e+00 8.6250014945334534e+00 0 0 0
305 2 1.5928878786347822e+01 8.4089805438851819e+00 9.4812739961388175e+00 0 0 0
306 2 1.6927763297993625e+01 9.2588838211218203e+00 8.5807913681566923e+00 0 0 0
307 1 1.5936557210307344e+01 1.3768527933951789e+01 1.9099558465258071e+00 0 0 0
308 2 1.5206506601101363e+01 1.4300363232079375e+01 1.5107237324635605e+00 0 0 0
309 2 1.6612532577033367e+01 1.4458440270949378e+01 2.1061385904025611e+00 0 0 0
310 1 1.8539985061484291e+01 1.5818143760977442e+01 8.5835014284920117e+00 0 0 0
311 2 1.8891326402726403e+01 1.5066351773056418e+01 8.1013332878123503e+00 0 0 0
312 2 1.7813264847331421e+01 1.6189318368870467e+01 8.0247590829962494e+00 0 0 0
313 1 3.7378572976621753e+00 4.6217929148453099e+00 1.1701466353063854e+00 0 0 0
842 2 5.7729367726948846e+00 1.4358170129047112e+01 3.7963247494812530e-01 0 0 0
315 2 4.1893307834989830e+00 4.2749785644653642e+00 2.0282507023245606e+00 0 0 0
316 1 6.2483946440952440e+00 6.4007329113375455e+00 7.8966828266029419e+00 0 0 0
317 2 6.7304789483748912e+00 7.0359814395296336e+00 7.2741627841009828e+00 0 0 0
318 2 5.6732644525806428e+00 7.0201079076503818e+00 8.3922724311556927e+00 0 0 0
319 1 6.0233789746609343e+00 1.1841868946229308e+01 1.1883179872347978e+00 0 0 0
2378 2 1.1683890317168675e+01 1.9049141575402359e+01 1.3285012812895614e+01 0 0 0
321 2 6.7077008703826335e+00 1.1422391883909613e+01 1.7704857825009312e+00 0 0 0
322 1 8.8492875819289232e+00 1.3396324906541860e+01 7.6030457498362320e+00 0 0 0
323 2 8.1029754480876761e+00 1.3951865013270389e+01 7.8302301556646219e+00 0 0 0
324 2 8.3909696950747339e+00 1.2615751038082472e+01 7.1529861208375651e+00 0 0 0
325 1 1.1060799101001951e+01 4.5580742938409777e+00 1.0018877733497302e+00 0 0 0
1143 2 2.0503436345922658e+01 2.1952837907620882e+01 5.1991601946006041e+00 0 0 0
1082 2 8.5088770540514620e+00 1.8041126889163262e+01 6.5192024225563028e-01 0 0 0
328 1 1.3730644861799082e+01 6.6076121019377823e+00 7.7062614884344249e+00 0 0 0
329 2 1.3345166590767990e+01 5.7573307225708490e+00 7.3594104310824804e+00 0 0 0
330 2 1.4422695466870199e+01 6.2838854876737873e+00 8.2803630806651256e+00 0 0 0
331 1 1.3697760014416813e+01 1.1587971560670370e+01 7.9765166880429383e-01 0 0 0
332 2 1.3076413125864070e+01 1.2061696041420019e+01 1.4448197070701367e+00 0 0 0
333 2 1.4490416934296825e+01 1.1501457992146250e+01 1.3237336213477082e+00 0 0 0
334 1 1.6603678573279755e+01 1.3433903234223354e+01 7.3804210198977076e+00 0 0 0
335 2 1.6994321632573111e+01 1.3887344362618112e+01 6.5851053561870518e+00 0 0 0
336 2 1.5988632494729009e+01 1.4027299922401591e+01 7.7420581462604865e+00 0 0 0
337 1 4.5060657990199928e+00 6.7620739519845658e+00 4.1593636018371960e+00 0 0 0
338 2 4.6619682077206619e+00 5.9534498675929211e+00 4.6696907858834757e+00 0 0 0
185 2 1.9574422715463381e+01 7.0071864956572671e+00 1.3051990708929901e+01 0 0 0
340 1 6.6766017256565622e+00 8.2501740468386338e+00 1.0985354136043028e+01 0 0 0
1023 2 2.0882655980290320e+01 1.8944794088390719e+01 4.2301066457889253e-01 0 0 0
342 2 7.4603912718349132e+00 8.3953739741391153e+00 1.0446153373150246e+01 0 0 0
343 1 7.0209653976543809e+00 1.3183821126852802e+01 4.3785995232318067e+00 0 0 0
1113 2 1.1872107171109164e+01 2.8089646139262129e+01 5.0021936408624814e+00 0 0 0
212 2 1.8301203524425233e+01 9.0244664776911989e+00 2.1428806830891074e+00 0 0 0
346 1 9.5625804221961062e+00 1.5246965712535154e+01 1.0996003555689846e+01 0 0 0
347 2 1.0201805993485241e+01 1.5504406584157858e+01 1.0309501333482528e+01 0 0 0
348 2 9.9973184699332585e+00 1.4516572189482138e+01 1.1540010197503626e+01 0 0 0
349 1 1.2155569514818906e+01 6.5472408097932071e+00 4.3527749962956346e+00 0 0 0
350 2 1.1883817837399400e+01 7.1182658486627242e+00 5.1546342340274078e+00 0 0 0
351 2 1.1356866953032272e+01 6.3952902473917828e+00 3.8289146982413005e+00 0 0 0
352 1 1.4659091247665520e+01 8.3079704297154819e+00 1.1154514399712118e+01 0 0 0
353 2 1.4974075769372446e+01 7.5247468241803750e+00 1.1607021479905466e+01 0 0 0
354 2 1.3779868774487120e+01 8.0930687585495811e+00 1.0788201752987053e+01 0 0 0
355 1 1.4594101044817322e+01 1.3392771570528659e+01 4.5351113580456177e+00 0 0 0
356 2 1.4678570442979058e+01 1.2590308806026991e+01 5.1314636693698645e+00 0 0 0
357 2 1.5093511338727717e+01 1.3189770779068581e+01 3.7156448488745770e+00 0 0 0
358 1 1.6931872970594821e+01 1.5433854498469747e+01 1.0948215689836696e+01 0 0 0
359 2 1.6857469516983091e+01 1.6012597780001030e+01 1.1724042939074026e+01 0 0 0
360 2 1.7552112957424857e+01 1.5861840695915502e+01 1.0285194087561541e+01 0 0 0
361 1 7.3090435012598372e+00 7.8221572277878773e+00 5.5594612676373307e+00 0 0 0
362 2 6.7138317315760752e+00 8.5628642920724776e+00 5.5616975291892432e+00 0 0 0
363 2 8.1387021175824721e+00 8.2702458230265492e+00 5.3763568296497208e+00 0 0 0
364 1 9.6764102129363749e+00 9.4742479928328542e+00 1.1977373940704808e+01 0 0 0
365 2 9.0064428244300103e+00 1.0156943802164559e+01 1.1923582891201173e+01 0 0 0
366 2 9.5217816670424504e+00 9.0452734641883463e+00 1.2877014789256959e+01 0 0 0