LAMMPS data file via write_data, version 8 Apr 2021, timestep = 4652000

972 atoms
2 atom types

0.05382575533787721 19.937227244656295 xlo xhi
0.20524160543812306 19.785811394573827 ylo yhi
0.09942825133256784 20.70134374868221 zlo zhi
0.10153749130094708 0.07990202072575171 0.12530991305067152 xy xz yz

Masses

1 16
2 2

Atoms # atomic

22 1 2.36105742043603 0.7964127207341472 4.7150700500752025 0 0 0
61 1 9.578424149168777 5.621158211047338 6.784192935868371 0 0 0
4 1 4.525299230088563 1.702383430017138 3.14951809186416 0 0 0
5 2 4.493406226777861 2.7277480062856223 3.1364000715471656 0 0 0
341 2 3.1999292951122835 4.443172583888768 10.254970587340134 0 0 0
7 1 5.711725260006606 4.912429928804705 5.434423076789659 0 0 0
8 2 6.653088465853116 4.736353717361836 5.141109071487049 0 0 0
9 2 5.071127218757936 4.616302946897138 4.68302543189841 0 0 0
10 1 1.775964727997284 4.427765593541069 3.459955729134501 0 0 0
12 2 1.2361966421521444 5.020703199050747 2.8505653784225222 0 0 0
13 1 4.722251149030857 6.114441127987943 1.2761574621245009 0 0 0
14 2 4.464306029393563 6.848820064414861 1.8802040397372912 0 0 0
16 1 4.258708970397846 4.311237219738256 3.3212378124694673 0 0 0
17 2 4.500930191023129 4.827581302660117 2.5053822682878795 0 0 0
18 2 3.2359719782759826 4.450384752086262 3.389342412822158 0 0 0
100 1 19.493634447923718 1.2766521127144712 5.342576614556583 0 0 0
24 2 2.6580226136667404 1.5184556498393555 5.35623814539183 0 0 0
25 1 2.6062708059749022 5.206502274190719 6.365736272886965 0 0 0
26 2 2.3985214723034463 6.057030409692656 5.861511905430162 0 0 0
27 2 3.3058191366719676 5.4470292643608875 6.953144290895509 0 0 0
111 2 1.8334978767694474 9.043517147538823 0.9229547143128229 0 0 0
60 2 7.820340744888367 1.231452642948721 5.053810777334873 0 0 0
33 2 1.0530911917843397 2.83365025391206 2.619086831854058 0 0 0
35 2 6.263540522086055 2.577360905221807 1.1046363991228423 0 0 0
20 2 0.6361012269515944 6.900568850099841 1.9382180695889866 0 0 0
102 2 18.895630796187866 1.4392033507134365 4.592533716574302 0 0 0
46 1 8.08277355638137 4.4572934842608065 3.9402102694353776 0 0 0
47 2 9.109300156035953 4.370352163040833 3.9351215679075917 0 0 0
48 2 7.869803262239343 5.260784292222706 3.3958819119631443 0 0 0
55 1 7.508913537721261 6.167714814053725 1.9399626024381431 0 0 0
56 2 7.111430033981809 7.01146591495643 2.2969575084306153 0 0 0
57 2 6.772666604478815 5.753483639307162 1.450790819042896 0 0 0
63 2 8.687324184474672 5.872029630604249 7.0680298626241305 0 0 0
67 1 7.7910673986514825 2.393055919377032 2.0961715493591924 0 0 0
68 2 7.805211541200768 3.0269341270560783 2.893602165245183 0 0 0
69 2 8.367443297844767 2.705653155376825 1.3601024708701324 0 0 0
112 1 4.104369713907184 7.997335992829246 3.1020989112401827 0 0 0
113 2 4.914312011630005 7.88397471603716 3.6827280603828396 0 0 0
114 2 4.139192119008527 8.950648901930164 2.918106081447443 0 0 0
130 1 2.257934022360154 7.477185334442734 5.150776103953809 0 0 0
131 2 2.899381077792193 7.659598013971676 4.434017159601168 0 0 0
132 2 2.635869127191259 8.121201207998277 5.889176320242267 0 0 0
136 1 6.1941882722742125 7.682026635069642 5.041058454231124 0 0 0
137 2 5.976796029149674 6.728682398907 5.199929367730884 0 0 0
138 2 7.198008160371208 7.7154755384560625 4.860579841003639 0 0 0
166 1 8.848966012271832 7.697141253228777 5.082548004879787 0 0 0
167 2 9.025083289152706 8.33602741027241 5.815422489114111 0 0 0
175 1 7.0471515350100145 8.754542854498672 2.0884361313373327 0 0 0
178 1 11.384020901554115 9.211992413152092 0.5025690719694749 0 0 0
177 2 6.233530489605392 8.938358232260024 1.5910995541877322 0 0 0
6 2 3.6862073783243807 1.3837672338878402 3.6207539443813497 0 0 0
344 2 1.0787885459356925 5.286932413926398 9.416384584247965 0 0 0
372 2 7.851634783416553 4.622349178728703 9.851050373768953 0 0 0
325 1 2.7855042177136733 2.628886422889706 6.636450901418771 0 0 0
326 2 2.495807898251717 3.5188662550674787 6.351273063582844 0 0 0
327 2 3.778945986352259 2.7890977287211784 6.929063531123753 0 0 0
337 1 4.449969377038651 5.989964325457503 8.291492820189516 0 0 0
338 2 4.539544979226382 5.160967649819217 8.87291629798193 0 0 0
339 2 4.527277951321174 6.710584438868171 8.900253841231214 0 0 0
463 1 1.2288082899286605 8.52049751797546 8.675432175636711 0 0 0
437 2 4.582950780506275 9.01251378262636 9.973943708646049 0 0 0
345 2 1.2908913091194418 5.508520173379737 7.810392425318303 0 0 0
400 1 17.53548273470626 1.7498230829827432 9.980740461016707 0 0 0
357 2 1.834258635016662 2.2052109177463426 8.087253231562674 0 0 0
358 1 5.41106475715774 2.769470990028482 7.288298634709968 0 0 0
359 2 5.665843204265302 3.558221449879514 6.804877533999393 0 0 0
360 2 5.699939288031618 2.144323926575207 6.568693296334132 0 0 0
51 2 10.62029721507512 5.6525509276935075 1.0478154691709958 0 0 0
363 2 8.631569341288685 2.758946873264345 7.928070589361031 0 0 0
212 2 14.18149882172667 9.130679817339825 0.9582485719462775 0 0 0
379 1 7.277671157622562 5.889590784758074 8.615005819970483 0 0 0
380 2 7.438854715492402 6.805435065207923 8.888708975802638 0 0 0
381 2 6.369255450825169 5.7185615261646445 8.317672265579402 0 0 0
391 1 7.359907189706983 2.210273223886624 9.224767204484245 0 0 0
393 2 6.703965101608309 2.6452499193197134 8.672046221291794 0 0 0
467 2 5.712096874177888 8.629050882889064 6.3995166782878865 0 0 0
343 1 0.9613220118061473 5.9342860641916175 8.590622118046419 0 0 0
499 1 7.743001592725554 8.583886577716008 8.754066209752876 0 0 0
342 2 4.200822301709164 3.253607008585575 10.047108666607082 0 0 0
210 2 0.6157053487994922 7.396958625846515 4.9974551180490305 0 0 0
747 2 14.657247023826747 5.834807519312787 0.7573940857644653 0 0 0
59 2 9.294254513035638 1.0941809271212648 4.513742110907392 0 0 0
168 2 9.114151082592299 6.81885589665697 5.424578837449419 0 0 0
214 1 18.429868013338567 9.23267455678649 0.6161146652106295 0 0 0
505 1 16.338573819492048 9.165509726157847 6.968978172480396 0 0 0
471 2 9.060832423238553 9.087543132556531 7.8260393683655 0 0 0
472 1 11.179799579927083 8.121187669015873 10.285704607013098 0 0 0
3 2 2.428315494155937 2.2004613701190707 0.9252037107375846 0 0 0
509 2 17.84818513268559 7.755609853933807 9.540332779739886 0 0 0
211 1 13.609608311428753 8.926729567704312 1.7579858777867496 0 0 0
66 2 13.883067728670497 0.9431033341685268 5.3429636275009855 0 0 0
710 2 8.546870488837033 5.875921579989542 0.4709405693813143 0 0 1
15 2 3.962750883313818 6.019571364750524 0.6661131432873592 0 0 0
11 2 1.32626152119404 4.503086569696617 4.313122261481291 0 0 0
361 1 9.18483371240435 3.056562251188808 7.226079789595099 0 0 0
392 2 7.585012668800437 2.790036903998577 9.993064994289192 0 0 0
362 2 9.105300209803993 2.404708313960018 6.50294969442861 0 0 0
356 2 1.1078865303585226 0.9812954193004038 8.84124208294488 0 0 0
355 1 1.0879869651677918 2.0163092008923926 8.694403027529155 0 0 0
435 2 2.2987979079697127 9.138579066403045 7.627003353808658 0 0 0
81 2 19.295732795327915 5.838073438952606 5.610070487103836 0 0 0
465 2 1.3260024621822757 7.528648227450432 8.838886856648221 0 0 0
328 1 4.097026103952762 1.5141486910777993 10.30734214304521 0 0 0
329 2 4.1642853648231 0.7768330703922537 9.536920303371726 0 0 0
139 1 0.37844219320053546 8.419713745046847 2.553749695247197 0 0 0
504 2 12.744457139366583 9.088460569389719 8.241981613010548 0 0 0
433 1 2.9048590905330087 9.406682371794272 6.908963453195121 0 0 0
140 2 0.7014001211102548 9.12456217347927 3.1099434051635124 0 0 0
31 1 0.917584926337896 2.032771222880078 2.0516156517282336 0 0 0
2 2 3.8140464295427035 2.5397690325033198 0.49914790138461296 0 0 0
1 1 2.881814493868338 2.654378830428951 0.23772410398840269 0 0 0
19 1 0.6226414799717578 5.995385653686698 1.4915678114934192 0 0 0
79 1 19.349021985514668 4.878753330186198 5.476114956379547 0 0 0
436 1 4.510897961775298 8.011423082829602 10.015573757746226 0 0 0
150 2 10.082840883923238 7.802242897165774 4.000702072725884 0 0 0
62 2 9.531077450719504 4.609524604458402 6.899902666039098 0 0 0
32 2 19.94999401213678 2.149450984775293 1.6504239972055428 -1 0 0
180 2 10.41664789404995 9.188552045769724 0.5318484534814847 0 0 0
335 2 1.081659273065744 3.2696100134076067 10.093163678073541 0 0 0
378 2 11.05792204506696 4.855493436271633 9.889452522355889 0 0 0
38 2 10.353877834413398 2.795457962251695 0.20123937927198493 0 0 0
501 2 6.8799147455030285 8.786146380400474 8.352329184603372 0 0 0
176 2 7.225296039666099 9.448135287440246 2.7554508232324233 0 0 0
23 2 1.405814441944455 0.8469829528502402 4.712804740737944 0 0 0
149 2 11.022068039455748 7.173753383350246 2.865517333736901 0 0 0
208 1 19.51483304367519 7.44457706778978 5.244556279063615 0 0 0
42 2 11.179214141429044 0.6457384343007401 2.753277903087171 0 0 0
432 2 19.52367167677888 2.5314061545406936 7.907477312430052 0 0 0
417 2 14.58601947688471 5.65963580959813 9.411777573127788 0 0 0
633 2 14.266781891587728 0.4006942297031809 8.933410540763438 0 0 0
413 2 17.60155757500368 3.40260014413467 10.255129700435928 0 0 0
535 1 14.522624412394718 8.81587214925 9.202537096979386 0 0 0
431 2 19.27561279072251 3.6592245117896556 6.82633689081998 0 0 0
75 2 15.171101236159007 2.5074350411767057 0.9648869772757097 0 0 0
537 2 14.431784717837866 7.796393344640172 9.19029711079247 0 0 0
29 2 5.7013843326038485 1.3296358342906185 4.374834304897337 0 0 0
34 1 5.589581710248512 2.4077319311856775 0.38759551528328823 0 0 0
106 1 18.226904151779376 2.612988116633039 0.2722048315700362 0 0 0
473 2 11.261617595425717 7.468880063631369 9.548316792570565 0 0 0
272 2 7.502561231179405 0.8601928681461894 2.2851224825686347 0 0 0
21 2 19.590832293988274 5.726019630550401 1.4349457190028423 0 0 0
503 2 11.304882061293464 9.126473741476014 7.394419025537176 0 0 0
468 2 4.651962557010508 9.24282125109143 7.441708772948773 0 0 0
506 2 16.030025558088113 8.66682290315065 6.182845950620113 0 0 0
145 1 8.792151212254089 9.164578498388435 0.2544793958772146 0 0 0
43 1 12.574649639588745 4.53962883756853 5.299541148595911 0 0 0
44 2 12.585707437086345 5.522757748421981 5.530409197198422 0 0 0
45 2 12.511965569406163 3.9398431449927576 6.042000985907424 0 0 0
49 1 11.154863070041069 5.8345179647939815 1.863230421042583 0 0 0
50 2 10.79514007279016 5.0959422516752335 2.4494772544598336 0 0 0
53 2 11.269703493000437 4.075586988142197 4.302276093107115 0 0 0
64 1 12.959125098564796 0.6768916530845915 5.580559504445166 0 0 0
71 2 12.646552615298505 2.438957706517052 1.0469467008788422 0 0 0
539 2 19.189131672291854 8.57538583626255 6.5303796451844205 0 0 0
76 1 17.535248885716374 1.5029609132683275 3.2154665555229434 0 0 0
78 2 17.853628384905544 2.3561448424993032 2.9568506786763615 0 0 0
80 2 18.750825467702164 4.76111188982673 4.753884970701307 0 0 0
94 1 15.694496949693418 1.0982235235131848 5.294914458335199 0 0 0
82 1 14.71151851341238 4.098798484770584 3.948941582392692 0 0 0
83 2 13.950153218854284 4.103293701643173 4.621584360516615 0 0 0
84 2 14.492033452913956 4.904253806948219 3.4936226379909514 0 0 0
85 1 17.796520672152543 6.0356489945052285 1.3560970622814361 0 0 0
87 2 17.530072844872016 6.76726042223155 1.9752108045939127 0 0 0
88 1 17.724150723182834 4.243449007135781 3.515095072681552 0 0 0
89 2 17.70677777421754 4.810977608199982 2.6823975746782236 0 0 0
90 2 16.772237337260773 4.127513017889545 3.835154748525764 0 0 0
91 1 13.8806675613522 6.1904869099149655 2.132613918330009 0 0 0
92 2 13.749976209000554 7.164479879557266 2.080672219226503 0 0 0
93 2 12.997018982060675 5.7872400074127 2.21338723151319 0 0 0
97 1 16.187606079991657 5.74322785715771 6.665334077164511 0 0 0
98 2 16.82324304019747 6.038893179593852 7.356610033286049 0 0 0
99 2 16.2761382571198 4.718907727049454 6.667835443812634 0 0 0
103 1 14.166594327546576 2.085573781477348 2.1984679633639197 0 0 0
104 2 14.307967342196637 2.8425627042324884 2.803454077015349 0 0 0
105 2 14.526733526792095 1.232895090387859 2.6124339882267575 0 0 0
536 2 15.114097351098065 8.903630721388971 8.399549428323807 0 0 0
96 2 16.11578742736881 1.2377604663762574 4.454288380096263 0 0 0
500 2 7.738629054704603 9.030436420918326 9.632723359217145 0 0 0
502 1 12.257903208865711 9.176975500567176 7.37617982522881 0 0 0
172 1 12.84145018179379 7.385287863128004 5.340746787248424 0 0 0
173 2 12.781535592016105 7.966460454361312 6.127102345855894 0 0 0
174 2 12.129009763463053 7.621550764008938 4.624531746176926 0 0 0
184 1 17.394127707919367 7.751381061089277 3.257335221582189 0 0 0
185 2 17.406698126959967 8.740762603086667 3.2393937244494726 0 0 0
186 2 16.54721088086973 7.637826959611133 3.695941515934269 0 0 0
202 1 15.440473228986209 7.6642418061444175 4.928291798557301 0 0 0
203 2 14.490048367967882 7.523650655019286 4.845554273700679 0 0 0
204 2 15.727719095406547 6.86871688718171 5.4587297549390135 0 0 0
41 2 11.67584505121214 0.8246223249618216 4.340656712180757 0 0 0
209 2 18.930037156681646 7.5821684591837055 4.4624574791924 0 0 0
213 2 12.689858706715585 9.015113106888109 1.4182018955745537 0 0 0
101 2 19.083313929010643 1.86637011655023 5.995947058177146 0 0 0
231 2 4.680719776811611 0.6021024373166838 1.5302571705346115 0 0 0
141 2 19.574953969502616 8.767733962068045 1.9468714870507398 -1 0 0
373 1 11.571676029448659 5.989483783278271 8.575410801102512 0 0 0
375 2 12.48597117307395 6.166150088786062 8.321734687583822 0 0 0
394 1 12.179271031527685 2.6556410603550575 7.227885600188889 0 0 0
395 2 11.386246778456801 2.5915229434954243 7.686497879973783 0 0 0
396 2 12.41467299290466 1.7641394882271344 6.911428797859093 0 0 0
397 1 16.096271419568744 3.125659228902897 7.198368133181176 0 0 0
398 2 17.095428399913263 3.072852923156935 7.223110156174535 0 0 0
399 2 15.904291499941325 2.4127072785818653 6.520837809360765 0 0 0
538 1 19.032931988587247 9.183307219983325 7.305126870369285 0 0 0
409 1 18.106555772701107 6.152507898829806 8.475641579021111 0 0 0
410 2 17.84669515528809 5.464234736642126 9.166079299051512 0 0 0
411 2 19.051234280274528 5.913407878521 8.332068807927053 0 0 0
415 1 14.25560137003728 6.154251259397975 8.62488665336765 0 0 0
416 2 14.87076708912014 5.981730616724315 7.867467588712183 0 0 0
427 1 14.458924784901615 2.097494737036551 9.018631958466724 0 0 0
428 2 13.728344942338122 2.3688327681584567 8.437654984750848 0 0 0
429 2 15.279909202181743 2.453473086155817 8.517949209353384 0 0 0
430 1 18.85212027741275 2.8877066206114073 7.277903462286453 0 0 0
52 1 10.66559719697696 3.8576290308349463 3.616756587613932 0 0 0
464 2 0.3094936360615909 8.647167544951936 8.476403617105927 0 0 0
148 1 10.9632365216354 7.832614062906244 3.5827680057748594 0 0 0
401 2 17.91140567106459 1.1041970057453359 9.273745590294777 0 0 0
28 1 6.047599954364606 1.092514169906751 5.293782447427469 0 0 0
95 2 16.172276091254158 0.32402638721944266 5.728026357064629 0 0 0
374 2 11.023954656605698 6.126974710094843 7.738303185021333 0 0 0
54 2 10.715958351034189 2.884689489835179 3.4810332168719254 0 0 0
466 1 5.570733844383843 9.271261111915816 7.151745631188004 0 0 0
540 2 18.042984205165943 9.110167089722495 7.380610649273536 0 0 0
86 2 16.872124801381194 5.869549216394947 0.9840539827494212 0 0 0
147 2 8.033111539726706 9.061892823479 0.9638499790484422 0 0 0
40 1 11.019982338161386 1.109473567077234 3.62411597677107 0 0 0
182 2 16.41405235816001 9.124430565353679 0.6176784237211884 0 0 0
58 1 8.717435030555729 1.1437560099820985 5.341838123123988 0 0 0
675 2 1.9245308886227517 5.464074796385786 0.3544877616144455 0 0 0
469 1 9.611217012255326 9.257750913753176 7.071528286671958 0 0 0
37 1 9.388819596537628 2.9776001756746733 0.10978570722136866 0 0 0
365 2 11.264252849452546 1.073277260619207 9.860053378790168 0 0 0
70 1 12.052955469774496 2.6103548983369573 0.2810508654628518 0 0 0
77 2 17.45453388076799 0.9114387038380742 2.4314819712967486 0 0 0
142 1 5.105948234797317 9.135314754921986 0.22924076212645625 0 0 0
109 1 2.3011029545557236 9.364772205061302 0.10956462240822325 0 0 0
74 2 16.535504563232244 2.870766925707468 0.23477396876528192 0 0 0
143 2 4.123380381525933 9.250554324902046 0.4231492453679114 0 0 0
340 1 4.171504890487965 4.282687643420301 10.257629790350139 0 0 0
162 2 10.850550252939772 9.514647151738476 3.233111456607074 0 0 0
408 2 14.603740146671047 3.6355446632165074 10.256990076742849 0 0 0
746 2 15.388432237640002 4.590048432656481 0.2634397993939943 0 0 1
443 2 1.1921782225825415 9.613977462470185 10.182523847988664 0 0 0
73 1 15.585678694689985 2.836947140794332 0.16371523010508057 0 0 0
596 2 7.2633409040347905 0.2753648995382444 9.351224702734084 0 0 0
181 1 15.622070278235157 9.321754421020275 0.09945084986447489 0 0 0
745 1 15.339996610796799 5.521238840964545 0.10501046125072525 0 0 1
522 2 17.647655133648726 9.884635816729224 10.381841436173918 0 0 0
389 2 13.92448047636561 1.5296565451268171 12.243276911052575 0 0 0
508 1 17.795035116919152 8.119833543227944 10.405785033074231 0 0 0
726 2 17.714549521756158 0.8529987893113294 16.371992163681288 0 0 0
331 1 5.756347954058262 4.9245794231798 12.265719275563193 0 0 0
332 2 6.499988815039528 4.484499375431759 11.87235484312704 0 0 0
333 2 5.052105549922538 4.550896284511693 11.71510869818026 0 0 0
424 1 19.362388320889725 1.1560884263531417 12.069842288059075 0 0 0
667 1 1.1180578073539944 6.283260444357629 15.661624641047927 0 0 0
348 2 2.120929827538477 1.496516306136237 12.674110872190944 0 0 0
349 1 2.69199217924087 5.70267471948083 13.517123657229874 0 0 0
350 2 2.502356162114212 6.158614697478824 12.628630347188198 0 0 0
351 2 2.647992731653245 4.715723615390235 13.395738559410512 0 0 0
656 2 5.782264688226662 5.4961479137558795 19.178038156850555 0 0 0
385 1 8.90504816587426 5.663256156839413 13.16637457368907 0 0 0
387 2 8.248570474885641 5.897155704899293 13.88899426432939 0 0 0
707 2 9.436621744681073 1.285414471333081 18.21112999379234 0 0 0
454 1 2.258049340817855 7.687752660067231 11.743371957080276 0 0 0
456 2 2.40629535959738 8.425104440251829 12.392894885690751 0 0 0
460 1 6.018503414480886 7.690140401618361 12.067411645692331 0 0 0
461 2 5.87822026300181 6.707540616344243 12.247301964564489 0 0 0
462 2 6.926460710420732 7.819174523650733 11.74593696870975 0 0 0
377 2 11.058585672779468 4.751820591741283 11.416839259710692 0 0 0
490 1 8.677629898331519 7.76837279879157 11.449389669885035 0 0 0
491 2 8.807871646183806 6.9342073578001 12.045466059775743 0 0 0
425 2 18.848265022164505 1.3313847175750357 11.267525916059444 0 0 0
649 1 2.5917657064723025 2.751215771745868 13.665500025436152 0 0 0
650 2 3.4938147916745765 2.6736012757087004 13.913517241014812 0 0 0
651 2 2.0296047661073136 2.4846297077504644 14.450015258313492 0 0 0
652 1 4.423937854170701 1.274597483147307 17.22308935131819 0 0 0
653 2 4.59851580418298 2.242493627101165 17.139062276484182 0 0 0
654 2 5.17075289841625 1.0957312561434833 17.896950607521553 0 0 0
655 1 5.973702799322356 4.564471561960792 19.137831766856024 0 0 0
657 2 6.862427967435157 4.414732183654808 18.64347917693441 0 0 0
658 1 1.5976774097382338 4.368902989231523 17.52504443198433 0 0 0
659 2 1.389534655663496 3.510755601667976 17.05151687871936 0 0 0
660 2 1.360850153009615 5.035076327092476 16.872078611950975 0 0 0
661 1 4.718264030717083 6.211946777909529 15.243109173995418 0 0 0
662 2 4.480936690182826 5.411789787979735 15.831417550515512 0 0 0
663 2 4.119594925048516 6.128352425078048 14.469634461719945 0 0 0
664 1 4.220473281389717 4.145426560374255 17.099281959626143 0 0 0
665 2 3.22947908954232 4.254611230381455 17.31891663095877 0 0 0
666 2 4.760062132034747 4.226932671332161 17.919912754477277 0 0 0
669 2 1.655740674233428 5.988416138560664 14.864351464879551 0 0 0
671 2 2.6644484957595593 1.796727700734495 19.455889912012907 0 0 0
682 1 5.299447562276648 2.874129282647328 14.1311131058591 0 0 0
683 2 5.457971787932151 3.6817834191020915 13.554757943327376 0 0 0
684 2 5.582191266734107 2.099801325114984 13.64117357793922 0 0 0
694 1 7.911377167913503 4.556638007021999 17.396792912948754 0 0 0
695 2 8.892336268336251 4.577606249525223 17.356407627123748 0 0 0
696 2 7.763325385223769 3.674078560300507 16.89498859187219 0 0 0
703 1 7.306047176543432 6.13965512851414 15.35852696266643 0 0 0
704 2 7.558518260104024 5.5870573610790935 16.128587020792573 0 0 0
705 2 6.327299249144979 6.092834977921212 15.30435882267629 0 0 0
715 1 7.4086310503439545 2.380971482564197 16.02801155864955 0 0 0
716 2 6.648679008055281 2.555334113890779 15.500201561052888 0 0 0
717 2 8.087418459676142 2.611311288509254 15.348521361624286 0 0 0
371 2 9.047891460988913 4.362859519631574 10.736642163174142 0 0 0
760 1 4.231780249076275 8.234755695441095 16.841065718151295 0 0 0
761 2 4.288548813923729 7.657772909091449 16.039026163489936 0 0 0
762 2 4.979131181032596 7.964924133913758 17.397830249521373 0 0 0
778 1 2.101661789560196 7.72148937247924 18.742114866727817 0 0 0
779 2 2.8690070378495416 7.7581867801585265 18.16850821941013 0 0 0
780 2 2.2959253535109787 6.966208428975949 19.38430962791802 0 0 0
784 1 5.706287255322407 7.350030636559626 18.941123061589956 0 0 0
388 1 12.998570348217804 1.2170906998465962 12.535093011765705 0 0 0
786 2 6.66608440269626 7.573097927326148 18.84454868956797 0 0 0
791 2 5.388208067752861 8.640250854668814 13.604597456544814 0 0 0
825 2 6.758712214112213 9.230785266650262 15.159128787174836 0 0 0
814 1 8.397265134122177 7.663492955234727 18.550417099122498 0 0 0
815 2 8.617201937435421 8.382109997362278 19.192247199117457 0 0 0
816 2 8.775567702626796 6.9311471762595875 19.00377738039602 0 0 0
823 1 7.587886522182967 8.948215354888752 15.615973062401835 0 0 0
824 2 7.617632306295761 7.979113208417158 15.772271098240317 0 0 0
528 2 16.349922065596292 7.463534848697541 11.002804787370309 0 0 0
685 1 9.142754475793213 2.663501849355454 14.113057889087212 0 0 0
474 2 10.27283800797256 7.869918564055036 10.63340266115004 0 0 0
485 2 10.908297999130372 10.058086848664127 10.431560218303492 0 0 0
795 2 8.66890922131455 9.207191573660037 14.34904744614713 0 0 0
750 2 18.72926663998734 0.7772913184947804 18.32691389538727 0 0 0
418 1 15.80868103292242 0.8933722805356478 11.719535979161682 0 0 0
822 2 11.902876711142044 7.989297300694956 19.719128102996166 0 0 0
678 2 7.358551048988806 1.0166090261664025 18.938465120962885 0 0 0
390 2 12.378734853986547 1.414322396954726 11.767232437551264 0 0 0
334 1 1.4100318559778675 4.096882988920584 10.587914144475581 0 0 0
346 1 2.1120495981111205 0.8456306224584125 11.912047478052806 0 0 0
403 1 19.422626817788775 4.6898943586604895 12.313100972144362 0 0 0
183 2 15.631826926124928 8.829800633982929 19.90575794963739 0 0 0
787 1 0.8445776138829318 9.051053368751534 15.823437614089283 0 0 0
510 2 18.632594546408743 7.885834647893197 10.866226145649357 0 0 0
534 2 19.792132745007716 6.482082902643237 12.35569769732433 0 0 0
406 1 14.825728322511267 4.470061082982006 10.728590693417582 0 0 0
748 1 19.227665332513016 0.5737922315591634 19.134752462099506 0 0 0
864 2 18.30314090787661 9.983019924169328 13.848043206927239 0 0 0
386 2 9.010317040289156 4.684460235445068 13.196755671883139 0 0 0
690 2 11.141256562439903 1.0171017659833805 16.649263825381844 0 0 0
672 2 2.8495863429836508 1.2039721988481997 18.135121881281037 0 0 0
492 2 8.927200274214131 8.569873918945897 11.951830396480291 0 0 0
336 2 0.7620394960458443 4.220490776191727 11.34196561995896 0 0 0
347 2 2.8726660279973495 1.0383385019463802 11.35071612754319 0 0 0
749 2 0.2593628765307382 0.7292487316380353 18.89873647592396 0 0 0
742 1 15.45602099599876 0.9526890249767666 18.775486537919708 0 0 0
708 2 9.302894128632653 0.4316901810213766 19.473726427684824 0 0 0
687 2 9.061634967091008 2.075024169443066 13.335994833004987 0 0 0
804 2 7.942406062130887 10.036218531879676 16.908223257351317 0 0 0
110 2 2.1267798883733917 8.94341898105063 19.927694169007545 0 0 0
789 2 1.4310445017463762 9.288541184248277 15.055526602633627 0 0 0
793 1 9.28647479943794 9.465051380141736 13.673136662470464 0 0 0
681 2 1.0075798573211918 1.4110134642909586 16.063513632021508 0 0 0
680 2 0.15350900309407023 2.520764861047852 15.33375092553283 0 0 0
668 2 1.2767395681511615 7.256732883100159 15.68111343118589 0 0 0
39 2 9.228878081111201 2.668928341920203 19.912489846069377 0 0 0
455 2 2.84966847240844 7.862775853111061 11.002794010708952 0 0 0
412 1 17.458695297810817 4.388166293722896 10.510575180195316 0 0 0
679 1 1.0822403317815739 2.3762994348100497 15.715353425229763 0 0 0
533 2 0.6905683406814302 7.657738510813669 12.016070192847726 0 0 0
858 2 0.32801362793365263 7.812224535906096 18.897869191872267 0 0 0
788 2 19.835947305802645 8.961008784342642 15.439918989304143 0 0 0
426 2 0.44005178724177774 1.0659299617578761 11.772318432158107 0 0 0
790 1 5.412827819324473 9.401329035377707 14.22428508671177 0 0 0
827 2 10.946818152306674 9.416002934292068 13.919094590749431 0 0 0
72 2 12.442778103558778 3.6153742975880467 20.53334394057695 0 0 0
830 2 16.542862346912614 8.978219183537028 14.017112494392041 0 0 0
216 2 18.693788613254235 8.781318589125839 20.454670153602287 0 0 0
706 1 8.897809504027984 1.1879122666117798 19.000635953125553 0 0 0
698 2 10.880789381133123 6.945369287504794 15.618427507701268 0 0 0
689 2 11.411809642922089 1.5206844816782625 18.104854008541206 0 0 0
712 1 12.833637811012263 0.9437020672135319 19.098670661035406 0 0 0
757 1 2.5858011037343274 9.434605741446413 13.77614466508939 0 0 0
797 2 10.643223760201774 9.109973680112782 16.617724928482655 0 0 0
727 1 18.97446162815555 4.496163972865321 19.122609915712346 0 0 0
859 1 13.803438958496105 9.238727992238662 15.706401541908127 0 0 0
860 2 12.9318497589041 9.256302212429043 15.221531661808408 0 0 0
670 1 2.223713929703709 1.1598309956415476 18.8339814217256 0 0 0
920 2 7.758697673833302 0.5099656578219629 15.963333055145844 0 0 0
796 1 10.652695933483827 8.10808959131112 16.613149478795183 0 0 0
862 1 18.42665565363169 9.042308836672989 14.269927994079413 0 0 0
676 1 6.388718436418628 0.8926402176644037 18.990567486737614 0 0 0
402 2 16.83071924153801 1.2459246686394743 10.555318855492596 0 0 0
846 2 17.394387672201013 9.551482825854874 17.27478112466087 0 0 0
352 1 5.98002920264028 0.8354866214814622 12.470764350909413 0 0 0
382 1 8.783239257900714 0.8816948847383141 12.122382669300448 0 0 0
330 2 4.9265436804888685 1.3007136195104616 10.819263227737514 0 0 0
108 2 18.57749370474293 1.9390939077081324 20.396475250254646 0 0 0
404 2 19.126437763381915 3.9502767957017855 12.853647534900801 0 0 0
688 1 10.890671534909279 1.7485134724879547 17.29974685377853 0 0 0
753 2 14.178380585619403 1.1603146977133427 15.544641296019815 0 0 0
832 1 17.44908776355839 7.89597917900998 17.16812130581566 0 0 0
367 1 12.608550381069136 5.076301697924516 12.442538948253205 0 0 0
368 2 12.76428329528489 6.01602628144383 12.546529361155281 0 0 0
369 2 12.464907231876362 4.699559380129737 13.359924225673367 0 0 0
850 1 15.12223569362319 7.59482611611375 18.727832042847712 0 0 0
831 2 15.600351473336687 8.610516028216566 12.810858169724833 0 0 0
828 2 12.325888506033511 8.967009551555503 13.249246636223463 0 0 0
407 2 14.222433178970483 4.461330161932795 11.484271032424713 0 0 0
700 1 10.640143363226821 4.359297072400159 17.071798671970264 0 0 0
405 2 18.70641413959169 4.823337454823296 11.661145665834106 0 0 0
852 2 15.202260612495856 6.846198922570889 19.389462731057282 0 0 0
861 2 14.433461849012287 9.083193397970613 14.975100004690777 0 0 0
420 2 15.826532517888886 1.6971784456071415 12.281861771083152 0 0 0
421 1 16.074750495080224 5.722857150655225 13.401329335961664 0 0 0
422 2 16.865397962794432 6.0210431279048935 13.863842258574333 0 0 0
423 2 15.361924276118812 5.942087850291632 13.96713696520472 0 0 0
677 2 6.121718232416869 1.4253145672013725 19.777391020369283 0 0 0
699 2 10.432310892461022 6.080456263413378 14.35372641657921 0 0 0
496 1 13.019000035227918 7.81660902288501 12.132733521219427 0 0 0
497 2 13.888428794194576 7.6580552107749345 11.639175625336229 0 0 0
498 2 12.368692086708283 7.790381866347407 11.411210768465008 0 0 0
713 2 12.627741882187744 1.5918789623857141 19.810069766061076 0 0 0
526 1 15.50284460512211 7.292041447004879 11.521422154265087 0 0 0
527 2 15.733380894138493 6.631805672315728 12.196850402540214 0 0 0
384 2 9.483149209808198 1.164479294123587 11.428948944603041 0 0 0
834 2 16.59255269646907 7.613152492627951 17.47105907682054 0 0 0
851 2 14.105393458294479 7.686174417522701 18.65866895794575 0 0 0
364 1 10.982940012408164 1.623125636770466 10.648704861214965 0 0 0
691 1 12.548835971729087 4.648350144298933 19.236309405297 0 0 0
693 2 11.859569642194467 4.557331824179556 18.49896529693465 0 0 0
697 1 11.06763324675228 6.175037171653929 15.088483253375653 0 0 0
702 2 10.916664958610525 3.4586055498257746 16.88797349436423 0 0 0
863 2 18.77993454336355 8.411971746963719 13.596257233938516 0 0 0
728 2 19.771786133343088 4.208202073212678 18.633054727769796 -1 0 0
718 1 11.980018465411383 3.1583581574667545 14.351516623705088 0 0 0
719 2 12.638613996613197 3.2046155555644655 15.034697221475394 0 0 0
720 2 12.286717950663064 2.462001956814214 13.736956310715538 0 0 0
721 1 15.904258534321631 2.878056449666556 13.683674701939996 0 0 0
722 2 15.955885804840936 3.823278318200776 13.63740429125583 0 0 0
723 2 15.289744485824972 2.6427509099899766 14.377161939541294 0 0 0
724 1 17.58977117465616 1.3167074804371768 17.23481483569397 0 0 0
725 2 17.62735527244206 2.279835624658902 17.11970000796288 0 0 0
729 2 18.274598542546833 4.2453903417212 18.462757759934178 0 0 0
730 1 14.925602461092637 4.369853456741993 17.764596047317344 0 0 0
731 2 14.300114373906034 4.404862041919039 18.51779810672805 0 0 0
732 2 14.51971531846148 4.511982313673454 16.890518785999422 0 0 0
733 1 18.254432450891127 6.002152588387832 15.427268493432656 0 0 0
734 2 19.230603484589892 5.926165999361026 15.585548911991369 0 0 0
735 2 18.062790445838182 6.73089449834299 16.134316952809474 0 0 0
736 1 17.22236473533166 3.8594026533726624 17.18323772129588 0 0 0