LAMMPS data file via write_data, version 3 Mar 2020, timestep = 51000000

2016 atoms
2 atom types

0.0000000000000000e+00 1.7942913871119355e+01 xlo xhi
4.7346719606476739e-02 4.4948813257260895e+01 ylo yhi
0.0000000000000000e+00 1.9084186875553527e+01 zlo zhi
4.1886271230550234e-02 -6.6664397346107336e+00 -2.3579261067425250e-02 xy xz yz

Masses

1 16
2 2

Atoms # atomic

151 1 7.5975184195200320e+00 7.4713966272094039e+00 1.1088237412795060e+01 4 0 1
1079 2 -1.5489215735856949e+00 5.6647177159335289e+00 1.3494990643103996e+01 -2 1 1
442 1 8.5249381718210326e+00 1.6003875428356755e+00 1.6515394682550706e+01 3 0 1
937 1 -2.6858078396070710e+00 1.8906766332549305e+00 1.0153134915711858e+01 1 0 1
1055 2 6.0337392826101244e+00 1.8691173049643193e+00 1.3567419708230890e+01 -1 0 -2
562 1 3.1991093723511268e+00 3.1212241163009167e+00 9.5252720951312977e+00 -2 0 0
157 1 6.4475251742610116e+00 1.5298886275654244e+00 5.2285897958919723e+00 -5 0 -3
1971 2 1.1310035521668475e+01 8.0827362912009040e+00 1.4532244165108612e+01 1 1 1
318 2 1.1020745856465080e+01 5.7494129717009166e+00 8.1769494120812354e+00 0 0 0
1762 1 9.2643180292948273e+00 3.5766649829165069e+00 6.4652464012194661e+00 -1 1 1
185 2 7.8048596047932683e-02 1.0105562223991456e+01 9.2964921643085212e+00 -4 0 -7
65 2 2.5879048314149617e+00 6.0654044717732558e-01 2.2296175741308959e+00 -2 0 -4
473 2 -5.7713185667247746e-01 6.2714153521348992e+00 3.6302957079852241e+00 0 0 0
1422 2 8.8034016256595677e+00 5.2702475160653472e+00 1.6686954737955340e+01 -3 1 -1
130 1 -3.1041545255956544e+00 3.7833632151253038e+00 1.6192843274483561e+01 -1 0 -2
490 1 1.0478326104869760e+01 7.5176524491981960e+00 1.7642201223301992e+01 2 0 1
933 2 5.9307167764482474e+00 1.6663975657170085e+00 1.7862796494950107e+01 0 0 -2
950 2 5.8192117407026664e+00 7.1373171245692584e+00 1.1994672168084461e+01 -1 0 -1
695 2 3.0838300627383637e+00 9.9917540711544479e+00 1.0126081634277167e+01 -1 0 0
1467 2 6.2085233383821281e+00 7.9765241583246551e+00 1.8172598116242092e+01 1 1 -1
1891 1 1.1219506912833799e+01 6.6803019940287909e+00 4.8301027386535571e+00 -2 1 1
1442 2 9.4806895825480524e+00 9.7997484062455928e+00 9.3508058580726896e+00 0 1 0
970 1 -1.2204009835242333e+00 6.8945083861679688e+00 1.4563871135261039e+01 2 0 1
542 2 5.7428979504153546e+00 3.3071011165213680e+00 2.9795807995972828e-01 0 0 3
363 2 8.2812817273474515e-01 8.2755773225662530e+00 4.8225523341524674e+00 0 0 -2
1242 2 3.3667504639041974e+00 4.4001016073030259e+00 1.3285837194818109e+01 1 1 0
1046 2 -4.6093155691080145e-01 2.4519699548660250e+00 1.4999261389537361e+01 -1 0 0
513 2 1.5887398594535323e+01 4.8279811438743101e+00 4.7212507800353958e+00 -1 0 -1
241 1 6.4051314698836475e+00 4.0348315015873251e+00 3.7070333947171004e+00 2 0 -1
998 2 1.3567027628142236e+01 3.3267942633499290e+00 7.1254557346126970e-02 -4 0 1
798 2 3.0728923382352011e+00 9.8575974684583922e+00 1.4120400750528276e+01 -1 0 0
1896 2 1.7352104599325751e+00 6.0205864761113608e+00 6.4115714607239269e+00 1 1 0
153 2 8.3263233564541341e+00 7.5379196484934976e+00 1.1675884290478331e+01 4 0 1
1865 2 9.1557801105453702e+00 9.9393642443841728e+00 1.5330770982402799e+00 0 1 1
644 2 1.1754745841790381e+01 3.2902234770558505e+00 1.3575164329057632e+01 -5 0 -5
127 1 3.4674328289273215e+00 1.8886926771906254e+00 2.6492943161338838e+00 -4 0 0
381 2 4.9238346663586210e+00 5.8376089718213588e+00 1.0291421553635224e+01 -4 0 -1
55 1 7.7662023500567896e+00 4.6832549696335910e+00 1.2843653076252174e+01 -4 0 0
604 1 1.8252638469139306e+00 7.0590116725211312e+00 5.0418352368664214e+00 2 0 4
1483 1 -3.1907926991732767e+00 8.9034772874407295e+00 1.4569348573000086e+01 0 1 -1
1491 2 1.2230469004307404e+01 9.8787703382637435e+00 4.0713737217122636e+00 1 1 1
492 2 9.6929566702757981e+00 7.6230276492846549e+00 1.7121223903119237e+01 2 0 1
1344 2 8.3894830552636313e-01 4.0012382990920257e+00 6.8958472089515634e+00 0 1 0
516 2 5.0277608602760431e+00 8.9922233004031327e+00 1.4300437578487745e+01 -1 0 2
310 1 8.4177735227584449e+00 8.9741599593442398e+00 1.6828225645208018e+01 1 0 -4
1888 1 8.5183963646572298e+00 6.6634709745466179e+00 2.4478415283121846e+00 -1 1 2
298 1 1.0147655752342988e+01 5.2258211846744222e+00 1.1782208640601279e+01 -3 0 -5
84 2 1.2239444443975172e+01 9.3834132456300665e+00 1.0339440173256760e+01 0 0 -1
1421 2 7.5904746541823256e+00 5.8067346631425059e+00 1.7688471537485647e+01 -3 1 -1
1935 2 1.4613390834612632e+01 4.0761195640087866e+00 2.7925522229080273e+00 0 1 2
895 1 -3.9807445408685638e-02 1.0468982509480107e+01 2.5199959888955092e+00 -1 0 -1
1763 2 9.8701915643678397e+00 3.8583773361407765e+00 7.1115928119174177e+00 -1 1 1
382 1 4.4007055487587836e+00 5.4297336196822004e+00 1.4123340419831688e+01 1 0 0
1125 2 9.3602824410093852e+00 9.6997298162363617e+00 1.3722777371546650e+01 2 0 3
1533 2 6.5288607824383487e+00 7.3612613882453566e+00 7.3748700064448673e+00 -1 0 2
413 2 -1.5791969192741053e+00 4.5227951894529941e+00 1.6593163161941497e+01 3 0 0
1371 2 -6.8846673486654408e-01 3.2235540240191607e-01 1.1603383429304365e+01 1 1 -1
8 2 -3.7024371829761420e+00 6.3916147026919834e+00 1.2736804354376950e+01 0 0 -3
686 2 6.7181845506836115e+00 8.6536724688203570e+00 1.0312486163442111e+01 -3 0 0
140 2 -2.6161612942448480e+00 3.7083922183711815e-01 1.8376565021146597e+01 -3 0 -4
1905 2 1.3695062259881585e+01 8.5502993075578839e+00 2.4516109041120098e+00 -1 1 1
975 2 -6.4500023688252461e-01 3.3182255496170194e+00 2.6500108375355991e+00 -2 0 0
876 2 9.6131808544481192e+00 2.9497812623719724e+00 1.0486251085965623e+01 -2 0 1
325 1 5.8576172111919860e+00 1.0690153161848144e+01 1.2096745779332771e+01 -2 0 -5
1877 2 3.8451709446806617e+00 1.0171341670308930e+01 1.4786393217710514e+00 0 1 1
921 2 1.3772718360996635e+01 1.0882676729086313e+01 1.9491534218886888e-01 2 0 -1
968 2 1.5483642128107640e+01 2.5636438173550919e+00 5.5462973196613841e-01 1 0 -1
652 1 2.9690519713142929e+00 8.4022542781154304e+00 1.1243848360647529e+01 0 0 1
1942 1 1.4471220592762082e+00 6.8082402197838778e+00 1.4061103634829886e+01 -2 1 -3
924 2 1.0355509737485878e+01 1.2110152866387509e+00 7.8781715091591584e+00 -1 0 -8
7 1 -3.6325600549992916e+00 6.9399997701326086e+00 1.1907773082529809e+01 0 0 -3
963 2 9.5558574725216623e+00 2.3680830227566347e+00 1.3101455190521415e+01 -4 0 -1
1237 1 5.0777426122672127e+00 6.7293910481668719e+00 3.2839918766650399e-02 -2 1 1
220 1 -3.3624342456634495e+00 1.0243624291233012e+01 1.2070574588335013e+01 -1 0 -3
273 2 -1.4645625713936830e+00 3.1099284242713852e+00 7.4413055745364938e+00 -1 0 -1
1582 1 9.4238944138773739e+00 8.4894608650763157e+00 8.1440998226485668e+00 1 0 -1
896 2 8.6866308646863954e-02 1.0101438032171579e+01 1.6660322988505056e+00 0 0 -1
47 2 1.7029855526847214e+01 5.4809922935750865e+00 1.3968983031137239e+00 -4 0 1
276 2 1.3596334376978730e+01 6.0543660621220727e+00 6.8020620377385732e-01 3 0 1
312 2 7.3875388718533230e+00 8.8113355226461891e+00 1.6963512399163100e+01 1 0 -4
139 1 -3.0420983629688085e+00 1.0223845325458332e+00 1.7758570617253508e+01 -3 0 -4
779 2 1.0634163348613122e+01 8.9197453322857800e+00 1.1941289437838799e+01 1 0 -1
384 2 5.1365762787855811e+00 4.8123269644671840e+00 1.4446648413227157e+01 1 0 0
949 1 4.9179451604573536e+00 6.6908384707924080e+00 1.1962164886885951e+01 -1 0 -1
528 2 2.0165613496233985e+00 1.0686283494797322e+00 7.3048182469406502e+00 -2 0 -4
939 2 -2.3404115403536139e+00 1.1503764171841215e+00 1.0772290105778396e+01 1 0 0
342 2 2.1989562383083614e+00 1.5851947758138540e+00 1.8668769229110833e+01 -4 0 -2
708 2 7.5391505118968292e+00 5.0732483989331785e+00 4.5266733056729782e+00 1 0 -2
1362 2 6.2322752606127159e+00 3.7699675194104163e+00 1.2355376465059663e+01 0 1 -2
128 2 3.2191551061402279e+00 2.4195920287444048e+00 3.3526489284896366e+00 -4 0 0
1849 1 8.0486546586510865e+00 5.2814517967804218e+00 2.7399582351261781e-01 -2 1 -1
1995 2 -3.1161493940381835e-01 8.0607470155846759e+00 7.7653463674754839e+00 1 1 -1
535 1 2.1189365045270496e+00 4.9142175798201029e+00 3.4082570627756033e+00 0 0 4
43 1 3.2143899932361011e+00 3.3721403403126513e+00 5.1553651578061048e+00 -1 0 1
1764 2 9.1204780640842085e+00 4.2851139249457049e+00 5.8048583965528389e+00 -1 1 1
316 1 1.1189413612439985e+01 5.2150289625273105e+00 7.3678707990976999e+00 0 0 0
1547 2 1.1363787149834801e+01 3.3466528702020963e+00 4.5816567940346395e+00 1 0 1
1399 1 -3.1851056271441571e+00 3.1823523365270527e+00 1.2353642568482195e+01 -2 1 -2
1829 2 6.8278042265101124e+00 9.0555789697198108e+00 1.2984234765095022e+00 0 1 1
104 2 1.1059740273766959e+01 1.3082053015208359e+00 1.9024399377726031e+01 -1 0 0
987 2 1.3969686603910910e+01 5.9343906043402557e+00 5.1427009024920531e+00 -1 0 -2
499 1 1.3915368958822800e+01 5.1318967120588725e+00 9.8800473433785978e+00 0 0 1
1115 2 5.0507454543420858e+00 5.6903883473981676e+00 6.0802719674379935e+00 0 0 1
1890 2 8.6120794813565151e+00 6.3579341143623642e+00 3.3865107536375936e+00 -1 1 2
1320 2 1.2273702602627283e+00 3.7374498804519791e+00 1.5389932411051909e+01 0 1 0
1406 2 1.2059352283875944e+00 6.7855857657798557e+00 1.8420181895333876e+01 2 1 0
81 2 1.1190929435385538e+01 1.0876290314452634e+01 9.6185604200367774e+00 -5 0 -1
511 1 -1.4335768748994169e+00 5.3667928616673404e+00 5.2262085447002899e+00 0 0 -1
424 1 1.5397693028299640e+01 1.0193779188236075e+01 1.8426049850893751e-02 -1 0 2
1853 2 6.9277554906079253e+00 1.2662024515509338e+00 1.0095475971997809e+01 -1 1 0
1970 2 -5.0182592666157486e+00 8.4868605852788690e+00 1.4455878487537964e+01 2 1 1
520 1 2.0263750807760506e-01 1.4940257195213738e+00 4.8494114736122276e+00 -1 0 1
1723 1 -4.2259648001634096e+00 5.8810569754263531e+00 1.4653988159162813e+01 -1 1 0
1903 1 1.2873401122954480e+01 9.1088911951952056e+00 2.5951191501244355e+00 -1 1 1
1463 2 3.0542528634186183e+00 3.9903643165502749e+00 3.1997417617128671e-01 0 1 -3
1250 2 1.0808813103529896e+01 5.4661470095221718e+00 1.5454640561502371e+01 -1 1 -1
897 2 1.6905573262244069e+01 1.0623475541228828e+01 2.5580483739931741e+00 -2 0 -1
1160 2 -4.2080937660391360e+00 1.5619947571774322e+00 1.4825201560906162e+01 -1 0 1
1898 2 1.5163589623680306e+01 1.0508010695963248e+01 3.7767478446701475e+00 0 1 1
210 2 -5.6713022082007045e+00 2.8260783687823361e+00 1.8089767526849919e+01 2 0 -4
1384 1 1.0889411398085459e+01 4.5022086743099674e+00 3.3294664971619117e+00 -1 1 -2
809 2 3.0633394453828400e+00 9.9248040091145349e+00 1.8162128606322110e+01 -5 0 -3
1994 2 1.4473191330020276e+01 7.3032305838564398e+00 4.5958248794197125e+00 -1 0 -2
854 2 1.4344386371253842e+01 1.0244121900176131e+00 1.7439479899159525e+00 -2 0 -3
1056 2 6.1731461242395760e+00 2.3640220519531212e+00 1.4940158606054178e+01 -1 0 -2
173 2 1.2846351026005694e+01 4.7984864314846680e+00 6.9227721348381257e+00 2 0 -2
21 2 9.3662196475738817e+00 9.1040097949701959e+00 3.7056700933794087e+00 -5 0 -5
1427 2 -6.7795156907913245e-01 8.5192254527658076e+00 1.1494981053967905e+01 0 1 -1
460 1 6.7228953562550249e+00 3.0378761020675640e+00 7.4351068678655983e+00 -2 0 -1
1285 1 3.7311120976934475e-01 7.8046400355452494e-01 8.4936680026570563e+00 2 1 0
131 2 -3.0703152143372807e+00 2.9897251969602090e+00 1.5609092481583829e+01 -1 0 -2
189 2 -2.9996449837162587e-01 1.0033784081762875e+01 1.7670342536508905e+01 -7 0 -7
931 1 5.7344137505492006e+00 8.6417551024302719e-01 1.7385616493105115e+01 0 0 -2
867 2 -2.8632045225876395e+00 9.9155865095058040e+00 1.0197517856900546e+01 -2 0 -1
1851 2 7.8640631027247165e+00 5.5752267027561704e+00 1.1646995298984875e+00 -2 1 -1
1771 1 6.3494233313770092e+00 1.0675616710063199e+01 3.3636317804904827e+00 1 1 1
171 2 6.3846364569931326e+00 9.8222888321075956e+00 4.8242073458997181e+00 0 0 1
1287 2 4.1268125999670113e-01 1.6674309731733044e+00 8.9647421648442354e+00 2 1 0
1864 1 8.9348068985284534e+00 1.0153135072712397e+01 2.4523646068438705e+00 0 1 1
905 2 1.5169523367255637e+01 1.9469241889138751e+00 6.0315905042032139e+00 -5 0 -1
1968 2 9.7561343206240245e+00 3.6407310916642048e+00 1.5002501224669579e+01 0 1 -1
141 2 -3.7364898277550878e+00 5.1936818390486539e-01 1.7228342860278566e+01 -3 0 -4
41 2 5.2279624463828744e+00 5.0501077277228053e+00 2.8018045797808431e+00 -1 0 4
696 2 1.8501850723544973e+00 1.0980847528130665e+01 9.7712550657340458e+00 -1 0 0
1140 2 6.3088044193244137e+00 1.0077201516600407e+01 7.0595606897573022e+00 0 0 0
744 2 3.9727645240221579e+00 6.0303291309420866e+00 1.7463693520725069e+01 0 0 -1
971 2 -1.2826664647683277e+00 6.5476573374310671e+00 1.5511572710937855e+01 2 0 1
365 2 8.3860754220108866e+00 1.0833566520241410e+01 6.8147927211920205e+00 0 0 2
427 1 4.8093927471354370e+00 6.9594660291294685e+00 5.0346787141857963e+00 -1 0 0
960 2 -5.8298933453417803e+00 7.0161291516778457e+00 1.7267485235256839e+01 0 0 -3
1943 2 1.4262975847959192e+00 6.7248573223998971e+00 1.3096536924084376e+01 -2 1 -3
44 2 3.9817684351615537e+00 3.8199211852898456e+00 5.6825041834253414e+00 -1 0 1
1993 1 2.2692656362726948e-01 8.7764259364606758e+00 8.1573717045294920e+00 1 1 -1
1114 1 4.7150274696522319e+00 4.9568822436683604e+00 6.6455267495571420e+00 0 0 1
870 2 6.6802797809259058e+00 4.3668338925199581e+00 1.6064244610176182e+01 1 0 0
871 1 4.0870412959879721e+00 9.0388573616567758e+00 2.7723265428621562e+00 -1 0 -1
105 2 1.2330244848272547e+00 1.1301266616295254e+00 4.0799234324157907e-01 0 0 1
181 1 8.0882465201427323e-01 9.2999031662331522e+00 1.2345931117449716e+01 0 0 0
514 1 6.0097702051402653e+00 9.0841411110104229e+00 1.4265322433705148e+01 -1 0 2
778 1 9.7018159408892544e+00 9.0823443943992856e+00 1.2261350714480885e+01 1 0 -1
428 2 4.9433530870175595e+00 6.6304112002683961e+00 4.0157881314296260e+00 -1 0 0
1093 1 1.3378190215782357e+00 2.2982775502494504e-01 1.7766326591982736e+01 -1 0 -1
56 2 7.5645952587178096e+00 5.4393085662892702e+00 1.3420366069233161e+01 -4 0 0
1466 2 5.0890364396023049e+00 8.1663351155624540e+00 1.7191681651796049e+01 1 1 -1
1385 2 1.0689241042372959e+01 5.3682616035198123e+00 3.7074515967272190e+00 -1 1 -2
380 2 4.5388358579059549e+00 5.9232398639688615e+00 8.8614779601384299e+00 -4 0 -1
1893 2 1.0738278042856315e+01 7.4665778487551675e+00 4.6316245786102783e+00 -2 1 1
904 1 1.5249085530313542e+01 1.6917265389367819e+00 5.0651218384215237e+00 -5 0 -1
580 1 1.2338908147294875e+01 2.9574708133475331e+00 9.4875486896910246e+00 0 0 2
909 2 -1.4221608209217056e+00 6.6614332099641667e+00 6.5743147336768448e+00 -2 0 -1
351 2 3.0417475537574763e+00 1.9493155808163212e+00 1.5057394533051951e+01 3 0 3
947 2 1.1452904712362260e+01 1.1034272775765066e+00 1.5028748948506536e+01 0 0 3
1934 2 1.5157351353215301e+01 2.9931580375838411e+00 3.7720662780570251e+00 0 1 2
1360 1 5.6495069694016600e+00 3.0832102516611242e+00 1.2005394597958738e+01 0 1 -2
719 2 9.1896504261335199e+00 6.8759199874579906e+00 1.4300468697799523e+01 1 0 -2
264 2 1.5260145916133916e+00 3.3220966522866404e+00 9.6361681697777204e+00 0 0 -1
1405 1 1.4547677717121754e+00 7.5753492929781308e+00 1.7937146465307240e+01 2 1 0
997 1 5.9581997037171996e+00 3.0763233819140976e+00 1.9006535327696930e+01 -4 0 0
1589 2 1.6541766467580871e+01 2.3004957747164209e-01 2.2827738234357793e+00 -2 0 -1
969 2 1.6060415228774289e+01 4.0030619053395036e+00 1.6357097182710609e-01 1 0 -1
341 2 3.5498850154894246e+00 1.1471813598138099e+00 1.9056488751630841e+01 -4 0 -2
491 2 1.0348627181883902e+01 6.7913377735522733e+00 1.8282804454153396e+01 2 0 1
70 1 -1.2095743321615977e+00 4.8795709569732955e+00 1.2885832809645759e+01 -2 0 1
1725 2 -4.6107243284672679e+00 6.2343855829022958e+00 1.5465896505040476e+01 -1 1 0
275 2 1.4597543744488432e+01 7.2305729368423011e+00 6.3608745360206065e-01 3 0 1
1629 2 5.2717051246169060e+00 8.2750207063895704e+00 8.8378182659653319e+00 -1 0 0
1967 2 8.8388272657253282e+00 2.4666566360962507e+00 1.5093966749440463e+01 0 1 -1
1894 1 1.8508992105808861e+00 5.5572292619929700e+00 7.3079845374124339e+00 1 1 0
1904 2 1.2843586042489569e+01 9.6973424855170123e+00 1.8192291443713662e+00 0 1 1
1914 2 1.6165869101411424e+01 1.4877651560334797e+00 4.8830331221896275e+00 -5 0 -1
379 1 4.6754961864634526e+00 5.2421628215225740e+00 9.5786707403021101e+00 -4 0 -1
294 2 1.3632332035309771e+01 5.8206528925351932e+00 2.9535616500647648e+00 -1 0 -5
720 2 1.0347510217541878e+01 6.4378913966437930e+00 1.3340006006189835e+01 1 0 -2
948 2 1.1933410636042918e+01 2.4007956222989160e+00 1.5884190418230846e+01 0 0 3
1349 2 2.8293551582760141e+00 9.6428596773605193e+00 6.5104107750571831e+00 -1 1 -1
917 2 -1.4170824870437611e+00 8.7061761853561528e+00 4.8735678950472785e+00 1 0 1
755 2 2.0484223347513444e+00 6.0448470511942007e+00 8.8653990927592907e-01 0 0 2
299 2 1.0736890914085148e+01 4.6432057525182771e+00 1.2306865429886228e+01 -3 0 -5
58 1 -5.0653376541600181e-02 1.0371121754149335e+01 1.4618103378860669e+01 -4 0 2
274 1 1.3903256899878292e+01 6.7562882608773016e+00 4.9066131987253049e-02 3 0 1
804 2 -2.4182320051695996e+00 7.8961160512926289e+00 1.8411996972680978e+01 -3 0 1
676 1 3.3326062947337700e+00 7.5464937755910810e-01 1.1019737110890969e+01 -1 0 -2
20 2 9.4676186823819020e+00 9.5035473459946544e+00 5.1987762525435093e+00 -5 0 -5
875 2 9.3351295364418103e+00 2.6352537883926370e+00 9.0427368657646561e+00 -2 0 1
271 1 -2.3927972396260735e+00 2.8391228673527640e+00 7.5597650175969866e+00 -1 0 -2
1363 1 3.6410961672868849e+00 3.1217312513265032e+00 1.6682615852242002e+01 0 1 0
1400 2 -3.0461133110275491e+00 2.7487797720242182e+00 1.1496095491665624e+01 -2 1 -2
711 2 1.5569046269961277e+01 9.0451729985598348e+00 1.3205062356670507e+00 -1 0 -2
1465 1 5.9035593376322515e+00 8.5874686263902884e+00 1.7467068764467879e+01 1 1 -1
242 2 6.1174711476613766e+00 3.2594522557286294e+00 4.1953554436801523e+00 2 0 -1
1878 2 -3.1559776340562440e+00 9.8585382961732364e+00 1.9074893123341077e+01 0 1 0
293 2 1.2516787689772732e+01 4.7639737097186057e+00 2.6616345264878194e+00 -1 0 -5
240 2 1.1845618976064234e+01 1.9359059130362728e+00 6.3910591588104708e+00 -2 0 -1
986 2 1.0789539119859075e+00 8.9483966955059326e+00 7.7351879311997314e+00 1 0 -1
462 2 7.6674147863185054e+00 3.2765218810048635e+00 7.2489517492719253e+00 -2 0 -1
355 1 6.3946474929433315e+00 1.0877117078379301e+01 1.6121971356373807e-01 -4 0 -1
853 1 1.5204900027424960e+01 8.8995734010821015e-01 1.3468205153137935e+00 -2 0 -2
1876 1 3.7908776186001591e+00 1.0624006676588337e+01 6.0672189473142568e-01 0 1 1
512 2 -8.7016130985188744e-01 4.7411293128400365e+00 5.7346221328133424e+00 0 0 -1
754 1 2.0260514623330157e+00 5.3475824098665905e+00 1.9496085071658240e-01 0 0 2
802 1 -2.9856697318605039e+00 8.5188019498287364e+00 1.7866673307498282e+01 -3 0 1
1634 2 9.8433147788834923e+00 5.0988911315489061e+00 1.4185120152353695e-01 -1 0 -2
743 2 2.9707599035559173e+00 7.0576255050358885e+00 1.6975841874103157e+01 0 0 -1
330 2 -2.2603850801075502e+00 1.0093510560508072e+01 8.0248717183548415e+00 -1 0 0
174 2 1.4274786662315300e+01 4.0523216257838932e+00 6.7774731408465874e+00 2 0 -2
188 2 -4.3480504695705680e-01 9.6664672056861072e+00 1.6036369298431854e+01 -7 0 -6
1348 1 2.6592307754513262e+00 9.1114580751733865e+00 7.2790808722212015e+00 -1 1 -1
412 1 -9.3167399535071382e-01 5.2580726788228906e+00 1.6828024102487291e+01 3 0 0
707 2 7.8494892337791482e+00 6.0485697964977208e+00 5.7002695001534951e+00 1 0 -2
662 2 4.5213637013984487e-01 1.0396610830114822e+01 6.0910186459092737e+00 -2 0 0
443 2 8.8361781229204155e+00 2.0215182801780056e+00 1.7372825219201779e+01 3 0 1
482 2 1.2252082463480320e+01 1.0024292966546145e+01 5.6091823672583461e+00 0 0 1
361 1 4.0163979605065037e-01 9.1692725875544401e+00 4.8049173009942345e+00 0 0 -2
718 1 1.0181245373682673e+01 6.7109454213376489e+00 1.4297873311859540e+01 1 0 -2
865 1 -2.6080716693735537e+00 9.4053403746429467e+00 9.3970543699465203e+00 -2 0 -1
59 2 -6.8788788963808578e-01 1.0956182537038679e+01 1.4050864552920766e+01 -4 0 2
564 2 3.7209376446901379e+00 3.9635283874426013e+00 9.5538842927154537e+00 -2 0 0
855 2 1.4976453673922212e+01 1.5148671448129433e-01 6.4724573957813336e-01 -2 0 -3
429 2 5.2436712768061966e+00 7.8249478589666905e+00 5.0692029861250640e+00 -1 0 0
1159 1 -3.2795918022333419e+00 1.6543489616373173e+00 1.4602798196908774e+01 -1 0 1
290 2 -1.3534969743688547e+00 1.5614346988899082e+00 1.7059927130929591e+01 2 0 4
1364 2 2.9524249522536321e+00 3.8065113247146316e+00 1.6548606489799202e+01 0 1 1
1239 2 5.8455786647592953e+00 7.2719798746705342e+00 4.6170357422135694e-01 -2 1 1
756 2 -4.7220054428862266e+00 5.7673639678212734e+00 1.8434350803527593e+01 0 0 1
474 2 4.3490805850301584e-01 6.9726029401278078e+00 2.6898112847374982e+00 0 0 0
300 2 9.2830255777111255e+00 5.0479322830345481e+00 1.2189211982527810e+01 -3 0 -5
263 2 5.6010560672610721e-01 2.6834117759927225e+00 1.0690125848902310e+01 0 0 -1
272 2 -2.6253956504296925e+00 2.8081213197506911e+00 8.5529517275316298e+00 -1 0 -2
1401 2 -2.4098733880313663e+00 3.7452510197539888e+00 1.2436097319586372e+01 -2 1 -2
46 1 1.7040913803500541e+01 5.2982431385159545e+00 4.4880083419954131e-01 -4 0 1
710 2 1.6094950459968352e+01 7.7957993392831835e+00 2.1082004756688990e+00 -1 0 -2
1744 1 3.4426506694719659e+00 1.0330232410151515e+01 4.9805646539071695e+00 0 1 1
221 2 -3.5574225720849908e+00 9.6146035941388419e+00 1.2781179068461789e+01 -1 0 -3
1852 1 6.2888024469787105e+00 1.7909761723416702e+00 9.5938691174822761e+00 -1 1 0
685 1 6.0543150768917826e+00 9.2346986883983284e+00 9.8693371467320947e+00 -3 0 1
328 1 -2.2619296573245902e+00 1.0552390903992448e+01 7.1218533542386746e+00 -1 0 0
1428 2 -1.5195724444153798e+00 8.3189385147483055e+00 1.0200842164858404e+01 0 1 -1
1584 2 8.7237277179398287e+00 7.9640377502428397e+00 7.6713330683496777e+00 1 0 -1
472 1 -5.0419547349899663e-01 6.6702154799989817e+00 2.7642326876614347e+00 0 0 0
5 2 1.1624555373788739e+01 7.7158892215587178e+00 1.7396979141078706e+00 0 0 1
82 1 1.2163866908270721e+01 8.5365717543150019e+00 1.0854645980692135e+01 0 0 0
581 2 1.1468805167624907e+01 3.3482755309795555e+00 9.3691050532104576e+00 0 0 2
1484 2 -2.5175077238481713e+00 8.1787990298623061e+00 1.4596047242098935e+01 0 1 -1
962 2 1.0642373923856091e+01 1.5232356549189907e+00 1.2130486759007047e+01 -4 0 -1
119 2 9.1065232592754075e+00 2.5919567350369608e+00 1.4523814170582305e+00 1 0 0
500 2 -3.1085965994040348e+00 4.9514012307549136e+00 9.9101001705983069e+00 1 0 0
606 2 1.7600306428052968e+00 6.3234336271325304e+00 4.3344817133957241e+00 2 0 4
311 2 8.4660784276922136e+00 9.4572687183107220e+00 1.5950796715665033e+01 1 0 -4
563 2 3.4742998866372079e+00 2.6965920930270868e+00 8.7307729699241747e+00 -2 0 0
967 1 8.9337436919893829e+00 3.1696878398268358e+00 1.8916532583728099e+01 1 0 -2
1138 1 6.6714597704641339e+00 1.0672080327442535e+01 7.7267181471080839e+00 0 0 0
1351 1 7.5663578264700080e+00 5.4250358548717754e+00 9.5421402322549138e+00 -2 1 -1
1319 2 7.1307513119260069e-01 4.7891046920743703e+00 1.6309261432678287e+01 0 1 0
1353 2 8.3431706280518121e+00 4.8810968470023202e+00 9.3475463041610194e+00 -2 1 -1
844 1 1.1480058020392656e+00 5.5851601276833955e+00 1.1769547567354463e+01 2 0 2
1350 2 2.8311093084777084e+00 9.7602671222634445e+00 8.0179404084520698e+00 -1 1 -1
868 1 5.9182718830451755e+00 3.9858793895958127e+00 1.5571087876545192e+01 1 0 0
1334 2 1.2477470010393265e+01 2.2405500146970505e+00 1.4853606497934457e+00 4 1 2
524 2 -6.6034483735370753e+00 8.6565419285711442e+00 1.8934411231798055e+01 -2 0 -5
383 2 4.1747398765703805e+00 6.0070781702157836e+00 1.4903757602181654e+01 1 0 0
1926 2 -4.3921631862241188e+00 1.0643911210486031e+01 1.6644779931747884e+01 0 1 0
1260 2 5.2972023787211162e+00 1.2337827184949990e+00 2.3368237440460247e+00 -2 1 -1
1241 2 2.6320351123246271e+00 2.9336426414351098e+00 1.3134608138726646e+01 1 1 0
578 2 3.2999545402115276e+00 9.8424089662846299e+00 1.6141408985191230e+01 0 0 0
879 2 1.3609556019155308e+01 6.6911779224834076e+00 8.4770754131082189e+00 -3 0 2
748 1 1.1839404125586691e+01 9.1399215193421579e+00 7.1983297670132051e+00 -1 0 4
183 2 6.3002523224243134e-01 9.9352944052439209e+00 1.1536681513847844e+01 0 0 0
915 2 1.7525388662067236e+00 6.4435748367098187e+00 8.6494501013007152e+00 2 0 2
742 1 3.9229372063680392e+00 6.7544479252545484e+00 1.6808786230737539e+01 0 0 -1
72 2 -3.7823442207024716e-01 5.0543124769811758e+00 1.2401437017920232e+01 -2 0 1
329 2 -1.3561464595086350e+00 1.0936955074366507e+01 7.0936538633113813e+00 -1 0 0
1850 2 7.5779538687316332e+00 4.4324184968996025e+00 1.0886995364501798e-01 -2 1 -1
1635 2 1.1012636806531976e+01 6.0376143288671154e+00 5.9621431263104407e-01 -1 0 -2
918 2 1.5553458430393174e+01 9.3721172612471246e+00 5.6774030979467458e+00 0 0 1
117 2 1.5859301085261504e+00 8.3173304554272125e+00 1.3457183526751331e+00 -3 0 -4
907 1 -1.5149909781174760e+00 6.8746936041821352e+00 7.5143528405550271e+00 -2 0 -1
1361 2 4.7584191061642649e+00 3.4901097771386373e+00 1.2001673251255765e+01 0 1 -1
750 2 1.2433377970964589e+01 8.4223767045561218e+00 7.4376755838773700e+00 -1 0 4
807 2 -9.7125130640781343e-01 6.0612290107522098e+00 1.0279261191311067e+01 -3 0 1
158 2 7.3722548058433874e+00 1.3615952986049726e+00 4.9006950322136813e+00 -5 0 -3
959 2 -4.2542901639205333e+00 7.4492424500335161e+00 1.7198905657849878e+01 0 0 -3
919 1 1.2793232669621025e+01 1.0821623892129926e+01 3.7127034497967476e-01 2 0 -1
262 1 5.6302363869032668e-01 3.1661752416555924e+00 9.8145016203072029e+00 0 0 -1
169 1 6.4682881884260421e+00 9.0185808191739749e+00 5.3817802270695863e+00 0 0 1
1828 1 6.5296081499341740e+00 8.1863820226961614e+00 1.6649118331370893e+00 0 1 1
874 1 9.6402185038117487e+00 3.3980487303210043e+00 9.5996059084275771e+00 -2 0 1
643 1 1.2095733961182248e+01 4.0787516765108673e+00 1.3079400055587033e+01 -5 0 -5
350 2 3.8153441689498075e+00 1.2255476246296266e+00 1.4027204464792925e+01 3 0 3
796 1 3.2818663843039015e+00 9.0205107118052759e+00 1.4639254900009831e+01 -1 0 0
525 2 -5.4352524078487345e+00 9.5857685142940543e+00 1.8334340983475627e+01 -2 0 -5
1352 2 6.7989107341542150e+00 4.8373198899516181e+00 9.6672488370126359e+00 -2 1 -1
187 1 -5.1460803557020540e-01 9.3593061708379022e+00 1.6958750742345764e+01 -7 0 -7
461 2 6.6674448136775100e+00 2.5857555609026419e+00 8.2993089991579403e+00 -2 0 -1
19 1 9.4686009553122386e+00 8.7287243634879790e+00 4.6239428646392584e+00 -5 0 -5
40 1 4.7035513135111708e+00 5.8392091959863164e+00 2.5770281891480327e+00 -1 0 4
414 2 -1.2302994509405547e+00 5.6230080761196035e+00 1.7655620785314824e+01 3 0 0
694 1 2.8097639964484680e+00 1.0696614134320637e+01 9.5651271445921253e+00 -1 0 0
1627 1 4.7628525627536131e+00 7.7502383657902350e+00 8.2046753451875905e+00 -1 0 0
340 1 3.0790179691127406e+00 1.9599855096127685e+00 1.8813389539642849e+01 -4 0 -2
974 2 5.8729035548470998e-01 2.6882215907001421e+00 1.8196707605108999e+00 -1 0 0
803 2 -2.2537138502866494e+00 8.9227999640202267e+00 1.7434525603531377e+01 -3 0 1
497 2 8.5875908750776233e+00 7.3024868351083605e-01 1.1713380224177385e+01 3 0 2
1258 1 6.0825822497473467e+00 9.8974630782087014e-01 1.8327976084541349e+00 -2 1 0
805 1 -1.1388864182308098e+00 5.2765835540070016e+00 9.6551170357370957e+00 -3 0 1
6 2 1.0593479079301988e+01 8.2663501026043242e+00 6.9239547723677397e-01 0 0 1
83 2 1.2927146144008280e+01 8.2929093315248785e+00 1.1367807296195091e+01 0 0 -1
746 2 7.0719434605898206e+00 7.5581624382604886e+00 1.4297611447735363e+01 -4 0 -1
118 1 8.7915296698817862e+00 2.9740352196585431e+00 2.3048956087909076e+00 1 0 0
537 2 1.5006149684852994e+00 4.4541212663422955e+00 2.8061559586901574e+00 0 0 4
57 2 8.0698880708157432e+00 4.0077139015147054e+00 1.3523831095113762e+01 -4 0 0
1895 2 2.8061417450785928e+00 5.4445196485911174e+00 7.2649376830574592e+00 1 1 0
1441 1 9.4750620096208014e+00 1.0513167342880022e+01 1.0025339159564041e+01 0 1 0
317 2 1.1325833691577257e+01 5.9460218266383773e+00 6.7127329047169599e+00 0 0 0
129 2 3.4915609846784283e+00 2.4653265975814689e+00 1.8674944783795937e+00 -4 0 0
913 1 1.5166624317495718e+00 6.9402887499418586e+00 9.5073776988145511e+00 2 0 2
780 2 9.3852185155202577e+00 9.6413441332506249e+00 1.1483199885018875e+01 1 0 -2
231 2 1.1365734452163881e+01 7.0957479863772548e+00 1.0156865884475360e+01 2 0 -1
958 1 -4.9231210083298418e+00 6.6941288850624137e+00 1.7062558566158174e+01 0 0 -3
605 2 2.7772646503363090e+00 7.2644348774202285e+00 5.1841988652173230e+00 2 0 4
1343 2 1.8833744800912511e-01 2.7918080974149286e+00 6.1691220888574465e+00 0 1 0
501 2 1.3883179988861146e+01 5.6758182470631713e+00 1.0690413242178339e+01 0 0 0
182 2 1.7287789214117879e+00 8.9936609458184584e+00 1.2117870421420985e+01 0 0 0
1249 1 1.0415322288441134e+01 4.8204099683567811e+00 1.6068405629210226e+01 -1 1 -1
1548 2 1.2741041651137111e+01 3.4891749628097513e+00 5.3545936373920169e+00 1 0 1
653 2 3.6797223033019675e+00 7.9240658566855231e+00 1.1702930631225930e+01 0 0 1
116 2 2.7674803122313478e+00 8.0280658401375007e+00 2.3194261653979447e+00 -3 0 -4
999 2 1.1992797272627428e+01 3.8045194052174427e+00 1.5883017372423154e-02 -4 0 1
745 1 7.4675414344310989e+00 6.6803168191183175e+00 1.4502260349598160e+01 -4 0 -1
238 1 1.1779353503797005e+01 1.5162186735520251e+00 7.2753106077815870e+00 -2 0 -1
527 2 3.5501167554050350e+00 6.8927484759972391e-01 7.5273514272918307e+00 -2 0 -3
526 1 2.9450996846258044e+00 1.3204402198948755e+00 7.0811383000815074e+00 -2 0 -3
1335 2 1.2547565219391679e+01 2.2096499634152935e+00 3.1114177260899232e+00 4 1 2
523 1 8.0969142434763552e-01 9.2978888272740683e+00 8.6563165124775868e-02 -2 0 -4
1116 2 5.4462099927664482e+00 4.5476234394818693e+00 7.0620155418055299e+00 0 0 1
1925 2 -5.5592510400324384e+00 9.6971414206978732e+00 1.5984377206681803e+01 0 1 0
45 2 3.1263941144463234e+00 2.4732183089959534e+00 5.6286892966587638e+00 -1 0 1
1426 1 -1.2532092285768495e+00 7.8564510071616436e+00 1.1046101503153544e+01 0 1 -2
1342 1 -5.4875467309805082e-03 3.5795336586566724e+00 6.7038193069402681e+00 0 1 1
1462 1 3.6405315537364311e+00 3.1667415862288246e+00 4.1906939631327156e-01 0 1 -3