LAMMPS data file via write_data, version 3 Mar 2020, timestep = 1000000

1008 atoms
2 atom types

2.1532748982022376e-01 1.8184227510173820e+01 xlo xhi
3.2380851672186850e-02 2.2538008148317818e+01 ylo yhi
1.9197917429962352e-01 1.9313736825693759e+01 zlo zhi
6.4312900544168911e-02 -6.6803470806907583e+00 -7.3817768224226005e-02 xy xz yz

Masses

1 16
2 2

Atoms # atomic

1 1 6.7758776410783526e+00 1.3071732431935170e+00 4.7712077783335998e+00 0 0 0
19 1 1.1937142389508140e+00 2.5582709583052994e+00 1.9965790351375312e-01 0 0 0
3 2 6.5118047200005869e+00 1.6788678321391699e+00 3.9258244431385063e+00 0 0 0
4 1 4.0598314466781877e+00 8.5257083946844769e-01 4.9469847304141137e+00 0 0 0
5 2 5.0438847397083375e+00 7.4461172339624793e-01 4.8071523378389385e+00 0 0 0
6 2 4.0087140619515278e+00 1.2626773156418154e+00 5.8002897256434451e+00 0 0 0
7 1 -3.8214240818919665e-01 6.6934979815544260e+00 5.0323715181846556e+00 0 0 0
8 2 -3.6977043795477438e-01 6.3786252600722904e+00 5.9545915120651971e+00 0 0 0
9 2 -9.5822073346720193e-01 7.4561050363478323e+00 5.0323511596398447e+00 0 0 0
10 1 2.2098375886344268e+00 6.3128860076339963e+00 4.8944666212241099e+00 0 0 0
11 2 1.2260877833249357e+00 6.4612696753583716e+00 5.0107401983885138e+00 0 0 0
12 2 2.6276429271851178e+00 7.2234612156891442e+00 4.9776647541113741e+00 0 0 0
187 1 9.6871724737362286e-01 1.0056482427075540e+01 2.5283503957192721e-01 0 0 0
14 2 5.2955696956528477e+00 5.3995346173227183e+00 8.6701797910482483e+00 0 0 0
222 2 2.8519170091220163e+00 1.1135405729726633e+01 3.1462548594656363e+00 0 0 0
305 2 1.2091807049254859e+01 1.1099615182607357e+01 3.0575338581324485e+00 0 0 0
18 2 5.3250997574060950e+00 5.4054315582877477e+00 9.7341226803527825e-01 0 0 0
24 2 -3.1598377455828164e-01 2.5620464592760932e+00 9.6026766564683079e+00 0 0 0
254 2 1.5768507820886407e+01 9.5239665343545834e+00 5.4331438765673230e+00 0 0 0
21 2 1.2051944117524773e+00 2.0770392450562531e+00 1.0296025041536503e+00 0 0 0
221 2 4.4326063969480289e+00 1.0746313090199330e+01 2.8820854284174864e+00 0 0 0
778 1 1.2979832859982412e+01 1.0100099798003802e+01 2.2032132369071100e-01 0 0 1
156 2 1.2149233289494184e+01 9.5733504979672579e-01 2.3108642710053511e+00 0 0 0
25 1 4.7922169236865306e+00 6.5169019628691354e+00 7.0562048282439340e+00 0 0 0
26 2 5.4300995826615743e+00 7.2245428552998554e+00 7.2597192951679528e+00 0 0 0
27 2 3.8259428499244699e+00 6.7204594380224840e+00 7.2259860657335118e+00 0 0 0
28 1 5.7006083146789441e+00 6.4104631598815507e+00 2.3134353862183112e+00 0 0 0
29 2 5.6964897735525675e+00 6.2703439685593834e+00 3.2979797712330798e+00 0 0 0
30 2 5.0931004137210527e+00 7.2111605508780556e+00 2.1602415772662642e+00 0 0 0
31 1 1.5937029622880958e+00 1.2743230086899884e+00 2.4767532873776745e+00 0 0 0
32 2 2.5481821060921717e+00 1.0085633392310269e+00 2.4186431346657220e+00 0 0 0
33 2 1.4287632165302770e+00 1.3844258052043930e+00 3.4466568130829880e+00 0 0 0
34 1 3.3448370881255185e-01 8.3084921784560950e-01 7.1969311632719641e+00 0 0 0
35 2 -5.8806877553353121e-01 5.0105488560972988e-01 7.3711553433304013e+00 0 0 0
36 2 5.1374955229332642e-01 1.5742963550820479e+00 7.8404816693629522e+00 0 0 0
37 1 6.4404378183034980e+00 2.6558967496528449e+00 2.4110639488379779e+00 0 0 0
38 2 5.5769120321062440e+00 3.0647777262439577e+00 2.4541293481377675e+00 0 0 0
39 2 7.1783293437458289e+00 3.2820703129822104e+00 2.5850591060249410e+00 0 0 0
40 1 4.1903381479773207e+00 2.4834232784833179e+00 7.3209113007407369e+00 0 0 0
41 2 5.0141003135127153e+00 2.9868707116570303e+00 7.0591866829438361e+00 0 0 0
42 2 3.4509981009252360e+00 3.0618165997312015e+00 7.0415872808245092e+00 0 0 0
43 1 -1.0944689837263777e-01 4.9825796728169491e+00 7.2415172287392187e+00 0 0 0
44 2 -8.3345590669771874e-01 4.3322017137558273e+00 6.9629630561753295e+00 0 0 0
45 2 -2.2374526714908027e-01 5.4464260450015214e+00 8.0752222009130143e+00 0 0 0
46 1 2.1322424618434401e+00 4.7621596953464715e+00 2.5802466606085157e+00 0 0 0
47 2 1.2059652893322554e+00 4.5868327686464427e+00 2.4753341676370373e+00 0 0 0
48 2 2.1253656359067503e+00 5.3206641096242873e+00 3.3748604402834625e+00 0 0 0
49 1 6.6223399258992206e+00 3.3694422000879731e+00 6.4032974233191418e+00 0 0 0
50 2 6.3858002649975258e+00 4.0602639773731788e+00 5.7361510230011277e+00 0 0 0
51 2 6.9109572311322998e+00 2.5753029569645252e+00 5.8406425468641805e+00 0 0 0
52 1 4.1245639883887186e+00 3.2885189955835537e+00 3.3503777737090292e+00 0 0 0
53 2 3.3155574783148118e+00 3.6028610726325927e+00 2.8540034017089106e+00 0 0 0
54 2 3.9127864193924378e+00 2.4147694193456317e+00 3.7793546741857025e+00 0 0 0
55 1 -6.9918111847488973e-01 4.1189094594102960e+00 3.6542530153062072e+00 0 0 0
56 2 -5.8668655262002822e-01 5.0331184910260545e+00 3.9149225238761893e+00 0 0 0
57 2 -3.5217430854897402e-01 3.4198263606658821e+00 4.1855210694938005e+00 0 0 0
58 1 2.2907334445491863e+00 4.1145983309800309e+00 6.3452234518775832e+00 0 0 0
59 2 2.6815091794815356e+00 4.9435133881110227e+00 6.0186000881441855e+00 0 0 0
60 2 1.4899364185160473e+00 4.3679483566203157e+00 6.8045525441367714e+00 0 0 0
61 1 8.3442887763199263e+00 7.3440464366454830e+00 1.4578690044696252e+00 0 0 0
62 2 7.5313970398677528e+00 6.9391891761504256e+00 1.7386924449024872e+00 0 0 0
63 2 8.7213300945219370e+00 6.6777686558397962e+00 8.9688114591182766e-01 0 0 0
64 1 2.4502684496217988e+00 6.9997638716063157e+00 8.1871329475862176e+00 0 0 0
65 2 1.6222712009349496e+00 7.4650429120094142e+00 7.9133348823596057e+00 0 0 0
66 2 2.7563193278737943e+00 7.5132057730372264e+00 8.9127940032111486e+00 0 0 0
587 2 -1.4941928060082250e+00 6.6239919363008148e+00 9.1167925177557141e+00 0 0 0
68 2 -2.5360727243400065e+00 1.1944602607356332e+00 8.5199083005980949e+00 0 0 0
209 2 3.6997840753314297e+00 1.0895230781494796e+01 7.4436920866880429e+00 0 0 0
72 2 4.1305983259319259e+00 1.1409098052717117e+00 1.1715976176303662e+00 0 0 0
73 1 5.7236806617921427e+00 5.3176155049410516e+00 4.7490786739884339e+00 0 0 0
74 2 5.2990035734892125e+00 5.8668516348806010e+00 5.4857059360944573e+00 0 0 0
75 2 4.9529016577579217e+00 4.8390722533157593e+00 4.3433385060427314e+00 0 0 0
76 1 9.0544505610153281e-01 2.2094236580979389e+00 4.8791600753655748e+00 0 0 0
77 2 6.3376923013744313e-01 1.6744471065296829e+00 5.6742102557349634e+00 0 0 0
78 2 1.5686373375670337e+00 2.8379104439263640e+00 5.3064722563653799e+00 0 0 0
80 2 6.8357598549204495e+00 2.1349690382581019e+00 8.9617573379911197e-01 0 0 0
67 1 -2.3871954857793880e+00 3.5525453540686330e-01 8.0851077722300406e+00 0 0 0
154 1 1.2960459144650684e+01 6.6531674204785052e-01 1.9045517605286244e+00 0 0 0
85 1 1.5299848321574906e+01 1.0178523985254815e+00 4.6900233317834168e+00 0 0 0
87 2 1.5328747012768655e+01 1.3868755848411234e+00 3.7755282127701362e+00 0 0 0
88 1 1.2859755989905080e+01 1.2279318498659395e+00 5.6174978352335891e+00 0 0 0
89 2 1.2682376916337061e+01 1.9883666962419670e+00 4.9978200454196999e+00 0 0 0
90 2 1.3777353187293137e+01 9.6311470386613474e-01 5.2123608993445618e+00 0 0 0
91 1 8.2467154246229111e+00 6.6760152436702347e+00 4.9913365887368313e+00 0 0 0
92 2 7.9453726426667268e+00 6.0139282641541012e+00 4.3394522311279644e+00 0 0 0
93 2 9.1871472893316106e+00 6.8224520918339540e+00 4.7993323530444236e+00 0 0 0
94 1 1.1156191102091814e+01 6.5416216456439837e+00 4.7033734906380547e+00 0 0 0
95 2 1.1725068235744047e+01 7.1310620762287815e+00 5.2325587325990970e+00 0 0 0
96 2 1.1195810581073635e+01 5.8015140545749819e+00 5.3303317264960288e+00 0 0 0
668 2 1.2859802006307669e+01 1.8326421165965221e+00 8.9613094743067538e+00 0 0 0
146 2 1.7668437129507645e+01 5.6769494129199627e+00 1.3452529788537688e+00 0 0 0
667 1 1.2806785068110461e+01 1.2042564074588786e+00 9.7239027799086628e+00 0 0 0
101 2 1.4750255396927184e+01 5.0412396265861572e+00 1.2008437640532352e+00 0 0 0
518 2 7.1568097828838351e+00 4.6117146791710875e+00 2.3789700243011569e-01 0 0 0
304 1 1.2672202822017915e+01 1.0426685776783915e+01 3.4307466517810714e+00 0 0 0
399 2 7.9742651360079035e+00 2.3857717800588174e-01 1.1260576201831372e+00 0 0 0
117 2 9.6350147827034416e+00 5.4951651694781101e-01 2.2888994347517775e+00 0 0 0
109 1 1.3765262266954020e+01 6.5092959905691075e+00 7.4829854691824966e+00 0 0 0
110 2 1.3704350943642261e+01 5.7157381418655824e+00 8.0881107786964392e+00 0 0 0
111 2 1.2973573399261612e+01 7.0043725777278993e+00 7.6842044165906414e+00 0 0 0
112 1 1.5127954962166651e+01 6.0583762773787253e+00 2.5248499575428958e+00 0 0 0
113 2 1.4657478468607419e+01 6.9342965256710301e+00 2.4668290000448465e+00 0 0 0
114 2 1.6108066497628307e+01 6.2800578153077318e+00 2.2801901387143078e+00 0 0 0
115 1 1.0359984626299584e+01 1.2258118004233782e+00 2.4510220529746181e+00 0 0 0
116 2 1.0183457946188300e+01 1.8059789274443347e+00 1.7144855845336733e+00 0 0 0
606 2 1.0871318260788765e+01 4.1577289441564833e+00 9.6984786673883878e+00 0 0 0
118 1 9.4523332407482012e+00 1.2758397964675678e+00 7.3170899345868063e+00 0 0 0
119 2 9.4217329133948429e+00 1.9740493836534418e+00 7.9858398865271178e+00 0 0 0
120 2 9.3978950042112199e+00 1.7043144690847878e+00 6.4415187835307721e+00 0 0 0
121 1 1.5238102702097910e+01 2.3721384877022822e+00 2.3491588237322034e+00 0 0 0
122 2 1.5988566170731932e+01 2.9870863387279813e+00 2.5808063498200009e+00 0 0 0
123 2 1.5400577099865265e+01 2.2068318211259008e+00 1.4237172207260815e+00 0 0 0
124 1 1.3167866668504351e+01 2.8946690853489381e+00 7.7714778576389376e+00 0 0 0
125 2 1.4063908147205543e+01 3.2002440579755347e+00 7.7984887595052435e+00 0 0 0
126 2 1.3160674157053570e+01 2.2182252307714343e+00 7.0694825346100538e+00 0 0 0
127 1 8.7155305086023080e+00 4.9385038666804659e+00 7.1818872401201279e+00 0 0 0
128 2 8.1180845304932916e+00 4.2142982874114567e+00 6.9523529954053576e+00 0 0 0
129 2 8.4584486006264772e+00 5.6016882651397983e+00 6.4773404802974666e+00 0 0 0
130 1 1.0826548582002671e+01 5.0446802905479808e+00 2.5813497911261294e+00 0 0 0
131 2 1.1637583633603775e+01 4.4098656457830980e+00 2.7995383591682654e+00 0 0 0
132 2 1.0942005251719038e+01 5.7852141608821341e+00 3.1810567017574685e+00 0 0 0
134 2 1.5268670224351254e+01 4.1955810611472328e+00 6.1167906251266437e+00 0 0 0
136 1 1.2813131185229555e+01 3.2558209803699736e+00 3.6709956512686510e+00 0 0 0
137 2 1.3318952020193716e+01 3.9534382973361222e+00 4.1725563356384141e+00 0 0 0
138 2 1.3474089378429721e+01 2.8641018760810444e+00 3.0843264571492512e+00 0 0 0
139 1 8.3495866793717273e+00 4.5203359358789719e+00 3.3327003619505571e+00 0 0 0
140 2 9.1099494062522250e+00 4.7810005253654264e+00 2.7424220100920418e+00 0 0 0
141 2 8.7755409950175594e+00 3.9061872625171299e+00 3.9158364806863992e+00 0 0 0
142 1 1.1107210774375311e+01 4.2860924392717878e+00 6.2741176769388121e+00 0 0 0
143 2 1.1725216312197615e+01 4.1569772384731349e+00 7.0170261274391139e+00 0 0 0
144 2 1.0300183236663916e+01 4.4155870103600359e+00 6.7045566179354532e+00 0 0 0
147 2 1.7382079874131328e+01 7.2443884141018620e+00 1.2167592582475171e+00 0 0 0
148 1 1.1271244872850518e+01 7.4812186151787730e+00 8.2899053179004127e+00 0 0 0
149 2 1.1121500787468678e+01 6.6924327631754750e+00 8.8714397536234895e+00 0 0 0
150 2 1.1736073838423899e+01 8.0634484584446238e+00 8.9132753486801359e+00 0 0 0
86 2 1.6015782814248798e+01 3.2637382253872776e-01 4.7990839072600124e+00 0 0 0
293 2 1.2684493797370800e+01 1.0689012140670329e+01 7.4384625850138608e+00 0 0 0
153 2 6.4450338556972824e+00 1.2291087175574322e+00 8.4011322412285558e+00 0 0 0
220 1 3.7208862712734700e+00 1.0931602752923212e+01 3.5608808186572598e+00 0 0 0
155 2 1.3229864624269021e+01 1.3001535690909929e+00 1.2478952695784051e+00 0 0 0
311 2 1.0887628973872353e+01 1.0878056955034747e+01 6.0267694769982398e+00 0 0 0
157 1 1.4461808569907484e+01 5.2986800141180561e+00 4.9149273747075384e+00 0 0 0
158 2 1.4731851807057099e+01 5.5141664792759935e+00 3.9897092591230749e+00 0 0 0
159 2 1.4212115164822027e+01 6.1275347022081164e+00 5.3319397429509898e+00 0 0 0
160 1 9.6599719755247602e+00 2.4841367682138245e+00 4.9405333471272295e+00 0 0 0
161 2 1.0460160240784266e+01 2.8975292116766314e+00 5.2619263662241442e+00 0 0 0
162 2 9.9699884073475111e+00 1.9071738302738148e+00 4.1776337007874593e+00 0 0 0
671 2 8.4100956074144637e+00 5.7545483164689433e+00 8.6411972960307981e+00 0 0 0
97 1 1.4061397522278066e+01 4.8836943926787537e+00 9.7244530407657486e+00 0 0 0
584 2 2.7851601136386739e+00 7.1328611836678157e-01 9.3911402688285825e+00 0 0 0
169 1 6.4245233056717241e+00 8.6242868147173510e+00 4.8055241861228586e+00 0 0 0
170 2 7.1077615320495671e+00 7.8663001490289730e+00 4.9016860584243735e+00 0 0 0
171 2 6.8998279516489180e+00 9.3548202811571208e+00 5.2078239516069216e+00 0 0 0
172 1 3.7091767753325864e+00 8.6889499760666133e+00 5.2576170083862355e+00 0 0 0
173 2 3.4868669061450701e+00 9.3496310293451312e+00 4.5762713663874628e+00 0 0 0
174 2 4.6330896421397734e+00 8.3564013849048795e+00 5.0566434080321772e+00 0 0 0
15 2 4.0893148290663177e+00 4.5618243510875249e+00 9.2409822534428407e+00 0 0 0
237 2 1.4929233232016685e+01 7.6803173250527896e+00 7.9823995951692703e+00 0 0 0
247 1 6.7758860619483814e+00 9.2060310199921709e+00 2.2691419233821816e-01 0 0 0
192 2 6.9350065531530714e-01 9.9372419796930007e+00 8.9654431833484569e+00 0 0 0
199 1 1.3370467960662857e+00 8.9192302883143046e+00 2.6143031182038414e+00 0 0 0
200 2 1.0726891774614495e+00 9.5216363550569127e+00 1.7843442107063241e+00 0 0 0
201 2 7.5510091945280922e-01 8.1440579028489193e+00 2.6858803389501986e+00 0 0 0
202 1 4.2922033485498234e-01 8.9558967116745407e+00 7.5677957436017502e+00 0 0 0
203 2 -3.8263154096248808e-01 8.4840910796317957e+00 7.6957868359130970e+00 0 0 0
204 2 4.8287449325130494e-01 9.1641841699376698e+00 6.6262899451304778e+00 0 0 0
205 1 6.1197199932362834e+00 1.0622683243447916e+01 2.4845436136737638e+00 0 0 0
206 2 6.4728014422123428e+00 9.9373725611278783e+00 3.0797104274648968e+00 0 0 0
207 2 6.2639885243489379e+00 1.0253545951980469e+01 1.5662559822513749e+00 0 0 0
208 1 4.3907898732160096e+00 1.0182129166784446e+01 7.5934627406747834e+00 0 0 0
167 2 1.1313158506314808e+01 5.6700837333561402e+00 1.0034996474083846e+00 0 0 0
210 2 4.2166409730874950e+00 9.5835148309906231e+00 6.8596005883356312e+00 0 0 0
23 2 9.6413968614982748e-01 3.3933903219436128e+00 9.5607379116636455e+00 0 0 0
248 2 7.5678535271279186e+00 8.7299588425287986e+00 5.4261606992019618e-01 0 0 0
69 2 1.4742869198037393e+01 6.8731980032547504e-02 7.6487646991180185e+00 0 0 0
219 2 6.1230695334261611e+00 1.0882264888427372e+01 6.7098116956258185e+00 0 0 0
780 2 1.2756661229102336e+01 9.3174919601937951e+00 8.1063732634551589e-01 0 0 0
235 1 -2.2014846521994818e+00 7.9025704576015139e+00 8.3981921300679474e+00 0 0 0
236 2 -2.2347187058659221e+00 8.7836063473700463e+00 8.8617308546537217e+00 0 0 0
238 1 3.8892228048701001e+00 8.2656507240159662e+00 1.8674511691239557e+00 0 0 0
239 2 3.0457047058449813e+00 8.5250505921985358e+00 2.2810466569713816e+00 0 0 0
240 2 4.1175364934074681e+00 9.0142469496641251e+00 1.2838025369233110e+00 0 0 0
244 1 7.0568959523333685e-01 9.9694794062562302e+00 5.1902703401165100e+00 0 0 0
245 2 1.2205382837049779e+00 9.4509359007892986e+00 4.4631005811821858e+00 0 0 0
246 2 1.5425128045103869e+00 1.0430713789875115e+01 5.6411920004600775e+00 0 0 0
83 2 2.2228735615130524e+00 5.6747747270977689e+00 1.0297363823475270e+00 0 0 0
253 1 1.5691762822583918e+01 8.6131779354130220e+00 5.0170571477344525e+00 0 0 0
255 2 1.5620369539085063e+01 8.8717353875988323e+00 4.0651798157140799e+00 0 0 0
256 1 1.3067819590042262e+01 8.4075039464583305e+00 5.5353850011782688e+00 0 0 0
257 2 1.4038516315740340e+01 8.3212995248038339e+00 5.6029790291933006e+00 0 0 0
258 2 1.2833574610388801e+01 9.1916143459298336e+00 4.9883227210322403e+00 0 0 0
521 2 2.2154000848924209e+00 5.4279984142392417e+00 9.0637974914974109e+00 0 0 0
272 2 1.0321196602862040e+01 9.8998523257943383e+00 1.1781735467583485e+00 0 0 0
84 2 2.9496530276387163e+00 7.0521991798099952e+00 7.1983799712637964e-01 0 0 0
276 2 9.0886027454756793e+00 1.0275717311109467e+01 9.1461395027923569e+00 0 0 0
283 1 1.0479349435591294e+01 8.8722826643639046e+00 2.5136217070807416e+00 0 0 0
284 2 1.0343902018573610e+01 9.2443237258716167e+00 3.4330410714600310e+00 0 0 0
285 2 9.8109578624929537e+00 8.1229293460378180e+00 2.2931027487864690e+00 0 0 0
286 1 9.0333718927077804e+00 9.2710247172826836e+00 7.4432622791011482e+00 0 0 0
287 2 9.6668772448493385e+00 8.5878099074173413e+00 7.7534121849248674e+00 0 0 0
288 2 8.1822677452541335e+00 8.7912499018423595e+00 7.5564697776251490e+00 0 0 0
289 1 1.5387894556586827e+01 1.0058860745441228e+01 2.7076966819828012e+00 0 0 0
151 1 6.5773743821370267e+00 3.7788293240787618e-01 7.9585904605427045e+00 0 0 0
291 2 1.5683728854048583e+01 9.4111515422520604e+00 2.0139770818500145e+00 0 0 0
292 1 1.3478125308786931e+01 1.0196771531174159e+01 7.6398803077419819e+00 0 0 0
217 1 6.8354209587255550e+00 1.1148732165249063e+01 6.1435460808903644e+00 0 0 0
294 2 1.3482174872504286e+01 9.4888453461051370e+00 6.9574509240331581e+00 0 0 0
586 1 -8.4632507543846458e-01 5.9136361473985035e+00 9.4730477130179196e+00 0 0 0
836 2 1.3119892193034657e+01 9.5376522198893774e+00 9.2690724587776749e+00 0 0 0
306 2 1.3602734740720971e+01 1.0428158652515393e+01 3.0027588572225139e+00 0 0 0
670 1 8.2276143678516451e+00 6.0552051331908245e+00 9.5853744773622616e+00 0 0 0
319 1 6.6192434073299173e+00 8.0996365679095543e+00 8.4200003788904763e+00 0 0 0
320 2 6.7075392125619491e+00 8.9036663624390151e+00 8.9141439684817012e+00 0 0 0
321 2 7.1210079548921463e+00 7.4326778972278023e+00 8.8846850470586265e+00 0 0 0
322 1 1.3202436628600131e+01 7.8617143836662136e+00 1.8569948374068121e+00 0 0 0
323 2 1.2443197575870027e+01 8.1783815007569274e+00 2.4338906931231987e+00 0 0 0
324 2 1.2753371011757370e+01 7.3213282782064661e+00 1.1524700462052357e+00 0 0 0
328 1 9.9028612963769671e+00 9.8411927458251398e+00 4.8695374727274263e+00 0 0 0
329 2 9.6680231655597364e+00 9.2801574592931075e+00 5.6246667821015768e+00 0 0 0
330 2 9.1773340014460949e+00 1.0492207580698237e+01 4.5633721799561240e+00 0 0 0
133 1 1.5735412799076865e+01 3.4623294330736685e+00 6.6388341987965385e+00 0 0 0
135 2 1.5741238878751775e+01 2.7709407736068412e+00 5.9510636147341751e+00 0 0 0
13 1 5.0285176215045571e+00 4.8079074056837872e+00 9.3712740122200824e+00 0 0 0
301 1 1.5751285945207579e+01 1.1249500877589801e+01 6.3534069397911237e+00 0 0 0
520 1 2.3132275484257923e+00 4.6582725619208922e+00 9.6077082149872393e+00 0 0 0
271 1 1.0287326025883097e+01 1.0355274912763216e+01 2.8074831364997249e-01 0 0 0
302 2 1.5012616693773255e+01 1.1123117052495257e+01 6.9846412675653617e+00 0 0 0
145 1 -3.4517954426819386e-01 6.5486452788004792e+00 1.9069937845202145e+00 1 0 0
165 2 1.6554222542661151e+01 7.0656266293113990e-01 3.7693676325396963e-01 0 0 0
585 2 3.7611025532567353e+00 1.8589589413893033e+00 9.1329766232581981e+00 0 0 0
290 2 1.6120888832458832e+01 1.0666668089163899e+01 2.8047709158505083e+00 0 0 0
485 2 1.0390605086542219e+01 1.5812914537075148e-01 7.8596238539254575e+00 0 0 0
753 2 4.0828193298953330e+00 9.2170091020958562e+00 9.0505816303498161e+00 0 0 0
70 1 4.0420948959338201e+00 4.9181747644698109e-01 1.9192094039765324e+00 0 0 0
152 2 7.3961622805024163e+00 4.8557656881094163e-01 7.4771456944758139e+00 0 0 0
331 1 1.6272815208619875e+01 8.5826243407990379e+00 5.9522622180063411e-01 0 0 0
82 1 2.3936936497962891e+00 6.3435728633482498e+00 3.3095184754854479e-01 0 0 1
22 1 6.3099258455905272e-01 2.5165109394776444e+00 9.3397156989571375e+00 0 0 0
2 2 7.4710584801464019e+00 5.6946603386920347e-01 4.6281380163437422e+00 0 0 0
486 2 1.1497347723961065e+01 4.4584373675005416e-02 9.0047952450145861e+00 0 0 0
104 2 9.4731962089363986e+00 3.4131376406098242e+00 2.2740860959924741e-01 0 0 1
604 1 1.1290875024701059e+01 5.0458751348947555e+00 9.6137400664763657e+00 0 0 0
20 2 4.8557322578618684e-01 3.2567622916937924e+00 2.6198664922351445e-01 0 0 0
103 1 1.0262438578007316e+01 2.8535263073798283e+00 2.2216704208235696e-01 0 0 0
100 1 1.4844281327555711e+01 4.7642984475949568e+00 2.9399377414426731e-01 0 0 0
608 2 6.0654908327170354e+00 3.2847479014441587e+00 9.6779985851852857e+00 0 0 0
528 2 2.8454042930358199e+00 2.8482368404162801e+00 2.3012175684277658e-01 0 0 0
751 1 3.7873769637901424e+00 8.6075865697587499e+00 9.7481975129276925e+00 0 0 0
108 2 8.5182190223651926e+00 3.0487228699320301e+00 9.6839512123192719e+00 0 0 0
696 2 4.1756416643227947e+00 1.1230596878919723e+01 1.9703569494125453e-01 0 0 1
81 2 -2.5840694468821201e-01 9.8762915455417732e-01 1.8839483463499711e+01 0 0 0
777 2 6.0335929479802770e+00 1.0751148821988215e+01 1.0021699944658973e+01 0 0 0
809 2 1.0174335217980682e+01 1.0184161166982964e+01 1.3010457366776890e+01 0 0 0
837 2 1.2549838779883565e+01 9.4212434609146491e+00 1.0745738621763177e+01 0 0 0
275 2 9.3828729530691533e+00 9.4828378957200687e+00 1.0346656905576118e+01 0 0 0
507 2 3.8682711003928283e+00 3.2858081461044569e-01 1.4322819816594041e+01 0 0 0
808 1 9.4433319406096654e+00 1.0401509283098298e+01 1.3611774534253078e+01 0 0 0
610 1 6.3077238042605144e+00 2.7842313345012903e+00 1.9109050554503114e+01 0 0 0
509 2 -1.7395361399078269e-02 1.5369026067164127e-01 1.4486987694750427e+01 0 0 0
523 1 -2.2950015923012677e+00 2.6214193836552457e+00 9.7682121366310923e+00 0 0 0
903 2 4.6412851572691292e+00 3.0529187817646949e-02 1.0399533196440228e+01 0 0 0
691 1 -2.3614553534107738e+00 1.0305131610471529e+01 9.8746660157272359e+00 0 0 0
728 2 -3.5124214214734466e+00 1.1129564533097579e+01 1.3613387015239947e+01 0 0 0
721 1 3.3139896356170828e+00 1.0491392097677789e+01 1.6369016689598631e+01 0 0 0
105 2 3.3335947173580758e+00 2.0059834953245579e+00 1.8771645855093645e+01 0 0 0
669 2 1.2330969291858793e+01 1.6956429130639916e+00 1.0457273377071125e+01 0 0 0
601 1 1.0700828644998449e+01 4.5061603073952909e+00 1.9176890499142530e+01 0 0 0
749 2 -1.6739395445491438e+00 1.0518109702047346e+01 1.4759027442202511e+01 0 0 0
505 1 3.2444484782330330e+00 1.0877022233960396e+00 1.4255939102577688e+01 0 0 0
506 2 3.7033489830068804e+00 1.8068025483829115e+00 1.4683004118961255e+01 0 0 0
797 2 1.0606745866932627e+01 1.0320470984743491e+01 1.7130084370778704e+01 0 0 0
508 1 4.8587176381204511e-01 1.0134960704936726e+00 1.4635658796007753e+01 0 0 0
273 2 4.5667325940297907e+00 1.0396923871684200e+01 1.9203578806121264e+01 0 0 0
692 2 -2.7220243033518283e+00 1.1237221925524674e+01 9.7700735119693949e+00 0 0 0
511 1 -4.0615456318719891e+00 6.6094097241127683e+00 1.4749852835723917e+01 0 0 0
512 2 -4.1924639432460751e+00 5.7281797664590144e+00 1.4253117655116268e+01 0 0 0
513 2 -3.9513383560393773e+00 6.3806149417855584e+00 1.5681054781615600e+01 0 0 0
514 1 -1.2090839977463115e+00 6.6382432847800166e+00 1.4550003661087111e+01 0 0 0
515 2 -1.0257673109016663e+00 6.0209033493544721e+00 1.5339981904402016e+01 0 0 0
516 2 -2.2128513015005287e+00 6.6052399440310223e+00 1.4531091176858544e+01 0 0 0
166 1 5.0370619658731037e+00 6.0304337847137415e+00 1.9311559520142865e+01 0 0 0
519 2 1.4896200810826059e+00 5.0110256280173004e+00 1.8266465010770290e+01 0 0 0
588 2 -1.3203259126198672e+00 5.3405547492703604e+00 1.0132432002473427e+01 0 0 0
522 2 2.3346501158604425e+00 4.9828344159541071e+00 1.0527944292249050e+01 0 0 0
164 2 8.6242299551787713e+00 4.8771438348740304e-01 1.8708506171738541e+01 0 0 0
17 2 -2.0296634612389335e+00 4.0603261131815058e+00 1.9291178341194488e+01 0 0 -1
525 2 -2.4024885862028214e+00 2.1552472269002081e+00 1.0604773265909978e+01 0 0 0
98 2 1.4277214599365907e+01 5.6628674647880022e+00 1.0281274503964186e+01 0 0 0
527 2 -2.7918026019730822e+00 2.2349323032195727e+00 1.8384605836706783e+01 0 0 0
529 1 1.4961192540803037e+00 6.1402912999427510e+00 1.6868766385509026e+01 0 0 0
530 2 1.6458291273665369e+00 5.7684910798695004e+00 1.5961249126526923e+01 0 0 0
531 2 6.6087531878477357e-01 6.6610342151475299e+00 1.6823683145352391e+01 0 0 0
532 1 2.1979822683151466e+00 6.1543408138422366e+00 1.2206872485042183e+01 0 0 0
533 2 3.1436996722415378e+00 6.2151838674871742e+00 1.2019355012066137e+01 0 0 0
534 2 2.2481072686547252e+00 5.5300187691297333e+00 1.3006726054553109e+01 0 0 0
535 1 -1.9316754034107655e+00 1.0057648352050537e+00 1.2009502926644435e+01 0 0 0
658 1 9.5844062444361136e+00 3.9182539389566851e-01 1.0960398045697909e+01 0 0 0
537 2 -1.0492257616142049e+00 5.4016066778553185e-01 1.2100681150541432e+01 0 0 0
538 1 -2.8520809313899296e+00 1.1643683559928477e+00 1.6848321648220846e+01 0 0 0
539 2 -3.8421654742535498e+00 9.2003989687406484e-01 1.6819584195982841e+01 0 0 0
540 2 -2.5963999289878967e+00 1.5367293003950007e+00 1.5988023184550503e+01 0 0 0
541 1 2.9110353913737965e+00 2.7300699181386787e+00 1.2007467296329402e+01 0 0 0
542 2 3.1349222536916530e+00 2.0259341976418592e+00 1.2642542751187619e+01 0 0 0
543 2 3.2211501736133510e+00 2.3648145081714329e+00 1.1138332544771222e+01 0 0 0
544 1 7.4416795271495584e-01 2.8067658735952929e+00 1.6960699312193483e+01 0 0 0
545 2 6.8794018958397896e-01 2.5804240586449798e+00 1.7882055925912809e+01 0 0 0
546 2 4.6359245777583258e-01 2.0382502486949976e+00 1.6456111320544721e+01 0 0 0
547 1 -3.5625886176630770e+00 5.2286241144641421e+00 1.7047450861045682e+01 0 0 0
548 2 -4.3172588980451136e+00 4.6742565883603326e+00 1.6930056022185873e+01 0 0 0
549 2 -3.7161554200652667e+00 5.5246618427015290e+00 1.7947907573745589e+01 0 0 0
550 1 -1.6311696749461508e+00 5.2781835168333400e+00 1.2130804549845005e+01 0 0 0
551 2 -1.1508278567826724e+00 4.4357012769724822e+00 1.2158980338331833e+01 0 0 0
552 2 -1.1156565702886163e+00 5.7717282530449951e+00 1.2821350835077119e+01 0 0 0
553 1 3.5406960166356951e+00 3.1336089410874828e+00 1.5921277218338533e+01 0 0 0
554 2 2.8499554473409914e+00 2.7705551860309243e+00 1.6491562696234467e+01 0 0 0
555 2 4.2863883141622399e+00 3.3674777624322338e+00 1.6519737914949907e+01 0 0 0
556 1 3.2932370237226127e-01 3.1189171864950533e+00 1.2779007436702299e+01 0 0 0
557 2 1.2018031904930639e+00 3.0287948774727673e+00 1.2342730373918817e+01 0 0 0
558 2 3.0097574603626498e-01 2.4669610774554527e+00 1.3504663695361977e+01 0 0 0
559 1 -4.0907484166603121e+00 4.3849668020880053e+00 1.3244098466279020e+01 0 0 0
560 2 -3.2907806511915414e+00 4.7217384532453277e+00 1.2700057348161598e+01 0 0 0
561 2 -3.7623272893292339e+00 3.5952590657580878e+00 1.3787678333155638e+01 0 0 0
562 1 -1.1118788752881494e+00 4.3116049190155996e+00 1.6002804868105361e+01 0 0 0
563 2 -3.6693106532182540e-01 3.7676076101812801e+00 1.6473890817919269e+01 0 0 0
564 2 -1.8602087572937576e+00 4.3269439621426704e+00 1.6566552246686612e+01 0 0 0
565 1 4.8143819054789097e+00 6.7504251556921133e+00 1.1322832212317973e+01 0 0 0
566 2 4.5312856846361331e+00 7.3952633907952361e+00 1.0641011679523389e+01 0 0 0
567 2 5.0566009646257051e+00 6.0318030155017830e+00 1.0751468762023308e+01 0 0 0
568 1 -8.4442026816188687e-01 7.0376584277380561e+00 1.7565852450205945e+01 0 0 0
569 2 -1.0057438990825096e+00 6.1778463912107462e+00 1.7909229456870129e+01 0 0 0
570 2 -5.1116325330347578e-01 7.6240413432554694e+00 1.8294138286107724e+01 0 0 0
796 1 9.7602979984067488e+00 9.9432651273718697e+00 1.7398635942178224e+01 0 0 0
572 2 -5.5245788871003487e+00 1.3533095468444358e+00 1.8257044672639644e+01 0 0 0
723 2 4.1187538593432365e+00 1.0780951983121522e+01 1.6848953807682300e+01 0 0 0
798 2 9.6565178342282447e+00 9.2727189233309808e+00 1.6695222502563041e+01 0 0 0
576 2 1.3043513395447985e+00 8.8543181841712382e-01 1.0922572165452426e+01 0 0 0
577 1 1.7684150365230025e+00 4.8056827819419903e+00 1.4596219706897092e+01 0 0 0
578 2 9.5393206181687695e-01 4.3251302288154791e+00 1.4399488918287798e+01 0 0 0
579 2 2.4356355591210654e+00 4.1254180285577133e+00 1.4895917496838619e+01 0 0 0
580 1 -2.5655573611007028e+00 2.3383827722681629e+00 1.4507153903115134e+01 0 0 0
581 2 -2.1989246603527199e+00 1.7532655198876272e+00 1.3781550969229928e+01 0 0 0
582 2 -1.8845800455543107e+00 3.0272258408982222e+00 1.4573424206380164e+01 0 0 0
824 2 2.6284144465362163e+00 7.1797735363242587e+00 1.7567470957889149e+01 0 0 0
163 1 9.1669622634695109e+00 1.2259406243644007e+00 1.9116803111455972e+01 0 0 -1
589 1 1.2089775774455260e+01 9.4729031808799247e-01 1.4023161250312253e+01 0 0 0
590 2 1.1114888503113194e+01 8.3007846133440477e-01 1.4016925546237015e+01 0 0 0
591 2 1.2194266860652684e+01 1.6857096561166893e+00 1.4655624834664893e+01 0 0 0
592 1 9.3052038714092316e+00 1.1675215392325031e+00 1.4482960003364511e+01 0 0 0
593 2 8.6481802050692860e+00 4.7770743817482675e-01 1.4247501867316059e+01 0 0 0
594 2 9.1308641884037645e+00 1.8744097653874670e+00 1.3824742992401431e+01 0 0 0
595 1 4.6296754281554708e+00 6.4878534959911169e+00 1.4783833949617861e+01 0 0 0
596 2 4.8751124600001550e+00 5.9269153260841989e+00 1.5524938404925338e+01 0 0 0
597 2 4.6542157334686083e+00 5.8902892914049234e+00 1.3963801579657435e+01 0 0 0
598 1 7.4837075456428117e+00 6.6071642110601401e+00 1.4595934212715481e+01 0 0 0
599 2 6.5419325614411523e+00 6.8290815337396111e+00 1.4569744431689529e+01 0 0 0
600 2 7.6473737781540327e+00 6.3615241678121022e+00 1.3672951989210224e+01 0 0 0
805 1 1.2253732854800585e+01 1.0729750913054387e+01 1.6261285553924182e+01 0 0 0
603 2 1.0598208471680115e+01 5.1143753831295511e+00 1.8412139675776444e+01 0 0 0
833 2 6.4237930354565007e+00 9.1032362405264067e+00 1.3913076649320653e+01 0 0 0
605 2 1.1195113822114598e+01 5.4525359101610018e+00 1.0466790626478005e+01 0 0 0
333 2 8.8773381169575707e+00 8.1540536758036879e+00 1.9203728700228702e+01 0 0 0
249 2 3.0612682107264444e-01 9.5925828461764002e+00 1.8448044490104159e+01 0 0 0
834 2 5.7068440354813950e+00 1.0470996315105738e+01 1.4328366986415814e+01 0 0 0
609 2 6.4484251001758803e+00 2.1970069926531335e+00 1.0672265235433427e+01 0 0 0
99 2 1.3119431353003499e+01 4.7400477050952832e+00 1.0000147917841250e+01 0 0 0
611 2 6.3733576392063114e+00 2.2849481721329941e+00 1.8266853265876343e+01 0 0 0