LAMMPS data file via write_data, version 3 Mar 2020, timestep = 0

2016 atoms
2 atom types

0.0000000000000000e+00 1.7942913871119355e+01 xlo xhi
-1.3584979073799062e+00 4.6354657884297644e+01 ylo yhi
0.0000000000000000e+00 1.9084186875553527e+01 zlo zhi
4.4509151679434235e-02 -6.6664397346107336e+00 -2.3579261067425250e-02 xy xz yz

Masses

1 16
2 2

Atoms # atomic

579 2 3.5424638541349216e+00 7.1561770909295248e+00 1.6771725166287460e+01 0 0 0
223 1 -4.1315337845729427e-01 6.2270251835704773e+00 1.6218494495095605e+01 -2 0 -2
995 2 6.2161534852163545e+00 8.0583331136671497e+00 7.1353445616749029e+00 3 0 1
654 2 1.6263466570997142e+01 6.5333662052499424e+00 1.4226335305012219e+00 -2 0 0
394 1 8.4586490853018361e+00 6.9282066139106053e+00 2.3203735867031412e+00 -3 0 -3
578 2 2.7434557743100765e+00 7.0287841704578113e+00 1.5461180432449881e+01 0 0 0
929 2 1.2801624889341856e+01 2.6287089018006760e+00 4.0868422879759541e+00 0 0 0
977 2 4.7100391260967251e+00 -4.2081810177046830e-01 1.7893776535633311e+01 -3 0 -1
705 2 -1.9421309204357518e+00 7.1847654354417294e+00 1.3949172922616869e+01 -2 0 -1
302 2 9.0943960067978509e+00 6.0576629806566444e+00 1.1602778357890031e+00 0 0 0
299 2 -5.2863222425668797e+00 1.6851279719137913e+00 1.8895465976169856e+01 -2 0 -2
896 2 1.7006423046853644e+01 8.3556422558241081e+00 1.9290052969383886e+00 -1 0 0
747 2 -3.1977862697632471e+00 9.7494813046310096e+00 1.6301445394529679e+01 -2 0 0
406 1 1.8071756610305174e+00 9.9735114402468872e-01 1.1510365377395923e+01 -2 0 -2
776 2 1.2455084780893820e+01 -2.2944550563727262e-01 6.0436300006439569e-01 -2 0 2
596 2 2.7976223324277578e+00 4.6800798636490635e+00 3.7665780064327126e+00 3 0 -2
636 2 -1.2234841439902167e+00 8.0796126785720741e+00 8.0219132634591066e+00 1 0 -2
153 2 1.0798622953541122e+01 4.1883091194528199e-01 3.2842478579084755e+00 3 0 0
881 2 9.5700406581505835e+00 2.0455538544502372e+00 7.2557626610384744e+00 -3 0 2
319 1 1.0684586902716820e+01 2.5401221866332779e-01 1.3997288742632644e+01 -4 0 -3
53 2 4.8835579130294411e+00 2.1523011757853183e+00 1.8661142461515656e+01 2 0 -1
150 2 8.8993911541532427e+00 8.4520710801202341e+00 1.2682691078197465e+01 -4 0 -1
609 2 3.3011703145695570e-01 3.4245363603884762e+00 1.8790850084097347e+01 -3 0 -1
1583 2 1.2726722471747783e+01 1.9011694450533190e+00 1.4340804406258297e+01 -1 1 1
122 2 8.2207089975357164e+00 6.1089412745109977e+00 1.5064367322496370e+01 -2 0 -1
389 2 1.3621675813443359e+01 -8.7962787273168075e-01 4.0310138450881752e+00 -1 0 0
407 2 2.5817317067751606e+00 1.1573242964125368e+00 1.2046661793856410e+01 -2 0 -2
707 2 3.1275920298475715e+00 7.4002652058407694e+00 1.8749089492572221e+01 -1 0 -1
972 2 5.6387656558147414e+00 7.8122198890775696e+00 2.9804233201246402e+00 0 0 1
448 1 5.0946990348560632e+00 8.7143079120147142e+00 9.8250788089620347e+00 -1 0 1
244 1 8.3285022369371227e+00 3.2015084858940099e+00 1.4239555599787662e+01 -4 0 -4
367 1 1.3827655465472544e+01 1.0452862289539095e+01 3.2611677548929019e+00 -2 0 0
493 1 4.1377949566149752e-01 8.6301685046303582e+00 1.0438966221378889e+01 -3 0 -2
274 1 1.4051583267938652e+01 -6.3006851192550417e-01 1.7766377254444926e-01 2 0 0
991 1 1.3634713823534376e+01 -4.3327283530787086e-01 9.6355881602230102e+00 1 0 1
301 1 9.6298381341456167e+00 5.6654955233113613e+00 3.9616677864027217e-01 0 0 0
687 2 2.1125300954951935e+00 -4.2467686652925263e-01 1.0463614498473463e+01 -3 0 0
270 2 -3.9478470496283080e-01 8.7382797180100891e+00 1.5266642947994370e+01 2 0 -1
463 1 2.1839647081957168e+00 8.1032983889327053e+00 3.2396734111371552e+00 2 0 0
449 2 4.3298405212089488e+00 8.6175551495186831e+00 9.2213489612114028e+00 -1 0 1
524 2 3.7502678414789297e+00 3.5446186476650938e+00 1.0346577623818339e+01 -2 0 -4
949 1 -3.9056261115593363e+00 -8.3774742945694924e-01 1.7328602942340918e+01 -1 0 1
523 1 3.0002575947799364e+00 4.0105197247289226e+00 1.0562499293570779e+01 -2 0 -4
658 1 6.0354310445701786e+00 3.6826701716093195e+00 1.2784888910824248e+01 -1 0 -2
206 2 4.4939730246167908e+00 1.5336679046594011e+00 1.1329722985751644e+01 3 0 0
96 2 -3.7895834485058078e-01 4.5650952346871012e+00 2.2353677956787750e+00 -1 0 -1
441 2 -8.4561941080837455e-01 3.8931062504505762e+00 1.0902941756905118e+01 -2 0 -1
559 1 8.4284561049588813e+00 -2.9931918096409005e-01 7.3037858622715577e+00 -2 0 1
781 1 3.7359578442172352e+00 3.8232609967556330e+00 6.8828692900134514e-01 -2 0 -2
880 1 1.0496956194511675e+01 1.9056778995326025e+00 7.5773803903983170e+00 -3 0 2
626 2 4.1536192917661898e+00 3.2681906461631520e+00 1.5573036084460671e+01 0 0 -1
841 1 -1.5814242000759293e+00 -1.1336957204497984e+00 1.6235759459156146e+01 -5 0 -5
703 1 -2.2081001732900494e+00 6.3703400742559539e+00 1.3445884692873028e+01 -2 0 -1
382 1 6.9420476348371967e+00 6.6324936997409605e+00 1.7547491713353899e+01 -2 0 0
255 2 9.2448293911166246e+00 9.8306549998500881e+00 1.4080716811484660e+01 -3 0 -3
506 2 1.6830726320478473e+01 1.0196775688137977e+01 3.0121917277175894e+00 -4 0 -2
54 2 4.6319863546358375e+00 3.4943705966727041e+00 1.7919571427453409e+01 2 0 -1
761 2 7.7238274591188389e+00 -1.4919680649745803e-01 8.5515739703893492e-02 -3 0 2
689 2 8.1588445900712125e-02 1.8301266080737326e+00 5.0656633947562435e+00 -2 0 0
529 1 7.9971816190063905e+00 -8.8495591644537674e-01 3.5884583490503821e+00 -1 0 0
392 2 2.4131733047159623e+00 6.5476906561532049e+00 1.1455103750431627e+01 -1 0 -1
652 1 1.5608905930686763e+01 7.2136815129154304e+00 1.7102341880849323e+00 -2 0 0
52 1 4.6390621942189183e+00 3.0678615189337215e+00 1.8801867591400534e+01 2 0 -1
356 2 -1.9087392814926982e+00 5.5268516500663996e+00 1.6141709483666311e+01 -4 0 -3
477 2 4.7277023148743460e+00 5.5052976229876229e+00 1.0680753535308229e+01 -1 0 2
500 2 -5.5654307700965422e-01 2.4446057217789661e+00 1.2755436355929758e+01 1 0 0
976 1 4.7235942744507282e+00 -7.6647808087541391e-01 1.6939593663560689e+01 -3 0 -1
806 2 -3.1679898942430880e+00 6.9990411899118179e+00 1.2187742108361238e+01 -3 0 1
789 2 8.2004850803380815e+00 9.2063642610890799e+00 4.0208686930496391e+00 -2 0 0
810 2 6.1245856711744402e+00 4.5637633190879896e+00 7.6987799391551430e+00 -4 0 -1
930 2 1.3811868098637282e+01 3.2993479179006888e+00 3.1158648077028883e+00 0 0 0
702 2 4.8341875767982856e+00 7.3060935072671063e-01 1.5787696117362891e+01 -3 0 -3
501 2 -6.6650799621071810e-01 8.2351061433641615e-01 1.2944010007602996e+01 1 0 0
625 1 4.3754527259284215e+00 4.0006792155234390e+00 1.6170662200015858e+01 0 0 -1
528 2 5.7161082267675569e+00 1.2306717495518744e+00 4.7941685290851073e+00 -2 0 -1
101 2 4.4351073753778216e+00 7.7116769019517619e+00 1.1026812339408954e+01 -1 0 -1
384 2 7.8930073564458292e+00 6.6244573141954142e+00 1.7516188359386113e+01 -2 0 0
245 2 7.5572590297223332e+00 3.2081445326364824e+00 1.3646511548674349e+01 -4 0 -4
622 1 -3.0158572807988291e+00 2.7666316551118530e+00 1.6479754096470970e+01 -2 0 -2
624 2 -2.1187372495024994e+00 2.5283753611692394e+00 1.6687814934767708e+01 -2 0 -2
179 2 7.2571648132556854e+00 8.7123786987327581e+00 1.5151323489541406e+01 -3 0 -1
539 2 1.0187147629131079e+00 -8.8679111609715422e-01 2.5575152081170227e+00 -4 0 -3
538 1 1.9108531281267762e+00 -7.6824489668994189e-01 2.1324300716655911e+00 -4 0 -3
1665 2 1.3546809397199057e+01 9.9778427978071473e+00 1.6777769110086800e+00 -3 1 0
268 1 -9.9016982479147408e-01 8.7691303418670721e+00 1.4485016090996577e+01 2 0 -2
600 2 -1.4372362703431962e-01 8.3829379108778967e-01 9.6484274285267002e+00 -3 0 1
49 1 9.3979291197300725e+00 3.0480656481458883e+00 1.0672811127523401e+01 -1 0 0
183 2 1.4364938040312259e+01 4.4532588198086822e+00 6.5156774136121527e+00 -1 0 0
464 2 2.1266652856253105e+00 8.0410167468366662e+00 4.2101480784512688e+00 2 0 0
393 2 1.2035234370243644e+00 5.5055931170267103e+00 1.1212468586274909e+01 -1 0 -1
148 1 9.7122307156142273e+00 9.0442608194797511e+00 1.2719991205547378e+01 -4 0 -1
21 2 1.1232847552638049e+01 1.0382369678255762e+01 6.0415571337658500e+00 -3 0 -3
135 2 1.6283499863141526e+00 2.1802425217486268e+00 8.5020278325344680e+00 1 0 -1
778 1 5.4212529515083761e+00 8.0232220057741870e+00 5.4777947307425796e+00 1 0 0
503 2 3.8055247189699140e+00 -7.4101343057096913e-01 9.2755874998292835e+00 0 0 0
598 1 -7.6888292938608638e-01 1.2944129031071783e-01 9.5832880833306131e+00 -3 0 1
120 2 6.6311982852969091e+00 5.3050196362898721e+00 3.7705668872290055e+00 -2 0 -2
858 2 7.3812864120798238e-02 8.1220882268878256e+00 6.0243385579082354e+00 -1 0 -3
640 1 1.4058743306243819e+01 5.9568725742688660e+00 9.3594444086074535e+00 3 0 -1
753 2 -4.1655292077143162e+00 6.1316921115914873e+00 1.6654674568871595e+01 0 0 2
163 1 1.1549543871406581e+01 8.4606740897329349e+00 1.0978593662451242e+01 2 0 0
119 2 5.0994557355353098e+00 5.5785492152682412e+00 3.7272633753085396e+00 -2 0 -2
525 2 2.9442114962585766e+00 3.9835535340569468e+00 1.1551706387037777e+01 -2 0 -4
495 2 9.3950185282266130e-01 7.8542690395784742e+00 1.0836657981046963e+01 -3 0 -2
971 2 6.8981641437857446e+00 7.5329617944457770e+00 2.0787874502644637e+00 0 0 1
494 2 -3.9204806328683084e-01 8.2321924107203373e+00 9.9828632063783243e+00 -3 0 -2
212 2 8.0210356389632285e+00 6.9975071405863183e+00 7.5739912572382382e+00 -5 0 -2
701 2 4.1078416654654504e+00 1.0112399782533323e+00 1.4518086009844698e+01 -3 0 -3
5 2 3.7135231315210180e+00 8.5483192640724166e+00 5.7246573178656508e+00 1 0 0
470 2 9.7202097133434044e+00 3.9945629538150200e+00 1.8752200224727286e+01 -7 0 -3
471 2 9.1228305880369280e+00 2.6236257409953230e+00 1.9037318884871571e+01 -6 0 -3
708 2 3.1777508049104508e+00 8.8792379184437387e+00 1.8383200108869687e+01 -1 0 -1
320 2 9.9710005877388852e+00 -3.4863466310155400e-01 1.3676827410591116e+01 -4 0 -3
46 1 1.4105308649915351e+01 8.6259709897530943e+00 5.4398587237063323e+00 -3 0 0
992 2 1.3724204135988625e+01 -2.7093013269776223e-01 1.0603192804342461e+01 1 0 1
856 1 -1.7845154020970044e-01 8.7991702897835697e+00 6.6842120248673087e+00 -1 0 -3
627 2 4.0943870093579111e+00 4.8928276711266090e+00 1.5797795825210654e+01 0 0 -1
111 2 2.2480763133480215e+00 1.0394936026541841e+00 1.7707591448795927e+01 1 0 -4
869 2 -1.0551413715615054e+00 6.4677786074153207e+00 4.5215225167707871e+00 2 0 0
16 1 1.4213047587765431e+00 6.5725930972810804e+00 1.4228766261323052e+01 0 0 1
178 1 6.8600956058919191e+00 8.8964771373289846e+00 1.6022827100000299e+01 -3 0 -1
974 2 1.0278276070398457e+01 8.1782910687000321e-01 1.5850028361810507e+01 -4 0 -2
118 1 5.8983350813241646e+00 5.6589287688476331e+00 4.2894354624875568e+00 -2 0 -2
175 1 4.8859992691274368e+00 -1.1538878691044145e+00 1.2559985351598261e+01 -5 0 1
623 2 -3.6742692079452723e+00 2.3579786948268118e+00 1.7131387131502773e+01 -2 0 -2
1668 2 5.9500367161499277e+00 4.0249002163358476e+00 1.1826821185022906e+01 -1 1 -2
644 2 1.1081212289686047e+01 6.9015308490362282e-01 1.0588821438407784e+01 -4 0 -3
435 2 8.2164292648645763e+00 9.9480738622667069e+00 1.7085692653098850e+01 -2 0 0
83 2 1.1165595670976815e+01 7.1016636462793432e+00 6.2460892192937445e+00 -1 0 -3
239 2 4.4838972287822418e+00 6.6607544379433641e+00 1.4432782557387027e+01 0 0 0
716 2 7.8353257227421267e+00 4.1445191750274306e+00 2.3682031413813904e+00 1 0 2
717 2 6.6180566838080406e+00 3.4145791235586946e+00 1.7751083096898701e+00 1 0 2
240 2 5.9822436489385442e+00 6.2793575534966468e+00 1.3923124620169327e+01 0 0 0
904 1 9.4872015283314415e+00 9.1669990227055607e+00 2.3983646583527354e+00 -3 0 2
17 2 5.8997058256111234e-01 6.3876365562161235e+00 1.4705321961862857e+01 0 0 1
779 2 5.9609161241747879e+00 8.7630841065490532e+00 5.0556760385017032e+00 1 0 0
768 2 1.2937087897487416e+01 7.7532407255326721e+00 8.2332920254489022e+00 -4 0 -1
645 2 1.1957310450921838e+01 1.7659683274337961e+00 1.1255562625014583e+01 -4 0 -3
613 1 9.2603706165224793e+00 2.3527876868589295e+00 1.3719133063506364e+00 -2 0 0
246 2 8.0465904929830039e+00 3.7688679160411978e+00 1.5012150579768241e+01 -4 0 -4
238 1 5.0109157650127161e+00 6.1532147546208575e+00 1.3763237792305970e+01 0 0 0
522 2 7.5633542119673365e+00 8.4681874869725338e-01 1.0013047287880340e+01 -5 0 -2
715 1 6.8548784104339235e+00 3.9960889701076843e+00 2.5367103682688850e+00 1 0 2
115 1 1.3453991009739481e+01 2.9274348708269118e+00 1.0336767630116171e+01 -5 0 -5
426 2 1.4182217424039866e+01 3.7005916266846750e+00 4.5621925253618700e-01 -2 0 1
511 1 7.4017797819980480e+00 -1.1657140395589427e+00 1.6148124374605700e+01 1 0 0
760 1 8.6839814258804200e+00 7.8935020657462385e-03 2.4903280430554380e-02 -3 0 2
192 2 1.0246887925621202e+00 1.0016185765072258e+01 1.5996728820949873e+01 -2 0 -3
933 2 -5.3827822690207583e-01 1.7408908671081686e+00 1.5066630355105813e+01 -2 0 -1
857 2 5.3874185798688323e-01 9.4602330830596273e+00 6.7570857830631113e+00 -1 0 -3
868 1 -8.6014284995673762e-02 6.5334425990329876e+00 4.8379641925962131e+00 2 0 0
919 1 1.0764775357862224e+01 -3.2608479502483423e-01 9.1931077532845400e+00 0 0 -2
18 2 1.2587253080396952e+00 6.4351455422728794e+00 1.3296031791301298e+01 0 0 1
746 2 -2.1130278971337444e+00 9.7260116009067481e+00 1.5051578932473156e+01 -2 0 0
671 2 3.4597877790014664e-02 -4.3401595566813500e-01 7.9713805398936515e+00 -3 0 -1
785 2 5.6159442663230519e-01 1.5491143943791701e+00 2.8893658015226729e+00 -3 0 -2
870 2 3.0339108899816614e-02 5.7195265798931230e+00 5.3956503208560100e+00 2 0 0
211 1 8.7417453987827400e+00 6.3625388868602784e+00 7.4775932947429551e+00 -5 0 -2
387 2 4.2684518660691273e+00 2.8920417218076704e+00 3.9265236243713160e+00 0 0 -2
575 2 1.1818107003288670e+01 6.3013721796400795e+00 1.4232590556773010e+01 0 0 0
643 1 1.1156945446229328e+01 1.2646237014704536e+00 1.1356629219451088e+01 -4 0 -3
513 2 7.7269326548119066e+00 -2.6424763158214137e-01 1.5803366459899937e+01 1 0 0
745 1 -2.9270493210024826e+00 1.0163465915598550e+01 1.5447504259164832e+01 -2 0 0
186 2 -1.1827779031526378e+00 -1.9997393489974535e-01 1.8130496505903292e+01 -4 0 -6
116 2 1.4188388644588015e+01 2.4339903314174127e+00 9.8531436368381549e+00 -5 0 -5
224 2 3.2575225963346099e-01 5.6543912256509481e+00 1.6648259370018994e+01 -2 0 -2
845 2 7.7225974791800294e+00 5.9715873843908218e-01 1.2423734459593343e+01 1 0 1
48 2 1.3766900334306158e+01 8.7164729027974435e+00 6.3870219356113420e+00 -3 0 0
117 2 1.3835241567607486e+01 3.3931838884395447e+00 1.1097401526388518e+01 -5 0 -5
931 1 -6.1776284904492407e-01 1.4818382787841635e+00 1.5974469744926044e+01 -2 0 -1
429 2 1.2275985646412639e+01 7.3501399217477044e+00 1.5815886880962459e+01 -1 0 -1
385 1 4.9871430317751839e+00 2.2750285571928535e+00 3.7281074643816869e+00 0 0 -2
354 2 1.1090673825912587e+01 7.3089025537558800e+00 9.6360053986627054e+00 -1 0 0
961 1 2.5606389788018289e+00 -5.0350223102749281e-02 1.4263912524351865e+01 -3 0 -1
42 2 3.2002280434803345e+00 7.8805063268249853e+00 7.4097406207635466e+00 -2 0 3
726 2 1.4364985194375333e+01 8.4863491987527473e-01 8.7817105889743701e+00 1 0 1
876 2 -3.7169621440756369e+00 3.2599048099737633e+00 1.3341690684905570e+01 -2 0 1
769 1 1.1912493157342712e+00 4.4416336281422026e+00 6.4609946306645067e+00 1 0 -3
1002 2 9.3709685041161954e+00 2.5129891575214289e+00 2.9830555701145265e+00 -1 0 1
4 1 2.7659595789925375e+00 8.5886438476316549e+00 5.9168675103677595e+00 1 0 0
905 2 1.0292380145503275e+01 8.9052079839289799e+00 2.8576772868397877e+00 -3 0 2
41 2 4.0607942165293380e+00 6.4229364810505478e+00 7.6028296167326657e+00 -2 0 3
276 2 1.4982408694324153e+01 -6.4817212999302054e-01 5.7129066873082468e-01 2 0 0
812 2 1.1603707480805529e+01 5.0581503481546832e+00 9.0370010858658318e+00 -2 0 -1
932 2 3.0629592133136718e-01 1.3997508755117840e+00 1.6346371117520949e+01 -2 0 -1
151 1 1.0388577794742398e+01 -3.7597402825198367e-01 2.8811361843448138e+00 3 0 0
213 2 8.8139422877101907e+00 6.2593979998279741e+00 6.5268545038546728e+00 -5 0 -2
980 2 -4.5132380995919892e+00 9.6895381834855865e+00 1.4364593078302732e+01 -1 0 0
787 1 7.8408763297997064e+00 9.5179027832246828e+00 4.8322935031119991e+00 -2 0 0
338 2 2.9763347535593629e+00 6.4538566445563639e+00 2.5372769455627417e+00 -1 0 -1
938 2 1.1995125078419658e+01 7.6908045452357268e+00 4.1610615702567868e+00 1 0 1
969 2 1.9830707081136727e+00 4.8579670447780643e+00 9.3489236295459737e+00 -1 0 1
545 2 2.2320249971649817e+00 4.5256905195620050e+00 1.3859439468353994e+01 2 0 1
386 2 5.7258072016952299e+00 2.8939773897956895e+00 3.3997559976345211e+00 0 0 -2
937 1 1.1837609480840474e+01 8.3118186795270876e+00 3.4061538092012285e+00 1 0 2
40 1 3.5864737210760973e+00 7.2078315223516984e+00 8.0193844036193482e+00 -2 0 3
786 2 1.5526975786120178e+00 2.3802790413525456e+00 3.7538858898003391e+00 -3 0 -2
714 2 -1.1268751460014577e+00 -2.3537658056997768e-01 1.1128664965503049e+01 0 0 3
724 1 -2.9311332608113276e+00 1.5840722605228668e+00 8.6988178314807243e+00 2 0 1
784 1 9.2236208465192138e-01 1.6137390809301788e+00 3.8343150675260795e+00 -3 0 -2
967 1 1.4640010180275280e+00 5.4201112288868263e+00 8.8225855890081792e+00 -1 0 1
553 1 1.0737525105627128e+01 4.0398644405836297e+00 1.7015265073778941e+01 -5 0 -2
681 2 6.2470825453239422e+00 3.9471012088279682e+00 1.6197293269032304e+01 -3 0 -3
649 1 8.1182683402885250e+00 2.6808450385885960e+00 6.3868430152313103e+00 -4 0 0
650 2 7.6993298095198215e+00 3.3266681435138832e+00 7.0253515352062381e+00 -4 0 0
51 2 9.9635964902750693e+00 2.3421477216448610e+00 1.1044043579096098e+01 -1 0 0
36 2 -3.4411282586896669e-01 2.3735799962207822e+00 1.0564136848912740e+00 -1 0 0
945 2 3.1192223977674933e+00 5.9498657242555342e-01 1.6120760016231384e+00 0 0 3
673 1 -3.8287420489397741e+00 9.3498839714693851e+00 1.8050700060218087e+01 0 0 -4
939 2 1.2453997973178430e+01 9.0253669988251950e+00 3.5953574456190975e+00 1 0 1
397 1 9.3931212541060720e+00 5.4845807709595187e+00 4.6188123310580780e+00 2 0 0
127 1 1.2606680327001770e+01 6.6944743382575087e+00 1.1711274894239974e+00 -2 0 -1
128 2 1.3065374706987923e+01 5.8556220230455214e+00 1.2658877750550492e+00 -2 0 -1
1407 2 1.0287096743197488e+01 5.8311004613398998e+00 4.8860632597212676e+00 2 0 0
34 1 1.8265880065371365e-01 1.5807903727718702e+00 1.2523548731026293e+00 -1 0 0
928 1 1.3745800388578056e+01 2.6040821742732434e+00 3.7920003339110853e+00 0 0 0
85 1 1.6651654146780871e+01 -6.4678448445770875e-01 6.1341408719272184e-01 1 0 -2
289 1 1.0300000072748571e+01 9.2734940576320355e+00 6.4366209922986926e+00 0 0 3
439 1 -7.2852586387650176e-01 3.8665092372074605e+00 1.1914030945790696e+01 -2 0 -2
350 2 7.6837527151670164e+00 2.3773868521041042e+00 1.7455202438929504e+01 2 0 3
844 1 7.5702781081798109e+00 1.1811735982793858e-01 1.1590895436129092e+01 1 0 1
65 2 5.8750482197645493e+00 2.2794496714321730e+00 9.6244908100665061e+00 -2 0 -3
783 2 4.4504237829286950e+00 3.7808925392897947e+00 5.8934612501831032e-02 -2 0 -2
924 2 4.3019805022093527e+00 9.9358483044889851e+00 1.5203735335842969e+01 -3 0 -3
994 1 6.8264918593113890e+00 8.0071719240736225e+00 7.9101757310498488e+00 3 0 1
725 2 1.5005426098823497e+01 1.7580852817462880e+00 7.7498267090500956e+00 1 0 1
767 2 1.4296171826099329e+01 8.5451698473675961e+00 8.5711976155239533e+00 -4 0 -1
129 2 1.2468771823885833e+01 7.0740120037270309e+00 2.0233170889259680e+00 -2 0 -1
177 2 4.6474013462140329e+00 -2.0693526070078727e-01 1.2737487764075970e+01 -5 0 1
173 2 1.1488995496022923e+01 4.0915932538511202e+00 1.4191133367776290e+01 -1 0 -2
978 2 5.6469856083342842e+00 -9.1887237880539374e-01 1.6832973387104943e+01 -3 0 -1
527 2 7.0224776937430020e+00 1.2630445290195533e+00 5.6592398040846099e+00 -2 0 0
291 2 9.4147518503978880e+00 9.4409920463492440e+00 6.1033237865893772e+00 0 0 3
462 2 9.4246545863617808e+00 4.7195172535346765e+00 1.1908386999693787e+01 -4 0 -2
651 2 8.5120306857250068e+00 3.1439671113052556e+00 5.6370604540602134e+00 -5 0 0
996 2 6.2576872313583625e+00 8.2486992042131835e+00 8.6341814899843250e+00 3 0 1
611 2 -1.9519827153209326e+00 2.7417121468113095e+00 5.9808157858857962e+00 0 0 2
890 2 9.8718615264814531e+00 -8.1548041272250538e-01 6.5339701400975656e+00 -1 0 0
190 1 1.4140414622320012e+00 1.0322370913413746e+01 1.5164902406965787e+01 -2 0 -3
1007 2 -1.2681680090426615e+00 1.0301324821231804e+01 6.0804030327540337e+00 -2 0 -2
102 2 4.5025439570638062e+00 6.8355653898484334e+00 1.2399359916391932e+01 -1 0 -1
497 2 4.0234455399257172e+00 2.1456573213073558e+00 8.2475212876878281e+00 0 0 1
498 2 3.3987179658567275e+00 1.5962685135944792e+00 6.8058166838443128e+00 0 0 1
395 2 8.6480128365110733e+00 6.5537191842950548e+00 3.2142783736361218e+00 -3 0 -3
540 2 1.8574203908218188e+00 -1.2072801825829385e+00 1.2309342465019002e+00 -4 0 -3
349 1 8.0883245769216607e+00 1.6635058006085095e+00 1.7940851890788132e+01 2 0 3
679 1 7.1354128348106878e+00 4.0330812832484986e+00 1.6555263833874221e+01 -3 0 -3
398 2 9.6006317416888987e+00 4.6097063558902089e+00 4.2728217167893572e+00 2 0 0
670 1 2.6399660821352278e-01 -5.8483105527714430e-01 7.0444922666903249e+00 -3 0 -1
922 1 4.8060226942377460e+00 1.0448068078655396e+01 1.5847630897780258e+01 -3 0 -3
321 2 1.1034567565517619e+01 7.6769055278485698e-01 1.3216686925684485e+01 -4 0 -3
943 1 3.8720745049328902e+00 1.1651510748774534e+00 1.5714171373193679e+00 0 0 3
634 1 -1.6842456109768247e+00 7.8232042141530851e+00 8.9129736102196944e+00 1 0 -2
927 2 -4.2979882384862593e+00 2.5259317305861417e-01 1.2980693481804753e+01 2 0 2
220 1 2.9010277828900843e-01 8.7539347369583798e+00 1.7275821653702248e+01 -2 0 -3
172 1 1.1199451213598410e+01 3.2138474536859700e+00 1.4522270331058275e+01 -1 0 -2
298 1 -4.9846968440681154e+00 1.5858805261752793e+00 1.7930931886736030e+01 -2 0 -2
680 2 7.0915065679901756e+00 4.9191153628962416e+00 1.6969857197857724e+01 -3 0 -3
993 2 1.2699846713748030e+01 -6.8570736801680154e-01 9.5614117490145283e+00 1 0 1
921 2 1.0279447238486595e+01 -1.1621985475916490e+00 9.2167313773643453e+00 0 0 -2
944 2 4.2726933045641244e+00 1.2907389437437313e+00 2.4857335734885662e+00 0 0 3
100 1 3.8999784478400503e+00 7.3891339264729652e+00 1.1806777145894854e+01 -1 0 -1
1667 2 5.7062888334903414e+00 4.3417905935095300e+00 1.3371155629394094e+01 -1 1 -2
352 1 1.1077610672388220e+01 6.6804177183268951e+00 8.8807081430201151e+00 -1 0 0
174 2 1.0338951499744924e+01 3.0450923001248640e+00 1.4224420616109256e+01 -1 0 -2
388 1 1.4334535986813311e+01 -4.3115548652981950e-01 4.5612822714752950e+00 -1 0 0
465 2 1.2619288038887917e+00 8.1146482397889592e+00 2.9365005806305340e+00 2 0 0
84 2 1.2247348503526540e+01 5.9658198495112371e+00 6.0508774818831608e+00 -1 0 -3
460 1 9.5365733085703042e+00 5.6245886114573445e+00 1.2267459687808836e+01 -4 0 -2
607 1 6.2628246248229251e+00 3.0223498919927856e+00 1.6898790719021747e-01 -3 0 0
775 1 1.1571083769423009e+01 1.6819391638667236e-01 3.5623530078316318e-01 -2 0 2
353 2 1.0222196750119753e+01 6.6650623322841618e+00 8.4736771452762429e+00 -1 0 1
252 2 2.4976818642597420e+00 9.6014258012561893e+00 1.3969922709784408e+01 -3 0 1
595 1 2.6012248867776346e+00 3.8233537345446260e+00 4.2718964581202199e+00 3 0 -2
950 2 -3.5932950713697545e+00 -1.3515706805474386e+00 1.8077881790664634e+01 -1 0 1
109 1 2.0287222831843419e+00 1.4796545740516378e+00 1.6856494044888404e+01 1 0 -4
615 2 9.8837314032716677e+00 2.6862769497403249e+00 7.4392772422634934e-01 -2 0 0
229 1 2.6355138091349266e+00 4.4331803144010373e-01 5.6989458148004566e+00 0 0 -2
461 2 9.2412054923982687e+00 6.3326857628309341e+00 1.1649202896740887e+01 -4 0 -2
599 2 -1.5980641675537837e+00 6.3620996434554122e-01 9.3201544689140228e+00 -3 0 1
408 2 1.0585984180972972e+00 1.3681972100706838e+00 1.2124312519630914e+01 -2 0 -2
777 2 1.0952914258909507e+01 9.5764626523890950e-03 1.0954885973707560e+00 -2 0 2
182 2 1.4033553032757876e+01 5.5192897636300442e+00 7.5136735273868682e+00 -1 0 0
35 2 1.7427892496106054e+01 8.3848973357451140e-01 1.1198629922910524e+00 -2 0 0
926 2 -3.0178150984180050e+00 -3.3295502824899259e-01 1.2321048709779390e+01 2 0 2
561 2 8.1920558015212102e+00 3.6390178797060146e-01 8.0596589786347028e+00 -2 0 1
475 1 5.7065886281140425e+00 5.3332679332570443e+00 1.0531558376672447e+01 -1 0 2
68 2 9.9123610418669781e+00 6.8534624067467611e+00 1.6176878293432924e+01 -4 0 -3
329 2 5.2525522443463135e-01 1.0212242860671319e+01 9.3769324001328567e+00 -1 0 0
133 1 9.6799828682789357e-01 2.2195341272088180e+00 9.1548368275589969e+00 1 0 -1
610 1 1.5039050031092664e+01 2.7215032381010795e+00 6.1358143729197332e+00 -1 0 2
675 2 -4.0700884360621608e+00 8.4471025024440838e+00 1.7806280984802335e+01 0 0 -4
82 1 1.1653980140102494e+01 6.6142422574939532e+00 5.5451657044429359e+00 -1 0 -2
300 2 -4.6111340428900229e+00 6.8284158644204673e-01 1.7949792660881609e+01 -2 0 -2
917 2 3.4638029423694969e+00 -1.0589743913061298e+00 3.1769418183109308e+00 1 0 3
782 2 3.6197639017937617e+00 2.9301763403519159e+00 1.0557349957203328e+00 -2 0 -2
690 2 -3.4455488524514721e-01 1.3047011333066667e+00 6.4207656570230363e+00 -2 0 0
762 2 2.3634153267977345e+00 -9.6807104429685498e-01 1.9018717209105105e+01 -3 0 1
728 2 6.9443604468605358e+00 8.2448953724599061e+00 1.1633947508066994e+01 0 0 1
113 2 7.9371619491701741e+00 1.7611247768624620e+00 1.4573014579493337e+01 -2 0 -1
231 2 1.9419332439201251e+00 7.7520874712635912e-02 6.2782168389812538e+00 0 0 -2
951 2 -3.0463631126530673e+00 -8.5883354103128384e-01 1.6849560106758812e+01 -1 0 1
222 2 -3.2254308493988759e-01 8.9043389327051266e+00 1.8036372469577252e+01 -2 0 -3
504 2 4.7998648664877059e+00 -4.5200056344715411e-01 8.1097023996778130e+00 0 0 -1
67 1 9.3044623486560134e+00 6.1796490942429667e+00 1.6442606438432311e+01 -4 0 -3
727 1 7.4496655524364055e+00 7.3914267588696223e+00 1.1534909322481530e+01 0 0 1
114 2 6.6076887424136590e+00 1.0142137410846392e+00 1.4613753156055589e+01 -2 0 -1
425 2 1.2730349551376740e+01 3.5089278968355790e+00 7.9239305378042346e-01 -2 0 1
544 1 2.5006788766183830e+00 3.6968362241639854e+00 1.3387326270683875e+01 2 0 1
875 2 -3.9692690021242591e+00 4.7215908379211715e+00 1.2956464017009136e+01 -2 0 1
1001 2 1.0045260498951500e+01 2.0885874883055355e+00 4.3652930728372974e+00 -1 0 1
496 1 3.5249034212512891e+00 2.3663201304471504e+00 7.4541125790531266e+00 0 0 1
230 2 2.1757448756139923e+00 9.5054985635315159e-01 5.0229560919689069e+00 0 0 -2
337 1 3.5774824141183350e+00 5.7069890160028285e+00 2.6077025479251290e+00 -1 0 -1
766 1 1.3470422078761844e+01 8.5602945371496464e+00 8.0808933981166611e+00 -4 0 -1
221 2 1.1200439441174499e+00 8.4079886802727319e+00 1.7714029971913902e+01 -2 0 -3
152 2 9.4353759666143944e+00 -4.7328755781795651e-01 3.1019738138641917e+00 3 0 0
250 1 3.4102127705606362e+00 9.5304363513675465e+00 1.3520654822559495e+01 -3 0 2
92 2 1.1779503104459849e+01 9.9058264150969695e+00 1.0007730184772628e+01 0 0 1
641 2 1.4073755572295223e+01 6.3426419952348114e+00 1.0273296381171329e+01 3 0 -1
110 2 2.6588402474283210e+00 1.0094534511146920e+00 1.6211107245593169e+01 1 0 -4
713 2 -7.6822775970520851e-01 -1.1723136927016484e+00 1.2456834979317964e+01 0 0 3
232 1 8.6250733082664119e+00 9.7232898506178636e+00 9.3292205664586838e+00 -2 0 0
207 2 4.8052559203013896e+00 2.2142807179422768e+00 1.2732396312634462e+01 3 0 0
808 1 6.9031541058322539e+00 4.4264502983665999e+00 8.2787212070797320e+00 -4 0 -1
952 1 1.5141937552320085e+01 6.5648946224344709e+00 4.0996766751925833e+00 -1 0 1
577 1 3.5564900622403766e+00 6.7647215905329094e+00 1.5914356064200781e+01 0 0 0
963 2 2.6334880699897729e+00 -8.0575763486990759e-01 1.4883509931757290e+01 -3 0 -1
1000 1 9.5201965575449616e+00 2.8109999529268093e+00 3.8850726773934663e+00 -1 0 1
294 2 -5.4723286354862566e-01 4.7590839880614881e+00 8.9794976263777233e+00 1 0 -3
390 2 1.4234343587509144e+01 5.1506731400691774e-01 4.3429143747462140e+00 -1 0 0
47 2 1.4045825306365398e+01 9.4458823858679644e+00 4.9291137428776137e+00 -3 0 0
521 2 8.2259591650151656e+00 2.1927696291957472e+00 9.6174671255167876e+00 -5 0 -2
813 2 1.2190161222032771e+01 3.7346310542081964e+00 9.4167307449937407e+00 -2 0 -1
912 2 1.1382980856358452e+01 4.2140446168167700e-01 5.3167516506782579e+00 -2 0 1
807 2 -3.6491083103735003e+00 8.2637288919722973e+00 1.1383894391061762e+01 -3 0 1
953 2 1.4763334757184687e+01 5.8653001894629631e+00 4.6385834012732161e+00 -1 0 1
771 2 1.3171718436684623e+00 4.7551031294380683e+00 7.3854339927224348e+00 1 0 -3
185 2 5.1661803877574819e+00 2.7580338881533617e-01 4.3128870185547746e-01 -4 0 -6
809 2 7.4753283501803960e+00 5.1723529514109829e+00 8.0924892488359692e+00 -4 0 -1
866 2 2.1314767434749555e+00 3.7872271451553861e+00 1.6959116499724036e+01 -3 0 -1
94 1 2.1130121972148841e-01 5.3396143467365125e+00 2.1820070127838429e+00 -1 0 -1
225 2 -2.8781320118918519e-01 7.1081521861571453e+00 1.6617190748642969e+01 -2 0 -2
770 2 6.2010548011173183e-01 3.6073378800851472e+00 6.4518368696437625e+00 1 0 -3
123 2 8.1106724671444006e+00 6.1439238498483402e+00 1.3545601982841999e+01 -2 0 -1
440 2 -1.3997938439328776e+00 4.4545052573229809e+00 1.2304231163052705e+01 -2 0 -2
383 2 6.5538786697818292e+00 6.8314205217689015e+00 1.8452329217074379e+01 -2 0 0
253 1 8.9942639406098266e+00 1.0445701455699693e+01 1.4799485058490156e+01 -3 0 -3
499 1 -1.8827177985281107e-01 1.6481344747541429e+00 1.3235177819723731e+01 1 0 1
910 1 1.1665448507654938e+01 1.3589427538715722e+00 5.1388386965686577e+00 -2 0 1
546 2 1.6783621001793749e+00 3.2094320700576020e+00 1.3444962769794520e+01 2 0 1
584 2 -3.9301173981421766e+00 9.8553093474007589e+00 1.2147263248838955e+01 -4 0 -4
729 2 6.8476479792627494e+00 6.7264728322190699e+00 1.1241087419212869e+01 0 0 1
612 2 1.4538022823934039e+01 2.5862651959726897e+00 5.3242532025329110e+00 -1 0 1
674 2 -4.4522084721919306e+00 9.8569380610163826e+00 1.8625259806509423e+01 0 0 -4
121 1 7.6643000316314520e+00 6.4027840041898365e+00 1.4333174997460775e+01 -2 0 -1
911 2 1.1273197553054835e+01 1.6710540284719793e+00 5.9779394247752347e+00 -2 0 1
424 1 1.3546637705568703e+01 3.8647230270442794e+00 1.1621195641781827e+00 -2 0 1
811 1 1.1371223869515889e+01 4.1021062755508044e+00 8.9872213921077826e+00 -2 0 -1