LAMMPS data file via write_data, version 8 Apr 2021, timestep = 500000

384 atoms
2 atom types

0.063693949214266 15.006404050785749 xlo xhi
-0.007006460961455523 14.177239460961701 ylo yhi
0.07813653106527581 13.627586468934917 zlo zhi
5.163825018519054 5.044745202616096 3.5594698833660443 xy xz yz

Masses

1 16
2 2

Atoms # atomic

1 1 7.65993961945434 5.203623957924449 3.9475869621365973 0 0 0
2 2 7.354841164254252 6.056171149677587 4.333619559919067 0 0 0
3 2 6.888164679651352 4.823216236716847 3.584311365774058 0 0 0
4 1 10.074083309300908 6.76034585113827 11.051714521221607 0 0 0
5 2 9.79937300335307 7.67810871044341 11.273256819616504 0 0 0
6 2 10.676240232903083 6.489740060747395 11.801378103761072 0 0 0
7 1 10.054950593225042 12.33717090588707 4.119333482765397 0 0 0
8 2 10.404043353237054 11.802910354040867 4.856405254684875 0 0 0
9 2 9.689687648510242 13.16571997683002 4.394744606945245 0 0 0
10 1 12.621313062726802 13.893863107486823 10.916564366786186 0 0 0
11 2 13.324515852239204 14.230485263622619 10.226735191154267 0 0 0
12 2 11.850441924057112 13.51810356809672 10.437189473365635 0 0 0
25 1 11.40981888804951 8.164361725564001 6.263954682641983 0 0 0
45 2 7.314626588220652 14.532323498800826 5.696296093462936 1 0 0
27 2 10.99949738781839 7.5105102245001065 6.880596620683304 0 0 0
28 1 14.068014289590034 9.993114145182636 12.798543858432545 0 0 0
29 2 13.235223056687055 10.541386441413607 12.569222499220006 0 0 0
341 2 6.986591159561616 8.766251833841443 11.872943670514942 0 0 0
31 1 14.105788529345178 15.117230461577453 6.322763691856528 0 0 0
193 1 8.239081526424302 2.6662009194443153 2.5778343735842397 0 0 0
33 2 8.256834294880768 1.6131667175524196 6.108386703032966 0 1 0
34 1 16.68900742386679 17.010866431640075 13.043182616219257 0 0 0
125 2 4.929846553603833 4.495083376253623 10.591626549476041 0 0 0
368 2 3.843920714471662 1.5478591774648707 4.776259224329288 0 1 0
49 1 5.242899270609786 3.8177676257743967 2.796215388332792 0 0 0
50 2 5.279657782272643 2.8993159382029603 2.373681215054978 0 0 0
51 2 4.746983993075259 4.229080363142317 2.0375960983736197 0 0 0
52 1 7.71885763819306 5.514667948410844 9.700649683846528 0 0 0
53 2 7.0912208281500195 5.163833751226165 10.41214688570663 0 0 0
54 2 8.441838264208688 6.0418730204886995 10.15812550361888 0 0 0
55 1 7.912886331189531 10.703159772415496 2.7875650585033305 0 0 0
56 2 8.118520658416939 9.881345750349746 2.2137192538007424 0 0 0
57 2 8.70577426221129 11.109660579373672 3.1413955536193834 0 0 0
58 1 10.342407914858924 12.382576900326843 9.72892395488007 0 0 0
59 2 9.979479902497834 12.805363032031861 8.929122438192858 0 0 0
60 2 10.588480960410116 11.445361652546135 9.513244122824323 0 0 0
73 1 1.1235249447521896 0.5608492842930151 0.6988009962331794 0 0 0
74 2 7.082286957211191 14.291304489472932 1.1123108012586447 0 -1 0
365 2 10.343233931431016 9.960578198583471 12.378364734148656 0 0 0
76 1 3.9430135483145525 2.7402079973042834 7.231310118819374 0 0 0
270 2 12.622970266323994 7.6450729255040955 10.225490458193514 0 0 0
78 2 4.682184874414306 2.2514101524298793 7.645730876789473 0 0 0
79 1 3.6705860140543844 7.997916950041589 0.7215467693143769 0 0 0
80 2 4.409265418649802 7.380457576973091 0.8638748655335985 0 0 0
372 2 12.94665814934147 16.77731164958335 12.018605969413738 0 0 0
82 1 6.25305314214044 9.469532115939488 7.469750018234212 0 0 0
371 2 12.311281515575713 15.495725708825221 11.462516961195721 0 0 0
369 2 10.48231254384309 15.236065661341836 4.8255213483189 0 0 0
97 1 5.338597122512955 4.49776677609837 5.727591235730083 0 0 0
98 2 4.895291791106755 5.1187480512760635 5.057069795443631 0 0 0
99 2 4.673947681158445 3.9355993750171647 6.135438634162132 0 0 0
100 1 7.938798412837758 5.868280605159417 12.914600742911121 0 0 0
101 2 8.091966190373146 6.558561246456935 13.604427639879152 0 0 0
102 2 7.186100419320006 5.282874127728278 13.307666277236589 0 0 0
103 1 7.675408087716891 11.535783249590652 6.203622220984365 0 0 0
104 2 6.94380008877052 10.95191583567001 6.438423261948925 0 0 0
105 2 7.281085809822957 11.964192023972764 5.442328917703597 0 0 0
106 1 10.367431447941527 12.95657638556317 12.644290806452721 0 0 0
107 2 10.772627452973433 13.645660663470716 13.169661075077176 0 0 0
108 2 9.82077034755098 12.510750969095366 13.325250792298535 0 0 0
121 1 2.95222082313572 3.087533194265381 4.002859582401651 0 0 0
122 2 3.8519808613985163 3.43067551262838 3.6967387739434017 0 0 0
77 2 3.2521972346965287 2.069412393864402 6.94170447756746 0 0 0
124 1 5.692989784201292 4.6032599882704925 11.1900162290892 0 0 0
367 1 9.563839570572458 14.943409040744427 5.010006960952575 0 0 0
126 2 6.15105478620299 3.7353352218729863 11.355731547645744 0 0 0
127 1 5.867713152993235 10.026262446256519 4.445977769640473 0 0 0
128 2 6.123817355392924 9.152062237624154 4.7788169889590115 0 0 0
129 2 6.696191797482742 10.29946023508397 3.9739204376532964 0 0 0
130 1 8.122669974912531 11.588627215764927 11.080510945784857 0 0 0
348 2 8.685122415732192 15.016093015008064 10.675568396670103 0 0 0
132 2 8.866239242492401 11.990814269931914 10.578560089387844 0 0 0
145 1 6.880639148107213 2.18549402310093 4.851201102483212 0 0 0
146 2 6.513664670881639 3.051157876753176 5.130621383395157 0 0 0
147 2 7.292821498374939 2.3126294188191827 3.9762460694868755 0 0 0
148 1 9.285312040052302 3.607990111445613 11.848551458196077 0 0 0
149 2 8.950235252630852 4.463871868195462 12.23602107320739 0 0 0
150 2 10.154679276202707 3.480950270173486 12.349435559556511 0 0 0
151 1 9.108989545562288 9.187621598995403 5.243729122235902 0 0 0
152 2 8.606292011647406 9.949296750387798 5.557350467070213 0 0 0
153 2 9.809203008084905 8.980397551615702 5.833771402728409 0 0 0
154 1 11.927007369022958 10.946598595835484 11.827275820890723 0 0 0
155 2 11.53860815462677 11.845235536363933 12.006801150599784 0 0 0
156 2 12.473512362108153 11.110838407858951 11.05202497262118 0 0 0
169 1 9.196250916558688 4.446985928751453 5.9074799226515315 0 0 0
170 2 8.40888414755734 4.694341889787979 5.402307504362305 0 0 0
171 2 8.882886196985934 3.84048684609316 6.626224629940261 0 0 0
172 1 11.665734066971572 5.967785766044367 12.983193413659382 0 0 0
173 2 12.37287291164373 5.367388046978682 12.614747604860828 0 0 0
174 2 12.154981420093034 6.771225569567769 13.371804757405222 0 0 0
175 1 11.25701462040285 11.238811107246818 6.369051090201947 0 0 0
176 2 11.243315804004332 10.739687053602674 7.191083859665217 0 0 0
177 2 11.921664977018388 10.856374451896059 5.761530707691845 0 0 0
178 1 14.4480271999616 13.286288341004761 12.682329293211309 0 0 0
179 2 13.601065120617134 13.471257949835056 12.191295506421474 0 0 0
180 2 14.956926478067995 12.571055384182747 12.234685593002082 0 0 0
266 2 10.496428611521287 6.346717482486621 3.05975057108808 0 0 0
338 2 4.378366906066905 7.081839266309307 4.5001575006631285 0 0 0
195 2 7.945626944408816 3.5454841641059196 2.208800434571077 0 0 0
196 1 10.999169172589813 4.122161774811037 9.451011601882508 0 0 0
197 2 10.436245446635033 3.922228728797932 10.179197122169592 0 0 0
198 2 10.631299705712552 4.961583538614618 8.996368751759542 0 0 0
199 1 10.788097419372473 9.569968483969566 2.921917563586741 0 0 0
200 2 10.546145861614352 10.218309262577398 2.275158645584241 0 0 0
201 2 10.151044941835858 9.36946356969759 3.6114740439438155 0 0 0
202 1 13.64785071488446 11.36686156730387 9.607111064405512 0 0 0
203 2 13.19362198815411 12.107585400266055 9.120962303675128 0 0 0
84 2 5.5124878512958775 8.993834815467721 7.110017083301342 0 0 0
217 1 5.466071661800703 1.0930134379265148 1.6313237050286535 0 0 0
218 2 11.24844167459187 14.579715364093081 1.9257217859323863 0 -1 0
219 2 5.987411183722658 1.5314157992714166 0.9005281074956605 0 0 0
220 1 8.070957174050934 2.8396529505237758 8.381125190181736 0 0 0
221 2 7.8671913622307725 3.6718833368250814 8.885181518027528 0 0 0
222 2 7.244068790189604 2.304956121245222 8.32702432292896 0 0 0
223 1 8.16096640954971 8.574160781697014 1.4281084589042075 0 0 0
224 2 8.886512076844634 7.925803444237833 1.7245280924981405 0 0 0
225 2 8.423257558870958 8.785549417776481 0.4586054681667878 0 0 0
226 1 10.713147390748896 9.882586852869359 8.91118185009533 0 0 0
227 2 11.354013867245333 9.196146279731186 9.210376392771574 0 0 0
228 2 9.862207711832822 9.420845360037914 8.854609912200445 0 0 0
241 1 7.665145714238244 4.659190568598817 0.6639928038514502 0 0 0
242 2 8.222755750575882 5.338878668387632 0.14633561199784817 0 0 0
243 2 6.968037542466648 5.233979699525088 0.9822729915709661 0 0 0
244 1 10.162452741888101 6.327249976742913 8.035648068929872 0 0 0
245 2 9.536030908249284 6.966017554393875 8.312495083479435 0 0 0
246 2 9.740514309616282 5.9585003312572855 7.204179766842746 0 0 0
247 1 10.126442501238776 11.519749633741393 0.9712847674425302 0 0 0
248 2 10.663730773783845 12.283260509921604 0.6316622009328704 0 0 0
249 2 9.941999606431812 10.973902358357103 0.14428406561314727 0 0 0
250 1 12.604070121021836 13.328489607118613 7.612300837397536 0 0 0
251 2 13.277460601871606 13.703377220754222 6.988597717380979 0 0 0
252 2 12.086244006877832 12.62478331252192 7.114885896760723 0 0 0
265 1 9.729181923814442 6.372037530742327 2.436887533640404 0 0 0
32 2 14.818697727165679 15.616981615286017 6.686533673022273 0 0 0
267 2 9.006026429527406 5.7676883464825055 2.8551900359264217 0 0 0
268 1 12.089440250771709 7.537844622483859 9.382179890532043 0 0 0
269 2 11.27814429426398 7.092031684638618 9.897423022435317 0 0 0
344 2 6.111050751906349 13.434008407273726 3.7524439232399986 0 0 0
271 1 12.121403152262396 13.236470839850018 2.5800070399778834 0 0 0
272 2 11.428209279605941 12.7870042113274 3.1442346333207594 0 0 0
363 2 7.949033181419943 8.160729244080754 5.179985415814607 0 0 0
274 1 14.490299354445634 14.994351206407504 9.568170822601711 0 0 0
275 2 14.14791447355655 15.822800136797825 9.096218635998449 0 0 0
370 1 12.080461498244611 16.368042535833606 11.866738116433805 0 0 0
289 1 5.919222043535736 6.687014186322402 1.366440749265007 0 0 0
290 2 6.470303326706521 7.494066852021193 1.3962469835283025 0 0 0
291 2 5.693065987076598 6.418634397766937 2.274930416029943 0 0 0
292 1 8.431185991736344 8.383804303616886 8.586027404899799 0 0 0
293 2 7.672089422419655 8.772604122401074 8.034818895078185 0 0 0
294 2 8.002190782224218 8.140182160903159 9.414415734527497 0 0 0
295 1 8.411411175629421 13.682154662536515 1.7210555309714768 0 0 0
296 2 8.947917017327935 12.871985554642384 1.5900642960554858 0 0 0
297 2 9.077677461629092 14.436355720678977 1.7300045916513034 0 0 0
298 1 11.131878824364078 15.545405930725682 8.533961781816636 0 0 0
299 2 10.915886794010584 15.444040859474807 9.454968370885167 0 0 0
300 2 11.436129316162836 14.707653240305254 8.156346012265017 0 0 0
313 1 3.415686817799967 4.536938462952243 0.9585326119085743 0 0 0
314 2 3.8113461942023927 5.0811229974045276 0.29949371233123107 0 0 0
315 2 2.636527379416559 4.9959445524512835 1.3282316244275072 0 0 0
316 1 6.382199349484802 6.42454105486364 7.43561160962402 0 0 0
317 2 6.191062349589927 5.607166077800247 6.981367577899137 0 0 0
318 2 6.880050024575499 6.210294966330919 8.224342359335713 0 0 0
319 1 6.220601985791711 11.679107746670171 0.861548088522654 0 0 0
320 2 6.8732569330634234 11.423188033087328 1.5461074702322943 0 0 0
321 2 6.597309181825407 12.295873760168394 0.27577033115183275 0 0 0
322 1 9.082324499789824 13.437657933196606 7.641794869408003 0 0 0
323 2 9.401664904561086 14.069702681083895 6.962122605755329 0 0 0
324 2 8.655399553439352 12.716089026757649 7.17502044295498 0 0 0
337 1 4.4122095672735995 6.232565927815096 4.01085087752051 0 0 0
131 2 7.47241156659747 11.34887318831281 10.401645158049677 0 0 0
194 2 8.297954121663684 2.0398015324846717 1.8048841093697514 0 0 0
340 1 6.812097262205661 8.08936290472714 11.17927516007817 0 0 0
364 1 9.521106043278861 9.483661596732345 12.368928944356536 0 0 0
342 2 7.116360544878482 7.286395340574056 11.555330189302106 0 0 0
343 1 6.936651727414481 13.551191940006708 4.229027692382995 0 0 0
362 2 6.806067797186828 7.322841494059146 6.039026646012105 0 0 0
345 2 7.597555786507356 13.466395480926531 3.5273442446823786 0 0 0
346 1 9.651754274287212 15.04664170691087 11.009512867133548 0 0 0
347 2 9.756116182934997 14.164041929335779 11.403488850914444 0 0 0
366 2 8.886920427353516 10.096085421185258 11.964976013495997 0 0 0
361 1 7.142262794540414 7.50642288758453 5.117234793901187 0 0 0
26 2 12.167123615456875 8.487912350376725 6.816310333200048 0 0 0
134 2 10.022489541415778 3.545447067819375 4.829768554026324 0 0 0
273 2 12.83490852908565 13.470812946211826 3.280205310961254 0 0 0
339 2 3.508062961870619 6.118326115860988 3.6049836516810156 0 0 0
282 2 5.160539728372869 7.0026877755058345 8.687704876853932 1 0 0
204 2 13.61434449691816 10.63178146558793 8.947881977442178 0 0 0
30 2 14.732627890150251 10.632656239817527 13.08542524387844 0 0 0
35 2 17.368610751100366 17.572586377039823 13.518517186779489 0 0 0
276 2 14.939500290908384 14.53713916215963 8.794917532596957 0 0 0
13 1 14.537999860495681 5.096927755924907 4.003225953252791 0 0 0
14 2 13.90164649455652 4.394750882151459 3.739342884259338 0 0 0
15 2 15.093550975016234 4.707612176544157 4.7417136996479075 0 0 0
16 1 17.620233420611584 7.067934048881225 11.043608222980993 0 0 0
17 2 16.88787832922077 6.551388847107037 10.704504628112161 0 0 0
18 2 18.3056866345552 7.2210702411466965 10.391231935553504 0 0 0
19 1 17.715995723565428 12.259845932780355 4.356795574397569 0 0 0
20 2 18.375699185618668 12.530570387112263 3.620384425974347 0 0 0
21 2 17.14659916071942 11.566040002470588 3.960884891253064 0 0 0
22 1 19.87486359706163 14.225466155223836 10.745340919461016 0 0 0
23 2 20.44092818244318 14.485067708234896 10.040614410980512 0 0 0
24 2 20.507137254236994 13.731808483048201 11.326793761082788 0 0 0
37 1 19.188239235887572 8.262362111760641 6.082046801072891 0 0 0
38 2 18.475018681378042 8.756034498183217 5.6758645292847625 0 0 0
39 2 18.760073521889144 7.5881427557041015 6.576307515483244 0 0 0
40 1 21.536843935021423 9.987048079402411 13.084390434555164 0 0 0
36 2 17.07661149737773 16.429619787200522 12.35040190460011 0 0 0
42 2 21.049213629663242 10.58729614381679 12.464024191886484 0 0 0
43 1 22.083459962134093 15.31790998756453 6.273070857015304 0 0 0
44 2 16.16049982346505 1.6109761689936137 5.844208301840095 0 1 0
380 2 11.462312473947584 1.5151713761166008 4.763205128064144 0 1 0
46 1 24.064997915221788 16.86856051049779 13.268002838246883 0 0 0
384 2 19.94732912902461 15.814237563849785 11.326015305135412 0 0 0
350 2 11.572860918805079 6.99384095078325 4.954081354334872 0 0 0
61 1 12.754097429592397 3.433449792985076 3.0759295763467605 0 0 0
62 2 11.886438255601425 3.448494734702176 3.5703360089118195 0 0 0
63 2 12.476151201185884 3.903693409628385 2.247541381170149 0 0 0
64 1 15.332566509349286 5.436452286174767 9.752820104976477 0 0 0
65 2 14.837694883013286 5.883945263612623 9.020120434710277 0 0 0
66 2 14.652181739997015 5.14924263708601 10.357991743935203 0 0 0
67 1 15.322218007664226 10.917257774253109 2.660708458798841 0 0 0
68 2 15.606908124533325 9.99375351516278 2.4135107105193443 0 0 0
69 2 14.50066082070669 10.825164438508727 3.190701017583783 0 0 0
70 1 17.800579309973816 12.196024772542616 9.465927796151544 0 0 0
71 2 18.569263610804118 12.60864355088029 9.799123595017079 0 0 0
72 2 17.969042694788783 11.25861310184944 9.319103107091783 0 0 0
85 1 8.588382606414337 0.7734013751200983 0.6523607488785971 0 0 0
86 2 14.239220110035108 14.255034976930729 1.1653677378355225 0 -1 0
87 2 9.249148038997816 1.2400061006934702 0.10193737642407774 0 0 0
88 1 11.092638786608301 2.272933760066159 7.449033743656182 0 0 0
376 1 17.30060237710643 9.500425795606164 12.237590045914185 0 0 0
90 2 17.03686550256334 15.964685090882382 7.586472404867514 0 -1 0
91 1 11.23999760005769 8.046134029733343 0.5993653426406018 0 0 0
92 2 12.056786023770007 7.551994182892093 0.8949399612968119 0 0 0
135 2 9.716228200560673 2.6916119929386375 3.5933035975176453 0 0 0
94 1 13.614377125613577 9.585104510899853 7.629401480349579 0 0 0
95 2 14.340823485904892 9.037844632344267 7.9443059384203005 0 0 0
96 2 13.975218128431331 10.264477699960988 7.006837052106795 0 0 0
109 1 12.446562226764119 4.198560083013997 5.954856184035352 0 0 0
110 2 11.977486558266122 3.767017865939723 6.671888139857407 0 0 0
111 2 13.117299932241984 3.533905038751537 5.654121867399408 0 0 0
112 1 15.357664772419328 5.972959835620591 12.84391291932965 0 0 0
113 2 16.10665531063223 5.419004659332146 12.473232408142275 0 0 0
114 2 15.818869001147286 6.675998073680119 13.367746512220272 0 0 0
115 1 14.921292378450046 11.42060717437182 6.094970318929341 0 0 0
116 2 14.48578921557526 11.79671713799536 5.340590549546837 0 0 0
117 2 15.241546003416461 12.155564743694063 6.656563616212357 0 0 0
118 1 17.893499910080557 13.156671971050436 12.735509646987108 0 0 0
119 2 18.144929179643867 13.833804714002742 13.409168104320988 0 0 0
120 2 17.20181019449436 12.688349191751158 13.245955753123281 0 0 0
133 1 10.357189833340314 2.7913504876424784 4.266811668220799 0 0 0
381 2 17.309604600560668 14.289428858934668 4.981074116149264 0 0 0
377 2 17.22413963811071 8.635213286599102 11.78045061205461 0 0 0
136 1 13.1295293330719 4.715636608395568 11.230267751859417 0 0 0
137 2 13.502259498147069 3.868467823891302 11.502109389382259 0 0 0
206 2 16.646910401739436 2.768065081413963 2.905397705855615 0 0 0
139 1 13.049086854181702 10.168029113878884 4.305606446271881 0 0 0
140 2 13.363839308467602 9.295004090952784 4.599198825687087 0 0 0
89 2 10.953174521819987 2.853365865481805 8.227687261901744 0 0 0
142 1 15.776657526368972 11.706091050744678 11.050241724280518 0 0 0
143 2 16.538767231556584 12.05039484525837 10.488634913267305 0 0 0
41 2 16.913381036004612 6.994253090329851 0.12975659786036195 0 0 1
157 1 14.519660116457633 2.1088613391474005 5.087201857312994 0 0 0
158 2 13.715846897880567 1.64490645003372 4.959292633043836 0 0 0
159 2 14.79990360800869 2.355974601862941 4.193751724828615 0 0 0
160 1 16.905064129943604 3.975898351864207 11.587671847956871 0 0 0
161 2 16.081223543071236 3.4271358063664774 11.591541121139052 0 0 0
162 2 17.411436768369605 3.520621024991529 12.29229926716367 0 0 0
163 1 16.673269994482002 9.253304494721515 5.062787251142937 0 0 0
164 2 15.915754961298738 8.660813423239066 5.107240134831143 0 0 0
165 2 16.23085036582297 10.130029558668868 5.2495929463503215 0 0 0
166 1 19.414493317151276 11.379493630982882 11.692640883867012 0 0 0
167 2 18.868859115154965 10.579442927939995 11.808419290009926 0 0 0
168 2 18.916633611290177 12.119869661236205 12.185102479226256 0 0 0
181 1 16.42324016647473 4.426867781965932 5.862650404230167 0 0 0
182 2 16.551223800880685 3.77037310451738 6.524389671255943 0 0 0
183 2 16.836194971107037 5.207776762182966 6.239244946140535 0 0 0
184 1 19.00305532455906 5.920950169245449 13.032834824403729 0 0 0
185 2 19.653106105619383 5.387980667381399 12.553139738632131 0 0 0
186 2 18.443675550434953 6.237323381737012 12.272109696177724 0 0 0
187 1 19.00998423310515 11.375604043758292 6.349316069169057 0 0 0
188 2 19.74782240676767 10.85683367288354 5.973471524651887 0 0 0
189 2 18.4310013167805 11.677469889845119 5.601022778515537 0 0 0
190 1 21.415227969851955 13.33188408441533 12.751485351150743 0 0 0
191 2 22.212995155280055 12.860438013643373 12.376790044751488 0 0 0
192 2 21.734141797460325 14.013485350420906 13.37285101645114 0 0 0
205 1 15.710375817169286 2.6412100062741337 2.6422863722268177 0 0 0
378 2 16.65459039465133 10.12378626355929 11.86397983054951 0 0 0
207 2 15.334279509869956 3.3630883783717964 1.9999570944563438 0 0 0
208 1 18.607102692733687 4.415483513488104 9.419609665277275 0 0 0
48 2 24.844222745243165 17.452279324161054 13.485305979105116 0 0 0
210 2 17.79773580475603 4.15957949356571 9.916437215335543 0 0 0
211 1 18.54345468356631 9.578731989995035 2.924566461710712 0 0 0
123 2 17.53261385347085 3.651352387066263 4.733173376501549 -1 0 0
213 2 17.867792301650713 9.480063908946551 3.569404852142091 0 0 0
214 1 20.87891444525867 11.280686402193858 9.384736268564216 0 0 0
215 2 20.218386238946852 11.343459501908265 10.106488930359559 0 0 0
216 2 20.60623236149244 11.936817898089787 8.68511988796376 0 0 0
229 1 12.791488588027324 1.1117058653508076 1.840076757348598 0 0 0
230 2 12.900714518705522 1.8729768495361576 2.4925434567567284 0 0 0
231 2 13.188786407040253 1.5149266418030902 1.057975338050767 0 0 0
232 1 15.675137038256048 3.0874983787340167 8.43422539049573 0 0 0
233 2 15.764454605785717 3.82160610510844 9.0822997167204 0 0 0
234 2 14.761201457998085 2.8371202420346626 8.542620222755673 0 0 0
235 1 15.699637407647979 8.45092675271347 1.6163452296492316 0 0 0
236 2 15.806299689350144 8.918397083050685 0.7416420053302597 0 0 0
237 2 14.838360958780658 8.007628134416889 1.7132566158625449 0 0 0
238 1 18.125848972846534 9.619909396705081 8.542543096880593 0 0 0
239 2 18.89128528879324 9.105864476219905 8.78938650290314 0 0 0
240 2 18.327212963610165 10.124951892191 7.718299508311404 0 0 0
253 1 14.581657222966374 4.601965373094297 0.7632691052714752 0 0 0
254 2 15.21931849186835 5.201149874001721 0.3812815279129465 0 0 0
255 2 19.393479769009925 7.513993348798435 13.61430912942319 0 0 -1
256 1 17.568597200240873 6.46215598765084 7.508160385386135 0 0 0
257 2 16.879869565241822 7.028554802436294 7.903648754724832 0 0 0
258 2 17.84880016631404 5.8405706081394895 8.182745087902896 0 0 0
259 1 17.48507239137504 11.509079605026038 0.8916875848343676 0 0 0
260 2 17.97469415608997 12.185128250785203 0.473000934605268 0 0 0
261 2 18.043743872971863 10.95861412985003 1.5002341536745016 0 0 0
262 1 20.010214150398397 13.445496168832966 7.762264409016377 0 0 0
263 2 20.71244049371871 13.928330469462074 7.189517457475861 0 0 0
264 2 19.49566620509896 12.928684146957753 7.170222282075694 0 0 0
277 1 16.70929502190677 6.164193530894921 2.717235887402933 0 0 0
278 2 15.923822359066968 5.726937937331492 3.091839124506859 0 0 0
279 2 16.370388036615076 7.119879619202441 2.492451476259903 0 0 0
280 1 19.695582667272106 7.473584464107655 9.465351245056878 0 0 0
138 2 12.454940744427725 4.454509141247962 10.54543319929305 0 0 0
379 1 17.349238176869694 15.214244496914242 5.2105887690521655 0 0 0
283 1 19.590362571721606 13.035708019529732 2.7370917410817746 0 0 0
284 2 19.18466525227834 13.844492389216795 2.2875339578633644 0 0 0
383 2 19.6318839934159 16.068431464532033 12.845093088700542 0 0 0
286 1 22.13708177970337 15.081401437476345 9.305030179894851 0 0 0
287 2 21.744110619497793 15.910740912562462 8.965105924186044 0 0 0
382 1 19.925666942170167 16.529099456468607 11.997139170131929 0 0 0
301 1 13.447389056088946 6.884658105017562 1.975930444376558 0 0 0
302 2 13.673628234514046 6.0250671261139574 1.6034768992790733 0 0 0
303 2 12.961411420535756 6.741723555942772 2.836586074112011 0 0 0
304 1 15.589165381090762 8.2079392549548 8.740437232615529 0 0 0
305 2 15.25744853221312 8.189389956385936 9.676372228478549 0 0 0
306 2 16.27649624000638 8.895225472850383 8.665377893462555 0 0 0
307 1 15.685206234854057 13.729276954442025 2.199970059656468 0 0 0
308 2 16.472545274221932 14.298966088129593 2.129832009801347 0 0 0
309 2 15.990432422805618 12.816072916245561 2.045173355447516 0 0 0
310 1 18.47524186493382 15.682355620479262 8.700927511519373 0 0 0
311 2 18.942050823027884 14.894541741890484 8.41187536510983 0 0 0
312 2 18.103354968476143 15.524124380230353 9.573753954175851 0 0 0
325 1 11.442082877940436 4.555258987483639 0.8327717919212585 0 0 0
326 2 10.820257170650638 5.07187137380681 1.3500313017167582 0 0 0
327 2 11.869484366033163 5.172168720079387 0.1696813426903639 0 0 0
328 1 13.954825576342287 6.192826183371944 7.701406418407368 0 0 0
329 2 13.169752553041501 6.6257081120429095 8.083578648463929 0 0 0
330 2 13.670223994877869 5.6618927497922735 6.901454147375886 0 0 0
331 1 13.638727420861734 11.756698515272861 0.778722391711898 0 0 0
332 2 13.070852279223313 12.362946879145388 1.3547838319685108 0 0 0
333 2 14.418564194779288 11.47883785799031 1.384333933640119 0 0 0
334 1 15.92202059724492 13.511992588361966 7.955260322276909 0 0 0
335 2 16.655690013698315 13.111727006552572 8.503509074651088 0 0 0
336 2 16.46661308870519 14.00501692828973 7.30475513366913 0 0 0
349 1 11.776733626903148 6.381644318192703 4.249476199760797 0 0 0
144 2 15.079861600714711 11.621372883034368 10.345763889894062 0 0 0
351 2 12.003820946693427 5.468327127175579 4.513021652080571 0 0 0
352 1 14.468757060511404 8.087205142604075 10.963602596755475 0 0 0
141 2 12.253630278589561 9.900859504857664 3.7095227384680527 0 0 0
354 2 14.747191134831992 7.334457063230044 11.6123490923439 0 0 0
355 1 14.183245870635817 13.578658654542018 4.183297515339413 0 0 0
356 2 14.322660388584753 14.156146177740858 4.98365481923402 0 0 0
357 2 14.794513445143789 13.746801086559902 3.4423509147512266 0 0 0
358 1 16.978022840434026 15.086933379269455 10.922768175615548 0 0 0
359 2 17.361264410766577 14.276065721784253 11.320484909399612 0 0 0
47 2 24.279269599638578 16.33721356711404 12.417618038257753 0 0 0
373 1 14.37780658196708 7.750728381748289 4.970612427742511 0 0 0
374 2 14.282500542891686 6.924910791417862 4.4689318410377545 0 0 0
375 2 14.211835390463424 7.420382138397214 5.877129325189998 0 0 0
212 2 19.2981851489548 9.909693023334274 3.3801668425665756 0 0 0
353 2 14.309388832995273 8.817235304682645 11.577297129699906 0 0 0
288 2 22.534576376931565 14.667511874840622 8.518969324485749 0 0 0
360 2 16.023609704755817 14.874956130780474 10.743543589323483 0 0 0
281 2 20.455083184140754 7.609826640720259 10.088563356635476 0 0 0
285 2 20.069187718064804 12.520265697146204 1.997442905972426 0 0 0
81 2 18.410265519810725 8.48622189557865 1.5880194476299665 -1 0 0
75 2 15.79299974939879 1.316260745203249 1.2893727838782154 -1 0 0
83 2 20.86971690829716 9.982870480115407 8.232997170486078 -1 0 0
93 2 11.007154311012055 8.48978485252509 1.414396205385531 0 0 0
209 2 18.70295274078753 3.8256747663467627 8.691139525859315 0 0 0

Velocities

1 4.932700120393887 4.390972418200401 1.2275344733595468
2 3.8869832526966177 1.0116241197779157 4.882701032054305
3 -6.224364205684682 11.659478217585333 0.934938522434905
4 -3.5411492841508325 1.8763798971003989 0.49989600611070534
5 9.303537784796681 1.809470496508307 19.421786512870476
6 2.6361609996642854 -6.622629484107287 -11.551551713208465
7 -6.93077602138424 -2.385693634263539 2.3798414500828
8 -4.1625713173105074 1.3988041665848507 9.489722763155871
9 -4.724081167222303 -1.2522916420011716 -7.183074508817262
10 -3.1730040693192754 3.2912807954592265 0.964003298523541
11 -17.872112134162247 8.512075757921053 -9.026663898317747
12 -5.413654991183034 -4.418981064832757 12.37143592799101
25 3.308275242369305 -4.659742214109088 4.805362990987487
45 1.5163413973676454 -4.100052758653594 15.1466478347235
27 -19.415192253725444 11.019780421282437 1.4336633572294244
28 -0.8480027329992765 -3.6864426563832904 -6.707236840107509
29 -4.685724123021027 -1.166146226353097 5.162768457454428
341 -21.11972672984629 1.7085020841800544 12.766486762564336
31 -1.9982328852872053 -2.997597593309393 0.15987855581782956
193 3.1120944207117227 0.49975714087851036 1.643057429504866
33 -4.638819873831202 15.916468248585188 -12.628118125593753
34 2.360701800546668 -2.2078916930766943 -2.172445129349789
125 -2.057876687339375 4.964648618240996 3.0834431290045354
368 -4.463308798423868 9.545674730699275 -11.662200579805917
49 -2.166844452461017 2.3552006252788997 -6.81494602760953
50 9.307574524132125 -5.1484555173157736 -18.05620062846971
51 1.6424072192151293 -3.638221511093526 9.14282872244624
52 -7.4943012878474065 2.748292688521059 2.9275740661736336
53 9.887007467901164 -2.159931472765566 -2.5291211609081032
54 2.478336552845608 -8.73537766717777 -22.513353584853462
55 1.6421451062090404 -0.8219287536257837 -2.214943702003085
56 9.398290203723517 -6.215650469710517 2.9241549463180565
57 10.162455364184911 -7.902164354381615 -14.857654894653821
58 1.1970631164507628 4.1475820444625615 5.259497004940941
59 1.2592730915586936 -1.3310067336080036 5.52166778959697
60 -4.5054323854861495 -0.3151955417148383 -3.148317381463776
73 -0.5992719511230226 -1.9269947882571263 -5.506232591922591
74 1.5447661917700766 -6.938066990800214 -7.159981024314245
365 3.6581318251987454 -9.303977741128143 0.5232022460588296
76 2.2838354333343376 -3.2690520091486466 1.0074531815535672
270 -7.540112870292979 -9.661220743182168 2.7869929037639904
78 10.91854930311737 -8.09144844414482 1.3642925355717148
79 -2.389495769049466 5.601631713298206 -1.1484010777780764
80 -27.652026290581727 -6.61615875828356 3.7435393197130997
372 -3.0904043071870455 -12.033437547976748 -0.3276624268150263
82 1.6064862725404008 -0.5123626640860612 2.996294515218055
371 10.946368120088062 1.1855615185801736 1.351443935256197
369 -11.54678308287038 1.7445860958602957 -5.413224883510566
97 0.5841256537522483 0.189913033499702 -2.3357201966279013
98 8.998697097932729 9.58196098655037 -7.438478725511967
99 -8.789979393374725 4.393288214596104 3.3271438046074167
100 3.408849126380378 -2.928484784047426 -0.9448092338548952
101 -1.7411707582217075 0.8777111232115287 5.288587081936131
102 17.110198787691274 7.914605036152104 3.621416829229876
103 0.06522549418625967 -0.2570259525285367 -5.0027592262503
104 20.76676806155621 7.827527833376511 5.014782723530134
105 -0.3366742917343236 12.903970202562196 2.2720795946984307
106 -0.8027925645956667 -7.105792541543689 -3.0951158666603296
107 -2.26242153324594 0.033470609649123635 2.3255297513337783
108 -8.438409493808889 0.3852745256932 3.620066921791512
121 -2.291003776042018 5.619879568381103 8.216876216894475
122 -13.135379609787535 -10.591694083602132 3.8167029242460555
77 0.5107100158008153 1.0751653010853437 -15.726751628323024
124 0.5865831301282975 -2.5598146343461656 -2.3006577116455444
367 -1.5350345148040607 -0.48383385661290157 3.320686729492262