LAMMPS data file via write_data, version 8 Apr 2021, timestep = 0

768 atoms
2 atom types

-1.0710793224427073 31.014426265897207 xlo xhi
0 14.163328719724314 ylo yhi
0 13.546943401405258 zlo zhi
5.102942985488497 5.06295173773941 3.5532578768591634 xy xz yz

Masses

1 16
2 2

Atoms # atomic

161 2 15.857250720520305 3.092226012241092 11.661688593316315 0 0 0
172 1 6.091884573689443 11.08572950945433 9.75060426769418 0 -1 1
295 1 5.359183054042952 4.210173437952181 8.215599550219688 0 1 -1
297 2 4.787375590536544 5.006433000983963 7.938564148862868 0 1 -1
164 2 15.869983225904434 8.453269557285521 4.455033493145106 0 0 0
220 1 6.61313648870585 2.685543522734508 1.8564530115916607 0 -1 0
371 2 4.540474765701336 3.1216492950131394 4.015354654102037 0 1 1
39 2 18.337567019199007 7.558383734029924 6.755475237325494 0 0 0
352 1 9.057798024906184 5.826484130862681 5.14076439053711 0 0 1
150 2 9.666010784552384 4.684353792768164 1.2191066828660095 0 0 1
298 1 13.535587222642224 7.311665531421335 7.441926585593665 0 1 0
101 2 5.204410859263701 8.656002223079023 8.430492921772492 0 0 0
60 2 11.318739444510538 15.789642835250616 6.718341654187077 0 0 0
148 1 9.014019744133432 5.322027511508165 1.3471232466305956 0 0 1
74 2 4.524015454917103 4.8028234205520715 13.174966768399559 0 0 -1
105 2 10.112585965858816 4.479601191894918 7.681963386107185 0 0 -1
374 2 3.862253480980743 9.196898845243785 4.801624125519328 0 1 0
106 1 7.9814327804372605 7.923263849053033 12.184345613724634 0 1 -1
162 2 17.367457298557817 3.3416078930131508 11.967981165855235 0 0 0
125 2 2.755327882267825 7.177693080062251 1.4854711436551427 0 -1 1
58 1 6.783526805615276 2.332286370000676 6.394734114103061 0 1 0
59 2 6.426844770154877 3.112978140444788 6.82468856966717 0 1 0
149 2 9.40700942556347 6.253262759256626 1.3357800069866628 0 0 1
50 2 12.408493913822632 7.499327800795431 1.190896844478789 0 0 -1
127 1 3.2115234140821585 3.9656028247867505 2.3155923215096315 0 1 -1
27 2 6.464722489088679 5.232323311495902 11.623028950704096 0 0 -1
317 2 0.8441614648053029 2.225632242314716 3.7307159817940367 0 0 0
218 2 10.849432616612635 8.053359886561221 12.727797354490157 0 0 -1
351 2 13.355728902017244 3.9194929232768407 3.172279982023478 0 0 0
10 1 3.7377415537947156 6.228309556894335 7.36933321232174 0 1 0
45 2 21.498692001555305 14.48877268338778 5.306800338971697 0 0 0
170 2 3.246544841835952 4.094997440470145 5.460065921036872 0 -1 0
353 2 9.960835070607352 6.078821949778132 4.7334879006652155 0 0 1
219 2 9.443319081862548 7.389392590673645 12.602351773040795 0 0 -1
61 1 7.249829680580421 5.164429802286853 3.249093523444616 0 0 0
315 2 4.305717849406836 5.630865468576623 2.6231559665690347 0 0 0
25 1 5.814242013759629 5.52817555898569 12.341626955070263 0 0 -1
324 2 2.1217850735494976 1.9661743057261127 0.07097641122545931 0 1 -1
65 2 12.781821725934112 4.304809737837222 7.974045101697689 0 0 0
233 2 14.795487428116896 3.753325696355516 8.906576092442327 0 0 0
217 1 10.344265415809403 7.274228063118909 12.999165609909872 0 0 -1
257 2 16.750214865475616 6.869254536040397 8.003327308695635 0 0 0
38 2 18.10179768349639 8.506412737340252 5.6458916177869485 0 0 0
94 1 14.132538560962725 7.518710847666905 4.898426767656734 0 0 0
276 2 7.5350357528744025 14.4765450437104 3.44297144303986 0 -1 1
128 2 3.48738009370783 3.187510163790486 1.811425743596359 0 1 -1
372 2 5.4054531189414945 2.7652946339068896 5.19926897219986 0 1 1
274 1 6.649104342328748 14.64479854915397 3.109816505300223 0 -1 1
140 2 4.876918562375149 7.120269893716364 4.539927888363629 0 -1 1
100 1 5.991597222625484 8.422547487297376 9.029250529227319 0 0 0
63 2 7.75399231972903 5.3900492100253246 4.093402799448544 0 0 0
129 2 2.606997082639639 3.5915841837884876 2.9718465128394485 0 1 -1
222 2 6.845979241829992 3.4595114826029687 2.347508955269056 0 -1 0
64 1 12.959372256793547 4.734347000469357 8.840628004556594 0 0 0
111 2 7.738970011910825 1.3845388889719488 0.8619477040437867 0 0 1
13 1 14.533577080852933 4.96157319345601 4.149116761059601 0 0 0
62 2 7.998899967691346 5.288842526467231 2.5674110587298693 0 0 0
332 2 11.749239366402477 3.880600756532679 1.319430195918828 0 0 0
275 2 6.0309910456288565 14.183459319769257 3.6781124512305516 0 -1 1
250 1 9.614414035689279 6.238066735388104 9.087500133014473 0 1 0
368 2 7.748424881135985 3.961019653745656 9.971228881310163 0 1 -1
102 2 6.846346861961649 8.410238297565222 8.56898399602422 0 0 0
349 1 12.527799918705188 3.58374399521303 2.8451516418968885 0 0 0
81 2 13.239160388516282 8.64345334030536 11.72589191192409 0 0 -2
85 1 11.49191473675355 11.370259693265274 11.444361462077712 0 -1 0
302 2 14.517742034605117 7.081546220828381 11.481648551544223 0 0 -1
301 1 14.323617612748862 7.771194270822693 10.863160231216598 0 0 -1
103 1 10.16458396043505 4.020678598504233 6.830350239776932 0 0 -1
6 2 11.815360948835835 6.471743595261271 3.3528935818830385 0 -1 0
303 2 13.622525876297352 7.198781732924194 10.453848391807611 0 0 -1
305 2 16.444233752739496 8.94074935055415 8.696127274682002 0 0 0
239 2 18.558623100023723 9.777092760348573 8.995325346931171 0 0 0
230 2 11.828033662124884 0.7593263278989307 1.709782246520516 0 0 0
333 2 16.52215389651359 8.241179471219057 13.537192173626929 0 0 -1
346 1 4.296242016640907 2.7939389951859614 10.136162530809125 0 1 0
110 2 13.85021595392272 4.870935586248952 13.291162129780218 0 0 0
331 1 11.06962949960645 4.0226350673642415 0.6110370059263647 0 0 0
9 2 12.136989361046592 5.734907683920886 10.96373156765486 0 0 -1
4 1 11.332408498817294 6.024381335100954 4.088540759660856 0 -1 0
8 2 11.287812540767899 6.821085383453415 11.566616088440641 0 0 -1
5 2 11.433318092259615 5.094011928921944 3.8521141123395934 0 -1 0
7 1 11.854485435984284 6.660611708361571 10.767970944143405 0 0 -1
377 2 17.250751721368516 8.669890765782581 11.729024858155363 0 0 0
112 1 15.020876775405046 5.760381111914022 12.613048224084368 0 0 0
304 1 15.880926799119294 8.13154246637182 8.714712434794071 0 0 0
367 1 7.334548613507043 4.833362249581758 10.10791202354825 0 1 -1
350 2 12.61247444263866 2.684831624143383 2.7334896369427693 0 0 0
113 2 15.572968516665654 5.065381907095497 12.205827523716682 0 0 0
376 1 17.109712880041837 9.369824736536389 12.494975656465797 0 0 0
114 2 15.44254939004377 6.220050457753687 13.394770618412778 0 0 0
66 2 12.728009889825746 4.203531420432555 9.612781079456314 0 0 0
14 2 14.998139660597197 4.665485348270596 5.008092326982966 0 0 0
296 2 4.7470849757439515 3.5824887188816317 8.710394007760717 0 1 -1
369 2 6.73471436708294 4.8709637516948385 9.348511823969707 0 1 -1
280 1 19.560818805977828 7.928104361554261 9.285773651277598 0 0 0
109 1 8.178906342930574 0.7661181717724396 0.323412581795206 0 0 1
87 2 11.918619730051297 10.488063255185827 11.744355823704202 0 -1 0
184 1 18.818066557741343 5.57387480081213 12.608483299346993 0 0 0
277 1 16.897682160247218 5.9476822338373765 2.8144060952123504 0 0 0
281 2 20.296941897550894 7.942776404132451 9.978693307073609 0 0 0
15 2 14.30543017159059 5.889630691770425 4.335797597404557 0 0 0
299 2 13.243577661775518 6.544802945589942 7.944791602099767 0 1 0
107 2 7.26787149781878 7.980790703951921 12.868616075199556 0 1 -1
160 1 16.595749592577935 3.7328973126946416 11.505526618910917 0 0 0
17 2 16.646961119828312 7.32549119939288 10.261456065605898 0 0 0
91 1 1.2937408862055917 5.108932661483656 0.6889704576912924 0 0 0
18 2 18.115884326430567 7.387285745319299 9.975682204736323 0 0 0
231 2 12.912996671735954 1.647379959051429 0.9980049575914824 0 0 0
104 2 11.098256716513696 4.10581104879364 6.471501144414105 0 0 -1
205 1 15.422600687775208 2.329497450436581 2.427755084531069 0 0 0
210 2 17.470225592748303 4.021035907816488 10.01630753112814 0 0 0
186 2 18.24148443540302 6.01057327289573 11.955294272377024 0 0 0
232 1 15.221019462537164 2.971262647481519 8.513700334502383 0 0 0
354 2 9.335966705772353 5.119043800268789 5.7207798015656754 0 0 1
3 2 4.403945530610498 11.511082318311452 0.5804473518561236 0 0 -1
183 2 16.476237343370812 4.689472436816613 6.580059956713664 0 0 0
40 1 21.17352693533886 9.6863767674108 12.737594517869287 0 0 0
207 2 15.275705462775043 3.170859828453767 1.8633623790047495 0 0 0
208 1 18.16089873177144 4.253980094877754 9.351173460888472 0 0 0
279 2 16.59012469382561 6.862696261527942 2.6519726327802715 0 0 0
254 2 15.299454967635015 4.7437922564106305 0.12550655781849232 0 0 0
181 1 16.160700033905147 3.931678271565352 6.01019404550477 0 0 0
182 2 15.992926584075605 3.3029836836397246 6.768415292648825 0 0 0
256 1 17.39578477627255 6.273388350335963 7.617808386981769 0 0 0
255 2 14.31269461739273 3.495837650069434 0.050844340113372376 0 0 0
253 1 14.647342496302233 4.253641375652805 0.6187555421239712 0 0 0
157 1 14.075792919935722 1.9455749610017197 4.802237211157532 0 0 0
185 2 19.570217843819165 5.4195192295324155 12.023839869867983 0 0 0
278 2 16.12704719441705 5.510381941911214 3.2094010948533187 0 0 0
159 2 14.30474096902837 2.2051499247102773 3.9008801065340744 0 0 0
16 1 17.491312466537057 7.3734107589824776 10.733255270305378 0 0 0
258 2 17.61412307604963 5.6056826531579045 8.309161052582724 0 0 0
370 1 4.490089310644457 2.9121673458945354 4.950781858364824 0 1 1
80 2 13.26100490591734 9.159988309277129 13.095584647767021 0 0 -2
306 2 15.226689360856803 8.290826432297044 9.483870610577922 0 0 0
79 1 12.673049040917114 9.206047213493633 12.33935695317279 0 0 -2
246 2 9.049727463689063 7.7503421862946 8.836838299042684 0 0 0
108 2 8.031490955844877 8.814255052460414 11.783757744244548 0 1 -1
300 2 14.392824164541363 7.559732974163741 7.850242086194921 0 1 0
221 2 6.405243622606082 3.1214611814760413 0.994012108832638 0 -1 0
348 2 4.1374177530489 3.687933481871453 10.488095114974591 0 1 0
251 2 10.375245506673807 6.415581793487487 9.705488095650962 0 1 0
139 1 5.049471600371624 7.7374484966338875 5.278957937159552 0 -1 1
169 1 2.438642490558386 4.513925558803705 5.823504513500337 0 -1 0
313 1 4.960803596166853 6.316677226909826 2.559744623397424 0 0 0
252 2 8.869328577535388 5.834744655871696 9.634176401858777 0 1 0
26 2 5.549261121216106 6.429334192825061 12.059156799906749 0 0 -1
195 2 13.207218557383836 3.1958963211387057 6.05497353801968 0 0 0
229 1 12.750923817133568 1.1347745852217237 1.7871209649608917 0 0 0
194 2 12.908827537670614 4.574626172100121 5.495898095742068 0 0 0
193 1 12.719015433463884 3.988874979411371 6.264934927550345 0 0 0
141 2 5.96060150423777 7.651475848840688 5.581882140782557 0 -1 1
234 2 14.468305277573311 2.4245957163849554 8.150160501188244 0 0 0
96 2 13.621892537947623 8.16276533784165 4.351943845209567 0 0 0
34 1 12.041444532089475 3.8328737861784585 11.363305357580131 0 1 0
380 2 16.84635107168387 14.564617314098413 5.770124135733836 0 0 0
158 2 13.127380292732841 1.5926785383279773 4.779531468119287 0 0 0
54 2 5.358734594563523 7.609413883792338 10.238707281625855 0 2 0
35 2 12.743598259821447 3.7190810044172387 12.059224678786709 0 1 0
267 2 9.596369363264618 2.2125243065125777 7.022167347711482 0 0 0
266 2 13.331511630930926 15.681660053366796 6.799620188129925 0 -1 0
1 1 4.5367053667318 12.268320743265486 1.1670079254301982 0 0 -1
86 2 10.599367572785837 10.936082390864135 11.204721614807058 0 -1 0
226 1 12.695183439654155 9.574030933111494 3.8960369908599146 0 0 1
77 2 7.883266001200629 10.647106851154607 6.19440201330974 0 0 0
227 2 12.034381663973956 9.485579616830055 3.2230085284094208 0 0 1
82 1 11.430567153750214 10.146408721678128 6.094593062935272 0 -1 -1
166 1 19.108992916971644 11.220048249630327 12.158440282604884 0 0 0
228 2 12.175753020549632 9.765000330257267 4.730591089176898 0 0 1
330 2 10.711914047841482 10.636954354491701 1.8292933508524112 0 0 1
247 1 6.057928598074338 11.298021868193786 6.263875009375694 0 0 0
288 2 22.038218676379916 14.448590507842358 9.03564949946453 0 0 0
120 2 13.247392430309958 10.046124400382595 0.33668810740426236 0 0 1
176 2 10.457513758083042 15.763494333037945 9.942148559544643 0 -1 -1
294 2 9.821460332319852 12.968070380208252 10.269226052738208 0 0 1
270 2 11.597000451440842 13.720386980370108 7.0825126895835 0 0 -1
118 1 12.604571388434607 9.344568434147023 0.18203264207837627 0 0 1
322 1 2.7582599208130087 1.6056693662949035 0.7575345655693927 0 1 -1
238 1 17.755192947611445 10.271084089310389 8.779178059555022 0 0 0
225 2 6.463981064845451 1.2248382089594239 2.9351693258142637 0 1 0
196 1 13.815711190713458 11.738553042885068 0.6132930054981423 0 -1 0
83 2 11.649965490038372 9.906660846742371 6.985707699290403 0 -1 -1
290 2 14.733145741710317 11.51812606980958 13.304754456985556 0 0 -1
334 1 15.624590038937239 13.18070442759905 7.146663625861521 0 0 0
285 2 19.071402425110815 13.824447033776824 2.08510816832417 0 0 0
134 2 7.885513039237504 14.361807955352068 10.83527134596076 0 -1 0
147 2 14.77984951305534 14.959199878820238 12.41827009702155 0 -1 1
364 1 5.8988397007975975 10.784998690367331 2.901198615952515 0 0 1
320 2 8.859867370215238 14.017639910065638 4.821471337310231 0 0 0
344 2 13.455469189631724 12.35961092444662 6.013028294442188 0 0 0
242 2 3.6718907717679903 9.26900730821433 0.2672250879098292 0 1 1
47 2 24.19240971871044 16.152450701491098 12.311061039930701 0 0 0
465 2 18.01855879517308 8.544509483102042 1.4297409758436574 0 0 0
167 2 18.507459546898062 10.495549567613091 12.07371938364097 0 0 0
56 2 11.99804998706755 14.226134508656536 12.755261292550976 0 0 -1
168 2 18.56418513774796 11.935553292288242 12.598139694020523 0 0 0
245 2 8.653859748079277 8.691430716892382 7.728541311813099 0 0 0
145 1 15.495654135826705 14.320104177047522 12.501116655662898 0 -1 1
57 2 12.074744183794465 13.03811941320975 11.793226035949294 0 0 -1
328 1 10.384708067786896 9.793728808426131 2.1736992423068506 0 0 1
199 1 7.652468273323271 7.840625553852319 6.2967643260717425 0 0 1
28 1 11.47977958655655 12.442956991452975 1.418152114543985 0 0 1
336 2 16.162754048852797 13.338478785900499 7.965645010324889 0 0 0
366 2 5.963799480006026 9.911575563486167 2.442619608839219 0 0 1
287 2 21.436600288546 15.8644270630914 9.42196815730072 0 0 0
224 2 12.427519897864101 14.464269378323875 3.9492117470231958 0 0 0
55 1 12.159618189562508 14.011589257869321 11.853110261990382 0 0 -1
216 2 20.314754488541432 12.086483257304362 9.156661609189822 0 0 0
329 2 9.669140652294963 10.20193479493603 2.7018312551110113 0 0 1
33 2 8.734246220760063 9.958198693659819 10.116156642732484 0 0 1
312 2 17.53891271255975 15.548012970930968 8.620833282834665 0 0 0
335 2 15.059569530659942 14.007266676721246 7.082744360614195 0 0 0
97 1 14.07729432491687 14.116128132496973 4.351929823210845 0 -2 0
268 1 10.92777581037111 14.363369207357604 7.414191279956342 0 0 -1
98 2 14.520689702572817 13.857561819565909 3.5098958882614806 0 -2 0
310 1 18.242268687981706 15.382666407230356 7.997212480547102 0 0 0
273 2 12.752460964221264 16.138164056459626 9.668586528502098 0 -1 0
197 2 14.233160296800307 11.601936993566232 1.4654515271740505 0 -1 0
241 1 4.3206546079739905 9.91110065192533 0.02220436938762157 0 1 1
345 2 12.186229378217206 11.620458970105805 6.366397878059939 0 0 0
319 1 9.151355256278723 13.752753099083396 3.8746638360340335 0 0 0
272 2 13.767244075732581 16.29388471037769 8.5676813841616 0 -1 0
264 2 19.413078119058717 12.547793130204656 6.977539809867146 0 0 0
142 1 15.161966232261438 11.456446329449143 11.589099674318549 0 0 0
263 2 20.335618877911358 13.786514623146571 6.9663471399885735 0 0 0
121 1 8.321689316866575 11.146676072026773 3.437646007309702 0 0 -1
269 2 11.2140171379626 14.623953001269546 8.409827435442338 0 0 -1
37 1 18.83215318965777 8.281978227616145 6.247419493216398 0 0 0
215 2 19.986134370504196 11.46538969564855 10.528873692764153 0 0 0
271 1 13.586761502311422 16.566400210296564 9.475396657038786 0 -1 0
262 1 20.022824463711782 13.066023367332132 7.518691300021259 0 0 0
244 1 8.85810661631838 8.689308046853212 8.658060030424684 0 0 0
192 2 21.39167467883394 13.812035295625128 13.093293249638828 0 0 0
214 1 20.60100918088326 11.405956456967761 9.769693036437555 0 0 0
240 2 17.844258294524874 10.550348484619642 7.830576788306015 0 0 0
321 2 10.108323459437845 14.062469479651087 3.7842299114752196 0 0 0
343 1 12.712776259094511 12.406045788182022 6.604389372955719 0 0 0
153 2 15.414079210681972 17.48390105459017 12.733832394268982 0 -1 -1
31 1 8.640662488417838 10.328574939127897 10.968865729893428 0 0 1
291 2 9.7891811389214 8.485792948727278 1.2851164949603726 0 0 0
173 2 6.206967309300102 10.178046441088 9.632638440376192 0 -1 1
51 2 13.145801353608132 6.17104072907263 1.402304323105358 0 0 -1
200 2 8.19289002658396 7.067004940886594 5.8885244850981255 0 0 1
88 1 13.975015204580355 11.225700950080249 9.201739680946138 0 0 0
198 2 12.900006128686158 12.103606335201047 0.7034112171503986 0 -1 0
84 2 10.489875711654545 10.267159130855452 5.9774709210031585 0 -1 -1
152 2 3.8967207525473633 0.17744704870208985 0.02092170627940594 0 0 0
311 2 18.54925179368301 14.511109924208943 8.142808355574148 0 0 0
359 2 16.391709518561672 14.851955354747451 10.713716536860058 0 0 0
265 1 14.26833659946686 15.534099060759512 7.1839305664327044 0 -1 0
12 2 3.069290475164781 5.729274116182247 6.865450729220435 0 1 0
72 2 17.640069322453535 11.917926547950835 9.506915277848377 0 0 0
42 2 20.474692089837493 10.345224528647742 12.661302445812293 0 0 0
177 2 11.423440928175523 14.670116327821187 10.606944590352002 0 -1 -1
190 1 21.218866693135844 12.923378228835446 12.813125106319841 0 0 0
223 1 11.517240891181 14.55498061036814 3.50711474684341 0 0 0
191 2 22.105060950077583 12.584720373236374 12.522223265824723 0 0 0
382 1 19.723086319427015 16.449379573315372 11.829298515365883 0 0 0
19 1 17.13074014391461 12.397892280296674 3.9366105893373695 0 0 0
20 2 17.874419963549744 12.41595096129938 3.3056763509919826 0 0 0
21 2 16.446334850664677 11.769689252101552 3.576460123801539 0 0 0
379 1 16.851583047387997 15.02519726155538 4.927240028514108 0 0 0
43 1 21.25000341204089 15.150085928955738 6.001102149976904 0 0 0
381 2 16.979979222038175 14.221193995651802 4.267996898286229 0 0 0
67 1 15.016426002006746 10.909532611680442 2.8586127528209935 0 0 0
68 2 14.400658963171477 10.682941340828762 3.566861340001536 0 0 0
69 2 15.233289146230664 10.039612515617092 2.430389391534398 0 0 0
119 2 17.170778559241256 13.357684851911594 13.049424548971471 0 0 0
146 2 15.10930483838721 13.511575113268274 12.942334325069243 0 -1 1
360 2 15.322694683069322 15.775250010864314 10.264594385176672 0 0 0
115 1 15.684156270365545 10.592804557289202 6.5290980024048615 0 0 0
116 2 15.066045064120164 10.302151379753175 7.232913126214657 0 0 0
365 2 5.527253312284107 11.458290640469022 2.181766144534573 0 0 1
136 1 6.282325407026062 8.382246345389042 1.1931281692808422 0 0 1
144 2 14.66848228724141 11.253649559159802 10.79427925416059 0 0 0
383 2 19.69845210128238 15.55106013584121 11.508883567929624 0 0 0
163 1 16.60868331554242 9.02795504383358 4.731333013950404 0 0 0
286 1 21.819197466571946 15.049973697782471 9.77945113751502 0 0 0
165 2 16.247416700422605 9.707241834712828 5.422075548547789 0 0 0
187 1 18.458211530726512 11.526631446776989 6.025985846091656 0 0 0
188 2 19.041371913481555 10.92446766066566 5.5109500459989 0 0 0
189 2 17.871673571204475 11.918052313194453 5.36743234048761 0 0 0
30 2 10.746681649141383 12.829926000712073 0.8642722511885182 0 0 1
211 1 17.91941478145316 9.767082516438446 2.556394595622781 0 0 0
213 2 17.37947848011022 9.400670232426044 3.2660227098384245 0 0 0
235 1 15.468869745733048 8.456441960870432 1.7857967215352057 0 0 0
236 2 15.753674042568118 8.627152007341063 0.8533715980558411 0 0 0
78 2 8.55561439467387 10.59152853010562 4.807858781647858 0 0 0
260 2 17.68071061899213 12.25494121610104 0.3293854546691315 0 0 0
124 1 2.4882720606083537 7.960139384331268 1.014723662227295 0 -1 1
259 1 16.879459513151865 11.74160232555375 0.6604823271697826 0 0 0
117 2 15.791156237347352 11.580942748590916 6.706074629209158 0 0 0
261 2 17.18881792263857 11.261069234357675 1.4594761853197777 0 0 0
283 1 19.243021904201246 12.893312013073315 2.3245558312530283 0 0 0
347 2 8.595362959296956 16.4511784039378 10.44224890307387 0 0 0
156 2 6.226383458925347 11.157093823694703 11.657920771266665 0 0 0
307 1 15.595045956098257 14.082738225811093 1.9255363626590374 0 0 0
89 2 13.795458766924352 11.918089994619248 8.47718839376077 0 0 0
309 2 15.95637814074301 13.220702830408413 1.5364435412795605 0 0 0
29 2 11.648004423426674 13.108851320308714 2.084906810096425 0 0 1
49 1 12.848215658443273 6.9940830336726885 1.8372686899111437 0 0 -1
175 1 11.263802749022428 15.205803710212967 9.828123799643581 0 -1 -1
326 2 7.9405492494375425 15.159674785636735 6.612705253717759 0 0 -1
358 1 16.292051031857095 15.666774017516758 10.27412328942714 0 0 0
289 1 9.470481511471029 7.772694394824183 0.6971532331630244 0 0 0
22 1 19.473928153400408 13.781553776954883 11.087463842493477 0 0 0
23 2 20.19125615306256 13.941135695337687 10.389337839815765 0 0 0
24 2 20.02434083067705 13.244860556619317 11.710617112627022 0 0 0
143 2 15.80911091437396 12.167062622166007 11.364358193582628 0 0 0
46 1 23.77453887941947 16.755806501224257 12.949618574264006 0 0 0
70 1 17.278464799124528 12.779714706799343 9.835697984980156 0 0 0
71 2 17.935099430288513 13.308638681471269 10.260178403188219 0 0 0
325 1 8.385180706392351 14.304473595320838 6.430289261473185 0 0 -1
130 1 11.684693152799088 9.31446399814808 8.619822958193334 0 0 1
151 1 14.711071765902162 17.2165972749695 13.299560290971497 0 -1 -1
201 2 7.982841801913728 8.652379881337088 5.930760964125795 0 0 1
323 2 2.230814851724356 1.2852389268858355 1.5137733633231574 0 1 -1
131 2 10.721685853517364 9.231028017994971 8.827317463882242 0 0 1
76 1 8.647209613239287 10.278697216375878 5.74190691259985 0 0 0
327 2 9.213474404838834 14.367179629341814 6.977957632819858 0 0 -1
32 2 8.542175390317741 11.310612965483244 10.96357743395804 0 0 1
293 2 9.153389806157865 13.146357281816702 11.67450064505687 0 0 1
243 2 5.094195572539063 9.44219129884031 0.30083855007241783 0 1 1
2 2 4.542654210241564 13.148284029232052 0.7663918953613647 0 0 -1
99 2 14.649554456435393 14.778529048842952 4.732233193393906 0 -2 0
384 2 19.59496408979833 16.21778153291314 12.766500630366322 0 0 0
41 2 21.935749409496157 10.12780463304364 13.158140663479331 0 0 0
122 2 7.392488289634698 11.201178803027762 3.1382070183186146 0 0 -1
178 1 6.301945772677759 13.171615591567738 8.050144120216341 0 -1 1
314 2 5.806724911394745 5.858008053970064 2.7463856549293486 0 0 0
292 1 8.95304731667921 13.106274092403813 10.745665502620994 0 0 1
180 2 7.043680280076338 13.549505673817404 7.544448506200079 0 -1 1
123 2 8.6332902064512 12.098453262657246 3.4410346034162536 0 0 -1
90 2 13.007806522200724 10.943280341496767 9.423859112583845 0 0 0
132 2 12.03747840620862 8.449730080491236 8.40705489776386 0 0 1
308 2 14.776607193630763 14.268534413097441 1.3345947081986727 0 0 0
137 2 5.852175542368463 7.715706201534116 1.6879986103192235 0 0 1
48 2 24.47685858815233 17.371035289529235 13.162353089459106 0 0 0
378 2 16.416368695337543 10.031855689355005 12.165368251031822 0 0 0
36 2 11.80241582830483 2.932400551345255 11.089615115366177 0 1 0
179 2 6.563495873812151 12.54040921877252 8.716507949075845 0 -1 1
44 2 20.488869400393547 15.598146326613007 5.5313704077572075 0 0 0
206 2 16.304654468256697 2.431404317049898 2.8263858764275738 0 0 0
138 2 7.2118912571219385 8.139955291144389 1.0559374413179086 0 0 1
95 2 13.808425700954665 7.559600503486067 5.839072197204814 0 0 0
237 2 14.613338425348989 7.948881664615433 1.7090520618117588 0 0 0
363 2 5.218677589811392 12.307467433441397 4.791916188012297 0 0 -1
375 2 4.325563142456007 10.26658756837725 3.770821701890024 0 1 0
11 2 4.3004380289159005 6.634071255133607 6.677959280376556 0 1 0
209 2 18.348725180043097 3.4453056460448184 8.87030875862575 0 0 0
212 2 18.808368991303173 9.8749142427188 3.030922846481461 0 0 0
93 2 2.06548778636056 4.74566422978263 1.2452768737097857 0 0 0
468 2 20.06884929926423 9.265829729006226 7.464440432553359 0 0 0
284 2 19.698679354489105 12.553504888681905 1.5611818213621693 0 0 0
248 2 5.830876329785167 12.05719046321146 6.819924856375277 0 0 0
249 2 5.4910947113875945 10.58294649195611 6.449445921742464 0 0 0
467 2 20.74075933067849 10.368227214622516 8.316677320778217 0 0 0
459 2 15.6592516460152 1.184553952452053 1.2223488162708234 0 0 0
282 2 19.94514334729034 7.346465987256493 8.539197892561772 0 0 0
52 1 4.757771345915805 7.465271511399935 11.009697917599809 0 2 0
723 2 18.262118838315217 6.395385424466556 3.9241125567947277 0 0 0
507 2 17.178521754542952 2.7348346802613923 4.8285843700265305 0 0 0
732 2 23.278547119635256 15.058479894619126 10.72160038057576 0 0 0
171 2 2.338120990110553 5.135724099303654 4.992845975254696 0 -1 0
385 1 22.17352236668294 5.093459121519747 3.9535296562594824 0 0 0
386 2 21.892157669038667 5.960117006525166 4.390181319822052 0 0 0
387 2 21.494033468909873 4.545045255328129 3.547927786148434 0 0 0
409 1 26.407837568776717 8.082637911937457 6.299468560622542 0 0 0
483 2 19.360129454666136 3.5963120736334298 6.579510668068611 0 0 0
425 2 36.93385360599003 10.205881456976195 12.692223577214204 0 0 0
357 2 35.297231844172444 8.957265288334334 6.8145477842520865 -1 1 -1
433 1 19.905234427559943 3.6620869928951154 2.986420386076891 0 0 0
434 2 20.121747174267423 2.7393386121204104 2.6204636108625983 0 0 0
435 2 19.355349077890555 3.9942295248676114 2.2504918479343976 0 0 0
602 2 20.88500564764274 0.7735264143827882 2.08692308025691 0 0 0
505 1 17.65525751220972 2.3119210381608077 4.032743488494693 0 0 0
677 2 22.473476884410584 9.010715207813895 8.237938164553713 0 0 0
481 1 20.016039459622036 4.202285616480667 6.215818541779772 0 0 0
482 2 19.54776684488528 4.715390447492354 5.512149919224971 0 0 0
650 2 25.038771625901607 6.307028356104547 2.9751566405534033 0 0 0
728 2 20.72436883940582 12.818449917795746 3.709545137310924 0 0 0
506 2 18.304724658986903 3.011639735104497 3.8427636094519695 0 0 0
529 1 21.441741806221803 1.9667451607154867 5.272588592853218 0 0 0
530 2 20.943023452901716 2.7329007414896567 5.573080705216674 0 0 0
531 2 21.89985332902757 2.306915618841551 4.511914808851348 0 0 0
553 1 23.457478647395124 4.621741664507821 6.307221053385243 0 0 0
554 2 22.735669450872155 4.570454979818441 5.675726238741478 0 0 0
745 1 21.653184926239017 7.5346880990868454 5.100243104360936 0 0 0
577 1 23.102990697147593 2.729454334066169 2.7595608607888886 0 0 0
579 2 22.69082603232489 3.373781142997039 2.1494947877421886 0 0 0
601 1 20.159506935551196 1.346670685702631 1.7823340746719758 0 0 0
666 2 35.03842739745867 8.013966994629712 9.913994926321832 0 0 0
603 2 20.397547364842712 1.3923721170445624 0.8444927793128612 0 0 0
410 2 27.00218528326132 8.578007186971142 6.790163146047345 0 0 0
625 1 21.815546904675234 4.501832432581078 0.8736026282993371 0 0 0
627 2 21.1963870455171 5.224662359584407 1.2152701026209392 0 0 0
649 1 24.380577491872124 5.944890575754754 2.384183035759338 0 0 0
578 2 23.215736304808182 1.9667801119513955 2.1593048390521696 0 0 0
651 2 23.678251568209554 5.45498836294707 2.8976629240733724 0 0 0
673 1 20.520764415651566 6.649278264309758 2.0590708830344906 0 0 0
767 2 34.094349000754974 16.07149589504552 12.848571128708965 0 0 0
675 2 20.25892319615964 6.350659747898291 2.9155732520890822 0 0 0
697 1 18.39223984090241 4.612100126715679 1.0269542594489611 0 0 0
593 2 32.668910014914125 4.415816939059677 10.0441915508633 0 0 0
509 2 19.75200659806912 4.07856823995626 10.15859949523258 0 0 0
746 2 21.48714557648766 7.301469715539177 6.028023750467979 0 0 0
721 1 19.23092216375924 6.332278928276441 4.225878652518103 0 0 0
626 2 22.43005381148795 5.016721816298649 0.28209849566004447 0 0 0
133 1 39.47419252765229 15.152635621479739 10.889051491509466 -1 -1 0
411 2 25.90579289796379 7.569624511339504 6.909586491045906 0 0 0
678 2 22.89465280122421 8.337478072955925 9.580541239711264 0 0 0
388 1 24.728099580439334 6.941304562056027 10.71451012891196 0 0 0
389 2 24.436300435094914 7.770381125382203 11.161359126590055 0 0 0
390 2 24.96323418296316 6.341305463752818 11.477764659319535 0 0 0
412 1 28.929545446272083 9.65736085106014 13.065761314735514 0 0 0
460 1 18.30922261362889 2.419278566164643 7.4172015932369995 0 0 0
436 1 22.5931811597043 5.45536985871302 9.477414466904758 0 0 0
437 2 21.879534193604545 5.122721826802169 10.034454652136832 0 0 0
438 2 23.24009696508153 5.874993749338846 10.09418633650203 0 0 0
373 1 35.64115819633133 10.007718752893341 4.355454091362422 -1 1 0
654 2 27.518401198166696 8.007326868700314 9.912473193774668 0 0 0
748 1 24.457044191644137 9.268633505445559 12.199359226978185 0 0 0
485 2 22.896967441245067 6.723404372563457 13.505120122782513 0 0 0
484 1 22.48194183820778 6.2232060526442305 12.815529418103958 0 0 0
508 1 20.5129523856383 4.278460688237327 10.731798476956495 0 0 0
510 2 20.918167351197216 3.402233829687196 11.071593815395701 0 0 0
558 2 26.291801526536055 6.602776196613551 13.376697561283487 0 0 0
532 1 23.956463906983693 3.7527398492451516 11.829485586590136 0 0 0
533 2 23.738769204228845 4.684953769511018 12.119047323515426 0 0 0
203 2 34.09183990218091 7.070868195305227 4.615796705246734 -1 1 0
556 1 25.96588576575393 5.765207783199296 12.87214389864228 0 0 0
557 2 26.784323453619635 5.39662794184332 12.505673093952579 0 0 0
580 1 25.388219666012976 4.270392891938094 9.64540360395605 0 0 0
581 2 24.826979706507707 3.984571124130896 10.444105179694478 0 0 0
582 2 25.162893385843137 5.085063606002672 9.198835152726017 0 0 0
630 2 24.410010025288948 5.853284231471194 7.037987898783198 0 0 0
604 1 22.80778866707547 3.0896590538317006 8.484659085365308 0 0 0
605 2 22.738862700967744 3.9901118136237295 8.892476036145183 0 0 0
699 2 17.788328234848 5.212484818877068 1.5228092130773325 0 0 0
462 2 24.092084148226295 16.03067207955134 7.796151121384091 0 -1 0
628 1 24.744655098829863 6.5121328197607316 7.703448519208277 0 0 0