LAMMPS data file via write_data, version 8 Apr 2021, timestep = 1767000

1008 atoms
2 atom types

-0.2435469313881967 20.916073588621447 xlo xhi
-0.2435469313881967 20.916073588621447 ylo yhi
-0.2435469313881967 20.916073588621447 zlo zhi
0 0 0 xy xz yz

Masses

1 16
2 2

Atoms # atomic

75 2 12.802249474438987 8.8739082920062 3.1926300542647392 4 -1 -2
463 1 14.18703735948844 7.215474432727887 8.52270750407305 2 0 -2
88 1 0.029797058935739112 10.037229449488434 9.246343208398764 1 0 -1
745 1 20.513362220213263 6.334970679975143 7.809856834096325 0 0 0
300 2 1.883005373897484 5.1278343812108425 9.082711183665753 4 -2 0
173 2 16.40548545124826 7.968872749433347 7.543611474574386 1 1 0
303 2 8.292700790863144 4.598192458894096 9.701856806085043 0 -2 -1
1002 2 13.709395055479053 1.1088902755087766 2.809488928542786 1 1 1
136 1 0.05640926944723698 1.1362561069450632 0.2370615222383489 2 -2 3
889 1 20.571946304759653 2.5666753836667726 2.399058643288668 -1 -1 3
195 2 19.448881668516563 1.6684951833398278 3.089728640964976 0 0 1
459 2 16.74405944772032 2.9340901289953396 3.3145067726288375 -2 1 -1
537 2 2.935111611943006 9.201331318530505 8.885503744433137 0 -3 3
950 2 2.501719034825464 5.515536691993596 1.3664089433630056 -2 0 -1
852 2 20.63039646977439 5.123935558334174 -0.19344624638660757 0 0 1
442 1 20.6582562823128 2.843580882668974 6.266910118982574 2 0 -1
494 2 7.7606226097010325 6.479441140667117 0.4383342459711159 1 3 1
936 2 8.905703104653135 0.32587545815897234 5.046630075154613 1 0 -2
283 1 14.857575485483702 6.1122971246542654 6.115574696512638 -3 1 -2
65 2 5.129310609035087 4.068240453055001 7.631168730235975 2 3 -1
408 2 3.7756870099233244 4.947152710484502 5.7267873172926285 0 3 2
907 1 5.6082110936908816 8.06810708253765 8.997150235638628 -4 -2 1
45 2 9.747135626867928 6.244313036116807 8.177358511868468 1 0 0
334 1 14.040642480863916 0.4696317649333579 5.999495393874963 1 4 -1
617 2 3.799460206746271 3.545765183579291 3.6713688312980897 0 0 2
143 2 14.372286573544859 3.985890130839461 8.981812581008652 -1 -1 -3
746 2 20.040028421518024 5.847084423165186 7.145030134375974 0 0 0
138 2 -0.07049297946016678 0.21764365633410934 0.44161910880165234 2 -2 3
1001 2 13.767246378398516 1.023430459507774 4.406837721570246 1 1 1
935 2 8.664322858894277 1.809303191576329 4.848258187380961 1 0 -2
468 2 20.00937382189103 5.700956650572995 2.1715693183472267 -1 3 -1
452 2 11.540561949873302 2.9338833528825026 1.9134109283993572 -4 -1 -1
535 1 3.621605987077927 9.77835176732384 8.480767266830286 0 -3 3
147 2 10.052394294173437 3.703911996000637 8.817503765488283 4 1 0
44 2 10.061490744829838 6.933099824736611 6.802062481122173 1 0 0
94 1 4.6333141634600015 1.1121539569314174 7.9704682219464145 5 -2 -3
693 2 17.96264581257834 10.120202418622071 0.8054248146691824 0 -2 0
691 1 17.101608327058806 9.720038298074119 0.9818704285127937 0 -2 0
196 1 9.879484604165832 0.48253711165427593 2.0019553812616957 -1 1 1
734 2 18.41362223557867 4.860333618208397 5.855929688136921 0 -1 0
554 2 3.9173870995524207 10.093886155126546 6.943054978575316 1 -2 -2
727 1 1.8200262248811185 9.37859727735619 5.263778354187963 0 1 1
688 1 15.721399574145247 7.620878326690593 4.0125324931681785 3 -2 1
564 2 3.2947951688145447 1.8878785912199354 0.08074856797069006 -1 3 -2
144 2 14.629570461164935 3.9754408732917246 7.435323826980712 -1 -1 -3
218 2 13.585032869794297 2.1813780238434344 8.259147809625713 -4 3 -2
689 2 15.132269734380266 8.410367768993407 4.156726518063909 3 -2 1
335 2 13.77572899154578 0.9741891725996229 6.790830185440794 1 4 -1
674 2 10.121094892742848 4.024404361530083 5.737787774985649 1 2 2
413 2 9.649323838908224 6.18108481620746 4.405340078676309 1 1 3
683 2 18.21590230417223 9.025323822053437 5.25028664640532 -2 1 0
217 1 12.894270821308996 1.5214318085271439 8.103254188557875 -4 3 -2
575 2 14.252080756242878 6.518374682277258 1.4682623610047834 -1 -1 1
495 2 6.488859077672001 5.669836267057556 0.3496369377709811 1 3 1
301 1 7.5185965547288856 4.262532268227732 10.196746859251942 1 -2 -1
384 2 17.338581788450433 1.766891695379551 8.217656557947254 -1 -1 0
37 1 5.741475533359843 8.711247305778311 4.9912041240415945 1 -2 -2
971 2 9.054723073411472 9.131798205653892 2.8465430542996146 2 -2 -1
23 2 18.069935645677415 9.026640667345447 7.6910900354059075 0 0 -2
297 2 18.216731779581277 3.0735789514536984 10.009388353398062 0 1 0
934 1 9.349914764568553 1.231057811284915 5.165949424788512 1 0 -2
451 1 11.264275445555798 2.5763029680928953 2.7977507925240697 -4 -1 -1
638 2 3.22231687407268 -0.07218734546033923 1.1189734554271547 1 -1 2
632 2 19.07108776719281 1.9052296112606735 6.345899299007439 -1 0 2
863 2 17.038349358004965 5.270202953228404 1.8828193986707107 0 0 1
928 1 5.088810772666646 2.7465646934066674 2.984055276494655 2 0 0
26 2 5.544429943286409 6.848606153984229 10.093677552258725 2 1 0
777 2 12.03968136476358 4.88032468447479 4.860320489588043 -1 0 1
465 2 13.264087236846098 7.506750359238466 8.361328928852501 2 0 -2
193 1 18.87035191523834 0.9681318482320823 3.4519652793717897 0 0 1
751 1 10.262619191804605 1.9339772383569631 7.9517502695398905 -3 -2 2
791 2 2.297797253501693 7.026931635528437 2.8458097666133035 1 1 2
280 1 14.650833785262606 10.025781381861641 7.350714959096747 0 3 -1
739 1 16.98687302265766 2.4214691226581753 0.10784669787641964 -2 0 1
214 1 12.034167673333574 9.105189907780462 8.272917903209219 1 -2 0
947 2 16.49271937526934 3.823051462638879 5.35990438505208 2 2 2
364 1 16.083092710041008 6.908039546019645 1.4589216272585137 2 1 1
215 2 11.306995883433745 8.503275852343412 8.328022855746461 1 -2 0
871 1 2.97272656225402 0.5104710804209905 5.826939841393209 -1 2 0
406 1 4.038930841961949 5.090186190581533 6.666209489018614 0 3 2
735 2 19.896857226821048 4.292849602440046 5.652392685095296 0 -1 0
174 2 16.15433420710605 8.096153211576238 9.03064186335634 1 1 0
503 2 7.364710383876055 4.0628636760560335 6.584587205869109 -1 -2 1
840 2 0.091212271230974 1.9718246461102646 9.662933236062122 4 3 2
929 2 5.203070878781699 1.8159715845226252 3.062758425302857 2 0 0
325 1 8.326420991406312 9.322603981638197 4.633341002135215 0 0 0
95 2 5.115211192257421 1.9685833977573255 8.041653870412592 5 -2 -3
22 1 18.419110795153212 9.706276313455003 7.039597542983424 0 -1 -2
146 2 10.513668476727336 4.842903980743213 9.951029339549867 4 1 0
930 2 5.049369854897619 3.1082215764124634 2.058218547667601 2 0 0
1004 2 5.60163311996976 9.816723408381714 2.469786097733042 3 -1 1
453 2 12.054709680310296 2.1661840381959263 3.2810959449605934 -4 -1 -1
43 1 9.964789228389572 7.148895870580819 7.747369542713281 1 0 0
684 2 17.316545873841896 8.403232652483585 4.04546867120076 -2 1 0
838 1 0.18670909058360816 2.874001285514811 9.192570731184288 4 3 2
908 2 6.4142947139911 8.597042763862504 8.90924231211714 -4 -2 1
711 2 8.5526425895206 9.753296698725908 10.04633210105954 -1 1 -1
692 2 16.637548769603896 9.627546106392902 0.1073921671479601 0 -2 0
38 2 5.206229426507925 9.455446463877577 5.422488895985489 1 -2 -2
326 2 7.367745572028378 9.176260762910541 4.850945390206063 0 0 0
299 2 1.0986963261659557 5.833412190040056 7.88309800484227 4 -2 0
24 2 19.35741496525481 9.468385127057624 6.838945443785817 0 -1 -2
616 1 3.1833942985615913 4.204383990468112 4.10917174875002 0 0 2
673 1 11.005931607257251 3.625636495565825 5.592606314994461 1 2 2
420 2 19.373053411121948 7.472809578965885 3.888779702430005 -1 0 2
377 2 20.495916590078657 0.06333395971660397 9.448293702950329 1 1 1
747 2 19.98134492900877 6.220168262434277 8.59560178767715 0 0 0
972 2 9.442202989507862 9.615160899807847 1.3440146265240556 2 -2 -1
414 2 10.973225458140062 6.598031960183258 5.0392976481734655 1 1 4
96 2 4.0591456218308295 1.1254240951063825 7.153674413976739 5 -2 -3
464 2 14.209181658997172 6.4807741986362535 9.156931157161939 2 0 -2
725 2 20.125489984462774 10.005443843680709 1.4277324350758036 0 1 -1
142 1 14.721589101771166 3.503514427839464 8.246893574882634 -1 -1 -3
690 2 15.54327063814101 6.909482253793616 4.66915538083941 3 -2 1
866 2 4.018043295734901 4.566131013430586 0.8853586006267256 2 2 4
407 2 3.281252342003541 5.323036009015969 7.206080635798245 0 3 2
66 2 6.368124406045529 3.7513754301117763 8.592212252774335 2 3 -1
864 2 17.02857831098959 3.8629329376605557 1.340411196377679 0 0 1
172 1 16.822635537258847 7.904258962776819 8.400303329161341 1 1 0
298 1 1.9598796729032792 5.708705770359145 8.244367700640677 4 -2 0
366 2 15.859825924449682 7.241610005650285 2.34704050217622 2 1 1
345 2 6.791169829759126 0.3498904337844272 0.7210750682591853 0 2 0
90 2 0.48183571409817605 9.292072387240648 9.668785894920655 1 0 -1
274 1 14.178878774519324 2.2016420331669964 -0.08931094189146635 0 -3 -1
752 2 9.897092349515347 2.022093571504003 7.027282640512893 -3 -2 2
663 2 12.625504715082984 4.806103436601756 1.021381925380725 -4 0 0
855 2 10.201611952415613 3.9667519157839837 3.092364332499207 -1 0 1
519 2 9.412941706262947 7.443492471878504 1.3412060151825171 -1 -2 -1
724 1 20.89837251507832 9.470236841159917 1.271664688972918 0 1 -1
1007 2 16.97281312755383 0.8244397110546525 10.162344921574988 0 0 1
728 2 2.7495903505078707 9.502974609162894 5.4619834442117545 0 1 0
284 2 14.010175424254884 5.904651914875534 5.718176499747488 -3 1 -2
909 2 4.874533813971947 8.636080593467293 8.72960878581908 -4 -2 1
383 2 16.327329422469777 2.7815404165243596 8.754794496691899 -1 -1 0
890 2 20.903529812279597 2.008835243878141 1.626791405140612 -1 -1 3
368 2 20.86016922575924 7.801314927145249 7.026665498617476 0 2 0
365 2 16.52065181274149 7.643832719894328 1.0292052412615316 2 1 1
656 2 5.3007851639810815 6.291730358136842 6.754977739996935 5 -1 2
618 2 3.085347375821491 4.93111398037985 3.480317440978809 0 0 2
517 1 9.456103867781705 6.540961858930466 0.9023175599205506 -1 -2 -1
386 2 18.04851195553689 6.735774675473554 9.606316679655288 0 4 0
675 2 10.89147968676323 2.865285699887092 5.020487660299411 1 2 2
419 2 19.725688982305286 6.062263171927684 4.312731069291927 -1 0 2
790 1 3.1184941523884815 6.5066296334542955 2.6016497969088395 1 1 3
640 1 1.0783223970533318 7.886538579594685 3.315925126645115 3 2 -3
970 1 9.519955821480956 8.883512992009077 2.0240962340191997 2 -2 -1
792 2 3.9129538939668342 7.11689930895895 2.633272449417237 1 1 3
891 2 20.375453787004997 3.496785178558957 2.1147699284592907 -1 -1 3
853 1 9.605172488525021 4.679690330299277 2.9978941350267885 -1 0 1
642 2 0.3835484150701778 7.338485817250782 3.6082370446145413 3 2 -3
394 1 5.158921263242637 0.0752803114010129 3.7803132540829147 -2 1 0
563 2 1.8284382881843628 1.3591650650321354 0.049649764252382135 -1 3 -2
418 1 19.984509483441432 6.755748402582734 3.6710792212708574 -1 0 2
444 2 -0.01072226532304929 2.7302754906048934 7.112126021294401 3 0 -1
502 1 8.073570798055249 4.597020335689246 6.177142209578742 -1 -2 1
580 1 8.06690919038355 9.130194466842752 8.238484908968712 -2 0 0
729 2 1.7488958127597867 8.856524269653734 4.415458181930985 0 1 1
236 2 10.603410592801833 0.022702034578161695 0.5843031386789735 -1 2 -3
576 2 12.883218874843905 7.021900709115186 2.046068902748046 -1 -1 1
753 2 11.220255170036515 1.845287812629099 7.835259345007555 -3 -2 2
518 2 9.728460854973356 5.865551403755302 1.545646819730173 -1 -2 -1
775 1 12.573839604317467 5.749141924062163 4.77808929067963 -1 0 1
385 1 18.829410363103076 6.1938099898692345 9.835129422289727 0 4 0
1000 1 13.52522448290266 1.6109772714085773 3.6521930991537332 1 1 1
556 1 1.9889791434754995 8.271440670607728 9.635227076982979 2 0 3
771 2 7.404475865125082 2.522981984557958 1.9363027209778445 3 0 0
145 1 9.884934986470165 4.617903259437731 9.246455277048916 4 1 0
369 2 0.514760049336497 8.88099874324659 6.0858668350094645 1 2 0
89 2 20.84636512780218 9.699354970449209 8.414848061216425 0 0 -1
198 2 10.420806863114183 1.1756179780952822 2.4850923606404143 -1 1 1
633 2 17.78773878208139 0.9862254645673131 6.023830352659658 -1 0 2
761 2 5.993452675114595 7.505118919607816 1.752373522967693 1 0 0
769 1 7.703916762388775 1.8939100822348056 1.226420160408763 3 0 0
175 1 13.325668555456954 -0.11493097201041996 1.137088434864772 0 2 3
382 1 17.10973339423124 2.262664089643145 8.973979391013168 -1 -1 0
657 2 6.4022973469825315 7.047679245508124 7.571545985498777 4 -1 2
219 2 12.905411057425919 0.9750224758897749 8.934731928985274 -4 3 -2
635 2 2.011455710333407 3.0720309801692722 4.22541793231303 0 1 3
946 1 16.913509198558376 4.417645003457858 6.093405545155995 2 2 2
634 1 1.3869141591729257 2.313348757555081 4.398108050394924 0 1 3
733 1 19.37389941838537 5.117713828011653 5.67437488691415 0 -1 0
467 2 18.955370320639517 4.72215809916462 1.8825284912113096 -1 3 -1
641 2 0.6383133842748988 8.457382279659877 2.6653002276686255 3 2 -3
327 2 8.771530881304326 8.502582292440074 4.9100393503899245 0 0 0
194 2 18.19224587653089 1.4357363864496462 3.9042824811230514 1 0 1
762 2 5.894044712718067 7.911866168037408 3.284590380540183 1 0 0
776 2 12.666849247749884 5.8974373062022405 3.8180264946553515 -1 0 1
552 2 9.652453303888771 0.39106568944397846 8.24383028731731 -3 0 0
562 1 2.7579858301355946 1.1319359721495779 0.28993271362982237 -1 3 -2
31 1 7.449703744854237 3.125541302077976 4.133777031853489 -2 3 -1
839 2 20.535439731006274 3.4008744978581027 9.439897991621011 3 3 2
770 2 8.477162762899047 1.4551693972530986 1.5644743737528255 3 0 0
854 2 8.806430428951517 4.320578824443518 3.4469593953923385 -1 0 1
32 2 7.565879396426219 3.8360287707951275 4.837580793499849 -2 3 -1
865 1 4.920377981350772 4.281711457333369 0.71473213467109 1 2 4
285 2 14.609524886843566 6.561568233451018 6.974820237848356 -3 1 -2
920 2 1.3134586787210123 10.190884471910758 0.5814754044431967 -1 -1 -2
466 1 19.850927469914534 4.943763940193573 1.586907514711268 -1 3 -1
367 1 20.903307880339028 8.719467726051699 6.732479647755802 0 2 0
53 2 14.380879528062225 9.89863778994479 5.328814276192317 1 1 2
557 2 1.7513191703000528 7.410944586936004 9.154573833208588 2 0 3
443 2 0.13110962914839883 2.641287095161616 5.566712172990955 3 0 -1
64 1 5.923460828320281 3.443388019148224 7.780004354517895 2 3 -1
281 2 14.966708733442877 10.130763651361073 8.221894947719314 0 3 -1
412 1 10.000399888696991 6.7410005112775835 5.094806944753021 1 1 3
457 1 16.36778558039416 2.6281099268603914 4.143818090874439 -2 1 -1
661 1 12.348406413460143 3.8860309788028258 0.7787071629128626 -4 0 0
275 2 13.981210965014977 1.4223992352250114 0.44569073265607 0 -3 -1
760 1 5.5729473604699455 8.069142223531903 2.4323081893698033 1 0 0
73 1 12.275465803143247 8.116192598359255 3.0096909127445177 4 -1 -2
33 2 6.546560323135526 3.1511906642002 3.761688798012593 -2 3 -1
631 1 18.41465753183891 1.23811195626773 6.703693467830684 -1 0 2
74 2 11.429502815804781 8.407776299110882 2.6073017369567753 4 -1 -2
872 2 2.339078718049009 1.1918096004317982 5.635729605194147 -1 2 0
726 2 20.800082251149103 8.993122003251864 0.4317932209549154 0 1 -1
655 1 6.215393439495308 6.739802501730911 6.663886942331224 5 -1 2
504 2 7.594673234511187 5.425623867599986 6.309145193380459 -1 -2 1
636 2 0.906497875908376 2.0409035044266495 3.6393715689437336 0 1 3
574 1 13.297364614082346 6.266446217857989 1.5026082514411112 -1 -1 1
458 2 15.415320121353824 2.3835793757579333 3.998832286617547 -2 1 -1
948 2 16.28077855037467 5.095040728807552 6.222138278841758 2 2 2
662 2 13.03378958015172 3.3672092030173726 0.37854881277586555 -4 0 0
501 2 18.3862959262473 0.5002082107040239 1.8348646708880127 -2 1 -3
216 2 12.25186877983429 9.359614079316765 9.196483112279973 1 -2 0
276 2 15.161492159792978 2.1831550060384646 -0.13795753513827597 0 -3 -1
477 2 5.9050307641076 -0.09011531785219842 7.573600874803948 -1 2 -2
951 2 1.8739667227213808 5.023415544008279 0.08119216238806541 -2 0 -1
359 2 13.089637521409118 6.947171122341325 0.003351325239878582 0 1 1
493 1 6.783980380080815 6.584783785676256 0.4368832147648028 1 3 1
581 2 8.781665694377743 8.616452611052312 7.832639905269015 -2 0 0
52 1 14.257900748305579 9.873615799934766 4.364201027312752 1 1 2
39 2 5.963852483929105 8.010456996451909 5.6942810273286435 1 -2 -2
282 2 13.770907365347082 9.756470979942797 7.601955372470393 0 3 -1
682 1 18.216051210559215 8.746142925890362 4.3198456086726695 -2 1 0
897 2 4.212689737319908 0.19182010727197416 9.17259946310422 0 1 1
862 1 17.264504840829403 4.352256619622824 2.120273342386424 0 0 1
395 2 4.462239068043425 0.08589436400672137 4.467765754757002 -2 1 0
357 2 15.808067185793993 0.05750340387862121 5.387108738751267 -5 3 0
744 2 19.422995901508752 0.22407118856991057 7.496821820352717 0 1 -2
873 2 2.543026285862151 -0.15654588425858373 6.391319145444212 -1 2 0
949 1 2.335447964927897 4.661801273880569 0.8686901782820746 -2 0 -1
499 1 18.07211918709847 0.05463243299472584 0.969387993867151 -2 1 -3
582 2 7.981960226031443 9.990521143332414 7.805019924016718 -2 0 0
376 1 -0.20645104433457379 0.3521889548924684 10.25711904373227 2 1 1
867 2 4.856856314315939 3.790856432705356 -0.13950505656147352 1 2 4
740 2 17.477555758512754 1.5892770237995675 0.11631270325529607 -2 0 1
176 2 12.479812856227266 -0.13574923897318814 0.6350156218112242 1 2 3
668 2 19.830534969688262 9.728080363935968 10.315256226004022 0 2 0
902 2 8.05081571417959 3.0312692419203127 -0.19718505996417493 -2 1 1
672 2 7.878738235994998 4.2736355129789345 15.82005612939047 -1 -2 -1
496 1 14.912383600058218 5.790656656924333 18.770744215363155 -2 -1 -2
783 2 5.718332248555393 0.980544505874858 18.997719780288975 1 1 3
58 1 14.981710329150536 0.02171668597789775 12.45861300225923 1 2 0
484 1 0.46758349979250313 5.435926741371496 12.901182488854035 -1 -1 0
291 2 20.295890025055346 6.825241861780099 12.662471051064186 2 2 1
992 2 2.7482295247312685 7.989584685839956 13.078459140863075 1 2 -1
608 2 13.922377033977707 4.9233885678989395 13.860403001743515 0 -3 0
263 2 11.798948952599465 6.397430406828259 14.067241163352989 -2 2 -1
918 2 15.141671258834604 9.107725926593572 13.526352654940442 1 0 -1
290 2 19.631434902303326 8.171527122784555 12.02515313170007 2 2 1
961 1 7.132937481094886 4.250398649649774 14.211274403712439 1 -2 0
861 2 16.559775466911628 5.11381570109982 19.299739278621587 2 1 0
697 1 4.475134468041456 6.968815520745052 15.700366739253104 -2 1 -1
264 2 10.12921548562282 6.481100481024975 13.801829946086306 -2 2 -1
914 2 5.896765822794103 9.258753594349347 13.614969357431802 -1 2 0
18 2 18.739723971010758 7.321556193176996 17.136323359261578 -1 1 -1
168 2 6.411499472967546 7.488617544688978 12.054862631447204 0 -2 -2
869 2 4.445919577868211 5.475189268000442 14.917697896928754 -2 0 -2
772 1 13.431563421528717 9.430140222936618 16.88483052093506 0 0 -2
741 2 17.25563291257915 2.864510283217354 20.395059515974935 -2 0 0
610 1 16.00697193575847 8.68151774547718 19.889716430623043 -2 2 -1
205 1 12.228002574239635 4.359421932650476 16.753411660899957 -1 -2 1
676 1 18.26149773122658 7.272326435335683 18.756759623403227 0 -2 1
570 2 2.474013835863771 3.806267177032017 16.02585875587772 1 -2 1
235 1 11.067710778553815 0.02170226178533055 20.888049584537455 -1 2 -4
226 1 8.41500849064482 0.7285775778368883 17.39285536472133 1 1 -2
851 2 20.81073572879408 4.916153198079239 19.442322469954213 0 0 0
148 1 8.480410896680091 6.647358083838121 14.13787353756377 2 1 -1
629 2 18.482734095991766 3.876661617073218 15.482248204872443 -2 4 -1
7 1 11.76712013153835 9.35450990469675 13.16296986189754 -1 -2 2
47 2 10.047933748537474 7.133255662253508 18.749107671925298 1 -2 1
240 2 10.991244103699433 4.256078314777738 20.356619755154995 0 -1 3
549 2 3.335335127907172 4.059272970070902 11.223603332851741 -2 1 -1
295 1 18.76037158838744 3.637508275038178 10.588846831412292 0 1 0
485 2 -0.20191402763576116 4.644497062482 12.991132092863365 -1 -1 0
558 2 2.4212221702563 7.956470781205715 10.468229335131424 2 0 3
311 2 14.250097470233468 2.2033012980890367 17.347516474525364 -1 0 0
67 1 0.8866634897332039 1.5007667137858678 14.24016746748451 -3 -1 2
489 2 7.943418080307714 1.3786459032044687 13.87457751551289 0 -2 -2
917 2 15.815911407284029 8.926179765562358 12.155666941985357 1 0 -1
670 1 8.490155202987319 4.243437808720871 16.59602380473088 -1 -2 -1
591 2 4.7212726182911675 0.982474164297681 11.168566151910728 3 1 -1
375 2 9.646588673284933 9.524758039756952 15.895677139042508 1 3 0
698 2 4.348492198924955 6.814026787688302 16.690577033793495 -1 1 -1
81 2 3.35607273769532 0.6974990808387772 17.770808458828704 -2 -1 -2
671 2 9.08218910481713 3.547556585436878 16.37627112702453 -1 -2 -1
277 1 20.631116879297316 7.993060698843607 20.168743288676207 3 1 -2
315 2 7.23184052481253 7.993671358472396 16.889369944298767 1 2 2
884 2 15.16224682277047 1.2656481196431524 13.849589394980477 0 1 1
241 1 11.390896441528888 4.955382725731749 11.48194878584693 -1 -2 1
542 2 10.660137809006017 7.89131612871515 16.644209345296726 -3 -1 -2
55 1 7.485013941050801 2.3166444520449194 12.283910052730603 -3 1 0
784 1 20.254918155765537 3.844518003520889 18.091923872048866 -2 1 -1
103 1 1.9036703427865005 5.170553255622025 17.382483897676664 0 -1 -1
80 2 2.589773118603049 1.8666440624579765 17.085606431517437 -2 -1 -2
242 2 11.317700671400068 5.730140177549405 12.06622547814785 -1 -2 1
913 1 5.555467255963199 9.944090463551479 14.260720208643109 -1 2 0
379 1 19.77986464919822 1.4766462329224874 19.201533614227966 2 -2 -1
893 2 14.633436991902688 9.863173838710928 10.597478540534475 -1 0 -1
677 2 18.92661079696213 7.642643112836196 19.442294423266507 0 -2 1
568 1 2.6926844638220655 2.965559381946569 15.668998452563539 1 -2 1
607 1 13.34497594876723 5.503199927162184 14.436685696636285 0 -3 0
978 2 19.606431726943704 0.03315572959691329 15.162681166371726 -1 -1 2
892 1 15.572662188671119 9.592499792393014 10.53710383897179 -1 0 -1
498 2 15.034622371405362 6.342176756076548 17.99173480324708 -2 -1 -1
850 1 -0.010732273220073085 5.416562491216661 20.2251156772035 1 0 0
541 1 10.808789812243774 8.922660437697735 16.605146381473592 -3 -1 -2
294 2 1.4075553937973566 7.866782483453232 14.764778416958912 4 -4 3
374 2 8.20273108429853 9.637436177282686 15.308197709795788 1 3 0
105 2 2.716492423036547 5.336129860826436 17.85695407844171 0 -1 -1
34 1 12.94823807699898 10.063503571704766 10.797262596410373 -2 3 -1
392 2 1.0744293694034006 6.054834473015171 16.38332491552753 2 0 0
487 1 8.438538314375636 0.8857570983661222 14.507856411074783 1 -2 -2
209 2 5.027890262023516 3.1242747368025694 18.724819063171118 -1 1 -3
304 1 4.215074685357685 10.296791283075457 20.046873491635797 0 -2 -1
151 1 15.0767404270677 4.209792675762421 12.800941720679733 2 1 2
456 2 17.2855097954239 5.486350667773204 14.907244918652092 1 -1 2
46 1 9.666881803291384 7.554654933487517 19.61845979408794 1 -2 1
106 1 1.7277445946239223 4.525740447030728 10.729453800168564 3 1 3
200 2 6.966419240418835 4.079443227398687 17.6902342940951 1 1 0
150 2 8.003223672983118 7.157837756993961 14.8708809028503 2 1 -1
166 1 7.025685348711546 8.134657141472939 12.516832153072755 0 -2 -2
630 2 18.969589371659332 2.317868900324618 15.39664538236628 -2 4 -1
709 1 8.40000524384958 9.872779230508309 10.996467669168377 -1 1 -1
68 2 0.3607231688305821 1.8638475134898265 13.534401130733283 -3 -1 2
516 2 10.710027996599145 1.751852295307123 12.54549514307271 0 2 1
488 2 8.179823450315475 -0.060520740349114616 14.284647558937456 1 -2 -2
945 2 1.0201251649632406 9.650738402572486 17.64074680212124 2 -1 -2
293 2 1.9408944111485846 9.369383927444556 14.624070477192863 4 -4 3
786 2 19.878040653247293 3.1313135116362405 18.68353782032235 -2 1 -1
27 2 5.0488644035183174 5.67299862289444 11.102455146894311 1 1 0
678 2 17.44640270707444 7.736425897906873 18.938359300820277 0 -2 1
360 2 12.708977950439794 8.09905129901587 20.247512955328705 0 1 0
1006 1 16.935428983523806 -0.0257031245805589 10.620225498376517 0 0 1
228 2 7.582342891992033 0.7375690887596967 17.9370378440614 1 1 -2
289 1 19.494681214587967 7.206384921359786 12.179903579637267 2 2 1
515 2 9.445039007294882 2.5175433396616396 12.337256036864407 0 2 1
977 2 20.77891924696351 -0.22202832373914166 16.185434093416212 -1 -1 2
579 2 10.777550928183837 8.800022539216483 19.734036403068092 0 -1 0
153 2 15.883847663065042 4.734863687566798 12.612095288168705 1 1 2
57 2 6.746929017309492 1.720808456450025 12.113978900304332 -3 1 0
243 2 11.191149022409968 4.191463604410051 11.987481321717935 -1 -2 1
187 1 17.71747376178393 9.323328829978369 15.08296074093456 -1 -1 -1
212 2 16.542264105307694 6.876501721619095 12.922296509422381 -1 1 -2
278 2 0.022046122116612138 7.209888669392554 20.18134054088787 4 1 -2
310 1 14.33615270031807 1.4862724768708802 16.600551624426373 -1 0 0
619 1 4.410346486254415 5.97787832629125 18.19525846130652 -1 1 -2
598 1 10.800746023509253 0.10660833137051326 12.241471858224857 -3 0 -1
868 1 4.453946133359779 4.648675253977823 14.335487171833684 -2 0 -2
371 2 14.502714478238047 4.114036027645163 18.604701971013263 0 -2 1
140 2 16.062360388262256 6.761959440941588 16.218602607789272 0 -3 -2
126 2 16.58504541166287 9.969369494990826 16.830571350449002 1 0 -1
901 1 8.028941672644935 3.7777885524809043 20.332166558155695 -2 1 0
381 2 20.45713566390234 1.2026780273117605 18.535995533412446 2 -2 -1
885 2 15.27500259725721 2.03740406903225 15.17224519351061 0 1 1
167 2 7.634315564480588 7.587281868792363 13.084830127748894 0 -2 -2
286 1 5.30994668631141 7.863339932740804 19.78803115994458 4 3 -1
312 2 15.00545262902914 0.8550169573143546 17.018651909525616 -1 0 0
373 1 8.949903634302128 10.190710824431969 15.603484502451822 1 3 0
883 1 15.762444495079 1.8847944231318365 14.313166669192839 0 1 1
545 2 17.348055270431086 1.474242291109787 14.56018299583296 -1 -2 1
497 2 14.22515497104385 6.214348925387339 19.399072848984837 -2 -1 -2
963 2 6.158701184084786 4.459113888923994 14.131413134099233 1 -2 0
207 2 11.70034577373855 3.5014910616203667 16.608977679257876 -1 -2 1
238 1 10.43729070657742 4.283411616828921 19.58931149254747 0 -1 3
916 1 15.870525255560553 8.589225527977849 13.03004270742241 1 0 -1
842 2 19.524726588387896 3.122656500936866 12.037596240949648 -2 0 -2
123 2 3.4178856536689195 0.3921964112439592 12.905198468658526 -1 1 -1
210 2 3.660924998679655 2.2589222593350007 18.88636864118571 -1 1 -3
543 2 11.736167381966357 9.223600836273219 16.47824274472857 -3 -1 -2
628 1 19.332990305409258 3.2972587365510155 15.400058625251896 -2 4 -1
513 2 13.15789603595705 9.644847854198895 14.162349253270362 2 3 0
944 2 20.911272430424003 8.816634098147473 17.18222772445854 1 -1 -2
393 2 20.85851899414009 6.619636960224572 15.749769757679438 1 0 0
227 2 8.196807178054707 0.9708935920234022 16.464629867921662 1 1 -2
511 1 14.069182437514819 9.929522907332249 14.402846381819703 2 3 0
213 2 17.95560853241386 6.430172838017653 12.685844178507107 -1 1 -2
993 2 3.7360322859648516 7.3433236990971675 12.10355841008143 0 2 -1
789 2 9.352967753584783 5.838674223822704 17.02227631593417 1 1 -4
479 2 1.2408610978939638 0.3538373455064847 17.689223428879995 -1 1 -2
512 2 13.927345891402467 9.876149587444646 15.363638795351973 3 3 0
8 2 11.072878030824135 10.079702489927474 13.20484351471845 0 -2 2
279 2 -0.1174425702945964 8.603822625335637 19.52382302964369 4 1 -2
141 2 14.598800435346503 6.601588191426054 15.523396049675654 0 -3 -2
208 1 4.473099503261927 2.580449550561854 19.31756882517266 -1 1 -3
320 2 9.987370781764888 1.1785027583939955 18.129981343629485 1 1 2
149 2 8.037513392386613 5.7781062707325255 14.252011095151882 2 1 -1
667 1 19.342630512199555 9.785011922509673 11.18878057625616 0 2 0
17 2 18.487117710195893 7.753989034499712 15.656202782214628 -1 1 -1
319 1 10.71126352871252 1.6092654070828454 18.660738108509925 1 1 2
699 2 3.6860515072205717 7.497534494735929 15.463729208881157 -2 1 -1
991 1 3.15225927407996 8.08864165814644 12.13404069779762 1 2 -1
313 1 6.996798432422959 7.8340955362592215 15.944412181625003 1 2 2
391 1 0.664088358191596 6.530082014354295 15.56683119892959 2 0 0
107 2 1.02708713810558 3.8389265903191547 10.477065712969548 3 2 3
915 2 4.7294506129655565 10.269232829898522 13.821221728326906 -1 2 0
773 2 13.344200989548689 9.871594737368486 17.803283407705145 0 0 -2
544 1 18.18227683052111 0.9176357791686754 14.685806222237757 -1 -2 1
25 1 5.728031591315906 6.27885229524591 10.926675811329456 1 1 0
514 1 10.372611764353922 2.679117039169837 12.522328800506866 0 2 1
262 1 11.065719641035418 6.634400077410582 13.48055845847113 -2 2 -1
788 2 10.869880959042602 5.761185737223488 17.04488244620374 1 1 -4
56 2 7.32456779697574 2.9968555865469235 11.59092178180918 -3 1 0
759 2 14.417732338725079 4.773849195656752 11.117827132942898 -4 4 -2
454 1 17.551599854221713 5.07622337748741 15.730022999245955 1 -1 2
152 2 15.251209671848196 3.3745251997536014 13.295791320330531 2 1 2
108 2 1.3489318901899683 4.901836294424537 11.53159554195808 3 1 3
139 1 15.13261307478087 7.06749778652443 16.216809381234917 0 -3 -2
547 1 4.203414128052321 4.057133762748662 11.705665663753537 -2 1 -1
199 1 6.380792808850492 4.261565429685418 18.43979014050194 1 1 0
911 2 8.068329623825543 8.19606486973168 19.031884756749726 0 0 0
903 2 8.989207555066804 3.964481620050361 20.02316398973485 -2 1 0
314 2 6.040877944584713 7.738574682501805 15.819008982079861 1 2 2
287 2 5.8015617430938295 7.382309017935093 20.4350727551906 4 3 -1
577 1 11.436498519496915 9.506864423334909 19.938583307178657 0 -1 0
710 2 7.971729828206719 9.016133401709183 11.326914410551565 -1 1 -1
612 2 15.098239355565214 8.3739473789555 20.072132910741423 -2 2 -1
380 2 19.096242612733633 0.724175712778235 19.21426468427534 2 -2 -1
288 2 4.902907440468867 8.657881660021522 20.191043793240077 4 3 -1
321 2 10.874193773892918 1.1387598541181287 19.50062584639361 0 1 2
962 2 7.402541929558751 3.5646049068140413 13.565331508370278 1 -2 0
122 2 2.0889270421375 0.5213270245196033 13.678106534638138 -1 1 -1
352 1 12.242221025037951 -0.17952310759537715 17.061244621888285 -1 2 0
378 2 20.24671269120741 0.49463655018802144 10.952819469889961 1 1 1