LAMMPS data file via write_data, version 8 Apr 2021, timestep = 21653000

576 atoms
2 atom types

0.1392053557592591 17.78079564422579 xlo xhi
-0.06579564424117719 17.575794644225613 ylo yhi
0.28420535576107053 17.92579564422591 zlo zhi

Masses

1 16
2 2

Atoms # atomic

68 2 2.1289120377304522 2.1828794863850174 2.558266433656045 2 1 1
69 2 2.186661068521351 1.7481403835680545 1.075701966620292 2 1 1
67 1 2.024619738846407 1.4107883199144806 1.989091631544219 2 1 1
505 1 2.613201328988558 3.380991038823064 4.0651210015596 -3 1 1
506 2 3.436860043173565 3.0503242912283475 4.523950030349743 -3 1 1
507 2 2.7908742742754105 4.147494805977424 3.518565019392917 -3 1 1
96 2 2.123293969996453 0.07673335080086292 2.880625496548166 2 0 0
437 2 0.24189395334387315 3.7109058637202317 1.6666829019826035 2 0 -1
47 2 4.798473796855202 1.1795806069897168 2.2329615625883843 1 -2 1
46 1 5.450606119607532 1.836642969423594 1.9840658395037485 1 -2 1
48 2 5.677216971596594 2.1921606088080576 2.860152142595039 1 -2 1
411 2 5.437435532645694 3.040589824282395 0.2869771516287045 2 -2 3
252 2 6.445508394971506 0.5780559727171904 1.0790678592479186 1 0 1
250 1 6.953330039464465 0.1595891514205759 0.3339235926560223 1 0 1
260 2 4.993963441115745 1.4029915963016957 4.5391968384899535 0 1 2
259 1 5.090071126954285 2.4093243662335926 4.658615415196239 0 1 2
312 2 6.414655274272948 4.309910237523404 3.975493336829669 -1 1 0
436 1 0.5737484747331478 4.412105412235894 1.0792136674431545 2 0 -1
116 2 0.27456179616465604 7.7988299905588825 0.48277196720309 0 -2 0
10 1 2.6426566841570893 5.768753750007412 2.300591682922158 0 1 0
12 2 2.017128728723686 5.568770610849212 1.654704407042565 0 1 0
185 2 3.2401148161982545 6.636448537729109 4.053987942416806 0 0 0
11 2 3.5418640060602553 5.896453946018649 1.9546997844936955 0 1 0
184 1 3.952186309400765 6.948925671041281 4.658144877017691 0 0 0
338 2 0.7969103469063289 7.534807793485375 3.2533891231462486 0 0 -1
337 1 0.8188263236542046 7.786724302376234 4.20590882868089 0 0 -1
311 2 7.784997570889762 4.6733850555300185 3.1549852769480724 -1 1 0
310 1 6.86581591058732 4.9479812572195865 3.447708023388008 -1 1 0
323 2 5.3706769878373555 5.266850937331808 1.014456724005105 0 0 0
322 1 5.039495602605079 6.15585287923338 1.2700232635200062 0 0 0
324 2 5.693872315782892 6.473411193994358 1.9736868327405768 0 0 0
470 2 6.683850709841065 7.553307458440735 3.5802477707443283 0 -1 0
469 1 5.9236267006829255 8.00652435743712 3.2161623923997524 0 -1 0
186 2 4.625745254430462 7.330164671394963 4.060565553945422 0 0 0
75 2 8.678047998342688 7.9262893766859195 2.717511651817163 -1 0 2
35 2 7.6973181113569655 6.22348420170119 4.055373643363199 0 0 -1
34 1 8.123395368974167 7.008109666886512 4.541067503656667 0 0 -1
77 2 0.9798806254990904 3.4935928685588347 5.0625985325605765 0 0 1
121 1 2.0275052682392563 2.6511839388771934 7.688725952822754 0 2 1
123 2 1.1919505362815985 2.760041244072678 8.156307067768184 0 2 1
122 2 2.661275222129958 2.176178206039774 8.211972087748947 0 2 1
536 2 2.2253573168819614 1.466268147192342 6.424472013373947 -1 0 0
461 2 2.45632233070633 4.334864666138795 7.999252085669286 0 -1 2
535 1 2.069326934999886 0.7605959241939856 5.696599307047328 -1 0 0
537 2 1.1943049361747993 0.49406563866854175 5.9982295602414375 -1 0 0
261 2 5.455205937356736 2.3983769014425 5.576407010080073 0 1 2
448 1 6.295339999559629 2.521807125028754 7.159906033376541 0 0 0
137 2 6.290364611319812 0.9700063120791907 7.909876953762195 -1 2 1
449 2 7.186844907034605 2.673997512191009 6.902709446910305 0 0 0
450 2 5.895227422727592 3.29031348273961 7.658657406323847 0 0 0
136 1 6.125722587386974 0.15448471065776725 8.427760807274474 -1 2 1
230 2 3.2673542053812072 8.27717426708091 5.709780334619258 -5 -1 1
231 2 1.8557097414900114 8.357472365465213 5.4870828309467035 -5 -1 1
188 2 1.8620522466758471 8.111004437683876 7.539953337348826 1 1 -1
462 2 3.660497944605309 5.2433587154881325 8.18602938475037 0 -1 2
187 1 1.265858529691885 7.7056806682955505 8.205059789530676 1 1 -1
189 2 1.760527722278533 6.931442262537166 8.49289503303929 1 1 -1
460 1 2.6846241044434773 5.246997773220359 8.272330855699673 0 -1 2
229 1 2.509749846871339 8.717128288362943 6.08598491076534 -5 -1 1
361 1 6.7816879368755085 8.41315230981457 8.128715674445864 -1 2 0
19 1 5.372190243195523 4.729740342159975 8.186685792941503 4 0 0
141 2 5.101274649310291 6.438806665089097 5.8582906596951725 3 -1 -1
139 1 6.0037231848824995 6.453533844046921 6.234807843239636 3 -1 -1
140 2 5.9793788292458885 7.210263347893863 6.893861364096095 3 -1 -1
20 2 5.621428423314787 5.344705855184934 7.4510456801260965 4 0 0
36 2 7.474628244873644 7.174864371194829 5.276987838008175 0 0 -1
21 2 5.904932231704595 5.0243310285953084 9.020257567365132 4 0 0
112 1 3.6798920722000257 1.3281883357893716 9.438006691610477 1 1 3
236 2 1.391301013108706 2.5394723668142953 11.584576611257326 0 1 1
235 1 2.361084660985528 2.6531572804694474 11.46168270708913 0 1 1
237 2 2.38650414359321 3.606590773490672 11.234110705045834 0 1 1
114 2 3.3805745234098654 1.8112831722040534 10.225959633202196 1 1 3
359 2 2.6156486191155506 0.42469563417249034 11.993145420057362 0 3 -1
42 2 3.5312360638331928 3.193900272015691 12.737409761836652 1 1 -1
40 1 4.232203174111692 3.4887614068759234 13.38433668753264 1 1 -1
360 2 4.031747978612925 -0.05939496479673778 12.23814346514539 0 3 -1
271 1 8.1821552249669 2.6909240711520646 11.023275418297967 0 -1 0
273 2 8.674364890853454 3.070362085988381 10.23648674103392 0 -1 0
113 2 4.6272114582699855 1.1157104026198517 9.437158557761075 1 1 3
176 2 7.886042163564396 0.9554926766428363 10.688823118307319 0 1 -2
175 1 7.828348653606245 -0.0379885345605345 10.608886780165578 0 1 -2
272 2 7.502555033318387 3.4058499749471123 11.098726706102696 0 -1 0
395 2 5.825303332059061 0.3007989852381804 12.981426926265781 -2 3 1
41 2 4.650161352349912 4.306300330149256 13.089170425442932 1 1 -1
345 2 0.4024960700731989 8.734607529176708 9.32036438072428 3 2 -1
408 2 1.13584502243946 8.591611940075909 13.227098230622312 1 0 0
402 2 0.29980352402243293 5.146466313879572 11.481858166012243 -1 0 -2
131 2 3.669326862971612 8.229163211523032 10.918174975759749 2 -1 1
88 1 2.0616898791612512 5.103768987789793 10.790519084777927 0 1 0
89 2 2.4083542622450276 5.928611804611735 11.13827479405713 0 1 0
130 1 3.34537424015204 7.4748503374027875 11.377369841951689 2 -1 1
132 2 2.8013395715707037 7.889780604389218 12.099096209429911 2 -1 1
90 2 2.333292375554877 5.040185967813762 9.820059361197709 0 1 0
401 2 0.28099173254764087 4.521751639766086 12.91088628608547 -1 0 -2
406 1 2.015378020457665 8.354931402190397 13.514870995803118 1 0 0
59 2 5.661715718387386 6.511332389301118 13.247408219699267 1 2 2
417 2 8.804581582269504 8.205053700144882 11.266990172124176 0 -1 -2
60 2 4.5867710970702005 6.6481108990490245 12.02979414510011 1 2 2
501 2 8.01897810205419 7.488024244328638 9.111720052578454 -1 2 -1
499 1 8.680332679780134 7.111939170642837 9.74872168699052 -1 2 -1
364 1 6.79963612472157 5.2874800107965445 10.518486017888488 2 0 1
366 2 6.1790340777332755 5.4958939356596055 11.245463995635161 2 0 1
58 1 5.2539904671566955 6.023494608663921 12.48171094509789 1 2 2
365 2 7.458420198745691 5.9677404749107765 10.343188770970078 2 0 1
509 2 1.5495252728389433 0.5798282963915945 14.671210350037313 1 2 1
87 2 0.5961760397411725 4.251655615758912 14.86302419115855 0 2 3
510 2 0.3465527526252041 0.7357320631570615 13.717794877181438 1 2 1
86 2 1.018401885099097 3.036869655497792 14.08036526622519 0 2 3
444 2 1.1336119710173347 0.3865384721262647 16.87157285648935 -2 -2 0
4 1 2.3601448108118888 2.1574833744606896 17.129559108452053 0 1 -1
6 2 2.499592642229158 3.0452543310797227 16.75097777691593 0 1 -1
5 2 3.2855087877997162 1.7696023949581001 17.10522447782637 0 1 -1
508 1 0.7245678949431993 1.1136176533539714 14.557407986645199 1 2 1
263 2 3.6166202729112005 4.114606500033392 15.039194168910665 1 0 0
85 1 1.1134819629497132 4.008585528383221 14.069754589883209 0 2 3
438 2 0.27653646235333285 4.2957865323935005 17.77972309768342 2 0 -2
409 1 5.719403900297901 3.8397182533663843 17.441025455460387 2 -2 2
79 1 4.562964887614419 0.8336962070156223 16.725245303010226 -1 1 0
410 2 4.9708195091626886 4.068642868743307 16.957707555218303 2 -2 2
502 1 8.177008478053988 1.5744535239728825 15.806658510168216 1 -2 0
81 2 5.0334216740870605 1.1155658145841572 15.832660975513823 -1 1 0
249 2 5.316812772489605 2.32919465134661 13.8650744639839 2 0 -1
504 2 8.474872945247965 2.468109094308498 15.869095073641837 1 -2 0
247 1 5.840429162395241 1.53244454614135 14.212641275006614 2 0 -1
248 2 6.67669816320905 1.7925041782192381 14.645248052105439 2 0 -1
544 1 8.178886099170182 4.190892245738241 16.338763218432444 1 1 0
546 2 7.308122567139823 4.0824455860508335 16.730338999484136 1 1 0
503 2 7.968477342078057 1.28180257074122 16.711832814819754 1 -2 0
80 2 5.3357539359347825 0.41564212429291236 17.18833335871105 -1 1 0
160 1 4.513127245601697 8.023336319965855 16.971701494374987 1 -1 -1
262 1 3.5199453409027925 4.438847341925043 15.916478145153697 1 0 0
485 2 3.0921326350849054 7.347519649186931 16.24917072627883 3 1 -1
264 2 3.003116745254801 5.259119544095604 15.78691119131604 1 0 0
484 1 2.3965274541354216 6.790209196161604 15.796509895197833 3 1 -1
117 2 0.8569541216788806 7.411018053409119 16.721713719006463 0 -2 -1
486 2 2.156425497601789 7.132319822280174 14.878401990629845 3 1 -1
115 1 0.400509905864298 8.14945549627071 17.234634534310302 0 -2 -1
124 1 5.968860135392334 7.462231994193336 14.72584416501042 -3 2 -1
161 2 4.9083937043949035 7.375389244857269 17.566820222757023 1 -1 -1
61 1 8.525410129034395 6.62853578540664 14.807774634812265 0 0 1
125 2 6.059344159453599 8.372154745628062 14.415273797350409 -3 2 -1
62 2 8.449877740735728 5.6670565684337 15.063655426939814 0 0 1
63 2 7.589891458315369 6.863276610296318 14.752699049732636 0 0 1
126 2 5.431908236377709 7.558434371109278 15.508424712332284 -3 2 -1
545 2 8.863738901320952 4.4083819846817685 17.00965182981924 1 1 0
92 2 2.54106143462728 12.095165244384166 2.1816209878010264 2 0 1
556 1 3.457916992889591 11.494930201819711 0.9353547744677068 0 0 -2
558 2 3.426609028101046 12.418397635384347 0.5713961178692742 0 0 -2
144 2 0.8888835073832915 11.31309383435185 3.676839793265039 -2 0 2
143 2 0.30343849674929335 9.95179805431161 4.072586535505787 -2 0 2
557 2 4.394703272955509 11.187162608922458 0.8620169595667965 0 0 -2
91 1 2.110954340762987 12.399374656677344 3.062832843376925 2 0 1
93 2 2.8025337048059344 12.588353571284467 3.6765677252278595 2 0 1
453 2 6.3149928157018405 10.272249231218021 1.268543272732454 1 -1 -2
451 1 5.8975575072724835 10.127795183786702 0.4102142934069197 1 -1 -2
17 2 6.550540948683347 11.142134496156551 3.61893360857629 0 0 0
16 1 6.891721652496708 10.477692318230813 3.0054860531885255 0 0 0
18 2 7.838695608448342 10.300627719381534 3.2953729508913963 0 0 0
265 1 5.88702477293464 12.556311012032577 4.596706976723811 0 -2 2
471 2 6.1741827776704366 8.977503570695406 3.2449554201240556 0 -1 0
552 2 1.4015948987014426 13.687914679003844 2.8622675348403197 1 -1 0
282 2 1.0653244035789973 14.970600572121246 0.6257032503843187 2 -1 0
336 2 3.931122163914367 17.024604131726434 3.5937377484548865 1 1 1
551 2 1.454673654596263 15.23504693016651 3.002333411136658 1 -1 0
550 1 0.9684211750565823 14.557727230349302 2.5106795723349262 1 -1 0
94 1 2.2561250178218946 16.91550412991694 3.427276184082604 2 -1 0
95 2 2.2281982844111488 17.271191572656573 4.328283957510396 2 -1 0
334 1 4.889997351071608 17.27840724923981 3.711572365310507 1 1 1
251 2 6.846123584811549 16.834476725100085 0.42361680269982294 1 -1 1
335 2 5.301850678913346 16.43503191733325 3.7802633516078425 1 1 1
540 2 6.521788920694393 14.07827955323281 3.8679777738120786 1 0 3
539 2 6.480081649806428 15.08906834888483 2.612552835194355 1 0 3
538 1 6.687640065407036 15.019559500696001 3.595204263176124 1 0 3
457 1 6.4186205117943915 15.163407192180417 0.7574212558200737 0 0 0
458 2 6.979624190699474 14.508380726531813 0.35012846754772464 0 0 0
54 2 8.530022305586915 15.439340818429994 4.5463609670997664 1 -1 2
459 2 5.470388340311261 14.885968228557017 0.41015310105916175 0 0 0
212 2 2.6936501244912487 10.57401149826929 6.670551512850346 -2 1 -1
222 2 2.910562553753623 12.675794311390241 5.92661234381635 -1 1 2
211 1 2.3006121748225303 11.422237127356246 6.974230164500893 -2 1 -1
213 2 2.879411880449613 11.61331223636618 7.772008531192793 -2 1 -1
267 2 4.970904905053379 12.829233110333185 4.881548908738278 0 -2 2
362 2 7.482447103928824 9.029204720378502 7.843846712094337 -1 2 0
541 1 7.667502962303395 12.416604861627887 6.805180325337561 1 -1 -2
287 2 8.495667101884393 10.908009395725497 6.998755807326043 -2 -1 -3
266 2 6.434670634667684 12.435301478238895 5.435743107717919 0 -2 2
296 2 4.842911808661979 12.172837690372445 8.977162986424469 -2 0 -1
543 2 7.0583987496735645 12.620690406001243 7.57437608390571 1 -1 -2
542 2 8.425539292616257 13.011838573482917 6.853382297839262 1 -1 -2
286 1 8.716627478376447 9.972207556520054 6.867614063043818 -2 -1 -3
134 2 8.864632820047891 10.471263050858447 5.332656257642086 -1 0 3
363 2 6.230410922977879 8.890154856153378 8.76002269708777 -1 2 0
220 1 3.534080485129044 13.249673086928189 5.500144218420001 -1 1 2
205 1 2.5494852844664573 16.611679735116315 8.85963964701695 0 1 0
221 2 3.6222326575489925 14.13011872908483 5.960133778702736 -1 1 2
65 2 3.6046060476800585 16.053093382628425 7.538474648903812 0 0 -2
64 1 3.835272147003825 15.784643152390464 6.61787853810873 0 0 -2
66 2 3.424377856295119 16.537020103215514 6.111660526949957 0 0 -2
3 2 0.8311798278327721 17.080040874888613 8.223197286023439 -1 -2 0
445 1 6.517356536016611 15.239819290163613 7.15142805046894 1 -1 1
399 2 6.1921308096791146 14.043297273473762 8.663754055326951 0 -1 -2
446 2 5.676455231373043 15.211198484170486 6.692097372730387 1 -1 1
447 2 7.146205023318523 15.3781836429187 6.419885762968234 1 -1 1
397 1 6.363019679662926 13.18512437439339 9.052444276170746 0 -1 -2
138 2 6.377966864722118 16.97805576762895 7.939920831669933 -1 1 1
295 1 4.034469558740767 11.677670444441329 9.147435384304027 -2 0 -1
385 1 0.14450387320579589 11.781567949406492 9.54753368063889 1 -2 0
297 2 3.5642803037785966 12.197591012159265 9.853508023962169 -2 0 -1
387 2 0.9681006672147131 11.93775668226002 10.128362966029053 1 -2 0
203 2 2.554026198829441 12.387583976326818 12.004694569213262 1 2 -1
202 1 2.375691266049045 12.638049894257227 11.019374023583074 1 2 -1
483 2 4.615436043712899 10.319073330542933 9.598583530425332 3 1 -1
481 1 5.134630175021535 9.520680866037134 10.018808755936407 3 1 -1
482 2 5.6351654073728925 9.884045881750183 10.748704295174246 3 1 -1
352 1 6.98291467250554 10.555915187881851 11.993540961664253 1 -1 1
353 2 6.851419080912571 11.51088170336628 11.981526278805125 1 -1 1
416 2 8.309425407114041 9.6714837696198 11.646786477887769 0 -1 -2
354 2 6.557565763063684 10.278967664360723 12.802944330474276 1 -1 1
207 2 2.479082294911712 16.125986313734142 9.679903615391833 0 1 0
350 2 2.385533090775746 16.096851563326737 11.584612920153761 1 0 0
349 1 2.0248580917932415 15.368410925961012 11.142870047055267 1 0 0
204 2 2.3983901827641616 13.618606116042846 11.059992605308828 1 2 -1
351 2 1.113466510224565 15.205152646662293 11.549996917622783 1 0 0
206 2 2.8581764590585923 17.50804284512202 9.161961902240668 0 1 0
358 1 3.098326658947781 17.35579151329393 12.403264390278808 0 2 -1
433 1 7.402742076152693 13.44988915733076 11.515687248461152 1 0 0
434 2 8.388879754145183 13.287680797555852 11.648824181561656 1 0 0
394 1 5.729374730077132 17.247627319702804 12.287944771211661 -2 2 1
398 2 6.738150743554623 13.436224560235603 9.982754933795778 0 -1 -2
435 2 7.128343776550103 14.10265711030369 12.221002001320082 1 0 0
26 2 6.067708699713044 15.881446157065515 13.16010638941413 1 -2 -4
396 2 6.515666816960901 17.31756988592261 11.67090845737736 -2 2 1
177 2 7.433561858322796 17.500660047072188 9.719179688565461 0 0 -2
340 1 2.779108573608086 12.622017126906659 13.693140035847378 -1 0 -2
342 2 1.7842997229496524 12.729467003220815 13.839466351824752 -1 0 -2
464 2 1.9718855862831992 10.750254923611815 17.666092809009008 3 1 -2
243 2 3.0341530270013926 11.235549658854097 14.388037314844059 0 0 -1
480 2 0.3463157013694982 11.88695875527159 16.802273482450254 2 -1 -1
465 2 0.9465382516576367 9.745267085737263 17.01304016523544 3 1 -2
463 1 1.3678931099001879 10.574118575882794 16.90853239118197 3 1 -2
242 2 2.9252142790466964 10.479556256147667 15.714758692967868 0 0 -1
241 1 3.181045701468823 10.331037080369748 14.7825609085645 0 0 -1
379 1 0.20933031192348867 12.869961857336987 14.130747011936032 -1 0 1
407 2 2.3169802023486668 9.174648678394329 14.038495983835382 1 0 0
380 2 0.19267008501982674 12.883268185546406 15.118270154444216 -1 0 1
162 2 4.906545551881966 8.944292431324518 17.15421517912948 1 -1 -1
452 2 6.697092421836064 10.225371702257908 17.461996025460476 1 -1 -3
567 2 4.958927516465207 10.325638613022631 14.49121166223567 0 1 -2
420 2 7.8426973996498734 11.775356015618723 16.649933653085995 -2 0 -4
418 1 7.679881191740614 10.866169996978488 16.23436195737357 -2 0 -4
565 1 5.890529828566708 10.29992534334672 14.277564429897874 0 1 -2
419 2 8.381253038084626 10.58399614579831 15.613569555998895 -2 0 -4
566 2 6.39985761052092 10.781975606525844 14.938945571535568 0 1 -2
512 2 3.4597942169161144 17.540140212741967 15.682617239342253 1 -1 0
511 1 2.824128039652835 17.09961055585837 15.040844378368606 1 -1 0
528 2 3.2521152796322927 14.648466501765332 17.66278330968478 -1 -1 0
549 2 3.3908361385260037 15.294585480301746 14.990668115138444 0 1 -1
527 2 3.853015401372319 13.881239515604946 16.52132342523746 -1 -1 0
479 2 0.6298014670812664 13.465607844090286 16.897430437086786 2 -1 -1
281 2 1.3012728173589327 15.867662894921772 17.073743451246127 2 -1 -1
547 1 3.927559607549315 14.512156657875986 14.590584074026493 0 1 -1
513 2 3.1630844201246804 17.205530090128175 14.084755703901022 1 -1 0
341 2 3.1838069320652007 13.488371191359638 13.906494504646188 -1 0 -2
526 1 3.9768624687120386 14.05164071018748 17.47148175635345 -1 -1 0
280 1 1.3290247466088603 14.865556563684953 17.353874846679602 2 -1 -1
442 1 0.7182349645341868 17.337960910132168 17.381576642075206 -2 -3 0
355 1 8.587301841277679 14.822921381811726 15.365614092719326 3 0 -3
27 2 6.922455883449154 15.006810559087679 14.216288712703602 1 -2 -4
279 2 8.299443246740548 13.896731266008272 16.51296348603066 1 0 0
25 1 6.16622960746577 14.978858077917637 13.627536044325689 1 -2 -4
548 2 4.6511114896250385 14.821539540880805 14.022296163263023 0 1 -1
277 1 8.191617096584377 13.306912853125304 17.335925265441183 1 0 0
393 2 10.219171937613224 1.1186542882768307 2.313989978227542 -2 -1 1
14 2 12.27834389973934 1.8876937486355758 3.2774853088890072 -2 0 -1
13 1 11.688767365322414 1.0574874889461945 3.2322617830099745 -2 0 -1
15 2 11.603668789663724 0.6432511468506856 4.1244463055316105 -2 0 -1
163 1 13.059975392982983 3.227646682520799 3.728531535525635 0 2 1
227 2 11.559493611141681 3.66383852182685 4.680502446024795 -2 -1 -2
391 1 9.612584814325105 1.3793148829317563 1.634537742374245 -2 -1 1
414 2 9.147611293127804 3.240597618796279 2.68406970708996 0 0 2
158 2 11.38094083465487 1.5661058215314392 0.38423324059541314 0 0 -1
412 1 9.230326489674015 4.212240519898391 2.9008856950828004 0 0 2
392 2 9.091745722676459 0.6601115217567589 1.303121290891091 -2 -1 1
413 2 9.900375352630746 4.259500468398003 3.612974433429496 0 0 2
165 2 13.674477990308278 2.983997993734694 4.495894688316065 0 2 1
164 2 13.640255922350674 3.7259844880447304 3.0945871503899567 0 2 1
316 1 16.8713169787318 2.750788386921731 2.79078476865376 -2 -1 1
317 2 16.933601641730558 1.7271488064270493 2.804637029806756 -2 -1 1
369 2 15.55421758493949 3.7160524249419966 2.2074469089789495 -1 -1 2
318 2 17.30989938785078 3.0078006218264983 3.604589491039733 -2 -1 1
181 1 16.83910794086206 0.28694625383360983 2.2366487205445846 0 1 0
182 2 17.616294086849557 0.3100678749283101 1.6670158672687951 0 1 0
118 1 14.754889537445322 0.551633088584737 0.34398178729194895 -2 0 0
183 2 16.165608823016214 0.40105171235482134 1.5327223361675153 0 1 0
120 2 14.160842841990325 -0.021179861824606662 0.8839038662867695 -2 0 0
73 1 9.390659463282061 8.30649222669415 2.1344421300203527 -1 0 2
74 2 9.262882195840735 7.953907976302876 1.2269082530805115 -1 0 2
576 2 10.008147018609158 4.708831884637742 1.0729145530038315 1 4 4
574 1 10.262325179879872 5.1807675602423915 0.28713232982400166 1 4 4
367 1 14.941922844710907 4.468749795669142 2.1840062001314293 -1 -1 2
307 1 14.951093311245792 7.736535324743427 2.1794590232991777 -2 0 3
368 2 15.098227429425876 4.961463642413562 3.042516378438363 -1 -1 2
423 2 14.567100911615542 5.828399493267221 0.7936076315390086 -1 0 0
300 2 16.474330368134208 7.077480811306789 1.9010688230130495 0 2 -2
309 2 14.46446830843137 7.8591626669147665 3.026055544517764 -2 0 3
308 2 14.811527349427816 8.602159615109667 1.7741339092007056 -2 0 3
298 1 17.486969573466784 6.856445773447264 1.9308568140324653 0 2 -2
339 2 17.63822677613275 7.454265128089533 4.530015099741558 -1 0 -1
346 1 13.618038278493271 8.570835346835903 4.532900782058698 0 0 1
299 2 17.592600115606626 5.966158600559393 1.5349184642429636 0 2 -2
226 1 10.842227548856073 4.145595320288719 5.02349198089555 -2 -1 -2
57 2 9.495380020144529 1.637521068072486 6.122087003218435 -2 1 1
472 1 9.574572990144846 3.0364530603605235 8.930488583680079 0 0 1
39 2 13.355718433462041 1.662545485239741 6.332668414411364 0 0 1
473 2 9.473152065913734 2.847476566710881 7.96092777846955 0 0 1
56 2 9.460470374210354 3.1749295660514973 5.853022878113569 -2 1 1
372 2 12.2988354211193 1.0893880383758154 8.220875212278479 -3 -1 0
370 1 12.44905305396507 0.6834834801582934 7.324405196992897 -3 -1 0
223 1 10.323387766425572 0.233655285421367 5.6527635678554615 1 1 -3
224 2 10.996226123684536 0.2852409873708184 6.377304604518215 1 1 -3
55 1 8.966131309919616 2.4945152293049406 6.4037952058585255 -2 1 1
37 1 14.040259189935895 2.387173748664277 6.107113798841035 0 0 1
425 2 16.73543678249452 0.7930017875545636 6.665997880667407 0 1 0
38 2 13.624127715009745 3.2087474154907647 6.473757164732236 0 0 1
426 2 15.492126257965854 1.7060140045067806 6.041923288433465 0 1 0
424 1 16.43786798705572 1.3599618548278216 5.9173972363413245 0 1 0
156 2 17.257283680392966 1.5163293957398987 8.690447491334957 -1 2 -1
76 1 17.637859878883233 3.72919616632748 5.101152008181333 -1 0 1
78 2 17.410266231580064 2.847539944151931 5.571983434239515 -1 0 1
568 1 15.235532118812488 4.282594859727117 8.930201848749421 -1 2 -1
154 1 17.39054697897165 2.4882045141409908 9.070629055003895 -1 2 -1
155 2 16.60749409667866 3.035559730159617 8.882330772273036 -1 2 -1
228 2 11.096701289424429 5.000771836889799 5.419218439755087 -2 -1 -2
104 2 9.701335677381767 7.0508422952486045 5.733996442686651 0 -1 1
105 2 10.992549469997796 7.547757610079223 6.206520566609405 0 -1 1
99 2 10.144716072911244 4.611882525020858 8.793777558156435 3 1 1
98 2 10.557708518389324 5.687070822829047 7.619438299905848 3 1 1
103 1 10.539857144099267 6.691192632671901 6.160819971642365 0 -1 1
97 1 10.453676333788062 5.51265462385299 8.612468739453902 3 1 1
405 2 13.188258407718717 6.062032219505592 6.762519689299209 1 -1 -3
82 1 13.097145660287943 7.74816426713189 7.11911701120744 0 0 0
403 1 13.499198286932556 5.082934573283708 6.820827105967917 1 -1 -3
84 2 13.38716593476952 8.055146837904342 6.2330140691388 0 0 0
404 2 14.090243856825364 4.922076505700174 7.568721267720737 1 -1 -3
107 2 16.062717641538594 4.7936193565411855 4.990180332286777 0 1 0
108 2 14.591132786238216 5.4246533540196005 5.2868626570999275 0 1 0
83 2 13.796802794865457 7.686294803275896 7.769053733449368 0 0 0
106 1 15.407999706886725 5.525635427319355 4.754553689995125 0 1 0
561 2 16.14902560583087 6.716055100837528 5.917361358096016 -1 2 3
559 1 16.691798399448167 7.380897820642309 6.342526550367885 -1 2 3
570 2 15.54499973450628 5.186553319847492 9.062012771457987 -1 2 -1
560 2 17.315710149094937 7.029383238922546 6.9695285487776495 -1 2 3
474 2 10.446143592956565 2.6728160620911097 9.245571987963988 0 0 1
319 1 11.867874716396894 1.865159009721387 9.71832164090738 1 0 1
320 2 11.628434997579836 1.1506664787749619 10.318842739003365 1 0 1
321 2 12.624022097168448 2.2420954517723346 10.197286657518749 1 0 1
274 1 13.358303638805197 3.6341380300748254 10.949195360727447 -2 0 0
494 2 9.489026955318367 3.6132678274830368 12.33461787363004 -1 -1 2
493 1 10.105998334675995 4.184964831635784 12.779952381200111 -1 -1 2
238 1 17.711270273445535 1.087396131553229 11.581603437944981 1 -3 -3
240 2 16.76363814238838 0.9518280099633695 11.564124148181072 1 -3 -3
275 2 13.761558458638536 3.5422067034609848 11.82418677761438 -2 0 0
562 1 14.98619631328162 0.7065242610082691 11.462258306398653 0 1 -1
564 2 14.99143542483288 1.6190485909752959 11.7979615612801 0 1 -1
214 1 15.377915553897203 3.159154621886324 12.629055726453096 -1 0 -3
215 2 16.18404420545212 3.669446292875241 12.296555247617698 -1 0 -3
569 2 14.499276173254295 4.148171713642686 9.57888957642142 -1 2 -1
563 2 14.97726607467396 0.15184736770915108 12.252578789088375 0 1 -1
239 2 17.776091526944704 1.3470709170528605 10.611399680655156 1 -3 -3
500 2 9.384771325224799 6.547348733600876 9.324762742173759 -1 2 -1
147 2 10.383027743557594 7.90758918690996 12.703406103066229 1 0 1
276 2 13.079796426472885 4.542759722130915 10.91349088021602 -2 0 0
32 2 12.92734256653242 8.062588068495927 10.51984158232875 0 1 0
333 2 11.547070991256255 5.997749923459704 10.00265243913702 0 -2 0
332 2 11.660924777273493 6.286277661753764 11.510117116338726 0 -2 0
331 1 12.153029882972195 6.20096363563726 10.736233983586606 0 -2 0
495 2 9.590272650847574 5.01617113199118 12.661151333210622 -1 -1 2
145 1 10.776660451450374 7.122019493885535 13.189766265195132 1 0 1
491 2 12.508685182372474 6.967409300792069 13.427304138911191 0 -1 0
128 2 16.052068408295494 7.56049516203893 9.377518810975769 -2 2 -1
127 1 15.417000154911994 6.877031679584255 9.578248137647053 -2 2 -1
428 2 16.175144159210383 5.956140140012862 12.312404001414196 1 0 1
427 1 15.51520105029732 6.684759362118403 12.252524698250111 1 0 1
129 2 15.387477287806304 6.975634446087318 10.552070262552498 -2 2 -1
390 2 16.452229769553917 8.124836969415982 12.334448971922336 0 1 1
429 2 14.786675718434978 6.647594997495965 12.886798150586419 1 0 1
400 1 17.32361020418822 4.889577887306299 12.206440596206795 -2 0 -2
210 2 9.719847954356608 0.26434702816688643 15.64379215352887 1 -1 0
51 2 11.446728590707457 3.9554987411870792 13.817492465655162 0 0 0
178 1 12.404465830221723 4.285865593867221 16.80408729710564 1 -1 0
72 2 13.11816543565061 0.9255963630701229 14.230223315322261 1 1 1
50 2 12.754278272237222 3.189674868971259 14.341321685940905 0 0 0
49 1 12.334152377124274 4.057513861051618 14.331201568904179 0 0 0
159 2 12.257033796037485 2.6759532781985174 17.26850198411167 0 0 -2
70 1 13.318785506400172 1.5302262317655844 14.960937339933603 1 1 1
71 2 12.662625217253634 1.3475138018094304 15.679946071615817 1 1 1
157 1 12.070426632919178 1.7306391050106225 17.41072593883777 0 0 -2
180 2 12.271653438750608 4.249171288123765 15.833435342054981 1 -1 0
119 2 14.153976825180864 1.2762883627967643 17.631574235985237 -2 0 -1
216 2 15.557973837237558 2.9687307705725448 13.550635320111999 -1 0 -3
477 2 14.963469562556623 1.9413755062198008 15.327307754110869 -2 1 0
475 1 15.912110190524084 2.2125447624548733 15.301824716052042 -2 1 0
476 2 16.496163659291057 1.4901349625672495 15.527469345216911 -2 1 0
29 2 16.495084788574772 3.867623725990983 16.081961389984816 0 0 0
515 2 12.945343468446394 8.547666995218055 16.309914225177067 1 -2 1
490 1 13.269356272896248 6.5792710650843675 13.848913402380257 0 -1 0
492 2 13.015109886542211 5.672506451311082 14.112070423380572 0 -1 0
255 2 9.244932170171634 7.797164153685441 16.340189596345837 -1 -1 -2
575 2 11.122536885966763 4.8076490883742995 17.60996923020998 1 4 3
146 2 10.158517123859989 6.972549967287601 13.934441792416255 1 0 1
253 1 9.790031665675619 7.788902609661612 17.21289057945981 -1 -1 -2
179 2 13.323341368278912 4.643347117905329 17.138544276910153 1 -1 0
254 2 9.939065322380522 6.815770661785338 17.358361027974208 -1 -1 -2
422 2 14.198700225125698 6.594374820454046 17.151030336686745 -1 0 -1
516 2 13.430368635282525 7.464406148009404 15.26234351995179 1 -2 1
30 2 16.248220515225725 5.345805555830483 16.555391496337457 0 0 0
28 1 16.914251152384914 4.730847732289927 16.271159487226825 0 0 0
421 1 14.57356829967637 5.764090271446463 17.485676176558584 -1 0 -1
514 1 13.78157614221914 7.9222903164477305 16.073893435161303 1 -2 1
199 1 12.16350911425559 10.95707184999456 1.329728347823107 -1 -1 -1
201 2 12.001327186817008 11.823375273785228 0.9137287509498493 -1 -1 -1
200 2 12.022449802366912 10.398639414632076 0.5043215239374935 -1 -1 -1
135 2 9.88164830529089 10.406962304353202 4.091745440175059 -1 0 3
377 2 11.441029846722055 10.127064906063252 2.753141724408857 0 1 2
534 2 9.934172626114387 12.530056106685814 4.414906293088989 1 0 -1
133 1 9.148327700158077 10.870868846086871 4.4614050937680085 -1 0 3
533 2 11.428304902916267 12.717770957563937 4.439864576171891 1 0 -1
376 1 11.259395265325141 9.56575375045187 3.5430506149270484 0 1 2
378 2 10.763156485596195 8.813756760619185 3.2036577474076324 0 1 2
348 2 12.741393908229918 8.87625278160732 4.221977626751448 0 0 1
572 2 14.996178992132604 11.047483514341152 2.5980741245495516 -1 0 2
571 1 15.15847661743508 11.524725642465292 3.476477754153572 -1 0 2
573 2 16.025617344318967 11.19598025747705 3.815267395698139 -1 0 2
374 2 13.769940077914287 10.60616783506615 1.3187376190844031 -1 1 1
373 1 14.662177777473186 10.256643296472163 1.2325329519217314 -1 1 1
375 2 14.869276649423359 10.122850582069459 0.3448750434914629 -1 1 1