LAMMPS data file via write_data, version 8 Apr 2021, timestep = 4449000

1008 atoms
2 atom types

0.18845630034569902 18.211098699653245 xlo xhi
0.07215983675268062 22.498229163222486 ylo yhi
0.2075822678941965 19.298133732130076 zlo zhi
0.1948738115985556 -6.732113444333428 0.09409292621673827 xy xz yz

Masses

1 16
2 2

Atoms # atomic

1 1 6.635717318886685 1.1446230062372051 4.9621233735814165 0 0 0
3 2 6.756604037556703 1.461955958660966 4.038454855037741 0 0 0
4 1 4.0053668879365905 1.2881837104414233 5.417158586924066 0 0 0
6 2 3.9266393398833537 1.6678778087808244 6.293144192963195 0 0 0
7 1 -0.5197392620169178 6.514796623658057 4.856842878831175 0 0 0
8 2 -0.3422598684852898 6.2789622710032855 5.7888126102198605 0 0 0
10 1 2.1821730638620713 6.628242678342348 4.439152027790995 0 0 0
11 2 1.2010452243940217 6.722862009973407 4.424701667733291 0 0 0
12 2 2.6063691099084165 7.408709467531444 4.872290698575065 0 0 0
25 1 4.846534408766587 6.304305608788664 7.370747615485587 0 0 0
26 2 5.430772172900201 7.050198207023464 7.593494690535071 0 0 0
27 2 3.8796813444815874 6.637056823619577 7.503829724936582 0 0 0
28 1 5.946267630240957 6.433603929293406 2.409512362798265 0 0 0
29 2 5.715411930696288 6.16097037542829 3.317774872721955 0 0 0
30 2 5.2757347441438 7.155675349783254 2.1491060979575614 0 0 0
31 1 1.4032210839764039 1.1512148373706463 2.666772209770824 0 0 0
33 2 1.3170104056077234 1.4483163320353136 3.540965884796494 0 0 0
34 1 0.26255207181514584 1.2943080869642436 7.298483697278578 0 0 0
36 2 0.38832780502555986 1.8765588968002394 8.111827990319592 0 0 0
37 1 6.627544238215227 2.6621349707566586 2.7941088771711735 0 0 0
38 2 5.786057879904702 3.092411230567458 2.951319481695734 0 0 0
39 2 7.222707191930585 3.401947304923478 2.8472072692490147 0 0 0
40 1 4.149157350034389 3.1366096607258296 7.625372939947042 0 0 0
41 2 5.053618237826521 3.474134033670472 7.436193170296807 0 0 0
42 2 3.5125721805552272 3.8336512240918 7.226996418964568 0 0 0
43 1 0.08518590912133636 4.986691925394055 7.283235299537713 0 0 0
44 2 -0.6480180538073721 4.430918952318354 6.889656378646516 0 0 0
45 2 -0.15627706069122185 5.267188595338036 8.18000339676661 0 0 0
46 1 2.0126328599081003 4.8489118077071165 2.291280583859509 0 0 0
47 2 1.0457800548217593 4.78126760888441 2.3667091110823804 0 0 0
48 2 2.2331912360620967 5.4603853245296925 2.9981303008644944 0 0 0
49 1 7.046393015476582 3.4032374924845685 6.376942337943166 0 0 0
50 2 6.62796922909759 3.9856924195037506 5.675179705945143 0 0 0
51 2 7.211037000530428 2.548075689882641 5.874708139327069 0 0 0
52 1 4.040187727145179 3.495496996850968 3.5366272316530907 0 0 0
53 2 3.259101587362075 3.515511268962356 2.904447291834425 0 0 0
54 2 3.782344631787534 2.9442850763257162 4.298197461034213 0 0 0
57 2 0.03999761311368252 3.502140883918895 4.006163678931454 0 0 0
58 1 2.4164205021388336 4.677065798800571 6.234765038323534 0 0 0
59 2 2.5321861467646727 5.435779836836726 5.659021657354915 0 0 0
60 2 1.6177342685355067 4.8677747563746 6.794806509385274 0 0 0
61 1 8.3645300784399 6.941098688960549 1.6637078618975267 0 0 0
62 2 7.501162013706205 6.793035872055863 2.015834378166351 0 0 0
64 1 2.4932199973099918 7.1150865868174815 8.373667948407409 0 0 0
65 2 1.6235684892165865 7.432516657283259 7.984568527759486 0 0 0
72 2 3.9766804860596383 1.2354975583809436 1.046574687848115 0 0 0
73 1 5.670579594515429 5.311557958449002 4.828267257976015 0 0 0
74 2 5.324868482760172 5.672392618341528 5.6500572649607905 0 0 0
75 2 4.88005102688458 4.859340365174774 4.514071722245475 0 0 0
76 1 1.132500918837793 2.6241117477922944 5.053769941364024 0 0 0
77 2 0.7010766138308124 2.201626443883395 5.880486005842161 0 0 0
78 2 1.5736143868383765 3.3926076250621007 5.414814554951712 0 0 0
91 1 8.171067700865168 6.76124490107125 5.4869985292426255 0 0 0
92 2 8.257520741442459 6.021425242962825 4.813197830220874 0 0 0
93 2 9.080839348975388 7.105505285704069 5.4040654514568125 0 0 0
116 2 10.161311139821233 1.990646743433743 1.8834531051861836 0 0 0
127 1 8.800890727842235 5.014501597126877 7.58624713725989 0 0 0
128 2 8.20712468617227 4.29127749273759 7.135433922331801 0 0 0
129 2 8.74085343587838 5.771299792983838 6.949855338987038 0 0 0
139 1 8.590146670422419 4.5424512441047735 3.647654349926305 0 0 0
140 2 9.161100491445229 5.153346013628035 3.1424933806716555 0 0 0
141 2 9.014378517884614 3.8094239123751197 4.048193209553231 0 0 0
169 1 6.519347060195697 8.883568816901482 4.700751977183466 0 0 0
170 2 7.080055567617729 8.080414702319704 4.993176381032391 0 0 0
171 2 6.706020931958895 9.605760341732255 5.328746867246874 0 0 0
172 1 3.8271396467647767 8.640635173383629 5.315618182307186 0 0 0
173 2 3.738780099373647 9.43710065518752 4.816430992726353 0 0 0
174 2 4.758996901786642 8.391082351350667 5.097576978733 0 0 0
199 1 1.4246470575894827 8.687104962963378 2.4859136287576753 0 0 0
200 2 1.6270720131162073 9.286565172380298 1.7571378887352265 0 0 0
201 2 0.7916675723900697 8.028594720009158 2.1515883999187544 0 0 0
202 1 0.16901002556344388 8.6974503528919 7.744916906392151 0 0 0
203 2 -0.7766938959442207 8.35980106073076 7.762189435684809 0 0 0
204 2 0.29519491382521656 8.886265545371863 6.806458248570599 0 0 0
205 1 6.252942112151216 10.16857399188844 2.2221110356918996 0 0 0
206 2 6.608552362157581 9.557596087339467 2.9103721806090603 0 0 0
207 2 6.36274767426856 9.694715920498696 1.3972282454481562 0 0 0
208 1 4.373386460151503 10.115647117214035 7.534436984452282 0 0 0
238 1 4.0407542421901255 7.956392006574868 1.4810076135809305 0 0 0
239 2 3.2149099447832223 8.07311831881083 1.98870078767577 0 0 0
244 1 0.792393079298299 9.319982988953381 5.015353295007411 0 0 0
245 2 1.1420142242926523 8.912285614405723 4.16965906135145 0 0 0
283 1 10.454074775443107 8.55291535361569 2.4673773653748428 0 0 0
285 2 9.86513018056415 7.804126112319551 2.2430012016645446 0 0 0
288 2 8.431778321803089 8.612055652391227 7.795609877920288 0 0 0
319 1 6.758866272181324 8.08168907328881 8.585086052324401 0 0 0
66 2 2.8542254126257056 7.932546283098068 8.843970606222303 0 0 0
21 2 0.9631172904011264 2.081552124354528 1.3461847695064795 0 0 0
192 2 0.595293445821453 9.7546207491644 8.920778386147852 0 0 0
320 2 6.761386877310087 8.877852250938957 9.173623030237385 0 0 0
115 1 10.456492422488715 1.3559733060581314 2.5750518717814477 0 0 0
118 1 9.400948408417175 1.3709837704651213 7.421267835633976 0 0 0
130 1 11.412056684828968 5.320078044540918 2.5693135288378426 0 0 0
160 1 9.783368665848458 2.411811657586479 4.817593277462547 0 0 0
162 2 10.057234255103932 1.8747169447984513 4.057694826093588 0 0 0
284 2 10.169077300278188 8.939635213023863 3.324317914376239 0 0 0
329 2 9.679465662360293 9.543493576133665 5.79585785331848 0 0 0
286 1 9.241213572268068 8.926498203985533 7.419961074990367 0 0 0
328 1 9.949193078971664 9.949126034530334 4.9664504651980375 0 0 0
63 2 8.465571931786549 6.074761271620959 1.088050058478385 0 0 0
210 2 4.334701609823912 9.457466696134313 6.832135307296319 0 0 0
132 2 11.321687403826958 5.801169191260574 3.4226877244086467 0 0 0
94 1 10.89216563367699 6.580457356761714 5.141101582989161 0 0 0
119 2 9.500889550667694 2.1771682075436445 7.966177553844434 0 0 0
131 2 11.963144469116347 4.5338201093323836 2.793245484481368 0 0 0
161 2 10.55123195801106 2.8434608829938397 5.269716614374157 0 0 0
287 2 9.908846649122708 8.204660165317708 7.605547304324851 0 0 0
120 2 9.598498529820024 1.4925051953295203 6.467742634992971 0 0 0
18 2 5.612312143636252 5.318003554257928 1.0611689100324522 0 0 0
153 2 6.538508737844557 1.3303902496324416 9.166169051368225 0 0 0
14 2 5.293301325265376 5.219436089370379 8.915476665352069 0 0 0
5 2 4.970860541260464 1.1324187294366286 5.278516878462131 0 0 0
276 2 9.412058929341114 10.016842065092426 8.880239725544714 0 0 0
321 2 7.2144276606075675 7.316928085097125 8.97604962251617 0 0 0
330 2 9.20840502129909 10.488102550357322 4.664484300027657 0 0 0
272 2 10.555834024407433 9.654810066436001 1.1480264378551164 0 0 0
753 2 4.120043737675559 9.55736663177504 9.033526835671793 0 0 0
35 2 -0.6974620103813879 1.149640179540102 7.514007115513827 0 0 0
240 2 4.281837427972547 8.85735997635775 1.1078830052264617 0 0 0
144 2 10.537803489121904 4.479176528172034 6.789657247975638 0 0 0
323 2 12.613090787599718 8.489945173670048 2.0784950922613143 0 0 0
96 2 11.323899879229065 5.969390786828591 5.768617799741568 0 0 0
95 2 11.468238297805966 7.408358269956671 5.205299267103289 0 0 0
142 1 11.207363519185007 3.995334111825814 6.278114118905667 0 0 0
324 2 12.580010191686734 7.624166111302777 0.8044932345894135 0 0 0
155 2 13.122331910109807 1.1904338195452584 0.9989221917636871 0 0 0
585 2 3.9617249220538264 2.0789904967248125 9.09364108127241 0 0 0
80 2 6.833329400685539 1.884670970279756 1.0709683309582332 0 0 0
322 1 13.207069299245724 8.18688724044606 1.4107891241284307 0 0 0
148 1 11.00938454916237 7.071295584523629 8.342209185874784 0 0 0
32 2 2.331498126390231 0.9210312850391111 2.3781639614839922 0 0 0
136 1 12.935734818928166 3.2731960853201656 3.6493207293389105 0 0 0
221 2 4.766208288935603 10.471784825167113 3.0748877397094665 0 0 0
583 1 3.4529038219219497 1.496453064708341 9.697571931845847 0 0 0
152 2 7.5371066923952315 1.0503850753432542 8.002224139040269 0 0 0
246 2 1.3926381260585878 10.013245750424394 5.255018986581281 0 0 0
220 1 4.115752928554201 10.777551294604827 3.742153844298669 0 0 0
165 2 16.546120955246664 0.8600512823813904 0.43635664428145576 0 0 0
219 2 6.02628853065798 10.626188305716227 7.2936780685750096 0 0 0
86 2 16.3384557523183 0.4092922302341724 4.834285030477433 0 0 0
587 2 -1.491578143112155 6.772024318126098 9.444139647506663 0 0 0
235 1 -2.3041930639644024 8.039388041556862 8.147704894499002 0 0 0
83 2 2.421924329703298 5.492210111882761 0.8290179816007517 0 0 0
135 2 15.998322516885946 2.695392879929872 5.724002610957407 0 0 0
103 1 10.01685280771112 2.8640181563611273 0.34460804550155455 0 0 0
149 2 10.887214847584389 6.1431396799938875 8.5963488849113 0 0 0
143 2 12.101361468786617 4.001122899602071 6.6872206891931905 0 0 0
258 2 12.609524134515636 9.341212815758926 4.7776126967872345 0 0 0
89 2 13.096587377164262 1.9532551242368186 4.737183873061132 0 0 0
138 2 13.643411975525803 3.113973444301293 2.987783273739571 0 0 0
306 2 13.775438147717072 10.65900628234278 2.993519264725705 0 0 0
137 2 13.339072796217414 3.962278734949757 4.2220468299281375 0 0 0
256 1 12.688168359393288 8.636886168969143 5.441461423983387 0 0 0
150 2 11.319018889950685 7.5312388521631926 9.141912468457562 0 0 0
88 1 13.026536215073396 1.169237762548396 5.291355971111966 0 0 0
101 2 14.333937848528494 5.068006122418126 1.212569195751386 0 0 0
113 2 14.29599898614694 7.0211478819658595 2.205865156764648 0 0 0
126 2 13.42831093993075 2.305027623929522 6.7609461244949145 0 0 0
111 2 12.67847690292849 7.09706838826227 7.462281734487606 0 0 0
294 2 12.992573317327967 9.689637230597931 6.983974665750228 0 0 0
134 2 15.222287901417639 4.021909075929974 5.752527303678244 0 0 0
217 1 6.681760936352968 10.862675787631161 6.580968963488886 0 0 0
222 2 3.473575404607802 11.236043914960401 3.2147949829659286 0 0 0
9 2 -1.1191097265355678 7.241456659041989 4.7203812599666986 0 0 0
56 2 -0.6728176696679347 4.8743044201837264 3.837161221897469 0 0 0
55 1 -0.3709745967423158 4.109028782031731 3.362974597108136 0 0 0
523 1 -2.2165473455769913 2.678094258424323 9.717882063556077 0 0 0
586 1 -0.86494483945636 6.116088607475619 9.675848739346918 0 0 0
97 1 14.086860045545965 4.821739493905413 9.595330982247043 0 0 0
110 2 13.709213168488267 6.109241432095827 8.05908592339206 0 0 0
2 2 7.2369818518328275 0.3386773899372304 4.996839982820261 0 0 0
24 2 -0.48980880166435914 2.857889696039355 9.622489423898022 0 0 0
167 2 11.625418670472792 5.929007352048277 0.8188191069676388 0 0 0
311 2 10.847118736541939 11.256807866980978 5.681485009595772 0 0 0
399 2 8.164995030906885 0.2694302778204686 1.2828963426493174 0 0 0
257 2 13.627971383771587 8.34230109410964 5.375863142329328 0 0 0
90 2 13.883813761679772 0.7682022348370827 4.998099936072364 0 0 0
123 2 15.446788976579752 2.2878970474527263 1.6128251318513058 0 0 0
112 1 14.841626639553857 6.302125309915358 2.6349925707455397 0 0 0
121 1 15.451303875424102 2.6517244478822604 2.531359343160961 0 0 0
124 1 13.576467766154716 2.8812204639832837 7.548172843423723 0 0 0
292 1 13.102452302476365 10.387187206577808 7.651124950820854 0 0 0
157 1 14.008914437104501 5.267273316407536 5.163728302695354 0 0 0
114 2 15.756731684324077 6.648170445832203 2.4320128334408446 0 0 0
109 1 13.579336995005528 6.719025309057057 7.3291195310739425 0 0 0
836 2 12.5836509243005 9.600143217019639 9.074840997106092 0 0 0
668 2 12.965307606969496 2.091366245389675 8.933357668524806 0 0 0
158 2 14.332587101100016 5.822479709900442 4.386710595855906 0 0 0
159 2 13.777826135230544 5.805962553249735 5.906166197401763 0 0 0
289 1 15.414813084814568 10.151897882903912 2.38920421416024 0 0 0
291 2 15.426053530844372 9.638568279171794 1.5803578828469795 0 0 0
156 2 12.13927507862009 0.5642547998959007 1.9136937930744355 0 0 0
521 2 2.3335746247609968 5.576102141649561 9.1884017314433 0 0 0
70 1 3.850259254691722 0.47021792177466304 1.6215656282955715 0 0 0
293 2 12.347358683925606 10.940721431894579 7.30641047165611 0 0 0
271 1 10.50759483795375 10.156822378967169 0.28712618958726494 0 0 0
154 1 13.037208917721088 0.4294605280000044 1.5737682762806824 0 0 0
79 1 7.138863317613674 1.3569378451133671 0.29104008610162363 0 0 1
236 2 -2.3869724247315443 8.868417581644337 8.682738811241983 0 0 0
145 1 17.43804971863227 7.050056040048772 1.5688158221652335 0 0 0
255 2 15.447223253970495 8.948467299432718 3.904549883621694 0 0 0
117 2 9.837512138049197 0.6041698292517697 2.381509664564708 0 0 0
133 1 15.850430894544393 3.4801137257882786 6.271917713893101 0 0 0
68 2 -2.4603651280500145 1.2097318216731796 8.642340432082225 0 0 0
524 2 -2.773445419506393 3.5654028937097277 9.656736207777573 0 0 0
237 2 14.843732460508022 7.720076618894952 7.811281487136137 0 0 0
67 1 -2.221602810369449 0.32062917694462073 8.29908494548944 0 0 0
16 1 5.641782517225426 4.671141296949199 0.31270598444116016 0 0 0
146 2 17.330823678034342 6.203560292885055 1.1952027405927996 0 0 0
125 2 14.475311645158214 3.1586446736211657 7.418811088752723 0 0 0
209 2 3.511145048333473 10.512538312472575 7.233276145822236 0 0 0
305 2 12.247718829552136 10.966974804173178 3.2251312336409943 0 0 0
108 2 8.497127931832782 3.0381511010004356 9.622118195579436 0 0 0
19 1 0.9649621331009198 2.423176846433441 0.4382979307354977 0 0 0
671 2 8.579180963326776 5.5611736378341226 9.161740423100436 0 0 0
106 1 9.448112288833242 2.870142377300856 9.548835946645513 0 0 0
304 1 13.039538164084771 10.645732553731353 3.6481918452691704 0 0 0
290 2 16.219043109713933 10.693222372208126 2.4282339707013465 0 0 0
87 2 15.873384059928945 1.4814842458166708 3.801663697458352 0 0 0
302 2 15.194398137518844 10.516390333081041 7.173584557006569 0 0 0
122 2 16.26116171327226 3.24407353605398 2.5747405052391406 0 0 0
224 2 -0.211664148013373 10.959764910002889 4.198123134091643 0 0 0
84 2 3.155358091710061 6.7651101133617395 0.28079973883004233 0 0 0
151 1 6.747363744281904 0.6441315861129215 8.42512527849945 0 0 0
85 1 15.764634113566322 1.23031001998565 4.736098365822553 0 0 0
253 1 15.381279536053594 8.57931109880846 4.815972518404941 0 0 0
667 1 12.533170772720936 1.5792827518121566 9.6546040221637 0 0 0
254 2 15.58401804353629 9.341186680768404 5.363190714796714 0 0 0
584 2 3.0130149472839194 0.8161097691247294 9.173323028399318 0 0 0
301 1 15.830514728867275 11.012520976688775 6.588722561487339 0 0 0
147 2 16.955530767205452 7.658023358575965 0.8992421099876609 0 0 0
780 2 13.262367876093165 9.695372664409057 0.5770191008358523 0 0 0
22 1 0.4997963473974314 2.6827082568450784 9.51486398486662 0 0 0
100 1 14.456250661182589 4.732839713249348 0.2861522258130322 0 0 0
99 2 13.132322081060455 4.536553742596745 9.542664933487888 0 0 0
248 2 7.6053456833919935 8.340016063624635 0.555081357768168 0 0 0
189 2 2.347669808117277 10.359008510064873 0.2317583784912446 0 0 0
691 1 -2.0950023299550065 10.357875297375388 9.71152815091489 0 0 0
483 2 -0.2576179108732445 0.10919394266719012 1.9989800169294827 1 1 0
187 1 1.437321328949917 10.141639205135684 0.43857498286602353 0 0 0
17 2 4.837991881189297 4.041459025919288 0.34229578593008003 0 0 0
20 2 0.24540542240292468 3.0966538329544253 0.4546681700326381 0 0 0
696 2 4.782201965012438 11.111177718333701 0.211656799205728 0 0 1
694 1 4.196066124736515 10.275236999197347 0.24394574051605514 0 0 1
23 2 0.9809039206805952 3.5471452019191516 9.470612372162366 0 0 0
104 2 9.351257932886908 3.5365008429408697 0.21247254528189996 0 0 1
692 2 -2.6904932227862757 11.130886589463188 9.686408222332922 0 0 0
273 2 11.49079469135708 10.275971103109704 0.24155613141373966 0 0 1
612 2 11.84096797944719 2.940399269951235 0.28163642207189976 0 0 0
168 2 4.246303778290105 7.044061721108043 18.735931652525164 0 0 0
247 1 0.08539903278403847 8.777517084421458 19.07174838250197 0 0 -1
654 2 7.556139361950579 5.959957319160861 18.051274536129217 0 0 0
593 2 8.94429151585921 0.32986672978781467 14.317402517444838 0 0 0
740 2 -5.368499662689408 7.5222589164046445 18.419514020809476 0 0 0
721 1 3.451705796712253 10.825854513968686 16.268557688112793 0 0 0
604 1 11.401752004583193 4.623506331330686 9.809624844819293 0 0 0
164 2 8.667362596103828 0.9414131097549252 18.546514875558096 0 0 0
190 1 0.6278564036802314 10.284975786150031 9.80973611063297 0 0 0
775 1 6.817194238136053 10.178459865555014 10.173326294938002 0 0 0
603 2 10.566047725200958 4.683540424239107 18.265812903319986 0 0 0
728 2 -3.5608861125509743 11.200094935174011 13.50654926630876 0 0 0
13 1 5.188797820918287 4.825722088749051 9.80144313420048 0 0 0
797 2 10.528969881302345 10.67286301843029 16.778249765537755 0 0 0
333 2 8.591482852232108 8.035868037923308 18.75348024911565 0 0 0
752 2 3.64642288508288 9.670007024230573 10.517587605436724 0 0 0
725 2 -0.041404143057068826 11.132009718298299 12.529093627920048 0 0 0
711 2 2.377655731612925 10.408849059219769 12.230848000667647 0 0 0
505 1 2.9013801421539993 1.1059690196540102 14.222914699911245 0 0 0
506 2 3.070055641883234 1.7942334939370448 14.803296902494957 0 0 0
621 2 7.717506060190109 0.9628706908908884 12.179503872408327 0 0 0
508 1 0.16490320827123603 1.3391014455585357 14.659013936415077 0 0 0
749 2 -1.7993158673167098 10.763624986503727 14.546957595192064 0 0 0
527 2 -2.8888415590469343 2.4994184022877497 18.18629154534667 0 0 0
511 1 -4.0919653559554385 6.67287374797964 14.52523166463278 0 0 0
512 2 -4.213653984152243 5.920331554323097 13.902847975123683 0 0 0
513 2 -3.969442538300057 6.116400768868589 15.29917857303994 0 0 0
514 1 -1.2195221208946543 6.514728831346935 14.18201973855054 0 0 0
515 2 -1.2671507669602993 5.63958680428265 14.684534913188681 0 0 0
516 2 -2.1054363744418336 6.874562912395507 14.366491690233202 0 0 0
835 1 12.50630717429645 9.009422508296884 9.926242400460616 0 0 0
519 2 1.6533392272759302 5.392196318015828 18.162784323534648 0 0 0
828 2 8.91923059318929 8.025717649046124 11.974445968122371 0 0 0
332 2 9.574515209675818 9.3403338315763 18.522910695468436 0 0 0
249 2 0.5019124030892408 9.330601419730048 18.40205596729731 0 0 0
724 1 0.794215850772112 10.778836817940617 12.943313561921586 0 0 0
574 1 0.3840097780568682 0.5590107739422672 11.488726890082264 0 0 0
798 2 9.581741082524937 9.536059484366959 16.59550037611301 0 0 0
572 2 -5.910340840970262 1.1165745482844842 18.160394904930317 0 0 0
529 1 1.5596259838530966 6.439760258218772 16.754326029845057 0 0 0
530 2 1.5172752579010869 6.02363278362063 15.852753832634871 0 0 0
531 2 0.5827385647786915 6.723246085632836 17.042354737792536 0 0 0
532 1 2.2910944684881662 6.3024285176881145 12.031127997722926 0 0 0
533 2 3.248363501627664 6.412573371860274 11.952019187426721 0 0 0
534 2 2.1594362565857965 5.93078128989479 12.899170013526529 0 0 0
535 1 -2.285029365366573 1.0837450017124048 11.95840323354255 0 0 0
525 2 -2.402758121174871 2.394208417236167 10.700665586341715 0 0 0
520 1 2.3606153284135996 4.810528924969935 9.816718756049623 0 0 0
538 1 -3.0306191656401094 1.3764268921420848 16.821017250742887 0 0 0
609 2 6.656440854600845 2.330157152311865 11.055142874611896 0 0 0
540 2 -3.0018603738328107 1.5584280861271858 15.838110204486764 0 0 0
541 1 2.792680001857644 2.8456623318105665 12.07205134134445 0 0 0
542 2 2.812883899059664 2.262089550623446 12.837383152524797 0 0 0
543 2 2.918618136666243 2.307098934874451 11.280281402664807 0 0 0
544 1 0.5176685743464727 2.745491043814992 17.00770143244128 0 0 0
545 2 0.39998854480055357 2.314117339586331 17.91369571986502 0 0 0
546 2 0.2946906116046193 2.08183013602818 16.32394485988718 0 0 0
547 1 -3.4533523108469684 4.758679622157526 16.820952483807222 0 0 0
548 2 -4.083779600620143 4.017122334121812 16.561611469505205 0 0 0
549 2 -3.760425229845355 5.136384818571135 17.675359999973153 0 0 0
550 1 -1.4304399938082826 4.933409248457627 11.924589938973577 0 0 0
551 2 -0.785052197575207 4.186422678167177 12.179529430578933 0 0 0
552 2 -1.4009134475769471 5.561118152407934 12.636264061056536 0 0 0
553 1 3.1107095373720304 3.288349408718223 15.891727112903025 0 0 0
554 2 2.34012908367293 3.065046014592853 16.516734682286945 0 0 0
555 2 3.877852264505438 3.6935185651204745 16.3266988869777 0 0 0
556 1 0.4142261601469689 3.4026454561603323 12.845642360025392 0 0 0
557 2 1.3094044321921656 3.199061463453679 12.389064557070665 0 0 0
558 2 0.2695513363292604 2.646534657091774 13.487000687566423 0 0 0
559 1 -3.9708386741785384 4.398783028678155 13.023899975589332 0 0 0
560 2 -3.3074833177364 4.617743204148378 12.294084902499296 0 0 0
561 2 -3.578289891234674 3.5262060795979315 13.400073808637483 0 0 0
562 1 -1.4384640416435313 4.159487465585715 15.492284926125759 0 0 0
563 2 -0.7926762068600455 3.845746167383397 16.169591464104872 0 0 0
564 2 -2.23223400142446 4.412243712148107 16.095596762055663 0 0 0
565 1 4.8942683604241 7.171706546304488 11.61089053119155 0 0 0
743 2 -0.045658078230201765 7.424192353304751 10.580292508294031 0 0 0
669 2 12.312958975223587 2.2331786396227096 10.332478045872039 0 0 0
568 1 -0.9407671124560789 6.950277243927788 17.510998590686928 0 0 0
539 2 -3.995366535280672 1.0788835437965716 17.001538568495224 0 0 0
610 1 5.971936946581258 2.722649147010305 19.088319768113717 0 0 0
779 2 6.3782768716746805 10.200798748706578 18.15356870503429 0 0 0
81 2 -0.3701444127091148 0.8730801054497652 19.06597768121317 0 0 0
827 2 10.299684790668246 7.322161719756305 11.61697778998803 0 0 0
809 2 10.270999714305272 10.462440465242166 12.669258528245704 0 0 0
576 2 0.6004897885454386 1.3477742214547104 11.00345408473828 0 0 0
577 1 1.8711101113373578 5.202584328391611 14.315151820431858 0 0 0
578 2 1.0588066701417698 4.737023505270821 14.161420634977032 0 0 0
579 2 2.5045749264635013 4.563983098663426 14.756176681206552 0 0 0
580 1 -2.9782713505773946 2.307905765775498 14.339522928176333 0 0 0
581 2 -2.6391615350496838 1.788709775831676 13.496156145769541 0 0 0
582 2 -2.145879366034287 2.8654889163074113 14.467559200679023 0 0 0
98 2 14.302302720393188 5.6475547368822765 10.115552409414544 0 0 0
510 2 1.1020622417863544 1.0977309310543157 14.630723287392357 0 0 0
589 1 12.242470145472844 1.0154166658374133 13.947834821651428 0 0 0
507 2 3.739439097067987 0.6512592965124699 14.0165103647448 0 0 0
591 2 12.473467902362492 1.7035899911000596 14.546510555619896 0 0 0
592 1 9.628396571430146 1.0183806521712024 14.578638214649391 0 0 0
826 1 9.551077084883408 7.872107476151948 11.259440065800801 0 0 0
594 2 9.311982610101309 1.7871457519779066 14.154327070510922 0 0 0
595 1 4.9703356911822665 6.646793346253083 14.634403427555835 0 0 0
596 2 4.997600826208073 6.149171966563843 15.510816222817526 0 0 0
597 2 4.756751971651673 5.938820286840461 14.039495891901629 0 0 0
598 1 7.681615456970364 6.755276731727137 14.45241849362344 0 0 0
599 2 6.748533942351411 6.807550546016197 14.59077533187704 0 0 0
600 2 7.8274718593967725 6.334164222968144 13.583817321147537 0 0 0
537 2 -1.3492994363959405 0.725318675541947 11.920878514579936 0 0 0
107 2 9.551141447867433 2.098325653642994 10.1594829589025 0 0 0
834 2 5.784979156792735 10.556582921425353 14.171987236162439 0 0 0
605 2 11.42261099996361 5.053670416636412 10.725906778947817 0 0 0
832 1 6.2676516216786595 9.8465732409857 14.56941933291805 0 0 0
837 2 12.134295870521942 9.522294145850202 10.644600447865184 0 0 0
825 2 3.190108835239027 8.757107258428666 18.051984321182776 0 0 0
570 2 -0.7245328957235677 7.622929014914961 18.189863537626348 0 0 0
566 2 5.215017730406813 6.423586366475886 11.08491498809094 0 0 0
611 2 5.940336797179173 2.275022042971235 18.229371791168568 0 0 0
613 1 10.510638843815865 6.252704769861077 16.85228601318314 0 0 0
614 2 11.045487858837518 7.029553635089651 17.02452826872194 0 0 0
615 2 9.553529571927637 6.482980746551554 16.943039604702882 0 0 0
616 1 11.413595705935188 6.256073914655203 12.04984934397384 0 0 0
617 2 11.391307598000955 5.8952842863463495 13.00897557026442 0 0 0
618 2 12.400047002983635 6.594430340097764 11.89014214841648 0 0 0
619 1 6.80517178325025 1.2559935701180696 12.41486605836486 0 0 0
275 2 9.6183581635096 9.54558862759037 10.29005804756361 0 0 0
509 2 -0.34127286469249407 0.5307225418329375 14.555467105599378 0 0 0
622 1 5.381943604207498 1.2225323048925243 16.86379571018668 0 0 0
105 2 3.0266161449775453 2.2008808000533864 18.788824482218466 0 0 0
624 2 5.555167795879509 1.7174592956338361 16.075545469355454 0 0 0
625 1 11.728682848645008 2.922521298371121 12.094171628208008 0 0 0
626 2 11.968351016078861 2.18571110449297 12.741423838009183 0 0 0
627 2 12.414926185889218 3.6678291646578645 12.253899654993099 0 0 0
628 1 10.004917014000414 2.701600725558962 16.721511626448162 0 0 0
629 2 9.853194859260423 2.463146591574187 17.64723825405195 0 0 0
630 2 9.863001141979018 1.9533599145377567 16.10404585373384 0 0 0
631 1 5.005819816203965 4.850324728108539 16.792656131632075 0 0 0
632 2 4.867640567756391 5.28593651333826 17.667536777968927 0 0 0
633 2 5.905167962867299 4.588472547630467 16.76071617465566 0 0 0
634 1 7.835610843658969 5.292591558561529 12.183444456825871 0 0 0
635 2 6.920568973368357 5.018402648437517 12.007512892680284 0 0 0
636 2 8.134157071523937 5.647801506191064 11.24555992189465 0 0 0
637 1 12.582993967105768 3.1095284082428494 15.936228990539043 0 0 0
638 2 12.343086697869605 3.8648140714323125 15.339281303250027 0 0 0
639 2 11.709826333364653 2.9618911411335094 16.35117562702423 0 0 0
640 1 9.155691093717685 3.3341103508025993 13.249111743036591 0 0 0
641 2 8.702935522453895 4.115027874533255 12.986701168997815 0 0 0
642 2 9.963685339218019 3.2918941355443656 12.732587442604549 0 0 0
643 1 4.83202851040375 4.694511411341423 12.889758948777642 0 0 0
644 2 4.218857921143336 4.168461991169042 12.295163758512054 0 0 0
645 2 5.208787792458828 4.0442620867984305 13.521162459378052 0 0 0
646 1 7.7853418656964735 4.373572420292681 15.923774231325165 0 0 0
647 2 8.461399284850211 3.8034932870245117 16.323588275911746 0 0 0
648 2 8.287887200519474 5.11740812824165 15.578022934603435 0 0 0
649 1 13.786574098373727 7.085964523062978 11.178949151061431 0 0 0
650 2 13.41419713895154 7.759737033936961 10.623248215927314 0 0 0
651 2 -3.5538271234578582 7.5940363865438805 11.729134405100705 0 0 0
652 1 7.881491561545599 6.7547706136347045 17.67850637976094 0 0 0
653 2 7.0923106213832865 7.292946460671447 17.56975778030092 0 0 0
778 1 6.422916149053825 10.606693800538164 19.078566334875728 0 0 0
620 2 6.187870337379134 0.5773284504226281 12.139473602141821 0 0 0
986 2 13.279470821383542 0.2500778674123675 10.387940656818376 0 0 0
661 1 11.081282457549394 5.232618190817293 14.518983875712093 0 0 0
662 2 10.932945441853981 5.725106939359752 15.34491392930887 0 0 0
663 2 10.35342838796839 4.579952408014539 14.515076930801465 0 0 0
664 1 6.046421344663964 2.711587984926244 14.535507352228148 0 0 0
665 2 6.737146983188783 3.3474090845900366 14.779743884042801 0 0 0
666 2 6.360646982424267 2.166053632940369 13.732872630361431 0 0 0
776 2 7.700507504693574 10.53614476547476 10.00626831151421 0 0 0
796 1 9.759737262503995 10.240632567924225 17.22810278472286 0 0 0
571 1 -5.700682116774211 0.4260822043806503 17.525849643057413 0 0 0
673 1 3.204984363341409 8.671506573590692 14.416034534520964 0 0 0
674 2 3.8456003362739732 7.860252544688566 14.461037210210694 0 0 0
675 2 3.5625064681877348 9.271281025363653 15.099446499556977 0 0 0
676 1 0.3121590660719913 8.667548458059942 14.6675720089662 0 0 0
677 2 1.2649446055381768 8.476095728249986 14.567942175796064 0 0 0
678 2 -0.08376518719129886 7.751424723311934 14.598989891639476 0 0 0
623 2 4.4189300143767944 1.1882273108611883 16.97062459281192 0 0 0
812 2 4.361128651179091 11.226078297027874 12.726810940417149 0 0 0
15 2 4.215043943678103 4.860387564205495 9.77589153111689 0 0 0
807 2 12.515868411694045 10.216398389617162 15.45871455219871 0 0 0
695 2 -2.36259725760812 10.003296723418291 18.404976288826774 0 0 0
590 2 11.256320456929974 0.8256877484985419 14.15825716342702 0 0 0
703 1 -2.2237258919132006 8.666043705050948 11.950062405254844 0 0 0
704 2 -2.3657053579623417 9.291063480213555 11.117653802870665 0 0 0
705 2 -1.3089371872516322 8.282086422834952 11.818661458263191 0 0 0
706 1 -2.966223372105575 9.053014838809895 16.963636211815288 0 0 0
707 2 -2.794644201756579 9.397510427776783 16.09955827665595 0 0 0
708 2 -2.4253267373153284 8.271757703188365 17.03345292761365 0 0 0
709 1 3.3412928511817355 10.16763643522723 12.272303966645756 0 0 0
710 2 3.323204759580823 9.568293130247657 13.060075608494737 0 0 0
795 2 11.943599269772283 9.403993552491556 12.88198174072022 0 0 0
712 1 0.8389996959046774 10.309773810386568 16.952510649093757 0 0 0
713 2 0.580935798901701 9.841697324475637 16.162062278799993 0 0 0