LAMMPS data file via write_data, version 15 Apr 2020, timestep = 200000

972 atoms
2 atom types

9.9989733937213998e-02 1.9891063266066311e+01 xlo xhi
1.1591631601499408e-01 1.9875136683986206e+01 ylo yhi
2.4357005420790934e-01 2.0557201945792677e+01 zlo zhi
4.0603023929014215e-02 5.3584173441955395e-02 1.4135772207310607e-01 xy xz yz

Masses

1 16
2 2

Atoms # atomic

4 1 4.1224796140044893e+00 1.4660087229391294e+00 3.5087762617718519e+00 0 0 0
5 2 3.9746708736721965e+00 2.4417305267952161e+00 3.5217914875809955e+00 0 0 0
6 2 3.3621075430218395e+00 1.0959521064267945e+00 3.9564664431779692e+00 0 0 0
7 1 5.8945979706951643e+00 4.5515057839361406e+00 5.5605360830514030e+00 0 0 0
8 2 6.6752101045744006e+00 4.3474993172975989e+00 4.9314220244139406e+00 0 0 0
9 2 5.1964679499302218e+00 4.6634277957738943e+00 4.8835766127050872e+00 0 0 0
10 1 1.2703140703155327e+00 4.0331591439914547e+00 3.9287389165662847e+00 0 0 0
443 2 1.5463722024435664e+00 1.0091502593759509e+01 1.0191283746998838e+01 0 0 0
12 2 1.2300675814955373e+00 4.8976823222746928e+00 3.3850842814755056e+00 0 0 0
13 1 4.2656119542527700e+00 6.1243255370326297e+00 1.8324278857817353e+00 0 0 0
14 2 4.1306191367197806e+00 6.9185017311348940e+00 2.3578226163152807e+00 0 0 0
15 2 3.4497186757620746e+00 5.9749921895706644e+00 1.2659963566598536e+00 0 0 0
16 1 3.9210999100710873e+00 4.2994064121206446e+00 3.6574699028564828e+00 0 0 0
17 2 4.1518039545217134e+00 4.9317892146060904e+00 2.9466639786456419e+00 0 0 0
18 2 3.0356336525391874e+00 4.4858097655642570e+00 3.9505504361688932e+00 0 0 0
19 1 6.1893756582089243e-01 6.0040367905641672e+00 2.1526590442591100e+00 0 0 0
20 2 9.5448407647239208e-01 6.9272954532075177e+00 2.2715741430821530e+00 0 0 0
22 1 1.9066513180343097e+00 7.0423019659778952e-01 5.0385732843017843e+00 0 0 0
23 2 9.5109324879060719e-01 8.6898107660569490e-01 4.9241515249817187e+00 0 0 0
24 2 2.1625161640089323e+00 1.4073728312127456e+00 5.6916667503822396e+00 0 0 0
25 1 2.7408115468244771e+00 5.1411469247784236e+00 6.6894153023344041e+00 0 0 0
26 2 2.5205125415685781e+00 5.9234805696454540e+00 6.0985823342928169e+00 0 0 0
27 2 3.5562544918725663e+00 5.3694500615649083e+00 7.2188395279014497e+00 0 0 0
28 1 6.1302719456281789e+00 8.5677555093934232e-01 5.1592958165036453e+00 0 0 0
29 2 5.5054321097410348e+00 9.2324521500951928e-01 4.3851467902831294e+00 0 0 0
30 2 6.4763864499579187e+00 1.9684467723914594e+01 5.2170312392639042e+00 0 0 0
31 1 9.6675333266383123e-01 2.1967674587602066e+00 2.0187349570956128e+00 0 0 0
258 2 9.8145397048506471e+00 1.4298775734070574e+01 3.7673072266140379e+00 0 0 0
33 2 1.0404561308669691e+00 2.7793483953377596e+00 2.8219976977642838e+00 0 0 0
392 2 7.6550213020082376e+00 2.5254860034329303e+00 9.4331461409382502e+00 0 0 0
35 2 6.6988963348079453e+00 2.8544184220954651e+00 1.0243583842705966e+00 0 0 0
46 1 7.9479617350062171e+00 4.3419777814451495e+00 3.7950210692779356e+00 0 0 0
47 2 8.9158672807859887e+00 4.3412865125252482e+00 3.9320090597471853e+00 0 0 0
48 2 7.7694362718498553e+00 5.0059667969552164e+00 3.0765442409446493e+00 0 0 0
55 1 7.1829062895646105e+00 6.1622459555879887e+00 1.7974100734842131e+00 0 0 0
56 2 7.3327062243821057e+00 7.1052989558262647e+00 2.0211788900908925e+00 0 0 0
57 2 6.2158355061495110e+00 6.0979414215800318e+00 1.6859230600984072e+00 0 0 0
58 1 8.8117371249559042e+00 8.4731271914088524e-01 4.9865633148904394e+00 0 0 0
143 2 4.7721587793022877e+00 9.2186108369247997e+00 6.6597002663271421e-01 0 0 0
60 2 7.9630045942629675e+00 1.0725192559641314e+00 4.5682599468134333e+00 0 0 0
59 2 9.5308067381248129e+00 8.0579839239328566e-01 4.3134805356863462e+00 0 0 0
608 2 7.5756793075517930e+00 1.4491303269699452e+01 9.2068500024599196e+00 0 0 0
63 2 8.5990475486071887e+00 5.9213366945203125e+00 7.1041952978626499e+00 0 0 0
67 1 7.5012169786199596e+00 1.9690552759937781e+00 2.4313166783751057e+00 0 0 0
68 2 7.4427356538544469e+00 2.7712762732161749e+00 3.0497033923987322e+00 0 0 0
69 2 8.2914651939592829e+00 2.1301443013097785e+00 1.8812662113364189e+00 0 0 0
711 2 8.2212096512886408e+00 5.5604373495779660e+00 6.9430750223562865e-01 0 0 0
609 2 7.9101491741968113e+00 1.5959000517250768e+01 9.7834036308036438e+00 0 0 0
1 1 3.0671630100146858e+00 2.6683256006886893e+00 3.8046300315400161e-01 0 0 0
112 1 4.1804762980136649e+00 7.8520504320870073e+00 3.7765806966656901e+00 0 0 0
113 2 5.0422002732083362e+00 7.6624550118967028e+00 4.2821575348952239e+00 0 0 0
114 2 4.0323834537909207e+00 8.8064947207200994e+00 3.6799811387650410e+00 0 0 0
115 1 5.7483225946988572e+00 1.1017313423704499e+01 5.6494710247936792e+00 0 0 0
116 2 5.7420370775969580e+00 1.1962596957996944e+01 5.8360619953585413e+00 0 0 0
117 2 5.8152765110966591e+00 1.0438179449129859e+01 6.4269970156276273e+00 0 0 0
118 1 9.7201960645334684e-01 1.0828026919624145e+01 3.6236614229086963e+00 0 0 0
343 1 1.0301265229393777e+00 5.8246894249075751e+00 8.6658838328306729e+00 0 0 0
120 2 1.9100726310150649e+00 1.0927685184724533e+01 3.9144550269018286e+00 0 0 0
121 1 4.3541864280358951e+00 1.2614046567056116e+01 1.9106484703920326e+00 0 0 0
122 2 5.3279274504098382e+00 1.2492296067865428e+01 1.6582647139299456e+00 0 0 0
123 2 3.8223441729651553e+00 1.2438885844954479e+01 1.1689225896225142e+00 0 0 0
124 1 3.7010415581270228e+00 1.0661687019043059e+01 3.7059501270303534e+00 0 0 0
125 2 4.0435355595603788e+00 1.1402205488540947e+01 3.0823226521565461e+00 0 0 0
126 2 4.2445597526174854e+00 1.0827348096464746e+01 4.5158050880075580e+00 0 0 0
127 1 7.1488493742207782e-01 1.2981272593719352e+01 1.9647059647961966e+00 0 0 0
128 2 1.3613375373388195e+00 1.2692184980856361e+01 1.2636331497247018e+00 0 0 0
129 2 8.3570226082545807e-01 1.2399651273751823e+01 2.7926146493484660e+00 0 0 0
130 1 2.1622495794914856e+00 7.2680768269575395e+00 5.2447296194404496e+00 0 0 0
131 2 2.8196973051267711e+00 7.4036552284857864e+00 4.5634952748068498e+00 0 0 0
132 2 2.4256285992150977e+00 8.0248814993138673e+00 5.8743865681131018e+00 0 0 0
133 1 2.7329864133941917e+00 1.1867805726587099e+01 7.0347257768935645e+00 0 0 0
134 2 1.8818582296231809e+00 1.2211328836787166e+01 7.4727937999234522e+00 0 0 0
135 2 2.8097437770242859e+00 1.2422790022852794e+01 6.2296628506115903e+00 0 0 0
136 1 6.1401965271612111e+00 7.1361516423360509e+00 5.5204742020226494e+00 0 0 0
137 2 6.1832850228829495e+00 6.1592109472971233e+00 5.7223909560568442e+00 0 0 0
138 2 7.0138634218726024e+00 7.5430891020008612e+00 5.4127271734707749e+00 0 0 0
141 2 4.3169773686508067e-01 8.9165262815355302e+00 1.6059138580237882e+00 0 0 0
140 2 1.1094619127152014e+00 9.3724845945469593e+00 2.9251616857598410e+00 0 0 0
139 1 1.1750317296099211e+00 8.6703781398230895e+00 2.2059012187128286e+00 0 0 0
147 2 8.8114496349152240e+00 9.2281251370057511e+00 9.4407325930664665e-01 0 0 0
450 2 4.5006715183219930e+00 1.1455151022908856e+01 9.6930981422698252e+00 0 0 0
154 1 7.9299689772785449e+00 1.0919378636929299e+01 3.8914001622331087e+00 0 0 0
155 2 7.2707245239058924e+00 1.1151675205467480e+01 4.5692757498696102e+00 0 0 0
156 2 8.8735295446001423e+00 1.1142164223068582e+01 4.1709548218966663e+00 0 0 0
163 1 6.8430840347947548e+00 1.2315096218462426e+01 2.1469820282465353e+00 0 0 0
164 2 7.3408941183839804e+00 1.1644354126232967e+01 2.7527766799634183e+00 0 0 0
165 2 7.4654469326101243e+00 1.2283456088776729e+01 1.3060758571702338e+00 0 0 0
166 1 8.7516058304409210e+00 7.9924983786842514e+00 5.1006449888006982e+00 0 0 0
167 2 8.9965859698494999e+00 8.8151697704460776e+00 5.6578794818251712e+00 0 0 0
168 2 9.0840172789578819e+00 7.1766104117432539e+00 5.6338020184917026e+00 0 0 0
169 1 9.2838688189828513e+00 1.2200444092965284e+01 6.9840767299070317e+00 0 0 0
171 2 9.3407546619303385e+00 1.2834644992247238e+01 6.2413553403863542e+00 0 0 0
175 1 7.7868276630337947e+00 8.7593628707640629e+00 2.3157577862915897e+00 0 0 0
176 2 7.9602646845210812e+00 9.3331349548323210e+00 3.0788029918045927e+00 0 0 0
177 2 7.0364220959381836e+00 9.0873075118705877e+00 1.7713633872496530e+00 0 0 0
607 1 7.8121775633791950e+00 1.5406140687578088e+01 8.9749380902312659e+00 0 0 0
3 2 2.4800691728975885e+00 2.4418467502383203e+00 1.1685092273625877e+00 0 0 0
61 1 9.4424282236393875e+00 5.9381583956785562e+00 6.5736993345291461e+00 0 0 0
11 2 6.5112702698040037e-01 4.1525113161108766e+00 4.6638455946403203e+00 0 0 0
2 2 3.9855293358920494e+00 2.5613710309499860e+00 6.8752535105060542e-01 0 0 0
220 1 4.4767734762140154e+00 1.4774515141208800e+01 3.5987706637566297e+00 0 0 0
221 2 4.5710735728083725e+00 1.5707779768702753e+01 3.4246455052081997e+00 0 0 0
222 2 4.5840756650285170e+00 1.4229392871329216e+01 2.7822325950727094e+00 0 0 0
223 1 6.1573579889293519e+00 1.7869665055598901e+01 5.7870813377913111e+00 0 0 0
224 2 6.9017985083057534e+00 1.7552089654927684e+01 5.2474505897147683e+00 0 0 0
225 2 6.0611175938661424e+00 1.7231025540497562e+01 6.4765491930148302e+00 0 0 0
226 1 1.4764455998473667e+00 1.7479192673704254e+01 4.1081305385390774e+00 0 0 0
227 2 1.3665317925977734e+00 1.8143944681362292e+01 3.3561176542728024e+00 0 0 0
228 2 1.1246385864191475e+00 1.6641860801660073e+01 3.6681527222591703e+00 0 0 0
229 1 5.0102117428149109e+00 1.9048596713967413e+01 1.8928763120827159e+00 0 0 0
230 2 4.6988273529938134e+00 1.8450944700012364e+01 2.6555389849850815e+00 0 0 0
231 2 4.8020824348590532e+00 2.3057581619073836e-01 2.1922578458950985e+00 0 0 0
232 1 4.1859183438959233e+00 1.7501731526568676e+01 3.8803475122895295e+00 0 0 0
233 2 3.2414095723250802e+00 1.7601286674036565e+01 4.1186587747145396e+00 0 0 0
234 2 4.6925656195597112e+00 1.7693593030700690e+01 4.7290193272071201e+00 0 0 0
235 1 5.6193821675951861e-01 1.9275749494188219e+01 2.0636152029719579e+00 0 0 0
236 2 6.3571365460495211e-01 5.0509489612689995e-01 2.2918931074558562e+00 0 0 0
237 2 1.2224129127368073e+00 1.9246663664421526e+01 1.2772472547202358e+00 0 0 0
238 1 2.2931474270856551e+00 1.3949698098715867e+01 5.0337612848564195e+00 0 0 0
239 2 2.6960876072439235e+00 1.4360781513144049e+01 4.2231130453701322e+00 0 0 0
240 2 1.2746336871240460e+00 1.4039366318238228e+01 5.0016211838124560e+00 0 0 0
241 1 2.6426962382232357e+00 1.8410164635477692e+01 6.7281604040503282e+00 0 0 0
242 2 2.3600819464235299e+00 1.8850871728479419e+01 5.9201937332168466e+00 0 0 0
243 2 2.7763418986253350e+00 1.7423681803212773e+01 6.5843633915098136e+00 0 0 0
244 1 6.1282095459007744e+00 1.3795924999175817e+01 5.4887094423708724e+00 0 0 0
245 2 6.0066251131939294e+00 1.4325330454961142e+01 6.2738081600689117e+00 0 0 0
246 2 5.5534866050924965e+00 1.4180539893430632e+01 4.7829130257109131e+00 0 0 0
247 1 9.3121072064842447e-01 1.5652571489197017e+01 2.2217773066695656e+00 0 0 0
248 2 7.9880204794360643e-01 1.4682034394312511e+01 2.3485390208513910e+00 0 0 0
249 2 1.7104015808420963e+00 1.5747231259582048e+01 1.6286918448222687e+00 0 0 0
251 2 6.2069052174763044e+00 1.5479407931127982e+01 9.7922945115295712e-01 0 0 0
62 2 9.4978517319844435e+00 4.9798036016258438e+00 6.4481779795130345e+00 0 0 0
262 1 8.1452388360597556e+00 1.7225446498970236e+01 3.9271920026939453e+00 0 0 0
263 2 9.0879672759515699e+00 1.7154834281406060e+01 4.0818224297294510e+00 0 0 0
264 2 8.0270855950187219e+00 1.7819026529924898e+01 3.1688659584651639e+00 0 0 0
271 1 7.6094515122447586e+00 1.9022450430178154e+01 2.1458586659216534e+00 0 0 0
272 2 7.5860690607333003e+00 2.0049343942373532e-01 2.5173764384400625e+00 0 0 0
273 2 6.6310949412413516e+00 1.8909397369820496e+01 1.9420615384869047e+00 0 0 0
274 1 8.6704492037149290e+00 1.4173778866935550e+01 5.0523350301204459e+00 0 0 0
275 2 8.8470066136686363e+00 1.4985702426569508e+01 5.5794754443344408e+00 0 0 0
276 2 7.6899114720994408e+00 1.4034597849805374e+01 5.1517945570778254e+00 0 0 0
277 1 9.3599178536509395e+00 1.8801205096657895e+01 6.9382869065191972e+00 0 0 0
278 2 9.2493624948487856e+00 1.9437909222618543e+01 6.2474037804370770e+00 0 0 0
279 2 8.5835978850158323e+00 1.8809774142878233e+01 7.5367103021797384e+00 0 0 0
283 1 7.6627288737712904e+00 1.5055850946465549e+01 2.2062185615745440e+00 0 0 0
284 2 7.8100444137323777e+00 1.5445269670658009e+01 3.0916656419381408e+00 0 0 0
285 2 7.6297468148260865e+00 1.4075175370614192e+01 2.3340426733646691e+00 0 0 0
150 2 9.9928206938412689e+00 7.9540819023362515e+00 3.9258853384460943e+00 0 0 0
325 1 2.7140627292622881e+00 2.5467046302627656e+00 7.2425056188645840e+00 0 0 0
326 2 2.7239133951993346e+00 3.4361188768954114e+00 6.8589978892381023e+00 0 0 0
327 2 3.6634096982242639e+00 2.3521097047792137e+00 7.3268456262627977e+00 0 0 0
329 2 4.6012245163301566e+00 6.4027118620803436e-01 9.5487118027303897e+00 0 0 0
337 1 4.6117833947340063e+00 6.0089284679984836e+00 8.3087697270258545e+00 0 0 0
338 2 4.4091847844474099e+00 5.2737553991610113e+00 8.9495956993232966e+00 0 0 0
339 2 4.4544527138568970e+00 6.8566616859882652e+00 8.7782452010896250e+00 0 0 0
571 1 1.1156682643054703e+00 1.5480693206210029e+01 8.8883953632517301e+00 0 0 0
344 2 1.0656682486943567e+00 5.1196090184984300e+00 9.4116967379737080e+00 0 0 0
345 2 1.6376362750624525e+00 5.5219188528582208e+00 7.9671961572206147e+00 0 0 0
355 1 8.1638342604184355e-01 1.8268837131216458e+00 8.9741381541064005e+00 0 0 0
356 2 8.7460596145363056e-01 8.6042277479074758e-01 8.8813150878213740e+00 0 0 0
357 2 1.5671356395563574e+00 2.1565018613942044e+00 8.4155803824080682e+00 0 0 0
358 1 5.4690773469815630e+00 2.5547860318235904e+00 7.2036262458563298e+00 0 0 0
359 2 5.6485022521226869e+00 3.3426620371775928e+00 6.5352849082079532e+00 0 0 0
360 2 5.5847635398083337e+00 1.7533811048096175e+00 6.6304927760073245e+00 0 0 0
361 1 9.1467976021624668e+00 3.1019406670080687e+00 6.6325144627006241e+00 0 0 0
362 2 9.0657635862248771e+00 2.3756842964657618e+00 5.9618774313387242e+00 0 0 0
363 2 8.4985409497203914e+00 2.9223682658088599e+00 7.3005268069962739e+00 0 0 0
254 2 8.6767077876666008e+00 1.5725378485385264e+01 1.2244829121036642e+00 0 0 0
379 1 7.3984783609818177e+00 5.9730080748302044e+00 8.3967670241376844e+00 0 0 0
380 2 7.5272722786102078e+00 6.8877018577283255e+00 8.7175361289414504e+00 0 0 0
381 2 6.4448292853773781e+00 5.9402770349313831e+00 8.1906470674050151e+00 0 0 0
391 1 7.4681081161222620e+00 2.0434921636397365e+00 8.6476156660365202e+00 0 0 0
142 1 5.7823173752011918e+00 9.3899419787427085e+00 5.3537307668123613e-01 0 0 0
393 2 6.6350461757000989e+00 2.4209506935451341e+00 8.2937848512258938e+00 0 0 0
927 2 8.5421982551348368e+00 1.8896052293738322e+01 7.5664569930840575e-01 0 0 0
433 1 2.5839534507391324e+00 9.2927707574310592e+00 7.1151564981802835e+00 0 0 0
434 2 2.6843161967213582e+00 1.0234705099506971e+01 6.8945014030321037e+00 0 0 0
435 2 1.9128988686359540e+00 9.2267463103603369e+00 7.8117341318794002e+00 0 0 0
372 2 7.8713241106681693e+00 4.8000038739242123e+00 9.7363166949395623e+00 0 0 0
445 1 4.8025163384452680e+00 1.2479457184112812e+01 8.4910170341499303e+00 0 0 0
446 2 4.5920564316545534e+00 1.3295710899084016e+01 9.1137240588146220e+00 0 0 0
447 2 4.0120408985221054e+00 1.2209927339372609e+01 7.9687491492798195e+00 0 0 0
572 2 2.8590868376085965e-01 1.5820709081167147e+01 8.4645561021685118e+00 0 0 0
451 1 6.9046198101657408e-01 1.2672014283031574e+01 8.4747408871294017e+00 0 0 0
452 2 7.8422378610579768e-01 1.3642465770756607e+01 8.6627712278011639e+00 0 0 0
463 1 7.2428024554858361e-01 8.9006986981153080e+00 9.1391559061435856e+00 0 0 0
465 2 8.9076747492926533e-01 7.9606664125698963e+00 9.0949520586483530e+00 0 0 0
466 1 5.3470841523744310e+00 8.9628932346270869e+00 7.4012979272595674e+00 0 0 0
467 2 5.6184220938269718e+00 8.2000650914862785e+00 6.7732638828036347e+00 0 0 0
468 2 4.3440439242809425e+00 8.9694016627525865e+00 7.3869135790064622e+00 0 0 0
818 2 9.5106541299138225e+00 1.2117578353437160e+01 7.6981278168268830e-01 0 0 0
144 2 5.8385816339011907e+00 1.0324443295787756e+01 3.9203186808256030e-01 0 0 1
471 2 8.9622551695083050e+00 9.1356828334457294e+00 7.9907159392974743e+00 0 0 0
573 2 1.3671384392779096e+00 1.6063397900137041e+01 9.6376196184223275e+00 0 0 0
487 1 7.3405165659602041e+00 1.2715123190562785e+01 9.1090058114284052e+00 0 0 0
488 2 7.9436871776636355e+00 1.2484222975265270e+01 8.3778051765494208e+00 0 0 0
489 2 6.4751127816153531e+00 1.2441607636182148e+01 8.7466991216485148e+00 0 0 0
499 1 7.6184267711988882e+00 8.7906419130912603e+00 9.0074960826903787e+00 0 0 0
500 2 7.8119146201973848e+00 9.5442760748944675e+00 9.6289051385274487e+00 0 0 0
501 2 6.7795896591500551e+00 9.0380705440319424e+00 8.6423291756441003e+00 0 0 0
479 2 7.9225755220555598e+00 1.1648011392045916e+01 1.0340515821141080e+01 0 0 0
891 2 3.4205469453921742e+00 1.9065626896414791e+01 6.6179373340815406e-01 0 0 0
541 1 3.0477160057579025e+00 1.5887050867527215e+01 7.0911341112257409e+00 0 0 0
542 2 2.3049177903394762e+00 1.5750471267132507e+01 7.7351545819791232e+00 0 0 0
543 2 2.8460553764431618e+00 1.5322952166420411e+01 6.3484606209960956e+00 0 0 0
553 1 4.7181068407245297e+00 1.8802634536301859e+01 8.8039825179680449e+00 0 0 0
554 2 5.6315820980450955e+00 1.8950184574005490e+01 8.4808419420222432e+00 0 0 0
555 2 4.0917882003606190e+00 1.8746357497314946e+01 8.1007136977672474e+00 0 0 0
119 2 4.9705590431854496e-01 1.1051997296776808e+01 4.4318731523404820e+00 0 0 0
559 1 1.0204547334549066e+00 1.8944397853328795e+01 8.6780237939965730e+00 0 0 0
560 2 1.6403583568707614e+00 1.8656410092838343e+01 7.9885415610305390e+00 0 0 0
561 2 1.1706754094815464e+00 1.8296479417462443e+01 9.3995518412213066e+00 0 0 0
111 2 2.5974172612260307e+00 9.0716029520666677e+00 1.1500614382293026e+00 0 0 0
574 1 5.6235595379947405e+00 1.5836844952625290e+01 7.5801161101433809e+00 0 0 0
575 2 6.0290661040446265e+00 1.5669958088957364e+01 8.4558024736716728e+00 0 0 0
576 2 4.6666970308455911e+00 1.5788636014630358e+01 7.7412002518050853e+00 0 0 0
577 1 9.6174204479190841e+00 1.6072670082573218e+01 7.0952975181363769e+00 0 0 0
578 2 9.5682056235739186e+00 1.7012225124179345e+01 7.0235118982203852e+00 0 0 0
579 2 9.0045214058892373e+00 1.5860248346614448e+01 7.8363736975637313e+00 0 0 0
469 1 9.5393160682698248e+00 9.5424811292390412e+00 7.2684454110658416e+00 0 0 0
595 1 7.3768857007523057e+00 1.9221696877734750e+01 8.7952645891801282e+00 0 0 0
596 2 7.4483895559024784e+00 4.3012534560849602e-01 8.9463030072993224e+00 0 0 0
597 2 7.5613322167130557e+00 1.8755707903882147e+01 9.6273361385726997e+00 0 0 0
210 2 3.6164775885297840e-01 7.1431454081704038e+00 5.3348634886637569e+00 0 0 0
470 2 9.3551500096500018e+00 1.0568938365278118e+01 7.1358548454001207e+00 0 0 0
34 1 5.7712143801215658e+00 2.8945756262827356e+00 6.3470235383718232e-01 0 0 0
218 2 3.8273887204014505e+00 1.5951253160641521e+01 3.3988619574536388e-01 0 0 0
558 2 4.2805121908351911e+00 1.7756314121489751e+01 1.0031354612764238e+01 0 0 0
675 2 1.3081486418303785e+00 5.4665166731705392e+00 5.8810980795460965e-01 0 0 0
37 1 9.3890433300031564e+00 2.6999069139180363e+00 6.0548106666056412e-01 0 0 0
109 1 3.0074481946025631e+00 9.4135297354103429e+00 2.8938140484177410e-01 0 0 0
328 1 4.3632829186453606e+00 1.5049807123753547e+00 9.9674328450795162e+00 0 0 0
436 1 4.2784434667907982e+00 8.0738913774081897e+00 1.0055734687959129e+01 0 0 0
253 1 9.2340113201455321e+00 1.5958893525502337e+01 4.7944944755968927e-01 0 0 0
340 1 4.0305255461059240e+00 4.1745825885292751e+00 1.0274691509159160e+01 0 0 0
444 2 1.5104534562644893e+00 1.1714019884107211e+01 1.0014518193690211e+01 0 0 0
342 2 4.1565997148721401e+00 3.2434231318790863e+00 9.9911446190065956e+00 0 0 0
437 2 4.1987503129764354e+00 9.0396698679030720e+00 9.8903961235902198e+00 0 0 0
219 2 2.7894166802294604e+00 1.7123940005901062e+01 2.7974270377331090e-01 0 0 0
858 2 7.1442313149943060e-01 7.7571264209244095e+00 1.8801531346385183e+01 0 0 0
599 2 9.4848147437190722e+00 1.4670495132163305e+01 1.1455543517990177e+01 0 0 0
426 2 3.1462407972041673e-01 6.2374416450905290e-01 1.1724145808995392e+01 0 0 0
370 1 8.0370729327659589e+00 4.1834267894798751e+00 1.0520206126260083e+01 0 0 0
798 2 9.9258792511212466e+00 7.9624238993655707e+00 1.7675998701265257e+01 0 0 0
707 2 9.2145591596037058e+00 1.1017493420930928e+00 1.7857099263979286e+01 0 0 0
331 1 5.8666882290185374e+00 4.7389597746552612e+00 1.2132521549821240e+01 0 0 0
332 2 6.6592012039185278e+00 4.5073589717197740e+00 1.1602323638688311e+01 0 0 0
333 2 5.0924522469484472e+00 4.4775134674262249e+00 1.1527586083358580e+01 0 0 0
384 2 9.4138162376434042e+00 1.2133942171858136e+00 1.1533920367936771e+01 0 0 0
602 2 9.9579596717876360e+00 1.8839270334995412e+01 1.4071331032926416e+01 0 0 0
902 2 8.9514524734316989e+00 1.6862541647056084e+01 1.4015646683948436e+01 0 0 0
346 1 2.2606653007684785e+00 6.5526947637620525e-01 1.1655708433732752e+01 0 0 0
347 2 2.7350814166219863e+00 6.8657516193365919e-01 1.0810654113157545e+01 0 0 0
348 2 2.2387084663964019e+00 1.5428045967625739e+00 1.2045629018654028e+01 0 0 0
349 1 2.8412175525645527e+00 5.3928395961570512e+00 1.3334632208925129e+01 0 0 0
350 2 2.6322414204585729e+00 5.8079723634398910e+00 1.2455071536985388e+01 0 0 0
351 2 2.5333687599847825e+00 4.4293870786296736e+00 1.3354051577962011e+01 0 0 0
352 1 6.0332226133347175e+00 1.0487947289953694e+00 1.1951936651668323e+01 0 0 0
353 2 7.0212885673218794e+00 1.1091884086712502e+00 1.1823750179535224e+01 0 0 0
354 2 5.9666612921514108e+00 1.9864162886603282e+01 1.2203496006312040e+01 0 0 0
552 2 2.3787629443349729e+00 1.7442068741194575e+01 1.1009749645535233e+01 0 0 0
382 1 8.6886356593237632e+00 1.1608337673433786e+00 1.2202155015645898e+01 0 0 0
383 2 8.8894229012087642e+00 2.1964017075994441e-01 1.2576946959846213e+01 0 0 0
438 2 5.0192027330504336e+00 7.9657657501222126e+00 1.0699903064729078e+01 0 0 0
385 1 9.4217948514040479e+00 5.7533090120767199e+00 1.3810316967499693e+01 0 0 0
386 2 9.3267920126549857e+00 4.7638631050105200e+00 1.3678132395131401e+01 0 0 0
387 2 8.7233682962931329e+00 5.9905902117879712e+00 1.4489677042461395e+01 0 0 0
587 2 8.7413712141384465e+00 1.7452645794967694e+01 1.1078028664136944e+01 0 0 0
217 1 2.9265101624480341e+00 1.6291226313490270e+01 2.0489681805731948e+01 0 0 -1
439 1 6.3223551755526195e+00 1.1555577062378376e+01 1.2518731848286887e+01 0 0 0
440 2 6.2583149909490094e+00 1.2486405408049579e+01 1.2808230719435628e+01 0 0 0
441 2 5.6434126703539329e+00 1.1479062008815522e+01 1.1801587766156732e+01 0 0 0
551 2 8.2832707342396605e-01 1.7567751307912900e+01 1.1436283676870328e+01 0 0 0
454 1 2.2049927119944916e+00 7.7729408338633244e+00 1.1685719794580223e+01 0 0 0
455 2 2.9398713619518513e+00 7.7725127150654361e+00 1.0996451241262420e+01 0 0 0
456 2 2.5708518717957713e+00 8.3384256118567777e+00 1.2393203112933623e+01 0 0 0
457 1 2.5199876864375144e+00 1.1808058237656413e+01 1.3523355705736487e+01 0 0 0
458 2 3.2493775997380818e+00 1.2101798778800562e+01 1.4223282931455685e+01 0 0 0
459 2 1.6520529536276340e+00 1.2004736678317867e+01 1.4007729957235748e+01 0 0 0
460 1 6.1470470991011323e+00 7.4098390417420754e+00 1.1714303665764033e+01 0 0 0
461 2 6.1069415645225362e+00 6.4909346344587195e+00 1.2050218963573361e+01 0 0 0
462 2 7.0856613707355605e+00 7.6266018006196008e+00 1.1685270814161084e+01 0 0 0
252 2 5.7962663807211694e+00 1.6699743700052373e+01 2.0167781380099207e+01 0 0 0
480 2 7.8787280076098467e+00 1.0995974548601509e+01 1.1648034397095145e+01 0 0 0
39 2 9.4087829698324281e+00 2.2912089360104293e+00 2.0124522873005247e+01 0 0 0
490 1 8.8410501714137180e+00 7.5957456874134239e+00 1.2119773388547364e+01 0 0 0
491 2 9.0171515583975328e+00 6.7942373839304757e+00 1.2620605304204481e+01 0 0 0
492 2 8.9499441208055490e+00 8.3594171275286122e+00 1.2790796607435901e+01 0 0 0
493 1 8.8719970474843084e+00 1.2213692814729429e+01 1.3464319743813288e+01 0 0 0
494 2 8.1537722500025129e+00 1.2374552736139886e+01 1.4106471664444173e+01 0 0 0
495 2 8.9036370224725463e+00 1.2978594004230469e+01 1.2901123489677367e+01 0 0 0
926 2 9.1723733852518929e+00 1.7817743354930961e+01 2.0210319111226475e+01 0 0 0
513 2 4.0914621888108754e-01 1.1208992750667603e+01 1.1727373297494543e+01 0 0 0
442 1 1.7826487098902022e+00 1.0991509739695697e+01 1.0614011411961712e+01 0 0 0
674 2 2.5223279382185733e+00 4.6838781147185280e+00 2.0344443526006977e+01 0 0 0
533 2 6.5550001382650303e-01 7.4233195330786872e+00 1.1916230200937697e+01 0 0 0
810 2 9.5877518648320379e+00 1.1152125298388169e+01 1.7527150967675333e+01 0 0 0
547 1 5.9311253050771748e+00 1.8183428264593950e+01 1.2538643836372836e+01 0 0 0
548 2 5.0820844618916112e+00 1.7884584806768480e+01 1.2132904820353943e+01 0 0 0
549 2 5.9084707070051428e+00 1.7745569492432644e+01 1.3429870252106026e+01 0 0 0
546 2 5.0893899217498237e+00 1.4507736426576077e+01 1.1097588587121521e+01 0 0 0
562 1 2.3545466639031725e+00 1.3883620186800890e+01 1.1892790302997019e+01 0 0 0
563 2 1.3998899396471061e+00 1.4131744359795036e+01 1.1807985130566067e+01 0 0 0
564 2 2.4007183169978994e+00 1.3059849590897450e+01 1.2309864348964439e+01 0 0 0
565 1 2.8278636091057194e+00 1.8425165956828117e+01 1.3258869936273472e+01 0 0 0
566 2 2.6135227764228288e+00 1.8901979550782151e+01 1.2415027701548897e+01 0 0 0
567 2 3.5414317748279496e+00 1.8903399184462522e+01 1.3712667085631674e+01 0 0 0
568 1 6.3246977742458146e+00 1.4403563272665085e+01 1.2594747308870474e+01 0 0 0
569 2 7.2786290213805405e+00 1.4550849905782652e+01 1.2389195130019161e+01 0 0 0
570 2 6.1389711335182584e+00 1.5107538163674954e+01 1.3296900906687643e+01 0 0 0
775 1 6.7174030641613569e-01 1.2578781810378786e+01 1.5347392759149979e+01 0 0 0
486 2 9.9181062595015348e+00 1.0679168841814903e+01 1.0751260351288920e+01 0 0 0
588 2 7.2672987265758593e+00 1.7600140304577053e+01 1.1604352224547435e+01 0 0 0
598 1 8.7527076714534591e+00 1.4428931462593614e+01 1.2092788976815694e+01 0 0 0
817 1 8.7649686055553371e+00 1.2245199908957867e+01 2.0521852754537392e+01 0 0 0
600 2 8.9220238518891950e+00 1.4994811872540172e+01 1.2884880306673489e+01 0 0 0
601 1 9.1735312835912133e+00 1.8612205298813436e+01 1.3547489152230018e+01 0 0 0
603 2 8.4815201875301387e+00 1.8937385220934381e+01 1.4154971468103019e+01 0 0 0
371 2 9.0383733407796054e+00 4.0942002966381894e+00 1.0474221141535544e+01 0 0 0
110 2 2.7741544519472945e+00 8.8552804011093347e+00 1.9987894970042746e+01 0 0 0
649 1 2.5507472857315729e+00 2.6954488663431948e+00 1.3384589245178843e+01 0 0 0
650 2 3.5001702105692818e+00 2.6048254875914614e+00 1.3647314631341271e+01 0 0 0
651 2 2.1355417297844657e+00 2.5984837674799790e+00 1.4244273767915910e+01 0 0 0
652 1 4.3239154291018043e+00 1.4914071033192877e+00 1.6859823703301913e+01 0 0 0
653 2 4.4797432251142748e+00 2.4291346685742248e+00 1.6620210009699242e+01 0 0 0
654 2 5.0279408427146182e+00 1.4621494965311383e+00 1.7539698541533419e+01 0 0 0
655 1 6.1930582980148685e+00 5.0733218036174534e+00 1.9358658258151245e+01 0 0 0
656 2 5.8377845252926646e+00 5.9478658747365163e+00 1.9215044237007014e+01 0 0 0
657 2 7.1447662206991387e+00 5.0020755160602501e+00 1.9394106861783698e+01 0 0 0
658 1 1.7329383827996780e+00 4.5925980344271355e+00 1.7468112509245934e+01 0 0 0
659 2 1.5507501533259196e+00 3.7418170679327787e+00 1.7053118839252882e+01 0 0 0
660 2 1.5840763890045009e+00 5.2461107001978462e+00 1.6798295776303441e+01 0 0 0
661 1 4.8323436964370110e+00 6.1498091063956473e+00 1.5077221286642267e+01 0 0 0
662 2 4.7204588823236744e+00 5.3823892862764033e+00 1.5709912196988501e+01 0 0 0
663 2 4.2126025802390501e+00 6.0257107015348179e+00 1.4268989672390285e+01 0 0 0
664 1 4.5576671642867073e+00 4.3729663112558184e+00 1.7272376073534851e+01 0 0 0
665 2 3.6336740084125325e+00 4.3967489524974201e+00 1.7611981712161310e+01 0 0 0
666 2 5.0982648217487876e+00 4.7282327525957486e+00 1.8039719016389071e+01 0 0 0
667 1 1.3195304675731261e+00 6.1159560876000940e+00 1.5323510188487440e+01 0 0 0
668 2 1.1510097237020307e+00 7.0537728444327348e+00 1.5415727301707252e+01 0 0 0
669 2 1.8714949616316927e+00 5.9860271695935721e+00 1.4488647181765838e+01 0 0 0
670 1 2.1249503085192685e+00 1.1931346382380212e+00 1.8826742793917767e+01 0 0 0
671 2 2.2918125260024973e+00 1.9401485839443136e+00 1.9427365258199686e+01 0 0 0
672 2 2.7243413859094932e+00 1.3967285501426907e+00 1.8106063211399054e+01 0 0 0
676 1 6.1407602483384309e+00 1.0611429529680754e+00 1.8878003381290974e+01 0 0 0
677 2 5.9200141613533219e+00 1.6659354244015201e+00 1.9590699206790333e+01 0 0 0
678 2 7.1085413000565252e+00 1.1363067527675625e+00 1.8646066290919201e+01 0 0 0
679 1 1.1418190804213484e+00 2.4302883103094470e+00 1.5960311048124302e+01 0 0 0
478 1 8.2114551181549906e+00 1.0834372891249451e+01 1.0766422739909750e+01 0 0 0
681 2 1.2513470277377023e+00 1.4640356426796337e+00 1.6120408653844791e+01 0 0 0
682 1 5.3074671439945362e+00 2.7165785659473474e+00 1.3897948093842812e+01 0 0 0
683 2 5.4853218120166982e+00 3.5486131443419247e+00 1.3386322718361587e+01 0 0 0
684 2 5.4692724284853398e+00 1.9629918785321636e+00 1.3242412553979465e+01 0 0 0
685 1 9.3604791688154823e+00 3.0910004632062167e+00 1.3892032732884573e+01 0 0 0
687 2 9.2732659399645456e+00 2.3666905628954611e+00 1.3260114511007909e+01 0 0 0
694 1 7.9414301977167847e+00 4.3805210982749863e+00 1.7433407456254812e+01 0 0 0
695 2 8.9063527323002756e+00 4.1785391035473785e+00 1.7302926953135028e+01 0 0 0
696 2 7.5765752532169612e+00 3.6639700745001669e+00 1.6899433573929826e+01 0 0 0
703 1 7.5127362670929543e+00 6.2646039857633244e+00 1.5639501547760215e+01 0 0 0
704 2 7.7217887657561741e+00 5.6754743085952022e+00 1.6409488863007226e+01 0 0 0
705 2 6.5586491956493198e+00 6.1105176228060571e+00 1.5429019026624374e+01 0 0 0
706 1 8.6389990005863471e+00 1.0908149953878101e+00 1.8670619212039092e+01 0 0 0
925 1 9.3024082066105098e+00 1.8813611675483422e+01 2.0352814716664973e+01 0 0 0
708 2 8.9795170694067448e+00 3.1709122876774581e-01 1.9239333079901776e+01 0 0 0
715 1 7.3543337182501123e+00 2.3215075521032125e+00 1.5557425694656128e+01 0 0 0
716 2 6.4955652987514396e+00 2.3544205363612352e+00 1.5022300285121316e+01 0 0 0