LAMMPS data file via write_data, version 15 Apr 2020, timestep = 0

1944 atoms
2 atom types

-1.8971591882158734e-01 4.0171820918819208e+01 xlo xhi
0.0000000000000000e+00 1.9739908332518848e+01 ylo yhi
0.0000000000000000e+00 2.0419664395576710e+01 zlo zhi
-4.4980006862260780e-05 -1.5023364142230378e-02 2.4535166691492805e-02 xy xz yz

Masses

1 16
2 2

Atoms # atomic

491 2 1.1127203950657790e+01 2.5285000245688369e+00 6.2113032805536941e+00 0 1 0
1160 2 1.7529680479429203e+01 1.8466687820862060e+01 3.4985607285651996e+00 0 0 0
90 2 1.2068569248825488e+01 1.0142491755923523e+01 8.4682324235954614e+00 0 0 0
1738 1 -1.5466409693932304e-01 9.8456536170822258e+00 9.7479865513785029e+00 0 0 0
1771 1 6.1742351155336088e+00 8.2286562206295208e+00 1.2357774067141454e+00 0 0 0
1126 1 8.7185106815946618e+00 1.7934163105906872e+01 8.2773126049887669e+00 0 0 1
449 2 1.3591804201611597e+01 1.7954628775698986e+01 2.6383589426497798e+00 0 0 0
741 2 3.4731995115542205e+00 1.6529335345383952e+01 2.4555556446321165e+00 0 0 1
1573 1 3.1438045501831584e+00 1.5500367574182272e+01 3.6829386638931965e+00 0 0 2
1783 1 5.2793544964690211e+00 7.9011925835627475e+00 7.5694440212143297e+00 0 1 0
233 2 1.1948062647253220e+01 5.3849872529944944e+00 7.3837601025408377e+00 0 0 -1
699 2 4.9016702427353778e+00 2.8475045321587862e+00 7.2711566207786194e-01 0 1 1
879 2 6.2129680372619864e+00 1.4897220117354911e+01 9.8744857721375578e-01 0 1 1
269 2 1.8798260588485249e+01 1.3714608050077320e+01 5.1645651945452666e+00 0 0 0
510 2 1.0924231412296820e+01 3.2580975016318505e+00 1.6624081677872340e+00 0 2 0
493 1 6.2549763781742529e+00 4.4507726606780045e+00 7.1481137750119261e+00 0 0 -1
676 1 7.6484004377867953e-01 8.5681668305023493e+00 2.1030782621870419e+00 0 0 0
717 2 1.8511482077408129e+01 2.2956350050391285e+00 5.2442061315212629e-01 0 0 1
1804 1 1.3067282921737899e+01 1.0439499455803631e+01 7.7993210009064928e-01 0 0 1
917 2 1.8252785150601003e+01 1.0182412214570483e+01 1.4631619059600898e+00 0 0 1
509 2 1.1272279048203982e+01 2.6561087387071791e+00 2.1636653610485890e-01 0 2 0
437 2 1.2207629107409332e+01 1.2244410459551746e+01 8.4214561733910855e+00 0 0 0
1527 2 8.8212471231711707e+00 1.5019186610594060e+01 4.0774100049745226e+00 0 0 1
467 2 4.3333064480446470e+00 1.3124508186626988e+01 7.6628542504355561e+00 0 0 0
895 1 1.2010340089132356e+01 8.5222710370149741e+00 5.8385898930828937e+00 0 0 0
878 2 6.3562318411131287e+00 1.3291217726317081e+01 8.1064639364163849e-01 0 1 1
1549 1 1.5897242667539814e+01 1.8125929639952645e+01 1.2096736989079779e+00 0 0 1
889 1 1.6394387440647629e+00 1.2967961240604460e+01 3.6785769337673840e-01 0 0 0
960 2 1.0767905174326220e+01 1.9501859697338169e+01 7.3193061056632018e+00 0 0 0
964 1 1.5505945250000575e+01 1.2759953567798487e+01 6.0228197899398292e+00 0 0 0
33 2 1.7948114245164642e-01 1.4298251282252970e+01 2.8891137028559881e+00 0 -1 0
1569 2 1.2544857211026919e+01 1.5970915341373056e+01 2.5862867372952997e-01 0 -1 1
1787 2 7.2497757731742025e+00 9.1261620156004675e-01 7.8850114216315959e+00 0 1 1
1749 2 1.2157101994133988e+00 1.0713400037407107e+01 4.7218399767003785e+00 0 0 1
1810 1 1.8464808557547148e+01 6.1241958796591076e+00 8.8716761282199130e-01 0 0 1
679 1 2.9759313551770172e+00 3.8446467694176332e+00 3.8130009674012948e+00 0 0 0
1339 1 1.5371624685137185e+01 1.5059399094194295e+00 6.0532254964912759e+00 0 1 1
689 2 1.7716440524486792e+01 1.6403965944715793e+01 3.2484886507041151e+00 0 -1 0
1314 2 1.1829804028754725e+00 3.9744583494846673e+00 4.0964426028323180e+00 0 0 1
1785 2 5.3053670806413393e+00 7.8126732328508792e+00 6.5752669548658673e+00 0 0 0
1098 2 8.3825522037920273e+00 9.0425830928234596e+00 5.2422720162725014e+00 0 1 0
1106 2 3.8863429142285408e+00 5.7833379895250188e+00 1.0490815378156795e+00 0 1 1
1579 1 4.7340289086747909e+00 3.2944070042958944e+00 9.0044004126535970e+00 0 0 0
1593 2 1.9751770882265753e+01 1.1634819113198583e+01 3.2676569984866394e-01 0 0 1
713 2 8.7345196967900218e+00 5.3257364125751279e+00 5.2134604906709141e+00 0 0 1
1306 1 3.3960113189849452e+00 1.2203957615678149e+00 7.8448790097139041e+00 0 0 1
486 2 9.2819200121783982e+00 1.9389293847901982e+01 1.0371220625019117e+00 0 -1 0
219 2 1.1610070026097279e+01 1.9432874229851315e+01 2.5073688383802240e+00 0 -1 0
47 2 6.2628676746740357e+00 1.5812099844563463e+01 8.4600658963220567e+00 0 -1 0
1786 1 6.7194213475044506e+00 3.2439407251022268e-01 8.4144780398738899e+00 0 1 1
1803 2 1.4386054287238762e+01 6.0578439906156225e+00 5.9215562143691960e+00 0 1 1
1125 2 1.9929922132961163e+01 9.0738331498286373e-01 4.6290488940076395e+00 0 1 0
898 1 4.2669159916568908e+00 9.5355628912946315e+00 2.4441315768665430e+00 0 0 0
709 1 1.9101914973181735e+01 5.0851054931832049e+00 5.0866455481393409e+00 0 0 0
236 2 9.3871349784058520e+00 1.6682742719511829e+01 7.3023185326107853e-01 0 0 0
1583 2 8.0624614794970348e+00 9.4355985523522747e+00 8.4653965747111233e+00 0 0 0
237 2 8.0560323546146630e+00 1.7372301992136958e+01 1.0017333064411964e+00 0 0 0
1561 1 8.0964810890416921e+00 3.5956871017155018e-01 4.7276044038763576e+00 0 1 0
1538 2 7.5158625281617653e-02 1.7602759849750171e+01 4.2844748018919434e+00 0 0 0
3 2 5.2270672990411375e+00 1.9402222045213239e+01 9.4351636020309062e+00 0 -1 0
1781 2 1.4298748892709204e+01 8.6239758814333705e+00 9.7229883495923222e+00 0 0 0
1775 2 3.8578264457699767e+00 6.1597356642193146e-01 4.0590726530068189e+00 0 1 1
303 2 1.9075071034770044e+01 3.7341901161923756e+00 8.0959033286138400e+00 0 0 -1
681 2 3.1368416651646607e+00 4.3414181039507813e+00 3.0274827723036117e+00 0 0 0
712 1 9.5918290642125665e+00 5.4719634193289268e+00 5.5989157667551428e+00 0 0 1
492 2 1.1168114076306091e+01 3.4523414543780353e+00 7.4569408655841229e+00 0 1 0
1543 1 6.5822218893449032e+00 1.0302735624236217e+01 8.0996844353809188e+00 0 0 0
59 2 6.3423639009317545e-01 6.1454159017235357e+00 8.3719258333734956e+00 0 0 -1
958 1 1.0960912365891973e+01 2.5409953443950847e-02 8.2754016684378104e+00 0 1 0
48 2 5.9059867121631102e+00 1.6902388201465943e+01 9.5002593469070717e+00 0 -1 0
921 2 9.4410184238424866e-01 1.9745790459237551e+00 5.8833493272558695e+00 0 1 0
57 2 1.6635675955654548e+01 8.7724393404496703e-01 9.5286275539375858e+00 0 1 -1
294 2 1.9756834251867947e+01 1.0481473246754810e+01 7.1876203228315774e+00 0 -1 -1
517 1 1.6854914471392224e+01 1.7902524307303899e+01 8.8193741830998587e+00 0 0 0
934 1 1.4946322640802682e+01 1.5261598140647543e+01 4.8201962925939661e+00 0 1 1
1355 2 2.0536489006354377e+00 1.6236322372650591e+01 7.2320309760125312e-01 0 -1 2
242 2 7.4786455308206152e+00 1.3137467903349309e+01 4.3248425511136350e+00 0 0 0
678 2 5.4247783895106660e-01 7.5718271043550738e+00 2.1563904242714775e+00 0 0 0
315 2 1.0200799825029332e+01 1.1525590834153643e+01 5.2745960713224020e+00 0 0 0
11 2 4.7804719825575348e-01 1.9226404737076162e+01 7.9339616268616764e-01 0 -1 0
750 2 1.6123006849215987e+01 5.2865607987701964e+00 5.2765274403317903e+00 0 0 1
1137 2 3.0202914666287279e+00 6.7646065418230235e+00 3.0868509547813359e+00 0 1 0
88 1 1.2405439375005271e+01 1.0580888559200002e+01 7.6263660383697385e+00 0 0 0
60 2 3.8744387148392312e-01 4.9446868591293143e+00 7.3239554713015966e+00 0 0 -1
1155 2 1.4149140186192438e+01 2.0820380907467819e+00 3.2176609074905036e+00 0 2 0
268 1 1.9449211675726861e+01 1.4466306195840655e+01 5.2055607613232349e+00 0 0 0
1594 1 6.9581497513333757e+00 6.3898697023837920e+00 8.9699425438874130e+00 0 1 0
1802 2 1.3146603602795780e+01 7.0068884702726493e+00 5.8102423516207518e+00 0 1 1
1162 1 4.2568344562526352e+00 1.4398385323974029e+01 6.0742921922870359e+00 0 0 1
1762 1 4.6683417389780624e-01 6.0314164209357006e+00 1.7741040217531852e+00 0 1 0
658 1 3.1167179573284587e+00 6.4428977204427520e+00 7.8515150450649660e+00 0 -1 0
748 1 1.5929773805453692e+01 6.0368265192366586e+00 5.9097059717727403e+00 0 0 1
1208 2 1.9261984262389387e+01 1.9140820344340675e+01 8.8795839775095935e+00 0 0 0
940 1 1.5993590901738436e+01 5.2223882381577571e+00 1.5893274123013252e+00 0 1 1
749 2 1.6053082030214640e+01 6.7335826161013301e+00 5.2987427207620348e+00 0 0 1
1757 2 4.5647112720925360e+00 1.3640592615064318e+01 1.8813942352510535e+00 0 0 1
226 1 1.5727962140088125e-01 1.2491615000505290e+01 2.4229850430148621e+00 0 0 0
107 2 1.7858563622487608e+01 1.2149692295803165e+01 4.0287063379938823e+00 0 0 1
1567 1 1.2576882918872849e+01 1.5040618077830230e+01 5.7353841410854878e-01 0 -1 1
1334 2 1.8147372036461281e+01 1.4709019518704586e+01 1.7877882529747637e+00 0 -1 1
1377 2 9.6223094289103290e+00 1.3887296446945570e+01 7.6789409901503252e+00 0 0 1
665 2 1.9736123559635681e+00 3.5645941965208716e+00 6.5837676191431607e+00 0 0 0
725 2 1.4089815127323313e+01 3.6024853902328386e+00 1.0016108842791025e+01 0 0 0
1298 2 1.5116009657444177e+01 1.8075431580828745e+01 8.5763489720599395e+00 0 -1 -1
293 2 1.9040488234039277e+01 1.1026526848041147e+01 5.9614268367604959e+00 0 -1 -1
710 2 1.8311524736523577e+01 4.8153920493364231e+00 4.6032823795224633e+00 0 0 0
683 2 5.7623428359955007e+00 1.9369623554413533e+01 6.7852087166376815e+00 0 -1 0
918 2 1.9485766888642829e+01 9.1200787221354993e+00 1.6008922678147917e+00 0 0 1
1550 2 1.6273796744773929e+01 1.7966654761810723e+01 3.2081095587331621e-01 0 0 1
1792 1 6.7744067282756308e+00 1.5143355321913740e+01 6.8476269257931079e+00 0 -1 1
919 1 9.4868564035650049e-01 1.3475237291052529e+00 5.1793057042163833e+00 0 1 0
731 2 1.9323609006005476e+01 3.6709035749383273e-01 5.1351087523381489e-01 0 0 1
100 1 1.9028470961124622e+01 1.7909152455933793e+01 5.8073374058838256e+00 0 -1 0
1395 2 1.6322679434928190e+01 4.6337686693183855e+00 3.1731958415519368e+00 0 0 0
1806 2 1.2725139387860196e+01 1.1302172046174579e+01 5.5135018389445112e-01 0 0 1
1340 2 1.5025377390883474e+01 2.1380238905673883e+00 5.4417386196407822e+00 0 1 1
1773 2 7.0138910645890187e+00 8.7483706373876728e+00 1.4453719675824925e+00 0 0 0
1084 1 2.2307681339761620e-01 1.5303469437290575e+01 8.9564360066801516e+00 0 0 0
1135 1 3.3269357457695463e+00 7.4300476379768936e+00 3.7714323723795786e+00 0 1 0
1297 1 1.4228486932972137e+01 1.8314204948009618e+01 8.8889470350069111e+00 0 -1 -1
742 1 1.6627775238384512e+01 1.6975963313018834e+01 6.3847156949492003e+00 0 -1 0
1323 2 2.6331621934778306e+00 1.6989810258351319e+01 7.3931720463141586e+00 0 0 0
263 2 6.6158155170317974e+00 6.5106813736681817e+00 1.5854497828945289e+00 0 1 0
1562 2 8.8728643320163592e+00 1.3624165423976817e-01 4.1749072560520730e+00 0 1 0
1167 2 1.4062397097964455e+01 1.1119155386880907e+01 8.0738160195152417e+00 0 1 0
1525 1 9.4464940589874296e+00 1.5743126194622338e+01 4.2424617196058705e+00 0 0 1
64 1 1.3421028159082683e+01 5.2423347914015093e+00 3.1721498761610940e+00 0 0 -1
900 2 4.3859510032448377e+00 1.0243941126602250e+01 3.1372230838692010e+00 0 0 0
893 2 2.2230916856770331e+00 3.0026332343400228e+00 3.8673243979155092e-01 0 0 0
454 1 1.0227812911663458e+01 1.8728024358406405e+01 3.2631642830905521e+00 0 0 0
971 2 1.0657782187997316e+01 1.2512224061397784e+01 3.0826237518546939e+00 0 0 0
1578 2 1.9202220799822378e+01 7.1255779067623770e+00 5.0894419662979242e+00 0 0 1
1556 2 8.3321964084370403e+00 5.4025584034256999e+00 5.7269640600247551e-01 0 0 1
959 2 1.0343562623517419e+01 7.3353079891508211e-01 8.5836785810639427e+00 0 1 0
535 1 8.1032506852063602e+00 9.7180184339437616e+00 1.9653925514531063e+00 0 0 0
229 1 2.0044977370489243e+00 1.8578688985674400e+01 6.9835732852298360e+00 0 0 0
1166 2 1.4973518368599438e+01 1.1678479000163515e+01 9.0960731491698716e+00 0 1 0
9 2 -7.3815414855887079e-02 1.1967154021123365e+01 9.7643080156077140e+00 0 -1 0
1375 1 8.8367173288781107e+00 1.3444483686650667e+01 7.3454048956448004e+00 0 0 1
227 2 4.4749874066161288e-01 1.1765081379544620e+01 3.0118447011658680e+00 0 0 0
1580 2 5.0899968037770869e+00 3.5770011943817757e+00 8.1688670844079923e+00 0 0 0
1530 2 2.2652238553534182e-01 2.3521406738643464e+00 1.0046736105853739e+01 0 0 0
29 2 3.3471682691885980e+00 1.2155795645934592e+01 9.6861913013135119e+00 0 0 0
1096 1 7.8149280973786563e+00 9.4210600553036290e+00 4.5159518988738592e+00 0 1 0
1539 2 4.3933470761825399e-01 1.6570006292422100e+01 3.2422928160788111e+00 0 0 0
273 2 1.1266593445698026e+01 1.0327923222189041e+01 3.2960875755374088e+00 0 0 1
743 2 1.5975023736243514e+01 1.6341674263391955e+01 5.9754705958875833e+00 0 -1 0
684 2 5.1507961366395190e+00 1.8838155230535232e+01 5.4471235937664524e+00 0 -1 0
674 2 1.0237386878855110e+01 5.3536962796694318e+00 3.9292703475558031e+00 0 -1 0
871 1 9.1830397847717071e-01 1.5019059983711172e+01 5.4816016874749591e+00 0 0 0
476 2 1.3849831975485223e+01 6.8432180598560812e+00 7.8505800907958943e+00 0 1 0
1811 2 1.8410670419424520e+01 5.6585674576267548e+00 2.2428235274256955e-02 0 0 1
652 1 2.7741116520138771e+00 8.9192870292172621e+00 1.0173696290678116e+01 0 0 0
225 2 4.7617215350383493e+00 4.3875910285255104e+00 6.3486616960151689e+00 0 1 0
1794 2 7.4981129073220849e+00 1.4562712217584254e+01 7.0409737636979504e+00 0 -1 1
484 1 9.0687468576975991e+00 5.8811160421371866e-01 1.1336214383354701e+00 0 0 0
472 1 9.6447512978793259e+00 2.6173549419069277e+00 2.9969067634098296e+00 0 1 0
258 2 1.4397350015062354e+01 1.2036979444373635e+01 1.3774510881117972e+00 0 0 1
1772 2 5.4626434395170191e+00 8.8565936996720840e+00 1.4639565561535017e+00 0 0 0
240 2 5.8743140820584854e+00 5.0031180231149399e+00 2.2985195086327381e-01 0 0 0
468 2 5.4785762537741540e+00 1.3140656539310253e+01 8.6481574411343161e+00 0 0 1
1788 2 7.3953602304592989e+00 1.9309978854809955e+01 8.5795051836017038e+00 0 0 1
687 2 2.2366760182374081e+00 1.8127108237977339e+01 4.0944335002635333e+00 0 0 0
1081 1 1.3365558931424589e+01 1.2874933662125576e+01 4.3076128460765339e+00 0 0 0
1576 1 1.9555615602878774e+01 7.9722750479692737e+00 4.6770629388649940e+00 0 0 1
1328 2 7.2926203264791063e+00 1.1163116294349514e+01 8.0947306959069565e-01 0 0 1
1540 1 2.4979956457332557e+00 1.9257479603140677e+01 6.9180492103615798e-01 0 -1 1
1730 2 5.0379569208046293e+00 1.7454919999397394e+01 3.6278859503678857e+00 0 0 0
1159 1 1.8107141909614079e+01 1.8063885690515985e+01 2.7758137775228922e+00 0 0 0
775 1 1.8334306751699156e+01 7.7621353782623608e+00 7.7704440262071079e+00 0 0 0
1574 2 3.6473572600531465e+00 1.5170349913696807e+01 4.5124250906846433e+00 0 0 1
916 1 1.8515343214241483e+01 9.2273544985551492e+00 1.3510923371323051e+00 0 0 1
1372 1 6.4317484145805519e+00 1.9482735335439028e+01 1.7680964045977683e+00 0 -1 1
744 2 1.7499323335806316e+01 1.6832831104433367e+01 5.9765874172700286e+00 0 -1 0
1542 2 2.4861528121106122e+00 3.4069268628129806e-01 1.1867054654813063e+00 0 0 1
282 2 5.7477411170140167e+00 1.1862449570195741e+01 5.2031791050849776e+00 0 0 0
877 1 6.2094259923106927e+00 1.4014623564943495e+01 1.4549669917247754e+00 0 1 1
73 1 1.8262688717953875e+01 1.1736606204831386e+01 8.2979725623395986e+00 0 0 0
32 2 4.1358782226218738e-01 1.5279840421697960e+01 1.7790735163519531e+00 1 -1 0
920 2 1.5472083242641044e+00 6.1910397556706176e-01 5.4185555637760885e+00 0 1 0
1165 1 1.4964377254480869e+01 1.1409296810038343e+01 8.1446962370153386e+00 0 1 0
455 2 1.0445259398706096e+01 1.8279197789924993e+01 4.0643468739567368e+00 0 0 0
1122 2 1.5606136670796639e+01 1.6259344426247175e+01 1.4841716666098796e+00 0 0 0
1128 2 9.4578016163887106e+00 1.8562931117608642e+01 8.3830985547671801e+00 0 0 1
1528 1 5.7196516557979249e-02 2.2022294196038716e+00 9.0762823056911799e+00 0 0 0
527 2 1.5661239774758421e+01 1.1126104846287890e+00 2.3645510877633962e+00 0 1 0
320 2 6.2064769318150130e+00 2.3279201990973268e+00 2.7080130680686785e+00 0 0 1
941 2 1.5399929351030860e+01 5.1012728753152183e+00 7.9843952545175123e-01 0 1 1
230 2 2.5137389905290357e+00 1.9354624700216743e+01 7.3724975279977443e+00 0 0 0
1140 2 6.7386570983006342e+00 5.5039640424995122e+00 4.4488994927595202e+00 0 0 1
44 2 1.8306259356807026e+01 1.9362315118772646e+00 6.0978659986552035e+00 0 0 0
246 2 1.1293898693195663e+01 1.9609484425621368e+01 5.4219607152142091e+00 0 0 0
1085 2 1.1836565584559799e+00 1.5525751629602285e+01 8.8063784592937679e+00 0 0 0
1156 1 1.3498871787274673e+01 1.4948482331227270e+01 8.6492110827336610e+00 0 0 0
1157 2 1.4448165093898105e+01 1.4806905700807521e+01 8.4767535013823014e+00 0 0 0
459 2 1.7385135307033238e+01 4.9968563579453420e+00 8.9249954399022418e+00 0 1 0
262 1 7.0839210637345875e+00 5.6297271104028681e+00 1.5564889369263042e+00 0 1 0
74 2 1.9057730204647150e+01 1.2145360424455880e+01 8.6189448571872038e+00 0 0 0
1127 2 8.7221233032377281e+00 1.7805255466356432e+01 7.2801838256761187e+00 0 0 1
1324 1 1.8841363391143382e+01 1.5269238633102610e+01 7.6024381084158064e+00 0 -1 0
19 1 1.6869940900791953e+00 7.7315177042786143e+00 5.7340983766173954e+00 0 0 0
519 2 1.7144814885120908e+01 1.8766466963507749e+01 8.5979811239930584e+00 0 0 0
777 2 1.8082428204304343e+01 6.8697229334779522e+00 8.0547586396609709e+00 0 0 0
1553 2 1.2492914215482221e+01 1.0361056982736419e+00 7.7714178766203341e+00 0 0 1
12 2 1.6336282919385725e-01 1.8662208819459071e+01 2.2202574200574423e+00 0 -1 0
970 1 1.0298480856397310e+01 1.1710053734487058e+01 3.4183688183422767e+00 0 0 0
675 2 1.1559377115263500e+01 5.2887208178068796e+00 2.9754756272554892e+00 0 -1 0
489 2 1.3970128515437509e+01 8.5716831404135778e+00 2.7735493837928855e+00 0 1 -1
494 2 6.3580812881469999e+00 5.1068423355130852e+00 7.9410520334390888e+00 0 0 -1
1554 2 1.3483373423721840e+01 2.0246259828227147e+00 8.3701279499084205e+00 0 0 1
31 1 -8.0012753769659037e-02 1.5182621415062146e+01 2.5869808323753780e+00 0 -1 0
1753 1 7.9290973506069165e+00 2.0366171349642190e+00 6.6719845448065689e+00 0 1 0
876 2 9.2338151652441773e+00 8.3187187261051871e+00 7.3033818615896102e+00 0 0 0
436 1 1.1604259684530314e+01 1.2916991044525151e+01 8.7538660582502192e+00 0 0 0
76 1 1.6972565023263719e+01 1.5778816377787492e+00 3.0443999089402531e+00 0 0 0
905 2 1.2036212883469290e+01 6.4020104340961481e-01 2.9179848889562604e-01 0 0 0
1302 2 1.9660030668475450e+00 1.1106447044300554e+01 6.6086320379093859e+00 0 0 0
518 2 1.6771670427574655e+01 1.7434431422807837e+01 7.9210222095404905e+00 0 0 0
685 1 3.0776629894149723e+00 1.8565485830938517e+01 4.3017926194732308e+00 0 0 0
485 2 9.0402555857306108e+00 1.1185920060073240e+00 3.1781994799454638e-01 0 0 0
723 2 8.3973714621427380e+00 1.2713487098050852e+01 4.3179480269385240e-01 0 0 0
223 1 3.7797718759488110e+00 4.4980324018324911e+00 6.2322613906453981e+00 0 1 0
903 2 1.2275007771087763e+01 1.8532739785068899e+00 4.3239657879383300e+00 0 1 0
101 2 1.9153203816959920e+01 1.7735027911548325e+01 6.7801789271446937e+00 0 -1 0
257 2 1.4827341908734093e+01 1.3562860362891440e+01 1.8283666233805269e+00 0 0 1
1005 2 1.9656274017924321e+01 8.3184989554571800e+00 8.3288121459028766e+00 0 0 0
682 1 4.8753714517419198e+00 1.9290125031210664e+01 6.2732163523437885e+00 0 -1 0
1370 2 1.2238498905821853e+01 1.3960109906223167e+01 3.5275144343300764e+00 0 -1 1
1107 2 2.4297214495820607e+00 6.0020018907227310e+00 1.3769516436793467e+00 0 1 1
1763 2 4.1364325771084387e-01 5.4882830612347577e+00 2.6293849978626676e+00 0 1 0
1300 1 2.2632209058848662e+00 1.1625311741212551e+01 5.8452878600154543e+00 0 0 0
1596 2 6.3232618757666366e+00 7.0899341254725865e+00 8.7517425446410240e+00 0 1 0
726 2 1.2811388617475124e+01 3.8270892004340995e+00 9.0589683510488630e+00 0 0 0
1139 2 7.1092712207346702e+00 4.0618734094027236e+00 3.8930811687109181e+00 0 0 1
901 1 1.1435909628136645e+01 1.5945401038923952e+00 4.8319159353760810e+00 0 1 0
1312 1 2.1940257779959743e-01 4.2321591713432332e+00 4.0494358402346045e+00 0 0 1
526 1 1.4742138680511175e+01 9.4669084793573932e-01 1.8661922408476681e+00 0 1 0
1369 1 1.1459568732941758e+01 1.4218980315794484e+01 3.0089712972461800e+00 0 -1 1
1123 1 1.9041413234865022e+01 5.9193911705784785e-01 4.7305195860942160e+00 0 1 0
1824 2 1.7812118414424781e+01 1.2822921305456688e+01 1.8832739768431535e+00 0 0 1
488 2 1.4826159696287965e+01 8.0813008781212083e+00 1.5337715845664950e+00 0 1 -1
272 2 1.1305609684812453e+01 8.9567079366210027e+00 2.5937775357058408e+00 0 0 1
1577 2 1.9486457708178435e+01 8.7244855595260482e+00 5.3238614049291568e+00 0 0 1
1 1 4.3968687332350775e+00 1.9645974879316014e+01 9.8013924130579575e+00 0 -1 -1
106 1 1.7949905476065137e+01 1.2241543064591093e+01 5.0344635076955262e+00 0 0 0
698 2 4.2631409591244216e+00 1.9196196161517145e+00 1.8780666239284223e+00 0 1 1
1610 2 3.6053651329827381e+00 1.1411089331516873e+01 4.6939294935433162e+00 0 0 1
270 2 1.9007361736861608e+01 1.5103803425364745e+01 4.5707301706336629e+00 0 0 0
1544 2 6.0045939268129294e+00 9.5172757376481165e+00 8.0244250745279810e+00 0 0 0
1086 2 1.8602737302360489e-01 1.4329919555421691e+01 9.0100047751871983e+00 0 0 0
1360 1 1.0441031905054382e+01 1.5703959617634474e+01 8.2587864342216335e+00 0 -1 0
1756 1 3.6976980827469643e+00 1.3385035692849163e+01 2.2458306006307018e+00 0 0 1
234 2 1.1005104608268166e+01 5.1546671670924686e+00 8.6595615527200529e+00 0 0 -1
1784 2 4.4430903572799343e+00 7.4096796379068044e+00 7.8499933831495143e+00 0 1 0
1819 1 6.2200350366897190e+00 1.6695546469830628e+01 5.5119058504281071e-01 0 0 1
1136 2 2.6332404466767314e+00 7.4041567489558577e+00 4.5038928624601020e+00 0 1 0
936 2 1.4585133415228732e+01 1.5810857380344178e+01 4.1460318166991668e+00 0 1 1
1161 2 1.7469965072595556e+01 1.8106378550891137e+01 2.0626642278347531e+00 0 0 0
77 2 1.7437469273550946e+01 1.9598438210686062e+00 2.2887676521123548e+00 0 0 0
690 2 1.6671674949020012e+01 1.5292234461173045e+01 3.6705624110823809e+00 0 -1 0
1376 2 9.1495361038394094e+00 1.2643916014797322e+01 6.8617991231970592e+00 0 0 1
508 1 1.1257374966857695e+01 3.4763251889164142e+00 7.7100753853305792e-01 0 2 0
1120 1 1.5130582773167861e+01 1.5429745897395616e+01 1.7079753666527886e+00 0 0 0
466 1 4.6792603051098300e+00 1.2597247300174523e+01 8.3611677921019982e+00 0 0 0
1758 2 3.0621637748593824e+00 1.3284455569804242e+01 1.5697478998553407e+00 0 0 1
231 2 1.1382094589587304e+00 1.8614533397056142e+01 7.4605265717346487e+00 0 0 0
776 2 1.7579007487823919e+01 8.2705207825995348e+00 7.5203382098224134e+00 0 0 0
474 2 9.2346633172659196e+00 1.9692498137827292e+00 2.4032152565993492e+00 0 1 0
935 2 1.4425619501385997e+01 1.4441372748123108e+01 4.6781744875993843e+00 0 1 1
688 1 1.7590695659827034e+01 1.5446780209220908e+01 3.3971904954752796e+00 0 -1 0
1321 1 2.7234444640877919e+00 1.6075470703988316e+01 7.7908830042391353e+00 0 0 1
1611 2 4.2475024474535648e+00 1.2234376770106845e+01 3.5681901320081333e+00 0 0 0
536 2 8.9496048197975835e+00 9.3098949135517000e+00 1.7238786414639964e+00 0 0 0
481 1 1.2604385897731692e+01 1.7053586146848961e+01 7.0637289383603177e+00 0 0 0
1740 2 4.3766836141468135e-01 9.8428963053405383e+00 8.9608585604060398e+00 0 0 0
1535 2 1.7445057443395555e+01 8.2993974098572920e+00 4.0454399885829613e+00 0 -1 0
1793 2 7.2070330507866611e+00 1.5920677020469483e+01 6.4558175064653023e+00 0 -1 1
264 2 7.2835246191282064e+00 5.3600409668927975e+00 2.4938599997974200e+00 0 1 0
244 1 1.0880281587988392e+01 1.8831796247007428e+01 5.7882221301064343e+00 0 0 0
452 2 6.3277285901063731e+00 7.8614120106916463e+00 4.7025889825875948e+00 0 0 -1
1747 1 5.0725324221729362e-01 1.0295415335968526e+01 4.1564527157446411e+00 0 0 1
1111 1 1.7596117345163604e+00 9.7700194021549667e+00 7.6975654152498221e+00 0 0 0
321 2 7.1775403126103958e+00 1.7069502426195642e+00 3.7189067956762201e+00 0 0 1
1138 1 7.4580801728638928e+00 4.9892024734592084e+00 4.0024375067676958e+00 0 0 1
1299 2 1.4026749972578155e+01 1.9264348021122981e+01 8.5912369987356918e+00 0 -1 -1
458 2 1.6196242206102585e+01 6.0111721889060190e+00 8.6743162388644386e+00 0 1 0
1113 2 1.6678387184024508e+00 9.1159376370398206e+00 7.0470284057924415e+00 0 0 0
1536 2 1.6043183065902042e+01 7.8360563821483344e+00 3.3340635818835680e+00 0 -1 0
482 2 1.3076649528343617e+01 1.6134217628306171e+01 6.9738067901333327e+00 0 0 0
716 2 1.8020795595020008e+01 3.6571146772620495e+00 5.5065469580895932e-01 0 0 1
528 2 1.4927804469799216e+01 1.5045493241901406e+00 1.0590075763657527e+00 0 1 0
537 2 8.0678819733818319e+00 9.5887406703821849e+00 2.9557108936240573e+00 0 0 0
1373 2 7.3543796167593811e+00 1.5143256970572777e-01 1.5905471132743876e+00 0 0 1
875 2 9.5550185801974123e+00 7.1294900257530704e+00 6.2497342152192168e+00 0 0 0
1821 2 5.3262319466997710e+00 1.6703159885423123e+01 1.0069297994413764e+00 0 0 1
43 1 1.7728479330106953e+01 2.1505562748497473e+00 6.8464358501555189e+00 0 0 0
1805 2 1.2644490984227756e+01 1.0165895857502589e+01 1.6052248769765929e+00 0 0 1
894 2 1.3073802401073114e+00 2.2590768505406653e+00 1.3682781686269292e+00 0 0 0
218 2 1.2950518639420228e+01 3.4785184189289142e-01 2.1386456263673717e+00 0 0 0
715 1 1.8353824370148327e+01 3.0119587398240979e+00 1.1833764225251990e+00 0 0 1
1575 2 3.3633193698009274e+00 1.4681563516673938e+01 3.1101715741077163e+00 0 0 1
1754 2 8.8577085671846625e+00 2.1978066251262010e+00 6.9218553696877434e+00 0 1 0
1163 2 3.7320186175628800e+00 1.4972762409855154e+01 6.7152535092443859e+00 0 0 1
108 2 1.7111063656121189e+01 1.2400545515792651e+01 5.4897744839392395e+00 0 0 1
68 2 2.8736231303297638e-02 1.8671267862869694e+01 9.1238180703028764e+00 0 -1 0
686 2 3.3084935459898239e+00 1.8385485211616917e+01 5.2500329935373946e+00 0 0 0
965 2 1.5589832809197899e+01 1.3716910179072491e+01 6.0314193680337809e+00 0 0 0
281 2 6.7091344058558358e+00 1.1848192956712545e+01 6.4186663465695384e+00 0 0 0
78 2 1.7581200496207902e+01 9.9562652908219695e-01 3.4935273251775438e+00 0 0 0
1145 2 1.7007814226767209e+01 1.4824120529302807e+01 7.8790910355109602e+00 0 0 0
66 2 1.3364449639537721e+01 5.5385976995730539e+00 4.1114173311323654e+00 0 0 -1
1121 2 1.4233710546632151e+01 1.5444576193904606e+01 1.3700250661070046e+00 0 0 0
1537 1 6.7265650053429504e-01 1.7497879443964116e+01 3.5473752845133952e+00 0 0 1
314 2 1.0699097979213995e+01 1.1345009906956443e+01 6.6046664795590377e+00 0 0 0
897 2 1.1105433471804309e+01 8.2390790851320759e+00 6.0241261236305057e+00 1 0 0
21 2 7.4357064006049800e-01 7.5459566180057127e+00 5.5381115322487631e+00 0 0 0
292 1 1.9707426122664948e+01 1.0344377587806395e+01 6.2605362732735301e+00 0 -1 -1
1158 2 1.3529331202305597e+01 1.5582286094221702e+01 9.4366433232778277e+00 0 0 0
1545 2 6.0753436909009713e+00 1.0871566694557815e+01 8.7449037293231431e+00 1 0 0
319 1 6.6130660997820572e+00 2.4402319834711279e+00 3.5809208854577492e+00 0 0 1
722 2 9.0322736315522825e+00 1.3553958347607100e+01 1.6052792858272065e+00 0 0 0
1350 2 1.0709177166132323e+01 1.5112277943002633e+01 9.8323989405008270e+00 0 -1 0
680 2 3.0821755636583443e+00 2.9058136158110806e+00 3.5633074996566836e+00 0 0 0
677 2 7.9114478007628397e-01 8.9521115651329275e+00 2.9942915925697537e+00 0 0 0
15 2 1.0868023042848606e+01 7.7874653373645355e+00 1.1288842678444093e+00 0 0 0
1398 2 1.7825226271447370e+01 1.0626578889071011e+01 9.5666802029073175e+00 0 -1 1
1584 2 9.5015687620472740e+00 9.3063922017156209e+00 9.1438722145843734e+00 0 0 0
46 1 5.5469748548316753e+00 1.6147549845032685e+01 9.0489188586702838e+00 0 -1 0
89 2 1.2397959681620284e+01 9.9085187055622406e+00 6.9571011201931858e+00 0 0 0
304 1 7.1666423532772923e+00 1.3098581961769506e+01 9.4508780051695478e+00 0 0 1
450 2 1.4636617964988906e+01 1.8319651146576877e+01 3.7546639885627511e+00 0 0 0
1618 1 1.6296453273900308e+01 1.9013131164472661e+01 4.4685046461264086e+00 0 -1 0
1774 1 3.9682923592562478e+00 1.5742005303540594e+00 3.9938494927316115e+00 0 1 1
1534 1 1.6495649564864031e+01 8.0238040330585001e+00 4.1836136520859437e+00 0 -1 0
1374 2 5.8215347047985597e+00 4.3374350363813124e-01 1.5110277560263998e+00 0 0 1
1333 1 1.7845423353973707e+01 1.4246357315275144e+01 9.3277478081277954e-01 0 -1 1
1326 2 1.9227072773603123e+01 1.4866555997954181e+01 6.7884145389543766e+00 0 0 0
7 1 -1.3316057396946246e-03 1.2637199223742639e+01 9.1354375233003253e+00 0 -1 0
473 2 9.0236873018506891e+00 3.2093295099076751e+00 3.2960600617876956e+00 0 1 0
14 2 1.0218173160698452e+01 7.0740611237962048e+00 2.2879968984352441e+00 0 0 0
228 2 7.7986302098830018e-01 1.2520699457175299e+01 1.6051046497082078e+00 0 0 0
1105 1 3.2760801454082462e+00 5.7018967826517262e+00 1.8023566920285312e+00 0 1 1
1776 2 4.9060151893765811e+00 1.7634253664829158e+00 4.2293548952595508e+00 0 1 1
1595 2 7.7834682060673712e+00 6.7530255979968814e+00 8.6830894386530755e+00 0 1 0
1551 2 1.5641658143163889e+01 1.9044405877104456e+01 1.2083922722167380e+00 0 0 1
1526 2 1.0280993495300898e+01 1.5322719705653888e+01 4.3254043018186881e+00 0 0 1
2 2 3.9862592629915330e+00 5.9376889344247841e-01 9.2055952600684616e+00 0 0 0
453 2 4.8692599782861272e+00 7.2658182014335573e+00 4.3829586984741393e+00 0 -1 -1
666 2 1.0510475963367951e+00 2.9097454440861457e+00 7.7576335757589714e+00 0 0 0
1322 2 3.4620747306239115e+00 1.6290373301768469e+01 8.3681372302163464e+00 0 0 1
65 2 1.4048538776118422e+01 5.8358348726370650e+00 2.7055594334247082e+00 0 0 -1
456 2 9.6235699662525587e+00 1.8176074649921485e+01 2.6968300529668330e+00 0 0 0
235 1 8.9729926928684094e+00 1.7322385964036435e+01 1.3161947199099675e+00 0 0 0
1620 2 1.6631592719156970e+01 1.8444508963327380e+01 5.1631040833055426e+00 0 -1 0
1823 2 1.6643640799813092e+01 1.2064135727722064e+01 2.2656386149582346e+00 0 0 1
302 2 1.9517784345037146e+01 5.0231123352521214e+00 8.6175033355158916e+00 0 0 -1
910 1 1.0904768008904835e+01 9.8878923797062868e+00 9.9495679256081022e+00 0 0 0
1563 2 7.9203913738795872e+00 1.9226150152398557e+01 5.1361233923492877e+00 0 0 0
1362 2 9.6682710477831009e+00 1.6366992392026894e+01 8.2809076185135559e+00 0 -1 0
1729 1 5.8313009730542529e+00 1.7961415915041385e+01 3.9564535831707150e+00 0 0 0
301 1 1.8887484708662260e+01 4.6887329790009238e+00 8.0294570196445196e+00 0 0 -1
1153 1 1.3839322135029096e+01 2.4872325281718424e+00 4.0334125650777528e+00 0 2 0
1619 2 1.6053097058623560e+01 3.8564794930772445e-02 4.9917012258172297e+00 0 0 0