LAMMPS data file via write_data, version 3 Mar 2020, timestep = 43350000

2016 atoms
2 atom types

0.0000000000000000e+00 1.7944580037613974e+01 xlo xhi
-9.1322923958771085e-01 4.5909389216465833e+01 ylo yhi
0.0000000000000000e+00 1.9082194017613212e+01 zlo zhi
4.3966339992421430e-02 -6.6797406071346330e+00 -2.2958531026624485e-02 xy xz yz

Masses

1 16
2 2

Atoms # atomic

1861 1 6.2080121679231928e+00 8.2337448078916609e+00 6.3810440913215738e-01 0 1 3
726 2 1.4387162565135885e+00 1.0660922774715385e+01 7.2251736362468293e+00 5 0 2
63 2 7.7262952126272486e+00 5.8791438928225741e+00 1.5551181211867398e+01 -1 0 -3
1675 1 1.0948564122759212e+01 2.4169442664310719e+00 9.5004155136955273e+00 -1 0 1
1742 2 1.1774118360022092e+01 8.4346293663577629e+00 6.2688768104658079e+00 2 1 2
513 2 8.1447502192945613e+00 4.0095595810180571e+00 9.5554281809035775e+00 2 0 0
1468 1 1.5106488752701566e+00 2.1496508625520554e+00 1.2060079088487292e+01 1 1 0
195 2 8.1737547061583449e+00 1.0394840010402818e+01 6.3570429123189676e-01 -5 0 -4
1002 2 3.2444243539742335e+00 8.2976359587740163e+00 5.3991684507609721e+00 -2 0 1
760 1 1.1002462568631364e+00 4.8058013231470200e+00 1.5866211298813957e+00 -2 0 0
345 2 1.2036749934803888e+01 5.6110225337060671e+00 3.0130435619484750e+00 -5 0 1
1151 2 1.3686130004408840e+01 5.7150137378680066e+00 4.0393220157548998e-01 -1 0 1
134 2 -6.1839739534534921e-02 1.5396474247330563e+00 1.1610720626722374e+01 1 0 -1
96 2 5.8133555825990397e+00 6.4015834870304578e-01 1.6650028823378758e+01 -3 0 -3
1456 1 5.2283820275642681e+00 3.2277693213003449e+00 8.0822095801137603e+00 1 1 0
956 2 1.2471059932089712e+01 1.3399048651100616e+00 6.0894876898714960e+00 -3 0 -3
908 2 -1.9871247332044946e+00 -3.6459687146322606e-01 8.5804258721260958e+00 1 0 -1
113 2 1.2663513144251578e+01 3.4270870929750643e+00 1.1785087122892683e+01 -1 0 2
682 1 5.0850433784191269e+00 6.2764567850742319e+00 1.3864302114142877e+01 2 0 1
244 1 1.3623152002471772e-01 2.7952021084439287e+00 3.0330774457332694e+00 -2 0 -3
653 2 4.7348497808608982e+00 7.1853959922546746e+00 7.3512248675620784e+00 -2 0 0
1855 1 1.4789437924052868e+01 -3.5248046890795992e-01 2.8685243536055607e+00 0 1 -1
608 2 1.0741090673450152e+01 -3.9590471753822454e-01 1.0862842530397721e+01 -2 0 1
1430 2 9.3473039196435703e+00 7.2721102139369247e+00 1.6691474475298410e+01 -1 1 1
338 2 1.0154188545741487e+01 1.2940238890363132e-01 1.7460240139644650e+01 -2 0 -3
1871 2 -2.3657969046963356e+00 1.1845335313566165e+00 1.5202954726588487e+01 -1 1 2
1665 2 5.1406782487938845e+00 4.6926713843812733e+00 3.0269966206851162e+00 -3 1 2
1863 2 -3.0555722843528432e-01 8.5616963266727399e+00 1.8776015761505814e+01 0 1 1
2005 1 1.4617510759522387e+01 8.4234160724842617e+00 3.1942763359618009e+00 0 1 1
109 1 3.2244486471604672e+00 6.7978732641994499e+00 1.5745320955749500e+01 3 0 -3
604 1 -2.3934539718465242e+00 4.3266827763386200e+00 1.4974724123670946e+01 0 0 1
887 2 5.0853291573904977e+00 1.9775458427642847e+00 1.4020297176665677e+01 -3 0 -1
866 2 1.1492470452450110e+01 9.9884438828012261e+00 1.7248626635361063e+01 0 0 0
70 1 1.3535303367839372e+01 8.8803386059237504e+00 1.1645946313349352e+01 -1 0 0
125 2 8.7269217408135411e+00 7.2425349933933347e+00 5.9215458654648092e+00 -4 0 2
968 2 1.3161036334171200e+01 7.7831159133795431e+00 2.6748163028024825e+00 -4 0 2
438 2 9.0685572068373688e+00 8.9876504246231281e+00 2.1846737023119402e+00 0 0 2
95 2 6.4052228031898784e+00 2.1202512465689618e+00 1.6751827581761457e+01 -3 0 -3
672 2 1.4263771318961840e+01 9.3490231106048221e+00 6.6895747514922066e-01 -4 0 -1
407 2 -3.6183231302042502e+00 1.0348008124751562e+01 1.4212465690948873e+01 -3 0 -3
100 1 -1.1281630622374295e+00 -3.0983365874182045e-01 5.8693722825227681e+00 -1 0 0
1007 2 -4.0293041790545949e+00 4.9560487374515434e+00 1.5160171890060537e+01 -2 0 -3
486 2 6.3127827678370885e-02 1.8989669304564436e+00 1.7932702628254830e+01 0 0 -1
184 1 -2.3090268911339269e+00 4.5778717662520556e+00 8.0561040695729744e+00 -3 0 -7
493 1 1.0296826430587279e+01 -2.6000302045502011e-01 1.2550857472285569e+01 -6 0 -5
1677 2 1.1165926993316818e+01 2.5908797230621903e+00 8.6022587833376196e+00 -1 0 1
961 1 2.1619366833771974e+00 4.1638915756641905e+00 1.3821692969383781e+01 -2 0 0
1469 2 1.7057429581887531e+00 2.7923166052129789e+00 1.2744166870925433e+01 1 1 0
1395 2 1.1860243128913286e+01 8.6588814793231847e+00 1.2222537194887057e+01 -1 1 0
957 2 1.1531958351081220e+01 5.9631344789144602e-01 5.0487797505208487e+00 -3 0 -3
703 1 7.5275796688551306e+00 1.2423394840086073e+00 1.0957379111605896e+01 0 0 0
569 2 1.0133459724805638e-01 9.0110203025265765e+00 1.0796420551713755e+01 0 0 2
838 1 1.0645990707588329e+01 3.1526739883912889e+00 1.7005087672021983e+01 0 0 -3
83 2 4.4514111332520079e+00 -2.0589002195737427e-01 1.1102993342329889e+01 0 0 -2
403 1 4.4180842234789690e+00 7.1891099421542375e+00 1.8301558120596425e+01 2 0 1
764 2 4.0880429475559517e+00 -4.0475638596129415e-01 7.8332821848142729e+00 -3 0 -2
53 2 1.6180026359032205e+01 5.0484342289561139e+00 5.9942949153108172e-01 2 0 1
655 1 4.9879414203332981e+00 4.0751465403096709e+00 3.7736456625771879e+00 -3 0 2
1894 1 1.1907814252857836e+01 3.3462775741454589e+00 7.3467876431164281e-01 -4 1 1
1867 1 -5.1619001866655578e+00 1.6736620510084865e+00 1.5745507188702696e+01 0 1 0
897 2 -2.2848175622340738e+00 8.4506925513866040e+00 1.3823642523981839e+01 -1 0 1
574 1 5.5994166972340560e+00 8.4044911551493904e+00 3.5159256005040938e+00 0 0 0
1463 2 -1.0391861207510598e+00 8.0821584438443530e+00 9.0745863709390377e+00 -1 1 1
50 2 5.7954673981776086e+00 1.0374927450317571e+01 6.2702101915518718e+00 0 0 0
1913 2 -1.1637053131047592e+00 5.7277393376955388e+00 1.5673818612655200e+01 -1 1 0
427 1 -1.5032697901851030e-01 1.9385084929949175e+00 5.7855542423080730e-01 -1 0 0
1707 2 6.6308998394298362e+00 4.3537203100980202e+00 4.4964600691563703e+00 0 1 1
594 2 4.6544191271882163e+00 8.7810776113790858e+00 1.8348707848350241e+01 -3 0 -2
62 2 6.3830014624365878e+00 5.4065453399478569e+00 1.4833475712937291e+01 -1 0 -3
37 1 -4.1723221970785040e-01 8.8770139229429557e+00 1.7007082811446907e+01 -3 0 -3
752 2 7.7670532691773779e+00 5.6145196205726204e+00 1.8136441678811825e+00 2 0 3
1112 2 2.5118630578509915e+00 7.1852263444515216e+00 1.1918098542556431e+01 0 0 0
122 2 5.0531058129349660e-01 3.7861752268684850e+00 7.1087180085764841e+00 0 0 1
1923 2 1.4639247309379954e+01 1.0253394205391185e+01 8.5196643803437446e+00 -1 1 1
312 2 1.3168838611932237e+01 1.9600049597671125e+00 4.3573285064102114e+00 -2 0 -2
475 1 8.4921172102626752e+00 -5.2892363234333040e-01 8.7288050237120078e+00 0 0 2
977 2 -2.9552794771129225e+00 6.9249900620209495e+00 9.8025211473745362e+00 -2 0 0
1458 2 4.6348733786362644e+00 3.5940689374207384e+00 7.3851097297515231e+00 1 1 0
38 2 3.7084349603675637e-01 9.2220081874277913e+00 1.6515310212356386e+01 -3 0 -3
1869 2 1.2302091811710135e+01 2.5105924892371148e+00 1.5986566450239838e+01 -1 1 0
1006 1 -4.8889377731681360e+00 5.2447789952329513e+00 1.5507087119563911e+01 -2 0 -3
593 2 1.1723391076456995e+01 1.0027942058539473e+01 2.2772143990750679e-01 -3 0 -1
1005 2 8.4599800305584765e+00 1.0110629857122847e+01 1.3838185093428750e+01 -2 0 -1
1361 2 2.1254426015248695e+00 2.7061657843878253e+00 1.8610651796248316e+01 -1 1 0
777 2 -1.5245418708428442e+00 2.6674674397358529e+00 1.2201167377842101e+01 -1 0 2
496 1 8.6449123693452385e+00 8.3409696646041809e+00 1.1350181553938237e+01 0 0 1
497 2 8.6932323762696520e+00 8.3103365891483669e+00 1.0346278831133271e+01 0 0 1
528 2 -1.1903775165159436e-01 8.5180732166719970e+00 7.0667312043346051e+00 -2 0 0
231 2 1.3517459103588516e+00 1.9861245951731283e+00 6.0093864452817964e+00 0 0 -2
61 1 7.2858208518716605e+00 5.0966544364286230e+00 1.5119424556923541e+01 -1 0 -3
1394 2 1.0312437234546749e+01 8.4945970165055034e+00 1.2123409297478370e+01 -1 1 0
683 2 5.3445280022259603e+00 5.4908430392813408e+00 1.3328511653972180e+01 2 0 1
405 2 4.0424217602281347e+00 6.8880276255401576e+00 1.7432049294663983e+01 2 0 1
965 2 1.4833757265612777e+01 5.1316997020741324e+00 2.3887692843357029e+00 -2 0 0
105 2 9.1136721281864137e+00 3.8751416206406999e+00 1.4530018296772935e+00 -2 0 1
1470 2 2.0730684675680537e+00 1.3083338870076182e+00 1.2117698219341985e+01 1 1 0
512 2 8.7497810830612543e+00 4.1835074673707870e+00 1.0959273604424466e+01 2 0 0
1004 2 7.8504201868198527e+00 9.8869443007704039e+00 1.5233601957437996e+01 -2 0 -1
447 2 -3.6932350446531363e+00 1.0916718715361662e-01 1.7580768919807522e+01 1 0 0
844 1 -1.3288317113520369e+00 4.8385539158211559e+00 1.8415139348529888e+01 2 0 1
394 1 9.8840776768570819e+00 8.3037981080969714e-01 4.4473317618512933e+00 -1 0 -2
428 2 1.0766836631075195e+01 2.1602632948609140e+00 1.8761127770136987e+01 -2 0 -1
51 2 5.8314314495493926e+00 9.9180240604322201e+00 7.6423013677244107e+00 0 0 0
749 2 8.6584854707502625e+00 2.3959584510746401e+00 1.2314734952365805e+01 -1 0 2
214 1 7.4352256507573111e-01 6.9538704946239873e+00 3.2954509877421101e+00 1 0 -3
633 2 1.0165781344973826e+01 9.6616259645059497e+00 4.3144246704755433e+00 -2 0 -1
215 2 1.4167315222730936e-01 6.5709563938459503e+00 4.0251784388259635e+00 1 0 -3
1673 2 1.0355002348912901e+01 9.4106305344685364e+00 9.1103924588353422e+00 0 0 0
124 1 9.5635868130601693e+00 7.5489489594298096e+00 6.2599245413202329e+00 -4 0 2
1044 2 1.3099804264615658e+01 6.0164919868984708e+00 6.3130924312191246e+00 0 0 0
1668 2 6.4501593831462358e+00 4.3623446465654787e+00 1.6853559461968700e+01 1 1 -1
110 2 2.6571704068557551e+00 6.0379409333172207e+00 1.5949880584461624e+01 3 0 -3
511 1 8.6641376979162210e+00 3.5359390864830633e+00 1.0259212081299950e+01 2 0 0
1705 1 7.5552687804721357e+00 4.6257249882736380e+00 4.7540920530251771e+00 0 1 1
524 2 4.2877695414626480e+00 2.4380871920788567e+00 1.0765858518800222e+01 -1 0 -5
855 2 3.7932286939348763e+00 5.2151021796124057e+00 6.4670901467938329e+00 -3 0 -2
332 2 -8.1783168731728706e-01 1.0001430471352199e+01 3.7874371290422939e+00 -1 0 -3
65 2 6.5917763073704165e+00 4.1173078171735566e+00 8.0339064560984443e+00 1 0 -3
1390 1 1.1074777951069809e+01 4.2524891702625736e+00 1.2086038573768199e+01 -2 1 0
761 2 2.0443095147948331e-01 4.9223204373406340e+00 1.1161540104979735e+00 -2 0 0
1563 2 -1.1959195054217915e+00 4.8786543348072611e+00 1.2123946430687722e+01 0 0 0
247 1 6.9084216634741820e+00 7.2946764658113263e+00 5.5962543404393204e+00 -1 0 -2
685 1 1.7385072228757412e+01 -3.4815119115771243e-01 1.4309732260724897e+00 -3 0 2
1061 2 -4.0157239304820829e+00 2.3025477347802545e+00 1.8481812938977757e+01 0 0 -1
436 1 8.2187537619766218e+00 9.4904374728405987e+00 2.2438474850109800e+00 0 0 1
1362 2 2.5888922097506928e+00 2.0188292317701828e+00 1.7290095090192128e+01 -1 1 -1
652 1 3.8987947981142357e+00 7.0247780108387410e+00 6.8730331322540650e+00 -2 0 0
1042 1 1.3539481833800549e+01 5.1526428550236707e+00 6.3394747277802548e+00 0 0 0
1111 1 2.7951202141974720e+00 8.1200316678986582e+00 1.1739349943235455e+01 0 0 -1
229 1 1.6512777428685399e+00 2.5653756244816233e+00 6.7337546887433675e+00 0 0 -2
1392 2 1.0465826216884350e+01 3.6185196363342795e+00 1.2467527621323883e+01 -2 1 0
354 2 -1.6389411928578390e-01 8.1920973706291900e+00 2.6789425559851212e+00 1 0 1
33 2 1.4363137002673602e+01 8.6820566322581580e+00 7.0076490227513757e+00 -4 0 -4
248 2 6.4192513537652047e+00 7.6716418612020618e+00 4.8511929256185296e+00 -1 0 -2
54 2 1.0371082590389513e+01 5.8948990518176752e+00 1.8751376129430685e+01 2 0 0
1968 2 2.6243589340359810e+00 1.2381424916202088e-01 1.3588060241902472e+01 0 1 0
494 2 9.8802546100248207e+00 6.0293598024979356e-01 1.2693274165060593e+01 -6 0 -5
849 2 5.9434584770175114e+00 8.9282376969470221e+00 1.1381462445963363e+01 0 0 0
867 2 -5.5938882219975916e+00 9.1674352922777160e+00 1.6176096137934959e+01 1 0 0
684 2 5.5421000386130164e+00 6.9240073986245161e+00 1.3281939489558555e+01 2 0 1
64 1 7.4016317564571974e+00 4.6216609898733800e+00 8.1496768050171386e+00 1 0 -3
543 2 8.2773374051024398e+00 1.0083920950135653e+01 1.1667446343755692e+01 -2 0 -1
104 2 8.6966706698354574e+00 2.3155657284865852e+00 1.6187688583274353e+00 -2 0 1
954 2 2.8696747156766769e+00 8.1784596410963868e+00 5.7865010140191220e-01 0 0 2
401 2 1.0993587074864649e+01 7.1137095332805647e+00 1.3601450782092037e+01 0 0 -1
1452 2 9.4055694385998834e+00 6.7143231958162533e+00 1.9583538112099970e+00 -1 1 0
24 2 1.0872212506656128e+01 8.2845761390523300e+00 1.7641982731540796e+01 -4 0 -1
988 1 2.6147531231592165e+00 4.4418327533029833e-01 1.5568162604525883e+01 -2 0 -2
107 2 3.7367590753299380e+00 6.4127088662647260e+00 1.6590506534802243e+00 -4 0 -2
523 1 4.3470864828568683e+00 3.4235529308980706e+00 1.0668953851540628e+01 -1 0 -5
865 1 1.1394080755887039e+01 9.6361087581640383e+00 1.6355032269647801e+01 0 0 0
222 2 1.4211315577040159e+01 1.5461753688382194e+00 1.8688440195452287e+00 -2 0 -2
492 2 9.0297043449453991e+00 3.6425980520812109e+00 4.9607427695025867e+00 4 0 3
959 2 2.2803601237997322e+00 8.2944770727003867e+00 1.5075654269515795e+01 1 0 -1
1743 2 1.2335091661610155e+01 7.9132361520278103e+00 4.9498004252867620e+00 2 1 2
813 2 -1.9812412279429237e+00 3.6266083751384519e+00 5.8025041803465669e+00 -2 0 0
1408 1 1.0973591845685185e+01 6.2007075071672775e+00 1.4103197231287250e+01 0 1 -1
204 2 2.0250978186013251e+00 2.2531457077282235e+00 9.9676021381221105e+00 -4 0 1
1562 2 -9.0713016500705734e-01 6.3132896716444424e+00 1.2823177294122718e+01 0 0 0
135 2 -1.0595450837181701e+00 7.7255181953356300e-01 1.0615842712689702e+01 1 0 -1
41 2 1.0711134975535810e+00 9.3447285487437952e+00 1.6900270373286408e-03 0 0 5
915 2 -4.3461003673636558e+00 5.0473521616470549e+00 1.7303040411188881e+01 2 0 2
578 2 7.3201427253602187e+00 -4.4496017859501941e-01 1.3624235736007611e+00 -2 0 -1
238 1 1.0087601708038294e+01 4.9446378015405505e+00 7.3529830188602290e+00 1 0 2
763 1 4.9715062385648210e+00 -1.4020506199470373e-02 7.7516634794270960e+00 -3 0 -2
1915 1 6.0019398901209957e+00 5.8318220465585702e+00 1.6881108893890895e+00 -2 1 2
378 2 1.3533116377877055e+00 5.9797506371598654e+00 8.1339797195274652e+00 -6 0 -4
270 2 5.8044790990316351e+00 7.5018197760252505e+00 9.2430379334768560e+00 1 0 0
194 2 2.8063983297222528e+00 1.0078573156873109e+01 1.8848838460032699e+01 -5 0 -5
515 2 1.6810634988645634e+00 5.6998260828254708e+00 1.0604354683606974e+01 -1 0 -1
906 2 -1.0436100510316502e+00 5.8146060045930135e+00 1.7228411157287482e+01 -1 0 0
886 1 5.8932926806301813e+00 1.7590807877658636e+00 1.3490376129106773e+01 -3 0 -1
1450 1 9.9974960515148332e+00 7.5281471284963057e+00 1.7562208230356231e+00 -1 1 0
966 2 1.4849723797679905e+01 3.7743694947030564e+00 1.5248978743060324e+00 -2 0 0
962 2 2.1191457535343483e+00 4.8191487261090105e+00 1.3083192220846430e+01 -2 0 0
94 1 6.5796062878035420e+00 1.1981489521323323e+00 1.6466876715725473e+01 -3 0 -3
386 2 -9.3553341316447280e-01 -1.9469794721832623e-01 1.4449439157243519e+01 -2 0 -2
812 2 1.5334157229576029e+01 2.7717627276195009e+00 4.7225449194969311e+00 -3 0 0
834 2 7.2934716378460429e+00 5.1693037041852525e+00 1.2391400460473367e+01 -3 0 0
1493 2 7.1247436697752708e-01 1.5269930580830060e+00 4.1482262727211134e+00 5 0 2
1667 2 5.5352156410071203e+00 3.8819120644799545e+00 1.8048265777916377e+01 1 1 -1
583 1 3.8950328252823567e+00 2.6883708736909449e+00 1.5132939066145036e+01 -4 0 -5
972 2 2.0478412595375057e+00 1.5280197991744671e-01 9.0895068887149151e+00 0 0 0
185 2 -2.2242784183528559e+00 5.3037244788921223e+00 8.7963348514287265e+00 -3 0 -7
707 2 -3.7450145609071495e-01 1.0500765955845266e+01 1.2578727674939456e+01 0 0 -1
1966 1 2.9391448749696627e+00 7.7483033475839180e-03 1.2623445409279746e+01 0 1 0
548 2 8.1116463783493788e+00 3.6033834427802276e+00 1.5226153144766689e+01 -4 0 -4
568 1 4.4170701754549757e-01 9.1373372430668098e+00 1.1747452548753927e+01 0 0 2
585 2 3.4295953948744655e+00 3.3285173726465427e+00 1.4536709109957956e+01 -4 0 -5
311 2 1.3154558102064337e+01 3.4582227718227205e+00 3.7976031815840980e+00 -2 0 -2
592 1 4.4840858961364622e+00 9.7080838256016797e+00 1.8555027007873939e+01 -3 0 -2
993 2 5.1335106677889861e+00 9.9630935417558830e-01 3.6875766998306886e-01 1 0 2
840 2 1.0499411601806624e+01 3.8511860573609917e+00 1.7701392793175220e+01 0 0 -3
1060 1 -4.2641132572754419e+00 1.4316395328600904e+00 1.8859709272239211e+01 0 0 -1
498 2 8.1078136933557410e+00 7.5617966234926026e+00 1.1511243866503058e+01 0 0 1
84 2 4.9856585335001355e+00 1.6151940626290617e-01 9.6664770014837185e+00 0 0 -2
647 2 1.3808756268839959e+01 -5.9016748439149525e-01 1.0365865842233740e+01 -2 0 0
525 2 4.6761430255591030e+00 3.3837528137043451e+00 9.7577900240471198e+00 -1 0 -5
387 2 -1.6953694961097807e+00 3.7179381810377499e-01 1.3163610306557066e+01 -2 0 -2
1360 1 1.9087568159550079e+00 2.6111924629844965e+00 1.7639726082030542e+01 -1 1 -1
825 2 2.7293128162818423e+00 9.9793990178082694e+00 3.1426521732235186e+00 1 0 2
654 2 3.1571785194229061e+00 7.0120488073089966e+00 7.4938830189304246e+00 -2 0 0
404 2 5.3425154339651417e+00 6.7164985797727281e+00 1.8289888448082170e+01 2 0 1
353 2 -3.4047660344370778e-01 9.2513040201403900e+00 1.5756242345122222e+00 1 0 2
1431 2 8.9518672591108555e+00 7.6881896438480855e+00 1.5238806918172825e+01 -1 1 1
31 1 1.5041195420794740e+01 9.3573360548826603e+00 7.1247826029033607e+00 -4 0 -4
839 2 9.8685270244551422e+00 3.1331552520900123e+00 1.6325992529773888e+01 0 0 -3
746 2 1.1946977055088233e+01 1.0461419213963151e+01 2.6331007492194907e+00 -3 0 0
795 2 8.6820938839224802e+00 1.0436487878423062e+00 3.1592693293155540e+00 0 0 0
1380 2 1.6436744392624769e+00 4.0940791230536568e+00 1.6861452610392309e+01 1 1 2
343 1 1.1975758331307929e+01 4.6300297149593250e+00 3.2039133576905399e+00 -5 0 1
847 1 5.7873394107315672e+00 8.6637651046698281e+00 1.2301905672646038e+01 0 0 0
412 1 8.8269986522936819e+00 -7.4590769807494017e-01 6.1860008650832841e+00 1 0 0
123 2 -7.3963996752560601e-01 4.6667167006744918e+00 7.5836088625959306e+00 0 0 1
1451 2 1.0232528232844775e+01 7.4505607516691317e+00 8.1757077826152291e-01 -1 1 0
1008 2 1.2553970750435994e+01 5.4940467250636660e+00 1.4729370585680858e+01 -3 0 -3
380 2 5.6367287501894490e+00 1.0322481611436904e+01 1.3536703988862261e+01 -3 0 -1
853 1 3.8241575587926966e+00 4.2603904694848191e+00 6.2513260447375529e+00 -3 0 -1
39 2 -5.1754443423229368e-01 7.9491731537627377e+00 1.6790750799530620e+01 -3 0 -3
121 1 1.6060295315341300e-01 4.7028420945596929e+00 7.1124312011507005e+00 0 0 1
429 2 -3.0815199538109528e-01 1.0346054959774034e+00 9.3612679080607608e-01 -1 0 0
240 2 1.0293943431620443e+01 4.3957672911104728e+00 6.5645661774033304e+00 1 0 2
646 1 -3.6130268349546113e+00 -1.4405219139361169e-01 1.1012779911657299e+01 -1 0 0
848 2 6.6876042085618037e+00 8.5626238468414364e+00 1.2673632454167363e+01 0 0 0
101 2 -1.6653772056174221e+00 4.6660436409905115e-01 5.8726283921054891e+00 -1 0 0
106 1 3.3496289413533784e+00 7.2500409208573284e+00 1.9925658380402955e+00 -4 0 -2
443 2 2.8980526908335307e+00 8.8150743762382309e+00 1.0262116928404858e+01 4 0 2
173 2 1.2739003150355359e+01 8.8435300699059205e-01 1.4068363205524999e+01 -2 0 -1
830 2 1.0909062925415338e+01 1.0365296209027406e+01 1.3488961897598561e+01 -2 0 -2
349 1 8.7948084518444993e+00 8.9470626406775029e+00 8.3306876748411618e+00 1 0 3
658 1 5.7604696530627191e+00 3.6762487389314824e+00 1.7089754825815948e+01 1 0 -1
750 2 8.9344601605601284e+00 2.4543449686445333e+00 1.3810506444725556e+01 -1 0 2
507 2 -3.3535955527066856e+00 1.0085292926660010e+01 1.7897452364159186e+01 -3 0 -3
385 1 -1.8151809341739149e+00 -1.1786097111517679e-02 1.4017198658716742e+01 -2 0 -2
547 1 8.5947701322019956e+00 2.7369993533647712e+00 1.5188687783749589e+01 -4 0 -4
221 2 1.4662866477657365e+01 1.6053688796755425e+00 3.6105906267621019e-01 -2 0 -2
1464 2 -6.1256104209748274e-01 9.5615209018724450e+00 8.6712056920545439e+00 -1 1 1
377 2 9.2743829262475241e-01 7.3309387069110556e+00 8.6459989565951538e+00 -6 0 -4
980 2 1.3298016342768221e+01 2.4941013405978141e+00 7.9587398252377843e+00 0 0 1
490 1 1.0003468373406303e+01 3.4704695313234568e+00 4.8720481283322545e+00 4 0 3
334 1 -8.5029677126086445e-01 6.0177535865825789e+00 5.1289356158522015e+00 0 0 2
526 1 1.5178341852475175e-01 8.4226013551619250e+00 6.1343186801272811e+00 -2 0 1
310 1 1.3700739437581142e+01 2.6500547114447395e+00 3.9088646571678884e+00 -2 0 -2
896 2 -3.6438116320625795e+00 8.7581691945631057e+00 1.2992985818948522e+01 0 0 1
491 2 1.0423125176334798e+01 4.0593523033816652e+00 4.2614940169474087e+00 4 0 3
1547 2 1.1075870371126497e+01 5.3762436281621921e+00 1.0394339712186998e+01 -2 0 0
670 1 7.5951631661370325e+00 8.7340031043512258e+00 1.8959348975284758e+01 -4 0 -2
216 2 9.8342828767565338e-01 6.1790165953872229e+00 2.6892934762374590e+00 1 0 -3
751 1 8.5973757777490274e+00 5.3075348729588159e+00 2.2297604498502879e+00 2 0 3
1870 1 -2.5812243207885333e+00 1.8023363306367770e+00 1.5933737467594758e+01 -1 1 2
444 2 2.8242818024494398e+00 9.2862449731005885e+00 8.7315126968067709e+00 4 0 2
376 1 1.7044585543839679e+00 6.7759588237661257e+00 8.6067721971731466e+00 -6 0 -4
1674 2 1.1539418442981431e+01 1.0104404020773600e+01 8.4330872420407932e+00 0 0 0
704 2 6.6103804191380862e+00 8.9631067004494214e-01 1.0835327125326687e+01 0 0 0
344 2 1.1912115856661311e+01 4.2719920335872832e+00 2.2974831947834407e+00 -5 0 1
1378 1 1.5837423418354684e+00 4.9793452704055507e+00 1.6337107276580042e+01 1 1 2
72 2 1.3408023243642836e+01 8.2391683088968755e+00 1.0955372799356411e+01 -1 0 0
976 1 -2.0433789177039028e+00 6.5634918789920675e+00 9.6654109696780637e+00 -2 0 0
527 2 -2.3954266144258640e-01 7.5594865852806414e+00 5.8964267316566010e+00 -2 0 1
607 1 1.0943003443144695e+01 -2.5355863389849742e-01 9.9412818974110593e+00 -2 0 1
963 2 1.7791366537169804e+00 4.5390027160134547e+00 1.4636111026933605e+01 -2 0 0
1000 1 2.5736316595208977e+00 8.8046831218296706e+00 4.8466749954143049e+00 -2 0 1
938 2 -1.3366435487123107e+00 1.0035411286319775e+01 1.6107673847479330e+01 2 0 3
1150 1 6.8985563381829405e+00 6.1044698363115364e+00 1.8551364981729058e+01 -1 0 0
1457 2 5.2858112726852831e+00 2.2638821407536791e+00 7.9643102282398912e+00 1 1 0
745 1 1.2076270081080176e+01 1.0786364219225106e+01 1.7148289818487370e+00 -3 0 0
1410 2 1.0411364202795717e+01 6.3308879261722169e+00 1.4880064439936367e+01 0 1 -1
23 2 9.5949041847481773e+00 8.1983216445433094e+00 1.8541135990775846e+01 -4 0 -1
1872 2 -3.5461651288422384e+00 1.9435728868543265e+00 1.5890916304383165e+01 -1 1 2
638 2 1.4576822883803507e+01 6.7398783914287419e+00 3.6813771663438475e+00 -2 0 -2
333 2 -5.3751482176673959e-01 9.8452646866271643e+00 5.2277157350908841e+00 -1 0 -3
350 2 8.5027647311131922e+00 9.7890293923602592e+00 8.0701977480168114e+00 1 0 3
273 2 4.8981885871388151e+00 1.1177487779895712e+00 2.4012160623305490e+00 0 0 -2
1462 1 -3.1036696427293631e-01 8.6401235462531520e+00 8.8275333864574126e+00 -1 1 1
49 1 6.3253783163781474e+00 9.8435995186282437e+00 6.8318288688489073e+00 0 0 0
395 2 9.3319808103294193e+00 2.6670161901610401e-01 5.0567065694790214e+00 -1 0 -2
845 2 -2.3166781300301400e+00 4.8216393696845365e+00 1.8370631292672876e+01 2 0 1
352 1 -7.4801200559217929e-01 8.9853951690291609e+00 2.4373576079837469e+00 1 0 1
1895 2 1.2619333922710297e+01 2.7216201312531867e+00 9.6321262367788862e-01 -4 1 1
1405 1 5.9996998956514842e+00 4.1210230208995116e+00 1.2583958337193627e+01 2 1 0
1043 2 1.4349332019677981e+01 5.2273673049027485e+00 6.9383966210644141e+00 0 0 0
1618 1 1.4471078982841423e+01 2.4298789395832396e+00 9.2391663621824414e+00 0 0 1
120 2 7.7688782677463797e+00 6.1737830836134644e-01 1.7744090806518976e+01 -1 0 -3
40 1 3.3995286960682003e-01 9.9983076539498708e+00 2.0865223636619071e-04 0 0 5
1546 1 1.1118334224090464e+01 6.0259653981623362e+00 9.6912643119087925e+00 -2 0 0
1113 2 3.5641807475893224e+00 8.2513254446370095e+00 1.2314650929938958e+01 0 0 0
964 1 1.4958699997751758e+01 4.7570316927972680e+00 1.4302036309832638e+00 -2 0 0
174 2 1.1786976724375277e+01 4.0804463533429702e-01 1.2919505193104666e+01 -2 0 -1
570 2 1.3185760872298546e+00 8.7817925552070086e+00 1.1887366239296714e+01 0 0 2
606 2 -2.3592001227884869e+00 4.0213096750895874e+00 1.4074906027027668e+01 0 0 1
1379 2 6.9795211893039522e-01 5.4283171398665031e+00 1.6478892134325758e+01 1 1 2
2000 2 -4.7359795880332527e+00 7.1026977306736754e+00 1.5982644964693028e+01 0 1 0
953 2 -4.0609834533120015e+00 7.9912478218452154e+00 1.8064039001514725e+01 0 0 1
103 1 9.2297157901366287e+00 2.9696866743042412e+00 1.0689409168917587e+00 -2 0 0
1492 1 -8.4342084124817873e-01 2.1436170670165922e+00 1.8267830192988768e+01 0 1 -1
576 2 4.8516444429027832e+00 7.7717595766581891e+00 3.2900462546683351e+00 0 0 0
1152 2 7.1660877628853275e+00 7.0030709469711026e+00 1.8782510826665163e+01 -1 0 0
631 1 1.0905747463876130e+01 1.0285563398689733e+01 4.0939414112219970e+00 -2 0 -1
955 1 1.2480630307897680e+01 7.5718025144365741e-01 5.3029950194401927e+00 -3 0 -3
991 1 4.5564516818146057e+00 5.3744200221863259e-01 9.6943569514303485e-01 1 0 2
671 2 7.2764286404800771e+00 9.3036688780775805e+00 1.8127943464846823e+01 -4 0 -2
705 2 7.5297824543469796e+00 2.1535618527451943e+00 1.0715548196134431e+01 0 0 0
516 2 7.0992129925691305e-01 5.7410853998308182e+00 1.1824791182805736e+01 -1 0 -1
1676 2 1.0131670258247048e+01 2.9032207135772108e+00 9.6526242826457711e+00 -1 0 1
967 1 1.2418767468048271e+01 7.2426102352216386e+00 2.9754652861071809e+00 -4 0 2
1393 1 1.1034769229043949e+01 8.5702180039018589e+00 1.2729497008588794e+01 -1 1 0
1635 2 1.2696180781340855e+01 8.2707909156614328e+00 9.0193153857289783e+00 -1 0 0
269 2 7.0988388764308130e+00 7.8384561477289942e+00 8.5237991631284391e+00 1 0 0
832 1 7.9754105972750011e+00 5.9136954893664582e+00 1.2253899155097708e+01 -3 0 0
245 2 -2.2822307156497812e-01 2.6446421213303215e+00 2.0898042284171270e+00 -2 0 -3
112 1 1.3518559356184996e+01 3.0033554847646866e+00 1.1655324154789735e+01 -1 0 2
1856 2 1.5723020514028830e+01 -3.9644583806236877e-01 2.5603935570780236e+00 0 1 -1
203 2 1.9210599286947274e+00 2.0298219656625762e+00 8.3412596807436135e+00 -4 0 1
1672 1 1.1260841342016223e+01 9.7202070483017593e+00 9.2828755805812566e+00 0 0 0
1862 2 5.6160531978005483e+00 8.8846551085394712e+00 1.0924223457643929e+00 0 1 2
1429 1 8.9764209022114620e+00 6.9316368503311265e+00 1.5843810337330259e+01 -1 1 1
811 1 -1.8262208749335269e+00 2.8651710396603951e+00 5.2646276445873070e+00 -2 0 0
1917 2 5.6993485274485201e+00 5.4965336833544844e+00 7.9921137372683393e-01 -2 1 2
978 2 -1.7020634535555907e+00 6.4373608749903966e+00 1.0609571827241345e+01 -2 0 0
833 2 8.2871940077252582e+00 6.0478132824299609e+00 1.3169118464849916e+01 -3 0 0
1868 2 -5.4847695404862513e+00 1.0410335127160801e+00 1.6408876120249079e+01 0 1 0
508 1 5.8794050548529402e+00 1.0126809486408851e+01 9.5673852596322302e+00 0 0 -1
960 2 1.8567887889482204e+00 9.7807358992407742e+00 1.4830712331729561e+01 1 0 -1
22 1 1.0249976145319124e+01 7.6115149998353395e+00 1.8034731661885083e+01 -4 0 -1
854 2 4.2685195688927173e+00 4.0974432818887756e+00 5.4261746099525796e+00 -3 0 -2
582 2 6.9300728881728659e+00 1.8084190924471977e-01 1.4620620923047957e+01 -1 0 2
637 1 1.4699232204640376e+01 5.7949361356616240e+00 3.8398292652867800e+00 -2 0 -2
514 1 1.7069875451465633e+00 5.6359658876392773e+00 1.1595494332785952e+01 -1 0 -1
1079 2 1.3892337082304051e+01 9.6665223882559062e+00 1.1191824678876726e+01 -1 1 0
1916 2 5.9275478876132768e+00 6.8634643749853348e+00 1.6246103805523726e+00 -1 1 2
239 2 9.2633746331541786e+00 4.6569612608896298e+00 7.7014685818923336e+00 1 0 2
909 2 -7.7234174497656172e-01 4.0735367174304682e-01 8.3925390916493861e+00 0 0 -1
114 2 1.3405299437400702e+01 2.1365059925331611e+00 1.2114819370572704e+01 -1 0 2
1561 1 -8.3444672708020118e-01 5.8195626267725915e+00 1.2019984519811590e+01 0 0 0
970 1 2.3149593839302454e+00 -7.8407091334391965e-01 8.8596934614861986e+00 0 0 0
952 1 -4.1239821997130850e+00 8.6009096556348972e+00 1.8836193235328214e+01 0 0 1
753 2 8.4744171585050587e+00 5.2718502354179719e+00 3.2065187598588345e+00 2 0 3
1039 1 5.3670351616534999e+00 -6.7922185170029892e-01 5.1163327148625877e+00 -2 0 -2
246 2 -5.4367245791988827e-01 3.0955697230915922e+00 3.7146461381856124e+00 -2 0 -3
1857 2 1.4714269794555349e+01 -2.7410905805096419e-03 3.7742359241496404e+00 0 1 -1
979 1 1.2596162296166804e+01 2.6210706847738945e+00 7.2854926142491685e+00 0 0 1
268 1 6.4139781164202816e+00 7.1685517193246504e+00 8.5841881287599833e+00 1 0 -1
66 2 7.1444912942068024e+00 5.5310521325451125e+00 8.3437314013940096e+00 1 0 -3
382 1 4.7010137706719481e+00 -9.0014833317236631e-01 1.6891080007753196e+01 -2 0 -1
1620 2 1.3956610717307932e+01 2.5666951932010322e+00 1.0045951011379488e+01 0 0 0
52 1 1.7037936618426194e+01 5.0271248435423690e+00 8.6773485181905710e-02 2 0 1
765 2 5.0707839615873418e+00 -1.3649273440444210e-01 6.7958009246034914e+00 -3 0 -2
1877 2 -2.4492898605098290e-02 7.9597200224294671e+00 1.4529728261984685e+01 0 1 -1
337 1 1.0994349807919232e+01 -2.5423297499058140e-01 1.6998121766119581e+01 -2 0 -3
172 1 1.2623547568729510e+01 8.5592973261972927e-01 1.3090406768888318e+01 -2 0 -1
336 2 1.6276468921622389e+01 5.7654474780675198e+00 4.5514654025892325e+00 -1 0 1
108 2 2.6183268898150982e+00 7.0214364292594498e+00 2.6208486506132425e+00 -4 0 -2
133 1 -9.8577917738828669e-01 1.1766755060228151e+00 1.1505782864143177e+01 1 0 -1
1003 1 8.0446106825681696e+00 9.4228285560464915e+00 1.4414975167751525e+01 -2 0 -1
477 2 8.1403212390158011e+00 1.9971272243217353e-01 9.3132234237077132e+00 0 0 2
823 1 2.6749706730352241e+00 1.0575758227824196e+01 2.3624437233796369e+00 1 0 2
272 2 5.0795482515041517e+00 7.2337998096790046e-01 3.9006112445885726e+00 0 0 -3
969 2 1.1536465517801954e+01 7.5229266149346223e+00 2.5871794482622374e+00 -4 0 2
399 2 6.1233474212913759e+00 3.2496840865880579e+00 1.2975512571482353e+01 2 0 0