LAMMPS data file via write_data, version 3 Mar 2020, timestep = 1000000

1008 atoms
2 atom types

2.4208787873152104e-01 1.8157467121263874e+01 xlo xhi
6.2147059538780525e-02 2.2508241940453015e+01 ylo yhi
2.1148352376309987e-01 1.9294232476228252e+01 zlo zhi
2.1793463085947040e-02 -6.6965778400930338e+00 -8.4578773807063468e-02 xy xz yz

Masses

1 16
2 2

Atoms # atomic

1 1 6.5741726524359843e+00 1.1604651283397562e+00 4.9742762298813643e+00 0 0 0
156 2 1.1796917861360065e+01 8.0454837800978052e-01 1.9721729298366029e+00 0 0 0
3 2 6.4436568570084596e+00 1.3615238044827638e+00 4.0231266279268789e+00 0 0 0
4 1 3.5870905934232979e+00 1.0305723848477981e+00 5.1045965929518893e+00 0 0 0
5 2 4.5992233852575808e+00 9.6451437597387379e-01 5.1309780538587368e+00 0 0 0
6 2 3.4471233337964882e+00 1.4789605864083726e+00 5.9440149526575201e+00 0 0 0
7 1 -6.4091615880710129e-01 6.6102571978411202e+00 4.9112502734232981e+00 0 0 0
8 2 -4.9116787433978204e-01 6.2331177655042103e+00 5.7659849737450513e+00 0 0 0
9 2 -1.4106228894289274e+00 7.2254939971079502e+00 5.0293069714875180e+00 0 0 0
10 1 2.4967976486116878e+00 6.4948776099946359e+00 4.6135582491700031e+00 0 0 0
11 2 1.6365261477167932e+00 6.9901282181886142e+00 4.5731440853366179e+00 0 0 0
12 2 3.2665202591801403e+00 7.1116170672680257e+00 4.7879748925796610e+00 0 0 0
224 2 -3.3733730183791288e-01 1.1263655307352366e+01 3.8360010443011188e+00 0 0 0
14 2 4.9605381988471713e+00 4.6214781911112430e+00 8.8581901943722769e+00 0 0 0
103 1 9.9993276604822086e+00 2.8535224799576286e+00 4.0575100357067068e-01 0 0 0
305 2 1.2263480745174446e+01 1.1228749278619897e+01 3.0950061591477782e+00 0 0 0
18 2 5.3410512728920718e+00 5.1866466696578293e+00 9.1795392808515885e-01 0 0 0
152 2 7.2635438566015065e+00 8.9277168737564105e-01 7.8494587894113508e+00 0 0 0
585 2 3.9313842427753580e+00 1.7654732207963932e+00 8.8834430011531111e+00 0 0 0
21 2 1.1013724689356268e+00 2.3825301676838126e+00 1.1335452965598112e+00 0 0 0
99 2 1.2852199450878995e+01 4.8024519603725286e+00 9.6845497541688612e+00 0 0 0
84 2 2.6400573570468242e+00 6.6093788235406175e+00 4.8460519499566057e-01 0 0 0
135 2 1.5575049890652599e+01 2.7791147213035390e+00 5.9442112692339641e+00 0 0 0
25 1 4.8964465566077280e+00 6.0033483644397654e+00 7.2847151449270404e+00 0 0 0
26 2 5.2537256096253717e+00 6.8497422045915783e+00 7.5814052874330073e+00 0 0 0
27 2 3.9534750582774212e+00 6.2083520204164522e+00 7.3161589572620374e+00 0 0 0
28 1 5.5008488148027741e+00 6.4218894193461411e+00 2.1950348961539174e+00 0 0 0
29 2 5.5070812853083844e+00 6.1405473684296075e+00 3.1739345393459089e+00 0 0 0
30 2 4.7091386270778903e+00 6.9724588716189162e+00 2.1375751667536895e+00 0 0 0
31 1 1.2476771913034463e+00 1.5424097482880126e+00 2.8916102830707775e+00 0 0 0
32 2 2.2147606478251669e+00 1.5157284509249083e+00 2.9316272794635876e+00 0 0 0
33 2 9.2004602782953926e-01 1.9252823710664082e+00 3.7580905313239206e+00 0 0 0
34 1 6.7064527106552285e-01 1.1353341609615457e+00 7.3502731154432732e+00 0 0 0
482 2 -1.0031753824700301e-01 1.1137182124066895e-01 2.4390878955571815e+00 0 0 0
36 2 5.8804219871283658e-01 1.7364827541026377e+00 8.1191477935009324e+00 0 0 0
37 1 6.1340503876722501e+00 2.5542218034915551e+00 2.4534332850574936e+00 0 0 0
38 2 5.3139593632330460e+00 3.0838729549641686e+00 2.6337409112416403e+00 0 0 0
39 2 6.9239621975733838e+00 3.0934644786277112e+00 2.7272290570556268e+00 0 0 0
40 1 4.0156209674903076e+00 2.6170912823804682e+00 7.3403491967560690e+00 0 0 0
41 2 4.9385974110587210e+00 3.0489688398460522e+00 7.2401627560387132e+00 0 0 0
42 2 3.4626920756345601e+00 3.4143353352577299e+00 7.0921531361559573e+00 0 0 0
43 1 -1.1418366492962129e-01 4.9500647464601073e+00 7.0657070499256651e+00 0 0 0
44 2 -9.5602358937808574e-01 4.3953345127797396e+00 6.8433084553239034e+00 0 0 0
45 2 -3.0632000289461292e-01 5.2776155938905429e+00 7.9806413738930955e+00 0 0 0
46 1 1.8501461070205103e+00 4.9151903733008284e+00 2.4450743196863578e+00 0 0 0
47 2 9.7977553068830248e-01 4.6968876122648302e+00 2.8322232203754210e+00 0 0 0
48 2 2.1236805971668882e+00 5.8015600569213372e+00 2.6908860924790381e+00 0 0 0
49 1 6.6080181949452985e+00 3.3785462751396103e+00 6.7232379676085152e+00 0 0 0
50 2 6.3858171324673876e+00 4.0733570138159161e+00 6.0898408931875103e+00 0 0 0
51 2 6.8100069935658212e+00 2.6303976931045536e+00 6.0731425158661434e+00 0 0 0
52 1 3.7758752057186262e+00 3.6939086676240009e+00 3.5546334664144768e+00 0 0 0
53 2 2.9714560983384963e+00 4.0155536499691191e+00 3.0866454077129353e+00 0 0 0
54 2 3.5940200538053078e+00 2.9448657614786700e+00 4.1297990278437764e+00 0 0 0
55 1 -6.1524340982117232e-01 4.3864571221260320e+00 3.5230879408407771e+00 0 0 0
56 2 -9.1875587208453746e-01 5.2501540161719067e+00 3.8789105687215581e+00 0 0 0
57 2 -4.5691089512118810e-01 3.8358595036162897e+00 4.3110331568283575e+00 0 0 0
58 1 2.3420600405809822e+00 4.4642530112700811e+00 6.4445412674962537e+00 0 0 0
59 2 2.3504497902927328e+00 5.2300152440251209e+00 5.8714265415830678e+00 0 0 0
60 2 1.4841166172655651e+00 4.6775453306937118e+00 6.8850984020833650e+00 0 0 0
61 1 8.2393058448250986e+00 7.2634589559705844e+00 1.5119337037935059e+00 0 0 0
62 2 7.4057253996324661e+00 6.9312657732910381e+00 1.8635334304330351e+00 0 0 0
63 2 8.6084052686719499e+00 6.5274691373659781e+00 9.8841936308933298e-01 0 0 0
64 1 2.1654108532419527e+00 7.1761281457689625e+00 8.2538175598958148e+00 0 0 0
65 2 1.4366605094720248e+00 7.6288691089559784e+00 7.6830621848793932e+00 0 0 0
66 2 2.6521885458742318e+00 7.9327124330479117e+00 8.6434699540285482e+00 0 0 0
97 1 1.3760173278533335e+01 4.9925224104347352e+00 9.3046038128120081e+00 0 0 0
68 2 -2.2720364151566086e+00 1.3224300340324706e+00 8.5863316594647472e+00 0 0 0
167 2 1.1066467524878776e+01 5.8377297652365190e+00 9.6730375701935134e-01 0 0 0
72 2 4.0425767149296572e+00 1.2811136951441291e+00 1.2325020334973698e+00 0 0 0
73 1 5.6008231644895030e+00 5.4223080498697342e+00 4.7203301070707919e+00 0 0 0
74 2 5.1743197840416935e+00 5.9667181928495827e+00 5.4107141181937788e+00 0 0 0
75 2 4.8917831306003290e+00 4.9076192631687343e+00 4.2527749427163943e+00 0 0 0
76 1 8.7235094598031360e-01 2.7423507329132737e+00 5.1028396831281739e+00 0 0 0
77 2 6.8540380962538650e-01 2.1014394529134104e+00 5.8371070169154109e+00 0 0 0
78 2 1.3565425283104160e+00 3.3165190755244756e+00 5.6693313091033257e+00 0 0 0
80 2 6.5263132005166913e+00 2.0291431465833139e+00 7.3936967001990050e-01 0 0 0
218 2 7.7703611332201845e+00 1.1196318706505549e+01 6.7457153354408499e+00 0 0 0
521 2 2.0681727538454329e+00 5.4896641190045710e+00 9.0911170391665532e+00 0 0 0
85 1 1.5278467285203265e+01 9.7681635223444729e-01 4.9645790574693445e+00 0 0 0
87 2 1.5365096240676474e+01 1.2382426978216881e+00 4.0254829847278319e+00 0 0 0
88 1 1.2440157948783387e+01 1.3303454328608579e+00 5.1180940520172600e+00 0 0 0
89 2 1.2283257784566713e+01 2.1428986276223765e+00 4.6216098440436699e+00 0 0 0
90 2 1.3388139149466408e+01 1.1145193854274427e+00 4.9611735464284470e+00 0 0 0
91 1 8.2681204078277855e+00 6.2142092158342930e+00 5.2013958223946144e+00 0 0 0
92 2 8.0611086702484851e+00 5.6028739104055685e+00 4.3866024667121799e+00 0 0 0
93 2 9.1140793727254579e+00 6.6146940691328986e+00 4.8701205131534842e+00 0 0 0
94 1 1.1018423758509485e+01 6.4342365272295385e+00 4.7109039006065503e+00 0 0 0
95 2 1.1714584705992021e+01 7.1987552458683073e+00 4.7110342565706294e+00 0 0 0
96 2 1.1401443346048392e+01 5.8345454424550951e+00 5.4027245515001878e+00 0 0 0
70 1 3.7353719391698434e+00 6.3335569547785686e-01 1.9357446011609885e+00 0 0 0
584 2 3.0613688884754691e+00 5.7578782644221049e-01 9.4353811709260516e+00 0 0 0
133 1 1.5513179183076675e+01 3.6697102901586880e+00 6.4166688988604248e+00 0 0 0
101 2 1.4423320936965959e+01 5.0954327846540499e+00 1.2307595705027199e+00 0 0 0
301 1 1.5694420926919310e+01 1.0604047469228785e+01 6.4617172830404677e+00 0 0 0
220 1 3.9185583462291147e+00 1.0602882490664282e+01 3.3083132865833766e+00 0 0 0
401 2 1.6542990957068269e+00 4.7613866382566372e-02 8.0787470332963878e+00 0 0 0
668 2 1.2462925046100647e+01 1.7727389865409977e+00 9.3676563850689352e+00 0 0 0
109 1 1.3604064594365806e+01 6.6982353010870446e+00 7.0600805742610984e+00 0 0 0
110 2 1.3605668893110513e+01 5.9428463854873321e+00 7.7070024695192547e+00 0 0 0
111 2 1.2717544424764201e+01 7.0327113669419115e+00 7.0849368543058704e+00 0 0 0
112 1 1.4791727782375194e+01 6.2824919800733445e+00 2.3426900343998716e+00 0 0 0
113 2 1.4232552959753621e+01 7.0437258225177590e+00 2.1018353867309689e+00 0 0 0
114 2 1.5680145475440355e+01 6.5020118219747269e+00 2.0592588800784495e+00 0 0 0
115 1 1.0330728952481332e+01 1.4702422805460256e+00 2.6583662011156375e+00 0 0 0
116 2 1.0198695848730342e+01 2.1658737089371227e+00 1.9551626027735722e+00 0 0 0
290 2 1.5864577252157801e+01 1.0596404082509356e+01 2.6534629180802991e+00 0 0 0
118 1 9.0623651540618297e+00 1.4080560893602549e+00 7.4489243367247138e+00 0 0 0
119 2 9.3546937612223964e+00 1.9951917762858558e+00 8.1378453209581707e+00 0 0 0
120 2 9.2884782640905481e+00 1.7976529756972848e+00 6.5852574266175994e+00 0 0 0
121 1 1.5536277572585588e+01 2.3382402613660513e+00 2.6315222184586151e+00 0 0 0
122 2 1.5995291039562966e+01 3.1581521351900141e+00 2.7267338445023688e+00 0 0 0
123 2 1.5728492625730778e+01 2.0591507699782312e+00 1.7320420034065951e+00 0 0 0
124 1 1.3181053310827199e+01 2.5524645029977973e+00 7.6515731687263076e+00 0 0 0
125 2 1.4043503581622094e+01 3.0551995780014929e+00 7.5766812537662700e+00 0 0 0
126 2 1.3243319939932128e+01 1.8305131293693524e+00 6.9697412034130313e+00 0 0 0
127 1 8.7316716083238841e+00 5.0123851148701819e+00 7.6289023212146940e+00 0 0 0
128 2 8.0874983886770444e+00 4.3117694371019031e+00 7.4401468431659659e+00 0 0 0
129 2 8.4694536314303868e+00 5.6148967752880683e+00 6.9103365452329628e+00 0 0 0
130 1 1.0573700832691529e+01 5.0396349952138628e+00 2.6165869731193152e+00 0 0 0
131 2 1.1205438716317861e+01 4.3475237442641843e+00 2.7735665227022390e+00 0 0 0
132 2 1.0935960253616798e+01 5.7287961049467802e+00 3.2317905802850970e+00 0 0 0
134 2 1.5250999245969638e+01 4.2793940593911319e+00 5.7027431658142325e+00 0 0 0
136 1 1.2838035458181562e+01 3.5146876555710991e+00 3.2191595055560276e+00 0 0 0
137 2 1.2960917585208335e+01 4.1930791245601799e+00 3.9503499214502606e+00 0 0 0
138 2 1.3760351775744963e+01 3.1450639152692497e+00 3.0511920000265840e+00 0 0 0
139 1 8.2520314397971912e+00 4.1647693802230394e+00 3.1239319743605147e+00 0 0 0
140 2 9.0888451754466359e+00 4.5384345195027658e+00 2.7393509269285077e+00 0 0 0
141 2 8.6491179048999172e+00 3.4926432119884629e+00 3.7330291876010087e+00 0 0 0
142 1 1.1432302592651553e+01 4.1986269089305210e+00 6.4985811291806757e+00 0 0 0
143 2 1.1995752275668796e+01 3.6015722157409642e+00 7.0588921407639900e+00 0 0 0
144 2 1.0697444792572146e+01 4.5510762965951974e+00 7.1079573564844072e+00 0 0 0
147 2 1.6925163361111956e+01 7.5549914476069997e+00 1.0958878113163966e+00 0 0 0
148 1 1.1030891612619451e+01 7.2003709816396881e+00 8.0699033635492547e+00 0 0 0
149 2 1.1054439826525686e+01 6.3312919803502874e+00 8.5383226622387944e+00 0 0 0
150 2 1.1361483314504188e+01 7.7225481951275317e+00 8.8260144556336204e+00 0 0 0
399 2 7.9188340484663486e+00 4.1795939032657226e-01 1.1029529330911259e+00 0 0 0
302 2 1.4974587921895070e+01 1.0340041228994281e+01 7.0372911712808328e+00 0 0 0
153 2 6.2029205237524856e+00 1.0207173883928753e+00 8.9130048578800327e+00 0 0 0
248 2 7.7812272804108948e+00 8.3809361213064779e+00 3.3379645485469978e-01 0 0 0
155 2 1.2958236532641404e+01 1.4263012802750150e+00 1.2851056089184367e+00 0 0 0
117 2 9.4909562766145736e+00 9.3144312857225198e-01 2.5950849948280093e+00 0 0 0
157 1 1.4115931132352648e+01 5.3815158707625139e+00 4.7210976363698922e+00 0 0 0
158 2 1.4528914891059143e+01 5.8814972191197770e+00 3.9841050874398349e+00 0 0 0
159 2 1.4022062066498057e+01 6.0631118395403512e+00 5.3823477323864601e+00 0 0 0
160 1 9.6293564679823405e+00 2.5865834537490513e+00 4.9432230404767941e+00 0 0 0
161 2 1.0148103404049607e+01 3.2630806115166022e+00 5.3633906411725132e+00 0 0 0
162 2 1.0097782812262615e+01 2.1483773555527228e+00 4.1818178886060613e+00 0 0 0
237 2 1.4737608482721042e+01 7.5982553216137632e+00 7.7733706164359271e+00 0 0 0
2 2 7.2992766793789450e+00 5.0104913845764965e-01 4.9759660176182816e+00 0 0 0
151 1 6.5800249273210252e+00 3.6290372230866563e-01 8.3046647405457925e+00 0 0 0
169 1 6.9007465153346637e+00 8.5950865796829898e+00 4.7088323577320068e+00 0 0 0
170 2 7.4402319913934658e+00 7.7787409874830162e+00 4.8647960647294797e+00 0 0 0
171 2 6.9838324490458232e+00 9.1669372604803563e+00 5.5179488743349294e+00 0 0 0
172 1 4.2179297386876211e+00 8.3633616472451280e+00 5.0218656053518602e+00 0 0 0
173 2 3.9188991293328197e+00 9.0664906469160673e+00 4.3693288028532491e+00 0 0 0
174 2 5.2609802745465206e+00 8.3865513739203177e+00 4.8533126453570299e+00 0 0 0
165 2 1.6576300018555795e+01 5.8520566552633202e-01 6.5648709256069981e-01 0 0 0
67 1 -1.8751578700052232e+00 5.6004572479862635e-01 8.1569039427074941e+00 0 0 0
671 2 8.4869994823653840e+00 6.0844705131450869e+00 9.0345875030331850e+00 0 0 0
192 2 4.4473568183203271e-01 9.9467688490049557e+00 8.8148003120380451e+00 0 0 0
199 1 8.1853179083393601e-01 9.0366765561423321e+00 2.6870073166916466e+00 0 0 0
200 2 9.5163225465451762e-01 9.7011283767473451e+00 1.9382732195885533e+00 0 0 0
201 2 2.8297536394051892e-01 8.3324461907197289e+00 2.2494977363971391e+00 0 0 0
202 1 3.9237900452051111e-02 8.7320346522717465e+00 7.3758203032781520e+00 0 0 0
203 2 -8.4308416214974558e-01 8.3300187543706929e+00 7.5254320342539307e+00 0 0 0
204 2 4.9547431103411199e-02 9.2612110433693022e+00 6.5151291215695997e+00 0 0 0
205 1 6.3559400860392170e+00 9.8597548634207133e+00 2.3523226901851322e+00 0 0 0
206 2 6.7931047332761469e+00 9.1584140924393207e+00 2.8523740440149115e+00 0 0 0
207 2 6.5294271008283999e+00 9.5377536574086808e+00 1.4171553869725291e+00 0 0 0
208 1 4.2187570905427645e+00 9.9076657116940705e+00 7.2947884485928141e+00 0 0 0
69 2 1.5376059652264338e+01 1.4646060605063421e-01 7.5543101811605355e+00 0 0 0
210 2 4.4098632133884870e+00 9.3287669252766143e+00 6.5220700020784754e+00 0 0 0
583 1 3.9296389735932133e+00 1.1340170261715683e+00 9.6427100470070197e+00 0 0 0
187 1 1.0804510184078233e+00 1.0435850645640043e+01 4.1843215677973589e-01 0 0 0
274 1 9.5475784175886105e+00 1.0589707941310522e+01 9.5619922373622508e+00 0 0 0
293 2 1.2617957049750984e+01 1.0656906740877533e+01 7.2840967975578179e+00 0 0 0
209 2 3.6304263651047854e+00 1.0629340763467360e+01 6.9334957826051538e+00 0 0 0
235 1 -2.4286528235942755e+00 7.9204255672734263e+00 8.3111385030819154e+00 0 0 0
236 2 -2.6284734173837521e+00 8.7616716236794723e+00 8.7589757834551722e+00 0 0 0
238 1 2.9514384429990419e+00 7.8570928938841549e+00 1.9005385958495264e+00 0 0 0
239 2 2.1555762873029352e+00 8.1922556621341354e+00 2.3976083167524425e+00 0 0 0
240 2 3.2901840076111406e+00 8.6435139275348511e+00 1.3758529869835652e+00 0 0 0
244 1 3.4452101500235233e-01 1.0357027975445989e+01 4.8918571426380559e+00 0 0 0
245 2 5.9049562750803730e-01 9.6460235704749948e+00 4.2148345515785053e+00 0 0 0
246 2 1.2117973043158627e+00 1.0778066739901961e+01 5.1284155830219698e+00 0 0 0
146 2 1.7682373059733173e+01 6.2593003120123427e+00 1.0337217560050656e+00 0 0 0
219 2 6.2198450129862355e+00 1.0518237688942218e+01 6.8992743560031498e+00 0 0 0
253 1 1.5322337189818750e+01 8.2863337637667858e+00 4.7699823833566404e+00 0 0 0
255 2 1.5388040529144604e+01 8.7742577536211162e+00 3.9922811501519613e+00 0 0 0
256 1 1.2618324149056694e+01 8.4816036854429502e+00 5.0708142734342800e+00 0 0 0
257 2 1.3574498917102510e+01 8.2874616862680028e+00 5.0843879886424892e+00 0 0 0
258 2 1.2520102800614696e+01 9.1988056695178262e+00 4.4424704248453466e+00 0 0 0
154 1 1.2727053556526149e+01 5.7737903985573036e-01 1.7510984968925278e+00 0 0 0
272 2 1.0145024168974189e+01 9.8304442868324760e+00 1.1265523783400662e+00 0 0 0
83 2 1.8742119562885189e+00 5.3712211459562571e+00 3.6812501018794475e-01 0 0 0
276 2 9.5943827142457785e+00 1.0288783414517766e+01 8.6476531085001955e+00 0 0 0
283 1 1.0492503026978079e+01 8.7359458332657365e+00 2.5042746561844433e+00 0 0 0
284 2 1.0321414562291013e+01 9.2377994749764714e+00 3.3231476313841126e+00 0 0 0
285 2 9.8033590904117069e+00 8.1210075423290977e+00 2.3679282321331065e+00 0 0 0
286 1 8.9348265507807856e+00 8.7435707940891341e+00 7.2455791943784087e+00 0 0 0
287 2 9.4098268518821779e+00 7.9282444668412140e+00 7.6106271008527600e+00 0 0 0
288 2 8.0019849764118103e+00 8.5463423676143631e+00 7.4471615647832659e+00 0 0 0
289 1 1.5287359622788001e+01 9.7737779224283070e+00 2.6581564138773484e+00 0 0 0
304 1 1.2904849020922709e+01 1.0754930275403540e+01 3.6260787150847400e+00 0 0 0
291 2 1.5479258818361851e+01 9.3080031359108393e+00 1.8371524400298593e+00 0 0 0
292 1 1.3077114572076058e+01 9.8076885015548587e+00 7.4642739905629378e+00 0 0 0
303 2 1.5312527434351079e+01 1.1221423693285621e+01 5.8251756517711319e+00 0 0 0
294 2 1.2798059745111427e+01 9.2618072958482820e+00 6.6858820604681606e+00 0 0 0
836 2 1.2638865275751987e+01 9.1432873546316795e+00 8.8407174406054061e+00 0 0 0
311 2 1.0667887248335898e+01 1.1034261117452736e+01 5.8621326831849387e+00 0 0 0
306 2 1.3700868885144168e+01 1.0440088221773335e+01 3.0907451764199774e+00 0 0 0
587 2 -1.5088612641299639e+00 6.8873690051448575e+00 9.0520863190325187e+00 0 0 0
319 1 6.4050607832693291e+00 8.0690781386104806e+00 8.2265927958188207e+00 0 0 0
320 2 6.2546712004658875e+00 8.8031703275902267e+00 8.8091424519003994e+00 0 0 0
321 2 6.8637498209036032e+00 7.3998183272510261e+00 8.8291152826366570e+00 0 0 0
322 1 1.3064552755082774e+01 8.0871574085436198e+00 1.6152513322109288e+00 0 0 0
323 2 1.2254155526163176e+01 8.1151291021888099e+00 2.1991511265694834e+00 0 0 0
324 2 1.2695843599163723e+01 7.4806239645143169e+00 8.8119208359315282e-01 0 0 0
328 1 9.8437818719270656e+00 9.8061914213847015e+00 4.7813113665516305e+00 0 0 0
329 2 9.2861674743267315e+00 9.2626720140344894e+00 5.3530836112347746e+00 0 0 0
330 2 9.2449908765302933e+00 1.0452041307237076e+01 4.2170521806532237e+00 0 0 0
222 2 3.1457919469448292e+00 1.0948549034299866e+01 2.8345947329967807e+00 0 0 0
780 2 1.2918962602080668e+01 9.6449793439905260e+00 6.2439299663728831e-01 0 0 0
753 2 4.1173739496241319e+00 9.5649447701451109e+00 9.0567296086837956e+00 0 0 0
35 2 -1.9072500561127370e-01 6.5965838479513250e-01 7.3788619798134674e+00 0 0 0
254 2 1.5437618070494583e+01 8.9234845113680059e+00 5.5257718782581815e+00 0 0 0
221 2 4.6153629577754156e+00 1.0317885800681792e+01 2.6885486354179089e+00 0 0 0
86 2 1.5733852810093053e+01 1.2251337995994312e-01 5.0424400798646127e+00 0 0 0
22 1 3.1767555701692185e-01 2.5001717010973592e+00 9.7181823901235411e+00 0 0 0
145 1 1.7337372311769759e+01 6.9420468632466843e+00 1.6750534039062503e+00 0 0 0
586 1 -7.8857255053567288e-01 6.2703934200572142e+00 9.3461400446876617e+00 0 0 0
601 1 1.7360814815811366e+01 4.7863186732144918e+00 2.6225187649251258e-01 0 0 1
100 1 1.4647071801101294e+01 4.5906515892700019e+00 3.7205138427326284e-01 0 0 0
776 2 7.5920754382651836e+00 1.0317275420043764e+01 9.5237609466774273e+00 0 0 0
217 1 6.9833037206038160e+00 1.0769897653472986e+01 6.3160293394657385e+00 0 0 0
190 1 4.3746944023541090e-01 1.0381012995671488e+01 9.7074770093430498e+00 0 0 0
486 2 1.1205720925205197e+01 2.6904480441669232e-01 8.9037173825200728e+00 0 0 0
166 1 1.1567312397607461e+01 6.2502364268559445e+00 2.3284117772291454e-01 0 0 1
602 2 1.6385517701730823e+01 4.6049636562249079e+00 3.8224559853852369e-01 0 0 0
751 1 3.6830172459646726e+00 8.9729435682068281e+00 9.6301872618247408e+00 0 0 0
189 2 2.0701613956228035e+00 1.0527083830912085e+01 3.4707012329367226e-01 0 0 0
696 2 4.3530995021360237e+00 1.0663034212594141e+01 2.8447378380750110e-01 0 0 1
835 1 1.2418592581057379e+01 8.7778323201857180e+00 9.7411097108855333e+00 0 0 0
271 1 1.0074720921831751e+01 1.0231778139208220e+01 2.2480475388755056e-01 0 0 0
19 1 9.8216397982249226e-01 2.6577618817945439e+00 2.2975490671345219e-01 0 0 0
102 2 1.4086242891999506e+01 3.8393931661923131e+00 2.7689951338642310e-01 0 0 0
507 2 3.9212980516323324e+00 4.5334230412328713e-01 1.4409440967647770e+01 0 0 0
794 2 1.2685454586246081e+01 1.0850088202856982e+01 1.2098711362926313e+01 0 0 0
191 2 7.4978896976801668e-01 9.7277221669657639e+00 1.0341201683626251e+01 0 0 0
620 2 6.4591023909542944e+00 2.9488982008435805e-01 1.2136645291240569e+01 0 0 0
658 1 9.5469085947199090e+00 2.1405117311517102e-01 1.1679190479240484e+01 0 0 0
81 2 -4.0084021370242962e-01 6.5701694938413990e-01 1.8860250376152358e+01 0 0 0
607 1 6.6555993158286189e+00 2.4296576716523020e+00 1.0133701922162215e+01 0 0 0
604 1 1.1092399229610518e+01 4.7916434838963875e+00 9.9510886996938979e+00 0 0 0
98 2 1.4113884186301632e+01 5.5808464125381034e+00 9.9827196109379237e+00 0 0 0
17 2 -1.8604652129131418e+00 3.8868045959122108e+00 1.9231923563090952e+01 0 0 -1
23 2 8.1057264932910034e-01 3.3403615453268296e+00 9.9542833907145898e+00 0 0 0
588 2 -1.0012247758282826e+00 5.7692280320667866e+00 1.0164739512613886e+01 0 0 0
273 2 4.2705817865168729e+00 1.0490038344646305e+01 1.9160580010150149e+01 0 0 0
655 1 3.2390335290714427e+00 4.3312573502775314e-01 1.8147938028332540e+01 0 0 0
692 2 -2.8852571323311844e+00 1.0953537865217585e+01 9.7815243387641875e+00 0 0 0
333 2 8.7568669583841157e+00 8.0991280604903171e+00 1.8705643964990657e+01 0 0 0
536 2 -2.5730085005251930e+00 6.2115992481138893e-01 1.2108129777582134e+01 0 0 0
823 1 3.3436263993941928e+00 7.6663704924253944e+00 1.7821191868065309e+01 0 0 0
505 1 3.2039596552221310e+00 1.1091706144770599e+00 1.4275081505871563e+01 0 0 0
506 2 3.2908042031186078e+00 1.8954537818197867e+00 1.4848686578807529e+01 0 0 0
574 1 6.0332424927626338e-01 3.5332245643264953e-01 1.1628922365784673e+01 0 0 0
508 1 3.6362231355361985e-01 1.0991915371190983e+00 1.4608138100967722e+01 0 0 0
509 2 -1.7590207490528975e-01 2.7968325552835832e-01 1.4595477027804156e+01 0 0 0
510 2 1.2055360491932827e+00 7.2270712915334423e-01 1.4357857349082048e+01 0 0 0
511 1 -4.1708482335687576e+00 6.5206973063015816e+00 1.4317176117687010e+01 0 0 0
512 2 -4.2577310131135109e+00 5.7640115698198358e+00 1.3709172609389578e+01 0 0 0
513 2 -4.1082504338681609e+00 6.0765735509889796e+00 1.5220973951173855e+01 0 0 0
514 1 -1.2265514920931060e+00 6.4116177602127919e+00 1.4241600181626318e+01 0 0 0
515 2 -1.1353852325033400e+00 5.5682747071397571e+00 1.4721447958227548e+01 0 0 0
516 2 -2.1137773896135434e+00 6.6512915201104770e+00 1.4419991029424098e+01 0 0 0
656 2 2.4621469221323435e+00 8.3073482925533002e-02 1.7756671119174516e+01 0 1 0
519 2 1.2762353503131658e+00 5.3989993421791524e+00 1.8021498169363305e+01 0 0 0
107 2 9.4555723110901795e+00 1.5536368929876101e+00 1.0430543241142251e+01 0 0 0
522 2 2.1094243651726439e+00 5.4155377290307545e+00 1.0639308872030265e+01 0 0 0
105 2 2.9365620396694805e+00 1.9694575300765935e+00 1.9008100292062380e+01 0 0 0
798 2 9.9456058007025021e+00 9.3191795531293273e+00 1.6332341255866979e+01 0 0 0
525 2 -2.3905223924334589e+00 2.5756929832386506e+00 1.0682969062922611e+01 0 0 0
797 2 1.1152025040162936e+01 1.0235811202033769e+01 1.6644011450113965e+01 0 0 0
527 2 -2.7981958716411870e+00 2.0061778722961714e+00 1.8019576790519345e+01 0 0 0
529 1 9.7269582963118406e-01 6.4778591230107390e+00 1.6426901382906294e+01 0 0 0
530 2 1.0669185073034537e+00 5.7897046635705927e+00 1.5726313868851209e+01 0 0 0
531 2 -1.3466941638687224e-02 6.5840783535938749e+00 1.6634295318650505e+01 0 0 0
532 1 2.3721617306433966e+00 6.4149954820470541e+00 1.2202451299880501e+01 0 0 0
533 2 3.3041024535045187e+00 6.7132080864236956e+00 1.2170150304543515e+01 0 0 0
534 2 2.2410882722065200e+00 5.9806290921554828e+00 1.3051281482735991e+01 0 0 0
535 1 -2.0226490240057542e+00 1.4209857176814620e+00 1.2261085821655755e+01 0 0 0
670 1 7.9731291601136167e+00 6.4461815788829009e+00 9.7585166899216436e+00 0 0 0
694 1 -3.0421706721956348e+00 9.9121093980537900e+00 1.9287590523542161e+01 0 0 0
538 1 -2.8714223868994782e+00 1.0795245439150853e+00 1.6683073747074811e+01 0 0 0
539 2 -3.7677774944861273e+00 5.5888542354862536e-01 1.6743109414590386e+01 0 0 0
540 2 -2.6879864185150462e+00 1.2285370861207492e+00 1.5723710971195002e+01 0 0 0
541 1 3.2993260448845705e+00 2.7408108189843343e+00 1.1835946590688922e+01 0 0 0
542 2 3.3111382555699853e+00 2.0589994657624140e+00 1.2570663345925821e+01 0 0 0
543 2 3.4061900910669367e+00 2.1436702361123570e+00 1.1055413056150853e+01 0 0 0
544 1 8.8939782456638916e-01 2.6171649248290811e+00 1.6779225715748559e+01 0 0 0
545 2 4.7984024371942713e-01 2.1786041833671690e+00 1.7585782606437384e+01 0 0 0
546 2 5.8709433042783399e-01 2.0701191156608982e+00 1.5999234513438541e+01 0 0 0
547 1 -3.6507695655430057e+00 5.2933166399791398e+00 1.6452038339469489e+01 0 0 0
548 2 -4.2092442700050992e+00 4.4679739049102123e+00 1.6223573279963261e+01 0 0 0
549 2 -3.9362428216654797e+00 5.5131445670547397e+00 1.7364219428400634e+01 0 0 0
550 1 -1.3236431224809699e+00 5.0398373907172553e+00 1.2007183095990998e+01 0 0 0
551 2 -6.6096658246427387e-01 4.3238951709326168e+00 1.2109254113371179e+01 0 0 0
552 2 -1.3273261587275096e+00 5.6748770756704108e+00 1.2830182538758891e+01 0 0 0
553 1 3.3674401613575951e+00 3.3528043527906557e+00 1.6128991636370603e+01 0 0 0
554 2 2.5588630469626139e+00 3.1065165585064536e+00 1.6573048543716943e+01 0 0 0
555 2 3.9884021105481118e+00 3.8171188705284367e+00 1.6768822485386870e+01 0 0 0
556 1 4.9249538172769736e-01 3.0662636780846291e+00 1.2804012926363159e+01 0 0 0
557 2 1.2977514167916198e+00 3.0784149523702351e+00 1.2264221687156727e+01 0 0 0
558 2 3.9072429020827304e-01 2.1920771702151618e+00 1.3306002183315329e+01 0 0 0
559 1 1.3826337002217496e+01 4.3123550390053831e+00 1.2554114287499639e+01 -1 0 0
560 2 -3.2145822010770013e+00 4.5112381993334303e+00 1.2137568030370938e+01 0 0 0
561 2 -3.7991283524773918e+00 3.6770150704164810e+00 1.3196567663916399e+01 0 0 0
562 1 -1.1382501739037476e+00 4.2529074230278789e+00 1.5754918909888913e+01 0 0 0
563 2 -5.3275955830021715e-01 3.7035249408459885e+00 1.6302455087235142e+01 0 0 0
564 2 -1.6845037047305835e+00 4.7407803077054531e+00 1.6410052341679407e+01 0 0 0
565 1 4.8155931444982087e+00 7.1298670498836660e+00 1.1223686749198025e+01 0 0 0
566 2 4.4619155798820689e+00 7.8248217196826086e+00 1.0599610493451520e+01 0 0 0
567 2 4.8452002072887677e+00 6.3517164746887813e+00 1.0655172231375317e+01 0 0 0
568 1 -1.5840265681767658e+00 7.0406549501058695e+00 1.7872491923861542e+01 0 0 0
569 2 -1.5276277416120765e+00 6.0417058986127419e+00 1.8175707202480744e+01 0 0 0
570 2 -1.0118712756413970e+00 7.6123099451753831e+00 1.8462134476571247e+01 0 0 0
526 1 -2.9111474305336835e+00 2.4891439832683293e+00 1.8865994682797702e+01 0 0 0
572 2 -5.8492981556366264e+00 1.1381688621497055e+00 1.8100266955811779e+01 0 0 0
807 2 1.2760564318317680e+01 1.0139094694121967e+01 1.5482335705410142e+01 0 0 0
249 2 6.7575917734136848e-01 9.1788005938280595e+00 1.8224406618725077e+01 0 0 0
576 2 6.5935170133425336e-01 1.1761543904861171e+00 1.1150475886026362e+01 0 0 0
577 1 1.7173933024126953e+00 4.7836489459937237e+00 1.4533094092780834e+01 0 0 0
578 2 1.2392656888055047e+00 4.1995365500076405e+00 1.3933964963755686e+01 0 0 0
579 2 2.3162444001309765e+00 4.2310137187940153e+00 1.5089377039656130e+01 0 0 0
580 1 -2.7998529325356549e+00 2.4828599408726495e+00 1.4509694699843291e+01 0 0 0
581 2 -2.3293859382323161e+00 2.0876853863882197e+00 1.3755234833378632e+01 0 0 0
582 2 -2.1547987074324708e+00 3.1810531887454907e+00 1.4839642891991176e+01 0 0 0
837 2 1.2454270950830521e+01 9.4621901251545086e+00 1.0506095452734607e+01 0 0 0
608 2 6.0959015523697069e+00 3.2535289656894157e+00 1.0223712698643363e+01 0 0 0
589 1 1.2144540414800655e+01 1.0053870906394469e+00 1.4487446636497804e+01 0 0 0
590 2 1.1247380986206270e+01 7.9344876459599689e-01 1.4618189085826879e+01 0 0 0
591 2 1.2260089380656265e+01 1.8387818766741593e+00 1.4987502511033478e+01 0 0 0
592 1 9.4811991219833658e+00 1.2570662564372828e+00 1.4967723258237420e+01 0 0 0
275 2 9.5518267618281012e+00 9.7059299843156239e+00 1.0082886412405772e+01 0 0 0
594 2 9.1898868428462404e+00 1.9136646919821536e+00 1.4265207872700113e+01 0 0 0
595 1 5.4490013983478658e+00 6.1467554431186162e+00 1.4841369166284137e+01 0 0 0
596 2 5.4279510627440963e+00 5.6526236431299113e+00 1.5670734397009380e+01 0 0 0
597 2 5.3390782216968358e+00 5.4986733760553648e+00 1.4098321036455996e+01 0 0 0
598 1 8.0122912323728794e+00 6.2553096874293592e+00 1.4370636177349587e+01 0 0 0
599 2 7.0206971583966808e+00 6.3291199827864810e+00 1.4394965777194582e+01 0 0 0
600 2 8.2090451395891648e+00 5.9942681469904660e+00 1.3424723675534892e+01 0 0 0
833 2 6.6059544127037801e+00 9.3491435289345031e+00 1.3956918420674302e+01 0 0 0
603 2 1.0643650278926806e+01 4.9415058644614209e+00 1.8392114640090934e+01 0 0 0
826 1 9.4031682259885354e+00 8.3022739694458281e+00 1.1122727000686211e+01 0 0 0
605 2 1.1016841905498286e+01 5.2070532542526005e+00 1.0846621989240235e+01 0 0 0
520 1 1.9962027821448625e+00 4.8820730263426704e+00 9.8237053447377587e+00 0 0 0
537 2 -1.0347540793507104e+00 1.2206676013838766e+00 1.2285407076894302e+01 0 0 0
824 2 2.6446187346215950e+00 7.4533582879510956e+00 1.7205324997405590e+01 0 0 0
609 2 6.8771888092835249e+00 2.1379902009129386e+00 1.1032516578225469e+01 0 0 0
832 1 6.1495295626391862e+00 9.6160588733554757e+00 1.4782518130765647e+01 0 0 0
611 2 6.1273685055598532e+00 2.0986406313329087e+00 1.8236049557485824e+01 0 0 0
613 1 1.0266875891612770e+01 6.1043129847816520e+00 1.6820635046925418e+01 0 0 0
614 2 1.1052870209853994e+01 6.6153650209261876e+00 1.7007243484814222e+01 0 0 0
615 2 9.4888589886179702e+00 6.5738011920973154e+00 1.7111027031964934e+01 0 0 0
616 1 1.1317472209571172e+01 6.6708141279227258e+00 1.1991786562203806e+01 0 0 0