LAMMPS data file via write_data, version 15 Apr 2020, timestep = 9575000

6144 atoms
2 atom types

-5.3689586528382449e-01 6.0505184996441550e+01 xlo xhi
0.0000000000000000e+00 2.8067272891391319e+01 ylo yhi
0.0000000000000000e+00 2.7128616383918175e+01 zlo zhi
1.0162294928818163e+01 1.0185256122806877e+01 7.1147144880124245e+00 xy xz yz

Masses

1 16
2 2

Atoms # atomic

245 2 2.0827390658632858e+01 1.8208191770497585e+01 2.6015875695752850e+00 0 0 -1
353 2 2.4116213045857162e+01 3.1009698684058804e+01 2.2017809775479428e+01 0 -1 0
1012 1 1.1667560140066964e+01 1.4774331146298067e+01 1.6387700202975633e+01 0 0 0
2906 2 2.8344014311472119e+01 2.4354834742219801e+01 2.0673238020256310e+01 0 0 0
1654 1 2.2373979028582252e+01 3.1081362889975765e+01 2.6587246867370698e+01 0 0 1
52 1 1.3520793287299311e+01 2.6779859373959710e+01 4.1012353607503380e+00 0 -1 0
416 2 1.2694008794729054e+01 1.8917626724838733e+01 1.8285366792299250e+01 0 0 0
364 1 3.0621849712617781e+01 2.7794779506664838e+01 2.5976926011045876e+01 0 0 -1
2790 2 2.1896472645286792e+01 1.4514484164452796e+01 1.2249964201720573e+01 0 0 1
886 1 1.3728232916719145e+01 1.0653322250391820e+01 2.4301381092095813e+01 0 1 -1
333 2 1.6224710792480590e+01 2.9984537468631281e+01 1.9249631911209789e+01 0 0 0
357 2 1.6955040295162618e+01 2.2984199893023884e+01 2.3042654190953954e+01 0 0 -1
1973 2 2.3953588928653168e+01 2.9468881416210870e+01 1.2995781731775690e+01 0 -1 0
358 1 2.3717303093417993e+01 2.8803594325669028e+01 1.9068497132090084e+01 0 0 0
208 1 2.2233023799402794e+01 1.0203142476384059e+01 2.0864905431881528e+01 0 0 -1
1895 2 9.1528091830058891e+00 1.0156835651172269e+01 1.1858875937787793e+01 0 0 1
863 2 2.1894829364965364e+01 9.6189844237262676e+00 1.7771240110917564e+01 0 0 -1
10 1 1.4060654282299112e+01 6.3137718275788037e+00 1.2505130126668217e+01 0 0 -1
319 1 2.2346200064919600e+01 1.3056524747525607e+01 2.0149865190350440e+01 0 0 -1
1894 1 8.2599677554162607e+00 9.7768252092940688e+00 1.1919784382779687e+01 0 0 1
1915 1 1.6356443021745605e+01 2.4162864250730912e+01 2.6415698446239556e+01 0 0 0
220 1 1.0079313790702164e+01 1.0536858493674035e+01 2.1253505983081457e+01 0 0 -1
2309 2 2.0494488548782769e+01 2.0423890447579623e+01 1.7853009816758078e+01 0 0 0
1709 2 2.1227441191992320e+01 2.0245240685005253e+01 1.3204554503135659e+01 0 -1 0
2820 2 1.7814392314097525e+01 1.8029507459395603e+01 2.6951552896872911e+01 0 1 0
53 2 1.4261210833891885e+01 2.6988576828941113e+01 3.4749321176822630e+00 0 -1 0
713 2 2.3604113507754615e+01 1.4004492991649528e+01 2.6947700198702236e+01 0 0 -1
3493 1 3.1924195502528172e+00 6.8815589890730902e+00 4.1860505083772290e+00 1 0 0
112 1 2.3571596914200214e+01 3.1182247225714502e+01 1.8302558992398200e+01 0 -1 0
2556 2 2.1044173108552659e+01 9.2520675884438859e+00 1.9871018874729444e+01 0 0 0
1034 2 3.2444937672375900e+01 3.3595711471222529e+01 2.2327739474424135e+01 0 0 -1
1059 2 1.4706723970252426e+01 2.0833934046824176e+01 1.2352529769318700e+01 0 0 0
611 2 1.5951616925368270e+01 2.9008276825370093e+01 1.7119138666619396e+01 0 0 0
2530 1 1.9963121245462204e+01 7.2501632588567357e+00 1.6002316700476044e+01 0 0 0
2453 2 1.3255777785562650e+01 1.2949084754830480e+01 2.6082231619046858e+01 0 0 0
2450 2 1.8336624213609383e+01 9.6359443034314456e+00 2.7018640271186708e+01 0 0 0
1708 1 2.1995350604674275e+01 2.0573768519267173e+01 1.3663041527120482e+01 0 -1 0
355 1 1.6770387423529307e+01 2.3823911232844086e+01 2.3444999791083006e+01 0 0 -1
2289 2 2.2441787011595927e+01 1.7054865563704428e+01 8.3145092310990734e+00 0 0 0
99 2 1.1950444668856951e+01 1.6319160374063063e+01 2.5605772317520117e+00 0 0 0
1561 1 1.6698493616880658e+01 1.9255850526660037e+01 6.1624286125356704e+00 0 0 0
3736 1 5.6208528740078449e+00 8.1092304760554814e+00 1.1119972316439535e+01 1 0 0
588 2 5.2339348312715401e+00 1.2611966389494684e+01 3.8656610914748968e-01 0 0 0
829 1 1.4849943018480356e+01 2.4696280835262577e+01 1.5511538510963724e+01 0 0 0
1874 2 1.2802839778743792e+01 1.4559653280292730e+01 4.8822944519607328e+00 0 -1 0
2628 2 1.3786762380903422e+01 2.2016369329161581e+01 2.0074901425325390e+01 0 0 0
558 2 2.2446245367287347e+01 2.5623503656725656e+01 9.8778548291414359e-01 0 0 1
2051 2 1.3412656309109639e+01 7.5994595409930161e+00 1.1413906214752286e+01 0 0 1
1710 2 2.2730942612884004e+01 1.9888341944856453e+01 1.3421612625144126e+01 0 -1 0
2332 1 1.9785295459731053e+01 9.1496561622176991e+00 1.2579944843735024e+01 0 0 1
1044 2 7.4304440343187350e+00 1.2325823517178941e+01 1.0273000168496365e+01 0 1 0
1773 2 1.7696315057353296e+01 3.2708775986189686e+01 1.9721649382695961e+01 0 0 -1
1593 2 8.1241764665283291e+00 1.1190732374211436e+01 1.4715918860543258e+01 0 0 0
1570 1 1.1630503261721245e+01 1.2261903356458262e+01 1.4837898545319531e+01 0 0 1
2314 1 1.3893879853996054e+01 1.6036289201657773e+01 1.7736200279042940e+01 0 0 1
1129 1 2.0833292196854185e+01 1.3680530413568986e+01 2.5516592425242443e+01 0 0 -2
2069 2 2.8071836115183103e+01 2.2370648253693044e+01 2.3635574041244158e+01 0 -1 0
821 2 1.8662900453143696e+01 2.2259764760372310e+01 2.4493712702692104e+01 0 0 -1
2352 2 1.5683189948545703e+01 9.3659550940520031e+00 6.9711483019022449e+00 0 1 1
1858 1 1.0906558257355229e+01 1.1392882987742667e+01 1.8754968462102379e+01 0 0 0
1109 2 1.4171835411713646e+01 1.5676943597002399e+01 1.0708452486034165e+01 0 0 0
88 1 2.4781558094195976e+01 3.2422924330687572e+01 2.4848758823027989e+01 0 -1 -1
896 2 1.3769674148207644e+01 1.8403395416032925e+01 1.2503656152873672e+01 0 0 0
2516 2 2.2191487793807710e+01 1.1853055008949870e+01 1.2881126045931422e+01 0 1 0
2613 2 1.9617007940680665e+01 2.1477160604277110e+01 2.6286510339757232e+01 0 0 1
1571 2 1.1723241125213058e+01 1.3105398653363114e+01 1.5371147063519278e+01 0 0 1
984 2 1.6842606179222518e+01 2.4825487932267787e+01 2.4304128393819271e-01 0 1 -1
1768 1 1.3822483963075953e+01 6.6351243482003772e+00 4.9421887670257076e+00 0 -1 1
221 2 1.0659140266384991e+01 1.0078846768751623e+01 2.1902195327138827e+01 0 0 -1
3733 1 2.2514961549666954e+00 4.9384778697322860e+00 6.2421348397093501e-01 1 0 0
289 1 1.4188583405850880e+01 2.7731678238265921e+01 1.3235081038725713e+01 0 -1 -1
2770 1 8.5884556613862308e+00 5.4123597718158685e+00 1.5254604106100381e+01 0 1 0
627 2 1.6088450586221448e+01 2.5937358025769935e+01 1.5147149324335357e+01 0 -1 0
30 2 2.8415664994502634e+01 2.6250412798269998e+01 2.6985749902119483e+01 0 0 0
1791 2 8.3899760011077440e+00 9.9120434598919438e+00 8.0842062295191575e+00 0 0 1
2627 2 1.3967491413798005e+01 2.3061065723360365e+01 1.9003376248483015e+01 0 0 0
846 2 6.6282660642646123e+00 4.3688467807036417e+00 1.5177488813704940e+00 0 0 0
359 2 2.3342952257438604e+01 2.8275826341998993e+01 1.8326561371681571e+01 0 0 0
2660 2 2.4340642699008960e+01 1.8621079165331331e+01 1.2160584805208730e+01 0 0 0
822 2 1.7449683015918865e+01 2.1458947331167771e+01 2.5218832105853551e+01 0 0 -1
2748 2 2.0373087323944841e+01 7.2027362571467233e+00 2.1395858821828309e+01 0 1 0
1590 2 2.6214181575835118e+00 1.9380349996712352e+00 4.9817905895424763e+00 0 0 1
887 2 1.3529049893170281e+01 1.1592273498430652e+01 2.4444939967037183e+01 0 1 -1
1724 2 1.5458555563850418e+01 2.1127088811197702e+01 2.5371964893453338e+01 0 0 0
54 2 1.4014905064212863e+01 2.6375793581287716e+01 4.8740795642889037e+00 0 -1 0
102 2 1.1630458082125205e+01 1.3816970085971024e+01 1.1572899351886090e+01 0 0 0
441 2 2.0422027381368657e+01 2.0113559340635142e+01 2.1361349436191965e+01 0 0 -1
1659 2 1.7662086913255589e+01 2.8278855174318121e+01 2.5506524605773034e+01 0 -1 0
373 1 5.8541255775719758e+00 7.9527098494015185e+00 5.2981579364124993e+00 0 0 0
2147 2 2.2408281364715215e+01 1.0997840292805325e+01 1.5671167514694639e+01 0 0 1
1603 1 1.6263339925538673e+01 1.2330749220936010e+01 3.9401930079833258e+00 0 0 1
612 2 1.7175328772252655e+01 2.9656888442756689e+01 1.6384418828155756e+01 0 0 0
731 2 2.5818067107782774e+01 2.6733674571719593e+01 1.1946256909784193e+01 0 0 0
1703 2 2.1597610905764114e+01 3.1741054587552732e+01 2.0808800568638166e+01 0 -1 0
1872 2 1.5313747665195031e+01 2.1012719599454456e+01 1.8956606769391900e+01 0 0 0
2402 2 1.6025504984075901e+01 2.7245583462626140e+01 2.2107332060929007e+01 0 0 0
237 2 1.5658256135360077e+01 1.6762248447874654e+01 1.2512847189338261e+01 0 -1 0
2785 1 2.1887384950235187e+01 1.9331880406616534e+01 2.2218956851110867e+01 0 0 0
867 2 1.6070041832042641e+01 1.2366670635621666e+01 1.9857488220806296e+01 0 0 0
370 1 9.0136783603005224e+00 8.5322885669016788e+00 1.9725057996009660e+01 0 0 0
845 2 5.7079451979425331e+00 4.2216924919907495e+00 2.8885807773984401e-01 0 0 0
1563 2 1.7069622890025364e+01 1.9941395888465419e+01 6.6968265994882126e+00 0 0 0
827 2 2.6157044793971991e+01 2.6346906736248840e+01 2.2444954417218639e+01 0 0 -1
1003 1 1.5814714726760680e+01 1.2507841175731420e+01 4.9203737181568930e-01 0 1 0
951 2 1.5583877272211744e+01 6.8027512464730648e+00 1.7757785263118439e+01 0 -1 0
170 2 1.4531466841355009e+01 1.6455888307700484e+01 2.5908629383975903e+01 0 0 -1
3030 2 1.5102413294482806e+01 5.3834145277573784e+00 1.4430830228724019e+00 0 1 1
1568 2 1.0797022091643452e+01 1.3053241507422197e+01 2.1405212374217861e+01 0 1 0
2049 2 1.5935616182269037e+01 4.1166666054413961e+00 1.3722251992693364e+01 0 0 1
2414 2 1.1060909553495408e+01 2.0700445337438357e+01 4.7680693500138984e+00 0 0 1
1494 2 2.2476252586430171e+01 2.7669237733636848e+01 2.1833819895185393e+01 0 0 0
4271 2 5.0640151969726830e+00 5.7732022408497068e+00 1.0567565512475554e+01 1 1 0
1588 1 1.3283280279950386e+01 2.9227799080780553e+01 5.4236162533547461e+00 0 -1 1
1562 2 1.7432735913449847e+01 1.8609716050967318e+01 6.0045779968729054e+00 0 0 0
2321 2 1.3439221086942919e+01 2.0309190142173851e+01 2.1417913163677262e+01 0 0 0
1133 2 1.6362636566196961e+01 1.9044118544811091e+01 1.0639449934365626e+01 0 1 0
1608 2 1.8755047791385056e+01 2.0232469435913977e+01 9.0606107127868096e+00 0 0 0
129 2 6.8098063905657984e+00 8.6544702612737581e+00 1.4872123011414859e+01 0 1 0
152 2 1.4955953393636827e+01 2.2142849392030119e+01 7.0883110540455396e+00 0 0 -1
678 2 1.3963997427224463e+01 1.2229752010353888e+01 1.1526577915735633e+01 0 1 -1
150 2 1.0460685325336300e+01 6.0236586841994502e+00 1.8158576096765071e+01 0 0 -1
2687 2 1.1818809303561633e+01 1.0837796748357970e+01 2.6757514051040015e+01 0 1 -1
98 2 1.1621270952901437e+01 1.7789643233067032e+01 2.6062364628944001e+00 0 0 0
2399 2 1.0054405606375713e+01 2.4773515974574973e+01 3.8860997122616956e+00 0 0 0
851 2 8.4246232415855999e+00 1.2971587143759892e+01 1.3488748951213594e+01 0 1 0
1118 2 1.1868947111801962e+01 1.1486675222719063e+01 4.0032410240871513e-01 0 0 0
1787 2 1.4125747533297343e+01 2.9904361749238277e+01 1.0287609863857739e+01 0 -1 1
29 2 1.8946963266765700e+01 1.8922293151863013e+01 1.1817990724418193e+00 0 0 1
948 2 2.1780128953052074e+01 3.1517248186586965e+01 2.5046261511390924e+01 0 -1 0
888 2 1.2915305404044773e+01 1.0262834413504393e+01 2.3936308960603714e+01 0 1 -1
1619 2 8.1960905323521125e+00 1.9617341410988121e+01 5.6631711428764202e+00 0 0 1
2292 2 1.6560488355529209e+01 6.9102928570973372e+00 2.0312125843729774e+01 0 0 1
783 2 1.9714757628215441e+01 2.8276982351762442e+01 8.5650070761441448e+00 0 0 0
2522 2 1.5443608345271079e+01 2.9472209120084084e+01 1.5248451859229473e+01 0 0 0
105 2 1.3834430822919670e+01 1.6937395680348423e+01 2.2878594649119375e+01 0 0 0
2311 1 8.1554149465223773e+00 9.6340129703338135e+00 5.0246623174712557e+00 0 1 0
1902 2 1.8582367562553735e+01 2.9214139122558351e+00 1.0609146250154987e+01 0 0 0
1896 2 8.1387875894733934e+00 9.5359416027481920e+00 1.2852483333196304e+01 0 0 1
60 2 1.5003526684888421e+01 2.3645995950725084e+01 2.0766753432052155e+01 0 0 -1
1871 2 1.5025115514735109e+01 1.9462917294134449e+01 1.8631537239798732e+01 0 0 0
1517 2 2.3760145043883497e+01 1.7681625354321334e+01 2.0894112701035191e+01 0 1 -1
118 1 2.2016106731479692e+01 2.2405159294886854e+01 2.4677384342307796e+01 0 0 0
2668 1 4.7884249744317788e+00 2.3101854837099332e+00 8.7278342398422559e+00 0 1 0
291 2 1.4469875890507073e+01 2.8297095518446465e+01 1.3973626627753722e+01 0 -1 -1
2454 2 1.2920559672893967e+01 1.3855329620843785e+01 2.4970381660264771e+01 0 0 0
1144 1 2.5720262972350866e+01 2.7850221407418793e+01 2.5600135298262458e+01 0 0 0
525 2 3.0839103660493734e+01 3.2301663462996515e+01 1.6965770383086678e+01 0 -1 0
1766 2 2.6529502740583283e+01 1.4439952341873671e+01 2.4378345054543839e+01 0 -1 0
2411 2 1.1087154571662378e+01 2.7374882214506378e+01 4.7078194162766724e+00 0 0 1
898 1 1.3054780853609252e+01 1.3212622561580282e+01 1.8357785220171166e+01 0 0 0
632 2 1.0688344378299547e+01 1.5551323685186377e+01 1.4993112453459529e+01 0 0 0
1799 2 1.9656289894474810e+01 1.7607567377235107e+01 9.5771288512030406e+00 0 0 1
981 2 1.4860942422671306e+01 1.0109104291437239e+01 1.6793342955159304e+01 0 1 -1
2244 2 1.5766265027479136e+01 1.6985083836898930e+01 2.0900069969794266e+01 0 0 0
862 1 2.2497624604367825e+01 9.9127327865086166e+00 1.7064475126311493e+01 0 0 -1
1117 1 1.2279297876903943e+01 1.2183275449180078e+01 9.3439473715618360e-01 0 0 0
2316 2 1.4566964166282869e+01 1.6154799227769473e+01 1.7045854483804277e+01 0 0 1
5 2 1.8328156337262826e+01 1.1753379927288449e+01 8.1954716905412806e+00 0 -2 1
818 2 1.0507742129420206e+01 1.9616063212282761e+01 1.3453735195615870e+00 0 0 0
775 1 1.1997352129553214e+01 6.8217164903721557e+00 2.1982382747407843e+01 0 1 -1
1005 2 1.6634844688206950e+01 1.2138604530296313e+01 7.9655458938577373e-01 0 1 0
3053 2 2.1303841821285108e+01 2.0748021268104274e+01 8.8974402538388482e+00 0 0 1
1892 2 1.0840633809043027e+01 8.8515059653378056e+00 2.3697920329178189e+01 0 0 0
1656 2 1.2662425426978645e+01 2.4552471179734987e+01 9.4945120482989739e-02 0 0 2
751 1 1.4234796418839185e+01 2.1886694195800747e+01 1.6512281090596588e+01 0 0 0
100 1 1.1135905035566857e+01 1.4226695196449242e+01 1.0834935549191593e+01 0 0 0
3735 2 2.8115583783434857e+00 4.8135304945189468e+00 1.4911810783046158e+00 1 0 0
2669 2 1.5191380553668608e+01 2.9471886554606719e+01 8.4933811400803361e+00 0 0 0
2323 1 1.4005587188955085e+01 2.0998054428410391e+01 7.6899356502981426e+00 0 1 1
28 1 1.8314086611936840e+01 1.9503373967485079e+01 7.5730481675122219e-01 0 0 1
2356 1 1.2703723474995083e+01 1.5573678341980953e+01 6.4505273521955058e+00 0 0 0
3495 2 3.3000997617528709e+00 6.0089660345291316e+00 4.7050675254167764e+00 1 0 0
1667 2 1.0807570432775744e+01 1.6024188587374834e+01 1.1427034960271033e+01 0 0 1
134 2 1.7114908533844844e+01 1.5349584181553883e+01 1.6859824132185373e+00 0 0 1
2667 2 9.7625957337680802e+00 1.8262836323694458e+01 1.1185840471793671e+01 0 0 0
517 1 2.2311878641087887e+01 2.3938375467503647e+01 2.1261818322702315e+01 0 0 -1
356 2 1.6321213414207293e+01 2.4215881762520631e+01 2.2661152435492411e+01 0 0 -1
1553 2 2.8554234078880636e+01 3.0088312429469624e+01 1.7224787893646372e+01 0 -2 1
1048 1 1.2392708235898986e+01 2.3080481374194164e+01 8.6459144727190651e+00 0 0 0
2741 2 1.7374859159723783e+01 1.2737006238196912e+01 1.2699025329890672e+01 0 0 1
258 2 6.6422565620846807e+00 1.2586080375692218e+01 6.8428155299288589e+00 0 0 1
1492 1 2.2715817675434032e+01 2.7273596817767213e+01 2.0981136577930815e+01 0 0 0
1860 2 1.0789931772411389e+01 1.1161556922721541e+01 1.9746363965396153e+01 0 0 0
1273 1 2.1415281530915482e+01 1.7270291084872781e+01 1.1771784173134435e+01 0 -1 0
1916 2 1.7035674914761614e+01 2.3484608824158457e+01 2.6120953767441517e+01 0 0 0
434 2 1.5682731051345172e+01 4.6371933918435628e+00 1.7201215289552316e+01 0 0 -1
180 2 6.7872787932199872e+00 8.7846737683165230e+00 9.3950408955052289e+00 0 0 0
2560 1 2.1679027070338964e+01 1.3861054509075569e+01 9.0877808836121012e+00 0 0 1
219 2 1.2665128006156340e+01 1.7151698874113766e+01 9.3141963481857672e+00 0 -1 0
1790 2 9.2491306588585527e+00 1.1072945740339659e+01 8.6998748946672588e+00 0 0 1
2518 1 1.8394152467544018e+01 2.4743590871962095e+01 2.1355722243472432e+01 0 0 0
64 1 1.8381221575657278e+01 2.9733799060582193e+01 9.5021582727215517e+00 0 -1 0
1859 2 1.1785269513052334e+01 1.1925643950747784e+01 1.8746953510691149e+01 0 0 0
899 2 1.3848940190709900e+01 1.2829643693553253e+01 1.8852712735328332e+01 0 0 0
1624 1 2.1274622150459990e+01 1.5344735582029658e+01 1.7498345061360688e+01 0 0 0
2451 2 1.9436685748498476e+01 9.9968030366118921e+00 2.5980400882844766e+01 0 0 0
2315 2 1.3698643395811098e+01 1.6995800871051614e+01 1.7903048818912048e+01 0 0 1
1372 1 5.5996125987349359e+00 2.6857919877795213e+00 4.8398111751598991e+00 0 0 0
1373 2 5.0036922755116899e+00 1.9232302377257446e+00 4.8879470820539437e+00 0 0 0
1677 2 1.4300698270642439e+01 1.6148411073002062e+01 1.3807096306215392e+01 0 0 0
1804 1 1.5761680821289328e+01 1.5456165041084436e+01 1.1434102433464567e+01 0 0 0
25 1 1.6060256650239371e+01 1.5111628672754577e+01 4.7545269564907402e+00 0 0 -1
32 2 1.2316814128095713e+01 2.5125218975704758e+01 5.9693982766864595e+00 0 0 0
106 1 1.0794798325554595e+01 2.2665116178616550e+01 1.1042596882331896e+01 0 0 0
704 2 2.4441259625470011e+01 2.4991454577234492e+01 1.2146872754043617e+01 0 0 -1
1130 2 2.0666350131930795e+01 1.3193600614717223e+01 2.4754333154983431e+01 0 0 -2
2684 2 3.0329503533936222e+01 3.0049739604850139e+01 2.3205179319855375e+01 0 0 0
2659 1 2.3929896039637303e+01 1.8847329642678481e+01 1.3000055636996517e+01 0 0 0
636 2 1.0034709140764175e+01 6.4261944780370361e-01 1.8831430795812263e+00 0 1 0
1113 2 1.6572809782410090e+01 1.5270924304314438e+01 2.4073173438511088e+01 0 0 -1
1150 1 1.7669235321670307e+01 2.8382376147306349e+01 1.3408525419147393e+01 0 0 0
1969 1 2.6843237736112350e+01 2.2855226597283860e+01 1.7125658664356738e+01 0 0 -1
31 1 1.1639837823529385e+01 2.5712289485161428e+01 6.3407161817218736e+00 0 0 0
2306 2 2.4112125882329167e+01 3.0455561126629789e+01 9.2177329468790514e+00 0 -2 0
2448 2 1.1752882852607909e+01 2.1502001173892920e+00 2.1454049558141177e+00 0 1 0
812 2 1.7103893830063178e+01 3.0701709814601557e+01 2.0879970932814260e+01 0 1 -1
1607 2 1.8358852227510450e+01 1.9328114079682770e+01 1.0341358289667840e+01 0 0 0
374 2 5.5759469293039672e+00 7.6529489882294506e+00 6.2489483249399722e+00 0 0 0
781 1 2.0206438133502466e+01 2.7461578686750201e+01 8.3735548527860697e+00 0 0 0
211 1 1.6969166834738743e+01 2.1625474227225656e+01 1.8646277630271884e+00 0 -1 1
1870 1 1.5709530401838137e+01 2.0161467884113652e+01 1.8652424056277962e+01 0 0 0
2542 1 2.5666456120036880e+01 3.5025821897509957e+01 2.6580665186899893e+01 0 0 0
1136 2 1.2811822110186952e+01 8.8290739528331361e+00 2.0084434348576732e+01 0 1 -1
1736 2 1.0892593925423022e+01 6.0346499198928107e+00 1.2428090499295340e+01 0 0 0
4 1 1.8279985667399835e+01 1.2339333785672306e+01 7.3600956925110754e+00 0 -2 1
340 1 2.3067382175823433e+01 2.7300396736837243e+01 9.8946791675073626e+00 0 0 -1
810 2 1.5499247063892621e+01 1.6494660724368174e+01 8.2322871620845852e+00 0 0 0
149 2 1.0177554945631801e+01 6.9193919478605270e+00 1.9350139743417955e+01 0 0 -1
1087 1 2.8571331298064290e+01 2.9810837363427872e+01 2.5517561029797797e+01 0 0 -1
203 2 1.6522552071139611e+01 7.0591384994088981e+00 1.7169982546810461e+00 0 1 0
153 2 1.6015059876437682e+01 2.3267177045547470e+01 6.8805627143514112e+00 0 0 -1
2351 2 1.5257868376092933e+01 7.8410423460998961e+00 7.0932781516403116e+00 0 1 1
142 1 2.4339199594297856e+01 2.7759478238772193e+01 7.1585529412922844e-01 0 0 0
2004 2 1.4584487093152589e+01 2.9005352705562699e+00 5.9006202395748508e-01 0 0 1
188 2 1.9047345759938992e+01 2.2789907998993428e+01 1.0367591688900738e+01 0 0 -1
788 2 2.1651833708736575e+01 8.7194018911729518e+00 2.6396290624345163e+01 0 0 -1
213 2 1.6595720943002025e+01 2.1321210204823522e+01 2.7240882588666655e+00 0 -1 1
2595 2 5.9850602010678848e+00 5.8891708794281676e+00 1.3264999071989273e+01 0 1 0
1597 1 1.8354541524698529e+01 1.4260519240715663e+01 1.1201556714722889e+00 0 0 0
2482 1 2.8161864390975097e+01 2.1573615213641599e+01 2.0412598035313302e+01 0 1 0
797 2 1.2181024716101318e+01 2.8330458556123393e+01 8.0913953304588642e+00 0 0 0
217 1 1.1984926835053869e+01 1.7677449556485151e+01 8.8094438868659832e+00 0 -1 0
2381 2 1.2025762474951744e+01 2.2042450933802684e+01 1.4143806221480482e+01 0 0 0
1757 2 2.1141708268703184e+01 1.8315608352357152e+01 1.8584135225053291e+01 0 -1 0
852 2 9.2053236756677101e+00 1.4200529943390642e+01 1.3608735535147481e+01 0 1 0
2789 2 2.2347438564944760e+01 1.6006786581362800e+01 1.2230884588746649e+01 0 0 1
905 2 1.5724846170121655e+01 1.2072418161322421e+01 1.3679445860611908e+01 0 0 0
2570 2 8.9025658053354881e+00 1.0091855812745179e+01 3.3711415235552238e+00 0 1 0
776 2 1.2787765989357698e+01 6.2351801520734318e+00 2.2247360107333687e+01 0 1 -1
1778 2 2.0103647014658211e+01 1.5220502615639109e+01 4.3264842138499464e+00 0 0 -1
1829 2 1.2995760913781686e+01 2.6401526827147034e+01 1.0870196719278788e+01 0 -1 0
1103 2 2.2570741331120210e+01 2.7167984265317664e+01 1.1912051243080954e+01 0 1 -1
2649 2 1.7017406104480472e+01 7.9323100838988916e+00 1.0932651381259554e+01 0 1 0
2397 2 1.0147528988495871e+01 1.1536511843771425e+01 1.5557251385582802e+01 0 1 0
133 1 1.6404843489611721e+01 1.6056341713422150e+01 1.7951136474755205e+00 0 0 1
1845 2 1.4639094458728756e+01 7.1598624469427818e+00 1.4079763040126634e+01 0 0 -1
2347 1 2.6116677441578599e+01 2.5799795984246501e+01 1.5940615706086078e+01 0 0 0
236 2 1.5994788197261634e+01 1.7862728249147843e+01 1.3567981134446541e+01 0 -1 0
1735 1 1.0062111360486320e+01 6.4791075385138637e+00 1.2729699871897441e+01 0 0 0
120 2 2.1322217175664477e+01 2.2207670924378320e+01 2.3983808217790294e+01 0 0 0
2413 1 1.1176867002717961e+01 1.9840873053064861e+01 4.2876882176297491e+00 0 0 1
895 1 1.3150305074307060e+01 1.8729364138705570e+01 1.1791335919814301e+01 0 0 0
2738 2 1.5084722406049522e+01 1.8436292560548498e+01 8.7386597986410788e+00 0 0 0
1072 1 1.4608522212334480e+01 2.2513005202409808e+01 7.3722110004047581e-01 0 0 1
239 2 2.0300327538597770e+01 1.6335830201987555e+01 1.5203722854756393e+01 0 0 -1
1426 1 2.7785895722491393e+01 2.7848138164282336e+01 1.5146592108529706e+01 0 0 0
965 2 2.8291881019000829e+01 3.0208584107874366e+01 2.0147260829929166e+01 0 -1 -1
2671 1 1.6923749886610118e+01 3.1531911901638047e+01 1.5511784031796601e+01 0 0 0
2491 1 1.2022628513698193e+01 2.2694769122796497e+01 2.2269748137864060e+00 0 0 1
1784 2 2.1562633008038670e+01 2.6213672085784506e+01 3.8060131634949967e+00 0 -1 0
474 2 2.0868894199490246e+01 1.9815223869415306e+01 1.0495405432692042e+01 0 -1 0
897 2 1.3631567063232417e+01 1.8628904177662456e+01 1.0984941091990658e+01 0 0 0
63 2 2.6127335595974778e+01 2.7336857160359980e+01 9.0020316175532304e+00 0 -1 0
725 2 3.0999795111388970e+01 3.1935356134865700e+01 2.6159036732053785e+01 0 -1 0
2456 2 2.0040114272010491e+01 3.2954898099655800e+01 2.1926651845871493e+01 0 0 0
1672 1 1.6046033105733933e+01 3.1254566208457497e+01 1.2234117727229147e+01 0 -1 0
70 1 1.1610726743998448e+01 2.0744245345702762e+01 1.2883635019318133e+01 0 0 0
1734 2 1.1994174353370861e+01 2.7775244624836930e+01 2.4771412065613596e+00 0 0 0
1737 2 9.6195018709930373e+00 6.7091079344999631e+00 1.1901551055531568e+01 0 0 0
1909 1 1.1340503822292824e+01 8.7865324099872186e+00 1.7604900257696723e+01 0 0 0
3034 1 1.7294218587803016e+01 6.3785274249106942e+00 9.9296249700536006e+00 0 1 1
1663 1 1.0316868598156921e+01 1.8826383588616292e+01 1.4331091315001887e+01 0 0 0
942 2 1.1029213210021148e+01 1.7555578568220668e+01 1.7289283483415694e+01 0 0 0
1445 2 1.3176275393714102e+01 2.1141136552087971e+01 1.0526695401797623e+01 0 0 0
1905 2 1.3615108111064451e+01 8.3111993030857381e+00 2.0953597495793925e+00 0 0 1
2815 1 2.1845663890042029e+01 7.1781009090647796e+00 2.6754304921376036e+01 0 1 0
2513 2 2.0379421025380651e+01 2.5438329544063105e+01 1.9247956596804528e+01 0 0 0
2443 1 1.9041982674963727e+01 1.9987551760594101e+01 3.7162103424834054e+00 0 1 0
2380 1 1.2474473001289269e+01 2.2753498199232652e+01 1.4634055432357005e+01 0 0 0
633 2 1.0255504986763416e+01 1.6102876604826012e+01 1.3638483337425530e+01 0 0 0
26 2 1.5873415026081766e+01 1.4256431405015828e+01 4.3745196179105470e+00 0 0 -1
1621 1 1.3412445952433671e+01 9.6998304567907674e+00 1.6008690755118991e+01 0 0 -1
1622 2 1.2772105226134556e+01 9.4491682022029124e+00 1.6703402712787710e+01 0 0 -1
1151 2 1.8357449961479922e+01 2.8791004665599981e+01 1.3898729831177754e+01 0 0 0
1283 2 1.2104908988405271e+01 9.4036291571380559e+00 6.7550386128133093e+00 0 1 0
2002 1 1.5385344245509879e+01 2.4290501874636616e+00 8.2070581224361228e-01 0 0 1
1606 1 1.9086189397117973e+01 1.9539750783120937e+01 9.6800037654637325e+00 0 0 0
990 2 1.8443151679336204e+01 3.2077575414457584e+01 2.5208020675344141e+01 0 0 0
243 2 3.4429020671664818e+00 4.1508815356277546e+00 6.3123000477979927e+00 0 0 0
185 2 2.7430349779687276e+01 1.8992563930645399e+01 2.2358144001984225e+01 0 0 0
2447 2 1.1330832092057308e+01 1.1421824118926645e+00 3.1529972125025600e+00 0 1 0
2678 2 1.9434053207083572e+01 1.2826610592012294e+01 1.5748141546362410e+01 0 1 0
244 1 2.0046558682297526e+01 1.7737788761090311e+01 2.1281952346250170e+00 0 0 -1
216 2 2.0686875095105272e+01 2.7441275467638700e+01 1.7022603604426795e+01 0 0 0
819 2 1.0802603869115096e+01 1.8349864941644856e+01 4.7348892967755785e-01 0 0 0
1212 2 7.5402131379318078e+00 4.1968067142422534e+00 7.6750784127259317e+00 0 1 0
1764 2 1.9854197128649460e+01 8.8479896897866013e+00 2.3339010978095590e+01 0 0 -1
2512 1 2.0353046340763800e+01 2.6032387201736988e+01 2.0018928679520346e+01 0 0 0
214 1 1.9742521168019906e+01 2.7624176608693187e+01 1.6641753099406912e+01 0 0 0
993 2 1.4189226499498968e+01 1.0488066210176896e+01 2.7434062945369488e+00 0 0 0
285 2 2.2583217841473918e+01 2.9446805861272811e+01 1.1500353060348784e+01 0 0 0
1668 2 1.1490449149632859e+01 1.7201587006158174e+01 1.1972805359260471e+01 0 0 1
1029 2 8.8991122740103421e+00 2.1606955417857659e+01 1.6462128242161449e+00 0 1 0
189 2 1.8539951970366740e+01 2.3289705639063349e+01 1.1657041208781351e+01 0 0 -1
844 1 6.1021760507638021e+00 4.9123807551013439e+00 8.5766722518721050e-01 0 0 0
187 1 1.8361113820764480e+01 2.2578102807548351e+01 1.1068756537401081e+01 0 0 -1
1620 2 8.2496868093901554e+00 1.8452209003053351e+01 6.6958419062638477e+00 0 0 1
3049 1 1.7988564870135118e+01 6.9416269791249965e+00 4.4935898731275774e+00 0 1 0
911 2 1.9794992574025002e+01 3.0460241631664331e+01 1.4260083773614515e+01 0 0 0
1888 1 1.4610572714782922e+01 2.4692475565109664e+01 8.5090957641785572e+00 0 0 0
2508 2 8.5736138166008882e+00 2.1350239216823159e+01 3.9292424080448125e+00 0 0 1
2598 2 1.4809170779319409e+01 1.4930232508769823e+01 2.0710852702927141e+01 0 0 0
271 1 1.6192250727616507e+01 2.8144669483991066e+01 7.6914318716131245e+00 0 -1 1
155 2 2.6939703555342707e+01 3.1526705560993399e+01 1.8784258808552760e+01 0 -1 0
1657 1 1.8206552670468575e+01 2.7489827915475615e+01 2.5734473819511930e+01 0 -1 0
385 1 1.9728604627591626e+01 1.1982373246633976e+01 2.3579845866921215e+01 0 0 -1
1798 1 1.9376694041847148e+01 1.6699721780576944e+01 9.3062642690192643e+00 0 0 1
1838 2 1.1052549165943274e+01 1.1091836145338769e+01 4.9431994898628453e+00 0 0 0
1152 2 1.7310102648266110e+01 2.7776812111870520e+01 1.4025334505838618e+01 0 0 0
4272 2 4.9157495966362195e+00 4.3890034734408738e+00 1.1374965858086387e+01 1 1 0
169 1 1.3880481534065090e+01 1.7163859162312349e+01 2.6214846227910535e+01 0 0 -1
1782 2 2.3076919972195270e+01 1.3045998059651495e+01 1.8512567229154818e+01 0 -1 0
3054 2 2.0892328416796015e+01 2.0857090646132228e+01 7.3550467154169539e+00 0 0 1
468 2 2.7888517071196915e+01 1.8449337099394164e+01 2.5189670038975336e+01 0 -1 -1
586 1 4.8598514696189143e+00 1.2257735502053603e+01 1.1822520195104638e+00 0 0 0
2446 1 1.1618289834749389e+01 1.1827483705052750e+00 2.2409684085400721e+00 0 1 0
820 1 1.8156856495885322e+01 2.2178545891219816e+01 2.5338707883063748e+01 0 0 -1
2670 2 5.6452076613347248e+00 2.8408021177558647e+00 8.7233400411289850e+00 0 1 0
117 2 2.1480730744130852e+01 2.8717799824096527e+01 2.3765329110847414e+01 0 0 -1
2905 1 2.8704917159073670e+01 2.4498700064056763e+01 2.1605995980282405e+01 0 0 0
998 2 6.4952441910062539e+00 9.6479218054454847e+00 2.4977196948111877e+00 0 1 0
1786 1 1.3536865058959309e+01 2.9628412473410336e+01 1.0990936729005259e+01 0 -1 1
926 2 1.2641713532162354e+01 3.8218986590220316e+00 5.7625260320507081e+00 0 1 1
273 2 1.5920236955711069e+01 2.7568115268287677e+01 6.9101713543934755e+00 0 -1 1
1119 2 1.2827536643136453e+01 1.1795038547205579e+01 1.6825342268512395e+00 0 0 0
1910 2 1.1830315116848684e+01 8.3985626880159003e+00 1.8350983143210644e+01 0 0 0
44 2 2.5531679963037007e+01 2.0025937343586691e+01 2.2158462176818141e+01 0 0 -1
360 2 2.3378450895168250e+01 2.8245413808153387e+01 1.9805378999301226e+01 0 0 0
206 2 1.8817954123478373e+01 2.5325501991324156e+01 1.3378822155594817e+01 0 0 -1
777 2 1.1144062010462559e+01 6.3495430182462256e+00 2.2273492322100473e+01 0 1 -1
308 2 1.6848227222986011e+01 2.8283938674119174e+01 1.1700392801858227e+01 0 0 0
309 2 1.5859878585204068e+01 2.9348218090934836e+01 1.1581215866298566e+01 0 0 0
2477 2 1.9730236687938131e+01 1.4940931694276157e+01 1.1092418920626296e+01 0 0 0
2638 1 1.3421711200663081e+01 2.0424411916741789e+01 2.9177243600847520e+00 0 1 0
556 1 2.2088722778245515e+01 2.5140652645508052e+01 2.2741247390315836e-01 0 0 1
230 2 1.2367874621094586e+01 1.6432913465128070e+01 2.0964607311255804e+01 0 0 -1
2567 2 7.1093561491728456e+00 2.3610466139334556e+00 5.9486505268266576e+00 0 1 1
386 2 1.9930111294304126e+01 1.2557488136425819e+01 2.2844353423688496e+01 0 0 -1
1099 1 7.1462289025440473e+00 1.3315710744638136e+00 6.6707724659034451e-01 0 0 0
726 2 3.0395968098561937e+01 3.2756531221923112e+01 2.5184376385294652e+01 0 -1 0
1545 2 1.0193313587972369e+01 1.2176324719303942e+01 1.1951514064690864e+01 0 0 0