LAMMPS data file via write_data, version 15 Apr 2020, timestep = 500000

3072 atoms
2 atom types

1.3802343567013331e-01 3.0002170564325201e+01 xlo xhi
1.3207369645301092e-01 2.8208392303539391e+01 ylo yhi
1.6194858915022614e-01 2.7249496410843424e+01 zlo zhi
1.0174769759485951e+01 1.0213256927954019e+01 7.1226136639539845e+00 xy xz yz

Masses

1 16
2 2

Atoms # atomic

1 1 7.4045592481490718e+00 5.2183334020778620e+00 4.1741237412432772e+00 0 0 0
2 2 6.7247629126452582e+00 4.7993333776258851e+00 3.6345973202078832e+00 0 0 0
3 2 7.0480367914083715e+00 6.1081667161131090e+00 4.5046391823139347e+00 0 0 0
4 1 1.0029243272981303e+01 7.1023232047876945e+00 1.1042918546407114e+01 0 0 0
5 2 1.0618743054555223e+01 6.7952883306492904e+00 1.1783336407715648e+01 0 0 0
6 2 9.9032602800641900e+00 8.0135593557527756e+00 1.1248695395168815e+01 0 0 0
7 1 1.0033607362818326e+01 1.2225892617779882e+01 4.2171084995001538e+00 0 0 0
8 2 1.0485338516240500e+01 1.1927393644081262e+01 5.0398175289623381e+00 0 0 0
9 2 9.9434146726518353e+00 1.3187252030061778e+01 4.4277180033295771e+00 0 0 0
10 1 1.2659720474371136e+01 1.4215855418009852e+01 1.0954311991060056e+01 0 0 0
11 2 1.3297283446221007e+01 1.4199630881893535e+01 1.0172470571876968e+01 0 0 0
12 2 1.1955675857854102e+01 1.3534996027128440e+01 1.0828384448320152e+01 0 0 0
13 1 1.4779000977098461e+01 5.2530570737844497e+00 4.1905173175193173e+00 0 0 0
14 2 1.5228808436533441e+01 5.0311853027972493e+00 5.0142897338191190e+00 0 0 0
15 2 1.4545419257062726e+01 6.1815251366936179e+00 4.4927981834281727e+00 0 0 0
16 1 1.7270528783634013e+01 7.0445719942775185e+00 1.0984485919535089e+01 0 0 0
17 2 1.7754421219589346e+01 7.0052978976305464e+00 1.1881167828085001e+01 0 0 0
18 2 1.8007054425568583e+01 7.1762299866962209e+00 1.0336588625856177e+01 0 0 0
19 1 1.7503148038005762e+01 1.2335342189776471e+01 3.8694253068513937e+00 0 0 0
20 2 1.8325473556833785e+01 1.2311231783956433e+01 3.3157688015300653e+00 0 0 0
21 2 1.7850217399929306e+01 1.1960644299566807e+01 4.7117956758013397e+00 0 0 0
22 1 1.9877024945721459e+01 1.3958715611245623e+01 1.0777047512852251e+01 0 0 0
23 2 2.0582575617603283e+01 1.4388056230723899e+01 1.0272060379719177e+01 0 0 0
24 2 1.9673504060248526e+01 1.4676577645305608e+01 1.1395798322813731e+01 0 0 0
25 1 1.1671037244383536e+01 8.1555740338510763e+00 6.2834773662084498e+00 0 0 0
26 2 1.0877592194330974e+01 8.7018346214425151e+00 5.9686823386578149e+00 0 0 0
27 2 1.1333438749729604e+01 7.6228443241691659e+00 7.0087771342883887e+00 0 0 0
2384 2 1.4304037146789240e+01 2.5986452311148696e+01 1.3590813805988770e+01 0 0 0
29 2 1.4295586891455537e+01 9.3380583554518548e+00 1.2358272862612649e+01 0 0 0
30 2 1.3513822152318580e+01 1.0552973389658426e+01 1.2884376973119897e+01 0 0 0
31 1 1.3867000890707919e+01 1.5147134236606874e+01 6.4069371995746724e+00 0 0 0
32 2 1.4090783844834483e+01 1.4674959023017990e+01 5.5545353255900842e+00 0 0 0
33 2 1.3057564808310634e+01 1.5573443660421439e+01 6.1191366721796152e+00 0 0 0
93 2 1.1892446449564135e+01 7.3691052428997486e+00 1.0473994822564257e+00 0 0 0
35 2 1.6076687176152959e+01 1.7427671055254905e+01 1.2431699310148034e+01 0 0 0
422 2 4.4228648480138073e+00 7.5727264607509808e+00 5.6949118002880450e+00 1 0 0
869 2 1.3245999249362756e+01 2.0934424306195289e+01 1.3614628728826935e+01 0 0 0
38 2 1.8155705814095988e+01 8.5366336929535951e+00 6.0921032094953889e+00 0 0 0
39 2 1.8550798684697035e+01 7.2848572366767348e+00 6.8253493158118568e+00 0 0 0
40 1 2.1743502592292856e+01 9.9706457200899425e+00 1.3041396049764934e+01 0 0 0
1152 2 2.4055866535144432e+01 3.1115253215536043e+01 1.1764912022412657e+01 0 0 0
92 2 1.0350051617996378e+01 7.3917842715663804e+00 4.6236428623285214e-01 0 0 0
36 2 1.6282566172387043e+01 1.6438025052674377e+01 1.3655638365169811e+01 0 0 0
44 2 2.1021715162057909e+01 1.5690895830473293e+01 6.0397890913256553e+00 0 0 0
1151 2 2.4642352971887433e+01 3.0291034004405361e+01 1.2919567511269989e+01 0 0 0
1028 2 2.2090820944309357e+01 2.5576745774670655e+01 4.7321145319277508e-01 0 0 0
47 2 2.3348263872244331e+01 1.7236063894867058e+01 1.2586605860775570e+01 0 0 0
75 2 1.0247346174741350e+00 1.4260047951029677e+00 1.3683683253706878e+00 0 0 0
49 1 5.1159341699373151e+00 3.7199643957640856e+00 3.0719221116487354e+00 0 0 0
50 2 5.3095518968367239e+00 2.8292594259974333e+00 2.7857023324743633e+00 0 0 0
51 2 4.4530826466647593e+00 3.7529916777777448e+00 3.7658582536427754e+00 0 0 0
52 1 7.8947809137012710e+00 5.4095268927481630e+00 9.7705037768349605e+00 0 0 0
53 2 7.2180327231624801e+00 5.8644379472798107e+00 9.1918278887996987e+00 0 0 0
54 2 8.5674373845746477e+00 6.0478912214645888e+00 1.0097340150653217e+01 0 0 0
55 1 7.8276952535845785e+00 1.0853644853206292e+01 3.1222657127574300e+00 0 0 0
56 2 8.1379527220762693e+00 9.9521082535278911e+00 2.7981238385509011e+00 0 0 0
57 2 8.6418133772697150e+00 1.1284617153623076e+01 3.4616515304279019e+00 0 0 0
58 1 1.0344994516139911e+01 1.2610692963167077e+01 1.0057014713559813e+01 0 0 0
59 2 1.0026253474856965e+01 1.3242546909725005e+01 9.3723868801846031e+00 0 0 0
60 2 1.0687539102967959e+01 1.1812312229860471e+01 9.6289707022515945e+00 0 0 0
61 1 1.3035790822374977e+01 3.7384422767428047e+00 3.0257250632996082e+00 0 0 0
62 2 1.3609878907967166e+01 4.5147660149513928e+00 3.3523071412883976e+00 0 0 0
63 2 1.2428525830288917e+01 4.1149070936092969e+00 2.3586602945092787e+00 0 0 0
64 1 1.5186988016634832e+01 5.5345082646717163e+00 9.7557338365478898e+00 0 0 0
65 2 1.5932342005453870e+01 5.9588672485271603e+00 1.0292075961252111e+01 0 0 0
66 2 1.5457571416570305e+01 4.5758277939233363e+00 9.4834419561164296e+00 0 0 0
67 1 1.5397306675266838e+01 1.0946333784765791e+01 3.1016185216871226e+00 0 0 0
68 2 1.6291200493105443e+01 1.1264657142254425e+01 3.5008045941651553e+00 0 0 0
69 2 1.5623886140435442e+01 9.9954697235262433e+00 2.8693186822698480e+00 0 0 0
70 1 1.7623825484791674e+01 1.2615395947676125e+01 9.7783523929323337e+00 0 0 0
71 2 1.7514945155197736e+01 1.2958849004341038e+01 8.8573227070284819e+00 0 0 0
72 2 1.8442635437325741e+01 1.2954660547327657e+01 1.0209036348900572e+01 0 0 0
73 1 1.3152546255705972e+00 8.5797119947362099e-01 6.4861133620192080e-01 0 0 0
1082 2 8.5148060208981615e+00 1.7991776868143070e+01 5.4154232065437324e-01 0 0 0
1150 1 2.4803894515448754e+01 3.0561098200240295e+01 1.1982504235397016e+01 0 0 0
2424 2 1.8477549640896719e+01 2.4362865548677483e+01 2.7484086858307077e-01 0 0 1
77 2 4.1835999797549643e+00 2.5084987469505906e+00 8.0151561209247024e+00 0 0 0
1149 2 2.2356717843291037e+01 2.8275474769869831e+01 4.6386429482954039e+00 0 0 0
79 1 3.7617409744771422e+00 8.0351232209987486e+00 6.4159971047259012e-01 0 0 0
119 2 1.6927300701964704e+01 1.2930495911879461e+01 1.2967075229580287e+01 0 0 0
1571 2 1.1537985226655568e+01 1.3113663317557821e+01 3.7332513236404896e-01 0 0 1
82 1 6.4605539812508148e+00 9.4999662991587872e+00 7.4404758422960162e+00 0 0 0
1148 2 2.3021279567349112e+01 2.9502326843670929e+01 5.3385303863231801e+00 0 0 0
84 2 7.3545320434561336e+00 9.1699044086668344e+00 7.6367947148873228e+00 0 0 0
85 1 8.6133116026882970e+00 1.0162405946413724e+00 8.2454674576535003e-01 0 0 0
1145 2 2.1782201658955664e+01 2.4140725840368489e+01 1.2102373351421388e+01 0 0 0
87 2 8.4524687120606661e+00 1.6358754204022494e+00 1.6343502339498091e+00 0 0 0
88 1 1.1073883281269863e+01 2.6148728610145375e+00 7.4218250741663363e+00 0 0 0
89 2 2.1914784756861245e+01 3.0275068972555317e+01 8.0912748738459133e+00 0 -1 0
90 2 1.1675258630202137e+01 3.2964751378032719e+00 6.9876879353505039e+00 0 0 0
91 1 1.1095816023982639e+01 7.9199607794760389e+00 7.8823050844326359e-01 0 0 0
1136 2 1.4405241316092116e+01 2.8475481117041625e+01 6.2575477301716713e+00 0 0 0
1584 2 1.8803657761269655e+01 1.2841762374084025e+01 3.8929955737860567e-01 0 0 1
94 1 1.3861179029042638e+01 9.6238811954449428e+00 7.8565482308315344e+00 0 0 0
95 2 1.4511869971011407e+01 8.8504002361589968e+00 8.0343122202488111e+00 0 0 0
96 2 1.3123031757042524e+01 9.1828409046445163e+00 7.4115405275016624e+00 0 0 0
97 1 5.1928460262329761e+00 4.5950156361292711e+00 6.2794494151581137e+00 0 0 0
98 2 5.4454600447484509e+00 5.0520777779838788e+00 7.0563156210577018e+00 0 0 0
99 2 4.4175252097666746e+00 4.0201253227455362e+00 6.5974848551298679e+00 0 0 0
100 1 7.8764307382265528e+00 6.1402556250900782e+00 1.2851981945144992e+01 0 0 0
101 2 7.4906252049701321e+00 6.7197373112476324e+00 1.2139580877288340e+01 0 0 0
102 2 8.5196992882681979e+00 5.6125900707746750e+00 1.2370244075400251e+01 0 0 0
103 1 8.1348420208958121e+00 1.1678488064157300e+01 6.4062798129054164e+00 0 0 0
104 2 7.6721594179303514e+00 1.2234118664741619e+01 5.7096278899046569e+00 0 0 0
105 2 7.3553497413181042e+00 1.1152863156001121e+01 6.6733765341515197e+00 0 0 0
106 1 1.0494341490802841e+01 1.3186210965337139e+01 1.3045583794101512e+01 0 0 0
285 2 2.0259477501959296e+01 1.3241513453991164e+01 3.2924657759837634e+00 0 0 0
108 2 1.0998411161897986e+01 1.2453993294746734e+01 1.2791912621159474e+01 0 0 0
109 1 1.2671777917733499e+01 4.5268234654306427e+00 6.1397658922669578e+00 0 0 0
110 2 1.3333880590461456e+01 3.8806321076619308e+00 5.7729262313184613e+00 0 0 0
111 2 1.2422254422618725e+01 5.1339780944554709e+00 5.4761593752227729e+00 0 0 0
112 1 1.5157049974448116e+01 6.0019050548432720e+00 1.2848364112124438e+01 0 0 0
128 2 4.9384758124197399e+00 9.7135351478783907e+00 4.0243730871245500e+00 0 0 0
981 2 2.4186496220325864e+01 2.3837168218773940e+01 3.0938665770225473e+00 0 0 0
115 1 1.4930198243822097e+01 1.1303030252322433e+01 6.1421679556611846e+00 0 0 0
116 2 1.4504246901922350e+01 1.0924356203272193e+01 6.9217457291362852e+00 0 0 0
117 2 1.5634262743929012e+01 1.1850490037348612e+01 6.4257556946196264e+00 0 0 0
118 1 1.7783447438437378e+01 1.3358271122804812e+01 1.2768365231618310e+01 0 0 0
1053 2 2.5502157186631727e+01 2.7091254548246908e+01 3.3590185848272291e+00 0 0 0
120 2 1.7606480307356186e+01 1.3993781437507421e+01 1.2053666376199256e+01 0 0 0
121 1 3.0088849978138619e+00 2.7607092855366711e+00 4.3873986192330676e+00 0 0 0
1147 1 2.2270314890666626e+01 2.8870373682588969e+01 5.4112181028043080e+00 0 0 0
123 2 3.4047288957971675e+00 2.0073916805702785e+00 4.9093992480252613e+00 0 0 0
124 1 5.7355929833734898e+00 4.4558543529746890e+00 1.0984750217648438e+01 0 0 0
125 2 6.5356186352716268e+00 4.9866491371136856e+00 1.0811269411586295e+01 0 0 0
126 2 6.1321648911165783e+00 3.7062892396305553e+00 1.1460582984624747e+01 0 0 0
127 1 5.6565268545416467e+00 9.8083389827262781e+00 4.6757889758986328e+00 0 0 0
1089 2 1.1151264433250970e+01 2.5022642071405166e+01 3.3218672670047966e-01 0 0 0
129 2 6.2734362949554860e+00 1.0375732507370609e+01 4.2150989045007607e+00 0 0 0
130 1 8.3319737219709911e+00 1.1742509165540193e+01 1.1482910657696998e+01 0 0 0
1029 2 2.3172194302668501e+01 2.6544317453742799e+01 9.1556527240758789e-01 0 0 0
132 2 8.9968961312012912e+00 1.2249941943591148e+01 1.0985036842444620e+01 0 0 0
133 1 1.0651346046066708e+01 2.9728896128181397e+00 4.3580295603774450e+00 0 0 0
134 2 1.0959337919469052e+01 2.0640810536199794e+00 4.6468790534573721e+00 0 0 0
135 2 1.1365387168869443e+01 3.2936749037993844e+00 3.7679648891663828e+00 0 0 0
136 1 1.2810169458654743e+01 4.5231020747224493e+00 1.0950886956879765e+01 0 0 0
137 2 1.3642322518971906e+01 5.0742003832905240e+00 1.0853757980426881e+01 0 0 0
138 2 1.2390726016202587e+01 4.8401984495263637e+00 1.1808225081054733e+01 0 0 0
139 1 1.3195500029450596e+01 9.8327945963247654e+00 4.4733218685485898e+00 0 0 0
140 2 1.3887095183066231e+01 1.0280329109558487e+01 3.9786357302337616e+00 0 0 0
141 2 1.3457362137159361e+01 9.0180177100859495e+00 4.9062228877124223e+00 0 0 0
142 1 1.5533992592894078e+01 1.1836247128636996e+01 1.1365946009295204e+01 0 0 0
143 2 1.6212696118471243e+01 1.2141436958175548e+01 1.0721111598333808e+01 0 0 0
144 2 1.5870840282558378e+01 1.1012943042733264e+01 1.1729073323708000e+01 0 0 0
145 1 6.7307174661168103e+00 2.3588001492900128e+00 5.5017668253234167e+00 0 0 0
146 2 7.4617070389519800e+00 2.0254984165801346e+00 5.9926734436669031e+00 0 0 0
147 2 6.5075789790562748e+00 3.2792502525115053e+00 5.8572073283803148e+00 0 0 0
148 1 9.3251063838495316e+00 3.9986515701381147e+00 1.2136422404702149e+01 0 0 0
149 2 9.5696474935749425e+00 4.0782072965969780e+00 1.1184887005109399e+01 0 0 0
150 2 1.0131483296202410e+01 3.8361079136813516e+00 1.2666680535309634e+01 0 0 0
151 1 9.3693446293176521e+00 9.2679204823768870e+00 5.5189153807971021e+00 0 0 0
152 2 9.0178733075166218e+00 1.0165590038380575e+01 5.8915025694585719e+00 0 0 0
153 2 9.6815671300411577e+00 9.4412032371948396e+00 4.6079263439315188e+00 0 0 0
154 1 1.2097480187749682e+01 1.1212031462854496e+01 1.1966896249339884e+01 0 0 0
155 2 1.1437710246843970e+01 1.0446150275127728e+01 1.2086293054300445e+01 0 0 0
156 2 1.2415235266461723e+01 1.1198468782475743e+01 1.1012339903386533e+01 0 0 0
157 1 1.4122737496404772e+01 2.4105620590408359e+00 5.2230326961252196e+00 0 0 0
158 2 1.4874283807191269e+01 1.8488084344532347e+00 5.5337159421188868e+00 0 0 0
159 2 1.4366585451919882e+01 2.6706263360695539e+00 4.2975200121408017e+00 0 0 0
160 1 1.6878395353775915e+01 4.0711430028450470e+00 1.2029684108405753e+01 0 0 0
161 2 1.6586112243635554e+01 4.8687497044031920e+00 1.2451597196948024e+01 0 0 0
162 2 1.5993712242524802e+01 3.5326131191715846e+00 1.1992813787069277e+01 0 0 0
163 1 1.6625278844229214e+01 9.2765741994490298e+00 5.1677953808524579e+00 0 0 0
164 2 1.6056036111680875e+01 1.0016694564451370e+01 5.4729488266325932e+00 0 0 0
165 2 1.7057930776440919e+01 9.4857111532254912e+00 4.2872709229071333e+00 0 0 0
166 1 1.9491009656002099e+01 1.1192186106299442e+01 1.1936980199419315e+01 0 0 0
167 2 1.8949869873446652e+01 1.1951897970581102e+01 1.2249235053744497e+01 0 0 0
168 2 1.9936714355556106e+01 1.1392713810391196e+01 1.1043754871831077e+01 0 0 0
169 1 9.2149144282595259e+00 4.4149971369298893e+00 6.1624704439844944e+00 0 0 0
170 2 9.9823856916294726e+00 3.8878231021717404e+00 5.7323712173661567e+00 0 0 0
171 2 8.7034342392485122e+00 4.7636351999996869e+00 5.3982591183791175e+00 0 0 0
172 1 1.1514493162964747e+01 5.9710874930082003e+00 1.2979146954268291e+01 0 0 0
80 2 3.1089948500176781e+00 7.4452559584159097e+00 2.3795583889685762e-01 0 0 0
1011 2 1.3326414772513370e+01 1.9381944251287244e+01 7.8015637400478788e-01 0 0 0
175 1 1.1667339335932150e+01 1.1346329071868801e+01 6.1161220190039352e+00 0 0 0
176 2 1.2288673112805382e+01 1.0922461705678236e+01 5.5550400688682275e+00 0 0 0
177 2 1.2145637809650294e+01 1.2062668178197196e+01 6.5846966403338127e+00 0 0 0
178 1 1.4239561603720107e+01 1.3408073509577557e+01 1.3110712055522484e+01 0 0 0
179 2 1.3438533464654061e+01 1.3769634431876449e+01 1.2666114724364396e+01 0 0 0
180 2 1.4684464757306747e+01 1.2786957924500589e+01 1.2474350164113201e+01 0 0 0
181 1 1.6120452125800313e+01 4.4091470709431535e+00 6.3092323327228073e+00 0 0 0
1095 2 1.6284617933470166e+01 1.7978853348670071e+01 3.0278398439896126e-01 0 0 0
183 2 1.6727041196870381e+01 5.0519362059064381e+00 6.6906564234166854e+00 0 0 0
184 1 1.8827038029325024e+01 6.2808849332332848e+00 1.3001409204961309e+01 0 0 0
806 2 2.4841285308915289e+01 2.2555557247410903e+01 6.7516238679130725e+00 0 0 0
206 2 1.6528436337070900e+01 2.6407927018045054e+00 3.2510073266431689e+00 0 0 0
187 1 1.9082242484595980e+01 1.1342196469037424e+01 6.0333708045993442e+00 0 0 0
188 2 1.8663994886988604e+01 1.0708499622370899e+01 6.6266216790145771e+00 0 0 0
189 2 1.9519875037001576e+01 1.2001972347482392e+01 6.5826910010757675e+00 0 0 0
953 2 2.4467005210438707e+01 2.0918698387775855e+01 1.3059645253640891e+01 0 0 0
173 2 1.1840630439285691e+01 6.6992531422454320e+00 1.3485946137342420e+01 0 0 0
192 2 2.0781180645980626e+01 1.3122079005408988e+01 1.2417302396499348e+01 0 0 0
193 1 8.4168442432033501e+00 2.7524885313795857e+00 3.0353021609240702e+00 0 0 0
194 2 7.8207690433686112e+00 2.5018531210635970e+00 3.7071803489141253e+00 0 0 0
195 2 9.3069624980754746e+00 2.8324545263188314e+00 3.4095080162315798e+00 0 0 0
196 1 1.0645665245473541e+01 4.5915827940669889e+00 9.5787690519936621e+00 0 0 0
197 2 1.0642029575292520e+01 3.8505655997412465e+00 8.9353482387261973e+00 0 0 0
198 2 1.1504629929264210e+01 4.4980237011284316e+00 1.0038309397150472e+01 0 0 0
199 1 1.0721247803169776e+01 9.3982214074606567e+00 3.0282730090588386e+00 0 0 0
200 2 1.0718926161540068e+01 8.7396545738187932e+00 2.3259812601479375e+00 0 0 0
201 2 1.1594498062439017e+01 9.4504542489403498e+00 3.4360745453641521e+00 0 0 0
202 1 1.3494381604788414e+01 1.1573206111977113e+01 9.6448845739309217e+00 0 0 0
203 2 1.4324464013112467e+01 1.1689123131663727e+01 1.0120533095553474e+01 0 0 0
204 2 1.3550157433625962e+01 1.0750971409913596e+01 9.1383846750761659e+00 0 0 0
205 1 1.5635155939350931e+01 2.6059903937937383e+00 2.7429760679312798e+00 0 0 0
42 2 2.1051772630052319e+01 1.0594908778183823e+01 1.2768616605001286e+01 0 0 0
1131 2 1.2086250372355577e+01 2.0966777818165063e+01 5.0585106563244784e+00 0 0 0
208 1 1.8507457804457779e+01 4.2302904324384238e+00 9.4556551451923863e+00 0 0 0
209 2 1.7863732359129564e+01 4.4084487515568309e+00 1.0085912860306093e+01 0 0 0
216 2 2.0708821954746490e+01 1.0817263948287978e+01 9.0784869136533111e+00 0 0 0
211 1 1.8302110302061273e+01 9.7473880690516808e+00 2.8239951201145779e+00 0 0 0
1016 2 1.5799948632722835e+01 2.6130479088328215e+01 4.7721155439534685e-01 0 0 0
213 2 1.7925993978906149e+01 1.0407780554696888e+01 2.1790157260655789e+00 0 0 0
214 1 2.0752878039423443e+01 1.1659397534099073e+01 9.5729447850610700e+00 0 0 0
43 1 2.1755974010485261e+01 1.5274615261504552e+01 6.5273159573967208e+00 0 0 0
1566 2 8.3696827544147343e+00 5.6299884374682447e+00 2.3606415404870235e-01 0 0 1
217 1 5.6494117837615985e+00 1.0850865120372082e+00 2.0867604962189574e+00 0 0 0
218 2 1.4961709337543615e+01 2.8620785800421551e+01 2.0586998153307254e+00 0 -1 0
219 2 5.8359665766325231e+00 1.3475616696422124e+00 1.1379893735827458e+00 0 0 0
220 1 8.2221529124514401e+00 3.0921096035480424e+00 8.6767017526388077e+00 0 0 0
221 2 8.0649345101490688e+00 3.9757523755209956e+00 9.0892902272674743e+00 0 0 0
222 2 8.4002415300722220e+00 3.1856559080772389e+00 7.7637905800528690e+00 0 0 0
223 1 8.0804040878748751e+00 8.2884950106016344e+00 1.9952412893947751e+00 0 0 0
224 2 8.6132883374662566e+00 7.6436512349529764e+00 2.4332958297788960e+00 0 0 0
225 2 8.3560456310577305e+00 8.5723658977386314e+00 1.0833484337088093e+00 0 0 0
226 1 1.0757009129267203e+01 1.0434940093549011e+01 8.5171305086648204e+00 0 0 0
227 2 1.1268136222282939e+01 9.6941776308673457e+00 8.7693811634472603e+00 0 0 0
228 2 1.1123954297090300e+01 1.0617160452652509e+01 7.5501889466391985e+00 0 0 0
229 1 1.3233093894526029e+01 1.3329689294060716e+00 1.6910307110439302e+00 0 0 0
230 2 1.2315540695163435e+01 1.0729485168334230e+00 1.8947857700955688e+00 0 0 0
231 2 1.3236109803490976e+01 2.2027685769298664e+00 2.1334460412403757e+00 0 0 0
232 1 1.5437416456586758e+01 3.2232433625177466e+00 8.7063563101632173e+00 0 0 0
233 2 1.6232279463166954e+01 2.7441748408796194e+00 8.7962433220863883e+00 0 0 0
234 2 1.5518552938877939e+01 3.6197665925440381e+00 7.7989680054022408e+00 0 0 0
235 1 1.5635774403111776e+01 8.6073187592338165e+00 1.8463305075019703e+00 0 0 0
236 2 1.6039436294479131e+01 8.8478604345569885e+00 9.8251870041076594e-01 0 0 0
237 2 1.6103658621733743e+01 7.8249389456714686e+00 2.2206610025494151e+00 0 0 0
238 1 1.7931714439800679e+01 1.0030733709012706e+01 8.4362951114139726e+00 0 0 0
239 2 1.8612271548402703e+01 9.4692578857311105e+00 8.8863226035984706e+00 0 0 0
240 2 1.7877811337276405e+01 1.0785521650065869e+01 9.0421339135894101e+00 0 0 0
241 1 7.2384298269530225e+00 4.4783418494130709e+00 9.5691076152479770e-01 0 0 0
242 2 7.5601978867171606e+00 3.8900945857012408e+00 1.6865885410711932e+00 0 0 0
243 2 6.8126709248641184e+00 5.2265677473983754e+00 1.3355208963653626e+00 0 0 0
244 1 1.0256642850315918e+01 6.4607244435657627e+00 7.8483971440709563e+00 0 0 0
245 2 1.0369032464053159e+01 5.7710225259525370e+00 8.5984721298286306e+00 0 0 0
246 2 9.8903750223637168e+00 5.9004523712374013e+00 7.1274613144676939e+00 0 0 0
247 1 1.0071315880567253e+01 1.1265474514427407e+01 1.0619613225365327e+00 0 0 0
248 2 9.5123736398007512e+00 1.1921254940780132e+01 1.4932895633348593e+00 0 0 0
249 2 1.0477544967004704e+01 1.0795747960454456e+01 1.7465168634273149e+00 0 0 0
250 1 1.2485578072080942e+01 1.3284664813785042e+01 7.5472871646682611e+00 0 0 0
251 2 1.2825417486691460e+01 1.2817760580139824e+01 8.3867824261108463e+00 0 0 0
252 2 1.3180511173734612e+01 1.3897831700480205e+01 7.2117706791751894e+00 0 0 0
253 1 1.5084989051375821e+01 4.7481072624513425e+00 1.0917111629498897e+00 0 0 0
254 2 1.5435843045367415e+01 4.1548407627462920e+00 1.7649238556163265e+00 0 0 0
255 2 1.4443229082985258e+01 5.3440109859821563e+00 1.5413056867109340e+00 0 0 0
256 1 1.7626426857556673e+01 6.1655542244022756e+00 7.7897130517397324e+00 0 0 0
257 2 1.8024999655101368e+01 5.4581752887840675e+00 8.3496917065616287e+00 0 0 0
258 2 1.7010909504151087e+01 6.8016063222241163e+00 8.1347766291820101e+00 0 0 0
259 1 1.7616159378532515e+01 1.1539529419129584e+01 1.0545847638813621e+00 0 0 0
260 2 1.6952899427342061e+01 1.2177415591253938e+01 1.3960660909106730e+00 0 0 0
1135 1 1.4763942982639231e+01 2.8749017798710540e+01 5.3764658373669141e+00 0 0 0
262 1 1.9946483007500937e+01 1.3569050528196815e+01 7.7539841611603899e+00 0 0 0
263 2 2.0404316291354952e+01 1.3025475700186382e+01 8.4008354126847777e+00 0 0 0
264 2 2.0640936513206100e+01 1.4251536812677854e+01 7.5017295385488181e+00 0 0 0
265 1 9.7345185966095169e+00 6.1307773944032595e+00 2.7795927272480392e+00 0 0 0
266 2 9.0101720992893881e+00 5.6553260144655662e+00 3.1679994194231766e+00 0 0 0
267 2 1.0220016181135161e+01 5.5076148513188485e+00 2.2029446928536740e+00 0 0 0
268 1 1.2365377361325086e+01 7.9007522213721249e+00 9.5468468202849532e+00 0 0 0
269 2 1.2616250463197995e+01 7.3270560565039853e+00 8.7764805799777346e+00 0 0 0
270 2 1.1531617033829884e+01 7.4716402171507283e+00 9.8696789329747396e+00 0 0 0
271 1 1.2042978592108421e+01 1.3341333562385524e+01 2.8989430812757235e+00 0 0 0
272 2 1.2774484305929843e+01 1.3616284370620592e+01 3.4306597105484951e+00 0 0 0
273 2 1.1423601930317862e+01 1.2808766094007487e+01 3.4367507950615570e+00 0 0 0
274 1 1.4680247459892740e+01 1.4943078071388909e+01 9.3630719173200863e+00 0 0 0
275 2 1.4384346744531472e+01 1.5885600310772437e+01 9.3696046899982957e+00 0 0 0
276 2 1.5467919104173156e+01 1.4989001615541081e+01 9.9786133831094457e+00 0 0 0
287 2 2.2693466540293713e+01 1.5599366731293209e+01 9.9155733474661591e+00 0 0 0
278 2 1.6274219660757474e+01 5.9572183443387532e+00 3.2056965155763990e+00 0 0 0
212 2 1.8158421922970589e+01 8.8840559052966146e+00 2.3502780716946763e+00 0 0 0
280 1 1.9634864863144287e+01 7.9291459007461240e+00 9.5110002108459089e+00 0 0 0
432 2 1.0198667168951628e+01 1.6425517649476348e+01 1.2975380200845626e+01 1 0 0
847 1 8.7828283489749168e+00 2.1733035883012420e+01 5.2763441540900580e-01 0 0 0
283 1 1.9626407228884887e+01 1.3010821194781403e+01 2.5888707227051073e+00 0 0 0
277 1 1.6971410522417521e+01 6.5382212270507516e+00 2.8490768665665249e+00 0 0 0
190 1 2.1546007874823658e+01 1.3076493184792414e+01 1.2988137823374867e+01 0 0 0
286 1 2.1918068636998477e+01 1.5152432225629010e+01 9.4821259271220022e+00 0 0 0
1106 2 8.6327011670710281e+00 2.0397615279687209e+01 3.7929151225532185e+00 0 0 0
288 2 2.1450429136190891e+01 1.5919643414601831e+01 9.0847323840913692e+00 0 0 0
289 1 5.7982097678714837e+00 6.7358413110970474e+00 1.8210832124748970e+00 0 0 0
290 2 5.4833659245430821e+00 6.8056949027595737e+00 2.7728540991327089e+00 0 0 0
291 2 6.4823338882233639e+00 7.4191437835766516e+00 1.7590307609270674e+00 0 0 0
292 1 8.6544299540135405e+00 8.6675599063614914e+00 8.8639790930926594e+00 0 0 0
293 2 8.9174319246422318e+00 7.7911173611406763e+00 8.5212591601067480e+00 0 0 0
294 2 9.2915442793098730e+00 9.3597010915279899e+00 8.6530290529067226e+00 0 0 0
295 1 8.5500460183035756e+00 1.3692099665932846e+01 1.9720770380842347e+00 0 0 0
296 2 8.1883797307157948e+00 1.3423639433681474e+01 2.7946474353254747e+00 0 0 0
297 2 7.8627437728410845e+00 1.4116396174777181e+01 1.4700306054537440e+00 0 0 0
298 1 1.1069578901081101e+01 1.5681054874389588e+01 8.8614625072025177e+00 0 0 0
299 2 1.1432923686433172e+01 1.4926568789509041e+01 8.3664830086069841e+00 0 0 0
300 2 1.0441379820051148e+01 1.5952670482864098e+01 8.1702279177766108e+00 0 0 0
301 1 1.3339829182817422e+01 6.9018352482049314e+00 2.0109646936566699e+00 0 0 0
302 2 1.2972168515323366e+01 6.8902684077940490e+00 2.9195866485104824e+00 0 0 0
303 2 1.3975052991634497e+01 7.6166607252812444e+00 1.9416178950073042e+00 0 0 0
304 1 1.5978961308152362e+01 8.1753718890527782e+00 8.6349050258078535e+00 0 0 0
305 2 1.5751816503311105e+01 8.2976732850662014e+00 9.6143625665379133e+00 0 0 0
306 2 1.6663500828477567e+01 8.8318323016612794e+00 8.4439427827389988e+00 0 0 0
307 1 1.5899947636350239e+01 1.3787721835489791e+01 1.9316498295260105e+00 0 0 0
308 2 1.5142768231423474e+01 1.4191867322972520e+01 1.4438533274333505e+00 0 0 0
309 2 1.6649094578705878e+01 1.4314052050249927e+01 1.6727495428378962e+00 0 0 0
310 1 1.8661527231474494e+01 1.5680483394230050e+01 8.6591331404067979e+00 0 0 0
311 2 1.9052608526830667e+01 1.4788464994304775e+01 8.4917247755860963e+00 0 0 0
312 2 1.8005430807873147e+01 1.5898199076835329e+01 8.0016030734576091e+00 0 0 0
859 1 1.6564899522583964e+01 2.1937555423767826e+01 8.8869653385771441e-01 0 0 0
76 1 3.4338960862849550e+00 2.7497221673012562e+00 7.3568167669188940e+00 0 0 0
315 2 4.1797729340253928e+00 4.2350020089537690e+00 1.4703628739368113e+00 0 0 0
316 1 6.2859436000644537e+00 6.4539080541951961e+00 8.0226521214982789e+00 0 0 0
317 2 6.5110211721590998e+00 6.9820461371835751e+00 7.1823914496675378e+00 0 0 0
318 2 5.6272900039195335e+00 7.0934155127789680e+00 8.4834390330651193e+00 0 0 0
319 1 6.1972302831947799e+00 1.1660258085436123e+01 9.2045436361445754e-01 0 0 0
814 1 2.9344132897894511e+01 3.0862829312530664e+01 1.2917614689712414e+01 0 0 0
321 2 6.8228839315021199e+00 1.1446490700987608e+01 1.6381483279168103e+00 0 0 0
322 1 9.1437106463603612e+00 1.3758084031334517e+01 7.7516735531093195e+00 0 0 0
323 2 8.3769944631006972e+00 1.4309613103098973e+01 7.9042670207575449e+00 0 0 0
324 2 8.8409493925004927e+00 1.2881551409762370e+01 7.3826681068465279e+00 0 0 0
325 1 1.1393665590882799e+01 4.6611700940181882e+00 1.0773551858523176e+00 0 0 0
888 2 2.2279263285687620e+01 2.6672114082777661e+01 1.3290682403981679e+01 0 0 0
802 1 2.1813915132131235e+01 3.1128448860869170e+01 1.3303471385589351e+01 0 0 0
328 1 1.3662796039775182e+01 6.4988281501018026e+00 7.7381047954328004e+00 0 0 0
329 2 1.3118548510878300e+01 5.7745791193706655e+00 7.4354619726362072e+00 0 0 0
330 2 1.4316499247634532e+01 6.0789593088401785e+00 8.3146976613078163e+00 0 0 0
331 1 1.3758959949427673e+01 1.1615928806402001e+01 1.1056866729308408e+00 0 0 0
332 2 1.3140364155605399e+01 1.2133401150900301e+01 1.6111354505913089e+00 0 0 0
333 2 1.4428286166823041e+01 1.1306025165136360e+01 1.7573535605662298e+00 0 0 0
334 1 1.6442803424449750e+01 1.3458784052639658e+01 7.3590746252651034e+00 0 0 0
335 2 1.6975077491544987e+01 1.3951842833536379e+01 6.7295659815572622e+00 0 0 0
336 2 1.5876105384696020e+01 1.4121502708982835e+01 7.8409137943073812e+00 0 0 0
337 1 4.6215125673376107e+00 6.5784621686686551e+00 4.1915939447722756e+00 0 0 0
338 2 4.7649816538991514e+00 5.8076954805294454e+00 4.7612264194787652e+00 0 0 0
1137 2 1.5537722774890062e+01 2.9328453182891238e+01 5.4507221957494032e+00 0 0 0
340 1 6.9260447366050704e+00 8.3519249646695091e+00 1.1186757847370059e+01 0 0 0
28 1 1.4199546329092916e+01 9.9484419767862722e+00 1.3147192676319335e+01 0 0 0
342 2 7.6903060481965229e+00 8.4635710821915549e+00 1.0579341339671730e+01 0 0 0
343 1 6.9165179352130037e+00 1.3281269130118526e+01 4.4126728594478619e+00 0 0 0
815 2 2.8913575237233367e+01 3.0274169417095052e+01 1.3591942683831112e+01 0 0 0
2552 2 1.9860232757377780e+01 2.8580647521546283e+01 1.3690148390165607e+01 0 0 0
346 1 9.6367971040031666e+00 1.5269599151208380e+01 1.1397701887762052e+01 0 0 0
347 2 1.0144010891493847e+01 1.5174968701843760e+01 1.0577530361714009e+01 0 0 0
348 2 9.9935867215421474e+00 1.4458245935338367e+01 1.1839357361901925e+01 0 0 0
349 1 1.2167483219652256e+01 6.5054281228716055e+00 4.3175139416736146e+00 0 0 0
350 2 1.2065833739026807e+01 7.1595566872939642e+00 5.0034533340445275e+00 0 0 0
351 2 1.1297533985775580e+01 6.4528421460548175e+00 3.9205547894235599e+00 0 0 0
352 1 1.4576092305311429e+01 8.1601708710453629e+00 1.1187326137234603e+01 0 0 0
353 2 1.4620297344915477e+01 7.2654540076654923e+00 1.1573099998248180e+01 0 0 0
354 2 1.3743727414432572e+01 8.2298455609533310e+00 1.0697898742621405e+01 0 0 0
355 1 1.4415228629021444e+01 1.3615046022794882e+01 4.1517775928093563e+00 0 0 0
356 2 1.4718136578784886e+01 1.2809230896202431e+01 4.6280688056359232e+00 0 0 0
357 2 1.5127067666094844e+01 1.3709155515649670e+01 3.4079226652257737e+00 0 0 0
358 1 1.6809613492009731e+01 1.5479577427265898e+01 1.0889254349854992e+01 0 0 0
359 2 1.6931205948702306e+01 1.6012417300247051e+01 1.1683690987483770e+01 0 0 0
360 2 1.7473214390807399e+01 1.5598625059909889e+01 1.0197123694737042e+01 0 0 0
361 1 7.0856303767297790e+00 7.6347085442591762e+00 5.3688067050571195e+00 0 0 0
362 2 6.4366195839703533e+00 8.3568557280427651e+00 5.1602699078865868e+00 0 0 0
363 2 7.8714043364772053e+00 8.1565463054898473e+00 5.4033979965423260e+00 0 0 0
364 1 9.8894086188172583e+00 9.4297200066023219e+00 1.2319107160843361e+01 0 0 0
365 2 9.3010976995545196e+00 1.0212749734497367e+01 1.2215213433304703e+01 0 0 0
366 2 9.6787221142003439e+00 9.0460506386046955e+00 1.3228828770293442e+01 0 0 0