LAMMPS data file via write_data, version 15 Apr 2020, timestep = 0

6144 atoms
2 atom types

-1.3438498012832589e+00 6.1312138932465388e+01 xlo xhi
0.0000000000000000e+00 2.8067272891391319e+01 ylo yhi
0.0000000000000000e+00 2.7128616383918175e+01 zlo zhi
1.0162294928818163e+01 1.0185256122806877e+01 7.1147144880124245e+00 xy xz yz

Masses

1 16
2 2

Atoms # atomic

1595 2 1.9336363387907998e+01 1.9933718303423941e+01 1.8923424668556429e+01 0 0 0
1604 2 1.0392211148677815e+01 1.0329148799644324e+01 6.8581047499369455e-02 0 0 1
1012 1 1.5052034176936598e+01 9.2351223723903608e+00 2.1763022196079561e+01 0 0 0
987 2 1.5760378175009091e+01 1.3967166486582698e+01 2.0849410106910884e+01 0 0 0
225 2 8.6737578325851263e+00 6.5906827229680944e+00 4.0057220393029329e+00 0 0 0
52 1 1.4668957960078561e+01 2.3474438264443467e+01 9.8516859171090374e+00 0 -1 0
25 1 1.3801307196320661e+01 1.1654122652322004e+01 1.0686090351121585e+01 0 0 -1
1625 2 1.6169355715935581e+01 1.6083431023814839e+01 1.8286782377809704e+01 0 0 0
2464 1 1.0897455548331395e+01 1.8461702864194248e+01 4.5298920088371757e+00 0 1 0
886 1 1.6361862738474585e+01 2.2843790055199531e+01 1.8648067752373390e+01 0 1 -1
1633 1 1.8678750779533360e+01 1.4578690006732952e+01 2.1243095477321663e+01 0 0 0
849 2 1.7026122410609627e+01 1.7854027838899377e+01 1.0575209665076137e+01 0 0 -1
2443 1 1.2480197022059556e+01 8.6136281992815285e+00 8.6755342826111175e+00 0 1 0
358 1 1.8950604962347715e+01 2.2007172238787199e+01 2.5666884268840569e+01 0 0 0
2466 2 1.0208844251161779e+01 1.7895744965726475e+01 4.8173111000516364e+00 0 1 0
1895 2 1.1552145345913603e+01 1.0004375146456187e+01 5.6047904752024351e+00 0 0 1
1670 2 6.1347772867629367e+00 5.2218356081344171e+00 2.1913819787388884e+00 0 0 0
1634 2 1.8380410077891664e+01 1.4587120780888974e+01 2.2187937902959941e+01 0 0 0
1064 2 1.2056792581615397e+01 4.9865092988108897e+00 1.8845429850248340e+01 0 1 -1
1894 1 1.0990260594034515e+01 1.0302499116811653e+01 6.3280969135372818e+00 0 0 1
1740 2 6.6961582816299980e+00 9.3677336970166074e+00 7.8193995521016724e-01 0 0 1
1916 2 1.8938891106160096e+01 2.3202083176639505e+01 1.6790636543565984e+01 0 0 0
611 2 1.7106031962256903e+01 3.1352586851524613e+01 1.6089812941863499e+01 0 0 0
1709 2 1.1613298747210118e+01 9.2343885408651190e+00 1.7726709403817910e+01 0 0 0
1470 2 2.9076725144276594e+01 2.9127830017672494e+01 2.6017713249745022e+01 0 0 0
53 2 1.4498985008456394e+01 2.4308837479365064e+01 1.0320800861848339e+01 0 -1 0
1587 2 1.3928151323607608e+01 1.4185714781336483e+01 1.3503456040253413e+01 0 0 0
1586 2 1.2803394698588354e+01 1.3198547334934359e+01 1.3313788865649679e+01 0 0 0
1675 1 1.0535008380649050e+01 1.7563470768538579e+01 1.5524536069784725e+01 0 0 0
2564 2 1.1051388125099725e+01 8.1533767288299774e+00 3.8040132425293778e+00 0 1 0
416 2 1.2156601032709013e+01 1.8083533663813654e+01 1.7680724337740802e+01 0 0 0
1871 2 1.5179952693300010e+01 2.4210542477479763e+01 2.0973717805774076e+01 0 0 0
610 1 1.6722759820462230e+01 3.0467146833271364e+01 1.6173576428322409e+01 0 0 0
1275 2 6.4767695722003484e+00 7.3099958750901930e+00 1.9651937651815192e+00 0 0 0
2025 2 2.6679598493090577e+01 1.4318261928885651e+01 2.6878942400691631e+01 0 0 0
2450 2 1.6009600830081038e+01 2.1033359975954674e+01 2.1866739759279650e+01 0 0 0
1708 1 1.1617700055386619e+01 8.4405088233837500e+00 1.8380279508197908e+01 0 0 0
27 2 1.4007686157368120e+01 1.2524383414873386e+01 1.0406960051823509e+01 0 0 -1
907 1 2.1258698407390170e+01 2.2791566790668199e+01 2.3305618437784325e+01 0 0 -1
99 2 1.6782916773431527e+01 1.0513681206941754e+01 2.1033527990192460e+00 0 0 0
1561 1 1.2501002277094113e+01 1.6477780301240216e+01 1.4476347393927130e+01 0 0 0
1901 2 1.2517455343726381e+01 1.2017526243162557e+01 2.4631437072951954e+01 0 0 0
1140 2 2.1505419370114318e+01 1.5752849049585510e+01 9.7459902557065945e+00 0 1 -1
1880 2 9.3316307866180139e+00 9.9124787599464455e+00 2.0743260987174565e+01 0 0 0
924 2 1.8650929996713376e+01 2.0452721061235010e+01 1.2109959731984231e+01 0 0 0
858 2 2.1754316121079331e+01 1.1411149546795292e+01 1.1972039793551893e+01 0 0 0
224 2 8.1154695847297749e+00 5.1603758234186241e+00 3.9802533610137925e+00 0 0 0
1781 2 1.3679605270485476e+01 7.3716325314274851e+00 1.5509790633925975e+01 0 0 0
1710 2 1.2061574265592760e+01 8.8440986532064656e+00 1.9149950682613824e+01 0 0 0
1689 2 1.1319893405575593e+01 9.3815807445372528e+00 1.2208942442875362e+01 0 0 0
1705 1 1.5450403273955363e+01 1.5935414982251876e+01 1.6532728763187965e+01 0 0 -1
1773 2 9.4469859151857154e+00 2.5927528865758120e+01 9.8504573533200718e-02 0 0 0
1733 2 1.2563746318061733e+00 5.3698813891229058e+00 9.5347830959566193e-01 0 1 0
1570 1 1.0285577189834754e+01 1.1820846486937334e+01 1.4705710192427524e+01 0 0 1
2314 1 1.4513917621862891e+01 2.0521779773114016e+01 1.3035722272681291e+01 0 0 1
1129 1 1.3416433611417524e+01 1.7035900718298912e+01 2.2077104642373033e+01 0 0 -1
2360 2 1.0481494012266261e+01 1.3400851366932461e+01 8.0408779307959222e+00 0 0 0
1635 2 1.7880798316949640e+01 1.4127745734019477e+01 2.0801060894689307e+01 0 0 0
1017 2 1.0164365316753315e+01 7.0499341609340602e+00 1.4978131739005258e+01 0 1 -1
2044 1 2.3239224904695785e+01 1.1013704239208383e+01 2.3287194970862867e+01 0 0 0
331 1 6.3579164763963920e+00 5.5656922089299776e+00 1.9857011346071292e+01 0 1 0
1734 2 1.7102760180174785e+00 4.3627937469336731e+00 2.0606973324479907e+00 0 1 0
896 2 1.8491448594220291e+01 2.9521044402495654e+01 2.2794053897918943e+01 0 0 -1
868 1 7.6918355395699400e+00 1.4362316606862336e+01 6.6137755510425320e+00 0 0 0
944 2 6.4485663808245173e+00 1.1764307258004273e+01 3.2552353841684112e-01 0 1 0
1571 2 1.0953489860367213e+01 1.1359521631564721e+01 1.4125205337021269e+01 0 0 1
1659 2 1.6381251837484914e+01 2.7575266520216225e+01 2.2815069366803392e+01 0 -1 0
894 2 9.2332433400537646e+00 1.7501885270607236e+01 7.0372200553140454e+00 0 0 0
109 1 1.7696826681616773e+01 4.9506208801201623e+00 9.6498827576529944e+00 0 0 0
1274 2 7.2740830265210885e+00 8.3407667491784423e+00 2.8040211488687352e+00 0 0 0
1113 2 1.2346534797913595e+01 2.3588499711427392e+01 1.1920966193367702e+01 0 0 0
1669 1 6.0963524075015840e+00 5.7921856709465303e+00 1.3760887898635086e+00 0 0 0
1063 1 1.2950783123229453e+01 5.0348639953183723e+00 1.8416362219054726e+01 0 1 -1
1671 2 6.9754326721546285e+00 5.5679613595344284e+00 9.6315700436195739e-01 0 0 0
1791 2 5.1980358384772414e+00 8.4775172021246359e+00 3.6378223028373133e+00 0 0 1
342 2 2.5288522252380631e+01 1.7424850137816346e+01 2.0511350788355998e+01 0 0 -1
846 2 1.7279550410151852e+01 1.9605808683403819e+01 2.3110047945296149e+01 0 0 -1
359 2 1.9494085922165677e+01 2.2587619348102834e+01 2.6214352325152994e+01 0 0 0
1739 2 8.0235128899402532e+00 1.0172213148886467e+01 3.2515865364045110e-01 0 0 1
822 2 1.6777496557866467e+01 2.6328417694638766e+01 2.6833961921759983e+01 0 0 -1
1062 2 9.8977196908692768e+00 9.2733690487604257e+00 2.6740482546692530e+01 0 1 -1
69 2 2.4344901095722726e+01 2.5562590324558855e+01 6.6162614839500806e+00 0 -1 -1
887 2 1.6026027797686208e+01 2.3598427491402369e+01 1.9100972370096517e+01 0 1 -1
2465 2 1.0958167535489812e+01 1.8392827308315841e+01 3.5198973105126217e+00 0 1 0
54 2 1.3897196712110354e+01 2.2912908856535370e+01 9.9926295173177859e+00 0 -1 0
102 2 5.8490470146925659e+00 9.1812258613570812e+00 9.1919333784449204e+00 0 0 0
223 1 8.8820283709375865e+00 5.6703129255925599e+00 3.7158404917212784e+00 0 0 0
1917 2 1.7823975572789557e+01 2.2624295276926233e+01 1.7593659684918663e+01 0 0 0
353 2 1.8170183322752365e+01 9.4406714304452137e+00 6.0296453934918812e+00 0 0 0
2407 1 9.3924895370156243e+00 1.5741482120303484e+01 9.6702217608274665e+00 0 0 0
1687 1 1.1658497406799984e+01 8.9565013155671487e+00 1.3009474357166079e+01 0 0 0
986 2 1.6294215578542548e+01 1.4121396458035614e+01 1.9395548163410012e+01 0 0 0
1706 2 1.5548984604650698e+01 1.4960963535748071e+01 1.6518886569010945e+01 0 0 -1
1703 2 1.0445914583309619e+01 1.3474106055660023e+01 1.5427946723337412e+01 0 0 0
1374 2 2.7205352366205826e+01 2.6122518494391183e+01 2.6736930311721583e+01 0 0 -1
1688 2 1.2539779926062508e+01 8.5586966446175410e+00 1.2732343437570856e+01 0 0 0
228 2 1.2842007910811684e+01 2.6014588446547865e+01 5.2091283007148403e+00 0 0 0
47 2 9.3135173770309247e+00 2.3055226571246081e+01 7.6171557359649062e+00 0 0 0
922 1 1.8360759398590456e+01 1.9755279021353914e+01 1.2706280191464412e+01 0 0 0
2409 2 9.4764434336118271e+00 1.6270510741615318e+01 1.0487018031201359e+01 0 0 0
845 2 1.7529358729677131e+01 1.8182513391976130e+01 2.3930654621000361e+01 0 0 -1
1563 2 1.1804115588295982e+01 1.6501268964768084e+01 1.5194052875144344e+01 0 0 0
908 2 2.0924224312052825e+01 2.2656948422699685e+01 2.4167873807494331e+01 0 0 -1
893 2 1.0745495803235260e+01 1.7703391525230966e+01 7.4100955206800654e+00 0 0 0
28 1 2.2951014869984256e+01 2.4040300060942073e+01 1.5203544875426962e+01 0 0 0
2652 2 2.6929093128305947e+01 2.6480787406200342e+01 2.0880039032523186e+01 0 0 0
870 2 8.6461879250753313e+00 1.4434343005484731e+01 6.6619621809960545e+00 0 0 0
300 2 1.4865317410409443e+01 1.9920535889844484e+01 5.5230557197399701e+00 0 0 0
1585 1 1.3507353402365688e+01 1.3418045715963068e+01 1.3950944622542295e+01 0 0 0
2414 2 1.4253024150967974e+01 1.8195991959040818e+01 1.2383112009054088e+01 0 0 1
2436 2 2.0241691007675680e+01 2.2218354563258409e+01 1.2489064234594574e+01 0 0 0
2441 2 2.1375999710218412e+01 1.8467714931356852e+01 8.8455663484058658e+00 0 0 1
847 1 1.6756413978438012e+01 1.8711528170697292e+01 1.0915634341118798e+01 0 0 -1
1562 2 1.2992401669663744e+01 1.5679457691238229e+01 1.4561381395888688e+01 0 0 0
1015 1 9.6167310647631581e+00 7.5220461070134963e+00 1.4341588805034890e+01 0 1 -1
2382 2 1.0938457802209580e+01 2.1579680934541237e+01 1.4726231341038432e+01 0 0 0
949 1 2.1515440322033612e+01 2.7553708810238799e+01 1.6031036229367935e+01 0 -1 0
30 2 2.2937997417523608e+01 2.4926543562110627e+01 1.4782722926085352e+01 0 0 0
2380 1 1.1408556071126887e+01 2.2164429651118169e+01 1.5367892140501249e+01 0 0 0
612 2 1.5747130910775798e+01 3.0592659925837374e+01 1.6353369839467376e+01 0 0 0
150 2 1.1429461113036066e+01 7.4456480681974364e+00 2.4332074549633145e+01 0 0 -1
2440 1 2.0620067511042464e+01 1.8326464311264072e+01 8.2542750133717835e+00 0 0 1
98 2 1.7026823313035631e+01 1.1155383192129635e+01 3.5674097461554957e+00 0 0 0
2408 2 9.6721479141338857e+00 1.6351503601886442e+01 8.9295381090703767e+00 0 0 0
369 2 1.6463697580074957e+01 1.1072976974379717e+01 1.1874600466945067e+01 0 0 -1
1065 2 2.3209614064182880e+01 3.2230669671335441e+01 1.8021397327348449e+01 0 0 -1
1130 2 1.3946140487096830e+01 1.6256629987923851e+01 2.2006690148571643e+01 0 0 -1
2355 2 2.2863085281967901e+01 2.5247754196225422e+01 2.3000486055862243e+01 0 0 0
962 2 2.4616605379403481e+01 2.7502732114745694e+01 2.3676284002109892e+01 0 0 -1
888 2 1.5656133080304453e+01 2.2569776118309985e+01 1.8006947266221999e+01 0 1 -1
1135 1 1.1477724538378776e+01 1.0661486336199495e+01 2.4360726124343429e+01 0 1 -1
299 2 1.4234152759584783e+01 1.8519248175535367e+01 5.0395721152174628e+00 0 0 0
626 2 9.6737037356731062e+00 6.1759867048846768e+00 2.3703007969362968e+00 0 0 0
873 2 1.3594459969831600e+01 1.4914235485242969e+01 1.6864330084281548e+01 0 0 0
105 2 9.4197821188259372e+00 1.0894819573197518e+01 1.0438265739200258e+01 0 0 0
2311 1 2.1660452004315733e+01 1.6113391653840750e+01 2.6741561944706262e+01 0 1 -1
1515 2 9.0832502273102715e+00 2.0393796318729343e+01 1.2238941563713512e+00 0 0 0
1896 2 1.1665737834905926e+01 1.0432695122735275e+01 7.0403842923170057e+00 0 0 1
1546 1 1.4498296598004883e+01 1.7853362248454189e+01 2.4428308164150490e+01 0 1 0
984 2 2.0345132413647768e+01 8.8126046603380779e+00 1.1344344526069417e+01 0 1 -1
588 2 6.1210400572891182e+00 1.1027492447052801e+01 5.4568613760883817e+00 0 0 0
909 2 2.1481154314398985e+01 2.3760498040915298e+01 2.3282804850970582e+01 0 0 -1
2668 1 2.1502062861315171e+01 2.5210778727383481e+01 1.2292690488534179e+01 0 0 0
2354 2 2.2688683733110821e+01 2.4800301439593262e+01 2.4456856648452572e+01 0 0 0
1875 2 1.3193668136045144e+01 2.5975639835850682e+01 9.0150317763538421e+00 0 -1 0
2374 1 2.9423414220805011e+00 3.3091563379861473e+00 7.8817568753302352e+00 0 1 1
1273 1 6.5423893150002739e+00 8.2573490796956932e+00 2.1788181606906334e+00 0 0 0
1132 1 9.2205938120805300e+00 8.4393394003668032e+00 7.5674369420301533e+00 0 1 0
1780 1 1.3889859573413833e+01 6.9428668642626779e+00 1.4680144177986778e+01 0 0 0
898 1 1.5058011720521240e+01 2.5904766552461890e+01 1.7836659478992694e+01 0 0 0
1514 2 8.6530124541131404e+00 2.1280729268334319e+01 2.3595814175571719e+00 0 0 0
945 2 6.9175172279616053e+00 1.3176158138130170e+01 7.5357118125166400e-01 0 1 0
352 1 1.7247092620452356e+01 9.6559411782386935e+00 6.2420931035744616e+00 0 0 0
961 1 2.4509110251750368e+01 2.8093790595953962e+01 2.2830439925783590e+01 0 0 -1
885 2 1.6325493074569913e+01 6.2140599243579002e+00 1.6187657721217995e+01 0 1 -1
1106 2 1.5766507856317940e+01 2.3419099099465445e+01 2.5921172363744979e+01 0 0 -1
2316 2 1.4702236103833688e+01 1.9935788934413559e+01 1.3778551986003116e+01 0 0 1
975 2 1.4411687545364725e+01 2.8414388445664361e+01 8.2822937986139600e+00 0 0 0
818 2 1.7550015290999887e+01 3.2571790638625245e+01 1.8620630915236209e+01 0 0 -1
775 1 5.4625603114314529e+00 2.1009090947010671e+00 4.2140491804383480e+00 0 1 0
1603 1 9.5773237165796914e+00 1.0876326107107314e+01 3.6466511712191008e-02 0 0 1
1779 2 2.5735094431298432e+01 2.0111124574585538e+01 2.7100869775516458e+01 0 0 -1
1605 2 1.9873303497380508e+01 1.8623800749476757e+01 2.6391810327649456e+01 0 0 0
2532 2 1.4054545782657515e+01 2.4933824074857064e+01 1.6846099676228786e+01 0 0 0
751 1 1.2470279489369329e+01 1.9250043103910322e+01 1.6256200829200985e+01 0 0 0
100 1 5.2029603910300937e+00 8.4371766228417542e+00 8.9917860445018061e+00 0 0 0
1877 2 1.2361689221860750e+01 7.4931156803522629e+00 2.2343455129813165e+01 0 0 0
2669 2 2.0960947669192283e+01 2.4580908938290978e+01 1.2771003470785901e+01 0 0 0
2323 1 1.1317947896400069e+01 2.3600863258468586e+01 2.4748151245283272e+00 0 1 1
1045 1 2.4501863687294009e+01 2.8828690712316384e+01 1.4490663502253248e+01 0 0 0
1016 2 1.0320366398406403e+01 8.0498491045249665e+00 1.3822572065301312e+01 0 1 -1
2283 2 1.7017200929574990e+01 2.4476422640637086e+01 8.3252152660963201e+00 0 -1 0
821 2 1.8166936907688669e+01 2.6104687167000286e+01 2.6161601243773699e+01 0 0 -1
97 1 1.7363731282216879e+01 1.0516249208577387e+01 2.9003781191336202e+00 0 0 0
2361 2 1.0688603956791553e+01 1.4297987660916228e+01 9.2630715148649205e+00 0 0 0
843 2 1.3720971782266304e+01 2.1842905384864999e+01 2.5106762891335979e+01 0 0 -1
1513 1 8.3454991597303270e+00 2.0501154164032492e+01 1.8005881262063885e+00 0 0 0
1078 1 1.7932238244703864e+01 2.5809653659187845e+01 1.9680391308386159e+01 0 0 0
963 2 2.5390191557720666e+01 2.8501668343590474e+01 2.2717333559836330e+01 0 0 -1
1547 2 1.4073182953180623e+01 1.7674641441595899e+01 2.3569139825343338e+01 0 1 0
2353 1 2.2202172287315914e+01 2.5260420106213850e+01 2.3730879687375310e+01 0 0 0
917 2 3.6286696254085857e+00 8.0151357322245538e+00 6.0221777037669122e-01 0 1 0
417 2 1.2874452336007906e+01 1.7505554807773017e+01 1.9029754840905454e+01 0 0 0
985 1 1.6310700319198684e+01 1.3518981003952693e+01 2.0186563827772524e+01 0 0 0
1884 2 1.1474660990688179e+01 1.9061010221642331e+01 1.2809667857400823e+01 0 0 0
76 1 1.5109609872608644e+01 2.6341950792413527e+01 3.1199603297988099e+00 0 -1 0
298 1 1.4947879757764188e+01 1.9204820498753080e+01 4.9388054001946697e+00 0 0 0
1707 2 1.6287330006106028e+01 1.6166408258256283e+01 1.6020943156334415e+01 0 0 -1
219 2 1.0534970369956186e+01 1.9084297794224288e+01 9.0014161636826717e+00 0 -1 0
1790 2 5.3362005060105346e+00 8.3192589031384205e+00 5.1393883121896256e+00 0 0 1
2396 2 1.4950858062724866e+01 3.0073168948252803e+01 1.0421497956598465e+01 0 0 0
1079 2 1.8588722005463321e+01 2.6488089954161467e+01 1.9937039555639910e+01 0 0 0
883 1 1.6966964984050907e+01 6.8414449769614372e+00 1.5824313781333712e+01 0 1 -1
2442 2 2.0975869709064892e+01 1.7763787106335510e+01 7.5292640127454531e+00 0 0 1
1915 1 1.8749605161501520e+01 2.2448058667445096e+01 1.7315980632330241e+01 0 0 0
2451 2 1.4730174345843249e+01 2.0754501124952576e+01 2.2755196520469408e+01 0 0 0
2315 2 1.4013126623644094e+01 2.1372322821281394e+01 1.3343139601764376e+01 0 0 1
1970 2 2.1916853775977707e+01 1.6999561519585786e+01 5.2326488313543953e+00 0 0 0
983 2 1.8894664707122960e+01 8.8088538812333770e+00 1.2110262332533937e+01 0 1 -1
923 2 1.7639119979027676e+01 1.9316965114807093e+01 1.2150343314925994e+01 0 0 0
2572 1 1.4847377982078971e+01 2.2044324182067669e+01 1.6561708453028636e+01 0 0 0
354 2 1.6777188980692127e+01 8.7994124491813572e+00 5.9483393115271754e+00 0 0 0
156 2 2.0054585006839257e+01 2.9503340921742609e+01 9.2268173949418113e+00 0 -1 0
1589 2 1.1926138742290007e+01 2.3950671480427019e+01 5.5105267334128705e+00 0 -1 1
1616 2 1.2563511806854638e+01 2.2779863691061522e+01 1.3975224720140131e+01 0 -1 0
1050 2 1.0287315377841699e+01 1.9991113311710663e+01 5.1693386491946214e+00 0 0 0
1081 1 2.1209796155840884e+01 1.1793554995578788e+01 1.7619654835052934e+01 0 0 -1
1594 1 1.9969781766975654e+01 2.0650511561856700e+01 1.8732106360907959e+01 0 0 0
2445 2 1.2174933997504199e+01 7.6804524376672507e+00 8.5713038335046541e+00 0 1 0
1588 1 1.1582451168156199e+01 2.4635281232232515e+01 4.9553327244111101e+00 0 -1 1
1150 1 1.6904131560629875e+01 1.9072257340685169e+01 1.6286351230213885e+01 0 0 0
1841 2 2.3988148602181294e+01 1.7954246525364994e+01 2.4727691461196514e+01 0 0 0
313 1 1.4668674113796740e+01 1.8270801085414355e+01 1.4871675419701109e+01 0 0 -1
1118 2 2.3393638337773893e+01 2.8342238785678134e+01 1.9891363038921511e+01 0 0 -1
1872 2 1.6319306984327270e+01 2.5195482203730396e+01 2.0486897794640161e+01 0 0 0
2613 2 1.5863479411950419e+01 2.1439921086199924e+01 1.2116772100300880e+01 0 0 1
1133 2 9.8764458062290998e+00 8.8362433333198176e+00 7.0087839762115562e+00 0 1 0
1762 1 1.0539245058159207e+01 9.5140943947920142e+00 1.0583578564722607e+01 0 0 0
2556 2 2.0361908100192810e+01 1.9349840524729114e+01 2.1556078610150017e+01 0 0 0
2548 1 1.9278020386892941e+01 1.1034006493848551e+01 2.3434971596368101e+01 0 1 0
1870 1 1.5526371058204628e+01 2.4734778450763930e+01 2.0259325634112233e+01 0 0 0
1662 2 1.9775260009024468e+01 2.5627692944437950e+01 2.4963150783525371e+01 0 -1 0
1136 2 1.1235039916976829e+01 1.0288715711605454e+01 2.5168648124408001e+01 0 1 -1
1736 2 1.4569705200777719e+01 1.4820575730292054e+01 1.0928047889654191e+01 0 0 0
376 1 2.2283825212280110e+01 3.2499800299176307e+01 2.2439131002594138e+01 0 -1 0
1109 2 2.3363453281231440e+01 3.0925114925715601e+01 1.2362464932442045e+01 0 -1 0
372 2 1.2768158936853517e+01 9.3345715159049476e+00 2.0953398989283350e+01 0 0 0
149 2 1.2082328772731501e+01 8.8122735173433533e+00 2.3850131109305227e+01 0 0 -1
2555 2 1.9040432059853263e+01 1.8778888679992740e+01 2.2328691369925057e+01 0 0 0
374 2 6.5024149563572484e+00 6.8405885291079658e+00 6.7977808305528766e+00 0 0 0
1801 1 1.7211565426373163e+01 2.1406073817772047e+01 1.4909540428956388e+01 0 -1 0
442 1 9.9071631758887477e+00 3.3465275033997228e+00 1.3817667266890301e+00 0 0 0
2601 2 1.8015984714123881e+01 2.1167095406710580e+01 5.0762864061226187e+00 0 0 0
2600 2 1.7880235055631633e+01 2.1958505080878744e+01 6.3378229187505806e+00 0 0 0
188 2 1.3452599020780831e+01 2.0485671799853197e+01 1.1348524364150087e+01 0 0 0
2444 2 1.3335749817124874e+01 8.5292037972109060e+00 9.1875301278321739e+00 0 1 0
1811 2 3.4151799776729987e+00 4.1162504350777240e+00 1.1096066495732019e+01 0 1 0
2642 2 1.9362230715487815e+01 3.0917943428431091e+01 1.1610755401222979e+01 0 -1 1
2307 2 1.6877508248761316e+01 2.7625615966893537e+01 6.8348103249001779e+00 0 -1 0
1119 2 2.3783746810793492e+01 2.7659205461566454e+01 2.1221865439641377e+01 0 0 -1
1088 2 2.0101958652574002e+01 3.4681401510549520e+01 2.5495528152213787e+01 0 0 -1
217 1 1.1496220282721385e+01 1.9177622718589014e+01 9.1545303229548622e+00 0 -1 0
269 2 1.9215295914441501e+01 1.6076967608906259e+01 2.0424606749935641e+01 0 -1 -1
2306 2 1.7723094395750710e+01 2.7642134139979714e+01 5.5545650431656259e+00 0 -1 0
198 2 1.7987507273372270e+01 3.0288153293965841e+01 9.0628154698340779e+00 0 -1 0
1089 2 1.9714352071879116e+01 3.4229741495673700e+01 2.4125537022200110e+01 0 0 -1
2468 2 1.4197462344792353e+01 9.3985523379744649e+00 6.1473187856013247e+00 0 0 1
2570 2 1.9723890732466860e+01 2.2377675475038515e+01 7.4909130483110538e+00 0 0 0
776 2 4.5708761489633432e+00 1.8271583602377683e+00 3.9404200996655749e+00 0 1 0
555 2 2.6397211024712835e+01 1.9422569837167067e+01 2.0574865814243992e+01 0 0 -1
1061 2 7.0477500976914342e-01 3.0712195198981593e+00 3.2447690688340680e-01 0 1 0
1103 2 1.2035341837321178e+01 1.3400155309986168e+01 2.2367579739747804e+01 0 1 -1
2604 2 1.7375548300628314e+01 1.3837619887210099e+01 2.4149997926570482e+01 0 1 0
2397 2 1.5289523849570816e+01 3.0315729278179820e+01 1.1920093964230972e+01 0 0 0
1134 2 8.5119670255490139e+00 8.1930788745484016e+00 6.9480669666883381e+00 0 1 0
2644 1 1.4515785938095600e+01 1.1459036439513643e+01 1.9312215182037484e+01 0 0 0
3026 2 1.6732473512013410e+01 4.3330529081179643e+00 1.5708390531616983e+01 0 1 0
433 1 2.0808945666134118e+01 1.8530252559963390e+01 1.2613219255001706e+01 0 0 -1
1735 1 1.4813761577798537e+01 1.5161678806027329e+01 1.1803792316184950e+01 0 0 0
2646 2 1.5310365065937365e+01 1.0824589793067853e+01 1.9155188009295721e+01 0 0 0
2413 1 1.4478793054493131e+01 1.7671555641221644e+01 1.1579203528055483e+01 0 0 1
895 1 1.8905586555005659e+01 3.0046386326564395e+01 2.2031914471331078e+01 0 0 -1
2603 2 1.7506436475037187e+01 1.5470360362291611e+01 2.4128183918758801e+01 0 1 0
2554 1 1.9827113076017252e+01 1.8514942742155235e+01 2.1770974783809429e+01 0 0 0
2629 1 8.6940210700214653e+00 7.6222423174139990e+00 1.0178323010207746e+01 0 0 0
2305 1 1.7825373001533180e+01 2.7557836842929447e+01 6.5431934938533161e+00 0 -1 0
443 2 1.0250506851559242e+01 2.4437770941297217e+00 1.2224628192623470e+00 0 0 0
1859 2 1.0782367281547495e+01 1.5061397673703103e+01 2.2746737019554605e+01 0 0 0
632 2 9.2503386771347529e+00 1.5260004862992437e+01 1.4688986086541494e+01 0 0 0
2259 2 2.7777929527708906e+01 2.2037285560972052e+01 2.3959415519180308e+01 0 0 0
2641 1 8.7037021136008086e+00 3.2645244760870318e+00 1.2351180283114783e+01 0 0 1
897 2 1.9248871481800354e+01 3.0905203856641677e+01 2.2471665113130612e+01 0 0 -1
318 2 2.1396669217679406e+01 2.8445590334534081e+01 2.3522835948953183e+01 0 -1 -1
725 2 7.8454173936572325e+00 4.3332835101053142e+00 6.5941004731432598e+00 0 0 1
2456 2 2.3418273292035156e+01 2.2346172168507902e+01 2.5450659274640032e+01 0 0 0
1672 1 9.0311037719598488e+00 3.9149422772230418e+00 9.2108703088108879e+00 0 0 0
1617 2 1.3752281236098540e+01 2.3754047218419409e+01 1.3494285677384637e+01 0 -1 0
1117 1 2.3315472279664466e+01 2.7484313874057246e+01 2.0352239105646110e+01 0 0 -1
1737 2 1.5730382257828428e+01 1.4973328902720304e+01 1.2066082833499957e+01 0 0 0
1909 1 1.5513298869188077e+01 1.3247250930624405e+01 1.6962954462741262e+01 0 0 0
1682 2 6.3989959716569444e+00 5.0645096712721873e+00 8.2286573828014813e+00 0 0 0
368 2 1.5853393070545781e+01 1.1386150031515186e+01 1.3248497726461498e+01 0 0 -1
197 2 1.6965065453876623e+01 2.9038957743139211e+01 9.3489366707173698e+00 0 -1 0
759 2 1.8943120267403291e+01 2.6189963824218108e+01 6.7660321712845644e+00 0 -1 0
2576 2 6.3217658684562767e+00 3.6587365284637849e+00 1.0122180572500540e+01 0 1 0
444 2 1.0690321115247494e+01 3.8607075867683873e+00 1.4256488624220645e+00 0 0 0
2513 2 2.0554935740493072e+01 2.7125573293126642e+01 2.0076117199208845e+01 0 0 0
1620 2 7.0971602911364613e+00 1.7985641308218042e+01 6.5889346170031944e+00 0 0 1
1681 1 6.4999986222347328e+00 5.1554064354515114e+00 7.2440983042156999e+00 0 0 0
2467 1 1.3893076659322775e+01 8.5276330226456931e+00 6.3509004262196740e+00 0 0 1
1596 2 1.9482424594697751e+01 2.1238803311059478e+01 1.8171868545722706e+01 0 0 0
1621 1 1.1864662985558958e+01 1.3129227571654255e+01 1.9066876914075930e+01 0 0 -1
1622 2 1.2597397781803261e+01 1.3565933805192778e+01 1.8511313778358481e+01 0 0 -1
1151 2 1.7028029523647280e+01 1.9845437033383654e+01 1.5735939564228641e+01 0 0 0
2531 2 1.3196601164512588e+01 2.4767549847675479e+01 1.5509119864930218e+01 0 0 0
316 1 2.0802329345061285e+01 2.7645263006999265e+01 2.3354953347647310e+01 0 -1 -1
2612 2 1.5613026171560673e+01 2.2439156193544928e+01 1.0986799203988461e+01 0 0 1
2491 1 2.1524092231233425e+01 3.0052423242719964e+01 2.6940981518272181e+01 0 0 0
203 2 1.8762940695483309e+01 3.2198592839839201e+01 1.6816388565131529e+01 0 0 0
1110 2 2.4867611131353929e+01 3.1319670794155925e+01 1.2651112820963185e+01 0 -1 0
1876 1 1.2414063215785438e+01 7.3574332646457226e+00 2.1379106883169150e+01 0 0 0
2563 1 1.0520317743912347e+01 8.8359177847272647e+00 3.3452265781607298e+00 0 1 0
2630 2 9.0952583307218475e+00 7.3841410527283555e+00 9.2941719165335854e+00 0 0 0
216 2 1.7354228562009471e+01 2.3231718857810638e+01 1.1904426885132677e+01 0 0 0
819 2 1.7946730350817948e+01 3.1015963085597068e+01 1.8511249884585631e+01 0 0 -1
373 1 6.4596692087073748e+00 7.7959345808964526e+00 6.7332311514006085e+00 0 0 0
1049 2 9.9503631411778972e+00 2.0971639233085263e+01 6.3254306826933675e+00 0 0 0
2512 1 1.9826187248580123e+01 2.7482431192300197e+01 2.0523805054202697e+01 0 0 0
214 1 1.7808148489837702e+01 2.4106398258439381e+01 1.2090539260006055e+01 0 0 0
1900 1 1.2928421013296454e+01 1.2762335245676194e+01 2.5116470490722257e+01 0 0 0
375 2 6.1840356825071474e+00 8.0945427212166585e+00 7.6522554396641684e+00 0 0 0
1668 2 8.5182661864076827e+00 1.1699868253408207e+01 4.9032883261166855e+00 0 0 1
1059 2 1.1495638584589583e+01 2.8477410960005539e+01 6.3301003402119438e+00 0 0 0
189 2 1.2494338393901948e+01 2.0379765782146904e+01 1.0143410413158749e+01 0 0 0
844 1 1.7928817429819393e+01 1.8962589372061718e+01 2.3372443791627177e+01 0 0 -1
187 1 1.3201364971954147e+01 2.0920847036069532e+01 1.0511007501441785e+01 0 0 0
2069 2 1.3005849816998548e+01 2.2273658391332694e+00 1.5649167428739823e+00 0 0 1
314 2 1.5432638279255045e+01 1.8338186369688152e+01 1.5430832739232214e+01 0 0 -1
2602 1 1.7949507966360432e+01 1.4615628305431777e+01 2.3948830307113951e+01 0 1 0
1548 2 1.4520157694739611e+01 1.8768494055496305e+01 2.4727344220809655e+01 0 1 0
1560 2 1.6575715114886851e+01 2.7133665642575750e+01 3.6024971282048006e+00 0 0 1
2598 2 1.3996943216233396e+01 2.1034171772576016e+01 1.9161480264584007e+01 0 0 0
271 1 1.4967831219271826e+01 1.4737305657726958e+01 2.2049110912914070e+01 0 0 0
2469 2 1.3273048920824811e+01 8.6614484812873727e+00 7.1407949342058732e+00 0 0 1
1657 1 1.6617728410906704e+01 2.6595251266515699e+01 2.2850220284175744e+01 0 -1 0
385 1 1.1303695451439832e+01 1.5312105608181771e+01 2.0237661670557290e+00 0 0 0
154 1 2.0039246823214828e+01 2.9601224709972168e+01 1.0257574989165979e+01 0 -1 0
29 2 2.2025934970611473e+01 2.3770415489802751e+01 1.5463310429227070e+01 0 0 0
1152 2 1.7351441430765160e+01 1.9105172789136965e+01 1.7106267685826374e+01 0 0 0
625 1 1.0132073454680146e+01 6.6714027682140298e+00 1.6151756493197800e+00 0 0 0
1878 2 1.3224523935056805e+01 6.8921436558540137e+00 2.1300069433589226e+01 0 0 0
1899 2 1.4411300788397510e+01 2.6403468500556684e+01 2.0621644216176616e+01 0 0 0
1615 1 1.3282444207823335e+01 2.2884493692209684e+01 1.3296545604705148e+01 0 -1 0
920 2 2.0732165114840541e+01 2.1078731757446810e+01 2.0517646578569778e+01 0 0 -1
284 2 2.4406118948658833e+01 3.3311945870544712e+01 2.0122237783722728e+01 0 0 -1
871 1 1.2697341275847199e+01 1.4846422383030339e+01 1.7193569741974787e+01 0 0 0
820 1 1.7253865954828097e+01 2.6455495745232959e+01 2.5983026044740459e+01 0 0 -1
2670 2 2.2032025807167262e+01 2.4677936853092788e+01 1.1659093661241945e+01 0 0 0
117 2 1.3966271563762895e+01 2.2235540802945643e+01 4.4646510264053676e+00 0 0 0
1655 2 2.0188807426782493e+01 3.0503018615758101e+01 2.5884863666373779e+01 0 0 1
2492 2 2.2435025765046340e+01 3.0297932757498966e+01 2.6743925275235153e+01 0 0 0
1085 2 9.9547513399843464e+00 1.3306625432714453e+01 5.8261632068969513e+00 0 0 0
848 2 1.5953770058981338e+01 1.8570752221196745e+01 1.1478864391871083e+01 0 0 -1
273 2 1.4080803414851372e+01 1.4272152199839498e+01 2.2058876981016404e+01 0 0 0
1084 1 1.0429050351168639e+01 1.3986971542618150e+01 6.3298313247575591e+00 0 0 0
1910 2 1.5753888544116592e+01 1.2772461679006845e+01 1.6090417565099351e+01 0 0 0
1087 1 9.8563574399695852e+00 6.9643356700327956e+00 2.4579182350833126e+01 0 1 -1
360 2 1.8109951270583043e+01 2.2425777560374954e+01 2.5394290318855216e+01 0 0 0
196 1 1.7083279798949626e+01 2.9931746103588893e+01 8.9175786913439623e+00 0 -1 0
777 2 6.0832600311423262e+00 1.3313566879906449e+00 4.1074082626805888e+00 0 1 0
308 2 1.2913925795933322e+01 2.6352937623583490e+01 1.0011569371527402e+00 0 0 0
309 2 1.2107320096364750e+01 2.5289487429468366e+01 1.8666578145958919e+00 0 0 0
3003 2 1.1375254374256066e+01 5.7700993402499767e+00 5.2069471801433398e+00 0 1 0
1809 2 1.8761980290097029e+01 1.2764435027989306e+01 8.0507086151677303e+00 0 0 0
880 1 1.7220348652762762e+01 2.1379483433770403e+01 2.0750583940464608e+01 0 0 0
315 2 1.4319595652796210e+01 1.7399201850352043e+01 1.4976270370896163e+01 0 0 -1
283 1 1.4421588836311507e+01 5.6038082777811216e+00 2.1048495839316892e+01 0 1 -1
386 2 1.1725237350830424e+01 1.4508003917337915e+01 2.2938257479019684e+00 0 0 0
2376 2 3.6051628923100729e+00 3.3266772745471096e+00 7.1677508856805767e+00 0 1 1
726 2 8.6601010318076241e+00 3.2909358428131297e+00 5.8891779630883700e+00 0 0 1
1545 2 8.6773247629410903e+00 9.1796841198156596e+00 1.5172867503040964e+01 0 0 0