LAMMPS data file via write_data, version 8 Apr 2021, timestep = 0

768 atoms
2 atom types

-0.7539555022487876 30.697302445702096 xlo xhi
0 14.123082695799612 ylo yhi
0 13.504400144022506 zlo zhi
5.100558874068764 5.062022127454025 3.5512654079434363 xy xz yz

Masses

1 16
2 2

Atoms # atomic

161 2 15.846131674803372 3.361032320041913 11.796271851013017 0 0 0
47 2 24.15755366199462 16.095734561259487 12.275686498334732 0 0 0
295 1 7.34495436202883 5.11187976290316 5.981050266348128 0 1 -1
297 2 7.697412204958512 4.9388708885683865 5.105471595140126 0 1 -1
164 2 15.953918477378823 8.49506357956796 4.995160871051064 0 0 0
220 1 4.214101982551143 4.404136087415989 1.1698635417520513 0 -1 0
371 2 4.127761843905021 3.4100047191329854 2.7522293874581685 0 1 1
11 2 4.945657575836614 6.5098626737415115 7.2492063717033535 0 1 0
352 1 10.111540060869098 6.4012683440981935 4.587417983407879 0 0 1
150 2 9.703480636939558 5.38887006226115 1.5299373126780433 0 0 1
298 1 12.618380800009357 8.611648187649344 9.479008891556475 0 1 0
101 2 9.190034451909753 8.518706989998469 9.276941034666494 0 0 0
60 2 5.547342039945351 2.38386856796418 6.27417190218623 0 1 0
148 1 9.071413204943969 5.862903586426455 2.0000441750978926 0 0 1
172 1 6.678606452095087 8.953918680770736 8.420815024453026 0 -1 1
105 2 11.037518499285074 3.586087541006514 8.215368278842428 0 0 -1
178 1 6.471022461760479 12.668433499355752 8.441744428933196 0 -1 1
106 1 7.983960633208639 9.401622054653224 12.301188667931251 0 1 -1
162 2 17.454840547506766 3.4873207772235997 12.077820303061586 0 0 0
212 2 19.11519793788861 9.463252833783132 3.3611385466171075 0 0 0
58 1 5.540435390532388 3.1225103844338684 5.656574336741796 0 1 0
59 2 6.297753204193954 3.751113461100718 5.7841267011475725 0 1 0
149 2 9.159474068936548 6.7964865321083066 1.615398117495613 0 0 1
50 2 12.71642821377495 7.101831147264442 2.132810247470277 0 0 -1
282 2 19.67761364148075 7.283281346750991 8.69485212072218 0 0 0
362 2 5.785955409438241 13.268610891141547 3.624521695025799 0 0 -1
134 2 8.2657675378648 14.353437238099545 10.167579388255922 0 -1 0
218 2 8.10375569079847 5.325631884950449 13.349547933672365 0 0 -1
351 2 13.214521000230887 5.143309766350906 3.316971697058699 0 0 0
174 2 6.798958659121154 9.892299283153156 8.521367241441776 0 -1 1
209 2 17.941119362750577 3.8888139865052125 8.93161347046041 0 0 0
170 2 3.893298674448312 3.9812494954909083 5.850506705860929 0 -1 0
353 2 10.839170878645815 5.812828706882536 4.808296303197974 0 0 1
219 2 7.493453329047249 6.18778358863198 12.241752980163866 0 0 -1
61 1 8.567094360040425 3.4008418558493108 4.1946059188355465 0 0 0
315 2 4.590857046435063 7.502955507582274 3.4661239761933147 0 0 0
92 2 2.9006479256769975 6.582068818860056 3.099894870106546 0 0 0
324 2 6.8156912918143995 2.7426664392726767 9.185954127679704 0 1 -2
65 2 14.812654046632277 5.163533637831746 10.62706784954974 0 0 0
233 2 15.416282989778347 4.049858217086121 8.765203727879328 0 0 0
217 1 8.300210051611277 6.0653198011348035 12.774194355738894 0 0 -1
257 2 16.733906070089798 6.935758388065628 7.972889621677386 0 0 0
38 2 18.09968948109007 8.47286328482612 5.87746623172555 0 0 0
94 1 14.166442518995698 7.496684653825629 6.030830386178845 0 0 0
225 2 11.887815127159536 14.726253233169228 4.272372743861676 0 0 0
284 2 19.72875092965773 12.796101597866372 1.8194864765012178 0 0 0
372 2 4.585341361630721 2.769449569254905 4.066632655396005 0 1 1
274 1 7.125755617076799 14.189003944022955 3.271585936114309 0 -1 1
140 2 5.684324781122215 7.818893226222489 5.404052649521694 0 -1 1
100 1 8.50776097083626 8.17649275356834 9.96360241654126 0 0 0
63 2 8.58022594088809 2.9312081965113737 5.039449296091726 0 0 0
179 2 6.542215934926655 12.376729169213288 9.349262852257326 0 -1 1
222 2 4.984372451925413 4.332001276945975 0.6121529281023761 0 -1 0
64 1 15.19139927081641 5.702286149349669 9.939611282781277 0 0 0
111 2 7.2982298919135555 1.5613702983823874 1.6410520772506705 0 0 1
13 1 14.719501532275565 5.698519296483737 4.295078288342237 0 0 0
62 2 9.474859467184594 3.317549876122611 3.776871969080072 0 0 0
332 2 11.553835452224957 4.302958099613829 1.3255802008690651 0 0 0
275 2 1.7591546260766282 0.9652576140957922 3.589800365096922 0 0 1
250 1 10.988930768345837 5.031916798358677 8.916996236540525 0 1 0
368 2 8.419648809836179 4.66314879713868 8.783667589443173 0 1 -1
102 2 8.359214836540884 7.221277885532113 9.863621800739503 0 0 0
349 1 12.791357445620939 5.193299395241702 2.429836458363088 0 0 0
81 2 7.565455178028969 3.1038764899715847 3.0510463671541843 0 0 -1
85 1 10.657948578007035 10.373798501825268 12.627817625955833 0 -1 0
302 2 13.483143500353362 6.6621296355266955 12.0945767572315 0 0 -1
301 1 12.760473296834979 7.2048004127836425 11.701305625567189 0 0 -1
103 1 11.215436394206147 2.996175055947444 7.467576111126085 0 0 -1
6 2 11.596100909531527 3.4451183941348034 3.8119954904791893 0 -1 0
303 2 11.922553004460763 6.634935604896043 11.912618157398834 0 0 -1
305 2 16.114943845378576 9.062987791581001 8.208476784210088 0 0 0
239 2 18.193204230018196 9.2471615766198 8.643918038480056 0 0 0
248 2 5.936237055502034 11.690294028111175 7.052133971803171 0 0 0
333 2 11.267448598764947 5.0941625189071695 0.016964843611582223 0 0 0
346 1 5.300632397239465 2.772340660672908 9.725864130619637 0 1 0
110 2 8.164022344080118 1.5341107376714653 0.40316879339569717 0 0 1
331 1 10.900882528043693 4.350121333144948 0.5701800799916249 0 0 0
9 2 10.945237844352226 4.615468709616552 12.285359951818753 0 0 -1
4 1 10.976745982968517 2.8177555898333733 3.3547566718852977 0 -1 0
8 2 9.85069234389049 5.718975776112146 11.95766956907807 0 0 -1
5 2 11.533422560401558 2.3762808646101075 2.6743557331112804 0 -1 0
7 1 10.7827277693869 5.522407312954391 11.784689883352069 0 0 -1
377 2 16.81371129202352 8.849927048777568 11.644038422745256 0 0 0
112 1 14.634690113674342 5.700356453544213 13.198202517999604 0 0 0
304 1 15.71546931504079 8.169593979786413 8.058449639239354 0 0 0
367 1 8.528617685373746 5.56471681033184 8.371434715912482 0 1 -1
350 2 13.605310867766674 4.867944798719738 1.9357552862808691 0 0 0
113 2 15.35737027941902 5.199226019103736 12.693740903722096 0 0 0
376 1 16.84688280037869 9.674004819938256 12.170228090969797 0 0 0
114 2 10.043987269900219 2.9956308347059277 0.014582680529402564 0 0 1
66 2 14.540882702020657 5.8787752038141345 9.263503330120905 0 0 0
14 2 15.377296216404703 4.972556269257864 4.728994572633284 0 0 0
296 2 6.85274318163405 5.963231837175504 5.997736810990885 0 1 -1
369 2 8.16848776639043 5.425260533536069 7.4327396994758335 0 1 -1
280 1 19.2615905184009 7.855027828365366 9.393520056544606 0 0 0
109 1 7.694526066906908 0.9223977849781777 0.9744523537540531 0 0 1
87 2 11.098918525601526 10.588634809534211 11.757265068882994 0 -1 0
184 1 19.10214818965453 6.232116608807085 12.592865862437568 0 0 0
277 1 16.861907334156726 6.159575072378048 2.6817375273828237 0 0 0
93 2 3.8375386412811165 5.9677459069563 2.0736650129743595 0 0 0
15 2 14.51492071402298 6.315094447670693 5.0283994656351965 0 0 0
299 2 12.744135827469005 8.193937803986907 10.359012370106383 0 1 0
107 2 8.198185898454478 8.861449824743215 11.534095908602184 0 1 -1
160 1 16.656680776368265 4.005933063224816 11.874745465735764 0 0 0
17 2 16.43456732181318 6.768823584256311 10.603901883093812 0 0 0
37 1 18.93527366308087 8.072120814285782 6.313948085076152 0 0 0
18 2 17.88519598181509 7.1493923960875785 10.316027248155544 0 0 0
231 2 12.797991696510296 1.77582395255362 0.49239580791706833 0 0 0
104 2 11.941873933953062 2.401441640489751 7.782383666208608 0 0 -1
205 1 15.475941048008293 2.367684985278047 2.4954670747519483 0 0 0
210 2 17.36152836360491 4.348220730069689 10.338076951793125 0 0 0
186 2 18.37129303984559 6.537248438566093 12.062770053291228 0 0 0
232 1 15.565155916800835 3.2275706167779847 8.326094175016364 0 0 0
354 2 9.792953539925458 6.190771491073857 3.73785885159055 0 0 1
728 2 20.72102708762943 13.647436934419458 3.5496770537508016 0 0 0
183 2 16.769263163690994 5.338571521794909 6.329166220711115 0 0 0
40 1 21.350057876834217 10.017679078575298 13.165847369560703 0 0 0
207 2 15.286998798952075 3.2167667940566673 2.091335686681572 0 0 0
208 1 17.92369363847229 4.6139154594472735 9.541448804475678 0 0 0
279 2 16.568248680276724 6.894411722441786 2.1240903498626573 0 0 0
254 2 15.499121068692377 5.038315093776074 0.4708357527457592 0 0 0
181 1 16.59028364670764 4.501759387335263 5.821990873720455 0 0 0
182 2 16.188460793474494 3.8481045699713197 6.435063289167276 0 0 0
256 1 17.355054252818626 6.206106873363922 7.531588481055526 0 0 0
255 2 14.655427620655862 3.8016801516057668 0.021465993097552736 0 0 0
253 1 14.900419290243677 4.352931628603219 0.7885791866059866 0 0 0
157 1 14.289653497135113 2.8168048538721826 4.9397752316137975 0 0 0
185 2 19.57036992469289 5.520777511696629 12.210649311449083 0 0 0
278 2 16.014859231114272 6.007723836518416 3.175411017213123 0 0 0
159 2 14.62733744010747 2.5623868342659493 4.015244565640931 0 0 0
16 1 17.22646105096439 7.148987143624451 11.01734361342433 0 0 0
258 2 17.55268658208465 5.621431610569487 8.34253486167018 0 0 0
370 1 3.869623664804265 2.8049028038331247 3.4105856876536174 0 1 1
80 2 6.940282567801559 3.5750187505694315 1.6599074270431333 0 0 -1
306 2 15.304028753979884 8.235682245219449 7.172847852716989 0 0 0
79 1 6.85715990072 2.896603872664131 2.335231279702319 0 0 -1
246 2 9.838260841220666 7.758101909343063 5.362349622709953 0 0 0
108 2 8.724454275936996 9.55781216921473 12.821620848872126 0 1 -1
300 2 13.367797331393158 9.085217876775326 9.0991461749847 0 1 0
221 2 3.4591709383289553 3.9509888622201483 0.8117843372295396 0 -1 0
348 2 4.590442092777736 3.365415304270588 10.093676634985453 0 1 0
251 2 11.096235538626088 5.352993599344717 9.798951794217155 0 1 0
139 1 6.112649205221647 7.409262721633212 6.229886107580071 0 -1 1
276 2 7.830936420277457 13.942006074881203 3.8261221141086246 0 -1 1
313 1 5.176536660251399 8.169227522283888 3.952869526943197 0 0 0
252 2 10.074872496616772 5.359880764331849 8.632225502661871 0 1 0
91 1 3.5768847552898615 6.8683717994213875 2.3743383485658582 0 0 0
195 2 13.011625585756818 4.4483362049538515 5.18085834143646 0 0 0
229 1 12.517738363162907 1.43060889861899 1.3795508865361719 0 0 0
194 2 11.82759396950578 4.030523547198618 6.09136785544608 0 0 0
193 1 12.065662142380656 4.611472063188988 5.348348867294615 0 0 0
141 2 6.25236201752803 8.09115173262201 6.94880971131645 0 -1 1
234 2 14.667623695732583 2.8376510300149267 8.257980908168946 0 0 0
96 2 13.757086511979402 7.0925498160819895 6.915485787793284 0 0 0
34 1 16.180099770181723 17.35142185058816 12.994711758658557 0 0 0
380 2 11.521173546791363 1.6647589081964096 4.542998412239492 0 1 0
158 2 13.456032542137699 2.3689346952052444 5.009755959924331 0 0 0
459 2 15.595242713099596 1.272358972801173 1.1533284826530124 0 0 0
35 2 11.705937745809411 14.140537069763644 0.1893277861806087 0 0 1
267 2 9.82108780937204 2.1731559965998546 7.010052373950798 0 0 0
266 2 8.220406259225163 2.247321143357099 7.230480279870912 0 0 0
167 2 18.391348686270224 10.18857687070523 11.915130419152623 0 0 0
86 2 11.292941789532426 9.800872649063878 13.102505715746359 0 -1 0
226 1 12.852495462341178 11.27120511083315 5.567588980499816 0 0 1
77 2 10.268446142870667 11.98245132748082 6.94053833988704 0 0 0
227 2 12.18312607411684 11.411766907955355 6.24547598321582 0 0 1
82 1 11.848958623676017 11.534658388271 10.478859329764594 0 -1 -1
166 1 19.09664451136606 10.83993284428839 11.73710670290235 0 0 0
228 2 12.867127366456915 12.034455545522782 4.9671710588860885 0 0 1
330 2 12.602217716869033 9.882532044993429 4.818833761322106 0 0 1
127 1 1.438421879203174 4.313265688166778 0.6562279491510244 0 1 -1
317 2 2.2343710085933974 2.9028760119220407 3.728548496912719 0 0 0
120 2 18.52169574762457 13.901139174718871 13.21823217076641 0 0 0
176 2 11.052674520772484 14.863014891907367 12.853904456227195 0 -1 -1
294 2 9.356964285064285 12.878854764664474 11.485356349891246 0 0 1
270 2 11.075565568523158 15.676616241986276 8.168380413913836 0 0 -1
118 1 18.03765552658841 13.032062475773415 13.088156985907629 0 0 0
322 1 7.758086646041459 2.686961437399806 8.84511766917155 0 1 -2
238 1 17.513461541006293 10.004868790172038 8.459363289274291 0 0 0
230 2 11.729000829482382 0.9297199571363584 1.1214396395481396 0 0 0
196 1 14.149190254685339 11.928621189071013 0.5255533203309003 0 -1 0
83 2 12.232727012514454 10.935873381862203 9.799727919549149 0 -1 -1
290 2 7.935683059207518 8.690267183954825 1.9071965712292622 0 0 0
334 1 15.959932341066684 13.775850128806498 7.555519759596035 0 0 0
285 2 18.91535158778908 14.171300103112113 2.0280583088668696 0 0 0
723 2 18.111915640879204 6.121846260433669 3.7873554875420243 0 0 0
147 2 12.700169668438505 13.670625179233836 12.210220000812608 0 -1 1
364 1 6.690491350826795 9.639461653254454 2.3695167765214507 0 0 1
320 2 8.608372758710946 13.633691627136193 5.6882300512817805 0 0 0
344 2 13.363105483396698 12.836193916260529 8.578754755484523 0 0 0
242 2 9.74353193544657 11.852653699130826 13.400803627515764 0 1 0
48 2 24.642497223311462 17.266537207998358 13.184599125032454 0 0 0
41 2 22.070141696158245 10.702815853579285 13.139873340790986 0 0 0
31 1 10.191147557983317 8.965188315937413 8.298926586359162 0 0 1
56 2 10.073603418542502 10.907829112747459 0.5300400027968852 0 0 0
168 2 18.80908924412499 11.62179868841719 12.195887606502087 0 0 0
245 2 9.084152180504569 9.185275816734308 5.417795978860891 0 0 0
145 1 13.319951791689295 12.842941489276765 12.236718448322012 0 -1 1
57 2 11.188806839447638 10.008549001943534 0.06752111720312531 0 0 0
328 1 12.316356238098223 8.91170558310455 4.563587590562536 0 0 1
199 1 7.9199358211884245 10.603750401392043 4.543760999371423 0 0 1
28 1 12.117742196068372 12.031164053079838 2.6759921842270367 0 0 1
336 2 16.455058280116432 14.413847261182095 6.990525670244535 0 0 0
366 2 7.215303127690718 10.185004128570508 3.0547246324634907 0 0 1
287 2 21.60258760808048 15.532080486703617 9.292067356202235 0 0 0
224 2 5.762983350643289 1.5127031126033585 3.4872742578310554 0 1 0
55 1 10.602785175433251 10.212293024756338 0.817770041476866 0 0 0
216 2 20.400725892166964 11.863006957394887 9.078120020331488 0 0 0
329 2 11.499093854129296 8.766147026305092 5.0169556658383465 0 0 1
33 2 10.168053790894776 8.59901905895604 7.390197191161583 0 0 1
312 2 17.854933305317402 15.513645102564539 9.56577828220497 0 0 0
335 2 16.601845998227997 13.48149329437208 8.23456805154928 0 0 0
97 1 13.433577729077086 14.17706498952134 4.829997829145875 0 -2 0
268 1 11.192812609411844 14.922249961120581 7.588400449950636 0 0 -1
98 2 14.06161374919677 14.370376596772436 4.138986910723823 0 -2 0
310 1 18.135606527209987 15.60108749055499 8.6401180040014 0 0 0
273 2 14.078190970664387 15.437536535986474 11.38757494658131 0 -1 0
197 2 14.989695958689323 11.813700550391278 1.044839656694295 0 -1 0
241 1 9.100209917262594 12.605377645200438 13.45800563743352 0 1 0
345 2 14.368438883571232 13.950269720405467 8.103219944967124 0 0 0
319 1 9.03374645502919 13.214202708226752 4.8780683781694885 0 0 0
272 2 14.096697089490968 14.670545124582224 10.024639996874235 0 -1 0
264 2 19.27849143127663 12.688553365449229 7.050474287997307 0 0 0
142 1 15.417982502819195 11.735986358317792 11.161848622534624 0 0 0
263 2 20.318065721840075 13.777620638424224 7.295288749891532 0 0 0
121 1 2.010468402966036 0.2784979907667088 0.29738202061686103 0 1 -1
269 2 12.035882678551246 14.441290557706742 7.808804054725512 0 0 -1
206 2 16.415076907691383 2.3765340674289432 2.9201644624873757 0 0 0
215 2 19.918033393591944 10.801917771031098 10.23755148333512 0 0 0
271 1 14.569537058269917 15.375470755201539 10.538132814154478 0 -1 0
262 1 19.62725162506241 13.322412833670843 7.772568472854442 0 0 0
44 2 15.48217750737325 1.802928656285635 5.935395742387517 0 1 0
192 2 21.81734618051819 13.835906448762437 13.102541089228037 0 0 0
214 1 20.665741408098928 11.053913435907585 9.579818511641829 0 0 0
240 2 17.699798678432458 10.242469219110516 7.52212586420797 0 0 0
321 2 9.658336784909501 13.911752466878873 4.519838062112465 0 0 0
343 1 13.484616922812682 13.789544912022999 8.60303427093386 0 0 0
153 2 14.789578219924213 16.372218537264228 13.444918775170718 0 -1 -1
237 2 14.658667720653552 8.503255992798662 2.1349413195277163 0 0 0
291 2 9.422874502670464 9.101619730634626 1.4035714572224092 0 0 0
173 2 7.368444742667988 8.654642844160826 9.122075873438398 0 -1 1
51 2 12.56855331639326 8.460665381674826 2.7946666268800513 0 0 -1
200 2 7.160692602715487 10.813809332561032 5.105624288757513 0 0 1
88 1 14.256687186514991 10.94911310987276 8.819678426159266 0 0 0
198 2 13.47398110179498 12.340449438013858 1.0695308792722058 0 -1 0
84 2 12.575418128955286 11.966624099696489 10.979068550971249 0 -1 -1
152 2 13.24473582948433 16.312867281478564 13.48967490537587 0 -1 -1
311 2 18.523602710989497 14.798962219503204 8.33499824010306 0 0 0
359 2 17.545594759815202 14.095090352000627 11.400300636882992 0 0 0
265 1 8.934958968495332 2.1532730488885443 6.550759342442169 0 0 0
1 1 4.861557938433905 11.187404819310832 0.905009758720691 0 0 -1
72 2 17.362966799193064 11.588420337066065 9.135016742602174 0 0 0
42 2 20.598965393601105 10.460436184380107 12.773501726316095 0 0 0
177 2 10.868709050809716 14.287547132632131 11.367844909301695 0 -1 -1
190 1 21.338012796269535 13.125783453128165 12.602428447228588 0 0 0
223 1 11.017304889918526 14.758277564944908 3.8588856131414815 0 0 0
191 2 22.12700704355741 12.700801143315182 12.123477491147607 0 0 0
382 1 19.343882974856147 17.097089308743314 11.600519671370272 0 0 0
19 1 17.29967902832498 12.543340157203541 4.319796196213876 0 0 0
20 2 17.85748072703477 12.794194996932385 3.5594706923901627 0 0 0
21 2 16.47893556770665 12.109876708489931 3.9731963953597114 0 0 0
379 1 17.040016048037625 15.201505540360099 5.226509143222892 0 0 0
43 1 21.174737346977683 15.341180700704102 6.48569983198314 0 0 0
381 2 17.134765448789107 14.308133230393553 4.871009438114954 0 0 0
67 1 15.176463963336182 11.32839146829368 3.1848947012999544 0 0 0
68 2 14.183230051485522 11.471664506498698 3.1184208978990338 0 0 0
69 2 15.466723482318523 10.415594849431075 2.8837044349324956 0 0 0
119 2 13.051380066110221 9.024638741959075 0.44320538455126174 0 0 1
146 2 13.367279595066373 12.524079375584895 13.180203627595217 0 -1 1
360 2 16.249140281963157 14.894282319239613 11.023515040152649 0 0 0
115 1 15.541608695258548 11.222470522460664 6.5813558348273995 0 0 0
116 2 14.618599993570975 11.26809104525655 6.269104415466469 0 0 0
365 2 6.144440925781432 10.270430831690106 1.8951878024866604 0 0 1
136 1 6.975633431785532 4.960240162689313 0.5621202133226032 0 0 1
144 2 14.668444641048016 12.22585514369978 11.564899351613263 0 0 0
383 2 19.196998005224756 16.6547149146214 12.428206314009342 0 0 0
163 1 16.745693193791475 9.056295977983416 5.030767815546896 0 0 0
286 1 21.767673213055087 14.637137027751972 9.597929006667698 0 0 0
165 2 16.460063174074687 9.962617134525443 5.370275940354661 0 0 0
187 1 18.564370854723595 11.33701613153821 6.200033834782362 0 0 0
188 2 19.133444239675512 10.868645316326976 5.563741737250476 0 0 0
189 2 17.959960419572155 11.783527772311519 5.606278089407919 0 0 0
30 2 11.463591035983985 11.321487575220367 2.339742191993838 0 0 1
211 1 18.33176358321772 9.461779428343254 2.7730747851389776 0 0 0
213 2 17.661883880843202 9.106148292219636 3.3760180866795544 0 0 0
235 1 15.601265269483948 8.74887805720021 2.0673813199704405 0 0 0
236 2 15.758722172588785 8.754295052225347 1.1084052845587162 0 0 0
78 2 10.353294191658152 10.592010336623746 7.597462273267586 0 0 0
260 2 17.60087826340323 12.277577429656114 0.8120571775179026 0 0 0
129 2 6.904827982600115 8.381101022438608 13.436641350667188 0 1 -2
259 1 17.239522037093227 11.358809408153512 0.9496333907374286 0 0 0
117 2 15.81971017486403 12.159469747451254 6.666049555108477 0 0 0
261 2 17.75401238145513 10.910851708011238 1.7102518147985548 0 0 0
283 1 19.2491116977106 13.351660659595035 2.4595474027841018 0 0 0
347 2 10.193051527445203 16.137080092985837 10.21298365054733 0 0 0
288 2 22.154123693634613 14.214247687875767 8.839882034266255 0 0 0
307 1 15.3080696177178 14.219303684323426 2.2902357547871155 0 0 0
89 2 14.942114790638184 11.00538461042146 8.130783177820483 0 0 0
309 2 15.425928907720836 13.233087597633915 2.322444998202693 0 0 0
29 2 11.642720787775213 12.821448571873367 2.9193951220191368 0 0 1
49 1 12.978258302014227 7.995181346793844 1.9800603028689865 0 0 -1
175 1 11.480701737856865 14.783264112378935 11.99108849951746 0 -1 -1
326 2 8.117565164816755 14.887194301790235 7.481231741538593 0 0 -1
358 1 17.165045836661466 14.982911710450717 11.276851084129763 0 0 0
289 1 8.743315423609838 8.437137414696078 1.398597649058659 0 0 0
22 1 19.374636681022757 13.635774945959824 10.884783263652348 0 0 0
23 2 19.922335160084128 13.925527998751784 10.1519343552467 0 0 0
24 2 20.08993720773921 13.560172765422452 11.542641615372975 0 0 0
143 2 15.939639914796983 12.24739743145218 10.550988092785355 0 0 0
46 1 23.826210485630646 16.858082925389574 12.868166438712914 0 0 0
70 1 17.260635305145975 12.547527784620774 9.455662554247803 0 0 0
71 2 18.17284554462682 12.610949922897682 9.849230987468554 0 0 0
325 1 8.627873980995673 14.034315315496945 7.606678949671914 0 0 -1
130 1 13.226015544703651 6.36666274468687 8.126866287693352 0 0 1
151 1 14.051179235880696 15.854591214043598 13.192860566835028 0 -1 -1
201 2 8.573277614451488 11.415000098996401 4.531828960191244 0 0 1
323 2 13.331059169821911 16.41182904709985 9.62427025118649 0 0 -2
131 2 12.397518833990915 5.773135563314827 8.068893194850304 0 0 1
76 1 10.879360951541528 11.310662736765211 7.194953217193452 0 0 0
327 2 9.568677745590184 14.292649837830695 7.63755404021247 0 0 -1
32 2 11.04623758557107 8.83145824573394 8.68437402535954 0 0 1
293 2 10.464491219231732 12.588562360858102 10.366393029113315 0 0 1
26 2 5.296022378595051 6.988358888640697 11.842127875766643 0 0 -1
25 1 5.385746898453079 6.136504563976708 12.286969026529182 0 0 -1
99 2 13.724279316966856 14.859003764957551 5.522226083270281 0 -2 0
384 2 19.178133403263182 16.466709876238163 10.908698020140795 0 0 0
363 2 5.380272572357885 12.259979584847159 4.837521443490669 0 0 -1
122 2 6.1885309652478675 14.119390146882939 0.37773679439805635 0 0 -1
281 2 19.969981303486026 7.8418516610449664 10.080749291469637 0 0 0
314 2 5.685362073846124 8.616462511897815 3.234820251428413 0 0 0
292 1 9.777644397913608 13.208848065781726 10.646955959088116 0 0 1
180 2 7.303751049037103 13.089763930666239 8.12894229868884 0 -1 1
123 2 7.356113863364696 14.42075492575329 1.2160579864510495 0 0 -1
90 2 14.674775421159369 11.179764231429155 9.683321093033054 0 0 0
132 2 12.888110679538313 7.122485925539899 8.62412841926346 0 0 1
308 2 14.503265266796111 14.309944398616535 1.7307725616183582 0 0 0
137 2 12.420694402782226 8.297932603896056 13.188940237038933 0 0 0
39 2 18.483697253386563 7.415569016933012 6.96506464115216 0 0 0
378 2 16.262107207761257 10.272177842224822 11.765449267521413 0 0 0
36 2 16.737856278619233 16.74747186848559 12.451394794097443 0 0 0
3 2 4.397729367867825 10.359685320199098 0.5700979328077243 0 0 -1
244 1 9.7342778261998 8.661922435360152 5.874936161217995 0 0 0
247 1 5.839636908246509 11.39941964201567 6.122717467541927 0 0 0
138 2 7.732430020651618 5.355262962514667 1.0636991909751654 0 0 1
95 2 13.45397200864892 7.944133248996434 5.536365433443814 0 0 0
243 2 8.153594318982117 12.330587737280133 13.3885986345972 0 1 0
45 2 21.566541013770166 14.74960214822962 5.824936936413974 0 0 0
507 2 17.411485118520822 3.282831995485155 4.566890020886639 0 0 0
27 2 5.615924689301288 6.50813988621057 13.213932388834623 0 0 -1
509 2 19.368146041245804 4.590268192201181 10.196546665646538 0 0 0
249 2 5.18977302925511 10.655522370661522 6.312343037816032 0 0 0
361 1 5.025423412785191 12.76953417500402 4.0484755336291265 0 0 -1
169 1 3.041053558553431 4.29277207757653 6.194211223400533 0 -1 0
465 2 18.377650016538283 8.635405299241691 1.4506851079114345 0 0 0
2 2 4.23933545283647 11.890337805898447 1.0796130931981507 0 0 -1
171 2 2.729577100331169 4.969303340117085 5.541080157995832 0 -1 0
461 2 17.368529673611565 2.2271321759868155 7.324898737138109 0 0 0
154 1 6.783983106592794 11.674681729370626 10.882147733477499 0 0 0
54 2 5.4650661782110355 8.407704071342764 9.776168980203353 0 2 0
10 1 4.286852064144943 6.284606118088845 7.918236436410366 0 1 0
133 1 7.798301149231428 15.196804016685963 10.33023366416942 0 -1 0
12 2 3.8133533952594414 5.572319022250664 7.445586270149367 0 1 0
467 2 20.695094501796408 9.951943841735094 8.258065976439768 0 0 0
155 2 7.225125588120635 10.89643176580201 11.283473787558767 0 0 0
460 1 18.073629786881533 2.7715741253685713 7.659871743656203 0 0 0
74 2 4.682517983047878 4.657328481516238 12.931579275884028 0 0 -1
468 2 19.9851391285321 9.086144748921166 7.12963007876583 0 0 0
338 2 2.262044085434611 2.8585835607558394 6.686739447509489 0 0 0
385 1 22.042178693586532 5.2863716041352555 4.017577052627116 0 0 0
386 2 21.763193384997358 6.213903306366877 4.219395148702966 0 0 0
387 2 21.262019820879132 4.937357987407489 3.5034275915787014 0 0 0
409 1 25.959966811746526 8.334095707091487 6.127065150029927 0 0 0
483 2 18.96350035457357 3.862158717752949 6.651727181721758 0 0 0
425 2 37.14539593239724 10.621143697548964 12.890994491712966 0 0 0
156 2 37.3129927933913 11.406367075818137 10.886778038627826 -1 0 0
433 1 19.797007140379275 3.663183856398145 2.5585217517078545 0 0 0
434 2 20.226519321249693 2.831044502914011 2.1849487138440673 0 0 0
435 2 19.246788336387162 4.002590519245166 1.8406086217316204 0 0 0
602 2 20.914307416490285 0.49393841754560974 1.7009726064871087 0 0 0
204 2 32.67240579746383 6.1227807253662325 4.142651320145351 -1 1 0
677 2 22.081748863527814 8.724022484797368 8.11599862906574 0 0 0
481 1 19.717080813843438 4.296010409067637 6.168539493732261 0 0 0
482 2 19.403920730157672 4.664962160054649 5.300933481816056 0 0 0
650 2 25.169576290252415 6.132456372713492 3.353612502979667 0 0 0
505 1 17.6552604621964 2.5719760262410776 3.9024270219919193 0 0 0
506 2 18.44338549482584 2.969023278769073 3.3835560428999765 0 0 0
529 1 21.37718109033433 2.1884818773106924 4.814841646570494 0 0 0
530 2 20.746035405357592 2.930624646737009 4.917582447520879 0 0 0
531 2 21.74767004442252 2.3853935626874025 3.925473555055929 0 0 0
553 1 23.444332570141274 4.313829205757282 5.987717515729729 0 0 0
554 2 22.72351854698401 4.755958274284958 5.423179118576778 0 0 0
745 1 21.650678347515 7.629482343985041 5.084292673164466 0 0 0
577 1 22.737326268980276 2.6425755140112863 2.376934700142329 0 0 0
579 2 22.506336998548 3.382101075985324 1.7956715652946291 0 0 0
601 1 20.253769476648387 1.1257115055879567 1.3542666613111924 0 0 0
666 2 34.90551346835576 7.940415788852278 9.966297226840336 0 0 0
603 2 20.736230725687577 1.4822435392817168 0.5769363641410521 0 0 0
410 2 26.724703592415167 8.806148220401344 6.561247405815566 0 0 0
625 1 21.79985345758511 4.502543561763644 0.5805614549721 0 0 0
627 2 21.182590256310505 5.180830433951394 1.012113745240856 0 0 0
649 1 24.407553892966806 6.023828237087877 2.6953534528663243 0 0 0
578 2 22.783948098042043 1.8447280376711284 1.800954254871909 0 0 0
651 2 23.723292748561338 5.442767441223813 3.1252791605747037 0 0 0
673 1 20.513070255644106 6.888651803569172 1.8217157290664545 0 0 0
337 1 33.4675204852059 2.088659447375559 7.297879874840504 -1 0 0
675 2 20.047845365355197 7.028512265816438 2.664356370213856 0 0 0
697 1 18.175636383861264 4.5782756331002545 0.6716199467634935 0 0 0
593 2 31.927580391277623 3.9140790525419575 10.152841826778182 0 0 0
53 2 36.65358418305915 9.093246394181335 11.173285738396004 -1 2 0
746 2 21.51143937469006 7.546302961506759 6.0589285718330705 0 0 0
721 1 19.010090966022005 6.132201671295376 4.217587348391606 0 0 0
626 2 22.48099746982582 5.173820460487968 0.19439648318511166 0 0 0
694 1 32.87488900935511 15.505133232220823 8.195554433717788 0 0 0
411 2 25.55035851248252 7.653756946056824 6.678065845482001 0 0 0
678 2 22.572901854854695 8.164714734537588 9.404722503647342 0 0 0
388 1 24.50228690863316 7.139444885259457 10.732474084038506 0 0 0
389 2 24.37538867140819 8.04281727076427 11.070028830147395 0 0 0
390 2 25.030194826230773 6.674456821115632 11.394985771662686 0 0 0
412 1 28.492776521027906 9.899471289627796 13.098577318770051 0 0 0
476 2 26.600082490041675 7.283258774829161 0.6399348622159894 0 0 0
436 1 22.4589333257378 5.467845355349624 9.765756778973392 0 0 0
437 2 21.74676952705259 5.13385256686382 10.34576856179282 0 0 0
438 2 23.148899296314564 5.982792334792108 10.208223232276831 0 0 0
463 1 18.370884576552065 8.22052845976956 0.5690103026844998 0 0 0
654 2 27.251901615775395 7.809888022352897 9.933621167207813 0 0 0
748 1 24.20951433705828 9.331401424441449 12.027955012360238 0 0 0
485 2 22.953675292719993 6.499182845433959 13.41462550154019 0 0 0
484 1 22.671263771871125 5.879458056315694 12.701443879885469 0 0 0
508 1 20.19297920945237 4.528132759813801 10.777078549839514 0 0 0
510 2 20.333038045697965 3.6207504980248566 11.032828240469001 0 0 0
558 2 26.577485093838494 6.805516878002673 12.974458205925522 0 0 0
532 1 23.918479475218618 3.810458065852532 11.687569716715682 0 0 0
533 2 23.699161815588425 4.6184158031951705 12.174649004933777 0 0 0
756 2 27.669459722173194 16.758677649225447 11.994150013975144 0 0 0
556 1 26.227404025614774 6.053429283350838 12.429446900334396 0 0 0
557 2 26.98114319393712 5.738411024411036 11.882398456258587 0 0 0
580 1 25.487494110102613 4.398934527685984 9.298757614034564 0 0 0
581 2 24.80433677765834 4.323179283164053 9.926743014627087 0 0 0
582 2 25.19810438504742 5.193930035321948 8.71971316453694 0 0 0
630 2 24.064038185965106 5.733283449951232 6.90116807662885 0 0 0
604 1 22.573741124575033 3.202282671703898 8.187187386938273 0 0 0