LAMMPS data file via write_data, version 8 Apr 2021, timestep = 1229000

3072 atoms
2 atom types

0.1785861618290501 29.96160783816915 xlo xhi
0.02269673208428964 28.31776926791121 ylo yhi
0.07914952191978147 27.332295478077235 zlo zhi
10.186050413644383 10.108414781711003 6.990849461375578 xy xz yz

Masses

1 16
2 2

Atoms # atomic

1 1 7.433226795449007 5.21822273114131 4.15498824277456 0 0 0
2 2 6.613575030307673 4.7341829072433095 3.888743498317657 0 0 0
3 2 7.224466967992935 6.06049608474247 4.531351931145351 0 0 0
4 1 10.180729446755198 6.946123713782781 10.760897347317544 0 0 0
5 2 10.611572671816896 6.550424760136465 11.549450857273428 0 0 0
6 2 10.018431351321112 7.884162346800638 11.051180338806333 0 0 0
7 1 10.087388235584001 12.222110288797703 3.876906193252391 0 0 0
8 2 10.311256425412434 11.895458706931453 4.729206856914458 0 0 0
9 2 10.057471365296138 13.165466646114242 4.023553329505636 0 0 0
10 1 12.684674125132835 14.02300376614881 10.816004158415831 0 0 0
11 2 13.566384415370894 13.970029325648383 10.32410933846606 0 0 0
12 2 12.117228162569162 13.348760794283407 10.286588223482978 0 0 0
13 1 14.756446380549226 5.302142650324426 4.224466330867708 0 0 0
14 2 15.224109494870973 4.987131391619626 5.038239061820166 0 0 0
15 2 14.658165454783653 6.208435150441407 4.527677337418073 0 0 0
16 1 17.439053154166952 7.030393337137361 10.93428213455871 0 0 0
17 2 17.967756053652217 6.608146261428084 11.738287054741065 0 0 0
18 2 18.22425110013773 7.357524125517168 10.461258690629545 0 0 0
19 1 17.56300805568609 12.304032197671601 4.039336364829796 0 0 0
20 2 18.319232680882475 12.64136037867983 3.5468500333688415 0 0 0
21 2 18.046638534331272 11.851480854473403 4.801436091011557 0 0 0
22 1 19.870070809353567 13.985854483555435 11.246364014478765 0 0 0
23 2 20.569335994900957 13.976693369966839 10.529136649581705 0 0 0
24 2 19.814021081753992 14.941879399276296 11.310536184415346 0 0 0
25 1 11.634116798008803 8.078198250659403 6.491790851522461 0 0 0
26 2 10.782943080790819 8.526043790321113 6.304036388184618 0 0 0
27 2 11.22782369145047 7.308274272134868 7.036491117730353 0 0 0
312 2 18.064424201484442 15.931343543874817 8.081209951141407 0 0 0
29 2 14.692703742720767 9.261940346824359 12.74805077687682 0 0 0
81 2 4.5108035856060855 7.553851453213074 1.0254506446643037 0 0 0
182 2 17.02272569698456 3.9386327231008846 5.492117653242781 0 0 0
341 2 7.373940640513333 8.617811338884387 11.94766872486381 0 0 0
236 2 16.087979994405515 8.741493933001658 0.9693242839361322 0 0 0
602 2 19.58576323703023 0.8922512599052422 1.6047493488067022 0 0 0
32 2 14.588006233905654 14.45297117901512 5.799137976357165 0 0 0
38 2 18.41340509727362 8.844768320374307 5.8894131180648985 0 0 0
87 2 8.340237141046517 1.2308331786156 1.4442455579957933 0 0 0
230 2 12.112458925033621 1.0304579654167054 1.3510961048719827 0 0 0
605 2 22.351774565397005 2.585622236304961 8.148623364396581 0 0 0
275 2 14.511919825659387 15.252836399663353 9.065531338872846 0 0 0
383 2 20.591609639075937 17.090195947076698 11.970634929097576 0 0 0
172 1 11.654921340968803 6.1081110368645755 13.044987977464357 0 0 0
49 1 5.4066153658445035 3.6391400849259914 3.1300868505402017 0 0 0
50 2 5.709695600969428 2.8270069206648705 2.7320141771057407 0 0 0
51 2 4.611830716113083 3.396438623742516 3.6224037050085047 0 0 0
52 1 8.145487857720303 5.287259659047 9.957963665290823 0 0 0
53 2 7.7959796159026356 5.843032116667632 9.260322934916918 0 0 0
54 2 8.84546531253683 5.893005555031978 10.344420750079896 0 0 0
55 1 7.749026092894373 10.8714125122133 3.0328374053669886 0 0 0
56 2 8.15268524462225 10.164229807924356 2.539989289419919 0 0 0
57 2 8.527560946734013 11.432384199222207 3.3561492589116835 0 0 0
58 1 10.345849975264546 12.459787186415271 9.666379486760102 0 0 0
59 2 9.868162395659525 13.039302446887659 9.036124610985908 0 0 0
60 2 10.610617089170121 11.648560447710516 9.16585015099234 0 0 0
61 1 12.574385435367262 3.832056033137341 2.9703157464578154 0 0 0
62 2 13.318969688838745 4.307756302021122 3.391656211447309 0 0 0
63 2 12.362564879596608 4.31409142684112 2.0703642115111798 0 0 0
64 1 15.428149069730384 5.542528602076009 9.800339582977507 0 0 0
65 2 16.14059216098972 5.968595321159215 10.299252348303146 0 0 0
66 2 15.708504893042342 4.655505997607362 9.584324777104923 0 0 0
67 1 15.100627756564132 10.78795596620163 2.859364335695634 0 0 0
68 2 15.92132631743527 11.221629635118255 3.0061566183936104 0 0 0
69 2 15.38584437334437 9.885841249854867 2.6034691621538735 0 0 0
70 1 17.736549755803463 12.714171269559017 9.85837272032749 0 0 0
71 2 17.447516526693676 13.14501290682567 9.023076156522109 0 0 0
72 2 18.459754000762832 13.258065742561016 10.265945556152275 0 0 0
121 1 3.1571803332585024 2.8439955715731653 4.419912404808939 0 0 0
288 2 21.764855574835853 15.553317916791505 9.17585628796631 0 0 0
229 1 12.86331837933067 1.6572774864551472 1.31111611219263 0 0 0
465 2 18.27726669197084 7.153211416199065 0.48175350757712854 0 0 0
84 2 6.985267960738161 9.128028812347528 7.683724635215857 0 0 0
338 2 4.382054372292875 5.434266225618985 4.995385912984801 0 0 0
370 1 11.939556149508203 16.404719879561387 12.032248245949585 0 0 0
90 2 11.469710571556348 3.1190103423765403 6.947290587454313 0 0 0
618 2 29.66183372352455 2.3409370636710873 8.61934744248583 0 0 0
94 1 13.671952987286948 9.766161783357715 7.445804916048024 0 0 0
95 2 14.372257136757598 9.157765807430142 7.735698811228813 0 0 0
96 2 12.961786258098414 9.165306489780733 7.159006071837059 0 0 0
97 1 5.563033531521018 4.127885743291302 6.093159089583103 0 0 0
98 2 5.868349127515228 4.866871526238392 6.633058510281676 0 0 0
100 1 8.14055638287009 5.851701276732937 13.053718774338183 0 0 0
101 2 7.67909351484713 6.289938038439371 12.35399633333515 0 0 0
102 2 8.739555244771633 5.161801141550859 12.6610454935546 0 0 0
103 1 7.795139945064023 11.560649674791305 5.994423699579603 0 0 0
104 2 7.347072428675112 12.244559200538502 5.43253412885684 0 0 0
105 2 7.168944899764639 11.008807942425685 6.518291772363483 0 0 0
106 1 10.160398449597627 13.206363542699725 12.780075239020109 0 0 0
88 1 11.175761401994077 2.3016844880035032 7.348539477040968 0 0 0
108 2 10.85116959028529 12.501349792042856 12.562584064688181 0 0 0
109 1 12.582526905271221 4.581857304457219 6.253005286612737 0 0 0
110 2 13.2105385441439 3.9344660156254077 5.870408110358138 0 0 0
111 2 12.269520968360501 5.23129500788786 5.538994103247522 0 0 0
318 2 5.819669684504925 6.496707711076832 8.182063575557846 0 0 0
470 2 23.697769180693562 1.402915437242428 0.20526341714101845 0 0 0
115 1 15.334986247930939 11.547282639147507 6.012593871981002 0 0 0
116 2 14.545833282584315 11.022095707902297 6.308190291352822 0 0 0
117 2 15.79499631570861 11.846172768432622 6.814949117412837 0 0 0
118 1 17.7521685635063 13.692154140775417 13.086167809101065 0 0 0
120 2 17.305286154588597 14.186690781774981 12.380497474246239 0 0 0
530 2 22.105758612351618 2.027006581841096 5.643641139741694 0 0 0
124 1 6.041439211352827 4.189855173320248 11.371804336623788 0 0 0
125 2 6.76954210493053 4.598225006138499 10.786793409304565 0 0 0
208 1 18.44049059912405 4.2963453423050995 9.629919984518683 0 0 0
692 2 30.327672418608387 14.09439015758784 1.4590707737078878 0 0 0
129 2 6.490206701085575 10.379689229436362 4.042252486200741 0 0 0
132 2 9.152921968597813 11.839747712436784 10.551733412325985 0 0 0
133 1 10.668896870593025 2.766156776434039 4.439978617022987 0 0 0
146 2 7.522181277368671 1.6115470317184737 5.697452208409147 0 0 0
135 2 11.384204406580503 3.326527088521235 4.078744708923233 0 0 0
136 1 13.112404910268321 4.408115795592195 11.103836856557885 0 0 0
137 2 13.661718828714644 5.029793461481234 10.595465147825909 0 0 0
138 2 12.8259732669502 5.039906155210486 11.77358103175425 0 0 0
139 1 13.011776665172103 9.991537681017169 4.45128792765378 0 0 0
140 2 13.714148677183644 10.3569150522596 3.8764443876713335 0 0 0
141 2 13.394975161754978 9.227453623789062 4.940482436691178 0 0 0
142 1 15.652654134120079 11.815738340052222 11.234501366804833 0 0 0
143 2 16.300630252345474 12.28548443141199 10.691260785099768 0 0 0
144 2 16.12623168355244 11.119895694649479 11.71858474554426 0 0 0
345 2 6.1388424248943485 13.457702521646619 3.7255273169983156 0 0 0
147 2 6.522806931625441 2.8378907245588483 5.552233502702682 0 0 0
379 1 17.386449657474802 14.865856359094618 5.296331229416689 0 0 0
149 2 9.644424061653703 3.8357001390234218 10.969031224459263 0 0 0
282 2 20.435247953027513 7.840663368907892 10.32965374472771 0 0 0
151 1 9.189902683913528 9.369282593800017 5.197348205417747 0 0 0
152 2 8.519852769790132 10.079764341317228 5.481779254309879 0 0 0
153 2 9.417122081791945 9.504894045117847 4.250243141870193 0 0 0
154 1 12.141998881222195 11.08061628458859 11.888420931289168 0 0 0
155 2 11.61861424836967 10.224261559536066 11.902580812234437 0 0 0
156 2 12.38830294308321 11.092874510680884 10.96715811896899 0 0 0
157 1 14.10805526778587 2.260469861966709 5.183230282534414 0 0 0
145 1 6.78935138045561 1.9663391911236148 5.1943627482077 0 0 0
159 2 14.301661722302184 2.43671280204089 4.254516805888727 0 0 0
160 1 16.975783609475524 3.8027815537123537 11.854709053263647 0 0 0
161 2 16.613961051348422 4.6364210068601945 12.166382013712381 0 0 0
163 1 16.74721028924827 9.419577880321732 5.108585810809032 0 0 0
164 2 16.253019508673678 10.26095263817679 5.313989753713544 0 0 0
165 2 17.160919968197334 9.6502183645731 4.2966771000535 0 0 0
166 1 19.133287344795754 11.18311359715809 12.22316876190497 0 0 0
167 2 18.797444014575454 12.086945660804433 12.490407822555627 0 0 0
168 2 19.385813165474687 11.265905827715303 11.314973898578948 0 0 0
169 1 9.077768359480924 4.293997415507561 6.040534255803171 0 0 0
170 2 9.598466976871846 3.70519180126484 5.476993972394595 0 0 0
171 2 8.302776730448926 4.558059583723521 5.502478629464633 0 0 0
287 2 22.789325853971704 15.037523739735914 10.22291629599747 0 0 0
127 1 5.765779595129045 9.919600888587079 4.525187681070753 0 0 0
175 1 11.272181926592534 11.382716706680487 6.27349063856092 0 0 0
176 2 11.962226476903195 10.99075804228238 5.696695851293655 0 0 0
177 2 11.625707000211598 12.122669975671846 6.793938263210182 0 0 0
178 1 14.142326919887878 13.184788825912808 12.941035121174009 0 0 0
179 2 13.423252601516909 13.45830063602051 12.291864437088613 0 0 0
180 2 14.748223803039659 12.757152345400987 12.297167695203509 0 0 0
181 1 16.403565925939283 4.424096033400603 6.01355184715401 0 0 0
277 1 17.15820143209456 5.973386034106376 3.022578100584566 0 0 0
183 2 16.770930052566094 5.220599238370056 6.456401177900624 0 0 0
184 1 18.923108753058226 6.223418949766127 12.944939803073474 0 0 0
187 1 18.985054891153787 11.296221709844371 6.192149904907719 0 0 0
188 2 18.559089123262673 10.824392333367102 6.969679456274314 0 0 0
189 2 19.272353410294354 12.062851832484775 6.771681535787762 0 0 0
241 1 7.387203342802976 4.429444719750274 0.751621557542353 0 0 0
192 2 20.741266563064375 13.441907262487744 12.845587235955794 0 0 0
193 1 8.316228030207652 2.4904622472867635 2.8940031992972384 0 0 0
194 2 7.752131547304112 1.9773707435723555 3.5553294351284164 0 0 0
195 2 9.153678305605396 2.530621277929342 3.357429280541707 0 0 0
196 1 10.87008500092868 4.182982796037448 9.542441640506851 0 0 0
197 2 10.824823904916817 3.372991940081181 9.063214575485187 0 0 0
198 2 11.634833698382625 4.1170973109330005 10.121203949085023 0 0 0
199 1 10.888684099166655 9.860190728574318 2.565581728124556 0 0 0
200 2 11.016726345151175 9.087293490613328 2.0685138501434377 0 0 0
201 2 11.653580023914364 9.858857635445128 3.1388813702812786 0 0 0
202 1 13.381309632292439 11.560992772506797 9.52703062333045 0 0 0
203 2 14.246083305439678 11.697254766944447 9.996565548728437 0 0 0
204 2 13.437683012374892 10.865838744801493 8.780532414091631 0 0 0
205 1 16.104826380579667 3.0912411975129466 2.599216945362662 0 0 0
42 2 20.917061489396094 10.219619725138621 12.882485744349145 0 0 0
209 2 17.819583874475605 3.9978598148719056 10.37807358286113 0 0 0
417 2 29.897640833251682 15.607491777092257 6.500980166241036 0 0 0
213 2 18.14812465220885 10.219398928819325 2.2557064092172454 0 0 0
214 1 20.67966614381745 11.3990298992627 9.630197165498625 0 0 0
85 1 8.674316104165877 0.6805712018431999 0.7238479282657045 0 0 0
286 1 22.159123309033536 14.724913572201288 9.53142145984062 0 0 0
217 1 5.675448335010822 1.2472289474456917 1.5388754787453425 0 0 0
30 2 13.63121515388724 10.282370014292336 12.931399426227225 0 0 0
319 1 6.489149976402031 12.012467908540422 0.86070523563031 0 0 0
220 1 8.233968355179972 2.9967032604729034 8.273863613974967 0 0 0
221 2 8.282369027964185 3.811511932108988 8.825078212275995 0 0 0
222 2 8.480539045557908 3.4131414817953605 7.332340611853704 0 0 0
223 1 8.059572238727187 8.135177901443399 1.8487566118259766 0 0 0
224 2 8.849773896423201 7.617206635559856 2.115738159502048 0 0 0
225 2 8.301561197874577 8.422481512455743 0.9351519998886777 0 0 0
226 1 10.548364533544659 10.081645308108046 8.4223575253116 0 0 0
227 2 11.148704010205794 9.31640346361743 8.644722586570605 0 0 0
228 2 10.90922447481682 10.404475059890338 7.563957724719128 0 0 0
231 2 12.53948823759492 2.3094940657255107 1.9542752080550312 0 0 0
128 2 5.100011522412069 9.677403008711945 3.8926086175238237 0 0 0
234 2 16.126874107719505 3.5716615262060105 7.764827306895277 0 0 0
235 1 15.673572959656326 8.372553692387731 1.7890336669899622 0 0 0
148 1 9.486283879296236 3.6692846323216157 11.881021379744505 0 0 0
237 2 16.30144414183771 7.81807108187234 2.230630126824765 0 0 0
238 1 18.12181099698458 10.280357134097587 8.670724508954573 0 0 0
239 2 18.74826792234443 9.694031299661624 9.074731020948487 0 0 0
240 2 18.229038837731494 11.14467568584697 9.187396499989552 0 0 0
242 2 7.634274740317248 3.8808680994541986 1.5493365884480395 0 0 0
243 2 6.630475571140415 4.942322705722419 1.023796037559676 0 0 0
244 1 10.205552660226486 6.269327178266376 7.806205690379648 0 0 0
245 2 10.386517500167288 5.79222493587819 8.633814326537902 0 0 0
246 2 9.835228322424229 5.496593087433085 7.288480222187276 0 0 0
247 1 9.71907480570125 11.568915921867355 0.7592402196232377 0 0 0
248 2 9.31945185848128 12.38582501455761 1.1387469572173545 0 0 0
249 2 10.179914250790434 11.118087616491662 1.5025398558912217 0 0 0
250 1 12.397010190836808 13.388095081430043 7.660595982272034 0 0 0
251 2 12.874070855509396 12.803745364222754 8.252958754797616 0 0 0
252 2 13.137832562946487 13.954411280847099 7.282343007817182 0 0 0
253 1 14.820743646185454 4.930039756688159 0.8048486232577929 0 0 0
254 2 15.197104236966547 4.224059980484815 1.4208445720432892 0 0 0
255 2 14.414741308825434 5.6140351772947215 1.35703726340987 0 0 0
256 1 17.621481069826004 6.325813847142556 7.767269816787668 0 0 0
257 2 17.967207390158702 5.769565432124429 8.528576779112477 0 0 0
258 2 16.931441378915277 6.902734851756473 8.111683024635504 0 0 0
259 1 17.768287306289714 11.506189432933146 0.8378856420044257 0 0 0
260 2 16.999022694606595 12.06095350440904 1.0643579512254004 0 0 0
371 2 12.87978582100367 16.762886596641067 12.006545835089728 0 0 0
262 1 20.068211942193816 13.254768475146603 7.859398710599768 0 0 0
263 2 20.33039198584814 12.748729842391224 8.622883705316816 0 0 0
264 2 20.772106046150196 13.881560025842056 7.616831756984068 0 0 0
265 1 9.700235833687648 6.0890603077994525 2.8225920077450266 0 0 0
266 2 8.827590971870876 5.757121614623553 3.0700938194807303 0 0 0
267 2 10.108511124619369 5.485079992645802 2.20870991527635 0 0 0
268 1 12.343865592103368 8.051196360260294 9.67610675654402 0 0 0
269 2 12.713088558412313 7.3206150660216975 9.074928642208269 0 0 0
270 2 11.65086202634866 7.54571947113961 10.172583184727774 0 0 0
271 1 12.500935960162476 12.893334807970083 2.642805734476779 0 0 0
272 2 13.255419563423294 12.904003338720974 3.217036305415093 0 0 0
273 2 11.74029968966209 12.44664091050586 3.075646988234243 0 0 0
274 1 14.976150039408214 14.490509193926853 9.508179889939482 0 0 0
99 2 5.054978388124676 3.5106191692054156 6.620726927362996 0 0 0
276 2 15.519094310472173 14.929978747138323 10.147277962939881 0 0 0
278 2 16.30073159524455 5.743892306613684 3.4583750550257433 0 0 0
280 1 19.725781594968915 7.901815203575701 9.714878140464267 0 0 0
461 2 18.58935248547335 3.242677594635576 8.251552567472144 0 0 0
283 1 19.857045254468677 13.196851111830577 2.99944314147719 0 0 0
289 1 5.761873537089161 6.837463441015385 1.8844892964170799 0 0 0
290 2 5.328609240635908 6.643179490503111 2.7634693161667068 0 0 0
291 2 6.5296081975700275 7.435731411176098 1.9771560203342289 0 0 0
292 1 8.328974693180404 8.215309483660624 8.46642991023612 0 0 0
293 2 9.026579146990727 7.58024709758887 8.228097114322422 0 0 0
294 2 8.853163351386875 9.034048640076696 8.461910620630599 0 0 0
295 1 8.291444331837537 14.11703506421687 1.9996378322362627 0 0 0
296 2 7.8329488826845814 14.100819848356323 2.8636562331827062 0 0 0
298 1 10.951180732127817 15.760658868456467 8.629088215520111 0 0 0
299 2 11.438131306412833 14.955031328319114 8.286001012521194 0 0 0
79 1 3.6612351901721354 8.001177971389447 0.7104457649626873 0 0 0
301 1 13.3295568277408 6.9315086001973 1.969328246108455 0 0 0
302 2 12.9471962538592 6.846370605761835 2.8652999463558775 0 0 0
303 2 13.958085705511959 7.669135024820178 1.87346383289689 0 0 0
304 1 15.9412866460986 8.564641992282313 8.49275161949144 0 0 0
305 2 15.701570039736925 8.604886055058632 9.444249039263067 0 0 0
306 2 16.63788118597488 9.251315185610682 8.314447244016627 0 0 0
307 1 16.055905236223506 13.53924709242746 1.9310283740362348 0 0 0
93 2 11.845806704399447 7.203467043445747 0.9985940338620424 0 0 0
310 1 18.796126122621523 15.657120326065836 8.577880113324253 0 0 0
311 2 18.97364043132039 14.739135462830298 8.353098989647497 0 0 0
91 1 11.223363438306551 7.832332600148118 0.557338720756707 0 0 0
315 2 4.650508421034129 4.190651541738564 1.5336227557295052 0 0 0
316 1 6.489858019406685 6.0894141834738305 7.519310614631002 0 0 0
317 2 6.7007434630219365 6.824309206701659 6.935326529501731 0 0 0
321 2 6.86299299237836 11.495761933982232 1.5884431663632645 0 0 0
322 1 9.075675374549908 13.426905164540802 7.5465910542943595 0 0 0
323 2 8.275549043524714 13.816616827287609 7.9339301346887705 0 0 0
324 2 8.814015117535927 12.65008894825283 7.026644883348028 0 0 0
325 1 11.481984288726997 4.434195029415363 0.655568359319309 0 0 0
328 1 14.037352484078482 6.541317694397665 7.766389587882195 0 0 0
329 2 13.681725323331008 5.752747739615026 7.321083984634014 0 0 0
330 2 14.613457075895225 6.248178932014285 8.490606223960306 0 0 0
331 1 13.6099641138548 11.495277530602 0.40688485128840307 0 0 0
332 2 13.064590262063225 11.806405331521805 1.1520546085660544 0 0 0
333 2 14.34982353882331 11.107008626620289 0.8789061715570627 0 0 0
334 1 16.559698864749958 13.403692867649728 7.655279513319955 0 0 0
335 2 16.964449730342835 13.862591186922321 6.873398045163733 0 0 0
336 2 15.94132242932318 13.945495426213832 8.138478486877997 0 0 0
112 1 15.553742410823483 6.205301163842077 12.830179240478655 0 0 0
340 1 7.374950452558765 7.878179074097662 11.259281154231395 0 0 0
342 2 7.911718220287645 8.282538738640037 10.55879503169785 0 0 0
343 1 6.900951778065806 13.41276323150639 4.295065236095726 0 0 0
367 1 9.704220768543331 14.795468261190566 5.058498476940637 0 0 0
337 1 4.215384442344737 6.250467347995995 4.488238406546944 0 0 0
346 1 9.266209676801502 15.205200072227843 10.945035739172166 0 0 0
347 2 9.795473132873733 15.414313814140483 10.151308558080403 0 0 0
348 2 9.731105737881421 14.448991161954648 11.405593529427946 0 0 0
349 1 11.952440109070926 6.485842389883054 4.380589189997288 0 0 0
350 2 11.884966217300567 7.359678886655386 4.893829760296422 0 0 0
351 2 11.071043139008738 6.293940053272984 4.012663416478528 0 0 0
352 1 14.707626560009738 8.239573331448424 11.213382256602566 0 0 0
353 2 14.92416993587843 7.353858350962823 11.579414758729715 0 0 0
354 2 13.919764795853814 8.157572630869998 10.748720333150933 0 0 0
355 1 14.55469911693236 13.584774168026609 4.272841468581543 0 0 0
356 2 14.843970447495794 12.66235189849218 4.521442273183006 0 0 0
357 2 15.126730452242864 13.749117871270881 3.4730780338648035 0 0 0
358 1 17.1808250049327 15.274788186393621 11.063971118381561 0 0 0
359 2 17.17354818211346 16.088848652018456 11.567979187904223 0 0 0
360 2 17.685614235552183 15.48906360349216 10.233829623459133 0 0 0
361 1 6.9288308477308185 7.600558287837224 5.324344893467658 0 0 0
362 2 6.385848724357677 8.223642197721043 4.8139817818717 0 0 0
363 2 7.797100361663165 8.082138086348511 5.218538836895283 0 0 0
364 1 9.993885614070187 9.376437654547969 12.12734421671996 0 0 0
365 2 9.408810124062812 10.118706288651994 11.959351449388711 0 0 0
366 2 9.785370641215957 9.023562695295007 13.003127164465187 0 0 0
531 2 20.629771800925642 1.8737347581626518 5.163616741303429 0 0 0
211 1 18.45791047134193 9.469881751993615 2.7737144548451 0 0 0
369 2 9.40945811479862 14.563575342609695 5.983098573696612 0 0 0
313 1 4.123617977203744 4.3479979559611595 0.7085552299716428 0 0 0
28 1 14.385919396771357 9.891449267137464 13.464707932027816 0 0 0
372 2 12.085264092605168 15.571770157721966 11.513865040038773 0 0 0
373 1 14.491192296264753 7.731511555493499 5.329617249834307 0 0 0
374 2 15.230879137935382 8.352601927047083 5.3469565406430375 0 0 0
375 2 14.336505308584734 7.359156951894348 6.215432701716708 0 0 0
376 1 17.08576979269137 9.434945806594271 12.420251254416627 0 0 0
377 2 17.91379981294028 10.005307060807816 12.292906822472986 0 0 0
378 2 17.00828816561839 8.691922638344812 11.801863794303497 0 0 0
130 1 8.390460072945947 11.376918710153804 11.017809745752388 0 0 0
381 2 17.330372053141716 14.177768889621458 4.563429945171316 0 0 0
382 1 19.66636678776674 16.730242034831594 12.003762690586184 0 0 0
37 1 19.09380978464715 8.32477604745067 6.381727082145821 0 0 0
663 2 2.6931518922622444 5.490692896738937 1.8807107438559032 1 0 0
134 2 11.108510090573775 2.054313257839787 4.858760879322691 0 0 0
31 1 14.263248810912396 15.094878991879147 6.463119270047145 0 0 0
430 1 39.02856839825596 16.9650377577386 13.082782135909351 0 0 0
320 2 6.007645536947253 11.286209798641247 0.44421338941557015 0 0 0
751 1 24.79290794057275 14.974622104153374 5.489194626584995 0 0 0
43 1 21.49453723898915 15.159924279581146 6.614206773458342 0 0 0
34 1 16.654975495563754 17.20150871371925 13.210910692734426 0 0 0
78 2 3.8771230259010108 3.1811796622623083 8.351121760794271 0 0 0
570 2 34.23075101343371 6.636332491600764 13.235788065089245 0 0 0
683 2 25.12251501944186 15.930587077920114 8.130263550038862 0 0 0
82 1 6.203586053148049 9.70024971454224 7.5521624594309404 0 0 0
384 2 19.522117105171617 16.48449635487252 12.894839080898 0 0 0
418 1 31.597050636116535 16.87445165355504 13.050847342844122 0 0 0
114 2 14.873506371591976 5.600837945243882 13.162571976767625 0 0 0
575 2 37.064701190903676 13.808256180057432 13.251347501527615 0 0 0
33 2 13.46429624213514 15.415845111607773 6.038153855189853 0 0 0
123 2 3.556152714082885 1.9238640054900404 4.727590108059684 0 0 0
232 1 15.661957950545625 3.214575509861879 8.536740494916844 0 0 0
212 2 18.514229135664728 8.728258114344339 2.158876112715419 0 0 0
512 2 20.12767431849964 10.513963971083587 4.89083700238139 0 0 0
207 2 16.0295861077738 2.2021172657834986 2.3228780954450396 0 0 0
281 2 20.009185448164594 7.419176220082965 8.93572848709499 0 0 0
457 1 16.06547108707478 1.055210686329437 0.5197773468667297 0 0 0
210 2 19.27995843323555 4.46193360072168 10.14197042693345 0 0 0
219 2 5.904681589501019 1.4877437990120848 0.6014949679024675 0 0 0
669 2 34.97655137620217 12.926200060806677 2.048266998825873 0 0 0
131 2 7.509806159609241 11.532617929462411 10.50727117604004 0 0 0
76 1 3.866680926972436 2.638982547090908 7.549777844033045 0 0 0
432 2 39.243396263953116 16.37419096462459 12.362644222163922 0 0 0
216 2 20.82433740573168 10.539408448370292 9.173338087570345 0 0 0
1617 2 9.150358888242932 12.031372734978355 13.597293662379709 0 0 0
39 2 18.640927944822124 7.6643219684138355 6.957721717564501 0 0 0
344 2 6.843118905967814 14.263475212791834 4.828013961335601 0 0 0
557 2 26.824705430742817 6.897949129457158 13.174641909813765 0 0 0
492 2 24.66736528678223 12.644971046687425 13.499921457419076 0 0 0
1184 2 24.39845277104867 1.684763307692986 6.323132075269051 0 1 0
218 2 4.82628063298242 0.7640343090345029 1.5934975010843893 0 0 0
638 2 29.450726273702244 5.1106536899275605 1.0836896835408738 0 0 0
616 1 30.559440099192138 2.7377922745180725 8.714358614504455 0 0 0
40 1 21.59294004605862 9.735590576048828 13.40989335630257 0 0 0
486 2 22.319734544568746 5.669464385925025 13.305065898312014 0 0 0
1523 2 21.59462156650228 3.096980722711128 11.689417755639413 0 1 0
285 2 20.391564377779826 13.234716264862998 3.804407397896595 0 0 0
73 1 1.2875383939352691 0.4061903367260333 0.40180561716632 0 0 0
279 2 17.15366030264906 5.519694928065916 2.1493710376988306 0 0 0
412 1 29.044653303072824 9.639041093372766 13.085591419302485 0 0 0
215 2 21.44477135813412 11.596584838621267 10.211953589646097 0 0 0
722 2 18.628772879777987 6.275212106723874 3.992385907202739 0 0 0
206 2 16.94435163668672 3.0596150322916014 3.0789013784799084 0 0 0
284 2 20.261568803754606 12.562431743646275 2.3971005982806943 0 0 0
459 2 16.76356035692135 0.399077698627361 0.8066680680391752 0 0 0
173 2 11.981530966171793 6.968547639902554 13.43381132257743 0 0 0
41 2 21.907025342573636 9.0740917224158 12.770999282765759 0 0 0
542 2 30.04054112527375 1.802748345643057 5.644110736795009 0 0 0
385 1 22.497851785314516 5.389565124062742 4.046303495292313 0 0 0
386 2 21.697683448824108 4.903064751667315 3.7720119282444573 0 0 0
387 2 22.994104076883435 4.879516192108258 4.7204578746097985 0 0 0
388 1 24.881089323637102 7.101853725965408 10.746772324438533 0 0 0
389 2 25.278140811123293 6.664642986170328 11.555540510187992 0 0 0
390 2 24.17993112638202 6.517473949761423 10.370647478378869 0 0 0
391 1 25.065790980048245 12.324584275689174 4.2536825405490815 0 0 0
392 2 24.496644100772325 11.76343168942221 3.636530583886907 0 0 0
393 2 25.764252929209647 12.651093178313191 3.6114486293725347 0 0 0
394 1 27.324826109094435 13.729722910653278 10.968703094551312 0 0 0
395 2 27.086055187812835 14.54250070653663 11.471989509232571 0 0 0
396 2 26.53985944928729 13.358683604674871 10.522986286702233 0 0 0
397 1 29.86239803076885 5.149665682810041 3.914066771126297 0 0 0
398 2 29.209737182302643 4.572805182130602 3.504224337193269 0 0 0
399 2 30.60518794877512 5.392552771546572 3.3380266985316966 0 0 0
400 1 32.09893468864748 6.779970980753594 10.90334989024613 0 0 0
401 2 32.10689035893805 7.765572069433014 11.185625803770693 0 0 0
402 2 32.56959276776321 6.325674313362056 11.638244743608068 0 0 0
403 1 32.38990018292366 12.27196333705283 4.213553026688777 0 0 0
404 2 32.694261425401805 11.826353567734579 5.026537107914616 0 0 0
405 2 33.216729065007975 12.538476092980488 3.709597947913884 0 0 0
406 1 34.915155216583486 13.973309612559634 10.705192125044494 0 0 0
407 2 35.5049857202418 13.71379405954503 11.442687811010249 0 0 0
408 2 35.60787100080022 14.300385423699838 10.099539066815971 0 0 0
409 1 26.58990406389836 8.10212738299532 6.441108467281867 0 0 0
410 2 26.017634110978392 7.51637586000988 7.006545289327237 0 0 0
411 2 27.241567539991628 8.531602445728074 7.025396677526945 0 0 0
413 2 29.194740488937295 8.99439863581228 12.424378878412448 0 0 0
467 2 21.593919072469 10.190900828867122 6.967356719578601 0 0 0
416 2 28.872700486425025 14.536328665138637 6.7676934500020725 0 0 0
150 2 10.350206329228765 3.5979701368952997 12.380552588419256 0 0 0
664 1 34.64573983374208 7.397697010703905 9.446183614429474 0 0 0
420 2 31.918045254160525 16.17758087605653 12.41562699423098 0 0 0
752 2 25.67592520630491 15.339477979034399 5.221412006455961 0 0 0
425 2 35.690966992057085 10.172850519028888 12.864725744840298 0 0 0
730 1 24.16674931789708 15.350112854306603 11.142263102085323 0 0 0
460 1 18.815123342068592 2.618461816765369 7.52153625328374 0 0 0
433 1 20.118946850657593 4.001810668728192 2.964960226324792 0 0 0
434 2 19.6227063686267 4.3505307917797795 2.14808947962888 0 0 0
435 2 20.460620104112767 3.121061545966299 2.6080666744397503 0 0 0
436 1 22.599965097740167 5.445846147070258 9.47330138035937 0 0 0
437 2 23.00641402423758 4.655618732321201 9.128147945856036 0 0 0
438 2 22.071850746466467 5.772700947707376 8.656923455331645 0 0 0
439 1 22.943455599108994 10.721400027746146 2.975749894101984 0 0 0
440 2 23.152193394813906 9.879067610051353 2.4494206039146196 0 0 0
441 2 22.144847474760144 10.509300173816584 3.5517279013426544 0 0 0
442 1 25.12580601978675 12.570533891017961 9.938341604502934 0 0 0
443 2 24.712429028726536 12.906983056270485 9.127482848120335 0 0 0
444 2 25.44452008312046 11.747873752127935 9.59428686565545 0 0 0
445 1 27.833115958624617 3.5205385317846463 2.9975082214097197 0 0 0
446 2 27.329316437759545 3.9949239151729716 2.3575942224595217 0 0 0
447 2 28.10800820976375 2.630432854501878 2.6070446159873186 0 0 0
448 1 30.12429680485723 5.337200031671369 9.597839860641091 0 0 0
449 2 30.41457237624207 4.437464718391502 9.604673319623247 0 0 0
450 2 30.854512802840052 5.718722305480999 10.163430724634258 0 0 0
451 1 30.215475878590425 10.500867164567971 2.8513432344147542 0 0 0
452 2 30.89624478501131 11.048963582731382 3.2671865864344327 0 0 0
453 2 29.586399106247892 10.335595397470772 3.5717111593481388 0 0 0
454 1 32.73536968498417 12.253306022257155 9.616425293528899 0 0 0
455 2 32.41184227613686 12.669826593140781 8.777527636897263 0 0 0
456 2 33.39246158433852 12.826980427108868 10.00753006949031 0 0 0
682 1 25.831332529028252 15.591173096376378 8.742093616842228 0 0 0
668 2 34.14512330214271 14.21312341523795 2.4793655829811234 0 0 0
309 2 16.75305730307792 14.127116010940448 1.6340300912186554 0 0 0
569 2 34.563441653856444 5.309064853829813 12.369623171425465 0 0 0