LAMMPS data file via write_data, version 8 Apr 2021, timestep = 1642000

3072 atoms
2 atom types

0.14702960042639213 29.993164399575793 xlo xhi
0.16725686708386528 28.17320913290888 ylo yhi
0.06574511463121545 27.345699885361462 zlo zhi
10.314294479617837 10.357196409898688 7.123262487962445 xy xz yz

Masses

1 16
2 2

Atoms # atomic

1 1 7.553262739592943 5.284371355968447 4.015060333259664 0 0 0
2 2 6.7699702706967 4.780602106067981 3.848387268323325 0 0 0
3 2 7.265681635103619 6.025182253968637 4.596913085330986 0 0 0
4 1 10.328857724156821 7.226742284604967 10.833991792728073 0 0 0
5 2 10.75869031055268 6.744494388347552 11.558954245998356 0 0 0
6 2 9.887295965884777 8.006086123480792 11.25275816134878 0 0 0
7 1 10.09106889776914 12.17168901166408 4.28288259420461 0 0 0
8 2 10.592378279191415 11.911058085447884 5.085554600269558 0 0 0
9 2 9.694053693864035 13.113443315935262 4.476464338060809 0 0 0
10 1 12.516316556634873 14.139366947103266 11.19219074106481 0 0 0
11 2 13.291395778733747 14.286134986967093 10.570767899624554 0 0 0
12 2 11.962773831072386 13.472311785632545 10.752021800462634 0 0 0
13 1 15.110466591579371 5.207190397074494 3.986124886521507 0 0 0
14 2 15.665091093485406 4.970879721696703 4.797968109850413 0 0 0
15 2 14.86474171374447 6.095021074147537 4.336741102541845 0 0 0
16 1 17.684453004705194 7.007486097777826 10.753677627299036 0 0 0
17 2 18.039360713829584 6.8550046483056235 11.634281875449576 0 0 0
18 2 18.401894112739562 7.1520900666933755 10.108675612678061 0 0 0
19 1 17.58005328782507 12.296401180489829 4.053101428584236 0 0 0
20 2 18.274937211516928 12.60447685622523 3.469615245490232 0 0 0
21 2 18.105969702664975 11.981341223514228 4.882633667616169 0 0 0
22 1 20.053321297075275 14.035758497738025 10.8916717976037 0 0 0
23 2 20.785088108649624 14.215845939598688 10.320595884998117 0 0 0
24 2 19.83560915242811 14.919900445005753 11.331958107526177 0 0 0
25 1 11.82039752226125 8.255047345649634 6.386537493270279 0 0 0
26 2 11.032554110161472 8.71994630758329 5.974556858479452 0 0 0
27 2 11.378368366694582 7.802742608233795 7.135430261802434 0 0 0
295 1 8.598810246264504 13.923895004404663 1.762394406116402 0 0 0
29 2 14.433886196090672 9.38754926274415 12.382479045359869 0 0 0
216 2 21.09349276983334 11.003289234177199 8.87619837029523 0 0 0
890 2 7.992555332539726 17.75539102301319 4.857369318650079 0 0 0
40 1 21.93502414313869 9.890622127312774 13.274382500322048 0 0 0
32 2 14.305877707095155 14.319160014496989 5.464954923186299 0 0 0
38 2 18.439216934165344 8.896764552915387 6.0971680272688085 0 0 0
87 2 8.503687892817151 1.7110056335758383 1.3719815318853634 0 0 0
275 2 14.63467202129188 15.75456503009532 9.153795789386441 0 0 0
172 1 11.730869578590909 6.241072884640553 13.086635516400113 0 0 0
49 1 5.498185951662145 3.7631166112207732 2.982733170314049 0 0 0
50 2 5.537772310840169 2.9253836406363867 2.4465861853287825 0 0 0
51 2 4.920273262013923 3.549261373000247 3.754500040462924 0 0 0
52 1 8.270687268914028 5.5176276957606465 9.74730772297708 0 0 0
53 2 7.989502532139883 5.853692472928793 8.852252805609147 0 0 0
54 2 8.919351395322979 6.1254085504306435 10.131981046274413 0 0 0
55 1 8.075981563738223 10.83296256520832 2.9290783096679456 0 0 0
56 2 8.231391620581102 9.90697364846203 2.753328508468741 0 0 0
57 2 8.925764886784732 11.214861436501325 3.2096492886655015 0 0 0
58 1 10.23876383522618 12.50581048814425 9.837961489731443 0 0 0
59 2 10.041979497319575 13.132109267442297 9.041760447215195 0 0 0
60 2 10.29341880490171 11.642003923889858 9.43046013337552 0 0 0
61 1 12.746604344494108 3.6248948609672302 2.888907393190679 0 0 0
62 2 13.272481735206043 4.263408999808105 3.4072661674010534 0 0 0
63 2 12.417083729075745 4.033686066193871 2.0478470838108525 0 0 0
64 1 15.686170273924862 5.629186375943547 9.6910946445699 0 0 0
65 2 16.493407941981186 6.07945651135523 10.018644557475188 0 0 0
66 2 15.902534739990571 4.73980101071971 9.32401934476325 0 0 0
67 1 15.414932026122035 10.567726861325749 2.8356104461992597 0 0 0
68 2 16.264043488148392 10.935239773181323 3.15484547343433 0 0 0
69 2 15.530529127910826 9.631614288853994 2.4872685236035843 0 0 0
70 1 17.873561555998354 12.497986889249145 9.938230246253612 0 0 0
71 2 17.421425786638494 12.926842086926403 9.146139590635013 0 0 0
72 2 18.7086059554361 13.003935137271515 10.243879599742808 0 0 0
121 1 3.086908347178455 2.680989469694159 4.306749571352966 0 0 0
229 1 13.196863990753336 1.1010890373770548 1.5597127931622057 0 0 0
84 2 7.149805218871143 9.121979508217061 8.11736904715707 0 0 0
338 2 4.4193135294089885 5.896853487969331 4.893987741939355 0 0 0
310 1 18.595657957183235 15.714483809523776 8.776127566840971 0 0 0
90 2 12.02215483842863 3.328613519152632 7.05781657331363 0 0 0
94 1 13.767435690274764 9.801452844729928 7.6972776006020895 0 0 0
95 2 14.296058183968169 9.094355482160925 8.070571041511373 0 0 0
96 2 13.082049714118373 9.29002318215097 7.191706417768247 0 0 0
97 1 5.542971416575233 4.538946403522836 5.986722112145056 0 0 0
98 2 6.011621397422109 5.148524057457408 6.722179812313952 0 0 0
158 2 15.0300188230827 2.046279567762877 5.558161968829186 0 0 0
101 2 7.791151836187789 6.79271082587918 12.512184502099624 0 0 0
102 2 8.712669612808444 5.503038588917818 12.519058157053214 0 0 0
103 1 8.157692398440679 11.371821608176486 6.3301212438702 0 0 0
104 2 7.810650508969111 11.911155420201535 5.52833876222027 0 0 0
105 2 7.449461118164968 10.922341509460242 6.861308312634083 0 0 0
108 2 11.098057595128772 12.565359023747902 12.443510271221589 0 0 0
109 1 13.038070199993689 4.452009586438464 6.352569371940302 0 0 0
110 2 13.733299265378113 3.9492242222194456 5.868636735666516 0 0 0
111 2 12.547142048330963 4.854549216563118 5.650970199525088 0 0 0
318 2 6.181379559543154 6.8205746078770195 8.183761246119508 0 0 0
115 1 15.303971827310555 11.528258529961782 6.237272780751384 0 0 0
116 2 14.736787236516118 10.875068117161817 6.669308674738994 0 0 0
117 2 15.607738834403216 12.221915061590092 6.879584832541687 0 0 0
118 1 18.14315890628308 13.220446055449099 13.0624457845709 0 0 0
120 2 17.785832235607074 13.609533642748003 12.22999677686216 0 0 0
367 1 9.607918669215831 14.735449029553576 4.967025226460418 0 0 0
124 1 5.928078594962572 4.672944093804215 11.14051534165113 0 0 0
125 2 6.694602048150165 5.152799207957025 10.664182308894853 0 0 0
208 1 18.516224837437484 4.1025366255588 9.71436254832224 0 0 0
31 1 14.269460228763673 15.006281958727632 6.171129499884955 0 0 0
129 2 6.5542993315332145 10.513742285311418 3.9249993702788424 0 0 0
132 2 9.092647121516546 12.074326798657209 10.841547794909163 0 0 0
133 1 10.778543865399989 2.846236082644096 4.602308979688695 0 0 0
135 2 11.43597968241469 3.0587568699815892 3.9119051866973926 0 0 0
136 1 13.289154861874389 4.781261747438918 10.819144778432225 0 0 0
137 2 14.052708209546386 5.327548945498948 10.664824071858005 0 0 0
138 2 12.89876549015406 5.29732518596448 11.592517002235878 0 0 0
139 1 13.148199711909585 9.6163072212589 4.406540546961428 0 0 0
140 2 13.883208054308543 10.074934571718277 3.9503671552596056 0 0 0
141 2 13.565475761945478 8.923172564723453 4.933009610266442 0 0 0
142 1 15.698401072856381 11.825307672551233 11.143195349642534 0 0 0
143 2 16.500479996881765 12.219049725462249 10.718613286184736 0 0 0
144 2 15.991769378347298 11.132806523869473 11.740641150307614 0 0 0
147 2 6.563057648376483 3.023237911879651 5.435891662692217 0 0 0
379 1 17.181522518311613 14.533889451745331 5.564250656971684 0 0 0
149 2 9.83903266530648 4.189117350710619 11.017658533656201 0 0 0
151 1 9.552714056030098 9.209116137547682 5.240354472523816 0 0 0
152 2 9.18436324688492 10.066371644081261 5.666587613603793 0 0 0
153 2 10.041044936662075 9.56298098123753 4.455365853019592 0 0 0
154 1 12.169365083988628 11.227236412663993 11.798964575107927 0 0 0
155 2 11.439879319157503 10.556598355367303 11.716611311651135 0 0 0
156 2 12.644109150113069 11.276106970875514 10.955416654706003 0 0 0
157 1 14.334043175115141 2.460346639601625 5.000317598738195 0 0 0
123 2 3.6865844802221766 1.9631839337423826 4.756849898489408 0 0 0
159 2 14.804768259610738 2.578669977354516 4.1520567961736115 0 0 0
160 1 17.28175991106878 3.9637282293619274 12.028740537221099 0 0 0
161 2 16.849436893066944 4.798338701528582 12.273550901731124 0 0 0
163 1 16.811602152850153 9.162731036640533 5.137660500834955 0 0 0
164 2 16.44416452592754 10.076966631609054 5.2300340927154165 0 0 0
165 2 17.394104913740883 9.282078651407684 4.308587670869214 0 0 0
166 1 19.529216379761916 11.024046183521591 11.93925836626074 0 0 0
167 2 19.161768762807412 11.820330097864895 12.308891256319738 0 0 0
168 2 19.954591928256747 11.228738435682619 11.070438766414853 0 0 0
169 1 9.150730794523815 4.488755561910925 6.166084170780415 0 0 0
170 2 9.84752505863539 3.9248379087654786 5.842399403941788 0 0 0
171 2 8.611001678038088 4.665203029510621 5.366613987978237 0 0 0
127 1 5.890773741916784 9.957650516470228 4.3541526958692 0 0 0
175 1 11.648838846013152 11.533890683689453 6.307300958845924 0 0 0
176 2 12.327777332314882 10.957319739653844 5.879356641357043 0 0 0
177 2 12.098984761697707 12.34147672335777 6.635830693271551 0 0 0
178 1 14.369165488748754 13.148275168753962 13.001510105257845 0 0 0
179 2 13.561476221047043 13.374769782899744 12.456828957875244 0 0 0
180 2 15.029650505286394 12.915694421918944 12.327886232148003 0 0 0
181 1 16.675050327898383 4.28919724341909 5.823426828013739 0 0 0
215 2 21.869107285337652 11.43330946455931 10.12568805711839 0 0 0
183 2 17.180128847332366 4.983118910629054 6.264549216453033 0 0 0
184 1 19.22936197544308 6.15140154578572 12.843233996410037 0 0 0
187 1 19.010297282530782 11.604719945924096 6.321452261861145 0 0 0
188 2 18.659802828804573 11.082666714588997 7.071504816321132 0 0 0
189 2 19.459020016332047 12.407640385154874 6.802951542451367 0 0 0
241 1 7.476549719482214 4.683407415515962 0.9267115802471659 0 0 0
192 2 21.04428923809588 13.342988121550212 12.386089349112074 0 0 0
193 1 8.482727666385227 2.5200808023309738 2.7174879023536005 0 0 0
194 2 7.673630719516322 2.475266655165912 3.3269209025239173 0 0 0
195 2 9.331786653587637 2.572247180449996 3.269923430202113 0 0 0
196 1 11.024397788016804 4.419756533429179 9.53853496985636 0 0 0
197 2 11.05950246152198 3.7384739322266465 8.873291870448417 0 0 0
198 2 11.955479869682016 4.514809865096076 9.88489586442623 0 0 0
199 1 10.85503648443322 9.72719711358882 2.7526366553008366 0 0 0
200 2 10.759086700428012 9.070430942919621 2.0447569081638206 0 0 0
201 2 11.71030637350833 9.636994257458591 3.1670764716059456 0 0 0
202 1 13.591533784574562 11.881155665172445 9.524210571263135 0 0 0
203 2 14.452074424674484 11.907486275635916 9.984887667741491 0 0 0
204 2 13.660608006816114 11.10425884462526 9.00434770743993 0 0 0
205 1 15.943921313720898 2.8113896391728868 2.4082213810674964 0 0 0
209 2 18.07970361203094 4.110541992422574 10.561565759511172 0 0 0
213 2 18.380156710283632 10.446593532267325 2.284369429485483 0 0 0
212 2 18.51663258935871 8.981377301116014 1.913095817786238 0 0 0
960 2 26.41557411396467 27.643067978166375 12.330939480848356 0 0 0
30 2 13.682831311234077 10.596073262113746 13.017557768669608 0 0 0
319 1 6.482365121875491 11.826476865830164 0.9847930705343778 0 0 0
221 2 8.188556531494836 3.861475999973375 9.333466259050569 0 0 0
222 2 8.501987917644698 3.195754562178675 7.941169665276643 0 0 0
223 1 8.063323877188216 8.299136324801593 2.017904959690566 0 0 0
224 2 8.721648786153018 7.602821247063955 2.1266295784161833 0 0 0
225 2 8.236947912138136 8.553769983715732 1.092306478683891 0 0 0
226 1 10.880943710532804 10.150703718695548 8.54951826083206 0 0 0
227 2 11.432402867929811 9.372347716875845 8.768096210349201 0 0 0
228 2 11.37420931868477 10.562848156747636 7.8053783995856545 0 0 0
231 2 13.255413331658778 2.0109805506030205 1.9303736900912547 0 0 0
234 2 16.11191936773815 3.5459131882759505 7.666039726442145 0 0 0
235 1 15.638060250964958 8.292788049218869 1.6618815590822051 0 0 0
237 2 16.248864300895224 7.544341290420673 1.9695261736682905 0 0 0
238 1 18.460658426685747 10.214226603392364 8.709013771800949 0 0 0
239 2 19.20944471994124 9.630823923812112 8.974627270919783 0 0 0
240 2 18.44857593848932 11.009889037747799 9.304158388076086 0 0 0
242 2 7.7529812356829995 4.018396164785945 1.6109480511299965 0 0 0
243 2 6.713870458467434 5.080179763755597 1.3774747109000784 0 0 0
244 1 10.15566276711337 6.552279153777861 7.748558766686518 0 0 0
245 2 10.394264465326872 5.831577479065225 8.382258575434232 0 0 0
246 2 9.695769609012721 6.064965391457523 7.0570831906770035 0 0 0
247 1 10.098070344314051 11.58374746469842 0.6880197416983144 0 0 0
248 2 9.435022604371742 12.216584770760152 1.099188748173836 0 0 0
249 2 10.56134664519762 11.228284383756561 1.4610873565786777 0 0 0
250 1 12.662590502422232 13.545531092403682 7.789330470721705 0 0 0
251 2 13.2373127379577 13.129273340251999 8.476460526869486 0 0 0
252 2 13.333236304550447 14.10780497265677 7.258137124647687 0 0 0
253 1 14.786351580778815 4.771875996684584 1.0277169373366681 0 0 0
254 2 14.976037637690785 4.125195287810342 1.7289662936704613 0 0 0
255 2 14.162572801238316 5.456067780929088 1.3765740595395306 0 0 0
256 1 17.857065056880177 6.241801673966478 7.634497983931623 0 0 0
257 2 18.01797019427036 5.6219349092948105 8.355073461336863 0 0 0
258 2 17.170935876887558 6.869109446243483 8.026555910171098 0 0 0
260 2 16.947490080220675 12.194843119660328 1.3206012290570226 0 0 0
262 1 20.26577750909127 13.279923230521243 7.736724313470615 0 0 0
263 2 20.75242953185795 12.881327872205832 8.529159902709784 0 0 0
264 2 20.87183454234194 13.927735872317122 7.357360013553296 0 0 0
265 1 9.851793305821847 5.951862055917266 2.6918621418681057 0 0 0
266 2 9.139199012986325 5.358668209968046 3.03524653351514 0 0 0
267 2 10.240944505335653 5.463155800659694 1.9690889395639941 0 0 0
268 1 12.594306595587268 8.020008858354181 9.57650289287582 0 0 0
269 2 12.80541650044485 7.364746869035621 8.899301309861757 0 0 0
270 2 11.714491749911314 7.6758738080196975 9.997176049278899 0 0 0
271 1 12.079635383878854 13.01966366637933 2.7094045495279397 0 0 0
272 2 12.88452330812642 13.210222676835729 3.2229876682489156 0 0 0
273 2 11.397607863487826 12.676591815276185 3.431236422117963 0 0 0
274 1 14.81086465310745 14.861564817553594 9.5567714922382 0 0 0
99 2 4.881910724424305 4.063027245231462 6.554956197978266 0 0 0
276 2 15.459636818453903 15.02369604640585 10.266133744553608 0 0 0
278 2 16.581902971757824 5.5628654920919685 3.053670501256554 0 0 0
983 2 26.215566109083912 24.766531797981283 8.709160720169212 0 0 0
283 1 19.8211925873755 13.087634828814092 2.640823502874154 0 0 0
289 1 5.744633890350502 6.909141246987398 1.9742591148746527 0 0 0
290 2 5.386895807214287 6.451002674385604 2.7222795693460267 0 0 0
291 2 6.56271925372309 7.391855537041986 2.2454098254519845 0 0 0
292 1 8.61302336745641 8.733187924471878 8.836739913368028 0 0 0
293 2 9.194577936867564 8.023097931648527 8.456350169948882 0 0 0
294 2 9.14446234330807 9.555210916754792 8.730222518231948 0 0 0
214 1 21.066709268823903 11.612066366823953 9.632680525398241 0 0 0
296 2 8.210358829407083 13.70886339274099 2.6037653515924015 0 0 0
298 1 11.070350451884023 15.685963076274529 8.728968396153462 0 0 0
299 2 11.583623995920991 14.94950748235289 8.351221490041587 0 0 0
301 1 13.250889965671423 6.893753846216087 1.8649331386961876 0 0 0
302 2 13.037332058248298 6.779887316525779 2.785670243661724 0 0 0
303 2 13.877463866867178 7.605115669549566 1.781646049748507 0 0 0
304 1 16.458215806476378 8.327207401934269 8.57324193466861 0 0 0
305 2 16.19731493116961 8.280557297604098 9.487597967682877 0 0 0
306 2 17.132500590253983 9.062253493594973 8.45766709317127 0 0 0
307 1 16.09530329860016 13.565388686122168 1.9943828031596462 0 0 0
1566 2 8.56849696228793 5.839524354553584 0.07636195513953174 0 0 1
134 2 11.0091661163056 1.9509357695952168 4.832685212831453 0 0 0
311 2 18.618789912302198 14.706689274340082 8.50039115964617 0 0 0
315 2 4.35753160752287 4.463148429980551 1.4168034460683379 0 0 0
316 1 6.763377006480905 6.240263565739167 7.593486554446723 0 0 0
317 2 7.042557302552625 6.828819719292426 6.856834889765426 0 0 0
321 2 7.069187716771169 11.414762737732344 1.7114878834764793 0 0 0
322 1 9.213756594019804 13.603636343765956 7.57991914908576 0 0 0
323 2 8.509709315334481 14.186055423461422 7.948429928197442 0 0 0
324 2 8.798800501603536 12.830289977172924 7.149993094502385 0 0 0
325 1 11.297952724337152 4.717018436757305 0.7889573057451555 0 0 0
328 1 13.96099406315194 6.5008520558868845 7.946376880259169 0 0 0
329 2 13.649700701373611 5.647846603821198 7.586550040616288 0 0 0
330 2 14.631740891515232 6.223705448681257 8.633405423559914 0 0 0
869 2 13.457015228050953 20.87720389993761 13.391806197643046 0 0 0
332 2 13.401511675069209 12.33810041932121 1.5449029682623607 0 0 0
333 2 14.510925226338864 11.230929153330665 1.538052788637141 0 0 0
334 1 16.252066459964777 13.394385914373238 7.84871688946156 0 0 0
335 2 16.607029508459526 13.81493086473812 7.039645120252679 0 0 0
336 2 15.704502470882142 14.102786223129156 8.287365815450636 0 0 0
340 1 7.103670994271598 7.886341289883409 11.20540787061994 0 0 0
342 2 7.748550723030453 8.167749963939642 10.468747730805516 0 0 0
343 1 7.013931495076117 13.340132894080378 4.397114179818161 0 0 0
337 1 4.325807298495573 6.707136366519184 4.4139882252488825 0 0 0
346 1 9.711067037974056 15.407893990709429 11.210787218179602 0 0 0
347 2 10.275330687493522 15.484677684866687 10.422597834074065 0 0 0
348 2 10.034177888717768 14.535130836486303 11.610310480974576 0 0 0
349 1 12.071521311694456 6.105132832826212 4.408017763466992 0 0 0
350 2 11.960985191986722 6.876832286701243 5.010755298128104 0 0 0
351 2 11.214489449788129 5.990074020521003 3.925307091795986 0 0 0
352 1 14.845286359271427 8.252069437138172 11.147185439811105 0 0 0
353 2 15.142302294054765 7.436861317832761 11.637889333456746 0 0 0
354 2 13.969235864222007 8.113294046449175 10.782147890067703 0 0 0
355 1 14.504601364079427 13.184898241416436 4.237739427279109 0 0 0
356 2 14.633001295391844 12.463688232279882 4.844980919095141 0 0 0
357 2 15.015550180405329 13.035044633478044 3.4894023987238247 0 0 0
358 1 17.004283613724567 14.968687746394426 11.292919391117962 0 0 0
359 2 17.03230339803315 15.74132592173593 11.84963113837231 0 0 0
360 2 17.569062953073153 15.00323249195733 10.545089622701934 0 0 0
361 1 7.248169518458494 7.713557828790511 5.193380816423544 0 0 0
362 2 6.606869012340147 8.329940930202083 4.83603925533627 0 0 0
363 2 8.050962414478715 8.251516937568498 5.040731575060019 0 0 0
364 1 9.731020875428136 9.515660020590543 12.110214864250228 0 0 0
365 2 9.14375154482021 10.282817007440803 11.928100294902274 0 0 0
366 2 9.499771609539264 9.1838705444958 12.99951576098363 0 0 0
211 1 18.536458447946924 9.554365864584936 2.6849387979949615 0 0 0
369 2 9.43562489874326 14.590615465812135 5.891594994665392 0 0 0
952 1 24.231521271739958 20.21235060646504 12.92365407815494 0 0 0
126 2 6.46700599788449 3.8358792190419746 11.335059425475226 0 0 0
372 2 12.420312474986911 15.59549568076805 11.756431347696099 0 0 0
373 1 14.735517240977059 7.642894734250538 5.312328725241093 0 0 0
374 2 15.43874343105439 8.289937840932833 5.332912384265121 0 0 0
375 2 14.58373627106595 7.400065351765864 6.26099621973696 0 0 0
376 1 17.390396317539068 9.494332902968509 12.00915751641114 0 0 0
377 2 18.310956794461074 9.863194597017927 11.944324390921548 0 0 0
378 2 17.397603074599093 8.69662894433155 11.465554410938237 0 0 0
130 1 8.366332124876582 11.623372513031816 11.431747940389913 0 0 0
381 2 17.097693300065785 13.82558243351647 4.872539011017568 0 0 0
382 1 19.731787089847252 16.309602687485476 12.017363474722488 0 0 0
148 1 9.464098165183875 4.1061641638513935 11.912690149193377 0 0 0
297 2 7.755469188592139 14.153720031898544 1.2274893182557003 0 0 0
220 1 8.151052768803758 3.0407571644652895 8.836038717077157 0 0 0
112 1 15.72798868788907 5.987127079048265 12.75403324668419 0 0 0
28 1 14.502977646151269 10.03733045201685 13.093025167594405 0 0 0
232 1 15.857234062694127 3.2545265704148716 8.574078607587811 0 0 0
1116 2 14.769084247615535 29.877799699962534 11.61159874269663 0 0 0
286 1 22.63705037454012 14.68731890459299 9.175742636648549 0 0 0
804 2 22.74237262439381 31.328103321607973 13.461142372285384 0 0 0
882 2 19.949706808398616 19.541046233643986 13.302181180715431 0 0 0
370 1 12.334998454500841 16.49984839397128 12.252668904260963 0 0 0
1232 2 23.410135229243757 22.300550516726883 1.2532699067217796 0 0 0
384 2 19.58752346872365 16.075584205359323 12.968821283360661 0 0 0
217 1 5.8069754700521585 1.3632310962838614 1.6472824109257882 0 0 0
173 2 11.96053066578019 7.08890722271338 13.472195517941548 0 0 0
218 2 4.927363404991775 0.9722025688368936 1.659387415882533 0 0 0
85 1 8.720755326486424 0.9607039458402598 0.7573815678770447 0 0 0
1109 2 12.498535921137913 22.746433326776785 11.670690741763751 0 0 0
860 2 15.781254303038708 21.388982494122796 0.12750148304430675 0 0 0
39 2 18.857793415660073 7.69457686613493 6.914680982424966 0 0 0
287 2 23.144866461996138 15.001580686993849 9.988663444258346 0 0 0
145 1 6.813989812925059 2.081459314584475 5.340280989796362 0 0 0
814 1 29.736505216437433 30.647893926100824 13.149645652800379 0 0 0
288 2 22.35031745038334 15.53106585219877 8.807963988094416 0 0 0
309 2 16.841889120590363 14.217803749892084 2.0859827437317406 0 0 0
371 2 13.244401705609604 16.814178562497016 12.322410061400872 0 0 0
976 1 23.44466729855556 18.44744982553226 9.641133101702778 0 0 0
88 1 11.403734936865348 2.6636168558128235 7.514495669781312 0 0 0
106 1 10.44425113600252 13.1504049743744 12.912474188695898 0 0 0
320 2 5.923145524690657 11.165630573365645 0.5792203181609105 0 0 0
1068 2 16.850025932214383 30.029930095169025 8.782232718913905 0 0 0
114 2 15.027992489244554 5.460617325271573 13.234202226225051 0 0 0
43 1 21.82409312916621 15.184439678990563 6.3999967671361615 0 0 0
277 1 17.263883043632017 6.182002155408536 2.6231091026415343 0 0 0
236 2 15.94356890490674 8.604201001655401 0.7588225803899838 0 0 0
344 2 6.945310461402285 14.12926367592529 5.012852337096612 0 0 0
82 1 6.520777067128554 9.724624652877315 7.621324696466021 0 0 0
841 1 6.49178607788444 15.028051253848624 0.7507025508709507 0 0 0
150 2 10.140721757312797 3.7803199467090436 12.500884794084365 0 0 0
91 1 11.168284662129068 7.952024580709612 0.6614702915804731 0 0 0
259 1 17.647662511297938 11.600041921948867 0.93333464401807 0 0 0
849 2 9.268202742535173 22.71515111371369 0.29647728043719024 0 0 0
796 1 19.565558934423184 24.0905960838195 12.885461960826545 0 0 0
190 1 21.742686961426752 13.336004024961822 13.054513678222397 0 0 0
1009 1 13.079688552265326 18.551213309706196 0.8856535115159716 0 0 0
383 2 20.54607152719793 16.855603931177164 12.031299384719235 0 0 0
186 2 19.102842074390228 5.432077181784783 13.476355076623964 0 0 0
894 2 11.400123045377779 17.93447781165839 11.398536647510662 0 0 0
46 1 24.256290508740555 17.1104779797317 13.239955559319126 0 0 0
93 2 11.908128884999451 7.451647812630674 1.15100774487285 0 0 0
1050 2 25.265939181341345 21.52146684464299 8.95005470101557 0 0 0
37 1 19.2327306235483 8.46514404141277 6.4217254480092665 0 0 0
100 1 8.233718161497496 6.162179687696855 13.138993284647606 0 0 0
282 2 20.634162492501666 7.646816806629199 10.298792781388137 0 0 0
312 2 17.814340992332344 16.13846825677085 8.280734403479814 0 0 0
81 2 4.529781077636421 7.575494320426993 1.3175914745546222 0 0 0
34 1 16.907168288571356 16.85194102671569 13.20433670761154 0 0 0
308 2 15.365524297124404 14.00520825166908 1.4713616313509248 0 0 0
1095 2 15.971844604299385 17.78111703918445 0.1853994890020443 0 0 0
808 1 26.907162720747948 23.938839186831228 13.099045412965173 0 0 0
1099 1 19.19094411850617 25.724662698694925 1.0904022700136087 0 0 0
1152 2 14.186500936937122 3.1921301665624005 11.419946631706111 0 1 0
802 1 21.931804241328397 30.933863142356266 13.066037077844092 0 0 0
207 2 15.952106480805602 2.1156540881088435 1.7510604850748526 0 0 0
2630 2 21.806266468957958 22.679044671990315 13.67316953811574 0 0 0
1028 2 22.087194798530344 24.850354980830783 0.5420576722020223 0 0 0
1106 2 8.818806959742133 20.15391356020234 3.8230525970211 0 0 0
182 2 17.229720477301232 3.7502129673596833 5.2192563131252285 0 0 0
44 2 21.22528793203093 15.835440440340797 6.07415150483516 0 0 0
816 2 28.990107821214362 31.12806573923934 12.822810525449102 0 0 0
233 2 16.50594026879188 2.6013594933016337 8.837454481663288 0 0 0
855 2 12.923751931419082 14.369718788390815 0.44950141164332214 0 0 0
851 2 11.885314064741893 24.407731979090194 6.691960005137787 0 0 0
842 2 5.7383096993771625 14.5857051116214 0.32235448118475113 0 0 0
981 2 24.129693561623093 23.738573305880347 3.1692253458863875 0 0 0
331 1 13.95607969922849 11.755404037671552 0.9631916581708462 0 0 0
1092 2 13.349007075738578 27.890816182632943 8.154761550394374 0 0 0
73 1 1.3913940654341026 1.1397465989859819 0.42794126411972394 0 0 0
987 2 9.923566684253167 14.974666143999917 1.383268212320537 0 0 0
107 2 10.856204016250286 13.670478162202787 13.608854706611444 0 0 0
1093 1 16.3062668902625 18.491897883790152 0.7151896939685347 0 0 0
380 2 16.610309433763106 15.169771262423769 5.211820730907435 0 0 0
1079 2 24.3693029865454 30.39818733224551 8.74455792640519 0 0 0
1052 2 24.629451609028884 27.90782303481297 2.0835836785702573 0 0 0
1040 2 17.09651507493891 28.150674474845847 2.3886618072710313 0 0 0
1023 2 20.945607930383076 18.800854028450928 0.5712732786952824 0 0 0
850 1 11.644244787367326 23.840272289395145 7.42229422727138 0 0 0
300 2 10.370060949287105 16.03413126519266 8.115428786531963 0 0 0
1051 1 25.012766250057325 27.011007619438896 2.4304329487841247 0 0 0
79 1 3.9311332048648038 8.072597245941054 0.7208908776897597 0 0 0
1137 2 15.879605128018932 29.139581304923443 5.45778097782591 0 0 0
47 2 23.557075421816304 17.59963672766585 12.721080400462341 0 0 0
89 2 22.341355167890775 30.188921469429754 8.082286944747528 0 -1 0
162 2 16.526724497155605 3.332180501852408 12.026571835027132 0 0 0
900 2 12.882453962775752 25.578840897578615 10.383703885049107 0 0 0
888 2 22.885392080701116 26.56230627378482 13.338942764590666 0 0 0
131 2 7.612035696465279 11.461421617811425 10.774759494380419 0 0 0
341 2 7.0416354428895405 8.671348427553003 11.805829279425339 0 0 0
1004 2 20.79334006652797 22.85996195367997 0.8742320152317627 0 0 0
1029 2 23.206649967020418 25.899780004790024 0.7516958273619404 0 0 0
899 2 13.930172778987904 24.936707975562403 11.397258822292827 0 0 0
1081 1 9.180913172231136 18.921073584881896 0.8819727737786958 0 0 0
859 1 16.5852263744159 21.854288369456004 0.4796790684859793 0 0 0
927 2 18.84296640131934 15.53750235880442 4.981650334448684 0 0 0
345 2 6.153813693880952 13.304439077166036 3.9297933181271754 0 0 0
813 2 26.50467215597045 28.83349635888529 6.913502055246025 0 0 0
92 2 10.577206326288149 7.205982762717582 0.34770636238709185 0 0 0
1151 2 25.05965163769991 30.68889453640599 12.818686512053379 0 0 0
1054 1 27.496039195915415 29.11652866789269 9.504271197265103 0 0 0
1139 2 17.5476552256607 30.156395672637395 13.141251308322706 0 0 0
327 2 10.995255763027204 3.904899925070915 0.30887402704791844 0 0 0
974 2 21.99837429416461 16.67129759048153 3.270738624575742 0 0 0
999 2 19.021738251977816 14.475304498072756 1.9955620741294713 0 0 0
119 2 17.494969275999523 12.676856278428255 13.493428753703304 0 0 0
986 2 11.316272277091098 14.596244864047241 1.8012687423295206 0 0 0
1656 2 13.134176471525182 10.463833934779055 0.26526291451063955 0 0 1
853 1 13.746057733514755 14.688366711270588 0.914655683425902 0 0 0
1087 1 11.926353226655532 26.19893814739229 0.6577462915298155 0 0 0
368 2 9.068041376129152 15.459336042195725 4.640508882765072 0 0 0
1114 1 14.756743402274653 29.130709176984052 11.002775101555617 0 0 0
1134 2 14.677101980272077 23.346042962563114 12.835877672001601 0 0 0
210 2 19.402330812904303 4.408881719312928 9.946169206875203 0 0 0
280 1 19.97715683656205 7.627162991004818 9.580092103923272 0 0 0
978 2 23.777215986398414 17.990435662864346 8.825717056276824 0 0 0
1000 1 21.002536800446528 16.857501050850054 8.468769845152522 0 0 0
1078 1 23.86537713528545 29.581194045347537 8.925417822204878 0 0 0
230 2 12.410554224802418 0.6722638662048428 1.9248772007201398 0 0 0
993 2 13.95621493920832 22.795181259567926 0.935147776548639 0 0 0
35 2 16.08239617371413 17.38631991776612 13.000046940905387 0 0 0
666 2 5.794021382760477 7.5526898063300205 10.128471482556733 1 0 0
847 1 8.918904574178583 22.00280562228225 0.8570299566300495 0 0 0
990 2 12.567688346869167 16.67398868246975 8.597997591767172 0 0 0
76 1 3.6753428591213577 2.7191284762387227 7.420825532223707 0 0 0
1140 2 18.48582978201151 30.824014240427378 12.129626028851805 0 0 0
805 1 24.30459985855227 22.275394767012276 6.358873008618685 0 0 0
1048 1 24.859320205638916 22.18375622202023 9.584257385114887 0 0 0
801 2 20.33698401691743 29.696609909568835 6.8918910494409396 0 0 0
1063 1 13.652093592571376 28.110345366462923 1.9593385500566405 0 0 0
1150 1 25.244574766223092 30.730132379673407 11.853705642846135 0 0 0
889 1 8.358165372037973 17.106181896034503 4.235081126768691 0 0 0
1149 2 22.678918404084865 27.89980819049487 4.719139615619972 0 0 0
806 2 24.928482786351843 22.800294712432436 6.8865682226577905 0 0 0
1124 2 20.348134142169997 27.56887589805788 3.702208640542274 0 0 0
946 1 19.41993057731027 27.225058373509764 13.090945066067711 0 0 0
896 2 11.347190636512604 23.13202120138889 4.546532375763208 0 0 0
1065 2 12.925736342144905 28.220047562913276 1.2743850999819486 0 0 0
1133 2 15.109613302812333 22.553928302170767 11.548886816526752 0 0 0
1144 1 22.52386645185734 23.49314033064312 12.302834157412011 0 0 0
1142 2 19.337728911791555 22.100727115434 4.7775801155249535 0 0 0
1143 2 20.76173916462047 21.89219463168392 5.19032875946631 0 0 0