LAMMPS data file via write_data, version 15 Apr 2020, timestep = 1156000

1920 atoms
2 atom types

4.1073560386402974e-02 2.4683331439611834e+01 xlo xhi
-1.0661173636503207e-02 2.4735066173633797e+01 ylo yhi
1.3799820302679677e-02 2.2778572179697456e+01 zlo zhi
-1.3133551194102036e-01 3.4121766685304823e-05 1.9445974522821510e-01 xy xz yz

Masses

1 16
2 2

Atoms # atomic

1 1 4.4331434636624323e+00 1.6708962267647520e+00 4.5366711327532698e+00 0 0 0
2 2 5.1098951538838060e+00 1.3577254859703740e+00 3.8901242454244809e+00 0 0 0
3 2 4.2225853613987931e+00 9.0907491515590644e-01 5.1534246066178548e+00 0 0 0
4 1 2.6290262356260317e+00 1.5345898695756957e+00 2.2293181531083222e+00 0 0 0
557 2 1.2028824251197662e+01 1.7574320337321350e+00 8.4878566673952331e+00 0 0 0
6 2 3.1496894289558588e+00 1.5953939459121644e+00 3.0830987848614706e+00 0 0 0
7 1 5.7754870207972484e+00 4.5247241604413979e+00 3.4897424043202476e+00 0 0 0
8 2 4.8050805812964512e+00 4.5551075291414600e+00 3.6105096375734900e+00 0 0 0
9 2 6.0586723119033818e+00 3.8098011259890945e+00 4.0088635674134654e+00 0 0 0
10 1 3.0905744945864999e+00 4.6436530540860756e+00 3.3718436271968537e+00 0 0 0
11 2 2.7878603898092269e+00 3.8051531376505996e+00 3.8130562293852708e+00 0 0 0
12 2 2.7338465055081320e+00 5.4134157392478173e+00 3.9027313091267088e+00 0 0 0
13 1 1.5826437779748090e+00 2.9036042343224091e+00 4.8811018126345109e+00 0 0 0
14 2 1.4964633058453358e+00 1.9596230077203773e+00 5.1191269638310928e+00 0 0 0
15 2 1.3996815083268634e+00 3.3686815043256386e+00 5.6943738046350401e+00 0 0 0
1105 1 4.4403085709623547e+00 1.2225063523738768e+01 1.2357079930382989e+01 0 0 0
17 2 1.0090008051856614e+00 1.3178652390399894e+00 2.2805617407735936e+00 0 0 0
19 1 4.7059865067399800e+00 3.3031291660766526e+00 8.5787161164214243e-01 0 0 0
20 2 3.9707544254200751e+00 3.0367095489278002e+00 1.4216931026613375e+00 0 0 0
21 2 4.6162670418455942e+00 4.2437761323499741e+00 8.7239531684173244e-01 0 0 0
22 1 1.3188682249049288e+00 4.5391640289838167e+00 1.3096887728418594e+00 0 0 0
23 2 2.0115112723666533e+00 4.6045231442871781e+00 2.0141488296921493e+00 0 0 0
24 2 1.6241053459485639e+00 3.8180956436874451e+00 6.6614953484356876e-01 0 0 0
25 1 4.8912794773926676e+00 6.0666843051614601e+00 5.8927581448498978e-01 0 0 0
26 2 4.1913035764415474e+00 6.3048509878218884e+00 1.2726199984564819e+00 0 0 0
27 2 4.6433029488092883e+00 6.7782952718599816e+00 2.2562246288687771e+01 0 0 0
1158 2 1.2058593464301721e+01 8.6001953866929117e+00 1.3200623175882713e+01 0 0 0
31 1 1.0572048320299483e+01 1.3336872957753929e+00 4.1913144539804232e+00 0 0 0
32 2 1.0685119485330095e+01 2.1365535560762665e+00 4.7710486030274826e+00 0 0 0
99 2 2.0680515569428320e-01 3.7611364001742493e+00 3.8878417333967201e+00 0 0 0
34 1 9.1139717673245144e+00 1.6396938116542694e+00 1.8712263193583483e+00 0 0 0
897 2 1.1445006917492211e+01 3.1396777113009455e-01 7.0554896502452920e+00 0 0 0
36 2 9.4090063689953425e+00 2.4722242500401506e+00 1.3840319705230975e+00 0 0 0
780 2 7.1885014879694431e+00 1.2294870194455214e+01 1.0046459268238596e+01 0 0 0
39 2 1.1102947321587108e+01 4.3326811865855088e+00 3.7308686233397235e+00 0 0 0
40 1 9.3084787977647476e+00 4.5970818973056717e+00 3.6563895071377885e+00 0 0 0
41 2 9.0336534152129619e+00 4.6992620686799542e+00 2.7180200258169167e+00 0 0 0
42 2 8.7963172230586757e+00 3.8055330572088342e+00 3.9831614222895801e+00 0 0 0
43 1 7.6219401962897741e+00 2.8704230185217270e+00 4.8594178623878683e+00 0 0 0
44 2 7.8981862245086498e+00 3.4721966177867585e+00 5.6741882390031710e+00 0 0 0
45 2 7.7004056774338903e+00 1.9653039791121900e+00 5.2711027349555479e+00 0 0 0
46 1 6.1033192792808162e+00 1.5012573474422013e+00 2.3638841632054510e+00 0 0 0
47 2 7.0525580194080089e+00 1.5633753593085895e+00 2.4006638388164339e+00 0 0 0
48 2 5.8019398164362466e+00 2.3123057204222257e+00 1.8681975301675742e+00 0 0 0
49 1 1.1134116715457797e+01 3.5285922746673779e+00 8.9087805735347936e-01 0 0 0
50 2 1.1697683356028415e+01 2.9906631336165330e+00 1.4525152514293138e+00 0 0 0
51 2 1.1147657029393022e+01 2.9072480925856579e+00 1.1228987995118737e-01 0 0 1
52 1 7.5777479643770871e+00 4.7275416705404476e+00 1.4629614963635000e+00 0 0 0
53 2 7.4685060547390236e+00 4.0260359290429646e+00 7.9214798417806931e-01 0 0 0
54 2 6.7472059792526968e+00 4.6831193888834335e+00 2.0457154491799030e+00 0 0 0
55 1 1.0836890593770098e+01 6.2088068532267382e+00 4.3811792062101479e-01 0 0 0
56 2 9.9504148563915003e+00 6.4441910938398026e+00 7.5283791848477233e-01 0 0 0
57 2 1.0746015478142883e+01 5.2102303922802040e+00 3.1620425646018330e-01 0 0 0
579 2 9.3761668330767919e-02 4.3175401395522819e+00 8.2690359945542209e+00 0 0 0
614 2 1.0486235769760397e+00 9.5093212084778411e+00 1.0239357749008182e+01 0 0 0
1608 2 7.0748557617245043e+00 7.7277110656433550e+00 1.9374863396317451e+01 0 0 0
531 2 1.0405897814394832e+01 4.2114236351002683e+00 6.4353632049511837e+00 0 0 0
121 1 4.5714661421735627e+00 7.6730145605842441e+00 4.3369449847766877e+00 0 0 0
122 2 5.3398073314851073e+00 7.6521580772802809e+00 3.7084659421740120e+00 0 0 0
123 2 3.8368092816945816e+00 7.6199882854239425e+00 3.7347086344890452e+00 0 0 0
124 1 2.9051741682743688e+00 7.7129536940862220e+00 2.0838861941995721e+00 0 0 0
125 2 3.3071558372583882e+00 8.4040265265298029e+00 1.5907685179158455e+00 0 0 0
126 2 1.9194043463392059e+00 7.7501093037807296e+00 2.1370714438792002e+00 0 0 0
127 1 6.2579227811032325e+00 1.0957407857737008e+01 3.6729053801465557e+00 0 0 0
128 2 6.5816597343361725e+00 1.0370663905271631e+01 4.3485968863848763e+00 0 0 0
129 2 5.2961480345517264e+00 1.0810548910180168e+01 3.6884783408307440e+00 0 0 0
130 1 3.5340894525918829e+00 1.0775830214303760e+01 3.5186306794786306e+00 0 0 0
131 2 2.9261122244957019e+00 1.0187801950202800e+01 4.0008606023428861e+00 0 0 0
132 2 3.1171516505251833e+00 1.0840964600917637e+01 2.6175419744948756e+00 0 0 0
133 1 1.5994703206953913e+00 8.7923933833689816e+00 4.7913153144344705e+00 0 0 0
134 2 1.7690775539150987e+00 9.1438032689854278e+00 5.7130411969411048e+00 0 0 0
135 2 1.0165092169247429e+00 9.4807463207380032e+00 4.4277026388042637e+00 0 0 0
1259 2 8.4218289745153356e+00 1.2004813173717668e+01 1.5766759915740684e+01 0 0 0
139 1 4.7669318756131096e+00 9.3860496963549114e+00 7.8080800235771053e-01 0 0 0
140 2 4.6842638810938091e+00 1.0304495935874039e+01 1.1194684856597474e+00 0 0 0
141 2 5.4176442535988958e+00 8.8902941800686328e+00 1.3211270059669389e+00 0 0 0
142 1 1.2361311804320192e+00 1.0672965902055745e+01 1.2878148995048233e+00 0 0 0
143 2 1.7013309674013379e+00 9.9239280837283737e+00 8.5466284921576607e-01 0 0 0
144 2 1.2775347689030145e+00 1.1371637519840675e+01 5.5871304774392083e-01 0 0 0
867 2 4.0307451453638485e+00 1.7926623076818854e-01 7.1148243590913864e+00 0 0 0
148 1 1.4794359185287933e+00 6.0787421598058362e+00 5.0242369058615930e+00 0 0 0
1456 1 4.9574130540975281e-01 1.7833925483977908e+00 1.9042341719462801e+01 0 0 0
150 2 1.4907297391980225e+00 7.0566114176966988e+00 5.0160622081143256e+00 0 0 0
151 1 1.1035229886946050e+01 7.5793612074087866e+00 4.4058578455407771e+00 0 0 0
175 1 1.0577789873956327e+01 1.2069757384456882e+01 1.0071453535868957e+00 0 0 0
153 2 1.1111485754254611e+01 8.2783368104686588e+00 5.1111883165063761e+00 0 0 0
154 1 9.0163194428340834e+00 7.8308745788739573e+00 2.5290104203603665e+00 0 0 0
155 2 9.5360452287508846e+00 8.5078862466003571e+00 2.0548829760109419e+00 0 0 0
156 2 9.6113866863449182e+00 7.6783476614074768e+00 3.2697929393100247e+00 0 0 0
217 1 6.7566076360752791e-02 1.0697740273121312e+01 3.7672903141270826e+00 1 0 0
158 2 1.1251524133415113e+01 1.1122448684195733e+01 3.3085229752345211e+00 0 0 0
160 1 9.5020175196939896e+00 1.0945172931954993e+01 3.5410375930523772e+00 0 0 0
161 2 8.8907502257608275e+00 1.0758982318958925e+01 2.8160539474499671e+00 0 0 0
988 1 1.4768823776922670e+00 4.3062358558792868e-01 1.6288723127474949e+01 0 0 0
163 1 8.2750132548348443e+00 9.2952617758781191e+00 5.2735989155238050e+00 0 0 0
164 2 8.1255986093421733e+00 8.3283258323032658e+00 5.2104232550371474e+00 0 0 0
165 2 8.8539902989752335e+00 9.5748473145874833e+00 4.5484891015020539e+00 0 0 0
166 1 6.3152635784865421e+00 7.7002926283887101e+00 2.1301177304959951e+00 0 0 0
167 2 6.0921972498887476e+00 7.0345873564253001e+00 1.4282385391664025e+00 0 0 0
168 2 7.2783798953736740e+00 7.6361845356107541e+00 2.3092235000482781e+00 0 0 0
169 1 1.0445413036459316e+01 9.4578682339161304e+00 7.9797800257754026e-01 0 0 0
170 2 1.0533417671802475e+01 1.0477101065465149e+01 9.2837142199518430e-01 0 0 0
171 2 1.0635103771481628e+01 9.5123073481206823e+00 2.2599047929986170e+01 0 0 0
172 1 7.6400399257455289e+00 1.0959496701958791e+01 1.4238669768460013e+00 0 0 0
173 2 7.1085899686672924e+00 1.0957580900993355e+01 2.2098514273928287e+00 0 0 0
174 2 7.6521598291912465e+00 1.0058500746391607e+01 1.1146382748734367e+00 0 0 0
1117 1 1.2007367764637342e+01 1.0800919891498770e+01 1.4941428012217168e+01 0 0 0
178 1 7.3865374763813216e+00 6.3144582341412194e+00 4.9967284871792561e+00 0 0 0
179 2 6.7847493381568578e+00 5.8312708755865490e+00 4.3794860990925724e+00 0 0 0
180 2 8.2807845228803689e+00 5.9902095106809634e+00 4.8270295895091371e+00 0 0 0
77 2 1.1915269984708074e+01 8.9210588351436915e-01 1.6597330606786314e+00 0 0 0
1615 1 1.0805332893868336e+01 1.2459906847550787e+01 1.7988499294522487e+01 0 0 0
997 1 1.2145998732062631e+01 4.5668195579013915e+00 1.4950551579415123e+01 0 0 0
1589 2 7.9857228377223211e-01 5.9830345216426748e+00 2.1418319958372482e+01 0 0 0
1619 2 7.8486324511739438e+00 5.8146197020149524e+00 2.3877000794007472e-01 0 0 1
495 2 7.7066975273559712e-01 3.2600639826403963e+00 1.0172128305920367e+01 0 0 0
1618 1 8.0673999769776508e+00 6.4189452613042830e+00 2.2129300328995313e+01 0 0 0
1739 2 7.0120906649258279e+00 1.2373706377452855e+01 2.1526257897321955e+01 0 0 0
1058 2 5.3881949441418553e-01 3.9312876326381461e+00 1.5278517368662637e+01 1 0 0
481 1 4.3682057913384469e+00 1.7335127650331648e+00 9.8555095690736554e+00 0 0 0
482 2 4.1957054082467096e+00 9.2914178079382304e-01 1.0428935783432916e+01 0 0 0
483 2 5.2051747586786119e+00 1.4581037756901551e+00 9.3063542409939135e+00 0 0 0
484 1 2.9675788489601591e+00 1.4961701689107567e+00 7.7198586096206299e+00 0 0 0
485 2 3.3661050326482216e+00 1.5224153742333257e+00 8.6233613134043416e+00 0 0 0
486 2 1.9889108843495997e+00 1.5696746627655942e+00 7.6681038310800993e+00 0 0 0
487 1 6.2627051002991045e+00 4.9636020594532777e+00 9.3738320982733718e+00 0 0 0
488 2 5.3039676432925820e+00 4.8153632080385780e+00 9.1906118446757930e+00 0 0 0
489 2 6.5224797378510386e+00 4.2899445825382925e+00 1.0007698806942779e+01 0 0 0
490 1 3.4350130314194307e+00 4.4399959186341311e+00 9.0896537482190354e+00 0 0 0
491 2 3.0567807451125830e+00 3.6289678963215790e+00 9.4947079090138402e+00 0 0 0
492 2 2.7966038377289508e+00 5.1478021243970735e+00 9.3505433958665964e+00 0 0 0
493 1 1.5038126312375806e+00 2.8095596477597851e+00 1.0682390782208136e+01 0 0 0
494 2 1.6471366444970132e+00 3.4653292455667657e+00 1.1446400061547797e+01 0 0 0
1605 2 7.0314858243156166e+00 9.5514875132548660e+00 2.1782370278636069e+01 0 0 0
1613 2 7.7225100048184512e+00 1.1538293488132538e+01 1.7631956981025201e+01 0 0 0
499 1 4.9547934620425043e+00 3.1736731851318627e+00 6.4600451614064385e+00 0 0 0
500 2 4.1938122382109428e+00 2.7238719923529837e+00 6.9188958374400027e+00 0 0 0
501 2 4.9781049042062921e+00 2.5882183513403212e+00 5.6383324755497890e+00 0 0 0
502 1 1.5394130558622001e+00 4.4888025873660755e+00 6.9621648718996516e+00 0 0 0
503 2 2.3792605302789460e+00 4.5128570398324301e+00 7.4547457339461500e+00 0 0 0
504 2 1.5549170132918408e+00 5.2695297622384913e+00 6.3970883888553036e+00 0 0 0
505 1 4.5290810816517002e+00 5.8778291009636074e+00 6.5973671533465863e+00 0 0 0
506 2 4.5939687853037485e+00 4.8767459368725081e+00 6.5769487303890823e+00 0 0 0
507 2 4.7203635101769859e+00 6.2312755695738522e+00 5.7193021160077340e+00 0 0 0
5 2 3.0754095305321880e+00 8.9837106134007383e-01 1.6522589489677648e+00 0 0 0
509 2 1.3090095001467688e+00 1.0482889753295819e+00 1.0775898658042523e+01 0 0 0
511 1 1.0938472152434652e+01 1.7367017877466786e+00 9.7691656592843081e+00 0 0 0
512 2 1.0815507211569487e+01 9.6722190892404103e-01 1.0319166154944504e+01 0 0 0
513 2 1.0221704519378569e+01 1.7853776640182932e+00 9.1410230051084884e+00 0 0 0
514 1 9.0632070692309892e+00 1.5234318859794644e+00 7.8601046042297487e+00 0 0 0
515 2 8.1727438773181547e+00 1.4388862500173305e+00 8.0897081115568650e+00 0 0 0
1571 2 2.9891282776586996e+00 1.1785626718084046e+01 2.1242050371375424e+01 0 0 0
1260 2 6.8821236450169181e+00 1.2464424999789840e+01 1.5787217870416127e+01 0 0 0
520 1 9.5569082566093151e+00 4.8628808498701570e+00 9.4770551989435301e+00 0 0 0
521 2 1.0497034686273865e+01 4.9801582086373202e+00 9.2392733032920145e+00 0 0 0
522 2 9.0988489538870798e+00 4.9889811353736615e+00 8.6547033113953304e+00 0 0 0
523 1 7.7767991114388133e+00 3.0603270888372678e+00 1.0622333040518294e+01 0 0 0
524 2 7.5938737271790915e+00 2.1061097744845529e+00 1.0623144516536717e+01 0 0 0
525 2 8.6501991869272388e+00 3.1720809130605203e+00 1.0397941436724523e+01 0 0 0
526 1 6.3894911887515828e+00 1.2589346039295146e+00 8.0826999830900519e+00 0 0 0
527 2 5.9410325385459588e+00 2.0484620462169385e+00 7.7220553068778530e+00 0 0 0
268 1 1.6386898623809822e+00 1.2257793674025386e+01 5.1452719555086386e+00 0 0 0
529 1 1.0475218282919741e+01 3.2650921693374602e+00 6.2956887778657364e+00 0 0 0
530 2 9.6487635061611190e+00 2.8844994721498245e+00 6.6223609757811577e+00 0 0 0
1178 2 2.2381941093731653e-02 1.1874747070044442e+01 1.5042693706309938e+01 0 0 0
532 1 7.8855533064516106e+00 5.0123315350524784e+00 7.1475855965278248e+00 0 0 0
533 2 7.3259605001299954e+00 5.3288486201703043e+00 6.4232034620647225e+00 0 0 0
534 2 7.3365261355627363e+00 4.8597271698215287e+00 7.9345530803699802e+00 0 0 0
535 1 1.0672868822484579e+01 5.9287205265876697e+00 6.6433788817093902e+00 0 0 0
536 2 9.8266706889331736e+00 6.3353093978427726e+00 6.9468229118310454e+00 0 0 0
537 2 1.0726481799327457e+01 6.1656998868259638e+00 5.7135629620609878e+00 0 0 0
1607 2 5.6903854197148034e+00 7.9210829293863982e+00 2.0096584690708529e+01 0 0 0
1585 1 4.5946060768774588e+00 1.2326932639479383e+01 1.7811787424115849e+01 0 0 0
1472 2 1.1568130159797988e+01 1.9589954717216846e+00 2.0751775173543532e+01 0 0 0
385 1 4.3437359769144521e+00 2.8387720085678837e-02 8.0689097377048968e-01 0 1 0
1612 1 7.5318848842056410e+00 1.0776856783029368e+01 1.8326517046349412e+01 0 0 0
601 1 4.7597357219070995e+00 7.8990479639213289e+00 9.7746699462102615e+00 0 0 0
602 2 5.5055207001338955e+00 7.9466010940803500e+00 9.1425394882192421e+00 0 0 0
603 2 4.9164683026578047e+00 8.4911725459194667e+00 1.0496025851441294e+01 0 0 0
604 1 3.0816492696289064e+00 7.6714411602517112e+00 7.6489025401918340e+00 0 0 0
605 2 3.3484779480925200e+00 7.7939165387034448e+00 8.5734748388961730e+00 0 0 0
606 2 3.5719149144755025e+00 6.9315309512523084e+00 7.2461989600530865e+00 0 0 0
607 1 6.4613972228117289e+00 1.1246556838066716e+01 9.1246456672743523e+00 0 0 0
608 2 6.9550415175951388e+00 1.1169623708774994e+01 8.2579676020102415e+00 0 0 0
609 2 6.6328719785873487e+00 1.0428070649098157e+01 9.6589928253169415e+00 0 0 0
610 1 3.4010177513036921e+00 1.0914073598879627e+01 9.2499016897634352e+00 0 0 0
611 2 3.0536345340207545e+00 1.0597836118554520e+01 8.3991110300871661e+00 0 0 0
612 2 4.3654356369933600e+00 1.1021836691975087e+01 9.1206856348542118e+00 0 0 0
613 1 1.7749117024395482e+00 9.1689047750694606e+00 1.0900532228769986e+01 0 0 0
58 1 7.8800512643392731e+00 1.7680119987498738e-01 5.1351040728777706e+00 0 0 0
615 2 2.6477288801755590e+00 9.3605141557920799e+00 1.0580121820786410e+01 0 0 0
136 1 7.9020937576188083e-02 7.6957736650670938e+00 2.0721419331196818e+00 0 0 0
618 2 1.0845606410676496e+00 7.4461827734152406e+00 7.6402610162314053e+00 0 0 0
619 1 4.5435804022336059e+00 9.5314901714594775e+00 6.2490237096784087e+00 0 0 0
620 2 4.5549466041306186e+00 9.0406717211590504e+00 5.3645534142844342e+00 0 0 0
621 2 3.9875924328848842e+00 8.9360416849669750e+00 6.7764058695544200e+00 0 0 0
622 1 1.7890591749524194e+00 1.0524061607344724e+01 7.0624566265895821e+00 0 0 0
623 2 1.1156719071903569e+00 1.0484028453826742e+01 7.7642914506976481e+00 0 0 0
624 2 1.5232935334579227e+00 1.1313518303645616e+01 6.5159317563532815e+00 0 0 0
538 1 7.6435953049907113e+00 3.8213826547223650e-01 1.0588454249494990e+01 0 0 0
626 2 4.6345149653061375e+00 1.1263711914182004e+01 6.2778486810122871e+00 0 0 0
628 1 1.6680640028500351e+00 6.2021104087703982e+00 1.0444229869909085e+01 0 0 0
629 2 1.8295794948560469e+00 5.8927429063300449e+00 1.1366623736815795e+01 0 0 0
630 2 1.7152920306520392e+00 7.1788671410721099e+00 1.0588486534821739e+01 0 0 0
631 1 1.0758406448809469e+01 7.9193951792423416e+00 1.0095515804481975e+01 0 0 0
632 2 1.1011870037992741e+01 7.2474461955813743e+00 1.0837070893251319e+01 0 0 0
633 2 1.1588880955633346e+01 7.8075443704539369e+00 9.5453246329591259e+00 0 0 0
634 1 9.3173139490072874e+00 8.1400119190502327e+00 7.7009381268549983e+00 0 0 0
635 2 9.6040484598508851e+00 7.9625018933238563e+00 8.6466385495111506e+00 0 0 0
636 2 8.3025765793745894e+00 8.2309482198681625e+00 7.7000313004815890e+00 0 0 0
654 2 7.6345305742781839e+00 1.1992156204068131e+01 6.5446624951305870e+00 0 0 0
639 2 1.1408623689629746e+01 1.0919309220241628e+01 9.5071079242161165e+00 0 0 0
640 1 9.7200946087747919e+00 1.0920182945974501e+01 9.2626370706370924e+00 0 0 0
641 2 9.2206814957412302e+00 1.1073499156611584e+01 8.4181484275953302e+00 0 0 0
642 2 9.2155387051188313e+00 1.0313414195698142e+01 9.8596812239505454e+00 0 0 0
643 1 8.0116396230740108e+00 9.5459871798392957e+00 1.0512555179909269e+01 0 0 0
644 2 8.0191928223244453e+00 8.5741846783781721e+00 1.0358350169785824e+01 0 0 0
645 2 7.9551781697837836e+00 9.7757946269891942e+00 1.1471538425002427e+01 0 0 0
646 1 6.6430662405985430e+00 8.2226302802472109e+00 7.4272620698159573e+00 0 0 0
647 2 6.5609222520717507e+00 7.3397710189207039e+00 6.9797601284909474e+00 0 0 0
648 2 6.1022970454329171e+00 8.7853216493261712e+00 6.8394497695273486e+00 0 0 0
649 1 1.1264220817417621e+01 9.5058272313508407e+00 6.3342140235853552e+00 0 0 0
650 2 1.1243570347730683e+01 1.0435069134862777e+01 6.3330740941138455e+00 0 0 0
651 2 1.0395959045364167e+01 9.1558480522884906e+00 6.6842234166237233e+00 0 0 0
652 1 7.8924907872999359e+00 1.1167199196324566e+01 7.0143759836236175e+00 0 0 0
653 2 8.0076489592359490e+00 1.0454197213209152e+01 6.3874019219576343e+00 0 0 0
1658 2 1.9763371921609478e-02 1.1242851457804425e+01 1.9700763991935158e+01 0 0 0
1089 2 5.1324470866726344e+00 1.1066325583674672e+01 1.4850335062220436e+01 0 0 0
658 1 8.0054449070372886e+00 6.9341001193968550e+00 1.0821673864821101e+01 0 0 0
659 2 7.4715886441386887e+00 6.2450588773295452e+00 1.0321388188557879e+01 0 0 0
660 2 8.9098961125396752e+00 6.5572164060384193e+00 1.0682424256658061e+01 0 0 0
1610 2 1.0618515628109231e+01 9.3638931591298959e+00 1.6958160166943870e+01 0 0 0
1604 2 8.5805309694433021e+00 9.7486836931906620e+00 2.1919653244648494e+01 0 0 0
1096 1 2.7074595913078203e-01 7.8990677408689809e+00 1.3725949689804136e+01 0 0 0
1539 2 3.0829361943807249e-01 3.9561718804942396e+00 2.1002062859677835e+01 0 0 0
1614 2 8.2853391782819337e+00 1.0850715858633389e+01 1.8961072076305115e+01 0 0 0
1611 2 1.1488081725134093e+01 9.1488429434563212e+00 1.8239068984943273e+01 0 0 0
1477 1 1.2254275365642821e+01 4.8832494019661903e+00 2.0487193070428503e+01 0 0 0
1616 2 1.0823957231098461e+01 1.1455592700468005e+01 1.7972019315746152e+01 0 0 0
1133 2 7.8232676291173719e+00 1.1726400115137231e+01 1.2084314302801028e+01 0 0 0
1057 1 1.2771814261528741e-01 4.7697816245543549e+00 1.4823845228523684e+01 1 0 0
961 1 4.4206725125655408e+00 1.7462006892169544e+00 1.5539979653129405e+01 0 0 0
962 2 4.5415258919227401e+00 2.5983401488370839e+00 1.6041869481849169e+01 0 0 0
1498 1 7.9458138252152875e+00 5.1973833151926352e-01 2.2129700066727253e+01 0 0 0
964 1 2.8338855233254781e+00 1.8819981123491158e+00 1.3351135952788743e+01 0 0 0
965 2 3.2743812440560287e+00 1.7418171656767172e+00 1.4222961261477991e+01 0 0 0
966 2 3.3698724720674993e+00 2.5505018363595870e+00 1.2884204312807450e+01 0 0 0
967 1 6.2614295842807088e+00 4.8184939541957625e+00 1.4796070466532770e+01 0 0 0
968 2 6.7086177559665989e+00 5.5873582638738064e+00 1.5148240118302423e+01 0 0 0
969 2 6.6975784327196051e+00 4.6453352102673442e+00 1.3906200224856246e+01 0 0 0
970 1 3.4467771963833207e+00 4.9599034180758350e+00 1.4908144146562288e+01 0 0 0
971 2 4.3973682296820691e+00 4.8501338078013632e+00 1.4959219755987021e+01 0 0 0
972 2 3.1449075789674632e+00 5.7282160256161445e+00 1.5413215863098065e+01 0 0 0
973 1 1.6792753432470149e+00 3.2028779337071156e+00 1.6121932283010516e+01 0 0 0
974 2 2.4402259103551476e+00 3.6190365245921425e+00 1.5675140479750914e+01 0 0 0
975 2 1.4857076249306245e+00 3.6889724597919149e+00 1.6931289158418622e+01 0 0 0
1018 1 7.4659291439262168e+00 2.8158049881728053e-01 1.6546547940244444e+01 0 0 0
977 2 9.9394501424685588e-01 1.9028572852305830e+00 1.3481942292860024e+01 0 0 0
979 1 4.7699534678647506e+00 3.3601440121582318e+00 1.1955271409284713e+01 0 0 0
980 2 4.7195995928989971e+00 2.8985391919131551e+00 1.1058959760351970e+01 0 0 0
981 2 5.4710609526692124e+00 2.9119282425263457e+00 1.2438875706586817e+01 0 0 0
982 1 1.8166499279401807e+00 4.7307387341643601e+00 1.2723964053699364e+01 0 0 0
983 2 2.7220046162490306e+00 4.8735705469379225e+00 1.3093385017683723e+01 0 0 0
984 2 1.2486624061937444e+00 4.7426978189882005e+00 1.3533078887482782e+01 0 0 0
985 1 4.6816717831102554e+00 6.2034473458133057e+00 1.2093663093316415e+01 0 0 0
986 2 4.7170141387598070e+00 6.5782247013818056e+00 1.1143782340503302e+01 0 0 0
987 2 4.8384661092347843e+00 5.2230250504338125e+00 1.2061120696061726e+01 0 0 0
517 1 1.2277699504684712e+01 5.1195830522462238e+00 9.4316688765283061e+00 0 0 0
989 2 1.4896641298700266e+00 1.3947532829702083e+00 1.6526134567772598e+01 0 0 0
991 1 1.0796683991554080e+01 1.7081309955475055e+00 1.5691962618656094e+01 0 0 0
992 2 1.0624801000473738e+01 1.1552241269954873e+00 1.6473261511641166e+01 0 0 0
993 2 1.0004154658690826e+01 1.7434789714377914e+00 1.5088063202084520e+01 0 0 0
994 1 8.9949415617395925e+00 1.5079619804321933e+00 1.3624650125783258e+01 0 0 0
995 2 9.4000805708989930e+00 7.8634455572516815e-01 1.3161389654441862e+01 0 0 0
996 2 9.3718404433355289e+00 2.2759534110771202e+00 1.3145733494371031e+01 0 0 0
1602 2 8.9031941875352114e+00 1.1895216331453923e+01 2.1018824371369657e+01 0 0 0
998 2 1.1202169845474952e+01 4.5400081462519744e+00 1.5238147691851490e+01 0 0 0
1000 1 9.6146097579812082e+00 4.6742700931582224e+00 1.5033089317568050e+01 0 0 0
1001 2 8.9280440897798421e+00 4.1832688942719649e+00 1.5454226810640101e+01 0 0 0
1002 2 9.2594524465555796e+00 4.7173167511145850e+00 1.4130639059463135e+01 0 0 0
1003 1 7.4760333437526123e+00 2.9227124138631235e+00 1.6262451781710613e+01 0 0 0
1004 2 6.9632827650267490e+00 3.5438035669981458e+00 1.5729893773273377e+01 0 0 0
1005 2 7.5940386888478955e+00 3.3271737740363072e+00 1.7163842895743034e+01 0 0 0
1006 1 6.3764154469800607e+00 1.7501843407376327e+00 1.3651333927991757e+01 0 0 0
1007 2 5.9182942932457685e+00 1.6247060919189651e+00 1.4504600894091558e+01 0 0 0
1008 2 7.4017691637049001e+00 1.7048935049868528e+00 1.3812399822704172e+01 0 0 0
1009 1 1.0703968736522739e+01 3.4785751398288198e+00 1.1987234109218599e+01 0 0 0
1010 2 1.1580988100660440e+01 3.2147420619270233e+00 1.2445991945671706e+01 0 0 0
1011 2 1.0822801546752236e+01 3.0491677555049050e+00 1.1176670586936622e+01 0 0 0
1012 1 7.7742970087483370e+00 4.5648840811850855e+00 1.2714168438285867e+01 0 0 0
1013 2 7.7860548425879221e+00 3.9367620394535772e+00 1.2000593566897706e+01 0 0 0
1014 2 7.8884087134135799e+00 5.4161951600166134e+00 1.2228113433906833e+01 0 0 0
1015 1 1.0637913670985897e+01 6.1557331893557361e+00 1.2143506601714224e+01 0 0 0
1016 2 1.0793289452820703e+01 5.1905676583539506e+00 1.1857185916011412e+01 0 0 0
1017 2 1.1381059421207224e+01 6.3195332367511075e+00 1.2796778034050687e+01 0 0 0
35 2 9.5317155433698701e+00 1.7239425578154246e+00 2.7501053662870003e+00 0 0 0
1019 2 7.4559804885122221e+00 1.2651926046322710e+00 1.6450250435792491e+01 0 0 0
1109 2 1.0856282308425496e+00 6.3464591643974479e+00 1.5601281780472549e+01 0 0 0
218 2 4.5283651915034551e-01 1.0756432062650319e+01 2.8748614180066876e+00 0 0 0
1081 1 4.8099802222432819e+00 7.6717591822122264e+00 1.5818720291217657e+01 0 0 0
1082 2 5.6277295111467129e+00 7.6294387826229997e+00 1.5292259800473767e+01 0 0 0
1083 2 4.9038605875547443e+00 6.9596201998702591e+00 1.6533427031409154e+01 0 0 0
1084 1 3.0539209791599879e+00 7.8998215283568030e+00 1.3604559698845788e+01 0 0 0
1085 2 3.6102907325232372e+00 7.8921466129964299e+00 1.4385926042390524e+01 0 0 0
1086 2 3.3026357790838454e+00 7.0908031585839550e+00 1.3116306194296712e+01 0 0 0
1087 1 6.0824422920193557e+00 1.0957316322241821e+01 1.4772302801753728e+01 0 0 0
1088 2 6.3721691554621165e+00 1.0141624821139070e+01 1.5164785612495782e+01 0 0 0
558 2 1.1668319172015872e+01 2.3998583414582564e+00 7.0584172453580116e+00 0 0 0
1090 1 3.3634002189350358e+00 1.1078582566673772e+01 1.4708580707427833e+01 0 0 0
1091 2 2.9870311834217884e+00 1.0358865969367823e+01 1.5223659600016877e+01 0 0 0
1092 2 2.7547466353281416e+00 1.1138127368755251e+01 1.3915909952129008e+01 0 0 0
1093 1 1.6629709286522645e+00 9.5524287892825797e+00 1.6584130992058341e+01 0 0 0
1094 2 1.6432213876275956e+00 8.5675498603738625e+00 1.6293288064521779e+01 0 0 0
1095 2 9.9546701359254031e-01 9.9304048443726582e+00 1.6016651835746341e+01 0 0 0
697 1 1.5225852105992010e-01 1.0590648642918763e+01 9.4382277311319953e+00 1 0 0
1097 2 1.2394894537213021e+00 7.8672068987903527e+00 1.3757378509244514e+01 0 0 0
1099 1 4.7347503891421496e+00 9.3767933536738344e+00 1.2041228943678753e+01 0 0 0
1100 2 4.1045667852294132e+00 8.8503278945997295e+00 1.2522928409112346e+01 0 0 0
1101 2 4.4570126598224817e+00 1.0356654653970736e+01 1.1986855417129858e+01 0 0 0
1102 1 1.5983953633482049e+00 1.1099245310229010e+01 1.2793587323795267e+01 0 0 0
1103 2 1.4940755164548067e+00 1.0352766399048752e+01 1.2068653674168486e+01 0 0 0
1104 2 1.0227581461843001e+00 1.0827477500369469e+01 1.3539861229994091e+01 0 0 0
976 1 1.1904600456494194e-01 1.6234546295152130e+00 1.3625350086491663e+01 0 0 0
1108 1 1.6867045866865302e+00 6.7943295505707946e+00 1.6217110227685264e+01 0 0 0
219 2 5.9828662403746902e-01 1.1327608640771645e+01 4.2743927425755031e+00 0 0 0
1110 2 1.8425738265765443e+00 6.1772078935386316e+00 1.7001200946202637e+01 0 0 0
1111 1 1.0430784942394382e+01 8.0591839123888764e+00 1.5399481149485553e+01 0 0 0
1112 2 1.1307568227946577e+01 8.1044337033123597e+00 1.4979368343150282e+01 0 0 0
1113 2 9.8364298427397330e+00 8.0563931767400803e+00 1.4589540710201520e+01 0 0 0
1114 1 9.0202560216669632e+00 7.9705965795507021e+00 1.3272638970504513e+01 0 0 0
1115 2 9.3017462998683840e+00 7.2270018238737128e+00 1.2778245899566459e+01 0 0 0
1116 2 8.0604911304398819e+00 7.8727554100527426e+00 1.3333110379230218e+01 0 0 0
33 2 1.1349022516781705e+01 1.3617704836129527e+00 3.5987652941009891e+00 0 0 0
1120 1 9.3931511843603097e+00 1.0798698066336158e+01 1.5042151785976145e+01 0 0 0
1121 2 8.8459456486080992e+00 1.0805453507302675e+01 1.4180337448872313e+01 0 0 0
1122 2 1.0322683966770832e+01 1.0956300594997934e+01 1.4843102617870246e+01 0 0 0
1123 1 7.6407302184045243e+00 9.0229944466616612e+00 1.6166754096395625e+01 0 0 0
1124 2 8.4388579743982479e+00 9.4792750473902796e+00 1.5842314823940928e+01 0 0 0
1125 2 7.4522143952263198e+00 9.4595746030067982e+00 1.7077884466363248e+01 0 0 0
1126 1 6.3794092433585901e+00 7.8895873618328407e+00 1.3691216591321432e+01 0 0 0
1127 2 5.9783638445006151e+00 7.1765607390711565e+00 1.3130984432149695e+01 0 0 0
1128 2 6.1196315536382517e+00 8.6859991213795080e+00 1.3116567737587504e+01 0 0 0
1129 1 1.0918746085744544e+01 9.8329846231358751e+00 1.2176392825663056e+01 0 0 0
1130 2 1.0226072274888873e+01 9.3369082510032033e+00 1.2733167754432538e+01 0 0 0
1131 2 1.1000794345715629e+01 9.2814142126602039e+00 1.1346186062525215e+01 0 0 0
1132 1 7.8561906848465402e+00 1.0950534901423328e+01 1.2685144737360108e+01 0 0 0
1347 2 5.4006879723598429e+00 4.9778314942416457e-01 1.2610265439532498e+01 0 0 0
1134 2 6.9726002264532143e+00 1.0863751051521797e+01 1.3075349538657955e+01 0 0 0
516 2 9.5616368152900097e+00 7.3862819802824076e-01 7.4723547265641823e+00 0 0 0
1137 2 1.1011691633859549e+01 1.1591742093317503e+01 1.2055149707903382e+01 0 0 0
1138 1 7.7677798495060983e+00 6.4076920871660255e+00 1.6523876937887501e+01 0 0 0
1139 2 7.8061633075518682e+00 7.3647892683808172e+00 1.6314584178446736e+01 0 0 0
1140 2 8.5603778087252440e+00 6.0597657688674706e+00 1.6037907845903980e+01 0 0 0
749 2 1.5529175248475751e+00 1.2430532984641173e+01 1.1527384548334634e+01 0 0 0
616 1 1.6581224128882316e-01 7.2437544085125234e+00 7.6561969942502266e+00 0 0 0
1576 1 4.9646143851553559e-01 8.1817948102110893e+00 1.9281031337690461e+01 0 0 0
152 2 1.1847372801817727e+01 7.6761925890738425e+00 3.8555669652410698e+00 0 0 0
162 2 9.1860570691625956e+00 1.1750343077513216e+01 3.9628738138775894e+00 0 0 0
1518 2 1.1979338524723232e+01 2.4839512495391975e+00 1.8830904283323154e+01 0 0 0
1606 1 6.1174752164386694e+00 7.7456250313558535e+00 1.9253052293252139e+01 0 0 0
37 1 1.2059260919860318e+01 4.3148419655323185e+00 3.9608587578137961e+00 0 0 0
1458 2 8.8483207055636059e-02 2.6163029236756703e+00 1.8809974875066711e+01 1 0 0
1441 1 4.6186253525329848e+00 1.6453788850617377e+00 2.1386026964556521e+01 0 0 0
1578 2 1.4363492569839362e-01 7.3329948550385078e+00 1.8829210139430234e+01 1 0 0
1443 2 4.6841383849755571e+00 2.3456586462085909e+00 2.2089016134960833e+01 0 0 0