LAMMPS data file via write_data, version 8 Apr 2021, timestep = 1713000

1008 atoms
2 atom types

0.22664667525562573 18.172908324738074 xlo xhi
0.07708504497893011 22.493303955023332 ylo yhi
0.2090020620091684 19.296713937989296 zlo zhi
0.03891189109891254 -6.767904717633568 -0.14657573293773818 xy xz yz

Masses

1 16
2 2

Atoms # atomic

1 1 6.512224495310741 1.3895378313085043 4.984467554521249 0 0 0
3 2 6.480931510044255 1.8416880719411455 4.070529200243673 0 0 0
4 1 3.7070852011455138 1.0424745771086588 5.021112896095894 0 0 0
6 2 3.4043572926916847 1.437424522394225 5.824221268308176 0 0 0
7 1 -0.41378548959428796 6.561129432075489 5.367610664317033 0 0 0
8 2 -0.47993141534814454 5.982117268479885 6.226549878491367 0 0 0
10 1 2.39426200920945 6.5128586982448935 4.777568821089574 0 0 0
11 2 1.543720593981497 6.665412442339331 5.235344723191704 0 0 0
12 2 3.025701239333456 7.295726841697887 4.90511023393473 0 0 0
18 2 5.838675075285575 5.609886657047798 1.0051185933234956 0 0 0
25 1 4.9547991269590215 6.668431084663478 7.149969731215382 0 0 0
26 2 5.550257217020735 7.37438461513598 7.561230699295001 0 0 0
27 2 3.995880742595256 6.900275832419912 7.424978407863484 0 0 0
28 1 5.947763454106768 6.535839419023958 2.4693313979644964 0 0 0
29 2 6.051932101249186 6.294211994842307 3.409440125416958 0 0 0
30 2 5.284715254231226 7.286769022096798 2.5006326551114677 0 0 0
31 1 0.8205287018875972 1.2658125294180462 2.6099885067037305 0 0 0
33 2 0.758295888260192 1.732430134435809 3.441214763747358 0 0 0
34 1 0.38139492926877794 1.1266722867497057 7.264317808209916 0 0 0
36 2 0.6665345263666892 1.6877818532216748 8.001161878776287 0 0 0
37 1 6.364341503220524 2.9196994183197487 2.3582609885840884 0 0 0
38 2 5.513936725239619 3.3222249905998007 2.56500120521056 0 0 0
39 2 7.086752838014566 3.4642707575087517 2.691787058180002 0 0 0
40 1 3.983863813430924 2.5528294679706076 7.428027630433215 0 0 0
41 2 4.82590923153134 2.9431767881154185 7.3082151354374005 0 0 0
42 2 3.308051923574149 3.1959454881667466 7.151794935007835 0 0 0
43 1 -0.28663154563634285 4.7358465125883065 7.309907734569358 0 0 0
44 2 -0.9511879621072499 4.0255651243057935 7.1076561503527715 0 0 0
45 2 -0.4365570894705446 5.060114568408521 8.210937947684368 0 0 0
46 1 1.98500058887602 5.057260546478638 2.6407673978178976 0 0 0
47 2 1.1090181016839664 4.633118477438877 2.756389988643066 0 0 0
48 2 1.9156808080237384 5.746552701289282 3.3532112617602583 0 0 0
49 1 6.786273156794308 3.5209268684195876 6.4989714100519445 0 0 0
50 2 6.445924581748791 4.265963756957181 5.907866016685592 0 0 0
51 2 6.719693796141403 2.7012143191628195 5.956919897772177 0 0 0
52 1 4.048806159046275 3.519943306135388 3.4825049653128493 0 0 0
53 2 3.2724722435923512 3.977632252335291 3.1373644886676275 0 0 0
54 2 3.855081304206625 2.813468867195614 4.089770099836147 0 0 0
57 2 -0.16934827084986356 3.5112864969531157 4.368890791722042 0 0 0
58 1 2.263971513842139 4.223295789717593 6.535813555406862 0 0 0
59 2 2.377364969976926 5.132036569115294 6.167367298004699 0 0 0
60 2 1.4281797770146372 4.290970396367102 7.027862802553914 0 0 0
61 1 8.371591263780058 7.230649258311029 1.8099770168565015 0 0 0
62 2 7.506318110156574 7.127290751152794 2.2124670170859084 0 0 0
64 1 2.4367578237118392 6.961110766936346 8.23703492759406 0 0 0
65 2 1.7677920028241558 7.435595212663796 7.857136355425575 0 0 0
72 2 3.5618889471333217 1.2582883603255097 1.0344705214007521 0 0 0
73 1 5.647873235065133 5.376095066228511 5.0329579262714015 0 0 0
74 2 5.213450127635078 5.894373667687383 5.800433116564936 0 0 0
75 2 4.885347265931329 4.847333411398077 4.725000828570741 0 0 0
76 1 0.9296231420324774 2.34212854397247 5.1249658840761185 0 0 0
77 2 0.7277588313066224 1.8312751741475746 5.982930928203538 0 0 0
78 2 1.4874010584885762 3.0895660676132364 5.421074121434697 0 0 0
91 1 8.41680072353944 6.313838404735504 5.20813130465166 0 0 0
92 2 8.09856175642896 5.647730365695556 4.566820105401884 0 0 0
93 2 9.24785152699919 6.693708624494677 4.9516812359710825 0 0 0
115 1 10.344472410666725 1.0377788082850907 2.5164751334990205 0 0 0
116 2 10.098376688878746 1.8410994428558762 1.98447735162611 0 0 0
118 1 9.135940729177252 1.2494131410769442 7.697445747566543 0 0 0
120 2 9.173087052531283 1.8484899286895098 6.9175800302043555 0 0 0
127 1 8.921059371659238 5.129295477290998 7.407099799557124 0 0 0
128 2 8.080453605185214 4.522940007392654 7.385799106451868 0 0 0
129 2 8.848340060682014 5.500368141960945 6.474172203503361 0 0 0
130 1 11.002754259246302 5.098044062105431 2.664724573493453 0 0 0
139 1 8.458023889910235 4.17888680284909 3.315704036942116 0 0 0
140 2 9.304555369107398 4.543904575407383 3.13121825113173 0 0 0
141 2 8.682067015219191 3.5616728002058604 3.9979316067485344 0 0 0
153 2 6.4712300090870345 1.2490856198127416 8.735386080811029 0 0 0
160 1 9.774988225001465 2.4587697498245316 4.971146709246078 0 0 0
162 2 10.253055355161187 2.069989454462546 4.216799530361429 0 0 0
169 1 6.639570253826424 8.570746254086481 4.698013546409477 0 0 0
170 2 7.228293457476447 7.909462578248255 5.084927923539181 0 0 0
171 2 6.8511339041122445 9.431007476518076 5.18970770985433 0 0 0
172 1 3.997738044182 8.691060290120802 5.128334433298767 0 0 0
173 2 3.8986235612182103 9.461387184769208 4.526137475755143 0 0 0
174 2 4.961823449942639 8.435679333578765 4.964269221091971 0 0 0
199 1 1.2023576287459232 8.916337285689718 2.9019112076082036 0 0 0
200 2 0.9922920757541615 9.461879355890447 2.1403520184361966 0 0 0
201 2 0.571021792376587 8.199702836281425 2.7097894086708405 0 0 0
202 1 0.025959676792779746 8.785162614551929 7.677998815283553 0 0 0
203 2 -0.8874319412106508 8.39364952941971 7.670259213943369 0 0 0
204 2 0.2137041864466838 9.141668462011799 6.778143396029648 0 0 0
205 1 6.3192165503673845 10.08605642057883 2.4447683726518026 0 0 0
206 2 6.683450896305526 9.495990658927365 3.1567439765911716 0 0 0
207 2 6.5195688392319475 9.770035381289388 1.5030687887476768 0 0 0
208 1 4.243925545760983 10.178131052952823 7.512144622816285 0 0 0
210 2 4.2941963558101985 9.538947680706958 6.739999204306966 0 0 0
238 1 3.691067188858785 8.325514633204524 1.7007852013985234 0 0 0
239 2 2.9268692103936114 8.455912308819638 2.2448670211557396 0 0 0
240 2 3.850299208062421 9.102572761211396 1.07626633852884 0 0 0
244 1 0.8523116595135615 10.046581131691148 5.206729961818967 0 0 0
245 2 1.3555651250166647 9.588382753530455 4.501994425048067 0 0 0
283 1 10.589391021786252 8.563333000050488 2.9251588094440826 0 0 0
284 2 10.221042543810814 9.147565747477282 3.671053425038837 0 0 0
285 2 9.825622355752207 7.986869340791943 2.7525593082735886 0 0 0
288 2 8.728706387372721 8.604710554456922 7.578381639786831 0 0 0
319 1 7.0156854451815525 8.185364173403887 8.08631831985137 0 0 0
329 2 9.52448375256578 9.88362366876125 5.685592297901918 0 0 0
330 2 9.176130634767631 10.643199788762441 4.425282055097718 0 0 0
14 2 5.2243498621674345 5.382861232604634 8.394674840981928 0 0 0
192 2 0.5297964881983046 9.621722965632436 8.956346227051045 0 0 0
66 2 2.854025954201542 7.673137169978547 8.831374185579488 0 0 0
63 2 8.541940877172962 6.372680332134521 1.3527548962980855 0 0 0
32 2 1.7471396328943845 0.909047086774332 2.601479592019874 0 0 0
21 2 0.9978537035390284 2.381139857008653 1.3160703926577966 0 0 0
132 2 11.065596124847621 5.797437756184837 3.352693721599219 0 0 0
286 1 9.62299601084413 9.02470376588085 7.4648555866219075 0 0 0
328 1 9.883250347979402 10.092515452886811 4.835271318569995 0 0 0
94 1 10.964698048200143 6.5864327273440955 5.038822987060796 0 0 0
119 2 9.137441544433655 1.8110337022751974 8.476742141984582 0 0 0
131 2 11.733942724360135 4.491714709927655 2.948402642149988 0 0 0
161 2 10.406289381763566 3.1273733570457805 5.270884592184025 0 0 0
276 2 9.727314463971057 10.2718745803108 8.70986903495436 0 0 0
287 2 10.221080929290267 8.273109815923881 7.618512780834359 0 0 0
96 2 11.161827764921352 5.873929349054519 5.636178900867934 0 0 0
5 2 4.669234955749186 1.0029261123175608 5.009268922617707 0 0 0
35 2 -0.4680319560361691 0.7163441756988799 7.532308957236469 0 0 0
324 2 12.41136597512851 7.081802984803468 1.1604170291986 0 0 0
272 2 9.950273701299729 9.368957686724611 1.3653725977573614 0 0 0
323 2 12.094307057028951 8.07291864065372 2.249692088496518 0 0 0
155 2 13.115757300692518 1.2659711199077186 1.1028661495357746 0 0 0
144 2 10.687093862269084 4.386343868566831 7.213843911030672 0 0 0
142 1 11.380309550952166 4.145060008951999 6.565950160473015 0 0 0
95 2 11.625009118746618 7.396136616907693 5.092768474640062 0 0 0
322 1 12.875508087644102 7.7811298080012135 1.7330791921935051 0 0 0
136 1 12.692345196966325 3.254085560945358 3.3532690593363093 0 0 0
585 2 3.5747659218461636 1.8013540129463976 9.143852447126703 0 0 0
246 2 1.605612943797311 10.481360931023922 5.7099311515428965 0 0 0
167 2 10.802658929047514 5.894500009399915 0.8040777476741418 0 0 0
68 2 -2.1659930102067717 1.246758187530168 8.984891168642266 0 0 0
70 1 3.265403673604401 0.48124018068238233 1.5815431739487902 0 0 0
753 2 3.821625946229188 9.33882457821418 8.987628505895797 0 0 0
224 2 0.07897047051731865 11.136919957749354 4.299793260899685 0 0 0
55 1 -0.48451193658421354 4.176961601673027 3.7161346540853373 0 0 0
80 2 6.560626550613302 2.1323664744772257 0.9106682762456395 0 0 0
83 2 2.294322115781316 5.775431114464483 1.063979378347903 0 0 0
219 2 5.891409932995331 10.65739171830113 7.017688959142795 0 0 0
156 2 11.87128734959014 0.8314487097725359 1.9713042384369797 0 0 0
221 2 4.9073354856923554 10.698089750413878 2.8597142866042384 0 0 0
114 2 15.734747125589324 6.76595711348111 2.4988241514669216 0 0 0
148 1 11.141152600273537 7.095603251517914 8.619236079624372 0 0 0
149 2 10.860703547143167 6.186036558913744 8.862073655817898 0 0 0
256 1 12.772622114998928 8.550720247756898 5.321912112698976 0 0 0
89 2 12.600626798350891 1.6177790268573513 4.245725924144512 0 0 0
143 2 12.095058183134963 3.742638069096748 7.179332338506482 0 0 0
138 2 13.59121035735413 3.0961385560646217 2.9807257210325524 0 0 0
258 2 12.652516640480146 9.131815059886959 4.580375702047046 0 0 0
88 1 12.806950981668757 1.1312277148705066 5.052898840925156 0 0 0
137 2 12.930202919926572 3.7681725295953217 4.189999466708435 0 0 0
306 2 13.887571841181494 10.488414881954512 3.1043204692422246 0 0 0
113 2 14.252258328107033 6.780213897483082 2.5155559727266543 0 0 0
101 2 14.524447851631246 5.335912913536737 1.209127606767723 0 0 0
150 2 11.519540258077738 7.595345861653403 9.336508962652555 0 0 0
304 1 13.082753719089206 10.555817719150763 3.630805953951578 0 0 0
321 2 7.3508122859763985 7.578193397615441 8.801096520901842 0 0 0
320 2 6.750909127363424 9.016426088717319 8.503587457980858 0 0 0
271 1 9.906047330594504 9.902342877646074 0.5777080709025735 0 0 0
209 2 3.522679965164977 10.817177435940717 7.289353010790223 0 0 0
776 2 7.584449121666307 10.622853383517512 9.448301745751007 0 0 0
671 2 8.752141165261415 6.066333908948653 8.708380649886577 0 0 0
305 2 12.29297510201516 10.690733563283283 3.0562794994969997 0 0 0
147 2 16.77485990388049 8.033071266207465 1.1506594209531897 0 0 0
111 2 12.67420729989835 6.778338849929832 7.399421356058013 0 0 0
154 1 12.796796818064257 0.4749416073602905 1.6708250417880328 0 0 0
187 1 0.9734329129076102 10.410915257649906 0.37663836104205445 0 0 0
151 1 6.611314621749852 0.5665202246774113 8.117843163696934 0 0 0
152 2 7.457181730118022 0.8213219748065455 7.680348831513064 0 0 0
82 1 2.39244883293624 6.451715259579081 0.32353464916124147 0 0 1
775 1 6.703460844763188 10.265725409036461 9.717492708222721 0 0 0
521 2 2.1854924226907024 5.5093291097643515 9.30833354562813 0 0 0
56 2 -0.6923893260047349 5.003796834898374 4.168123462715048 0 0 0
220 1 4.156532840277187 10.83411922328689 3.464028938688074 0 0 0
399 2 7.71063335038931 0.32788406975858486 1.2095915351836994 0 0 0
103 1 10.198435897516456 2.8547934400424295 0.49006428830989385 0 0 0
117 2 9.5865186227435 0.4502019146865488 2.313197496311564 0 0 0
15 2 4.138031173246855 4.752457916580241 9.33713677044115 0 0 0
294 2 12.843193566439059 9.507758922033384 6.877006016813696 0 0 0
126 2 12.81165340737232 1.6809312978871271 6.993516472186444 0 0 0
90 2 13.789643797226681 0.9854464039332849 4.850682111418333 0 0 0
586 1 -0.81899229452765 6.019501235725732 9.563443716101311 0 0 0
780 2 12.948643004143568 9.02418818196706 0.6972270735841848 0 0 0
602 2 16.38083125891512 4.900290722959999 0.3499434208719765 0 0 0
273 2 10.85068575693573 10.064767126084815 0.2877349430317199 0 0 1
165 2 16.89548876672981 0.9780290172576782 0.6467808823739414 0 0 0
248 2 7.595344531385171 8.355580531760614 0.5184592585368544 0 0 0
311 2 11.072997769414515 10.97486214912183 5.813014804477596 0 0 0
668 2 12.851138940748836 1.9624174067631874 9.220681494862193 0 0 0
9 2 -1.1324257657775567 7.176198038879047 5.457678042399228 0 0 0
85 1 15.802044031726181 0.9903298838236497 4.852688647062578 0 0 0
218 2 7.4414665212596045 11.11423860207402 6.799995234009603 0 0 0
217 1 6.658897739405341 10.714261532406306 6.4058723094006185 0 0 0
97 1 13.948529733999685 4.59368365933162 9.732239967098627 0 0 0
293 2 12.396182025363814 10.788919748252395 7.352659720398564 0 0 0
86 2 16.47458317639117 0.34040111617696867 4.721241286559822 0 0 0
84 2 2.9661763672856583 7.078509252176778 0.788703418109229 0 0 0
751 1 3.748141458168917 8.65604761381517 9.658963837336849 0 0 0
22 1 0.7387179215388722 2.477167706697955 9.41515507387952 0 0 0
2 2 7.139669055137242 0.6032077383004859 4.906452884442782 0 0 0
19 1 1.1083950630516437 2.8462397290847297 0.4052642505619358 0 0 0
254 2 15.714310886456584 9.267820747938853 5.836704746388214 0 0 0
222 2 3.4311368667100184 11.104669333758752 2.894731672483555 0 0 0
13 1 5.120446048851524 4.863099420158065 9.209493506423645 0 0 0
612 2 12.196889939391225 3.008594111830853 0.36376837458808636 0 0 0
104 2 9.614526709775218 3.6305913451839604 0.38665131581472095 0 0 1
145 1 17.18457432818432 7.378019000514682 1.7596206830051389 0 0 0
67 1 -2.015403713203696 0.32821957235279536 8.590973646615057 0 0 0
486 2 11.372306451150566 0.031280659007985996 8.948240009235656 0 0 0
24 2 -0.17018367078678096 2.6350786606157532 9.652126535385484 0 0 0
134 2 14.950167748447946 3.66003829417597 6.073060449500851 0 0 0
584 2 2.929587905671784 0.36043275438438765 9.346123900122734 0 0 0
123 2 15.741013658656032 2.264583939194293 1.8976183380877611 0 0 0
237 2 14.801254580184716 7.479462882315713 7.9255609716427395 0 0 0
235 1 -2.365861922561876 7.9904082620038865 8.363953924356444 0 0 0
257 2 13.74960473932214 8.347482383258921 5.262968829355651 0 0 0
133 1 15.539622844342961 3.0394467497795192 6.47875712455368 0 0 0
146 2 17.560672712160628 6.607444146431269 1.3034211361834362 0 0 0
290 2 16.15696326619377 10.846855118772147 3.0642312860266245 0 0 0
135 2 15.785404258692473 2.3000790567766813 5.9155291027461345 0 0 0
301 1 15.481480781467637 10.879145415823608 6.841030928324712 0 0 0
302 2 14.600333685480997 10.641500293707779 7.195860226128307 0 0 0
159 2 14.159265440417679 5.701201956280717 5.73551614061484 0 0 0
112 1 14.998259387440534 6.2226676620862955 2.737206856709714 0 0 0
236 2 -2.754801610612353 8.780992419900004 8.758278911663803 0 0 0
291 2 15.746520520399054 9.862208994909656 1.8658751613342217 0 0 0
836 2 12.790947893614902 9.714107325636407 9.315449130061854 0 0 0
158 2 14.652432762077249 5.446444059271801 4.29414494227433 0 0 0
292 1 13.107861742683106 10.11432998795222 7.615782571576369 0 0 0
157 1 14.28416441954872 4.966583860248535 5.0851930132624625 0 0 0
124 1 13.142525131146574 2.3854243572615745 7.666905609315968 0 0 0
255 2 15.728076122206053 8.955282234866461 4.28846883125238 0 0 0
253 1 15.631128966533813 8.570120441793991 5.173702880436938 0 0 0
122 2 16.053908669084787 3.2500350458026706 3.1017725021368623 0 0 0
125 2 14.062652620128535 2.661136606059275 7.345007020085825 0 0 0
121 1 15.392262592646015 2.601446478011407 2.7795489109582356 0 0 0
110 2 13.558055101154894 5.565609445188081 7.752956498603798 0 0 0
87 2 15.753581341703564 1.6045436442745864 4.064997647753148 0 0 0
109 1 13.472784867981778 6.358341814277327 7.206339353598021 0 0 0
289 1 15.500493567398609 10.129189958368382 2.7956461364073117 0 0 0
100 1 14.733841174453788 4.911280199811206 0.32574147685476823 0 0 0
23 2 1.1553188248721173 3.357189957501579 9.59219738111887 0 0 0
587 2 -1.5186110867551679 6.61646487032152 9.242622399423993 0 0 0
670 1 8.292350750645454 6.38203051894897 9.564112097986369 0 0 0
166 1 11.50307568473986 6.307659698290949 0.259916635499396 0 0 1
270 2 13.57942035173319 11.245180285294351 0.49100552313584034 0 0 1
777 2 5.9168408072825995 10.889816777467237 9.646719527314108 0 0 0
20 2 0.4488472328769186 3.553771032616578 0.3991992186002459 0 0 0
17 2 5.134255442527149 4.483129818647132 0.2349224171447801 0 0 0
608 2 6.182960499011836 3.4982197094354524 9.647364547129095 0 0 0
163 1 16.273283271111033 1.6770346358947168 0.3135991653690934 0 0 0
331 1 15.911332467286714 9.077534541698984 0.2653159152977396 0 0 0
528 2 3.0040692348625293 3.1413840861684683 0.38479201605640023 0 0 0
274 1 9.52839122496951 10.56405619727214 9.638917398481775 0 0 0
604 1 10.973691981091509 4.676897340662526 9.732023981606991 0 0 0
275 2 9.588164685757219 9.721081766368357 10.154093924059358 0 0 0
667 1 12.469608504998783 1.3175065919277988 9.897447923985542 0 0 0
620 2 6.785339324391344 0.194173914044373 11.993815659886542 0 0 0
797 2 10.493806607158861 9.884802683876332 16.56471167499554 0 0 0
588 2 -1.2472863895226893 5.589843023051671 10.375016073196683 0 0 0
711 2 2.418565965518491 10.236412175017238 12.235662513729732 0 0 0
571 1 -5.771259705950675 0.33507587764185476 17.917475904846636 0 0 0
835 1 12.515014915864123 9.102909321935494 10.041999097637714 0 0 0
509 2 -0.39960286384846344 0.1335649764268163 14.51530658654329 0 0 0
107 2 9.412876924558583 1.867376212034215 10.442341527670028 0 0 0
837 2 12.29601798843691 9.631744219108793 10.869064959859408 0 0 0
810 2 8.817801910229269 11.172743033485578 12.502926747439263 0 0 0
16 1 -1.010735028570909 5.072793782484465 19.194335131074837 0 0 -1
527 2 -2.897367358504069 2.455496106351549 18.246851006715428 0 0 0
105 2 3.0894905991529087 2.0083795266468014 19.034974129898867 0 0 0
808 1 9.547870644303426 10.742169489863533 13.084526758258589 0 0 0
574 1 0.979584206053312 0.1534438712853824 11.342746996169671 0 0 0
607 1 6.398830356712187 2.60851904023622 9.991732368077692 0 0 0
505 1 2.957013437268779 0.7539238634986081 14.314908092947627 0 0 0
506 2 3.260707946198031 1.5161791473850212 14.894661633337877 0 0 0
537 2 -0.8894556732960064 0.880526098562076 12.062766251127838 0 0 0
508 1 0.22494984901875928 0.8916967988178387 14.410115771943817 0 0 0
812 2 4.2908372000647725 10.998612779791404 12.397160193887018 0 0 0
510 2 1.0897060449873508 0.4541102518345924 14.357893148968625 0 0 0
511 1 -4.081643965274324 6.512002298961913 14.526937365050548 0 0 0
512 2 -4.180033654966343 5.683285411526263 14.003269677170836 0 0 0
513 2 -4.036887246077658 6.142131858067954 15.424554968945301 0 0 0
514 1 -1.485250110259555 6.562809393096954 14.397872352942777 0 0 0
515 2 -1.2825380022212403 5.802373559898397 15.024415787003074 0 0 0
516 2 -2.487693236742251 6.6121786798117475 14.466183058232192 0 0 0
249 2 0.4147765432643975 9.258824308563536 18.46541485440664 0 0 0
519 2 1.8211029860950556 5.244396921723707 18.048532080934848 0 0 0
828 2 8.510396965076412 8.44394255461474 11.489882481001178 0 0 0
522 2 2.410642862844994 4.923481849216243 10.841748934957131 0 0 0
247 1 0.10405883354659094 8.812006131112781 19.27955381806669 0 0 -1
191 2 0.7714236422242473 9.398520879961643 10.485838785294975 0 0 0
986 2 13.65015463422372 0.23072845102935896 10.681949100997725 0 0 0
798 2 9.180357520243449 9.036143926800175 16.3158114407415 0 0 0
779 2 6.264994565128 9.507692978610947 18.249473452793502 0 0 0
529 1 1.1404218894887543 6.400816105796046 16.857315189094354 0 0 0
530 2 1.1171836541033968 5.862510126641125 15.986176331596337 0 0 0
531 2 0.17711883556700692 6.522178927232517 17.168693881902218 0 0 0
532 1 2.40048071076127 5.875315375249224 12.349878426374657 0 0 0
533 2 3.3124845580554148 6.148500673251915 12.230373555783732 0 0 0
534 2 2.1994543700506064 5.7511383116269394 13.333226368250733 0 0 0
535 1 -1.813383423210932 1.1466799521110633 12.146494611612638 0 0 0
567 2 5.179620885138104 6.14303234656674 10.551889755124416 0 0 0
79 1 0.0906593513116519 1.3937368083330655 19.2818670610135 0 0 0
538 1 -3.4324460700986306 1.2719370655013111 16.911089458949828 0 0 0
728 2 -3.5232987247224727 11.097066878589619 13.336755398461287 0 0 0
540 2 -3.414134553368382 1.7950071052563459 16.054296913875802 0 0 0
541 1 2.6814040110100676 2.443656948910124 12.170642374648503 0 0 0
542 2 2.722218438410249 1.833804976911067 12.889392215649167 0 0 0
543 2 2.8483110918506727 1.9902827728772206 11.262693275384692 0 0 0
544 1 0.4050125837393737 2.5405318865436666 16.817338449618774 0 0 0
545 2 0.5395851242572901 2.2615508874331356 17.806485683640055 0 0 0
546 2 0.3510188752570596 1.7630359042155812 16.281583555125888 0 0 0
547 1 -3.916344014765835 5.2265302342334 17.00978847156444 0 0 0
548 2 -4.341719502654403 4.366041141212159 16.72771203026379 0 0 0
549 2 -4.0858928348212755 5.290620099170933 17.99272444046952 0 0 0
550 1 -1.6529390783813263 4.897943600292332 12.014731692063657 0 0 0
551 2 -1.0517486651506007 4.212224981983832 12.429385310577914 0 0 0
552 2 -1.6747815455258048 5.5961909552238005 12.66937844909322 0 0 0
553 1 3.325020222150805 3.074550846132625 16.018376456182658 0 0 0
554 2 2.5526274496806294 2.8639701927809784 16.70349084176069 0 0 0
555 2 4.0739299982111845 3.394902418585251 16.55116742025706 0 0 0
556 1 0.3139574518824533 3.4056722275764812 13.006680521392678 0 0 0
557 2 1.21307015844427 3.1409719154973694 12.661518003413947 0 0 0
558 2 -0.0010817645859725333 2.625077603709542 13.528541128587882 0 0 0
559 1 -4.244991087548481 3.9936981653061565 13.116093408902298 0 0 0
560 2 -3.5425253897672575 4.132190213542867 12.481038582715701 0 0 0
561 2 -3.835074334706262 3.399234155875296 13.773312462527262 0 0 0
562 1 -1.6256927905806877 4.425762559662098 15.9278924830561 0 0 0
563 2 -1.025529752648536 3.9387739800408816 16.50123705991902 0 0 0
564 2 -2.4138214359782344 4.676334712058007 16.515242701371413 0 0 0
565 1 5.131509742467805 6.9051471056954785 11.207271432067659 0 0 0
566 2 4.702987008985207 7.563034637168552 10.638209159171025 0 0 0
332 2 9.3566482576754 9.416865453137119 18.535769923995097 0 0 0
568 1 -1.425036605339363 7.181229644465066 17.703290697751612 0 0 0
569 2 -1.5519635986632805 6.335336925886807 18.217742049190978 0 0 0
570 2 -0.9150274455605791 7.7576675862843345 18.37097725620286 0 0 0
573 2 11.312504826940962 0.06494177890074324 17.497799087109254 0 0 0
572 2 -6.021134495577293 1.0391062723874012 18.52092089959601 0 0 0
827 2 10.035919675155924 7.952945062469665 11.773136092094749 0 0 0
524 2 -2.6809062276777587 3.3673343180308315 9.889127905965754 0 0 0
576 2 1.142625580359893 1.0177817937934872 10.875923655640236 0 0 0
577 1 1.7697063528018697 4.910050977963906 14.752589324437787 0 0 0
578 2 1.1021959601987477 4.399136261886502 14.22751768603968 0 0 0
579 2 2.4906334260512266 4.325410584033511 15.012745628577305 0 0 0
580 1 -2.690356701476313 2.3442292833175613 14.512136419120564 0 0 0
581 2 -2.2175824749969446 1.8587780754942922 13.766033777149488 0 0 0
582 2 -2.0485232634999364 2.9166579091417577 14.923738445381844 0 0 0
656 2 2.3350513381764517 0.15021656815552215 17.444549852672 0 1 0
507 2 3.6512774693279764 0.07179982930735711 14.437571736035427 0 0 0
589 1 11.83656082173606 0.7753426469854777 14.417718752385268 0 0 0
749 2 -1.8996183967738434 10.685022645773936 14.611906001899563 0 0 0
591 2 12.22108049174155 1.584816467965568 14.854408772304604 0 0 0
592 1 9.339574973376049 1.2059467887416604 14.88864117672577 0 0 0
826 1 9.410449177978721 8.323063274813457 11.095416833243656 0 0 0
594 2 9.107854687987231 1.9413999900327714 14.243921503870103 0 0 0
595 1 4.805434948897935 6.088830477566798 14.702962759699801 0 0 0
596 2 4.9472097663741765 5.4572295740339465 15.39293552047623 0 0 0
597 2 4.627891521993662 5.468481314364292 13.90788558842874 0 0 0
598 1 7.46080167126305 6.335547722848298 14.094102997898348 0 0 0
599 2 6.4494563056014815 6.370328202232779 14.172898016100365 0 0 0
600 2 7.694183681097438 5.771971980807315 13.35608875916658 0 0 0
692 2 -2.89054191393018 10.884324962012695 9.853583029550329 0 0 0
590 2 10.872987470264855 0.8942877047666472 14.681018968111433 0 0 0
752 2 3.513142763363706 9.122444378889409 10.48397732378319 0 0 0
605 2 10.943142474918162 5.042338453874919 10.659656984259767 0 0 0
832 1 6.300718285745196 9.871934408754958 14.306530675831874 0 0 0
518 2 0.8711913471750999 4.7438853529693 19.13191098018491 0 0 -1
825 2 3.2150598539260296 8.519481581693023 18.246082304120588 0 0 0
609 2 6.2711856797720245 2.5454951797841847 10.927023101968942 0 0 0
693 2 -1.3868215216495767 10.555605752344158 9.954419122728485 0 0 0
611 2 6.1730257344155675 2.357313604170149 18.21919687620744 0 0 0
613 1 10.226805177590052 6.4095114969017315 16.634714564631928 0 0 0
614 2 10.799709670981795 7.162718620074257 16.865512748892723 0 0 0
615 2 9.341802119532824 6.556925799128444 16.970131478170433 0 0 0
616 1 11.149892813581378 6.400337433150647 12.141873339338717 0 0 0
617 2 11.032538528596213 6.168853055243502 13.12816057276276 0 0 0
618 2 12.104026631619366 6.701692789732312 12.12898993661267 0 0 0
619 1 7.353458412996393 0.8588082110796456 12.428990065435757 0 0 0
809 2 10.375170853915701 10.636313219677465 12.573022794751983 0 0 0
621 2 8.21191545682718 0.7469993807349977 12.094957831109962 0 0 0
622 1 5.691855308886355 1.0326295865806994 16.56212911041224 0 0 0
98 2 14.078840761301674 5.480235716995527 10.208808614257508 0 0 0
624 2 6.021287233109179 1.5165503781883385 15.739688909814898 0 0 0
625 1 11.702280431728834 2.518812523870098 12.356899234959146 0 0 0
626 2 11.708674448413754 1.8956189179268215 13.118379075205537 0 0 0
627 2 12.352119548182594 3.250025479952638 12.627982447429842 0 0 0
628 1 10.055024783468347 2.9377415090171004 16.983864273874055 0 0 0
629 2 10.038970348656301 2.5617811996697144 17.903008601249176 0 0 0
630 2 9.858329857158461 2.15864521432478 16.454947501632713 0 0 0
631 1 5.261970107575892 4.573262906709192 16.926490312883956 0 0 0
632 2 4.954839353739146 4.635612650173156 17.81991368410692 0 0 0
633 2 6.24893842343513 4.445840920673301 16.95866482989457 0 0 0
634 1 7.414205552600631 4.995005880457671 11.788790806427578 0 0 0
635 2 6.462724619618155 5.126668905444554 11.720592508539626 0 0 0
636 2 7.766345244083728 5.53657357773207 11.051593030644028 0 0 0
637 1 12.44299432735873 3.3416620113528803 15.943746346416592 0 0 0
638 2 11.927135392684088 3.9391076437655026 15.400460239237606 0 0 0
639 2 11.768138535080837 3.2487710136320116 16.626868814176195 0 0 0
640 1 9.362360093707302 3.369129305234261 13.176032414848045 0 0 0
641 2 8.739418600713968 3.6737141783909877 12.486480924304612 0 0 0
642 2 10.300882754910427 3.1336297135369913 12.631194886649913 0 0 0
643 1 4.814285252425742 4.0602141438321 12.751642335335506 0 0 0
644 2 3.9881961429411326 3.581219643050413 12.533853905501745 0 0 0
645 2 5.2931876473083115 3.50411831416746 13.328403028879134 0 0 0
646 1 7.639587329759873 4.324934801541657 16.09629937362694 0 0 0
647 2 8.552266161428722 4.114005731292807 16.428179186130667 0 0 0
648 2 7.742198811625206 5.0243313383481665 15.367310392605177 0 0 0
649 1 13.87200278223365 7.1687708880558025 11.253360968136308 0 0 0
650 2 13.357323925645138 7.868142292238386 10.77608418168385 0 0 0
651 2 -3.3978349714949982 7.61054437052157 11.792819603273728 0 0 0
652 1 7.9380185381386 6.984333723835065 17.8288821212021 0 0 0
653 2 7.132050498619268 7.335630040120205 17.45314997282944 0 0 0
654 2 7.744115310515385 6.13668218806416 18.289218625199794 0 0 0
721 1 3.5064536946254368 10.48861452075996 16.108720496564878 0 0 0
805 1 12.141386392404508 10.8509891172598 16.250471937685226 0 0 0
661 1 10.761366155834299 5.227238465041074 14.49487999133088 0 0 0
662 2 10.39660729241269 5.753063904530693 15.32125081456996 0 0 0
663 2 10.101252070279035 4.635914960716899 14.135101224998449 0 0 0
664 1 6.330645523312751 2.4953428640706123 14.377825789946654 0 0 0
665 2 6.940539314998835 3.138910802139194 14.838418050789034 0 0 0
666 2 6.78298241523913 1.908668842607303 13.777108637804247 0 0 0
164 2 8.809089529444448 1.080646980151001 18.880717572779933 0 0 0
168 2 4.172354278672057 6.576837416687881 18.690357045196077 0 0 0
691 1 -2.304960285041633 10.108033830961237 9.953708194224735 0 0 0
673 1 3.053837385905375 8.372792771071484 14.505638862150855 0 0 0
674 2 3.675565243162837 7.631841005049405 14.530254460565423 0 0 0
675 2 3.3933005985786955 9.00067186570847 15.193384349318146 0 0 0
676 1 0.15385831834579344 8.636110390448756 14.664482967845093 0 0 0
677 2 0.940703149911506 8.207281344453964 14.879153879753568 0 0 0
678 2 -0.47720054779764765 7.855710432082147 14.397887113761474 0 0 0
525 2 -1.9846120344967395 2.2992389459543805 10.78107860049177 0 0 0
517 1 1.804354969779844 4.773775195302098 18.91240865473606 0 0 0
539 2 -4.348552879631878 0.9967425710406065 17.05708809620252 0 0 0
807 2 12.276800040695953 9.989729434312254 15.740470255508214 0 0 0
695 2 -3.2149364540504743 9.81723775099206 18.245174274546994 0 0 0
672 2 8.9306212436405 6.925297440078275 10.06729738737672 0 0 0
703 1 -1.6214469118429506 8.510579137324505 12.077456767447638 0 0 0
704 2 -1.7604889597590412 9.026226246151898 11.301558867605964 0 0 0
705 2 -0.7012905163434665 8.114639684775495 12.055366855130176 0 0 0
706 1 -3.219101733561315 9.002048980109778 16.688649413973817 0 0 0
707 2 -3.0049361061076034 9.394546197997855 15.817437044222538 0 0 0
708 2 -2.6298485167402816 8.275345976734902 16.917922862784536 0 0 0
709 1 3.227917623942494 9.701427406992043 12.141679616015452 0 0 0