LAMMPS data file via write_data, version 15 Apr 2020, timestep = 1153000

1920 atoms
2 atom types

6.3918503123094439e-02 2.4660486496883383e+01 xlo xhi
1.2825648799061717e-01 2.4596148512011712e+01 ylo yhi
5.2742829507188560e-03 2.2787097717054962e+01 zlo zhi
2.6735130464719919e-01 6.3144807239829445e-04 3.5560539408089177e-03 xy xz yz

Masses

1 16
2 2

Atoms # atomic

1 1 4.6298155469846245e+00 1.8613106721113384e+00 4.5415069374704542e+00 0 0 0
2 2 5.3531272355183042e+00 1.7001420185295673e+00 3.8524407430096690e+00 0 0 0
3 2 4.8210141569520850e+00 1.0978633585759781e+00 5.1216500302076060e+00 0 0 0
4 1 2.9439947335234966e+00 1.9416604122693402e+00 2.3052040164005576e+00 0 0 0
1615 1 1.0790123104471357e+01 1.2324510489293459e+01 1.7732145034357778e+01 0 0 0
6 2 3.2751477954922632e+00 1.8971306957276222e+00 3.1998696579360542e+00 0 0 0
7 1 6.0196208700175200e+00 4.9907349493211246e+00 3.5271090620219390e+00 0 0 0
8 2 5.0674523593869658e+00 4.8258110297457524e+00 3.4386181148580883e+00 0 0 0
9 2 6.3335741601374842e+00 4.2152764332083139e+00 4.1336433584953234e+00 0 0 0
10 1 3.4262916278368727e+00 4.9053917259820645e+00 3.6397193326735611e+00 0 0 0
11 2 3.1736274311838297e+00 4.0112340831167046e+00 3.9697146204292988e+00 0 0 0
12 2 2.9189338372962124e+00 5.5966999606467969e+00 4.1088791996806524e+00 0 0 0
13 1 1.7213769487953376e+00 3.2297159521661638e+00 4.5405982237114486e+00 0 0 0
14 2 1.6029392023181088e+00 2.2878249742817114e+00 4.6307508249543003e+00 0 0 0
15 2 1.4265704812343385e+00 3.5784729442008762e+00 5.4072434941761882e+00 0 0 0
678 2 1.2345654313027174e+01 7.0964917213846110e+00 7.3628738590529128e+00 0 0 0
17 2 1.2662488110470540e+00 1.5683532710389330e+00 2.3390967807667313e+00 0 0 0
19 1 4.5850612751710917e+00 3.3764453504176939e+00 8.6602153454413644e-01 0 0 0
20 2 3.7749963179996975e+00 3.1049800321801211e+00 1.3201523092673573e+00 0 0 0
21 2 4.5823325769127576e+00 4.3687193952644767e+00 8.3262012270422114e-01 0 0 0
22 1 1.6644731604776137e+00 4.5908933556911320e+00 1.5205993984551884e+00 0 0 0
23 2 2.3983147927399076e+00 4.3183352284460792e+00 2.1235176355477470e+00 0 0 0
24 2 1.6295339341524206e+00 3.8760715369706014e+00 8.9503169939625005e-01 0 0 0
25 1 4.6987361181873535e+00 5.9481812717617251e+00 7.4129445295418628e-01 0 0 0
26 2 4.1060033626764358e+00 6.5306383006185893e+00 1.3398304921224486e+00 0 0 0
27 2 4.7999981553067679e+00 6.4160840961515664e+00 2.2677257100373257e+01 0 0 0
1376 2 1.1320402370997357e+01 3.6802493761530175e-01 1.2874879045686312e+01 0 0 0
31 1 1.0681373014177849e+01 1.6894786311148771e+00 4.4576700851802862e+00 0 0 0
32 2 1.0707793892060240e+01 2.4440933090007793e+00 5.0584063829297792e+00 0 0 0
1739 2 7.0447689041540036e+00 1.2042684952972492e+01 2.1354670170238681e+01 0 0 0
34 1 8.9506813365891595e+00 1.3240261994998521e+00 2.0852809565597590e+00 0 0 0
159 2 1.2391918938629050e+01 1.0653235513173591e+01 2.8603913819156643e+00 0 0 0
36 2 9.4964101731838308e+00 2.0128490404845252e+00 1.6237141303292657e+00 0 0 0
1346 2 4.2183684332801255e+00 2.2794182056672718e-01 1.2874745294186869e+01 0 0 0
39 2 1.1184805216617596e+01 4.8794688175471244e+00 4.1239732958923812e+00 0 0 0
40 1 9.4692852143838131e+00 4.9689685054195420e+00 3.8643257926603392e+00 0 0 0
41 2 9.0880123203379242e+00 4.8890918417768692e+00 2.9764015801373604e+00 0 0 0
42 2 8.9572161206358079e+00 4.2817623020744087e+00 4.4137637158720677e+00 0 0 0
43 1 7.7299894128040512e+00 3.1742915294547793e+00 5.0330311496596618e+00 0 0 0
44 2 7.6057029960303382e+00 3.3649409073540331e+00 5.9567971233437786e+00 0 0 0
45 2 7.9189846883842838e+00 2.1682964959819344e+00 5.0912373042525099e+00 0 0 0
46 1 6.1914753700885061e+00 1.7174868417929403e+00 2.1967393921704046e+00 0 0 0
47 2 7.1137524837639816e+00 1.9597306838617503e+00 1.9825554758624162e+00 0 0 0
48 2 5.6023987901092926e+00 2.4041297770578529e+00 1.9033778688507079e+00 0 0 0
49 1 1.0574049122213314e+01 3.2212175672668484e+00 1.0936795831307580e+00 0 0 0
50 2 1.1293837486846805e+01 2.7079541925639696e+00 1.4536997716216835e+00 0 0 0
51 2 1.0628795946565907e+01 3.1052212882929919e+00 1.0917861643708451e-01 0 0 1
52 1 7.8972285344259303e+00 4.7982844401386027e+00 1.6328357453985043e+00 0 0 0
53 2 7.7856782791108330e+00 4.0235120463399738e+00 1.0513257149559747e+00 0 0 0
54 2 7.1828892173730399e+00 4.7972016557841419e+00 2.3093949510131808e+00 0 0 0
55 1 1.0920524784595839e+01 6.1970488763498306e+00 9.2576112318254822e-01 0 0 0
56 2 1.0032263471967282e+01 6.4956087233667903e+00 1.2503468554700892e+00 0 0 0
57 2 1.0942983668512216e+01 5.2408759925855257e+00 1.1439792135218390e+00 0 0 0
198 2 1.2283042564093700e+01 7.1277544233614245e+00 2.0573223549668485e+00 0 0 0
517 1 1.2333506928187433e+01 4.8383500412924141e+00 9.3736542513056360e+00 0 0 0
1608 2 7.4931351704355169e+00 7.8079827259051244e+00 1.9741534013112982e+01 0 0 0
531 2 1.1127610254518308e+01 4.4378447565925780e+00 6.5908547699700524e+00 0 0 0
121 1 4.9041318607071238e+00 7.9373809669981794e+00 4.2806944379367433e+00 0 0 0
122 2 5.5439561188725834e+00 8.0360434808163355e+00 3.5665510324019873e+00 0 0 0
123 2 4.1274148098997028e+00 7.7130852316511973e+00 3.7485781137731466e+00 0 0 0
124 1 3.1435140005258915e+00 7.8738789525010420e+00 2.3023860637439446e+00 0 0 0
125 2 3.5065182731676945e+00 8.6074645024356951e+00 1.7510653949133286e+00 0 0 0
126 2 2.1566396903933618e+00 7.8844894711956686e+00 2.2046018519476225e+00 0 0 0
127 1 6.3279226625410860e+00 1.1464225048847640e+01 3.5549406459511261e+00 0 0 0
128 2 6.5739328532892314e+00 1.0545879414143352e+01 3.8420593808999990e+00 0 0 0
129 2 5.3928460169198607e+00 1.1492481010852037e+01 3.3800548790859417e+00 0 0 0
130 1 3.5701940322247778e+00 1.1364139690669818e+01 3.3087814396550144e+00 0 0 0
131 2 3.2551643542810749e+00 1.0588640848644271e+01 3.8234932006464279e+00 0 0 0
132 2 3.1138476573056484e+00 1.1380626084132308e+01 2.4314392861166678e+00 0 0 0
133 1 1.8603104270774358e+00 9.2654505352228771e+00 4.8966461657208207e+00 0 0 0
134 2 2.0722087209841202e+00 9.7882556498051478e+00 5.7153222970719328e+00 0 0 0
135 2 1.1269641849820011e+00 9.7428382033037053e+00 4.4225707128093061e+00 0 0 0
1038 2 1.1909354312524243e+01 1.7447285364916192e+00 1.4378457283247407e+01 0 0 0
139 1 4.6092805268885391e+00 9.5876087027071666e+00 8.0542531465506739e-01 0 0 0
140 2 4.6478302574007593e+00 1.0589425344808987e+01 7.7646367465044819e-01 0 0 0
141 2 5.3923287915479223e+00 9.2807667412343999e+00 1.2510549727847577e+00 0 0 0
142 1 1.8809615185549773e+00 1.0940731934777357e+01 1.2875800716160628e+00 0 0 0
143 2 1.8331527948917388e+00 1.0142940310181741e+01 7.0342056234381334e-01 0 0 0
144 2 1.7421228781672802e+00 1.1690424864586237e+01 7.3341333264711772e-01 0 0 0
510 2 1.3959974653520166e+00 2.8091645955798916e-01 1.1737860823770944e+01 0 1 0
148 1 1.9108346268168896e+00 6.5954367336613480e+00 4.8989089991450099e+00 0 0 0
1518 2 1.2362459413100435e+01 2.5362183661712963e+00 1.9151337084563181e+01 0 0 0
150 2 1.8633943982416770e+00 7.5846722359505359e+00 4.9887969486776447e+00 0 0 0
151 1 1.0602891907584176e+01 7.8154810447293093e+00 4.4897070321876358e+00 0 0 0
136 1 4.5311747860339158e-01 8.0724689876733873e+00 2.0053611260389923e+00 0 0 0
153 2 1.0665734142771658e+01 8.6770881890251719e+00 4.9985819367867572e+00 0 0 0
154 1 8.9513861611888697e+00 7.8182266901747290e+00 2.1123376303263326e+00 0 0 0
155 2 9.4233856727703849e+00 8.4444369508070736e+00 1.5376906248539708e+00 0 0 0
156 2 9.3276218251415752e+00 7.9566853479842123e+00 2.9812825217780587e+00 0 0 0
1468 1 1.5865865918164543e+00 5.6379806833951063e-01 2.2320132392098511e+01 0 0 0
158 2 1.1043645765748572e+01 1.0782017369284192e+01 3.7595171527199898e+00 0 0 0
160 1 9.4405331520892144e+00 1.1060263853964223e+01 3.6261842455680964e+00 0 0 0
161 2 9.0142785732851500e+00 1.1035629255199158e+01 2.6755981862709723e+00 0 0 0
162 2 9.0201311142563387e+00 1.1780192720617105e+01 4.1147725278800173e+00 0 0 0
163 1 7.6446831176364300e+00 9.5410585611536067e+00 5.0794955289632444e+00 0 0 0
164 2 7.6703197321446783e+00 8.5553211245816794e+00 5.1005373681087463e+00 0 0 0
165 2 8.5356632366254050e+00 9.7762325827054539e+00 4.7823736510803352e+00 0 0 0
166 1 6.3197659824013108e+00 8.0279309095916407e+00 1.8865141159934380e+00 0 0 0
167 2 6.0776046768570557e+00 7.1022065533386307e+00 1.6929803049302703e+00 0 0 0
168 2 7.3233360653956598e+00 8.0045140915353130e+00 1.9418738933961568e+00 0 0 0
169 1 1.0804486890747505e+01 9.4378631906340527e+00 8.6060831767870227e-01 0 0 0
170 2 1.0814327825968041e+01 1.0410519405027992e+01 8.0669442194107144e-01 0 0 0
171 2 1.0808503347755543e+01 9.0153298584001291e+00 2.2734730987916624e+01 0 0 0
172 1 7.9610236626833126e+00 1.0976372485381152e+01 1.4677169409846715e+00 0 0 0
173 2 7.1865541500340475e+00 1.1111523591898710e+01 2.0461203977196205e+00 0 0 0
174 2 7.8412563615883828e+00 1.0109391108595119e+01 9.3626780828074596e-01 0 0 0
677 2 1.2437576279037042e+01 8.6241643084862094e+00 7.3866394056286495e+00 0 0 0
178 1 7.7241079119646860e+00 6.6050405486216306e+00 5.1777060460190887e+00 0 0 0
179 2 6.8461422211313190e+00 6.3951696052284648e+00 4.8312151193293458e+00 0 0 0
180 2 8.3549873475149976e+00 6.1233352208521303e+00 4.5779503344398549e+00 0 0 0
1638 2 1.2096063526624649e+01 7.7060875892299938e+00 2.0020410372589790e+01 0 0 0
780 2 7.2132039208027487e+00 1.2338586613753161e+01 1.0677847987255008e+01 0 0 0
699 2 3.9810824009653545e-01 1.1360335199926883e+01 9.5783953928689005e+00 0 0 0
1230 2 2.2597096267187626e+00 1.1807235038627249e+01 1.6229674540960247e+01 0 0 0
1619 2 7.6006358095387307e+00 5.8916451089364816e+00 3.6818936269099439e-01 0 0 1
1611 2 1.1518358293316302e+01 9.0984250428516500e+00 1.8450967102471242e+01 0 0 0
1618 1 7.8061753586488942e+00 6.2399098621626266e+00 2.2276400188227399e+01 0 0 0
35 2 9.2651474801025309e+00 1.4154892667581978e+00 2.9508826774760597e+00 0 0 0
1096 1 3.7595506991515576e-01 7.6166978059056989e+00 1.3396263560623915e+01 0 0 0
481 1 4.5820890008344106e+00 1.6354660922114530e+00 1.0156367398207864e+01 0 0 0
482 2 4.7231026489524472e+00 9.4812390443312344e-01 1.0876295898640494e+01 0 0 0
483 2 5.3272836694790584e+00 1.7885115300199113e+00 9.5489643394965658e+00 0 0 0
484 1 2.8839348934048417e+00 1.6092857594422918e+00 7.9981114477731357e+00 0 0 0
485 2 3.2750603957077882e+00 1.6189805319015917e+00 8.8668479826698601e+00 0 0 0
486 2 1.8302273647439773e+00 1.5779469152190153e+00 8.0978998384420589e+00 0 0 0
487 1 6.2084697179832888e+00 4.8980982357831335e+00 9.3517265856433696e+00 0 0 0
488 2 5.2094964439158380e+00 4.9629553836918925e+00 9.4622399712939220e+00 0 0 0
489 2 6.4445597371676673e+00 4.0136456682779684e+00 9.6644874885661896e+00 0 0 0
490 1 3.5048826188598032e+00 4.7571962038917732e+00 9.3106735383496986e+00 0 0 0
491 2 3.0511172992778812e+00 3.9892028803317938e+00 9.6632022911853035e+00 0 0 0
492 2 2.9418852719173105e+00 5.4733441283744835e+00 9.7310024079514115e+00 0 0 0
493 1 1.4691848027550969e+00 3.2138913654227443e+00 1.0648316289565269e+01 0 0 0
494 2 1.7178392326569987e+00 3.7674051694873585e+00 1.1460340032319248e+01 0 0 0
157 1 1.2036254609937995e+01 1.0839345918163396e+01 3.7807621840031738e+00 0 0 0
1613 2 7.8518378665161732e+00 1.1655044285959029e+01 1.7946366613986523e+01 0 0 0
499 1 4.6757309343825098e+00 3.3394048535513661e+00 6.8511233632084672e+00 0 0 0
500 2 3.7810836839711284e+00 3.0116590230225682e+00 7.1359556209541770e+00 0 0 0
501 2 4.5272295973034247e+00 3.0031472264540420e+00 5.9644257266648664e+00 0 0 0
502 1 1.9092681407465615e+00 4.6540041518232327e+00 6.6762070166548391e+00 0 0 0
503 2 2.5239397392483145e+00 4.9867855273295669e+00 7.3472448779833819e+00 0 0 0
504 2 1.8247899690886253e+00 5.5790980889626685e+00 6.2654263527643463e+00 0 0 0
505 1 4.8672673801790403e+00 6.1228231614347610e+00 6.2768789573946959e+00 0 0 0
506 2 4.6516782193638324e+00 5.1156893114102830e+00 6.3048183606079284e+00 0 0 0
507 2 4.6972898680938888e+00 6.2812476027031856e+00 5.3113096148863246e+00 0 0 0
5 2 3.4415197532043766e+00 1.2494737672561116e+00 1.8816122797661248e+00 0 0 0
509 2 1.6293994648899885e+00 1.4740396105759472e+00 1.0771755591281842e+01 0 0 0
511 1 1.1103906682641359e+01 1.8147361776544113e+00 1.0050735864760993e+01 0 0 0
512 2 1.1106683828057049e+01 1.0699554738565511e+00 1.0670005143106859e+01 0 0 0
513 2 1.0319795949606364e+01 1.6845402389697415e+00 9.4366256972164209e+00 0 0 0
514 1 9.4868210654159189e+00 1.7121574859186202e+00 8.0107437616573964e+00 0 0 0
515 2 8.5449185076858800e+00 1.5857752090906261e+00 8.2293406922227490e+00 0 0 0
1456 1 2.4288872765617744e-01 1.7370317832506765e+00 1.9348126608708764e+01 0 0 0
1117 1 1.2260071151088326e+01 1.1005167950686817e+01 1.4854874719039975e+01 0 0 0
520 1 9.6313824012641618e+00 4.3835777744828706e+00 9.3887240745405798e+00 0 0 0
521 2 1.0575448286248003e+01 4.6648153272322448e+00 9.3552693889312835e+00 0 0 0
522 2 9.1441140591423817e+00 4.4509018503772095e+00 8.5315236562866001e+00 0 0 0
523 1 7.8615204678703812e+00 3.0813653868254645e+00 1.0627260166713139e+01 0 0 0
524 2 7.9768638488220054e+00 2.1341974305509197e+00 1.0787800453630819e+01 0 0 0
525 2 8.6815432001485711e+00 3.4248124386582055e+00 1.0220429644715026e+01 0 0 0
526 1 6.5203978338980981e+00 1.6202090596583325e+00 8.0735940964663939e+00 0 0 0
527 2 6.4910964170158802e+00 2.4882805385574458e+00 7.6878329026968970e+00 0 0 0
37 1 1.2138285118489598e+01 4.9194455761802702e+00 3.9125024897451244e+00 0 0 0
529 1 1.1017838975745260e+01 3.3909383005923006e+00 6.5895156453770847e+00 0 0 0
530 2 1.0265197529407720e+01 3.1368854620213398e+00 7.2362762754393053e+00 0 0 0
1158 2 1.2273464430206547e+01 8.6914636266300267e+00 1.3133461210202066e+01 0 0 0
532 1 7.7697281333255193e+00 4.6224651397086207e+00 7.3323079627038066e+00 0 0 0
533 2 7.8693561332859687e+00 5.3374423812862082e+00 6.6852936858847469e+00 0 0 0
534 2 6.9142343923418315e+00 4.8553100509608935e+00 7.8740869130954518e+00 0 0 0
535 1 1.1045424518925401e+01 6.0841020952219518e+00 6.6506844345567178e+00 0 0 0
536 2 1.0376705973678193e+01 6.6093352243481318e+00 7.1955279767713902e+00 0 0 0
537 2 1.0910974595370508e+01 6.5920896679383096e+00 5.8254919540170285e+00 0 0 0
1607 2 5.9423769079887991e+00 7.6449094527498751e+00 2.0235202669551132e+01 0 0 0
614 2 1.0197429342397859e+00 9.5453542994299294e+00 1.0106790561321155e+01 0 0 0
1472 2 1.1942534020656153e+01 1.3929724070633549e+00 2.1104051786473054e+01 0 0 0
1178 2 3.9303314680132195e-01 1.1420374859117768e+01 1.5504143069369782e+01 0 0 0
1612 1 7.8488807288222757e+00 1.1050293189796973e+01 1.8715348608281520e+01 0 0 0
601 1 4.6420376052927548e+00 7.7255779292773132e+00 9.9655020352234587e+00 0 0 0
602 2 5.3779970842215130e+00 7.8964257656437491e+00 9.3685287522031846e+00 0 0 0
603 2 4.6656902946045937e+00 8.4763728368308069e+00 1.0575665759109233e+01 0 0 0
604 1 3.2506082069544053e+00 7.7704545012221731e+00 7.6919846870159860e+00 0 0 0
605 2 3.6355294296918941e+00 7.6347092977638811e+00 8.6276295698834868e+00 0 0 0
606 2 3.7020499389013066e+00 7.2299049661862815e+00 7.0022469122220876e+00 0 0 0
607 1 6.2239026317834671e+00 1.0845631862117026e+01 9.7288598446688432e+00 0 0 0
608 2 6.6438399195164388e+00 1.0746317420770859e+01 8.7761684489368506e+00 0 0 0
609 2 6.6958482202717606e+00 1.0137984486838773e+01 1.0243885088506719e+01 0 0 0
610 1 3.6355305449030935e+00 1.0840369178140339e+01 9.5808896889425572e+00 0 0 0
611 2 3.3109743143669945e+00 1.0981290567419252e+01 8.6437590693136954e+00 0 0 0
612 2 4.6187927463872303e+00 1.0862272473516475e+01 9.7689264385409906e+00 0 0 0
613 1 1.7587880178922399e+00 9.2481990426148055e+00 1.0629466489992993e+01 0 0 0
300 2 7.2340014098547707e+00 1.2280309705621159e+01 4.7963026856426723e+00 0 0 0
615 2 2.5116345615736142e+00 9.6176550108195666e+00 1.0130726305111832e+01 0 0 0
1574 2 7.4395088772427409e-01 9.6231198945630805e+00 2.1445266479439820e+01 0 0 0
618 2 1.4498730178519330e+00 7.7026771022252447e+00 7.5210915907443967e+00 0 0 0
619 1 4.8847183076618403e+00 9.5585863679735308e+00 6.7469097976025205e+00 0 0 0
620 2 4.9344707309094069e+00 9.2088129341285097e+00 5.8571226012403859e+00 0 0 0
621 2 4.1811426085738743e+00 9.0608758039808670e+00 7.3196549794537331e+00 0 0 0
622 1 1.9636371694678989e+00 1.0787517793832528e+01 7.3203015312225883e+00 0 0 0
623 2 1.1042239255192636e+00 1.0758185550954513e+01 7.7934789571802483e+00 0 0 0
624 2 1.8049775730405699e+00 1.1520599577696990e+01 6.6891857784908098e+00 0 0 0
579 2 2.8078887414562792e-01 4.6991838998395732e+00 8.1279626626064729e+00 0 0 0
626 2 4.7023381393352182e+00 1.1264416049038266e+01 6.7518164274729209e+00 0 0 0
628 1 1.8628785660390890e+00 6.5853300737646556e+00 1.0550994029459146e+01 0 0 0
629 2 1.7680288972498028e+00 6.0577704422466407e+00 1.1374062872490162e+01 0 0 0
630 2 1.7963481124022016e+00 7.5234642791576194e+00 1.0716166591946127e+01 0 0 0
631 1 1.1001456479137749e+01 7.7203318800370413e+00 9.8568276382034519e+00 0 0 0
632 2 1.1197772174177329e+01 7.1262770293623889e+00 1.0613647223842255e+01 0 0 0
633 2 1.1836706115659661e+01 7.9206115303065276e+00 9.3629048536742232e+00 0 0 0
634 1 9.2154592762891365e+00 7.7606044146494719e+00 7.7476987389720291e+00 0 0 0
635 2 9.4357437676182077e+00 7.8071998317523370e+00 8.7122098163342017e+00 0 0 0
636 2 8.2347559496679850e+00 7.4823066522873187e+00 7.7065036443898354e+00 0 0 0
218 2 4.6377189279602471e-01 1.0727345368208006e+01 2.8673238533117611e+00 0 0 0
639 2 1.1377023741416725e+01 1.0922326460932325e+01 9.2783145135774436e+00 0 0 0
640 1 9.5972483211591744e+00 1.0833905321545151e+01 9.4066989979087801e+00 0 0 0
641 2 9.0731950892172684e+00 1.0826881862230893e+01 8.5686470308976528e+00 0 0 0
642 2 9.1789930748924782e+00 1.0136881726126690e+01 9.9344344029723679e+00 0 0 0
643 1 7.7256504934443448e+00 9.0672856522469996e+00 1.0884111655538556e+01 0 0 0
644 2 7.6186327230408724e+00 8.0639224438882984e+00 1.0999663980042268e+01 0 0 0
645 2 7.7043160646571458e+00 9.5448360858543655e+00 1.1763597949239269e+01 0 0 0
646 1 6.4278177300649455e+00 7.5617785583861830e+00 7.8138057257134816e+00 0 0 0
647 2 6.2157671954780067e+00 6.7997069108521142e+00 7.2516578939942251e+00 0 0 0
648 2 6.0536209514811015e+00 8.2911203125441695e+00 7.3090465032734047e+00 0 0 0
649 1 1.0891208307525512e+01 9.6176641130161080e+00 6.5921273985461966e+00 0 0 0
650 2 1.0792580521920604e+01 1.0609027990424359e+01 6.4643550116219650e+00 0 0 0
651 2 1.0264703044909053e+01 9.3468619292799122e+00 7.2764987179149596e+00 0 0 0
652 1 7.8941745300228519e+00 1.1090120867336756e+01 7.3970566201808845e+00 0 0 0
653 2 7.8744754898609033e+00 1.0233067870849647e+01 6.8691763927589786e+00 0 0 0
1259 2 8.6314898651842498e+00 1.1880824268793267e+01 1.6193044868760914e+01 0 0 0
1089 2 5.1817214548110009e+00 1.0730734462847796e+01 1.5165054860192765e+01 0 0 0
658 1 7.9869913665858174e+00 6.3294601443280802e+00 1.0490339559900658e+01 0 0 0
659 2 7.2205593813600206e+00 5.8804203911210484e+00 1.0017113156011144e+01 0 0 0
660 2 8.8410894290171527e+00 5.8792750202607564e+00 1.0243931170239547e+01 0 0 0
1610 2 1.0761864434358287e+01 9.1113370708026054e+00 1.7170580631889756e+01 0 0 0
77 2 1.2213601834665763e+01 6.8338372604453090e-01 1.4639191643287495e+00 0 0 0
749 2 1.8372632235611177e+00 1.2061419313797671e+01 1.1305578449620732e+01 0 0 0
416 2 1.1107730077642573e+01 1.6053601834626960e-01 2.2737593556005837e+01 0 0 0
1614 2 8.6494065800954996e+00 1.1210914118390079e+01 1.9329277507718540e+01 0 0 0
1576 1 1.8587298926200033e-01 7.7839662968140209e+00 1.9049725460750803e+01 0 0 0
578 2 2.8882327137216102e-01 5.7884751547963695e+00 9.2507937918734040e+00 0 0 0
1616 2 1.0888363358747444e+01 1.1378015367723730e+01 1.7796669160738688e+01 0 0 0
197 2 1.2079459016538758e+01 8.5710238970869028e+00 1.7344787947471205e+00 0 0 0
99 2 5.8178360438416632e-01 4.2791249666376761e+00 3.9447695268896679e+00 0 0 0
961 1 5.0248865401231493e+00 1.5799637233950532e+00 1.5592710286678649e+01 0 0 0
962 2 5.0769822143638397e+00 2.2744408943379253e+00 1.6324202306105825e+01 0 0 0
1105 1 4.6476121169335691e+00 1.2004208687641851e+01 1.2218371123432638e+01 0 0 0
964 1 3.0425693630143282e+00 1.7087077242803046e+00 1.3623385090022920e+01 0 0 0
965 2 3.5546106238646855e+00 1.8138335818449975e+00 1.4486123170579070e+01 0 0 0
966 2 3.5274882842894546e+00 2.2919977324153966e+00 1.3019693492303114e+01 0 0 0
967 1 6.0701489832330626e+00 4.7483339058182255e+00 1.4848486129403685e+01 0 0 0
968 2 6.5599171032309220e+00 5.3885962740145201e+00 1.5446904817771284e+01 0 0 0
969 2 6.6243043459847364e+00 4.7706171843125196e+00 1.4044336159389921e+01 0 0 0
970 1 3.3505495385840747e+00 4.8261502398982046e+00 1.4801970874009307e+01 0 0 0
971 2 4.3082102316529660e+00 5.0108944369631070e+00 1.4783288475876221e+01 0 0 0
972 2 2.9165621811058347e+00 5.4455868931673272e+00 1.5494868802758331e+01 0 0 0
973 1 1.6722850848364885e+00 2.9830460641313947e+00 1.6163555844007167e+01 0 0 0
974 2 2.4813451374655835e+00 3.4881724654568522e+00 1.5992781955947439e+01 0 0 0
975 2 1.4819826797220557e+00 3.3154948512951603e+00 1.7076037596222662e+01 0 0 0
1058 2 4.2966969376085207e-01 4.1518776440362952e+00 1.5350095477096486e+01 1 0 0
977 2 1.2656383081697322e+00 1.8569482876130983e+00 1.3530258585027523e+01 0 0 0
979 1 4.4933944296142396e+00 3.4433617564254724e+00 1.2085841470679938e+01 0 0 0
980 2 4.5268917596570883e+00 2.8365314951016467e+00 1.1367124427774073e+01 0 0 0
981 2 5.2962484811350663e+00 3.1573959368580287e+00 1.2632820241073201e+01 0 0 0
982 1 1.7035928238728533e+00 4.9533579588623873e+00 1.2664317712676043e+01 0 0 0
983 2 2.5090014252193784e+00 4.8513222413228112e+00 1.3191478252637598e+01 0 0 0
984 2 1.0808815858366727e+00 4.9387678835749211e+00 1.3384352924116588e+01 0 0 0
985 1 4.4161141496409284e+00 6.1788500648831794e+00 1.2163798260987136e+01 0 0 0
986 2 4.4320078643302177e+00 6.6380912955396765e+00 1.1334774668723664e+01 0 0 0
987 2 4.3738519433604193e+00 5.2189593900894931e+00 1.1997016316834019e+01 0 0 0
386 2 5.4420838146091342e+00 7.1015872587772910e-01 1.1478009611437983e+00 0 0 0
989 2 1.6262033348155733e+00 1.1030176999926677e+00 1.6332483260531863e+01 0 0 0
991 1 1.0734025921886071e+01 1.7374961164449128e+00 1.5747146266007009e+01 0 0 0
992 2 1.0794459499073133e+01 1.0415445021769090e+00 1.6418036451415844e+01 0 0 0
993 2 9.9139577907764522e+00 1.5693656380886678e+00 1.5207961136529613e+01 0 0 0
994 1 8.9096696165200129e+00 1.8695152049571850e+00 1.3678286140578209e+01 0 0 0
995 2 9.3360971964658361e+00 1.2758148459020191e+00 1.3037569851293959e+01 0 0 0
996 2 9.3422430558715508e+00 2.7362274297488884e+00 1.3496422259953549e+01 0 0 0
1602 2 9.6273025741020373e+00 1.1826851785390540e+01 2.1357851680460790e+01 0 0 0
998 2 1.1466040893071579e+01 4.6341600993056140e+00 1.4624913449226483e+01 0 0 0
1000 1 9.5663041028179272e+00 4.8494775883858461e+00 1.4739739306193584e+01 0 0 0
1001 2 9.0094727982115632e+00 4.1093402172558440e+00 1.5250499169601015e+01 0 0 0
1002 2 9.2712149400132091e+00 4.8355456946961448e+00 1.3829648470141141e+01 0 0 0
1003 1 7.7499808318716026e+00 2.9808870741698210e+00 1.5954185648906051e+01 0 0 0
1004 2 7.0120022458126163e+00 3.4271541294917722e+00 1.5567589092940823e+01 0 0 0
1005 2 7.9085006300676088e+00 3.4254452531038826e+00 1.6793025393349087e+01 0 0 0
1006 1 6.3123102125489510e+00 1.7247829345096726e+00 1.3350960626284305e+01 0 0 0
1007 2 5.7963260273630093e+00 1.6876618194796045e+00 1.4162677480629373e+01 0 0 0
1008 2 7.3003454138278352e+00 1.8072445852845400e+00 1.3486574708519548e+01 0 0 0
1009 1 1.1208460555864628e+01 3.5983013646298003e+00 1.2036194842928966e+01 0 0 0
1010 2 1.1770674668361394e+01 3.0238371562311324e+00 1.2665614888876533e+01 0 0 0
1011 2 1.1140824638023693e+01 2.9623925625322935e+00 1.1275563658483266e+01 0 0 0
1012 1 7.8683605772567917e+00 4.7767424797863756e+00 1.2707951168755088e+01 0 0 0
1013 2 7.8499453654357367e+00 3.9944953523425708e+00 1.2026574695318038e+01 0 0 0
1014 2 7.9514429494954140e+00 5.5254580106945532e+00 1.2096499284319489e+01 0 0 0
1015 1 1.0790920303006949e+01 6.3289360787984981e+00 1.2192343539340637e+01 0 0 0
1016 2 1.0872635916190685e+01 5.3561025673562144e+00 1.2039498329147989e+01 0 0 0
1017 2 1.1546329362041266e+01 6.5765941872946536e+00 1.2823015354828211e+01 0 0 0
58 1 7.9681997932953585e+00 2.3113830690344833e-01 5.2440123649742416e+00 0 0 0
1019 2 7.7568366021638102e+00 1.0629602865927854e+00 1.6222377897450038e+01 0 0 0
654 2 7.9499791881792712e+00 1.1816962228620584e+01 6.7473883850481027e+00 0 0 0
1133 2 7.9452350206085942e+00 1.1596527262419347e+01 1.2634205711680744e+01 0 0 0
1081 1 5.0718886930600648e+00 8.0836255840587032e+00 1.5878210240475171e+01 0 0 0
1082 2 5.8524663690750263e+00 8.0471552910827704e+00 1.5337121678767369e+01 0 0 0
1083 2 5.1289805384159077e+00 7.2419317866595545e+00 1.6385229942674638e+01 0 0 0
1084 1 3.1357741632191067e+00 7.6713454382328461e+00 1.3760269008477316e+01 0 0 0
1085 2 3.6398185276116837e+00 7.6909405039708867e+00 1.4575039713897477e+01 0 0 0
1086 2 3.5636361039497473e+00 6.9557450442141713e+00 1.3205117906246292e+01 0 0 0
1087 1 6.1376839076024874e+00 1.0797850033776628e+01 1.5231659599829200e+01 0 0 0
1088 2 6.4788555528176106e+00 1.0075303890483783e+01 1.5842789896702499e+01 0 0 0
1477 1 1.2195550558482882e+01 4.7550666235292454e+00 2.0774576078942971e+01 0 0 0
1090 1 3.3631333559476873e+00 1.0707223620877972e+01 1.5286003942240608e+01 0 0 0
1091 2 2.9573067711279619e+00 9.9951162199154293e+00 1.5835350686173040e+01 0 0 0
1092 2 3.0154630051378852e+00 1.0608910044312292e+01 1.4391694680873877e+01 0 0 0
1093 1 1.6636395515322597e+00 9.1387600830483269e+00 1.6677556183692928e+01 0 0 0
1094 2 1.7198500668309995e+00 8.1498723736109362e+00 1.6603267251079490e+01 0 0 0
1095 2 9.2362234792347675e-01 9.5010267005727620e+00 1.6191160877576305e+01 0 0 0
616 1 4.6345090246333920e-01 7.6874036880391206e+00 7.5296744423847777e+00 0 0 0
1097 2 1.3652602238927951e+00 7.6946110822581080e+00 1.3533493946997520e+01 0 0 0
1099 1 4.6160905738143843e+00 9.2643466966980714e+00 1.2106004255666141e+01 0 0 0
1100 2 4.0718888029847164e+00 8.9532075789351673e+00 1.2882367027582365e+01 0 0 0
1101 2 4.5991276026476857e+00 1.0220271288419683e+01 1.2183717564014838e+01 0 0 0
1102 1 2.0485062355501471e+00 1.0769124007802505e+01 1.2875426362824129e+01 0 0 0
1103 2 1.9225545636355257e+00 1.0120599743960899e+01 1.2210965990290886e+01 0 0 0
1104 2 1.1081233135646826e+00 1.0887894288490202e+01 1.3326529024102404e+01 0 0 0
779 2 8.7296664061676470e+00 1.2233080905072109e+01 1.0638913893011607e+01 0 0 0
1108 1 1.8762914103252379e+00 6.3716516034924808e+00 1.6304307299732528e+01 0 0 0
1109 2 1.1331430084432874e+00 6.0953981278689264e+00 1.5759944079186020e+01 0 0 0
1110 2 1.7309381510631279e+00 5.8261351167728614e+00 1.7089370060759403e+01 0 0 0
1111 1 1.0739951804847699e+01 7.8033066186144469e+00 1.5639912552855709e+01 0 0 0
1112 2 1.1546684836902896e+01 8.2261929933206375e+00 1.5310162947122771e+01 0 0 0
1113 2 1.0174963938572862e+01 7.7780947381404326e+00 1.4844716100580694e+01 0 0 0
1114 1 9.1406428808560936e+00 8.0324669912089952e+00 1.3459172080991225e+01 0 0 0
1115 2 9.6590044305185483e+00 7.3019158423729360e+00 1.2974602106425886e+01 0 0 0
1116 2 8.1916995078701245e+00 7.8108913201393504e+00 1.3360211179637028e+01 0 0 0
33 2 1.1470087160037908e+01 1.7752362222314555e+00 3.8699965239300140e+00 0 0 0
1120 1 9.4938818845558508e+00 1.0781678170371325e+01 1.5367115820527648e+01 0 0 0
1121 2 8.9715036241774015e+00 1.0796944143432306e+01 1.4552534426553667e+01 0 0 0
1122 2 1.0443144713575460e+01 1.1053627494085271e+01 1.5210707673016980e+01 0 0 0
1123 1 7.8250019552680712e+00 8.8964182896134592e+00 1.6551343205948033e+01 0 0 0
1124 2 8.5642402977465366e+00 9.2546301475950887e+00 1.5991220732459841e+01 0 0 0
1125 2 7.7831753146649669e+00 9.4741432134846182e+00 1.7282985903696250e+01 0 0 0
1126 1 6.5362925336054678e+00 7.6268397663811243e+00 1.3408673579631083e+01 0 0 0
1127 2 5.9122656423547726e+00 6.9644948226144150e+00 1.3133737791942574e+01 0 0 0
1128 2 6.1221613861619417e+00 8.4099795455389437e+00 1.3000537439567108e+01 0 0 0
1129 1 1.0985504999597890e+01 9.5555087715895244e+00 1.1950828330899581e+01 0 0 0
1130 2 1.0151097535816021e+01 9.3206972119546094e+00 1.2233249226508464e+01 0 0 0
1131 2 1.1062781528459608e+01 9.0255425243288361e+00 1.1138580945793061e+01 0 0 0
1132 1 7.9015186414201919e+00 1.0683946084731453e+01 1.2977121030796223e+01 0 0 0
508 1 1.5053328693501880e+00 4.7624755643602346e-01 1.0796115205977216e+01 0 0 0
1134 2 7.2141313165377126e+00 1.0772703419894835e+01 1.3686680738188119e+01 0 0 0
516 2 9.8651499443247062e+00 8.9105787162750438e-01 7.4374879095381239e+00 0 0 0
1137 2 1.0904887258464218e+01 1.1444222137251494e+01 1.2106965299069659e+01 0 0 0
1138 1 7.7071080016264242e+00 6.2576214544565358e+00 1.6553554046233742e+01 0 0 0
1139 2 7.7686541224486643e+00 7.2914544410114166e+00 1.6701803149621288e+01 0 0 0
1140 2 8.5389040531040745e+00 6.0778438091334621e+00 1.6105218484333175e+01 0 0 0
976 1 3.0130155772944822e-01 1.6628832175582691e+00 1.3560992896778572e+01 0 0 0
1827 2 4.1723476319364909e+00 6.2895694767188104e-01 1.7930702923401881e+01 0 0 0
1571 2 2.9314772050895539e+00 1.1759031240837999e+01 2.1174279550337147e+01 0 0 0
495 2 7.6727020013220359e-01 3.7345490677238011e+00 1.0175368371601822e+01 0 0 0
175 1 1.0489071644411597e+01 1.2222802032237873e+01 7.3466280603780454e-01 0 0 0
152 2 1.1314921991748477e+01 7.7931485292643323e+00 3.8732072387516574e+00 0 0 0
1606 1 6.5573012902799412e+00 7.4460496480539371e+00 1.9531128670345410e+01 0 0 0
1585 1 4.6420094556672300e+00 1.2250313085343581e+01 1.7991051517083648e+01 0 0 0
1347 2 5.6384546064659142e+00 3.2954529881397721e-01 1.2568136748692156e+01 0 0 0
1441 1 4.3030176312405137e+00 1.9254637458953936e+00 2.1164200732101556e+01 0 0 0
1442 2 4.3589520948808644e+00 1.1600350332639568e+00 2.1745581705405201e+01 0 0 0
1443 2 4.3553906432875564e+00 2.5661997443684301e+00 2.1882809258977275e+01 0 0 0