LAMMPS data file via write_data, version 8 Apr 2021, timestep = 43236000

576 atoms
2 atom types

0.3028489229448463 17.617152077045706 xlo xhi
0.0978479229486981 17.412151077047124 ylo yhi
0.4478489229463753 17.762152077048295 zlo zhi

Masses

1 16
2 2

Atoms # atomic

2 2 2.2364439251533317 2.8209866254636857 4.040385375863332 2 3 4
1 1 2.015816025712228 3.5809933305137274 3.4864762200747075 2 3 4
81 2 4.123127740806382 1.4034470287113363 2.8052787779016684 0 0 2
3 2 1.1919507188819347 3.2537828998445018 3.0180330368929984 2 3 4
402 2 2.0559856985827474 0.27078592116355893 3.7268239873907323 1 3 -1
348 2 1.2048615819655073 0.9568063188297979 0.5063296652976473 4 1 3
439 1 5.440794476553765 3.989556308541397 4.101864502226556 0 -1 -3
440 2 4.7333773612404775 3.8985768381513846 4.75099671758443 0 -1 -3
80 2 5.2049994422293215 1.7704681828188567 1.879642479764762 0 0 2
79 1 5.082588560066086 1.763692801489681 2.8076317915343214 0 0 2
505 1 8.399857009591331 3.6228183652803287 2.406569097420633 -2 -2 5
441 2 5.412235340525598 3.1072727349367257 3.723668536394802 0 -1 -3
161 2 6.136752710258789 0.4296680973422336 3.4163952929989447 -2 2 0
162 2 7.728977418444591 0.1795970616151038 2.8987693664018828 -2 2 0
506 2 8.068772343048876 3.8643894698383385 3.277698051122507 -2 -2 5
298 1 8.896561246758603 1.0592647527024652 2.142277940681394 1 1 -1
507 2 8.46839333506851 2.652780507391082 2.343831698896491 -2 -2 5
300 2 8.753700418349531 1.095075585590832 1.226303317144198 1 1 -1
335 2 0.5499393269925299 5.95627750513477 4.766748306103202 -2 4 -1
260 2 0.9791802692822897 4.898249880316702 1.0663673434082959 1 1 1
336 2 1.7579964076189323 4.879909838320742 4.420618915813062 -2 4 -1
261 2 2.515410118423994 5.1686643313440825 1.507297580706123 1 1 1
453 2 4.191264883388903 6.83027951471978 2.0184437666697415 -1 2 2
493 1 4.541349147107608 5.416721549046576 2.0141995842023808 1 -1 0
259 1 1.7858153350062456 5.418102223613474 0.855317350841721 1 1 1
451 1 3.917667200758016 7.785574452967128 2.2586601116627136 -1 2 2
330 2 1.0936951137231485 6.854292404591236 1.3280594841410398 6 1 1
266 2 3.4174698680304245 7.534599491946243 3.7964890707296575 -2 1 -2
265 1 2.8975652576816047 7.629498657184302 4.667386392073804 -2 1 -2
329 2 1.2712147964963092 8.400611856565108 1.6691088422523013 6 1 1
328 1 0.6273833545476217 7.708000963507045 1.5994309802842177 6 1 1
153 2 3.471689447143451 8.333203687208984 0.4954447082037454 1 2 5
104 2 8.832650368306545 7.1315871374969495 3.28765861846353 2 -1 4
494 2 4.722509755411029 4.800441994461959 2.767313054560302 1 -1 0
495 2 5.428742863140303 5.486715311305571 1.5887671526882405 1 -1 0
509 2 6.842844261303272 7.890903529864361 3.6730520895956156 -2 1 2
103 1 8.322438872053866 6.980095929601366 4.113569019004699 2 -1 4
105 2 8.427297966271933 6.060524821729288 4.317485457667085 2 -1 4
452 2 4.7007075802077685 8.313344492821125 2.5470148298467956 -1 2 2
36 2 7.5221901718794495 5.3423417169896785 1.4195367972770434 0 3 -4
34 1 6.9752882584753335 6.025348997414133 0.9460190692242378 0 3 -4
539 2 1.5395132944710603 11.51656876713455 0.5297978988519192 -3 -3 2
21 2 2.0717125456907053 9.133051444169269 4.189215366972176 3 -2 3
20 2 2.3842123325428037 10.18225521161901 3.1382244919625015 3 -2 3
19 1 1.688964985625378 9.92410369869858 3.7919152027660816 3 -2 3
410 2 2.675504182026642 12.48658368732352 2.11429074245568 2 2 -1
202 1 3.8647998598249136 11.290884301698773 2.648903298628543 -1 -1 -1
409 1 1.9411293713116324 12.856449130350741 1.5953438540217275 2 2 -1
203 2 4.334532180578505 11.908943080697044 3.2422085493454498 -1 -1 -1
204 2 4.5293571223824465 11.182684075510403 1.9291813237021374 -1 -1 -1
258 2 7.955764438259961 9.893758124521284 1.0788773784740642 -1 -2 4
508 1 6.3733187496487655 8.773548996558446 3.5832368868205866 -2 1 2
256 1 7.444169499844152 10.341512934799782 1.7718258148815944 -1 -2 4
257 2 7.191483481405166 9.72861309790483 2.45343079920855 -1 -2 4
12 2 7.752773375123575 12.114755853479306 1.8217905968417942 3 -3 2
10 1 7.999336203083658 13.0481003545566 1.7935352461595002 3 -3 2
510 2 6.068274843210218 9.030518621564758 4.425703269613659 -2 1 2
360 2 6.112356805728368 10.642021294078443 0.6353808567360022 0 0 1
537 2 0.5594371171477254 13.389413322301584 2.6564243567536474 0 -2 -2
411 2 2.271876521676648 13.630742558106956 1.0304728255390367 2 2 -1
400 1 2.7313601616634973 17.343057682397408 3.059192718753113 1 2 -1
401 2 2.1991204079308875 16.97524110545528 2.35329606940414 1 2 -1
388 1 0.8183193756127076 16.740337717974235 1.1457243676415778 3 0 2
426 2 3.6129622372500174 15.8978774293674 3.914324832295963 0 -2 0
564 2 0.7052869295082673 14.274198295522506 4.4675818083924925 2 0 -2
390 2 1.3280591726772095 16.072414041992698 0.6025337002044381 3 0 2
424 1 3.6732811595512205 15.383298917186755 4.732325761460919 0 -2 0
512 2 4.439698280030336 14.117371215083939 4.541837325648617 -2 0 3
511 1 5.098456748126419 13.329625579555255 4.310241165563192 -2 0 3
160 1 6.856408965208987 17.094483277880364 3.293445999396321 -2 1 0
513 2 5.51884147717739 13.63700156416537 3.452705863163395 -2 0 3
271 1 6.0962217066984685 14.835930621207693 2.2474128249323417 4 1 1
273 2 6.380197643443996 15.71668188665089 2.6006992195032317 4 1 1
272 2 6.910592621613195 14.308928234551487 2.1175093637160174 4 1 1
527 2 5.378336028473635 15.173940228250332 0.6559672056560056 -5 0 -1
11 2 7.943985495913258 13.333131784101589 0.8601772140667305 3 -3 2
74 2 3.3520616368862424 3.7892415115978264 8.636839687282894 2 2 3
503 2 2.7577077543521966 3.0632037617697163 6.128578231240674 2 2 3
502 1 3.7315796939637056 3.043071870165822 5.865027738116952 2 2 3
504 2 4.073036837869606 2.0821532818333597 5.844438181592604 2 2 3
240 2 3.6309784815926562 0.4207409635582974 6.8999267016021255 -1 -2 2
22 1 0.8601504785452192 0.9139883096071715 4.790549287175107 1 3 -2
126 2 1.5267226962772822 0.31849835239938995 7.675368959987838 4 0 3
304 1 1.2984219082649695 3.4385161211752986 6.756883376492649 -3 -3 -1
305 2 1.0216865784055214 4.19214498363502 6.303150564283599 -3 -3 -1
75 2 3.770131668684927 4.114129909316655 7.2907512172614215 2 2 3
238 1 4.294225341440213 0.40402294447056286 6.138896057604625 -1 -2 2
306 2 0.5666022525291812 2.858397462363099 6.9715492463592845 -3 -3 -1
124 1 2.472990356221909 0.33859714545673436 8.034200380458499 4 0 3
23 2 0.36613281332319286 0.6313134134570881 5.588852474711756 1 3 -2
435 2 6.9147371829713 4.282527005843886 4.786496482224039 0 -2 3
171 2 7.2536319131012945 0.9665892749420149 7.237267636170265 0 0 3
486 2 7.626842164656284 3.293395270501144 7.814783587967179 2 5 -1
484 1 7.87797550552996 4.253864565528553 7.869472092081582 2 5 -1
169 1 7.4453138050671726 1.6951039002693442 7.816282318777064 0 0 3
170 2 8.069521772790624 1.386100156973279 8.508225152272075 0 0 3
267 2 2.370594247693093 6.773844216885031 4.8790748670455075 -2 1 -2
334 1 1.369401379549857 5.492252582086444 5.09643368299605 -2 4 -1
73 1 3.7472490844463806 4.55963941384989 8.15184766294583 2 2 3
13 1 2.1262643272085016 6.706076774607455 8.302148301714947 4 5 -1
192 2 3.1437113001969172 7.7285214998544385 7.477017255074343 0 -2 -1
14 2 1.2753830803019117 6.496710641377602 7.920403726750423 4 5 -1
15 2 2.7111986010690416 5.869452050387053 8.248101653539413 4 5 -1
191 2 3.483385279416759 8.053541583295988 5.94654788331432 0 -2 -1
190 1 3.7782295271540534 8.263782031494408 6.946002372811396 0 -2 -1
433 1 7.757067559837484 4.556977125970125 5.1392332844771484 0 -2 3
420 2 5.188499807106264 5.139684691793986 9.042553178322695 1 3 -1
434 2 7.699398575184581 4.5342288172457295 6.121186677828152 0 -2 3
532 1 8.570686042999384 7.760550412120354 6.807667629126372 -1 1 0
31 1 6.251222877899589 7.988711676079183 7.748747563230622 -2 -2 0
485 2 7.20653142745529 4.627143361353433 8.464648467001298 2 5 -1
533 2 7.65256492095057 7.630318712522431 7.128901330464153 -1 1 0
534 2 8.451980128470668 7.525774134197788 5.849529232669422 -1 1 0
32 2 5.3440497466453225 8.106826451945944 7.32342783847134 -2 -2 0
419 2 5.964488332123174 6.500714379454101 8.702584341177054 1 3 -1
33 2 6.338871780177811 8.529652980388976 8.51974374694663 -2 -2 0
338 2 2.002609339137992 11.27039293038877 4.8593737015473915 1 0 -1
521 2 3.3211345481698626 11.053982472982879 8.442335363121066 -4 0 -2
408 2 0.4896432598929692 11.54502433565135 6.03576407082074 5 4 -3
339 2 2.8357876635947674 11.420611087969291 6.179215796033754 1 0 -1
522 2 3.832913693043234 9.815141372432125 7.374130543305666 -4 0 -2
520 1 3.699798424468902 10.845338677645334 7.515818164493502 -4 0 -2
337 1 2.220843167455257 11.873444153211295 5.592164322683495 1 0 -1
350 2 8.437527207979782 12.998891966372424 8.962396029440546 1 2 -1
423 2 8.602896333874732 10.32519843522836 6.152254512569661 -2 2 -1
351 2 8.81935565291995 11.693366226950511 8.348895295994454 1 2 -1
421 1 8.004663640535213 10.713826390566021 6.7566450954229555 -2 2 -1
87 2 5.082531063835371 11.959485803270589 7.87854905026193 3 5 2
422 2 7.3621991172965755 10.111816214909991 7.026800962860231 -2 2 -1
86 2 6.220112619651726 13.007327657416191 7.660261198232479 3 5 2
85 1 5.749138808384007 12.494089801677756 8.361048392445584 3 5 2
125 2 2.6614608520843115 16.696681512724265 8.15582042382726 4 -1 3
158 2 0.44046402082757796 15.549993088549565 6.572617420526707 -1 0 -1
239 2 4.1163879671971815 16.855910430942117 5.670040076344142 -1 -3 2
563 2 1.5809369587162319 13.6485784752661 5.590573680941004 2 0 -2
425 2 2.7389788044788204 15.148670750677063 4.939190855015009 0 -2 0
574 1 3.358620717467034 15.11254058503394 8.05862799873041 -2 1 1
576 2 3.1827008885763344 14.57138719818408 8.891891353918629 -2 1 1
575 2 2.9740837567778935 14.58996324921146 7.33163376893838 -2 1 1
562 1 1.2920530631059761 14.545457126291447 5.255832530894871 2 0 -2
567 2 5.126115380401212 15.458856413921819 8.162535911180868 0 3 1
405 2 7.419199391084701 15.725911944762728 6.210338164939565 -2 -5 -2
403 1 7.560474521514971 16.696260143563126 6.045921625481011 -2 -5 -2
404 2 7.2787182448730885 16.847016501038286 5.125759469891598 -2 -5 -2
173 2 6.426214923487007 13.59411290224861 5.539566719038435 2 -1 -1
172 1 6.93932164490278 13.877857485631568 6.317274203217918 2 -1 -1
566 2 5.904503488550361 16.63689920173968 7.647819365921026 0 3 1
270 2 7.380092877822166 15.373688742209264 8.86242375237744 -3 1 4
174 2 7.774497059940934 13.457621557405364 6.187327498104081 2 -1 -1
565 1 5.8461255939479235 16.050696955461472 8.386071606428409 0 3 1
269 2 8.885150789720212 15.35101442393952 8.5853996479413 -3 1 4
557 2 3.250166812783978 3.172810134439113 11.401391822572052 -5 1 0
225 2 1.737193325062472 2.471271763231336 9.608297413682505 2 1 -2
556 1 3.396670273381425 3.1609256453434615 12.347730922744951 -5 1 0
558 2 3.23340636277909 2.272449633589608 12.697075363939295 -5 1 0
223 1 2.7264715254377623 2.5755791982074028 9.78374079009925 2 1 -2
224 2 3.1057695675498014 1.7230790610997615 9.60895502363654 2 1 -2
375 2 4.427968465825415 0.09989089959116271 10.940497083463166 2 4 0
6 2 1.9014314365342961 3.7117570136706464 13.112372086912657 -1 0 5
9 2 5.027351843967093 3.747696371266485 12.760134197948462 5 -2 1
134 2 6.141750999485217 1.1956224782915226 11.409484300804976 1 -2 0
7 1 5.9051056014915755 4.057703487608866 13.0929722903144 5 -2 1
133 1 6.808736131502862 1.5590781865981578 12.046347405035752 1 -2 0
135 2 6.444228522580803 2.3257316619824593 12.51222391328586 1 -2 0
500 2 8.223487129462082 2.0745412485035684 10.891840395732167 0 0 -1
51 2 7.239151033628346 0.2562081500001977 12.942712755382031 2 2 -2
373 1 4.963236594054425 0.6060543953286179 10.356494486225678 2 4 0
321 2 1.458900421065684 6.987971759005498 11.986230520067343 4 2 -2
54 2 3.5942627471250512 7.863602477127018 11.788686086154787 -1 -3 0
84 2 2.2693283999123124 7.245687926928961 9.922468347176414 5 -1 -3
82 1 2.2312814586901935 7.717790078617866 10.79779720963542 5 -1 -3
320 2 0.9136446098838091 5.668373012349406 12.942424134316264 4 2 -2
319 1 0.664971391934734 6.514814161420874 12.470786085019126 4 2 -2
52 1 4.366815728865036 7.982892642763868 12.365177234206547 -1 -3 0
83 2 1.7700447145298863 8.586315905061133 10.699350553288959 5 -1 -3
8 2 6.178588103211906 4.826766967970567 12.521199507842057 5 -2 1
53 2 4.98759936157344 7.274092905327354 12.175517469963689 -1 -3 0
444 2 6.157600431427165 5.987123882281307 10.817782949753608 -2 0 3
442 1 6.355849417765495 6.191870474424767 11.719352504718579 -2 0 3
443 2 7.293476100499053 6.302827384583832 11.940890898110915 -2 0 3
418 1 6.001637774077461 5.655882425410543 9.21422588401665 1 3 -1
480 2 2.5083130365897013 10.908499007714777 10.26797324958048 0 0 -1
478 1 3.268147902102077 11.507006031760566 10.083178772618425 0 0 -1
479 2 4.100066183418166 11.186889760149827 10.523596582054209 0 0 -1
457 1 0.9122644788360084 10.24088508513266 10.440198016250454 0 -1 -1
63 2 4.298531446967565 12.777969488787226 12.69644026311531 3 -1 -1
246 2 2.9911309306092 12.922066294464983 10.41241879209987 2 -2 0
459 2 0.6015390437504637 10.51371211127272 11.363303191268773 0 -1 -1
572 2 8.27899342505368 9.565882670114096 10.605056026086345 -2 -1 1
554 2 4.71436076798816 9.546704902250063 12.005199119832888 0 2 1
553 1 5.020124020029472 10.44348780730373 11.763889384961736 0 2 1
302 2 6.176283547332898 10.122124877825927 10.352580886998417 2 -5 -1
301 1 6.893844821812056 10.063712863362635 9.691432483597527 2 -5 -1
555 2 5.676748834501583 10.811576461478252 12.37246530702163 0 2 1
471 2 5.632377552808879 13.036113692527827 10.126896984733195 2 0 -2
470 2 6.232905104983813 12.507398273867599 11.592469305014651 2 0 -2
386 2 8.115645509728854 11.792185907131925 12.798539341755477 -2 -2 0
303 2 7.0089177429233125 10.892887466755544 9.222104569630567 2 -5 -1
383 2 7.392100335458214 8.78934154237502 13.429353218258154 -1 3 -5
385 1 7.177320956668306 11.58649168110122 13.015097263916761 -2 -2 0
349 1 8.78664226878135 12.126038442286582 9.175956480520606 1 2 -1
233 2 0.6171543003342834 16.551628673107324 12.609211547864952 2 0 1
245 2 2.775972034187678 14.373914168720953 10.967869573565594 2 -2 0
244 1 2.6123914561404713 13.821458922057905 10.212792061733992 2 -2 0
182 2 1.0358811377661243 14.449996003163582 9.88188049481287 -2 -3 -2
492 2 4.190102953083698 15.509565359812655 12.658949376058448 0 -1 -2
490 1 4.036622388722586 15.639259704788856 11.701024604227413 0 -1 -2
468 2 8.58867112269974 14.920954525112492 10.670385213326474 -1 -1 -2
469 1 5.630541767876174 13.11152938908832 11.112242449436238 2 0 -2
374 2 5.24558443450659 17.243977657861098 9.664004155146966 2 3 0
491 2 4.729357435353876 14.991933623197509 11.401508677170872 0 -1 -2
50 2 7.95289838094905 16.10222313481647 12.503713572225664 2 1 -2
49 1 7.501609247594647 16.661761202088712 13.248566174450072 2 1 -2
466 1 8.908249378330066 15.200918028715044 11.550619217672685 -1 -1 -2
268 1 8.216745466337004 14.921745010855021 9.136260084638474 -3 1 4
346 1 1.7306475892856086 1.82256723935297 17.6306820249013 4 1 2
546 2 3.407814852001239 1.550607408408082 14.651720232766955 2 2 2
544 1 3.2082638571592126 0.8259905819091284 14.049280575866575 2 2 2
392 2 2.909523544954163 2.2783990570361237 16.524047496162453 2 1 -2
391 1 3.7078586666530864 2.6199681166732804 16.025189852081656 2 1 -2
393 2 3.655242168273447 3.5830441715068697 15.977523366394516 2 1 -2
4 1 1.3905479125732976 4.08102507786939 13.847120002359455 -1 0 5
545 2 3.948219739003611 0.19149095489683426 14.118532403487395 2 2 2
347 2 0.9950144014873805 2.4727177192172776 17.68355450207754 4 1 2
428 2 8.597768590482941 2.1261475250435358 16.27858255440089 0 -2 -1
280 1 5.462985831653281 0.9459781245758174 17.07264273991652 -1 -1 -1
429 2 8.28397881552075 0.5788306122852914 16.282941344949176 0 -2 -1
282 2 4.954411192334083 1.6721645948622157 16.617493145377182 -1 -1 -1
427 1 8.197827379097994 1.4296600886911404 16.733481782212472 0 -2 -1
281 2 6.341012127397805 1.3286927046060626 17.074656216944035 -1 -1 -1
310 1 0.5892486186775647 8.657184729838574 13.95973610899402 3 1 4
332 2 3.439337495387275 5.896583988610898 15.438605867514674 2 -3 0
5 2 2.0738187772666805 4.497596941786105 14.46654069787379 -1 0 5
331 1 2.8225974662644706 5.1363257534674975 15.635954726287785 2 -3 0
333 2 2.3967572113046174 5.267213716953269 16.52052197537376 2 -3 0
251 2 3.924954561595109 7.8121456876414905 15.689619888097308 0 -2 1
312 2 0.5727664830525361 7.7341269180895065 13.559612972486011 3 1 4
252 2 4.188948327244259 7.502079581200977 14.190534030051447 0 -2 1
250 1 4.350664598346957 7.178859170516463 15.069470405499771 0 -2 1
366 2 7.785905600784122 7.5483018038625715 17.55421520753649 2 -2 2
516 2 6.100339161556661 4.720466317939853 14.783917988372055 -1 0 0
35 2 6.8546874808943885 5.657583029031604 17.37870968224557 0 3 -5
514 1 6.1759675270881225 5.202175177600302 15.629172496085298 -1 0 0
113 2 8.207874819127507 5.7027945399107285 14.965249002200261 -6 0 -1
515 2 5.788590604023495 6.066677878090409 15.386913664546723 -1 0 0
365 2 7.796010822469501 8.498065107108317 16.252935769433492 2 -2 2
364 1 8.182776016542226 8.336419811005353 17.123455037715168 2 -2 2
540 2 0.5965957838474742 10.694767139854637 16.93812948079815 -3 -3 1
151 1 3.591263050952792 8.803522007672678 16.95445259722738 1 2 4
152 2 2.8336062156657333 9.4168795067235 16.95665605524112 1 2 4
61 1 4.016389975906789 12.624563360868192 13.608798972428293 3 -1 -1
201 2 1.806348780767576 9.803839412925692 14.200856705899831 1 -2 0
62 2 3.4517291467937827 11.81808627333785 13.692309507520328 3 -1 -1
199 1 2.4649079080509897 10.490859913386805 14.444618470867956 1 -2 0
538 1 1.5187909349247009 10.71711099993338 17.227695432078466 -3 -3 1
200 2 2.2903116276989195 10.659010587093237 15.372814256084716 1 -2 0
382 1 7.817297100907563 9.068030525760983 14.214993318281588 -1 3 -5
358 1 5.238536769135054 10.861674304839587 17.541216370665676 0 0 0
387 2 6.867117906882944 12.04939074264486 13.777732385413925 -2 -2 0
524 2 5.875731010808522 11.867201368050834 16.0543561152046 -2 7 1
384 2 7.774039409606025 10.045165727963482 14.141464571323029 -1 3 -5
525 2 5.280479529450375 12.702429637816952 14.917577403397354 -2 7 1
523 1 5.968735682007907 12.71201737211221 15.562347395841096 -2 7 1
359 2 4.893986621507511 9.94830026484826 17.31132328179717 0 0 0
497 2 0.8781762390030652 13.243821062252293 14.518651544043324 -3 -4 0
232 1 0.9428634683460642 16.44621709290978 13.55764774998144 2 0 1
234 2 1.4974630195344338 17.184256285886004 13.738058586908906 2 0 1
102 2 3.465864425652787 15.223067468256927 17.208949621188975 -2 -2 1
313 1 2.3117213084280186 14.384942520064861 14.868120112336888 -2 -3 1
100 1 2.5471406674469557 14.90740581604165 17.409907838058338 -2 -2 1
315 2 3.0859339275221527 13.935597348373863 14.463956362230599 -2 -3 1
314 2 1.9288144918955685 15.138323740238109 14.40323590662084 -2 -3 1
101 2 2.4021882632390916 14.633255146656802 16.441242331312655 -2 -2 1
327 2 7.149741862553384 13.908073309858901 16.297089888582516 -1 0 1
397 1 5.065952277594087 16.00443723436382 14.374618178197839 5 3 -1
326 2 8.18694131777007 15.019886040624309 16.566240856335526 -1 0 1
399 2 5.234869150505319 15.77292555707539 15.317310464379558 5 3 -1
560 2 8.384424841111123 16.394302564932815 14.618742304305272 -5 0 2
325 1 8.045136301606457 14.086998692181142 16.644471762153447 -1 0 1
528 2 5.3285058369782625 16.59075126783327 17.174124745024507 -5 0 -2
398 2 5.93604564677554 16.111726797926647 13.88280952036824 5 3 -1
559 1 8.84608594656061 16.47657790141347 15.487403327792006 -5 0 2
526 1 5.097369720584795 15.625772837461342 17.111876871543153 -5 0 -2
140 2 11.20024505078268 3.836785944272497 4.460034742687982 -1 2 -1
299 2 9.772479409948145 0.739738493438157 2.3266156500886543 1 1 -1
141 2 11.284670648352733 3.823808503189657 2.900190013138385 -1 2 -1
139 1 11.758039299912003 4.0911014144684215 3.7126409875629176 -1 2 -1
18 2 10.839338857387851 0.25004633148377675 4.216765056395995 -1 4 3
16 1 11.200795032733279 0.26588946800119373 3.2663863455940207 -1 4 3
68 2 12.09703363333431 1.9245368212341825 1.5014775262298774 -2 -1 -1
178 1 10.696620299587005 3.625845651918781 1.343230191562469 1 2 0
179 2 9.745750267232209 3.6137019270031217 1.6835912576961087 1 2 0
67 1 13.054342856803274 1.781831464842422 1.5646545340806517 -2 -1 -1
69 2 13.1213747453757 1.0169599198571544 2.1423069850610434 -2 -1 -1
216 2 15.926476008357563 1.5264356331478637 2.9172580386103677 4 2 -2
214 1 16.651475346186245 2.1699358497465875 2.9730061339116753 4 2 -2
430 1 14.802085302671049 0.2734849730047234 3.180262016338513 1 3 1
189 2 14.180575982558207 3.2326112678122336 1.9563735078315099 -4 2 0
187 1 14.525822166883552 4.112354559287866 1.7063103261831372 -4 2 0
71 2 16.068951065232213 3.7485002109823085 0.7915515479737095 0 -1 -1
215 2 16.25727216640717 2.7508392070529486 3.6694694647680426 4 2 -2
24 2 17.519004669449195 1.3725433773801576 4.23246351571186 0 3 -2
361 1 10.399372954401992 6.687308757474755 2.0046640288546493 1 2 -1
363 2 10.458520124539959 5.758694065351984 2.1250769477611926 1 2 -1
380 2 13.061260430240464 5.3083020757764645 3.7365065029922047 1 2 -1
529 1 13.092292549436344 8.024523375150943 1.8420675446478711 2 -7 0
362 2 11.314011157078587 7.018463395123809 2.15478560907488 1 2 -1
137 2 11.36975073610192 7.821648184442797 4.535123684181586 4 1 5
531 2 13.313714572303835 8.105568451084386 0.861433456502718 2 -7 0
381 2 13.464963278122486 6.603419869065424 2.907472712938948 1 2 -1
379 1 13.824267611491672 5.799247214861572 3.44742236916391 1 2 -1
188 2 14.323852750317222 4.7962468823516335 2.38041175096987 -4 2 0
184 1 16.742590431575206 6.837423871100328 3.9204803703204822 2 -1 1
186 2 15.801801045488896 6.588998402827912 3.9904317334646056 2 -1 1
185 2 16.933407139230866 7.15875161378191 3.040557528972087 2 -1 1
437 2 11.369418062866607 10.873216630276062 1.340741814445416 4 1 -1
436 1 11.689719722296672 11.111572575443724 2.280118849077187 4 1 -1
438 2 11.216509484612683 11.972902056840818 2.4256928067860066 4 1 -1
38 2 11.217767458793901 9.62075411568705 3.2885510521727275 1 -1 -1
37 1 10.778309917232598 9.251490050694967 4.100677616528572 1 -1 -1
530 2 13.416544356718383 8.813407683225812 2.399385607612749 2 -7 0
447 2 13.340528985615197 10.837498499622827 2.5743728135895796 1 0 1
445 1 14.000388708480335 10.401095755056348 3.149677631087899 1 0 1
446 2 14.886617713249057 10.258082097307431 2.7220162783658095 1 0 1
46 1 16.493460392625842 10.492149016248398 2.4226989540304604 -7 1 -5
48 2 16.67835948282815 10.332959315868658 1.5008233875056294 -7 1 -5
536 2 16.625557728969394 13.06800309824366 3.4454994232632083 -1 -2 -2
47 2 17.324889289009434 10.299544378918188 2.9090983421782814 -7 1 -5
198 2 14.60915934198735 11.980063060894425 4.267500162854742 -2 3 1
94 1 10.283613934391573 13.461158272703784 2.942660751933353 1 -1 4
17 2 11.461857363785589 16.670356729282013 3.1031742465558283 -1 3 3
108 2 11.310648344325072 14.630249531438297 2.5248974331602856 -4 -5 -2
106 1 11.98494544305484 15.315128008469276 2.522379433838372 -4 -5 -2
96 2 9.940685198668515 13.543422625541575 3.8321212949336667 1 -1 4
65 2 12.776783265556876 15.881369016262134 1.1516519475776228 -3 3 -1
95 2 9.472607655242905 13.368164275469205 2.4274652792634477 1 -1 4
107 2 12.713284161034583 15.087129988792878 3.1716345628266613 -4 -5 -2
431 2 14.383648100191824 17.13011244230673 3.909598695699736 1 2 1
432 2 15.143295994334041 16.81598784227755 2.6448494521569623 1 2 1
150 2 15.43682296237081 15.234588776985891 0.8560572763811781 5 -5 1
149 2 16.25253814919758 14.954034541266987 2.2598191010300703 5 -5 1
148 1 15.884832631741569 15.667665608724382 1.666399523988362 5 -5 1
535 1 17.145096285887522 13.868541779779251 3.1984977456834685 -1 -2 -2
316 1 13.884300574666801 14.824418029876375 4.063103242054249 2 1 1
318 2 14.094541958991183 13.939321620900088 4.55480674786383 2 1 1
389 2 17.235669354908236 16.21844420433521 1.2036931101251918 2 0 2
317 2 13.632909097210549 15.511639284463973 4.7298737568386935 2 1 1
356 2 12.293521384598753 2.2152533907955223 5.087287337071885 0 3 2
340 1 10.099868745451376 3.023542811565629 5.634123165800951 3 -3 -4
342 2 10.291884998194027 2.0567258262882335 5.892819686907815 3 -3 -4
357 2 12.54957711710532 2.456983878889092 6.623129308279021 0 3 2
367 1 10.16047052859044 0.36209121145264006 5.965249662687795 0 -3 3
454 1 12.56029770040758 3.854547694645972 7.662919176487774 5 1 -4
355 1 12.716401365787773 1.8394226767637827 5.894798911359229 0 3 2
368 2 10.530256708621373 0.273611239945845 6.871300121622662 0 -3 3
455 2 13.234353905428009 4.416470425741741 7.222496801635255 5 1 -4
341 2 9.126147613822313 3.0441256331607742 5.552958375412426 3 -3 -4
25 1 16.508251307509294 1.8003463811053626 7.634665045752872 -1 -1 -1
26 2 16.02881641952959 0.960845684678026 7.866979871184381 -1 -1 -1
27 2 16.83492517508197 2.1359319739087237 8.505850735781284 -1 -1 -1
551 2 14.481981332431726 2.842243459763574 5.238815006631186 1 -3 -1
552 2 15.589222735515824 2.897138979640276 6.1899557482248495 1 -3 -1
550 1 15.315344174585103 3.2950887862564575 5.32380356471116 1 -3 -1
456 2 11.8084436388112 4.48011601899658 7.715440831386711 5 1 -4
136 1 11.973527204310505 7.17297166050347 5.119684912284459 4 1 5
93 2 10.112919788204403 4.755435164127532 6.3489910381988235 1 2 2
91 1 10.517661432885825 5.483828048190331 6.740845465413756 1 2 2
138 2 11.350719712765477 6.686902296560962 5.686966024351285 4 1 5
92 2 9.714524592176982 6.0519329351737445 7.003060213001626 1 2 2
109 1 12.95692394877534 7.52134999914073 8.870808350560717 -4 -2 2
30 2 9.917161037981579 8.478550541672012 7.832849838483328 -4 0 2
29 2 11.387050162876413 8.37059732865371 8.52376865623405 -4 0 2
168 2 13.00418528131437 8.433091934696044 5.594668852020949 0 -1 0
110 2 13.315626669778558 7.217756237125628 8.03740795685479 -4 -2 2
465 2 13.665804305935158 5.962329309094577 5.716165881589117 2 2 2
463 1 14.288545225591264 5.648772435905534 6.375457889299396 2 2 2
231 2 16.39482080379633 8.065682808631538 5.49988318590103 0 0 -4
464 2 14.652411388681848 4.8880575146170155 5.8609750872456265 2 2 2
249 2 15.982394890623121 6.320874597049141 7.68829329740766 0 -9 -1
247 1 16.48304443988448 7.00953388685379 8.17801502451331 0 -9 -1
248 2 16.39191062607933 7.73420420551944 7.497617756576559 0 -9 -1
542 2 13.27538942447322 9.29651314852389 8.903541133583763 -5 -4 -1
28 1 10.588673739656441 8.969568000428783 8.415652479078938 -4 0 2
39 2 10.861348972527116 9.87989002106975 4.79767277188006 1 -1 -1
228 2 11.824300829644752 11.10709877659455 6.352440594994492 -3 0 2
226 1 10.892281078208411 10.841481012018262 6.34470721840891 -3 0 2
227 2 10.768274781654362 10.23564121280532 7.083446385756454 -3 0 2
354 2 9.850584418399343 12.427238204676536 5.725032198989684 -1 1 0
472 1 13.09804428102171 11.940439812921312 7.108336490168682 0 1 0
474 2 12.728079099113398 12.837242961746943 7.3098437184572695 0 1 0
541 1 13.588713719855136 10.170607402810377 9.042902413972923 -5 -4 -1
166 1 13.518530928680336 9.308277551855939 5.816323084132836 0 -1 0
229 1 16.15828109562664 8.775511298663778 6.0980906685575516 0 0 -4
167 2 13.50564565378548 9.867569202996664 5.051456468534031 0 -1 0
285 2 15.280468386974043 10.218706871260425 8.894458297559204 -5 4 3
230 2 15.164921881805496 8.848836219771329 5.97743980264827 0 0 -4
473 2 13.753949544418399 12.033096622784743 6.3702493635770505 0 1 0
283 1 16.194057319926074 10.570326631220208 8.901444538820083 -5 4 3
407 2 16.686153798505263 10.338434869774673 6.017725643618349 4 4 -3
196 1 14.922114162248315 12.547596686301564 5.004220868378386 -2 3 1
284 2 16.518166736321355 10.458121151175051 8.002699695393632 -5 4 3
197 2 15.740012871361053 12.118698323943564 5.4147057822170686 -2 3 1
406 1 16.869967919297235 11.295406978533057 6.087048099688082 4 4 -3
543 2 13.408332522044539 10.7685649361225 8.26184861041421 -5 -4 -1
155 2 12.853778857421696 17.34972831982716 5.684730045896684 0 1 1
369 2 9.23554105974155 17.349230296843658 6.004753675967955 0 -4 3
154 1 13.215198020320052 16.48700630291133 5.982970947630549 0 1 1
353 2 10.210118383249005 13.832945068847177 6.197430318764611 -1 1 0
263 2 12.520463315988701 14.520157782849772 8.056438017085101 -3 -1 -1
262 1 11.886068808794485 14.451790331505217 7.302142907601013 -3 -1 -1
143 2 11.045777598628725 15.726776607456557 7.93089704959893 0 -1 2
142 1 10.534040329295717 16.487983719577475 8.377156362787284 0 -1 2
264 2 12.319844777001743 14.907517434746575 6.562779948225586 -3 -1 -1
352 1 9.59120209424146 13.379430346566517 5.579482666420191 -1 1 0
195 2 15.865242590970897 16.358734816670456 7.486236365428975 2 -2 2
157 1 17.455247784077102 16.183995268872387 7.226866364659569 -2 0 -1
156 2 13.88348252654948 16.709627665833505 6.704728963788693 0 1 1
193 1 15.064512888194994 16.823760138269236 7.8619182154967495 2 -2 2
194 2 14.661560945603142 16.301298854329826 8.573068088027075 2 -2 2
159 2 17.583085191160272 15.74565463964197 8.06202766468797 -2 0 -1
569 2 10.67885945697614 2.269630791079202 12.30294915760983 2 -3 -2
568 1 11.266439940274433 3.0999071254694504 12.145009436761885 2 -3 -2
570 2 11.541179014020544 3.4499381244994494 13.036285470022317 2 -3 -2
218 2 12.34056054643209 2.698902613061278 10.779879917238615 -1 2 -1
501 2 9.30490202986107 1.055900446959235 11.048041002886679 0 0 -1
488 2 9.71524134955649 3.671222312763875 10.320137726800418 -1 3 1
294 2 13.023620704629451 0.8476068910491334 10.421838775203064 -1 2 -7
217 1 12.8437693101746 2.4012223974069973 9.980637466315878 -1 2 -1
254 2 10.813638506046347 0.424168479641438 13.1833125730963 0 -3 -2
219 2 12.57071512244626 2.917740696550042 9.216710030962112 -1 2 -1
253 1 10.536313210359367 0.18116527631355367 12.170413296632669 0 -3 -2
499 1 9.108757509168733 1.8919586784785305 10.532769812919371 0 0 -1
489 2 9.22003083662945 4.403291160635694 9.121235346242615 -1 3 1
549 2 14.997863005794219 3.351816865331003 12.607728608389614 -1 0 -4
274 1 15.245858176062615 3.879104099567195 11.123508801998907 -2 -1 2