LAMMPS data file via write_data, version 8 Apr 2021, timestep = 0

768 atoms
2 atom types

-1.3891243496752523 31.332471293129444 xlo xhi
0 14.165762315736632 ylo yhi
0 13.548839280959623 zlo zhi
5.104882336579266 5.064052422637668 3.557309635764332 xy xz yz

Masses

1 16
2 2

Atoms # atomic

161 2 15.979402162668457 3.367366212910074 10.920655643586532 0 0 0
11 2 5.384669621786076 6.448083995237404 7.783049800368234 0 1 0
295 1 5.489497036140351 8.048124548984523 6.978852311186736 0 1 -1
297 2 4.543229907079571 8.35615021780667 6.894270243478837 0 1 -1
164 2 15.800507713583404 9.166386327596443 4.697490248733987 0 0 0
220 1 4.947389641521038 4.273866064298712 4.107217479309735 0 -1 0
371 2 10.182724254862524 15.666992240445026 6.407524051418633 0 0 1
31 1 10.65232509028701 7.591070676045974 12.889475600117258 0 0 1
352 1 8.740954155326621 4.348119371583381 2.7515978321907912 0 0 1
150 2 11.392680437051935 5.900598823496569 1.522111585433095 0 0 1
298 1 14.462697447051095 9.079993082440177 7.261185696821894 0 1 0
237 2 14.532383803649802 8.343322076987569 1.9418121972161906 0 0 0
60 2 8.720401377680782 3.7703355397272706 7.455590931920284 0 1 0
148 1 10.413586557575478 5.915062989380688 1.6158119356028082 0 0 1
100 1 6.741587622003418 5.777960770147769 12.922162619546068 0 0 0
105 2 11.417912812327286 5.265085767785905 5.70124088364556 0 0 -1
39 2 18.41242405687344 7.523806829333403 6.487339082078626 0 0 0
106 1 11.468018583660427 11.590784050024748 11.457262566146966 0 1 -1
162 2 17.455754251403217 3.3775584763940785 11.59308012250409 0 0 0
247 1 5.076967410706283 11.121778195569208 5.803696721952267 0 0 0
58 1 9.425739251295951 3.58899362871014 8.00942878973656 0 1 0
59 2 9.725784372458826 2.7313606099970564 7.66440013872595 0 1 0
149 2 10.136633654863314 6.817889681203622 1.3513760896954543 0 0 1
50 2 9.70058311497107 8.918167242043605 0.04337110198107143 0 0 -1
127 1 5.352513298781422 1.5355327749995038 2.726967379639945 0 1 -1
2 2 3.99583868495923 11.067561647496769 0.9609441099819706 0 0 -1
369 2 5.224288343549768 5.908901960603245 9.972486050577716 0 1 -1
218 2 9.199792426156755 7.880632857318005 12.747230068584319 0 0 -1
351 2 12.141000157000775 7.685696229112664 2.6800188450732634 0 0 0
25 1 -0.2352251403749308 1.4132144347299793 1.547622706477302 0 0 0
27 2 0.3803818893593627 1.7409578205601592 0.8780913912345888 0 0 0
123 2 1.774529837372689 2.0651502741433623 3.4548015953392683 0 1 -1
353 2 9.008681019430206 3.415406473820563 3.0229731524555437 0 0 1
95 2 13.635530326001321 8.277232256375612 4.2448375298053245 0 0 0
61 1 9.216314511909157 1.6493588063414726 3.501079676810375 0 0 0
315 2 3.535558093583079 6.946564845780428 3.450602231088439 0 0 0
74 2 9.32014939441436 16.861765347292135 13.434217283653512 0 -1 -1
324 2 5.915910876374793 12.307210505948445 3.244219594861369 0 0 -1
65 2 13.19230365944246 5.489424216567377 8.41229523356456 0 0 0
233 2 15.9670409025149 3.4504821974045874 6.979728202760047 0 0 0
465 2 18.242774473434284 8.663934584529999 1.213122470546605 0 0 0
257 2 16.855648112385595 6.809077646558464 7.693648544776275 0 0 0
38 2 17.853474112548458 8.678439814013872 5.614861017324814 0 0 0
94 1 14.476558280103012 8.054680267679728 4.7539094087996405 0 0 0
248 2 5.883188603017188 10.71942142297555 5.396364924978755 0 0 0
128 2 5.218214443422207 2.4373475296980103 3.080261181997157 0 1 -1
372 2 10.973463606071405 15.497679570322228 7.616802882505826 0 0 1
274 1 6.290080503189855 5.527871904790616 1.6979986863815428 0 0 1
140 2 8.38735115317971 5.264686056657046 4.011242893735719 0 -1 1
219 2 8.08413716383402 8.692981951559647 12.119235272908709 0 0 -1
63 2 9.9677334796473 1.1701127219169176 3.907972987970053 0 0 0
129 2 5.446596705331902 1.6785311075952434 1.7938346123469566 0 1 -1
222 2 3.965135101865271 4.3496581886219134 4.3077868264633326 0 -1 0
64 1 14.081502402034223 5.6117216639437855 8.072602071269445 0 0 0
111 2 8.54807940856324 1.46930214190619 1.8494383360595321 0 0 1
13 1 14.956136711174317 5.468735994288136 4.060081322618944 0 0 0
62 2 8.413039026002755 1.2132108986931955 3.8595413335333633 0 0 0
332 2 13.560989454907721 6.0733838965130005 1.2727049897178393 0 0 0
275 2 7.004172829567559 4.9894428548912355 1.961910194063408 0 0 1
250 1 13.290112438200007 16.446017380089543 10.186587401047156 0 0 0
249 2 4.327345056030974 10.47458806568647 6.068355764481035 0 0 0
185 2 19.47178248763499 6.1395674977537 11.876418406356345 0 0 0
349 1 12.129801988117928 8.268245321607035 3.437630616329218 0 0 0
81 2 9.085347442591871 10.825598384423468 13.521848706003174 0 0 -2
85 1 10.929757226611489 7.523946458312569 10.073651016601067 0 -1 0
302 2 11.730254591912704 4.229405736281778 9.488637841920747 0 0 -1
301 1 11.53427431476342 5.057182761285399 9.04479645451938 0 0 -1
103 1 11.76620142707519 4.350950006415455 5.666631457455332 0 0 -1
6 2 12.517993534433693 3.377373401960803 2.378735522124782 0 -1 0
303 2 10.715953523550652 4.806679198166447 8.508626101907415 0 0 -1
305 2 15.226876116973742 8.128266968944452 8.540733137533428 0 0 0
239 2 17.69984072838263 9.480691421334503 8.626847559777326 0 0 0
467 2 20.512927505155115 10.19101485718803 7.607595766756816 0 0 0
333 2 13.168230081514285 6.720866332395702 0.011499075807597701 0 0 0
346 1 11.528210059703499 14.658019840175541 9.200058750571392 0 0 0
110 2 9.159676373562466 2.2157712677593757 0.6927002108821052 0 0 1
331 1 12.997347066779415 6.779912423244289 0.951920081700777 0 0 0
9 2 13.138179057227164 17.30012697567474 13.406894413284448 0 -1 -1
4 1 12.65774417149697 4.243917270635178 2.855448909402939 0 -1 0
8 2 7.350955452330894 4.248089144210246 12.433634299672752 0 0 -1
5 2 12.135457726689818 4.114004211794902 3.69715793036657 0 -1 0
7 1 12.664894650491345 17.409775782387996 12.52331648205989 0 -1 -1
377 2 17.36273221025536 8.45975525856237 11.628730295734528 0 0 0
112 1 14.50957170670118 7.565298884650379 13.03559604944157 0 0 0
304 1 15.681573963696316 7.3703891729290545 8.974518107481083 0 0 0
217 1 8.235102906934994 8.143498091728848 12.887788123507024 0 0 -1
350 2 11.777256199969973 9.137696747270612 3.1681252114295733 0 0 0
113 2 15.308090247944406 7.160244338692308 12.610336337818715 0 0 0
376 1 17.603030611927384 9.340180733626577 11.770047660653153 0 0 0
114 2 9.865422172790016 4.515894539414431 0.201077036420762 0 0 1
66 2 14.600369926579203 4.79888557601775 7.9850905941612345 0 0 0
14 2 14.83273328100092 6.360819836431346 4.390521382421876 0 0 0
296 2 5.6533689665322395 8.029159523449593 6.0169413104189315 0 1 -1
367 1 4.8750757715061335 6.1106720748817684 10.850632817402255 0 1 -1
280 1 19.79959117218495 8.705454327318046 9.327831277881815 0 0 0
109 1 8.747088813952688 1.3516905734732187 0.8829988130737915 0 0 1
87 2 11.225924182461043 6.635771517533767 9.925761420116215 0 -1 0
184 1 18.7327048526473 6.408163715707701 12.472642128955671 0 0 0
277 1 17.178946846586975 6.470605921720544 2.55826655837426 0 0 0
204 2 1.978605380134599 5.3494561766690305 4.521905522464304 0 1 0
15 2 14.18648409969104 5.033749082186434 3.6805807029991855 0 0 0
299 2 13.615660328248413 9.5479360943113 7.2953305550586425 0 1 0
107 2 11.928333568099342 10.783870151481318 11.178473015817595 0 1 -1
160 1 16.904642579857594 3.799679431684659 10.92590134046516 0 0 0
17 2 16.63949858837496 5.365311863827488 11.185196747317601 0 0 0
37 1 18.738706453076038 8.241771367038405 5.880658194487121 0 0 0
18 2 16.138303492436187 6.760387272802638 10.56489448032852 0 0 0
231 2 12.999429346048691 1.854813230334851 0.5745958458310672 0 0 0
104 2 12.118759147925504 4.309996335618477 6.57564163043326 0 0 -1
205 1 15.367504307451963 2.576753080059276 2.5357700683060562 0 0 0
210 2 17.977549768177752 4.010974075831952 9.73594710448604 0 0 0
186 2 17.910010207857518 6.35540878015004 11.97950733279621 0 0 0
232 1 15.516893493463645 3.257893182701944 7.850253194044494 0 0 0
354 2 9.512082707287405 4.816152248662959 2.430647417767509 0 0 1
167 2 18.854265348336092 10.412574699201882 11.313388829973423 0 0 0
183 2 16.940775694843488 5.01108440018594 6.052965986907787 0 0 0
40 1 21.54429038127247 10.022383692386457 12.81853760378175 0 0 0
207 2 15.564321541328933 3.4266634260890347 2.12247519208525 0 0 0
208 1 18.64787823143073 4.197166973925405 9.019389628774366 0 0 0
279 2 16.90997673747384 7.287851263358585 2.0989713155713425 0 0 0
254 2 15.620854748376317 5.204378083409568 0.32414481374376986 0 0 0
181 1 16.66222461710328 4.196316049603801 5.635442290535415 0 0 0
182 2 15.867132456004441 4.437261092954241 5.143407917912264 0 0 0
256 1 17.66193049773758 6.36192340675398 7.2987913849264245 0 0 0
255 2 14.433857097976524 4.230400141951087 0.16087307395751538 0 0 0
253 1 14.95001934928014 4.741130950573211 0.852667356259899 0 0 0
157 1 13.853011971269396 2.3831023743216697 5.102198275226129 0 0 0
325 1 5.496836421109865 12.634415628583396 8.031889436241235 0 0 -1
278 2 16.328131271808655 6.223559405369993 2.974996584054243 0 0 0
159 2 14.112746657922834 2.550136681319106 4.1795842550277635 0 0 0
16 1 16.520765591033054 6.36737492018945 11.337461801236019 0 0 0
258 2 17.957702979813863 5.765777412534225 8.005898247859289 0 0 0
370 1 11.080532174021984 15.84466167496989 6.751541963819362 0 0 1
80 2 3.3749614474773724 5.958914158073014 0.27197208476997026 0 0 -1
306 2 15.02159820528508 6.6772244178320115 8.736165488001888 0 0 0
79 1 3.3395765424131056 6.872443807157899 0.5879425538506322 0 0 -1
246 2 11.108317624196642 7.202114595632828 4.578392715651077 0 0 0
108 2 11.907319265965592 12.244436182935168 10.895167813500818 0 1 -1
300 2 15.13786339141991 9.810460559039141 7.2011059020384645 0 1 0
221 2 5.437689043495447 4.184140483707622 4.96674488083784 0 -1 0
348 2 12.175321226175727 15.281947603289128 9.665896870317148 0 0 0
251 2 7.967221344484302 2.90374005303045 10.941354558506394 0 1 0
139 1 8.163197719046256 5.96567319666068 4.664593526423167 0 -1 1
276 2 5.591822837358645 5.323057206815675 2.3290631431267705 0 0 1
313 1 3.9509221780549915 7.670086941793374 2.947889159142108 0 0 0
252 2 8.50462555498616 2.798114170098942 9.4532978388147 0 1 0
282 2 20.100803516817432 7.968541537322379 8.668735164217715 0 0 0
195 2 16.61267713210248 15.717028453416082 7.672144055351132 0 -1 0
229 1 12.580182871874737 1.6880442789094927 1.4618596879334473 0 0 0
194 2 16.047035015495293 15.307867063833413 6.2852403074702865 0 -1 0
193 1 15.806862574684345 15.449340085022142 7.205163881166235 0 -1 0
141 2 7.7220078317170495 5.536517445082095 5.406301728474395 0 -1 1
234 2 14.756277305060173 2.6144729264990243 7.750338242517201 0 0 0
96 2 14.346321827349675 8.31894125536283 5.723770847843266 0 0 0
34 1 6.176058315403612 1.5369042787323635 0.024820130308433917 0 1 1
380 2 16.912690880220214 14.027662146220724 4.317401909224444 0 0 0
158 2 13.272303301274972 3.0771617192241854 5.46543128982911 0 0 0
173 2 5.794337964321329 9.439543393315171 7.958192392107884 0 -1 1
35 2 7.021941585475035 1.2996028425026382 0.4569288651421163 0 1 1
267 2 6.41018091016568 3.2586215807611687 6.587742137307062 0 0 0
266 2 6.1365514091772075 4.755953403691694 7.140125690016345 0 0 0
12 2 4.248460240149739 5.498219121466193 8.099978600409235 0 1 0
86 2 10.76806548831705 7.647478217144865 11.031023462093604 0 -1 0
226 1 13.307271139439607 12.077246929933777 4.861792697378878 0 0 1
77 2 12.326044632377915 11.13410143715963 7.690928573017431 0 0 0
227 2 12.674029002275276 11.434678166180145 5.190593478681143 0 0 1
82 1 9.072228081084212 14.444989763364536 10.403139905595205 0 -1 -1
166 1 19.49332349931961 11.144967194146988 11.463363312138378 0 0 0
228 2 12.795193712091828 12.811499034929703 4.55524576140644 0 0 1
330 2 9.51691724265428 10.492187274857256 7.200274342970189 0 0 1
225 2 10.57073742680634 13.079781195875832 4.72629340973689 0 0 0
178 1 8.116884728032058 9.472040441467954 10.346841742007928 0 -1 1
120 2 18.317908750991315 13.835418338507251 13.3069830096144 0 0 0
176 2 10.680324228593516 15.032814858422748 12.944205192041991 0 -1 -1
294 2 8.288718946723055 11.10465367602548 11.07237748633528 0 0 1
270 2 8.341632723633571 13.485277817950113 9.140595499050464 0 0 -1
118 1 18.328161190452295 12.905461331323593 13.054420684091918 0 0 0
322 1 6.695613581494244 11.972692533503613 2.7544890252541965 0 0 -1
238 1 17.198402321002433 10.238641092033099 8.376875132336114 0 0 0
44 2 16.004104348836638 1.6362152908012373 5.636645405422264 0 1 0
196 1 12.830839100721267 11.813074619088681 0.774479847386466 0 -1 0
83 2 9.468610418633599 15.104979308401052 11.067765943780936 0 -1 -1
290 2 11.55956802728225 11.19181662590017 13.347496207769463 0 0 -1
334 1 15.180317044091172 13.210529671120907 8.525399548232668 0 0 0
285 2 19.272059868480643 14.00645518190923 1.6351255827961173 0 0 0
172 1 5.918413744999032 10.059942267933113 8.74299851267298 0 -1 1
147 2 6.109282283985248 10.862878139140852 1.3843465120062057 0 -1 2
364 1 6.338849572494587 8.087186075162613 4.3190112838496395 0 0 1
320 2 7.970916673503004 14.759815472997522 5.162001028138783 0 0 0
344 2 13.73951927459598 12.490599100264117 8.881230616295746 0 0 0
288 2 22.2767541095962 14.578514586198766 8.534463225795111 0 0 0
244 1 10.7130188939889 7.00567012819228 5.424935392303376 0 0 0
10 1 5.201184252179339 5.543229758657826 8.196853744398148 0 1 0
317 2 0.9180215617840826 3.944105528235939 2.7599725997785916 0 0 0
56 2 9.877057372246739 13.056769564746403 0.8390327770325127 0 0 0
168 2 19.00025086438815 11.91750738745554 11.94793143749478 0 0 0
245 2 9.840888514485158 6.581900345280075 5.293045846350274 0 0 0
145 1 5.514480627007047 10.43480188200785 0.7802356356552965 0 -1 2
57 2 11.349031405276472 12.893467864454447 0.36085699549223405 0 0 0
328 1 9.025677015739896 11.096631754638137 6.70916552684238 0 0 1
199 1 7.317600261448207 10.398255865866886 4.623431744838363 0 0 1
28 1 10.95150868963339 10.544974353453462 2.3238100118777534 0 0 1
336 2 15.029374568411338 14.090501527423182 8.138189020024969 0 0 0
366 2 6.801121240072956 7.279127109944318 4.124761711176964 0 0 1
287 2 21.53960164773648 15.934294723351368 8.639050045862353 0 0 0
224 2 10.022188585120446 11.93525261342668 5.461329849104418 0 0 0
55 1 15.512761040308053 16.594129689104165 13.546045341961673 0 0 -1
216 2 20.66204679278109 12.350146956713294 8.716622816289856 0 0 0
329 2 8.679667236521938 11.674219612373454 7.428189652165507 0 0 1
33 2 10.836661804276678 6.616261117426906 12.941447456946182 0 0 1
312 2 18.063054008396925 16.319435940884944 8.996229076039848 0 0 0
335 2 15.935178831286539 13.304243380152249 9.04991412437173 0 0 0
97 1 12.166811411958168 14.628703934300464 4.55585419619443 0 -2 0
268 1 8.061117998629738 13.138917870330147 8.299595000513557 0 0 -1
98 2 11.562074578228028 15.015513474108886 3.8688342693666966 0 -2 0
310 1 18.319596659416618 16.133910559557666 8.060229199484882 0 0 0
273 2 15.1737575702406 15.85799478992427 12.015212680890244 0 -1 0
197 2 13.603432564614657 11.996001506194025 1.3171389950218126 0 -1 0
101 2 6.13144797199973 5.962386373864534 12.204373013186663 0 0 0
345 2 12.300203314564246 13.018628405530736 8.926484148992095 0 0 0
319 1 8.538638278514311 14.706509003262152 5.953973636789584 0 0 0
272 2 14.716425869845136 15.350168121084891 10.722125367958421 0 -1 0
264 2 19.340336213942134 12.906524532390423 6.947190627575321 0 0 0
142 1 15.724788662880169 12.648106262054744 12.320808463462974 0 0 0
263 2 20.39337770774519 14.103569966071612 7.08784807775311 0 0 0
121 1 1.902746027993406 1.1270625061875559 3.688972005643462 0 1 -1
269 2 7.062569938250443 13.14018965725129 8.275451758221674 0 0 -1
102 2 7.198946911653519 6.617435917400054 13.183204416866182 0 0 0
215 2 20.226674880082022 11.42494450383655 9.818443960828485 0 0 0
271 1 15.383388424203698 15.155699356210969 11.431889828612597 0 -1 0
262 1 19.725860750277896 13.569480876541505 7.600219664740458 0 0 0
132 2 10.57734511043579 8.226389276362873 8.382491198211756 0 0 1
192 2 21.78612279506526 13.741810074154209 12.864006162910536 0 0 0
214 1 20.86257643063779 11.469179168638435 9.02224629916883 0 0 0
240 2 17.61946824427703 10.596449480483537 7.601661046719895 0 0 0
321 2 8.209638812287206 14.07780474277712 6.644947362458355 0 0 0
343 1 12.81461956253507 12.239959263972427 9.073032007214685 0 0 0
153 2 7.98696537388948 13.090871233450017 2.1785211831172573 0 -1 0
374 2 3.0374659434902247 9.26076190244361 3.360035334292979 0 1 0
291 2 6.350763008151486 7.07558704365561 1.173839534138701 0 0 0
281 2 20.426493852832596 8.706547568509771 10.082532457811514 0 0 0
51 2 8.411116984661966 8.88316455022194 0.9507205296747955 0 0 -1
200 2 7.842755972445484 10.476229212527203 5.453400122882533 0 0 1
88 1 15.63266035426902 10.470001156461477 10.518124206423252 0 0 0
198 2 12.161955971046718 11.292463635885378 1.3017228534871308 0 -1 0
84 2 8.95951862514705 13.639577893813264 10.935744683857669 0 -1 -1
152 2 8.78905110185352 14.425656107527852 2.329027406457665 0 -1 0
311 2 18.53837311708116 15.197537276305749 8.1557751878162 0 0 0
359 2 18.042841131898722 17.015830448120916 11.085043884315768 0 0 0
265 1 6.68478898540019 4.219259061472357 6.480330038612363 0 0 0
206 2 16.18331556335833 2.364212187690071 3.022341206556534 0 0 0
72 2 17.81013956577297 12.028893111464757 9.76331906213291 0 0 0
42 2 20.851618917128828 10.59466806159281 12.360617270589342 0 0 0
177 2 11.265584325806413 16.424144848718832 12.342876773311339 0 -1 -1
190 1 21.346288721046612 12.906003090390326 12.627443439208973 0 0 0
223 1 10.453021656863159 12.137527315054642 4.666858946149589 0 0 0
191 2 21.944707261629826 12.52052349981951 11.956801341655664 0 0 0
382 1 19.90636212866226 16.68414143502817 11.53035078071477 0 0 0
19 1 17.513016993807984 12.458651458711374 3.726427614580541 0 0 0
20 2 18.31365440140068 12.38668481791535 3.1227257401402198 0 0 0
21 2 16.72177796339039 12.086471670731973 3.3134613366743486 0 0 0
379 1 16.69790736157558 14.893100381779746 4.672506439094983 0 0 0
43 1 21.659830273380376 15.08781514643434 6.005209264298596 0 0 0
381 2 12.33068741696485 1.3060213890944838 4.4897930818351455 0 1 0
67 1 15.078800662900306 11.685099202164553 2.6405472083082766 0 0 0
68 2 14.47174091709333 11.603325227177052 3.3764100239219204 0 0 0
69 2 15.259318551985334 10.76860255405947 2.400825189562111 0 0 0
119 2 17.420619174125953 12.754128107601431 12.786166245576945 0 0 0
146 2 5.724751945828616 9.530603254601253 0.7778310195615916 0 -1 2
360 2 16.75966921933787 16.214015545128834 10.838322175011978 0 0 0
115 1 15.570773415653886 11.641248658310941 6.433036367142652 0 0 0
116 2 14.762806673314923 11.816154349376903 5.944160987313665 0 0 0
365 2 5.465189286718039 7.9714486156560165 3.8617246708327166 0 0 1
136 1 13.17720122751326 9.175891553151038 11.080677669558753 0 0 0
144 2 15.585161630583787 11.887255739790925 11.750657346505182 0 0 0
383 2 20.105948563418213 15.771645990963746 11.28545067261132 0 0 0
163 1 16.694529987790553 9.553074988155677 4.860799787336217 0 0 0
286 1 21.883543263751104 15.163534513073346 9.189067185613329 0 0 0
165 2 16.504244536335705 10.412832205761683 5.219219231385633 0 0 0
187 1 18.541303690802028 11.54534822165723 6.090517350024355 0 0 0
188 2 18.97748572322782 10.85100494914789 5.579270922167559 0 0 0
189 2 17.967757259891307 11.899015960295179 5.344591071368461 0 0 0
30 2 10.265544136484117 9.989205527209021 1.887816888214338 0 0 1
211 1 18.077882734794496 9.729642080610887 2.268437501307546 0 0 0
213 2 17.407006149549233 9.744624832052907 2.977507897639182 0 0 0
235 1 15.305682119936666 8.888389934317665 1.800842881116349 0 0 0
236 2 15.24659813572623 9.075446747879045 0.873619402554001 0 0 0
78 2 11.455956749193309 9.90172183483014 7.144128153323827 0 0 0
260 2 22.914469451178466 15.718560929716327 13.478413518998604 0 0 -1
179 2 7.271616453128584 9.569497642547068 9.795917744354613 0 -1 1
259 1 17.326054931626274 11.42316843072811 0.17349593559911164 0 0 0
117 2 15.630924503813556 12.327410112611807 7.077305084170012 0 0 0
261 2 17.689326712477918 10.948435234297996 0.9598195690405348 0 0 0
283 1 19.516427805971787 13.18335086115274 2.0719392002799997 0 0 0
347 2 10.774084243329733 14.584031122987064 9.829974789141392 0 0 0
361 1 4.520148696786616 13.119321990398785 4.082192433219515 0 0 -1
307 1 15.742076626913004 13.72842108180292 0.4061051570763251 0 0 0
89 2 16.160372752260116 10.60149962489063 9.693898080291271 0 0 0
309 2 14.968457369851656 14.249775211191391 0.7193759449786121 0 0 0
29 2 10.38285205468132 11.001786137411143 2.9967452188369754 0 0 1
49 1 9.386871086554686 8.801995782699564 0.9451978648924032 0 0 -1
175 1 10.47882353959911 15.791596923076941 12.319108805970725 0 -1 -1
138 2 12.488202731325714 8.698014561118288 10.607925559614355 0 0 0
358 1 17.30136881523155 16.882686688605457 10.44520893840132 0 0 0
289 1 6.168844242979278 7.889458498843332 0.6287654855427528 0 0 0
22 1 19.862341829758055 14.078847158837174 10.613333183573582 0 0 0
23 2 20.58554359140367 14.304358435006623 9.897063640963776 0 0 0
24 2 20.35883566557106 13.65995232467009 11.392608341819791 0 0 0
143 2 15.386637289634304 13.478289757386857 11.899946963218984 0 0 0
46 1 24.069025546004216 17.004077487568047 12.508214666959397 0 0 0
70 1 17.730250344402247 12.931676870217782 9.419485584380416 0 0 0
71 2 18.439317034057282 13.372106270087212 9.913986963239083 0 0 0
368 2 4.724007036191805 7.1041547094107536 10.842169985290617 0 1 -1
130 1 10.04149348449333 8.483265814822197 7.612636617989074 0 0 1
151 1 8.534369886543375 13.732005741327148 1.6433102734563763 0 -1 0
201 2 7.101971179375918 9.430218050929668 4.465982701402861 0 0 1
323 2 7.095542109520992 11.321787764645153 3.378953130063007 0 0 -1
131 2 10.298945615271828 7.845907615390225 6.864448479965751 0 0 1
76 1 12.237515922070989 10.498751252604261 6.9789607730338785 0 0 0
209 2 18.463862968678082 3.5193956952083885 8.348011407909203 0 0 0
32 2 11.11941658507507 8.123125659291045 13.527565177153562 0 0 1
293 2 9.608335431399839 11.795252502586107 11.474145519136124 0 0 1
316 1 1.1843230844090777 3.9265701170348004 3.7202925896004806 0 0 0
212 2 18.91301387038072 9.948443138296524 2.8214012131204287 0 0 0
99 2 11.962515856971569 15.033448872065863 5.4024131910276925 0 -2 0
384 2 20.231104761210997 16.654665126689807 12.440524887178345 0 0 0
41 2 22.207398370336545 10.632892879775586 13.165389991897827 0 0 0
122 2 6.265192547333546 14.793640233774752 3.367385339080122 0 0 -1
174 2 5.573912208299166 10.932584928398091 8.455486533376106 0 -1 1
314 2 3.8213746435899427 7.346701366185071 2.0307393039183426 0 0 0
292 1 8.641407967070846 11.938635878959836 11.48614419461281 0 0 1
180 2 8.735990536360832 9.108350664739534 9.661847331823843 0 -1 1
202 1 2.4634705760586666 6.027292369792216 5.030731505324031 0 1 0
90 2 14.705283981360203 10.299386816111857 10.318640107247099 0 0 0
230 2 11.791509016673961 1.1580200790064024 1.377503629065567 0 0 0
308 2 15.948856201941172 13.133691306795933 1.1962056440919955 0 0 0
137 2 13.70393575778425 8.573004029235817 11.626165794709369 0 0 0
242 2 7.488425182561316 12.916544461638809 12.533029857645886 0 1 0
378 2 16.7698740231306 9.705411925221568 11.374476790599974 0 0 0
36 2 10.903374524651943 4.2323315227950475 13.300898987197623 0 1 0
338 2 7.083450634749997 15.840383285084501 7.115766629019997 0 -1 0
326 2 5.35272899988871 12.443484640267664 7.0782449096381805 0 0 -1
459 2 15.671440763067405 1.5174859564331382 1.077082813514974 0 0 0
1 1 3.1268080032542347 11.464683473546076 1.1986893289002023 0 0 -1
48 2 24.800771921208014 17.534771167118496 12.854435045539875 0 0 0
342 2 3.5440687779581035 5.076582511124226 10.893694725476074 0 0 0
375 2 3.2454919232636543 10.615502823267557 2.8222906832324 0 1 0
75 2 3.5192337107778418 3.786937442645799 12.615556039651237 0 0 -1
385 1 22.46114103308373 5.105158112014035 3.9908918434228355 0 0 0
386 2 22.43934889828739 6.03614942817978 4.287049824749532 0 0 0
387 2 21.576599154468347 4.843158301310569 3.8635754887478546 0 0 0
409 1 26.297387170007678 8.115071636022865 6.000987116044458 0 0 0
483 2 19.171324561298558 3.649378580561858 6.061961090556272 0 0 0
425 2 36.8964727670354 10.382010876501157 13.176685719411454 0 0 0
460 1 18.658676063962012 2.409249260906424 7.003526803365802 0 0 0
433 1 19.92157884054616 3.5780662623201414 2.6594025285580383 0 0 0
434 2 20.3362944035664 2.7597836793710075 2.244853774270615 0 0 0
435 2 19.63782935326374 4.037333144520486 1.8436841067030705 0 0 0
602 2 20.86147125792589 0.6143850135695678 1.4464417119661288 0 0 0
355 1 36.072212241395604 9.301883534033113 6.880139465943052 -1 1 -1
677 2 22.301877959467667 9.010422121837852 8.018134375791556 0 0 0
481 1 19.926861249703954 4.322949856517714 5.943672683990738 0 0 0
482 2 19.666797762522044 4.908417424001108 5.231486722998784 0 0 0
650 2 25.187298516504 5.770907853750345 3.036759689761971 0 0 0
463 1 18.544867850879914 7.863070751171711 0.6017324896867428 0 0 0
506 2 18.573096581932397 3.066866152668591 3.29056166238338 0 0 0
529 1 21.389581900237857 2.1373388031251532 5.117765668334729 0 0 0
530 2 20.944617267641597 2.9737026272261726 5.421492832129284 0 0 0
531 2 21.650979103629115 2.349604099414097 4.212951707854463 0 0 0
553 1 23.90398328521685 4.284879914508437 6.113173889222683 0 0 0
554 2 23.12592465944901 4.554371115919474 5.594880813460123 0 0 0
745 1 21.861320822913935 7.398193485888335 5.1123958817942805 0 0 0
577 1 22.985821944794353 2.386373697317306 2.40894457010992 0 0 0
579 2 22.828389122107914 2.9863166327842046 1.6817582480790256 0 0 0
601 1 20.351033764579658 1.3628863413614185 1.1573163104390904 0 0 0
666 2 34.760512844113784 7.312585032356845 8.622347221752387 0 0 0
603 2 20.647070122674236 1.606895105162641 0.25161729736902083 0 0 0
410 2 27.03734895468742 8.577370207316017 6.437122877255222 0 0 0
625 1 22.343229994435422 4.641468922284702 0.652869333682787 0 0 0
627 2 21.617037924250194 5.201752979405147 0.9469016930052472 0 0 0
649 1 24.7077535679077 5.637605498965273 2.2107039885222943 0 0 0
578 2 23.023889644788003 1.5879049170137576 1.8254679134086176 0 0 0
651 2 23.75599541466889 5.429381411704118 2.4402551568189566 0 0 0
673 1 20.74730457293876 7.034289513689146 1.5754279876099142 0 0 0
133 1 38.78969969253155 15.069623855741614 10.939514655839027 -1 -1 0
675 2 20.475466083905133 6.857423663038815 2.5050406755576944 0 0 0
697 1 18.509419734471294 4.74635276376933 0.6723307290886612 0 0 0
593 2 32.99964989874396 3.818308229004777 9.733336466884179 0 0 0
340 1 35.388635888975074 4.552144329764057 11.255196205057862 -1 0 0
746 2 21.660453963483643 7.067639582818785 5.993864820896043 0 0 0
721 1 19.51408553342088 6.324278008926494 3.8690725295504245 0 0 0
626 2 22.995710598794325 5.214522321660594 0.14535195308188467 0 0 0
671 2 36.6117066343476 15.80101510737308 8.784431683848217 0 0 0
411 2 25.887513371199013 7.602070752629859 6.731874806055873 0 0 0
678 2 22.801344970219283 8.397943850517706 9.363032118689393 0 0 0
388 1 24.98520739723818 7.156728669715317 10.748719946934637 0 0 0
389 2 24.806594153612615 7.996077229439294 11.149042299628931 0 0 0
390 2 25.614880292168955 6.754917381445454 11.396923919557029 0 0 0
412 1 29.064984311033026 9.809745510036272 12.898160103421676 0 0 0
203 2 34.52258504413029 6.770769889770555 5.211506636867714 -1 1 0
436 1 22.903656806660226 5.699058246495002 9.537874546860571 0 0 0
437 2 22.142563131534864 5.44323597409476 10.105237812720057 0 0 0
438 2 23.496974382105755 6.156855725356573 10.067180008018942 0 0 0
756 2 28.025803071349124 16.97176581461086 11.599181803130023 0 0 0
654 2 27.646112090071174 7.742060516877567 9.69455798007086 0 0 0
748 1 24.488713738596307 9.682311008707442 11.779420236011857 0 0 0
485 2 23.035474926225042 6.807627662359454 13.235143170987733 0 0 0
484 1 22.779255145597702 6.080296023790795 12.63166928498919 0 0 0
508 1 20.5578397560385 4.968455863470375 10.843079607110418 0 0 0
510 2 20.70718420800177 4.184163960373467 11.46685943502098 0 0 0
558 2 27.02332506966119 6.717742737143236 13.071333492803904 0 0 0
532 1 24.303107707576345 4.130891839308757 11.460054479710477 0 0 0
533 2 23.79499738075701 4.800217225595687 11.944323932052361 0 0 0
427 1 36.835799751607475 14.745960973866516 6.25046005656629 0 0 0
556 1 26.621986278437372 6.0444699899886025 12.519909066681022 0 0 0
557 2 27.32405738376731 5.722959480513855 11.882752948485548 0 0 0
580 1 25.68313093437118 4.569319010518746 9.116908165610317 0 0 0
581 2 25.026530583504616 4.531360643302333 9.814951110346204 0 0 0
582 2 25.47106395675432 5.318922667604428 8.536313962497495 0 0 0
630 2 24.243031163704757 6.075425745773215 6.783022619386867 0 0 0
604 1 22.920191858797708 2.9841626430322945 8.452251413123115 0 0 0
605 2 22.911411600117315 3.8371048954461036 8.865889479146507 0 0 0
93 2 32.80168536913073 4.162210927650124 0.6092369067462459 -1 0 0
462 2 24.478565231740316 16.07834436364852 7.529836783593709 0 -1 0
628 1 24.681063615648917 6.637768078583791 7.442932967563274 0 0 0
629 2 23.983489576472046 7.044579555582227 7.920248281563103 0 0 0
507 2 17.508427809937075 3.3190711890886733 4.54933931776911 0 0 0
542 2 28.67413036234255 1.6217414403439947 5.226679121895261 0 0 0
652 1 26.920223808801097 7.71243741409367 9.083745213755352 0 0 0
653 2 26.113482977183107 7.3787080829329454 9.62956628882545 0 0 0
676 1 23.076430081340277 8.605054962513373 8.452391563756976 0 0 0
738 2 29.676841801219513 7.283455119250584 11.330174346968027 0 0 0
750 2 23.879621790788853 10.469303719361324 11.750138620023606 0 0 0
700 1 21.161534025200694 6.4848193885103536 7.590715262309226 0 0 0
486 2 22.02148650404368 5.638884453200422 13.054897868830752 0 0 0
702 2 21.900810792820685 6.252557887446702 8.195745484739607 0 0 0
373 1 35.44792394366921 10.154284792816421 3.4783430355974323 -1 1 0
728 2 20.857626997108767 13.076314830736472 3.4529744147650927 0 0 0
590 2 31.226203394930724 2.0405023040289536 2.6617983111959713 0 0 0
156 2 36.99559875525695 11.718251636211003 10.39283963539925 -1 0 0
701 2 20.908688474330056 5.602241146284261 7.3141326959557 0 0 0