LAMMPS data file via write_data, version 8 Apr 2021, timestep = 500000

384 atoms
2 atom types

0.0699254431078653 15.000172556892228 xlo xhi
0.046491685012621846 14.12374131498844 ylo yhi
0.09054403525602482 13.61517896474393 zlo zhi
5.1133460102010115 5.093192211050177 3.5353291452091997 xy xz yz

Masses

1 16
2 2

Atoms # atomic

1 1 7.218528393911945 5.115271478897843 4.028306584296088 0 0 0
2 2 7.088855059763758 5.939498298742916 4.523590055635626 0 0 0
3 2 6.549232014037002 4.9687993074603485 3.385218821993254 0 0 0
4 1 10.028280969010536 6.906073095546341 10.723336138699423 0 0 0
5 2 9.865844706240523 7.736460251410969 11.222596756139266 0 0 0
6 2 10.652080732494747 6.438960316548502 11.351660331686674 0 0 0
7 1 10.145454045165023 12.00156256894341 3.998997776510735 0 0 0
8 2 10.769420971084497 11.746768995135097 4.769866596319039 0 0 0
9 2 9.829044272007014 12.89449108365813 4.32509111102823 0 0 0
10 1 12.699380008983585 14.007210088921934 10.953196593771038 0 0 0
11 2 13.33887082460459 14.172992453975025 10.183561083818745 0 0 0
12 2 11.896248086002371 13.59477175699576 10.666239106860683 0 0 0
25 1 11.530651156502136 8.09472951942164 6.057036205138598 0 0 0
84 2 5.564875192835347 8.866269714843135 7.214894466841141 0 0 0
27 2 11.093450107818995 7.581844828424137 6.766536403343152 0 0 0
28 1 14.127156682870876 9.948196088336827 13.15891532919725 0 0 0
29 2 13.388441378109057 10.547354342420872 12.999546328504177 0 0 0
83 2 6.091241992922338 10.01197585557894 8.148546318558271 0 0 0
31 1 13.92938116146506 15.16860629993644 6.239417892150806 0 0 0
339 2 3.690610369566877 6.099670172572929 3.582489858336535 0 0 0
33 2 8.085734294348189 1.6375661959984673 5.889618501169674 0 1 0
34 1 16.693833787825508 16.898652290001184 13.177397569989381 0 0 0
265 1 9.560435128457044 6.070154248641302 2.6116066928749246 0 0 0
131 2 7.690194614360151 11.437368644554313 10.2690826226638 0 0 0
49 1 5.292196566615725 3.8092093530311697 2.7507828795055556 0 0 0
50 2 5.67807239218199 2.944032984294313 2.5252042386025613 0 0 0
51 2 4.665987309612897 4.068268207200686 2.027273000640107 0 0 0
52 1 7.9160338101033485 5.55131002167493 9.651555792307636 0 0 0
53 2 7.289596670855093 5.38476925382117 10.339897593403462 0 0 0
54 2 8.679333651660949 6.0204236098067385 10.025363442718717 0 0 0
55 1 7.7262763775475545 10.683720053194682 2.857433149923716 0 0 0
56 2 7.886231211255704 9.75400875934058 2.595576183144255 0 0 0
57 2 8.58592452538297 11.023649852208347 3.143815207371692 0 0 0
58 1 10.46058755760401 12.40459357961202 9.906587494391848 0 0 0
59 2 9.949855281310304 12.77261023718913 9.15003840709711 0 0 0
60 2 10.715795040720533 11.466760498026572 9.553170391347308 0 0 0
73 1 1.2571070356131953 0.7327057531149389 0.48058779023662856 0 0 0
74 2 7.181278086519851 14.29951919338504 0.7927349408895966 0 -1 0
372 2 12.989136924383931 16.765386128671917 12.143933072486439 0 0 0
76 1 3.7185789494719144 2.6461310892012304 7.524793780289404 0 0 0
204 2 13.623457218649927 10.693710027396552 8.879520687928077 0 0 0
78 2 9.48960411235202 16.105780058745268 7.839698015867059 0 -1 0
79 1 3.3868332232702416 7.975640139483166 0.6606880215966622 0 0 0
80 2 4.152835735945258 7.404547529997379 0.9822230969089556 0 0 0
371 2 12.266322510040958 15.42906107112135 11.602609471486087 0 0 0
82 1 6.367278202051692 9.362214210453507 7.391019357078843 0 0 0
370 1 12.11052558532049 16.282927962871614 12.089948508472192 0 0 0
365 2 10.590527188962648 9.875728429004004 12.288338447642921 0 0 0
97 1 5.1723306085113885 4.4574294270482255 5.844646603548303 0 0 0
98 2 4.922716136171438 5.1430506263027524 5.183007805613581 0 0 0
99 2 4.423485270999267 4.173886447441428 6.335589379394519 0 0 0
100 1 7.718899578570332 6.126784517351331 12.757824759905791 0 0 0
101 2 7.970193980662539 6.8098544881380185 13.471117823776634 0 0 0
102 2 7.108283800911054 5.459479642508978 13.186610115339619 0 0 0
103 1 7.623055283065259 11.527728784040368 6.009670501055998 0 0 0
104 2 6.899663954311041 10.989164971148178 6.28540907598079 0 0 0
105 2 7.415934972482478 12.080899121942009 5.2333991379504905 0 0 0
106 1 10.24696699813044 13.360482192250977 12.608115513722922 0 0 0
107 2 10.561561934330033 14.029265076115681 13.209918131623263 0 0 0
108 2 9.568065479159877 12.84533337785457 13.104022872844132 0 0 0
121 1 3.191913996294037 3.01636307400941 4.181380602905476 0 0 0
122 2 3.899238538433802 3.565176156085369 3.766491664572059 0 0 0
30 2 14.906100570934482 10.466253251228075 13.52753908286381 0 0 0
124 1 5.757606666832441 4.469097767484899 10.607594417374338 0 0 0
77 2 3.0321758392875475 2.097332113792718 7.07896405793791 0 0 0
126 2 6.020824860064602 3.549645175145588 10.823127682453027 0 0 0
127 1 5.481140034698756 9.708020754247332 4.40195793268833 0 0 0
128 2 5.777980695881595 8.83155582211264 4.734226652202905 0 0 0
129 2 6.342462733795849 10.01821896309051 4.073618366795353 0 0 0
130 1 8.254959423493212 11.402695033653451 11.151015470202891 0 0 0
282 2 5.305840926803332 7.400842136331007 8.885956412075767 1 0 0
132 2 9.137729882151094 11.695765268453542 10.799702351340164 0 0 0
145 1 6.820030059056445 2.053221128007543 4.753499883507952 0 0 0
146 2 6.277265801110826 2.7564715742481924 5.0765862699696696 0 0 0
147 2 7.215693321701332 2.374492657238706 3.881165463177312 0 0 0
148 1 9.169128840887854 3.9174530220228148 11.693426821248096 0 0 0
149 2 8.754948041668168 4.654167324542051 12.201599778739189 0 0 0
150 2 10.02959700908105 3.7577448602450843 12.123211170361103 0 0 0
151 1 9.21375483100356 9.160929859967236 5.143117967558513 0 0 0
152 2 9.154251513604144 10.106562607038246 5.466140062463643 0 0 0
153 2 10.14813554351902 8.926252181140377 5.330588940349663 0 0 0
154 1 11.878918147316462 10.942404640600783 11.969821617343174 0 0 0
155 2 11.297976452156474 11.743431434497332 11.961316444255024 0 0 0
156 2 12.30595456572924 10.840582731302826 11.073507143524388 0 0 0
169 1 8.945809586922948 4.468713541622548 6.246067632869362 0 0 0
170 2 8.091273313887212 4.680351658981377 5.783804319018047 0 0 0
171 2 8.691865677610307 3.8707457058504446 6.9507973804563985 0 0 0
172 1 11.828123030080233 6.071533966226187 12.490376417738538 0 0 0
273 2 12.797630176944097 13.233719954593493 3.306993108429255 0 0 0
174 2 12.38677937469168 6.713043865256309 12.959252521380584 0 0 0
175 1 11.600253457367028 11.250516213634045 6.124742534498834 0 0 0
176 2 11.333493837435388 10.814105657139473 6.973609030745875 0 0 0
177 2 12.245493916789343 10.724010832035102 5.529656014844124 0 0 0
178 1 14.142029560359447 13.181064039824777 12.919300259982954 0 0 0
179 2 13.402935262431413 13.47255323930038 12.331222740857896 0 0 0
180 2 14.77132894099372 12.70310109912015 12.365965121931946 0 0 0
193 1 8.545876404136717 2.6244493178351544 2.6262699030889283 0 0 0
194 2 8.425120356028549 1.9096672168017264 1.906963640983873 0 0 0
195 2 8.309823552212597 3.4591604934974747 2.1079258887524808 0 0 0
196 1 10.74324510058581 4.312092792327631 9.421667101168495 0 0 0
197 2 10.210973889840966 4.185743279900798 10.187275067841858 0 0 0
198 2 10.551859780939328 5.197935330657653 9.096569328857955 0 0 0
199 1 11.042012810993702 9.441847635510323 2.9428753526917406 0 0 0
200 2 10.838199413179195 10.110528957311153 2.2807847567851622 0 0 0
201 2 10.303666337459436 9.399558209835755 3.5414740799273643 0 0 0
202 1 13.497163423071559 11.284200193013094 9.712430857382362 0 0 0
203 2 13.250643692881873 12.095253566550307 9.194970996867937 0 0 0
341 2 6.73101593735851 8.834220977575388 11.664653850258217 0 0 0
217 1 5.79754697797115 1.3059146721439543 1.496083419140496 0 0 0
218 2 6.245677468127582 0.594342622288158 1.9660718589788744 0 0 0
219 2 6.390620024542503 1.4726283751152094 0.7453006723107978 0 0 0
220 1 7.901907681173839 2.9944342612496966 8.345150627399855 0 0 0
221 2 7.949458404372565 3.720272451904429 9.003403611235209 0 0 0
222 2 7.097404278736459 2.4024622201417345 8.518085907236587 0 0 0
223 1 8.035554064526675 8.180434076924511 1.8413636868522936 0 0 0
224 2 8.58103031423773 7.402360823796417 2.0278389868907065 0 0 0
225 2 8.37254158133032 8.532338736171114 1.0161248862916412 0 0 0
226 1 10.756970828757593 10.060962057616948 8.477531838903124 0 0 0
227 2 11.472630098868228 9.48819242022631 8.731390124991128 0 0 0
228 2 9.88519251263252 9.512167361720454 8.653160183697716 0 0 0
241 1 7.659127279720912 4.45906989345739 0.8838419374360185 0 0 0
242 2 8.16657466822899 5.255499961843533 0.5067163150206941 0 0 0
243 2 6.80250925888567 4.895383582065277 1.2061249171730584 0 0 0
244 1 10.253563673460741 6.400473258193599 7.778453215077811 0 0 0
245 2 9.435540627275802 6.8654807498037025 8.001698160475483 0 0 0
246 2 9.98394323372449 5.798758696454086 7.021767779066817 0 0 0
247 1 10.295718347423293 11.336848864986408 0.9880725747802812 0 0 0
248 2 10.921207057680997 12.002704014183426 0.5968912923571346 0 0 0
249 2 9.877103139850735 10.749669282258266 0.2930439160056607 0 0 0
250 1 12.763212860330958 13.207150416196193 7.70802333726074 0 0 0
251 2 13.401605872092034 13.66536012427797 7.13302445201395 0 0 0
252 2 12.30888950241584 12.455370634189926 7.20353578955454 0 0 0
266 2 10.207731261173379 5.9689270733284125 3.3556656414158246 0 0 0
367 1 9.433882262033073 14.379257982790834 5.123356425252823 0 0 0
267 2 8.703292921547748 5.704429769413702 3.094987457017856 0 0 0
268 1 12.498921463706404 7.7503791553315 9.416663564350738 0 0 0
269 2 11.757978058360884 7.315831697049207 9.847528822061326 0 0 0
75 2 0.9883686400872199 1.2007055906120876 1.307796899766479 0 0 0
271 1 12.080274121690636 13.07340547812171 2.6275790562715255 0 0 0
272 2 11.260592519747725 12.619053121746086 3.0216914302796662 0 0 0
173 2 12.494856580411309 5.480215051626787 12.04966411702385 0 0 0
274 1 14.485614040967054 14.782063184988942 9.407794676977101 0 0 0
275 2 14.36394942710312 15.618943522589294 8.889726998766307 0 0 0
369 2 10.304461049355398 14.781461384133648 5.306901074997361 0 0 0
289 1 5.710083251203826 6.640072184940563 1.752476057682245 0 0 0
290 2 6.4593978124474205 7.31783499590939 1.762866695350046 0 0 0
291 2 5.361493923400175 6.671463880024136 2.6519915524710576 0 0 0
292 1 8.547972812603494 8.580586819983251 8.667846629375854 0 0 0
293 2 7.788588799777473 8.814784762855105 8.069554194517144 0 0 0
294 2 8.068270213576069 8.3170174270963 9.51145303955494 0 0 0
295 1 8.603082628789757 13.746173698004098 1.7839748551439611 0 0 0
296 2 8.966566860650213 12.821951278223487 1.7951947817784784 0 0 0
297 2 9.39762066782264 14.256488424766673 1.6251562463711322 0 0 0
298 1 11.052130214607205 15.275523410947962 8.45323443601754 0 0 0
299 2 10.515553280919544 15.103660916676205 9.3553105070671 0 0 0
300 2 11.637185030711011 14.509414738098961 8.269782135501675 0 0 0
313 1 3.53495735498585 4.633400293069796 0.8197796689999006 0 0 0
314 2 4.013411660388379 5.216212330310503 0.20192970680409358 0 0 0
315 2 2.9111057053443172 5.168566901120846 1.309733118219913 0 0 0
316 1 6.175244084421742 6.2714539922425985 7.505757010175964 0 0 0
317 2 5.876162196012399 5.488230987800573 6.969213267101184 0 0 0
318 2 6.864485765906946 6.007595323900477 8.081374175683182 0 0 0
319 1 6.086205803152988 11.625531392192036 0.9566104968156705 0 0 0
320 2 6.637285144860027 11.363689898296059 1.698093518529741 0 0 0
321 2 6.631609489083229 11.942272434816122 0.22176862791342258 0 0 0
322 1 8.781800945148545 13.317455394533797 7.7517917155488885 0 0 0
323 2 9.306528575481476 13.891545723571266 7.18161483242645 0 0 0
324 2 8.43879686468286 12.696291453371895 7.117528313162744 0 0 0
337 1 4.463408287521384 6.338915251315927 4.156182672989124 0 0 0
364 1 9.76263966876374 9.308869946448695 12.128249164510702 0 0 0
368 2 8.949517691167776 15.11518844610566 4.638927759598307 0 0 0
340 1 7.045771618714242 8.141385682473977 11.104034402324798 0 0 0
363 2 7.794583935085847 8.02551339386979 4.977563428923685 0 0 0
342 2 7.312176156939533 7.402881448149028 11.776673460817422 0 0 0
343 1 6.730548908236999 13.387783817623273 4.118360038197638 0 0 0
276 2 14.992986873231693 14.137687701804312 8.865406807179452 0 0 0
345 2 7.3837774772908285 13.436751326610203 3.403622276854957 0 0 0
346 1 9.390694703785348 15.222700995774458 10.640773898495281 0 0 0
347 2 9.485509497988977 14.380749285047004 11.144357764625875 0 0 0
366 2 9.093991426732652 9.861930350990567 11.620341570368797 0 0 0
361 1 6.958151085260087 7.537608415762575 5.133534600274023 0 0 0
362 2 6.828710786070042 7.327052686588976 6.045079626431293 0 0 0
32 2 14.533817607026442 15.803284694765384 6.676798388830251 0 0 0
89 2 10.652194105746236 3.231705394770752 8.042638565691735 0 0 0
125 2 4.993531536040464 4.518139541153725 10.0070704185524 0 0 0
338 2 4.239253450617926 7.085586125289501 4.774400382519059 0 0 0
26 2 12.170362209508793 8.706882184640788 6.4878458310729235 0 0 0
123 2 2.8503626725074094 3.5398088247351946 4.974795033472324 0 0 0
270 2 13.07071666324708 8.06152474970727 10.176492912508333 0 0 0
348 2 8.484082433716459 15.11678732846724 10.316595259368434 0 0 0
134 2 10.08840088361953 3.352884587879961 5.177158996892401 0 0 0
36 2 16.800592328951552 16.274019395202078 12.459071679241887 0 0 0
45 2 6.933778284229232 14.469220226346682 5.599119877476314 1 0 0
13 1 14.817952406929553 5.154341203365095 4.113183155931652 0 0 0
14 2 14.079390782066666 4.521831899952451 3.9190772255164954 0 0 0
15 2 15.302830434569186 4.778748261006087 4.907621573973244 0 0 0
16 1 17.734723554549166 7.153176665074914 10.826897569806636 0 0 0
17 2 16.971304133142784 6.62233877762087 10.578079982010944 0 0 0
18 2 18.522804194066033 7.296835542751881 10.312943420692251 0 0 0
19 1 17.536047791552495 12.203958468922226 4.534064404228373 0 0 0
20 2 18.10680820535909 12.336948496802668 3.761030364905121 0 0 0
21 2 16.693869070927118 11.961338982368627 4.154723265917488 0 0 0
22 1 19.62963880738889 14.127108144213643 10.518671295571478 0 0 0
23 2 20.512997890426426 14.331579128948068 10.08877617824004 0 0 0
24 2 19.993529887241035 13.896272340398356 11.41653891666559 0 0 0
37 1 19.054205838174276 8.049094509943307 6.15645118377377 0 0 0
38 2 18.20121572720557 8.584717978525935 5.926174851130903 0 0 0
39 2 18.69325418476495 7.397858415599464 6.83373215162301 0 0 0
40 1 21.238520619185746 10.037063927030838 13.064124062061886 0 0 0
381 2 17.618412437010665 13.937724201729527 5.115893647187986 0 0 0
42 2 20.690211794085453 10.510516120138215 12.305355367082656 0 0 0
141 2 12.528880739151353 9.721621354633982 3.7728944548467673 0 0 0
44 2 20.8758044814437 15.631915900078278 6.083614040331784 0 0 0
384 2 19.72932567397229 15.929206980656478 11.585603930626414 0 0 0
46 1 24.06090614958327 16.972119456485036 12.93507500823235 0 0 0
377 2 17.165776900236008 8.594537288923082 11.519927859592398 0 0 0
360 2 16.13588585025846 14.948630234548315 10.726643820832457 0 0 0
61 1 12.646199425614284 3.4574461863848183 3.1132895142501447 0 0 0
62 2 11.871805406531301 3.343971637211578 3.692149849039335 0 0 0
63 2 12.344008666716906 3.7694151700929748 2.218304480553601 0 0 0
64 1 15.26387657708463 5.556432967122406 9.794773630121693 0 0 0
65 2 14.69464694809748 5.9605622781425405 9.098294090874285 0 0 0
66 2 14.47236142307986 5.312797551454174 10.370228840490864 0 0 0
67 1 15.39618780305899 11.061737436918877 2.966026567033282 0 0 0
68 2 15.677704579693252 10.13331058531283 2.7172588145780923 0 0 0
69 2 14.569286895544613 10.988917874884551 3.481386128392599 0 0 0
70 1 17.601018951529515 12.602866273076922 9.561845071465452 0 0 0
71 2 18.31583696459749 12.94942374820195 10.149778787891101 0 0 0
72 2 18.005239832953176 11.798795302514218 9.155953916116394 0 0 0
85 1 8.624533354784392 0.7293514124270863 0.724689597385781 0 0 0
86 2 14.398696434962707 14.36376125883787 1.3234709116351184 0 -1 0
87 2 9.101719809365527 1.3468884878184006 0.10740670154984583 0 0 0
88 1 10.74142615266787 2.444191738517964 7.455408405007428 0 0 0
383 2 19.635000677931647 16.052086112769583 13.086008541682324 0 0 0
90 2 16.63596881356577 16.1004158248162 7.831302775235571 0 -1 0
91 1 11.239015315359266 7.79093799068104 0.7755231662221725 0 0 0
92 2 12.081267240569924 7.43743677532488 1.0641107030290584 0 0 0
375 2 14.263201173662459 7.450572257242214 6.0019049786944105 0 0 0
94 1 13.704334156492342 9.907822722392664 7.507199795388909 0 0 0
95 2 14.389608798958118 9.246478326577597 7.823392258821523 0 0 0
96 2 14.203770857228479 10.490649626706588 6.857505801149984 0 0 0
109 1 12.85964998816883 4.148756806325989 6.095497271081343 0 0 0
110 2 12.07492742532983 3.850614367374403 6.571490178950875 0 0 0
111 2 13.478738236825714 3.4261123419059403 5.871421950695728 0 0 0
112 1 15.210665888532898 5.990464423251388 12.71597796840619 0 0 0
113 2 15.804607469938196 5.381456304940947 12.190399820775477 0 0 0
114 2 15.731923324993776 6.506354433794523 13.344558793627495 0 0 0
115 1 15.028693576882555 11.579375175235013 6.008652864387033 0 0 0
116 2 14.562650495565073 12.203020147813783 5.416029883104485 0 0 0
117 2 15.380105737161989 12.156777999356745 6.7454282672793955 0 0 0
118 1 17.94211287097114 12.907860189616216 12.830489103547444 0 0 0
119 2 18.53240536975224 13.47037968733241 13.47352018917786 0 0 0
120 2 17.367298925280164 12.348083466158613 13.38303071349014 0 0 0
133 1 10.522677352401693 2.774476614324158 4.553779233863522 0 0 0
353 2 14.375336984660354 8.799911867849097 12.036532527059883 0 0 0
48 2 24.861641426775662 17.401092787007567 13.244681785762003 0 0 0
136 1 13.133760267192622 4.493694255680915 10.975384892986838 0 0 0
137 2 13.528514482914131 3.6413955174520565 11.225995251438528 0 0 0
43 1 21.67323136236254 15.11556648377564 6.275143226739388 0 0 0
139 1 13.228111197808332 10.110165714646017 4.397649281293319 0 0 0
140 2 13.701830595540283 9.29527221378926 4.760829828724598 0 0 0
185 2 19.751452199284753 5.538443079748581 12.636124202389425 0 0 0
142 1 15.631248580876438 11.649371656518893 11.208034363847926 0 0 0
143 2 16.29402156915179 12.125576653517967 10.648154998341077 0 0 0
376 1 17.126039242985815 9.477372396993692 11.977001661265493 0 0 0
157 1 14.677474689708527 2.2860199949924294 5.227778749525212 0 0 0
158 2 13.94083055479567 1.6270014353835445 5.021935545534888 0 0 0
159 2 15.123863909677763 2.524257958408953 4.384898809710622 0 0 0
160 1 16.86580177217087 4.200398650108889 11.693559786661119 0 0 0
161 2 16.23532896739572 3.52765136633983 12.005069882517798 0 0 0
162 2 17.63895816545023 3.8322811840276403 12.233457440506118 0 0 0
163 1 16.73350720911666 9.301772424394128 5.022818332808349 0 0 0
164 2 15.94439883303497 8.637104056407201 4.965406303331076 0 0 0
165 2 16.30955623329012 10.183913075330361 5.12149980021597 0 0 0
166 1 19.329469878519255 11.058251684227317 11.512758552205185 0 0 0
167 2 18.56056341685635 10.490844585472153 11.464806072652873 0 0 0
168 2 18.918460487196253 11.767733141425962 12.100325274015372 0 0 0
181 1 16.640281664461053 4.382482997555065 5.984808809707433 0 0 0
182 2 16.473545560964745 3.7159024648308536 6.652325231702803 0 0 0
183 2 16.832292613327187 5.229871357889824 6.511717880904559 0 0 0
184 1 19.015165521064816 6.088512365304641 12.915684076233733 0 0 0
350 2 11.879741439889212 6.811698760054272 4.8941788578691225 0 0 0
186 2 18.586505262014114 6.501701728488056 12.132123444703538 0 0 0
187 1 19.177725232566996 11.200925138637613 6.346336832646767 0 0 0
188 2 19.726767387325754 10.701319551500276 5.744913101879221 0 0 0
189 2 18.455647531373014 11.460530281939803 5.733801511548278 0 0 0
190 1 21.27397507686316 13.208805792868285 12.525591982460023 0 0 0
191 2 22.009090174945968 12.69692682429793 12.169210655526895 0 0 0
192 2 21.605073469504404 13.962416720345432 13.039623426801978 0 0 0
205 1 15.89149572857762 2.5149764249804343 2.736803413443926 0 0 0
380 2 16.833654886917955 15.291251929061985 5.085657188886666 0 0 0
207 2 15.709484457489276 3.4351795378283043 2.4200800663715594 0 0 0
208 1 18.275395761668058 4.469675685127392 9.320110116708095 0 0 0
281 2 20.69063714902708 8.152687839222013 10.177251565036876 0 0 0
210 2 17.683210861670705 4.269203778545964 10.080836125574214 0 0 0
211 1 18.28401790966618 9.61242495727707 2.731408766177523 0 0 0
138 2 12.319596954255458 4.342809195727063 10.458928246942852 0 0 0
213 2 17.658618190790506 9.4088522381334 3.4965688741461864 0 0 0
214 1 21.088092002524657 11.327103833664903 9.422218098283274 0 0 0
215 2 20.382562691082025 11.403240187732187 10.118024818938398 0 0 0
216 2 20.82832185247115 12.05115175039674 8.805638052093732 0 0 0
229 1 13.104209635874483 1.3439840926662325 1.521824644490481 0 0 0
230 2 13.026455546004232 2.0162858384067444 2.2167538948573036 0 0 0
231 2 13.358887880859807 1.8204353209508355 0.7380556758006431 0 0 0
232 1 15.816323112674453 3.1518189796582745 8.173887367931924 0 0 0
233 2 15.642468790526292 3.913052377458169 8.757153729144953 0 0 0
234 2 14.971129525567711 2.7290863129575924 8.053395932829366 0 0 0
235 1 15.413443951794843 8.435000890794038 1.9037625896071178 0 0 0
236 2 15.674786130473798 8.393785770877894 0.9335442696431796 0 0 0
237 2 14.592613134894469 7.941860785594347 1.8593020125817814 0 0 0
238 1 18.229263709500085 10.091717738194856 8.690651262850222 0 0 0
239 2 18.875183858747288 9.423166418146232 8.90243097681455 0 0 0
240 2 18.499514345407526 10.412247961730396 7.821054677155504 0 0 0
253 1 15.150703185633695 4.66222305320808 1.2089116810284612 0 0 0
254 2 15.531204140496776 5.2937844505855365 0.5931565303754384 0 0 0
255 2 14.641697539595215 4.052689174849845 0.590810916857959 0 0 0
256 1 17.391329198961564 6.44618121069534 7.659277088504039 0 0 0
257 2 16.690799200077223 7.047707787264342 7.974296425781075 0 0 0
258 2 17.81837012165974 5.904649213463192 8.334745319095202 0 0 0
259 1 17.065864819387656 11.62990414638311 0.819091912901077 0 0 0
260 2 17.806290396272864 12.146605377305011 0.4908883692309946 0 0 0
261 2 17.426548477690293 11.28834938376667 1.6484858101208844 0 0 0
262 1 20.177094004845422 13.247579120328682 7.66848360317428 0 0 0
263 2 20.766537821442792 13.821904850070473 7.10289075861913 0 0 0
264 2 19.848178708423166 12.504705010323551 7.087243738846106 0 0 0
277 1 17.05015998413395 6.104428756385785 2.6325756083914906 0 0 0
278 2 16.35477765727619 5.492730907879574 2.9014721631130858 0 0 0
279 2 16.56488594856988 6.892229930375115 2.2063880392797337 0 0 0
280 1 19.898197885104977 7.952106987175192 9.617103969639446 0 0 0
379 1 17.696556464375984 14.850605303386864 5.35801745724238 0 0 0
41 2 22.092277625074285 10.46673026272869 13.098382374754614 0 0 0
283 1 19.29457469999779 13.10189570298636 2.449726231674496 0 0 0
284 2 19.139993527155156 13.903078644932748 1.9673660179185481 0 0 0
382 1 19.820286523305082 16.604509066789696 12.307187889761643 0 0 0
286 1 21.799455587600285 14.992702951280178 9.444948349887564 0 0 0
287 2 21.543604539630657 15.690204778763103 8.81768885820417 0 0 0
144 2 14.87691579635932 11.519589020056026 10.60201047625249 0 0 0
301 1 13.292451789942874 6.624072411631633 2.0865938380625644 0 0 0
302 2 14.09584964372738 6.031434693413563 2.0849596791754155 0 0 0
303 2 12.848567658028688 6.314484449583697 2.942063602898394 0 0 0
304 1 15.8230387201306 8.579696039496316 8.85025915046292 0 0 0
305 2 15.64849336263147 8.257468879969393 9.73893681898058 0 0 0
306 2 16.61582735398067 9.127636261890615 8.925834306136515 0 0 0
307 1 15.951592287271614 13.796112251361958 1.9308287823951291 0 0 0
308 2 16.690136373188704 14.402980290378036 1.7697023610328564 0 0 0
309 2 16.252192445179546 12.901692538132616 1.750940213818507 0 0 0
310 1 18.560814040875513 15.747386265528215 8.280588169253168 0 0 0
311 2 18.839398507817936 14.940874717262524 7.822876126374454 0 0 0
312 2 18.2619884427508 15.468201135099843 9.107742623735785 0 0 0
325 1 11.224871792705914 4.435534130918052 0.8302308306142162 0 0 0
326 2 10.481795416373226 4.857050335980113 1.3736178096580534 0 0 0
327 2 11.65553609763404 5.10690652192434 0.2786409357231782 0 0 0
328 1 13.936941939802646 6.721229700832896 7.541832443356933 0 0 0
329 2 13.288257547338983 7.099448788063566 8.234326928020021 0 0 0
330 2 13.549202144637567 6.012542394841 7.066641982614971 0 0 0
331 1 13.811874309538505 11.4346314323263 0.8953657024868334 0 0 0
332 2 13.152042824146823 11.861992734852695 1.4741143682381082 0 0 0
333 2 14.52864404707901 11.222260858444688 1.5216857686763279 0 0 0
334 1 16.080498851162687 13.39472099856841 7.567765521252855 0 0 0
335 2 16.722439295564758 13.03854281055842 8.209788498278336 0 0 0
336 2 16.423895166341612 13.842715747246086 6.808281023158103 0 0 0
349 1 11.813771171937022 6.064866569338616 4.269818493156845 0 0 0
344 2 20.797595634015643 13.517753748751648 3.6581491418938326 -1 0 0
351 2 12.132991684696405 5.2226874569478445 4.711599665870699 0 0 0
352 1 14.378495826457502 8.065357816126001 11.338290808662274 0 0 0
81 2 18.229530901265594 8.668778999221074 1.29953269189386 -1 0 0
354 2 14.679326692681311 7.258850447017106 11.82922413604593 0 0 0
355 1 14.472152740520782 13.435039005566024 4.082158536357433 0 0 0
378 2 16.34854928036412 9.977251288301133 11.732392222257651 0 0 0
357 2 15.01774238783502 13.637710048726717 3.315192536911237 0 0 0
358 1 16.928426567690703 15.137541252815224 11.228987915514551 0 0 0
359 2 17.19225964101653 14.28116337965321 11.597284765434758 0 0 0
206 2 16.76506592783562 2.5879374955197076 3.1970993748136567 0 0 0
373 1 14.587614635381012 7.740782653103618 5.145217161170641 0 0 0
374 2 14.48711810647832 6.935333475278522 4.577526764801787 0 0 0
288 2 22.24795385856638 14.477791200329664 8.803082900348773 0 0 0
209 2 18.314243401549955 3.6709225323423396 8.706053716829043 0 0 0
356 2 14.501292864247 14.185660625554759 4.655934861792533 0 0 0
212 2 19.142896254110948 9.585552904500467 3.222038300258525 0 0 0
135 2 9.849607520325467 2.750804646643262 3.801051016089969 0 0 0
285 2 19.85778735814182 12.659033070776083 1.7174020136460748 0 0 0
47 2 24.248167361613465 16.380653548312893 12.255314005664951 0 0 0
93 2 10.911414222045986 8.149751312659763 1.6047338813783734 0 0 0
35 2 17.56887632982304 17.246919069893742 13.514262164669978 0 0 0

Velocities

1 -1.3018158537727693 -0.6738991951193871 0.9220890848336104
2 9.54287204124962 -26.312839694424618 14.564879533124488
3 14.076603970174492 -14.88373606992937 -13.645143918999569
4 2.860426281669681 1.3721130049889378 -5.183583038817563
5 -7.013164036813331 11.203647895059444 -11.84744751287979
6 24.37546448318132 -1.0441332602501205 11.30080381736292
7 -7.455270746769019 9.553191123150594 4.839188335510893
8 -3.3350105254918407 10.030134967862226 28.70017767388939
9 -2.224602366152239 -16.701817555407022 -0.7584798035611845
10 2.9252445079965965 2.6388805764343366 7.180311981014557
11 18.914909698183457 -1.533785543912338 2.9967576820897714
12 16.42532653333033 9.586587575274613 -7.5684213298725185
25 -4.641329713169889 3.334752671928209 -6.773550198502136
84 -1.0970114549364363 11.134324862231699 -3.4555573253498024
27 0.40565988665868563 -11.602757090015482 10.60073292220607
28 5.115973154706411 3.3216345055251986 2.803961003018793
29 12.031941678510984 -0.7374933794372387 -8.082659957737489
83 -4.144233729243971 5.9497395258079555 7.774617231362249
31 0.07756719104840856 1.2969041685339044 4.016964175553065
339 6.484320276900305 -4.061150398726931 3.7083971229255064
33 2.932053495386841 9.656038181980302 9.292460437311194
34 -5.265159007869851 -3.0038929374891374 -0.12155618472704607
265 -2.159035028126136 1.6392560856152674 6.564054847429228
131 -4.871712075532974 -2.4151172928523237 9.160165590090685
49 -1.6424071990510682 -4.701990708513845 -2.162530798137412
50 12.344937292439567 -9.070754263940444 -23.738067465149655
51 8.427170690620107 3.552081045768825 9.601126286315353
52 0.7352283583608783 12.876689554028774 5.828062751633023
53 16.394563708754394 -14.704851593878049 -13.720957990331101
54 2.8327416632316487 -14.938271128045367 -6.653096894506987
55 2.283573769769635 -0.36539224533533665 -2.2444457240464186
56 -8.961293279799646 5.124593464269046 -17.36233956500745
57 8.632783325844306 -8.41992550982329 27.86790802258584
58 3.039622665036416 1.447047333118862 -2.143666794803417
59 0.6043414198013566 16.888128905065233 -18.68914956264632
60 -20.105595038566992 -7.356795482969793 4.3772922468466495
73 -3.6906080413031974 0.4809277884904608 -3.7980440257764823
74 12.699972642249564 9.427299132901771 1.4958754365610445
372 -16.508150810566807 18.729455264050507 9.478093695754774
76 -5.29641540043256 3.465636224632228 -0.32055955492262445
204 3.4578694366080436 12.517942850069186 -9.438483858088293
78 -13.310685982061678 19.266864536303316 -11.575007068625565
79 -5.660863440173524 -2.5143332870422515 -2.6206195979088034
80 -6.509691786811113 -4.389228825409322 8.22753902180159
371 -0.25495303101603634 -17.312562003853632 5.287918114172006
82 1.382106175299711 -1.4434523669708295 0.9480753477466011
370 -6.2102753842406555 -3.785002326305585 -3.7043834046291444
365 -2.866020233034251 16.947046315959902 0.6845485234504185
97 0.6593687355093035 -0.19482735895175515 -5.458801968800942
98 9.634706160887372 -5.229601666776715 13.226747162132316
99 -17.568381377100412 16.025767242047973 19.473099606178714
100 0.516551770385426 1.3163754901854565 -2.216132084970836
101 6.820764798233038 14.027202295038867 10.251882473016163
102 7.752007070194352 -11.841253427009406 -1.188664576410802
103 4.201921918923863 -5.793652629782151 0.8109836910790589
104 4.815255161541254 -9.747622410607747 -4.276319640988251
105 16.194514830815557 -7.4439043784058025 3.0297166840340726
106 -0.0833518826448725 -3.2205403053908133 -0.5425457145571481
107 15.397507151734482 -15.923282363476392 23.26377658256118
108 16.013031653990456 4.668718447385266 -2.2139411838136973
121 -0.2977188814830688 -3.1821229025817566 5.60090257820971
122 -8.187605835998902 -10.230677036451837 -7.632044296237268
30 0.8092051992824177 4.8483693166834545 5.347126889932554
124 -1.2154371691440735 0.05779608950749105 -1.9482663931173607
77 4.560949207270891 2.9666469491925196 9.198820741081892