LAMMPS data file via write_data, version 8 Apr 2021, timestep = 1653000

1008 atoms
2 atom types

0.2211762392254114 18.178378760770435 xlo xhi
0.01840955109996383 22.55197944890552 ylo yhi
0.22047429879999533 19.285241701196796 zlo zhi
-0.06211995250590715 -6.484851859928307 0.025525502369268975 xy xz yz

Masses

1 16
2 2

Atoms # atomic

1 1 6.7165593660214835 0.998613123510239 5.023726782339733 0 0 0
3 2 6.768109243597059 1.5355728431390154 4.239659932158213 0 0 0
4 1 3.9326941956513926 1.0079325475655334 5.3153706492333646 0 0 0
6 2 3.974676225451991 1.6295161730967551 6.085964408859115 0 0 0
7 1 -0.5667476361045071 6.511842780851429 5.061549163405023 0 0 0
8 2 -0.5065798909292216 6.209803518814917 6.000084875252466 0 0 0
10 1 2.0478505092498387 6.194163994556466 4.597391570140022 0 0 0
11 2 1.1300165411804786 6.488330208191304 4.717612616324134 0 0 0
12 2 2.5822558497015486 7.047182356725395 4.50452245061336 0 0 0
18 2 5.664703595770231 5.111854367746505 1.1506892209307615 0 0 0
25 1 4.718168172302408 6.511542498562394 7.355916869106348 0 0 0
26 2 5.446462644322535 7.124745597784696 7.719809206052333 0 0 0
27 2 3.7971328440825656 6.863623029129097 7.6024616868117185 0 0 0
28 1 5.794793750840081 6.17211228656738 2.490510590229188 0 0 0
29 2 5.719346834570563 5.796179926478677 3.334789116841747 0 0 0
30 2 5.033087037388561 6.8223864864028645 2.3867763851628405 0 0 0
31 1 1.253871207849973 1.1445494249383301 2.839623038867737 0 0 0
33 2 1.1469269470498393 1.5886352138753361 3.7554163059695345 0 0 0
34 1 0.5227674396586433 1.1598626125601528 7.509882944606751 0 0 0
36 2 0.7826419282040497 1.6305562970035514 8.35542190269289 0 0 0
37 1 6.302790670271817 2.623704308075908 2.630031610355361 0 0 0
38 2 5.430019193058367 2.9827753055545934 2.9551508836648823 0 0 0
39 2 6.959876910913099 3.233628839944867 2.9961657307296257 0 0 0
40 1 4.120263696946506 2.7081827378608527 7.414232641848512 0 0 0
41 2 5.027828300692364 2.8641743124936903 7.17984157309129 0 0 0
42 2 3.5881369824573635 3.4634975300920803 7.244060806529538 0 0 0
43 1 -0.16747487210935236 5.1141272876234645 7.363131082979324 0 0 0
44 2 -0.9398702174232471 4.439712830655829 7.231952727871435 0 0 0
45 2 -0.36017048367873883 5.459675501681144 8.246270164124045 0 0 0
46 1 1.6705871481762822 4.6442340968438165 2.5307608318405195 0 0 0
47 2 0.8072473009221275 4.264347211668491 2.9092996465756062 0 0 0
48 2 1.8888928364045556 5.143474601695242 3.3250644416107513 0 0 0
49 1 6.5349412996989225 3.3100237068718483 6.5709976658240965 0 0 0
50 2 6.182987791687086 3.9259379663024254 5.9681985985028225 0 0 0
51 2 6.78240545407639 2.4836363131922736 6.083508725901309 0 0 0
52 1 3.6983238071584332 3.1361648603639183 3.660850007020095 0 0 0
53 2 2.9193180619974752 3.5481822320887715 3.212448997008606 0 0 0
54 2 3.4597992726738385 2.2683937248154105 4.023491275713372 0 0 0
57 2 -0.3817244192272836 3.535357748853249 4.369803259646744 0 0 0
58 1 2.2169352561965403 4.4017349318702195 6.634465466076185 0 0 0
59 2 2.414538884377525 5.229464839120552 6.063728748200932 0 0 0
60 2 1.3302877686623376 4.538616725872602 7.028679844426397 0 0 0
61 1 8.105256881664888 7.294955581086849 1.579249712757071 0 0 0
62 2 7.432456706005852 7.147535861317115 2.247439602336599 0 0 0
64 1 2.2330503972402913 7.261808536282383 8.18645276874381 0 0 0
65 2 1.471574463446625 7.728887589712642 7.767305331535405 0 0 0
72 2 3.854787671746747 1.1965268930261748 1.2805424403985906 0 0 0
73 1 5.0623931341326145 5.241630445336297 5.048239144826229 0 0 0
74 2 4.753644871192663 5.679635698613515 5.900381551258609 0 0 0
75 2 4.329906661245405 4.762911661671356 4.60520579331984 0 0 0
76 1 0.9886519822707528 2.372974479999748 5.3308104505608 0 0 0
77 2 0.7386981570360516 1.8422639679497697 6.09525293326361 0 0 0
78 2 1.615178441324919 3.1045910369213727 5.517553170265971 0 0 0
91 1 7.965368797336285 6.466197834752549 5.486198986541276 0 0 0
92 2 8.004987747795179 5.751999826205791 4.8559425379642205 0 0 0
93 2 8.895027367924044 6.74657668957337 5.447317081176907 0 0 0
115 1 10.347957676750061 1.3313098136448687 2.326213244503833 0 0 0
116 2 10.194655735471827 1.9218189039080575 1.5655134118654792 0 0 0
118 1 9.215529293692658 1.379696302616365 7.282817167319807 0 0 0
127 1 8.425067142736673 5.1411874803920385 7.790740289726213 0 0 0
128 2 7.805398941245182 4.410028111298679 7.660497490265484 0 0 0
129 2 8.20910017522265 5.809895975001119 7.062690814984229 0 0 0
130 1 10.88959981722461 5.3025397279761295 2.7950893208624783 0 0 0
139 1 8.101889494357394 4.284909818253061 3.821703042659543 0 0 0
140 2 8.885233921929382 4.413092993026291 3.2740352487050584 0 0 0
141 2 8.508633428018408 3.6906915794765593 4.54240185130274 0 0 0
153 2 6.478641133186611 1.3143463116501946 8.594578751026043 0 0 0
160 1 10.02813635770316 2.345880811385836 4.950246165957851 0 0 0
162 2 10.277604424720263 2.0172489539030907 4.07015384581664 0 0 0
169 1 6.272678230779477 8.586137015965276 4.6980744444110325 0 0 0
170 2 6.766721269041625 7.800465839418305 4.9619893611345125 0 0 0
171 2 6.5523378084040305 9.332950039951394 5.265791887922257 0 0 0
172 1 3.5937707407303505 8.348273624518665 4.625864826468123 0 0 0
173 2 3.389133183839638 9.185487508061486 4.1947032222428895 0 0 0
174 2 4.5403006253683245 8.17542889822396 4.663164665652685 0 0 0
199 1 0.8730363602255157 8.597437221050258 2.870171023548042 0 0 0
200 2 0.9041177206141834 9.218672110918495 2.1211647878744437 0 0 0
201 2 0.5180703492585785 7.750189460205214 2.515406678486565 0 0 0
202 1 0.2742341706205545 8.896372063030528 7.573975487859606 0 0 0
203 2 -0.5542336202961207 8.502498724353131 7.90617281406734 0 0 0
204 2 0.1543801680241383 9.122930991561187 6.573190284783595 0 0 0
205 1 6.032477886610265 10.58531494787147 2.4090473584599272 0 0 0
206 2 6.051113881869703 9.774352482145042 3.0064251543319473 0 0 0
207 2 6.201819639869491 10.190452565616159 1.511769832857625 0 0 0
208 1 4.297165740165688 9.995270212423968 7.391052152840908 0 0 0
210 2 4.32144746276263 9.19561765366318 6.826854468474762 0 0 0
238 1 4.075953250456164 8.142915363692808 1.7248468885739008 0 0 0
239 2 3.2493684151058218 8.065060741438472 2.277734145158459 0 0 0
240 2 3.978241121643465 8.967629278085102 1.159622643266432 0 0 0
244 1 0.4664630324992487 9.871911842082572 5.041096764484428 0 0 0
245 2 0.5897841026105469 9.307517563619005 4.308480747458669 0 0 0
283 1 10.280353251110306 8.658011876643684 2.406026904439539 0 0 0
284 2 10.264049683472791 8.823339860311211 3.366352467434321 0 0 0
285 2 9.644988768899088 7.888431388720597 2.2897538841394067 0 0 0
288 2 8.458847106491199 8.150702890649335 7.449074050252309 0 0 0
319 1 6.562060907388995 8.033964484583011 8.33389498242368 0 0 0
329 2 9.659999244213907 9.33104089569244 5.769810451498906 0 0 0
330 2 9.048240027698434 10.299521988657965 4.725290888200551 0 0 0
14 2 4.788170663546182 5.07741699309117 8.783016998134384 0 0 0
66 2 2.5023657552598837 7.879176608280128 8.93215606495428 0 0 0
21 2 1.01913714870061 2.0554815771738864 1.2576037157386135 0 0 0
132 2 11.003934434112654 5.696539974888257 3.6708139686742385 0 0 0
286 1 9.276467059562584 8.676162270711652 7.290532199660097 0 0 0
328 1 9.845458679692662 9.72383940140586 4.891195704834701 0 0 0
94 1 10.890478748216989 6.383373736872453 5.120758514436009 0 0 0
119 2 9.293485760188373 1.9983017024345666 8.025979052873033 0 0 0
131 2 11.537845884211336 4.542673441091138 2.866025516647761 0 0 0
161 2 10.741456629072829 3.0121443758023148 5.1234839340903475 0 0 0
287 2 9.992733677509241 8.04843421038748 7.659387665917019 0 0 0
96 2 10.983659243669669 5.692486457088294 5.769943790494085 0 0 0
5 2 4.897405426352099 0.9332254709848187 5.186420887852031 0 0 0
324 2 12.687748886852415 7.472727704663579 1.0102364613605086 0 0 0
272 2 10.108545869029696 9.471682654140166 1.0074110371229095 0 0 0
323 2 12.127308583141236 8.221676155041724 2.212531667406232 0 0 0
155 2 12.976706680899259 1.191686155170459 1.217178405766878 0 0 0
144 2 10.328899914769185 4.349172363568568 7.457701210224524 0 0 0
142 1 11.083680250033343 4.26113368487431 6.8549617605953275 0 0 0
95 2 11.587239648506312 7.007016426149774 5.300388588227745 0 0 0
322 1 12.965858587567356 7.957344516462649 1.7676690601722622 0 0 0
246 2 1.2971023084561226 10.169718441514117 5.4040431176937265 0 0 0
320 2 6.345305567959654 9.00249195310501 8.674882366645354 0 0 0
63 2 8.176568537469123 6.487448388190168 1.0232023366934457 0 0 0
136 1 12.866715855421738 3.577383621904699 3.7322208454752617 0 0 0
321 2 7.2493601180521665 7.672007845353238 8.931519910852458 0 0 0
276 2 9.740811837552124 10.07078346490933 8.72417498265895 0 0 0
585 2 4.047516059441933 1.786643225525809 8.778118501900682 0 0 0
192 2 0.399358881731924 10.248919145206282 8.951467658497714 0 0 0
671 2 8.44860445565144 5.976670722623277 9.140067271268123 0 0 0
83 2 2.120381576614268 5.6403807035017515 0.8975958374003709 0 0 0
80 2 6.71278148240354 2.2087761851698215 0.9081488804175876 0 0 0
32 2 2.1637176036994905 0.7744458057905262 2.65944163362409 0 0 0
306 2 13.32820141326455 10.192841183682972 3.0823250788289283 0 0 0
148 1 11.276365372356972 7.208799150412194 8.482230987077962 0 0 0
143 2 11.770734863073757 3.789258810042235 7.361179049024364 0 0 0
149 2 11.439000595338259 6.328005116590559 8.914599489231584 0 0 0
256 1 12.414880919292793 8.487933814726212 5.447335407561782 0 0 0
89 2 13.127004904956403 1.9217550995039805 4.7337457520865405 0 0 0
138 2 13.671650242826397 3.4731277695741234 3.195494491004112 0 0 0
258 2 12.404292328052914 9.167414815898567 4.78040644242071 0 0 0
88 1 13.225057152881218 1.1803069650248281 5.362173941841809 0 0 0
137 2 13.190427556253704 4.287991142880912 4.39661548600928 0 0 0
150 2 11.761506303087298 7.861227218578376 9.042279528985489 0 0 0
189 2 1.8677390843238801 10.513702278092154 0.3275587806062254 0 0 0
778 1 13.126774315680166 10.204028668518863 0.2382324825566578 0 0 1
520 1 2.0773452515679387 5.171226336800378 9.581057419935846 0 0 0
235 1 -2.155575400253978 8.122666989753304 8.471772598293919 0 0 0
120 2 9.501274249314672 1.7415572649814064 6.420487333717848 0 0 0
167 2 11.01444060392091 5.889104639250518 1.0462742974475956 0 0 0
152 2 7.570662854134826 0.6848404304462268 7.708601062506846 0 0 0
304 1 12.723553791281423 10.657149301894528 3.7217018547259944 0 0 0
68 2 -2.081929378201524 1.2127664737488364 8.846934951486412 0 0 0
753 2 3.8119359677187705 9.202250176182789 9.021044562735872 0 0 0
586 1 -0.8541086023935341 6.191745014986498 9.66892804127193 0 0 0
667 1 13.113516983194142 1.1849732591973607 9.571086249190225 0 0 0
220 1 3.5511890398804744 10.859559291819936 3.291249193463576 0 0 0
528 2 2.8479982209286425 2.7284693282445827 0.541615544830077 0 0 0
101 2 14.498571796111586 5.278083033167775 1.520829544047918 0 0 0
100 1 14.490632923901295 4.860349543331512 0.6286797655720873 0 0 0
217 1 6.449511170651432 10.934504970104642 6.209327294815986 0 0 0
35 2 -0.3513707165836438 0.7072565472558275 7.6624967327579085 0 0 0
145 1 17.229275640027467 6.711750682358002 2.04321942787674 0 0 0
110 2 13.962806200209771 5.727391553245251 8.400758859682785 0 0 0
236 2 -2.215074532636394 8.967000349352025 8.993793384311926 0 0 0
483 2 -0.22574524166221704 0.15267375085914212 2.139526474751059 1 1 0
301 1 15.656778552723026 10.955592959752273 6.6128660569964435 0 0 0
156 2 11.981277030797333 0.8181421124275792 2.2007348898759194 0 0 0
221 2 4.323793750698664 11.213632748676904 2.8750835450299443 0 0 0
302 2 15.042653990589017 10.62044277561271 7.298356403943386 0 0 0
13 1 4.831592095513289 4.720381478504935 9.697275509582894 0 0 0
248 2 7.399516552900236 8.82057948549257 0.27353203300493695 0 0 0
154 1 12.872335829886683 0.5167270984919469 1.8823701842024498 0 0 0
84 2 3.0071381033672884 6.829839936730684 0.6011011563004914 0 0 0
151 1 6.756794290191035 0.4498050612874039 8.229234808541952 0 0 0
56 2 -1.033995185373044 4.980564216773118 4.070256359524531 0 0 0
85 1 16.08756788069142 1.029454470866557 5.226377226422776 0 0 0
117 2 9.794054984630556 0.5483164601119567 2.0672479704382614 0 0 0
521 2 1.9852113226419332 5.950558129779089 8.951433188280571 0 0 0
209 2 3.51342591688798 10.466603933386486 7.033687471457286 0 0 0
19 1 0.9125821099769637 2.488575624659712 0.40095404705830645 0 0 0
55 1 -0.7638876191045867 4.054868478487497 3.656114280355204 0 0 0
125 2 13.967536064805309 3.2448399969258954 7.599172598826566 0 0 0
147 2 16.905244529761887 7.36686132201775 1.3640725407412473 0 0 0
293 2 12.39194014793681 10.993004392516854 7.463304582803595 0 0 0
777 2 6.418390504699654 11.061491373259718 9.709195730744677 0 0 0
399 2 7.876079634099096 0.3284348485487317 0.9479317893450508 0 0 0
309 2 7.411512308557807 11.216470702410154 3.072503011700021 0 0 0
187 1 0.8818580255914489 10.288438069261584 0.4043604054208344 0 0 0
67 1 -2.0200051121258964 0.3610130683018473 8.291306775303065 0 0 0
2 2 7.4921480385534736 0.36752392029190734 5.073315102845483 0 0 0
133 1 15.687159661929126 3.399291793603359 6.747579207107577 0 0 0
70 1 3.5869578398698465 0.3676178718102838 1.7702864929125437 0 0 0
224 2 -0.35686604292770197 11.139416606761145 4.038548233876355 0 0 0
219 2 5.815749577037188 10.58118013388293 6.928347156993457 0 0 0
486 2 11.738164968925831 0.4151770824866967 8.694533510141847 0 0 0
113 2 14.185461954956534 7.048944077711626 2.9862913124651795 0 0 0
111 2 12.928309965758718 6.716568029042981 7.7505715531312465 0 0 0
294 2 12.634986741005156 9.611159170676594 6.894323468610758 0 0 0
126 2 13.1656604943937 2.27511792579804 6.718519203874192 0 0 0
123 2 15.356060426423054 2.1864358603981464 1.982544989008096 0 0 0
157 1 14.049598314879082 5.208090883108081 5.480185778610391 0 0 0
158 2 14.454184187869012 5.741333289892553 4.765136956227448 0 0 0
257 2 13.385553635849885 8.35274741995949 5.413855988325889 0 0 0
90 2 14.104294379215183 0.8589524696106662 5.4127734742752684 0 0 0
112 1 14.823961502326105 6.367106994135795 3.1936560569550867 0 0 0
124 1 13.11854191003614 2.8457976243041796 7.509878415483465 0 0 0
668 2 13.119474561852588 1.9401498111764286 8.968372597042068 0 0 0
780 2 13.320160644934926 9.324099424045391 0.756566841759632 0 0 0
165 2 16.49655839734419 1.0789437135488933 0.7708801864116823 0 0 0
587 2 -1.4239104060232606 6.890217360841451 9.437695873679642 0 0 0
608 2 6.079955603096286 3.575917117016787 9.730588679014367 0 0 0
485 2 10.616858866779841 0.3326005067928297 7.601366145000441 0 0 0
163 1 15.892701065518427 1.673873489992174 0.2859228997870273 0 0 0
86 2 -1.3691844386909016 0.16495839963016373 5.186193975119514 1 0 0
9 2 -1.174119265283386 7.275493079874109 4.957214229391951 0 0 0
166 1 11.421125600052495 6.286499673883023 0.27945326105865786 0 0 1
583 1 3.948428323556814 1.1613273010221015 9.553321248671242 0 0 0
290 2 15.717239840024957 10.6258858694751 2.921235277971386 0 0 0
87 2 15.965091829671488 1.4705653855184107 4.338400558666443 0 0 0
607 1 6.796238980293463 2.9622680785887967 9.53469971172767 0 0 0
122 2 15.999429881333441 3.0729355147337554 3.044251730688144 0 0 0
253 1 15.306822347914439 8.546546813611522 5.3288126891649705 0 0 0
134 2 15.171654097286082 4.022912562597186 6.112855954256894 0 0 0
114 2 15.662684818781429 6.624639717701347 2.708727013320231 0 0 0
836 2 12.715336534071243 9.523181501993562 9.23061525229686 0 0 0
255 2 15.41756187771237 8.983589637475225 4.39077460266566 0 0 0
289 1 15.180078168640579 9.817867674811403 2.932823836248585 0 0 0
121 1 15.282943225630317 2.4334047927811304 2.9225543427190264 0 0 0
109 1 13.798855789403605 6.3321598227907545 7.64794805107949 0 0 0
292 1 12.848065122533196 10.186581435547964 7.682227071785709 0 0 0
159 2 13.89540900695814 5.778736538956474 6.277679542187287 0 0 0
291 2 15.408841155362953 9.239177689428363 2.1579193039425277 0 0 0
97 1 14.509886200710868 4.54608613000188 9.740948246938489 0 0 0
331 1 15.812400289033045 8.576959283287929 0.5012496017791851 0 0 0
254 2 15.474898701912918 9.275242241275569 5.946951834970666 0 0 0
584 2 3.112241023320601 0.6665823683816533 9.27724012388776 0 0 0
146 2 17.411749502577898 5.9502860708027345 1.408117189144133 0 0 0
274 1 9.886922400511981 10.445303611879469 9.598311245784462 0 0 0
311 2 10.913355433282899 11.052686148195809 5.693351205913314 0 0 0
237 2 15.014448802164203 7.751718609789344 8.06162569068848 0 0 0
135 2 15.859594920981863 2.496495961778262 6.311699771740322 0 0 0
305 2 11.934646184756058 10.852160867579052 3.1435608462033793 0 0 0
22 1 0.7550418680600639 2.680064836682712 9.535453402768459 0 0 0
69 2 15.085967677119722 0.13296527259141241 7.798659392245412 0 0 0
20 2 0.4517693199742834 3.3164095452311053 0.4207056792771687 0 0 0
102 2 13.900408383999935 4.058436857552494 0.5263694173961252 0 0 0
108 2 8.63299010863803 3.363308821939791 9.69755808768998 0 0 0
17 2 4.9656532004810545 4.091743379955008 0.23037423648164296 0 0 0
16 1 -0.922687840869275 4.848375367825905 19.27029394186475 0 0 -1
620 2 6.609874515231955 0.5661908902176146 11.789279869256546 0 0 0
517 1 1.8285607662906558 5.0394602328757845 19.073299485347412 0 0 0
797 2 10.63551232867552 10.381667339866029 17.275985190329838 0 0 0
740 2 -5.328871848993207 7.23058088374729 18.331987331230398 0 0 0
107 2 9.654014893415813 2.2365573961175556 10.253150072892648 0 0 0
752 2 3.4718947424869384 9.276068129802034 10.610425885098385 0 0 0
714 2 2.0323596055272715 10.400345478459059 16.631351135680724 0 0 0
104 2 3.133556095676439 3.6520205048887124 18.813086426095452 0 0 0
805 1 12.147356684151726 10.760750214589429 16.184937827652135 0 0 0
333 2 8.689381242553209 8.034522780513063 19.060080250631504 0 0 0
602 2 9.989887418874918 4.4352157290926835 19.238063147576682 0 0 -1
536 2 -2.753139783723574 0.5594816375286207 11.982558482367802 0 0 0
527 2 -2.8332158578801505 2.2488606502699833 18.391469836183003 0 0 0
571 1 -5.35756230043197 0.4480059086869745 17.625903591581878 0 0 0
693 2 -1.1100019478646934 10.57612074052721 10.101966859733881 0 0 0
610 1 6.29911553652792 2.6732097723670774 19.00080749810623 0 0 0
588 2 -1.021323555358011 5.740685234332444 10.46812339861867 0 0 0
505 1 3.598268213258771 0.9976796016713474 14.13300595215557 0 0 0
506 2 3.939917598938564 1.6955561399236516 14.743217400838345 0 0 0
537 2 -1.0806268283778668 0.634953580018094 12.226348526450995 0 0 0
508 1 0.9235404063568547 1.295794746901706 14.693882151167438 0 0 0
15 2 3.897227385446539 4.797715268902382 9.855919390838434 0 0 0
510 2 1.9154503576993465 1.1570265560098405 14.583375271609746 0 0 0
511 1 -3.9865620047711254 6.480328297012616 14.672439178949105 0 0 0
512 2 -4.046725388537318 5.847669656390258 13.913437303076048 0 0 0
513 2 -3.720820982599568 6.027548521622256 15.463442762758282 0 0 0
514 1 -1.0532195157313562 6.502590060708569 14.250322649835024 0 0 0
515 2 -0.8363849767748116 5.730979490562997 14.859043968051251 0 0 0
516 2 -1.9811570671134073 6.640440632667622 14.553402160683545 0 0 0
98 2 14.639417001989697 5.366389875397442 10.238746266728732 0 0 0
519 2 1.7216311494101264 5.687171300265461 18.315323401301914 0 0 0
828 2 8.604626784213226 8.458435836631498 11.836799981616924 0 0 0
522 2 1.9703391425941637 5.4645487872302425 10.457929002379354 0 0 0
809 2 10.067070655118732 10.613150965807979 12.423290833504344 0 0 0
275 2 9.886632046062417 9.71217264049245 10.259409699336503 0 0 0
812 2 4.328780107804596 11.19886768743171 12.41449823074019 0 0 0
798 2 9.42873097962105 9.70037336976219 16.454236828822538 0 0 0
779 2 6.7357393821418 9.909057334722778 18.396378247990985 0 0 0
529 1 1.7256235708860905 6.50875279594419 16.66669721429372 0 0 0
530 2 1.8271723475390855 6.023488516157332 15.825889746087194 0 0 0
531 2 0.6955547424959685 6.46074396866086 16.697165801737786 0 0 0
532 1 2.445593238202114 6.3970829764742865 12.086182841416138 0 0 0
533 2 3.4312949688828667 6.4645058258567 12.003464907318325 0 0 0
534 2 2.1299082580122386 6.004753329968389 12.917984892072509 0 0 0
535 1 -1.9261313839341878 1.0852192685875173 12.38469270893704 0 0 0
724 1 0.7695472879998861 11.109081213282655 12.84459294080197 0 0 0
518 2 1.0071117984963833 4.578595561979381 19.11257083951312 0 0 -1
538 1 -3.0735466368314324 1.4421880050098812 16.989315205595187 0 0 0
332 2 9.63043965797589 9.196030105598771 18.871771203089967 0 0 0
540 2 -2.9907103099893035 1.81731143602226 16.108467995037323 0 0 0
541 1 3.3049675001016174 2.529377940508214 11.917845176781015 0 0 0
542 2 3.6481729491795516 1.851814303153532 12.481624951493275 0 0 0
543 2 3.3970475452558366 2.102769576722241 11.056981060915032 0 0 0
544 1 1.1452643672741059 2.916456674379754 16.94531708039522 0 0 0
545 2 0.9133202237564902 2.5663410075463244 17.8408406442077 0 0 0
546 2 0.9422659507228136 2.2360424114152035 16.211718356333392 0 0 0
547 1 -3.4459005498524435 5.0545773819123605 16.816518863255343 0 0 0
548 2 -4.143704354828712 4.342658860861654 16.70682858586832 0 0 0
549 2 -3.4805156071356502 5.501253704686781 17.716884310613 0 0 0
550 1 -1.131609947277156 5.073431383713588 11.938669275281047 0 0 0
551 2 -0.44038535826039515 4.423762181164734 12.215825845567643 0 0 0
552 2 -1.0590405836215857 5.710280043351205 12.723376998618917 0 0 0
553 1 3.4998479092801444 3.2033482905952813 15.820906224146515 0 0 0
554 2 2.7354112939280455 3.0275784332592752 16.37335541266203 0 0 0
555 2 4.1471799834093845 3.7258945020882366 16.401221355428753 0 0 0
556 1 0.8120880953462283 3.226931445611754 12.783450363569116 0 0 0
557 2 1.704612868433752 3.0954513602227403 12.413350075509403 0 0 0
558 2 0.6584887231996766 2.4987828074410308 13.415180733903929 0 0 0
559 1 -3.577352064455139 4.23572085534847 12.979518362172284 0 0 0
560 2 -2.867006213294791 4.4794940323427825 12.430723961936522 0 0 0
561 2 -3.180563811826305 3.636988051142377 13.633155650919372 0 0 0
562 1 -0.8368201236914118 4.612152171828592 16.088622725631932 0 0 0
563 2 -0.22461177244263242 4.065579229720583 16.644946510945342 0 0 0
564 2 -1.689926441751568 4.706716306258195 16.553055069585124 0 0 0
565 1 5.099351421475181 7.012756291775751 11.182920756251379 0 0 0
566 2 4.692679111973158 7.549812870220034 10.454443671938606 0 0 0
509 2 0.4468907375439849 0.4454488559634729 14.68670563364038 0 0 0
568 1 -1.0851917609264672 7.210605245649646 17.70026137688135 0 0 0
808 1 9.504223163435336 11.142126997249994 13.011362273699847 0 0 0
570 2 -0.5720925442598503 7.949369434101216 18.094995313917515 0 0 0
775 1 6.922319862277237 10.2373970927562 9.81656349276763 0 0 0
572 2 -5.793248543752335 1.0741721511950095 18.236008838383576 0 0 0
827 2 10.121115445513045 7.895651642836952 11.816876960837398 0 0 0
574 1 0.9087936325554895 0.22319441471530288 11.342669199707899 0 0 0
576 2 1.202834266086883 1.037139233024112 10.927558668969256 0 0 0
577 1 2.140560884140423 5.007514291794579 14.48479257737124 0 0 0
578 2 1.37941618092694 4.5281103206732976 14.205759372000548 0 0 0
579 2 2.718668009728162 4.314528098813344 14.916908845656438 0 0 0
580 1 -2.2839536223784767 2.465728590410089 14.571114754523316 0 0 0
581 2 -1.8852682027054226 1.9856443022795953 13.886227687273582 0 0 0
582 2 -1.4760149706656698 2.7625491101330124 14.994551529635245 0 0 0
669 2 12.688742161421263 1.518240060232145 10.394146336234428 0 0 0
249 2 0.6239383856403123 9.993625477360554 18.37258864691241 0 0 0
589 1 12.460878517969824 0.946866023771041 14.40774476647783 0 0 0
569 2 -1.0684535212654631 6.423801250592803 18.26143236141654 0 0 0
591 2 12.597588058585801 1.6417546367154183 15.032724041311113 0 0 0
592 1 9.6986530712846 0.9407119508523251 14.603598771554068 0 0 0
826 1 9.518219690607305 8.56065305802571 11.45932455815262 0 0 0
594 2 9.549527788181035 1.7781213226106338 14.175966228597847 0 0 0
595 1 5.328146603662777 6.370289787424987 14.527157714217163 0 0 0
596 2 5.069638908955709 6.0305022865708455 15.41055118033334 0 0 0
597 2 5.178814887637389 5.701639632789657 13.82005976046928 0 0 0
598 1 7.987184912030695 6.751549330503108 14.496153937284616 0 0 0
599 2 7.032202268896278 6.920021068484066 14.57120329733664 0 0 0
600 2 7.985318082235246 6.266380226877039 13.60736404861144 0 0 0
655 1 3.6227048625382436 0.4366100687460517 17.55046263583212 0 0 0
590 2 11.500501741506978 0.742130090175925 14.554089847729225 0 0 0
721 1 3.8989287370049226 10.807975539103483 15.846396388967458 0 0 0
605 2 11.532096107687396 5.4297907378528185 10.766077050551557 0 0 0
832 1 6.628955734760334 10.192903785418334 14.498530018181796 0 0 0
271 1 3.6487014991178417 10.008541504292753 19.20864786406044 0 0 -1
825 2 3.555308519501726 8.890920886308281 18.18663423536523 0 0 0
609 2 6.967750105406405 2.5440757710378987 10.39871815840271 0 0 0
837 2 12.615067745781746 9.07117401320484 10.803143942337307 0 0 0
611 2 6.452214835756008 2.3558544855460224 18.03997652228739 0 0 0
613 1 10.410938716474021 6.221968056872224 16.67770256769739 0 0 0
614 2 11.158576362591015 6.818192292202621 16.89775839406229 0 0 0
615 2 9.655325478019568 6.75007724901752 16.902965875696935 0 0 0
616 1 11.288429710786662 6.527320859105466 12.13493786640465 0 0 0
617 2 11.277630346596343 5.973962869432134 12.923470680128128 0 0 0
618 2 12.175966323483976 6.857662738854419 12.12112328170115 0 0 0
619 1 7.194448902575516 1.3443469578239788 11.959065998776037 0 0 0
723 2 4.6418086237676786 11.281186857160305 16.29953988173384 0 0 0
621 2 8.11927608579818 1.1355428477913763 11.715023033357465 0 0 0
622 1 6.191157738452974 1.1356188688446511 16.721451236698712 0 0 0
711 2 2.2014814861712773 10.31494471147177 12.218717690424247 0 0 0
624 2 6.360369610998549 1.5547501226657248 15.858962310617168 0 0 0
625 1 12.453106370099817 2.5324507513683776 12.094672785898153 0 0 0
626 2 12.706912534957358 1.7678452035673138 12.591015384669364 0 0 0
627 2 13.003242054439836 3.2461664349803017 12.396238622145765 0 0 0
628 1 10.056372852036919 2.75298912796135 16.851008908584227 0 0 0
629 2 9.883386893625293 2.524648338452207 17.830316784036473 0 0 0
630 2 9.833693216892135 1.9791566029300045 16.30057840860258 0 0 0
631 1 5.131139739855651 5.036525966854087 16.91733320660768 0 0 0
632 2 5.12984223787862 5.479644758700179 17.826358419052585 0 0 0
633 2 5.992161775349213 4.584376356415264 16.68994875929195 0 0 0
634 1 7.840036455208346 5.223730486758844 12.28140858823303 0 0 0
635 2 7.062506742059278 4.657932421177526 12.385349809232356 0 0 0
636 2 7.920253661636799 5.710723680556823 11.436831223393002 0 0 0
637 1 12.68194114040487 3.4205915600949526 15.989021920290615 0 0 0
638 2 12.299458030860007 3.9098422016294787 15.206590187542606 0 0 0
639 2 11.87260609781104 3.157807288285258 16.46297785764293 0 0 0
640 1 9.712467688863887 3.329377019040341 12.88758909944663 0 0 0
641 2 9.084798654329786 3.9579292000307182 12.538093744050009 0 0 0
642 2 10.415517907729189 3.1267590828558376 12.24513385997654 0 0 0
643 1 5.371344148276583 4.192426714097056 12.801351962515136 0 0 0
644 2 4.7275707591669685 3.7375291121705163 12.292082967380852 0 0 0
645 2 5.532015238555272 3.566582672962347 13.503762468922178 0 0 0
646 1 7.875242404086886 4.273043132425242 16.177303858822324 0 0 0
647 2 8.712134609120639 3.9695481631985383 16.589542981718893 0 0 0
648 2 8.01963626182099 5.136718667548644 15.744601887005484 0 0 0
649 1 14.04703502756253 6.900189121562652 11.229733436690704 0 0 0
650 2 13.98669482321359 7.432842962399828 10.504577884600247 0 0 0
651 2 -3.086167936666643 7.178162148334881 11.620757567694476 0 0 0
652 1 7.89167318514857 7.109036375671748 17.854943591490848 0 0 0
653 2 7.161830281073072 7.377424631196885 17.299298961215555 0 0 0
654 2 7.63985286321227 6.287746459213673 18.27586367778064 0 0 0
273 2 4.591265037580427 10.375445129588046 19.142646489951357 0 0 0
694 1 -2.97845749562419 10.158476491866749 19.099066126355336 0 0 0
661 1 11.135010130749576 4.893534625066293 14.308826446206849 0 0 0
662 2 10.598028469229055 5.276803251199993 15.045225856933957 0 0 0
663 2 10.674829129405062 4.2638041808599745 13.698967309650241 0 0 0
664 1 6.615597816169863 2.3871095210248474 14.325730266647769 0 0 0
665 2 7.067875469668053 2.990392688014404 14.947070368141 0 0 0
666 2 7.1528841217827495 2.085887459484718 13.550620672776104 0 0 0
794 2 12.893114697497188 10.594419249313654 12.222883980202193 0 0 0
188 2 -5.735840544423309 9.558800729062483 18.87632178171986 0 0 0
168 2 4.318913163016957 6.870871813868588 18.852834366460907 0 0 0
673 1 3.6906170449628295 8.450706409148964 14.249510883933707 0 0 0
674 2 4.2471339532567285 7.6646343410333175 14.397149749766458 0 0 0
675 2 3.9180506938592927 9.237906830476168 14.85362210086861 0 0 0
676 1 0.837343554276946 8.79957091351188 14.462927908472064 0 0 0
677 2 1.7695209146739437 8.47315171511798 14.483523146279545 0 0 0
678 2 0.2833062131864392 7.966308172454079 14.496259932930034 0 0 0
525 2 -2.019534062459572 1.9105617066063711 10.83344063612384 0 0 0
672 2 9.132936945362108 7.029386763335366 10.032738944891191 0 0 0
539 2 -3.947073884358907 1.058330121206697 17.176976943443208 0 0 0
807 2 12.324641151612573 10.010679898347304 15.641674512062883 0 0 0
695 2 -3.0153012952261387 9.822922452768292 18.173257044678714 0 0 0
191 2 0.7469233631401785 9.87905913164447 10.380582109635803 0 0 0
703 1 -1.7631336895084724 8.357711160756883 12.296831707240091 0 0 0
704 2 -1.9122926285037853 8.98246838689355 11.591583537373358 0 0 0
705 2 -0.796571261508468 8.157393362915075 12.184351530895693 0 0 0
706 1 -3.278543267528073 8.685793454901138 16.712127780104723 0 0 0
707 2 -3.1831578795505253 9.036090055798493 15.800697064321149 0 0 0
708 2 -2.503837819527855 8.042041306569983 16.909137326609464 0 0 0
709 1 3.159839832905078 10.012070051834955 12.207228229061784 0 0 0
710 2 3.211699435033044 9.255926086193947 12.867727229162073 0 0 0
606 2 10.85313744530316 4.324236033328964 10.004067226618213 0 0 0
712 1 1.0413079023376095 10.412749139277885 16.64732118302024 0 0 0
713 2 0.9246350350141873 9.760260730978557 15.873330499747732 0 0 0
623 2 5.2481210237881974 0.9157176364909715 16.668307619508994 0 0 0
835 1 12.636360438131028 8.807915252009511 9.852592068664965 0 0 0