LAMMPS data file via write_data, version 15 Apr 2020, timestep = 500000

3072 atoms
2 atom types

8.5288788348691469e-02 3.0054905211647714e+01 xlo xhi
7.3280274611917662e-02 2.8267185725382550e+01 ylo yhi
8.2442912059365270e-02 2.7329002087932210e+01 zlo zhi
1.0178710251200496e+01 1.0204186252153974e+01 7.1141615798983757e+00 xy xz yz

Masses

1 16
2 2

Atoms # atomic

1 1 7.6080465749962931e+00 5.2608288402572452e+00 4.3686708586403142e+00 0 0 0
2 2 6.8438938196274570e+00 4.8372161480519420e+00 3.9044353220094967e+00 0 0 0
3 2 7.2998377134981300e+00 6.1284410059149765e+00 4.6612804305090760e+00 0 0 0
4 1 1.0231086893441642e+01 6.6989354571133948e+00 1.1117990681891772e+01 0 0 0
5 2 1.0704037335964443e+01 6.2230892562781257e+00 1.1824748980861337e+01 0 0 0
6 2 1.0024468790650751e+01 7.5247702622768227e+00 1.1568829729041607e+01 0 0 0
7 1 9.8658739930261241e+00 1.2273094402679980e+01 4.1199719812004423e+00 0 0 0
8 2 1.0437344291446738e+01 1.1708253587983318e+01 4.6644981382876987e+00 0 0 0
9 2 9.7626159138537059e+00 1.3078573413874238e+01 4.6431994350325780e+00 0 0 0
10 1 1.2543916160615272e+01 1.3880944257213976e+01 1.0882065569173205e+01 0 0 0
11 2 1.3214087771163850e+01 1.4135368809432224e+01 1.0229602698457377e+01 0 0 0
12 2 1.1878536464891708e+01 1.3407267400614121e+01 1.0364993600833770e+01 0 0 0
13 1 1.4976315847289836e+01 5.0388871526246799e+00 3.9843511960955986e+00 0 0 0
14 2 1.5436844717458950e+01 4.6670635154953413e+00 4.7186260447700770e+00 0 0 0
15 2 1.4774422758384794e+01 5.9817930979561256e+00 4.2781176277177408e+00 0 0 0
16 1 1.7341507699248119e+01 7.0839787767893316e+00 1.0917967340824246e+01 0 0 0
17 2 1.7890167340061602e+01 6.7812706709952657e+00 1.1638435867049882e+01 0 0 0
18 2 1.8033648511297208e+01 7.1996332254144280e+00 1.0236950727827598e+01 0 0 0
19 1 1.7495225953221741e+01 1.2434497098775459e+01 4.0122478196479303e+00 0 0 0
20 2 1.8188186331969160e+01 1.2561818755660083e+01 3.3669521283277897e+00 0 0 0
21 2 1.7949406965700224e+01 1.2002963149039926e+01 4.7314070506414971e+00 0 0 0
22 1 2.0063203833883797e+01 1.3791967343377424e+01 1.0959462174089943e+01 0 0 0
23 2 2.0840431531632937e+01 1.3795250840586359e+01 1.0347277530125702e+01 0 0 0
24 2 1.9985920627974586e+01 1.4714239835028565e+01 1.1204911477259236e+01 0 0 0
25 1 1.1563105180146213e+01 8.1542797479069442e+00 6.3347789987120642e+00 0 0 0
26 2 1.0743376140384353e+01 8.6262715985620240e+00 6.2034167146634518e+00 0 0 0
27 2 1.1311197406801327e+01 7.3672863120234204e+00 6.8730476326434351e+00 0 0 0
28 1 1.4407361394384527e+01 9.9629793505540647e+00 1.3032738638404558e+01 0 0 0
29 2 1.4648063979873681e+01 9.7041720616156191e+00 1.2134304067572611e+01 0 0 0
30 2 1.3533023390651955e+01 1.0343232054458440e+01 1.2967649197218657e+01 0 0 0
31 1 1.4004695619943115e+01 1.5390769622007213e+01 6.1918782510360453e+00 0 0 0
32 2 1.4282675753800733e+01 1.5030722745726743e+01 5.3690152903317401e+00 0 0 0
33 2 1.3170709904695563e+01 1.5871315622018511e+01 5.9343915447753721e+00 0 0 0
34 1 1.6703892089547384e+01 1.7180653097318896e+01 1.2839162179432618e+01 0 0 0
35 2 1.6070912720172362e+01 1.7806311274433476e+01 1.2545795421289361e+01 0 0 0
1106 2 8.8251345749475796e+00 2.0327862386366572e+01 3.9941663085310997e+00 0 0 0
286 1 2.2273855924904794e+01 1.4682212849394658e+01 9.3453604430155579e+00 0 0 0
38 2 1.8597487489809104e+01 8.6709007624428587e+00 6.2102293817126606e+00 0 0 0
39 2 1.8902198631573615e+01 7.3543066182368566e+00 6.9478966713357950e+00 0 0 0
1023 2 2.0730541216160134e+01 1.9278662867181271e+01 5.4865260343293576e-01 0 0 0
1152 2 2.4360584637984172e+01 3.1058525761162464e+01 1.2056934931880848e+01 0 0 0
2565 2 2.7957292227319375e+01 2.8571871363688395e+01 1.3504527011941290e+01 0 0 0
812 2 2.7202605102411912e+01 2.9422778246292733e+01 6.8142674307070115e+00 0 0 0
44 2 2.1031267676943251e+01 1.5467671190496391e+01 5.8692943732602636e+00 0 0 0
1611 2 6.8454239190416537e+00 4.6330005772522878e+00 1.3604243531761291e+01 0 0 0
897 2 1.0324825355524307e+01 2.4151346837578743e+01 4.9606384396227945e+00 0 0 0
47 2 2.3193663455835257e+01 1.7676708689456497e+01 1.2868788045816228e+01 0 0 0
76 1 3.8451331938392164e+00 2.5700050000727783e+00 7.7750148810658430e+00 0 0 0
49 1 5.5618887550739267e+00 3.7759364758334644e+00 3.1591039893672099e+00 0 0 0
50 2 5.7528703719428611e+00 3.0242577559833967e+00 2.6116623634263281e+00 0 0 0
51 2 4.7504466758956099e+00 3.5440696911177154e+00 3.6308533412012047e+00 0 0 0
52 1 7.8801469881867705e+00 5.4246901009677071e+00 9.8664464219140555e+00 0 0 0
53 2 7.7064581299550206e+00 5.8408560197460275e+00 9.0123417803315924e+00 0 0 0
54 2 8.7272328797113410e+00 5.8376107339340528e+00 1.0069639917613458e+01 0 0 0
55 1 7.5792123438024426e+00 1.0687363277667762e+01 2.8072663774909463e+00 0 0 0
56 2 8.0805674589512186e+00 9.9088133348705902e+00 2.4853957857231168e+00 0 0 0
57 2 8.2161653494217468e+00 1.1315001995569505e+01 3.2659146306154372e+00 0 0 0
58 1 1.0374806030419181e+01 1.2638967284467087e+01 9.6327390845745597e+00 0 0 0
59 2 1.0043558406792659e+01 1.2842465213981535e+01 8.7246017157260720e+00 0 0 0
60 2 1.0386502713682173e+01 1.1656969959033850e+01 9.6806004620708279e+00 0 0 0
61 1 1.2456101711374913e+01 3.8293485172071788e+00 3.1435369272941247e+00 0 0 0
62 2 1.3277789232356564e+01 4.1552730875199879e+00 3.5528957960104686e+00 0 0 0
63 2 1.2212129557999258e+01 4.3582122531956706e+00 2.3708068195733971e+00 0 0 0
64 1 1.5126939695277786e+01 5.6982384501166745e+00 9.8541270742496287e+00 0 0 0
65 2 1.5839915323278158e+01 6.2566359330076384e+00 1.0265902254906235e+01 0 0 0
66 2 1.5625480760189387e+01 4.9248026981509199e+00 9.5796131655463697e+00 0 0 0
67 1 1.5312518888823353e+01 1.1102550206860885e+01 2.8451029644160872e+00 0 0 0
68 2 1.5949451389254939e+01 1.1464556194617741e+01 3.4781914811884644e+00 0 0 0
69 2 1.5718761514838208e+01 1.0241992701845692e+01 2.5010346446541170e+00 0 0 0
70 1 1.7796760421106473e+01 1.2511419497236687e+01 9.7427737004768815e+00 0 0 0
71 2 1.7354554756880880e+01 1.3026607180056050e+01 9.0705048980775604e+00 0 0 0
72 2 1.8489233579875645e+01 1.3079992406169026e+01 1.0204683066351878e+01 0 0 0
75 2 1.1368070705242523e+00 1.4485706397803395e+00 1.3287551948386149e+00 0 0 0
1136 2 1.4432954048095304e+01 2.8436485429626671e+01 6.1865917660032483e+00 0 0 0
1143 2 2.0875190360137005e+01 2.2308935004648742e+01 5.1811595657555509e+00 0 0 0
802 1 2.2032343252534528e+01 3.0940959494244524e+01 1.3229367768784352e+01 0 0 0
77 2 4.6502005940689282e+00 2.2034546643664936e+00 8.1718024646483425e+00 0 0 0
1151 2 2.4749137290439386e+01 3.0088005790941601e+01 1.3281436304309173e+01 0 0 0
1784 2 1.4728017556534967e+01 1.5242250730389094e+01 1.3554529983217208e+01 0 0 0
844 1 8.8445850948299878e+00 1.6600118361603503e+01 7.3967544938178031e+00 0 0 0
212 2 1.8521597357500813e+01 9.0156340197411833e+00 2.1161303064198926e+00 0 0 0
1101 2 1.9088658215614522e+01 2.6486633046682105e+01 9.1780035299491067e-02 0 0 0
1150 1 2.5032835561554027e+01 3.0414383436329210e+01 1.2434634968150512e+01 0 0 0
84 2 7.2603053980929211e+00 8.8707419136627017e+00 7.8757270698862252e+00 0 0 0
326 2 1.1487630089768789e+01 5.4989777572980048e+00 2.8083283150595173e-01 0 0 0
1142 2 1.9429479321328149e+01 2.2045913902307280e+01 4.8903402088672703e+00 0 0 0
87 2 8.5166975671931393e+00 1.1350056850925667e+00 1.4753121268418175e+00 0 0 0
88 1 1.1123493825701400e+01 2.3275845866122853e+00 7.7912843277629458e+00 0 0 0
89 2 2.2105466623060199e+01 2.9944015941700833e+01 8.1312427876690876e+00 0 -1 0
90 2 1.1538001094426686e+01 2.8817493740003455e+00 7.0904222028901822e+00 0 0 0
91 1 1.1173408029888698e+01 8.1248983855122372e+00 8.1773811137734320e-01 0 0 0
345 2 6.0784689016305684e+00 1.3153944928046871e+01 3.7725186011294380e+00 0 0 0
93 2 1.1997791246249298e+01 7.5820049239281486e+00 1.1269495338866979e+00 0 0 0
94 1 1.3706517695931520e+01 9.6101729518659482e+00 7.4485494619905577e+00 0 0 0
95 2 1.4540763476555670e+01 9.0506485479085956e+00 7.5874151654865685e+00 0 0 0
96 2 1.3078691936117506e+01 9.1207305146287752e+00 6.9759180571418371e+00 0 0 0
97 1 5.2380019036973469e+00 4.3108224267535737e+00 6.2685427468146981e+00 0 0 0
98 2 5.7615845750894881e+00 4.8917552098373811e+00 6.8745562455509628e+00 0 0 0
99 2 4.5838704085175221e+00 3.7179322072179897e+00 6.7422701199538269e+00 0 0 0
100 1 7.8527798880835942e+00 6.1184984257730761e+00 1.3029168284016894e+01 0 0 0
101 2 7.5316284601706425e+00 6.6809603572884768e+00 1.2282463946650841e+01 0 0 0
102 2 8.3991888160191390e+00 5.4670247085399168e+00 1.2638361251165163e+01 0 0 0
103 1 7.6955209321146913e+00 1.1225295435982133e+01 6.1792382026936403e+00 0 0 0
104 2 7.2354831830581485e+00 1.1923531081501338e+01 5.6088267415172828e+00 0 0 0
105 2 7.0881668401936953e+00 1.0477898688893291e+01 6.4405278308780165e+00 0 0 0
106 1 1.0228199851261543e+01 1.3134411008746557e+01 1.2651985666569997e+01 0 0 0
953 2 2.4276819432290146e+01 2.1131318610402527e+01 1.3590884048756900e+01 0 0 0
108 2 1.0958894488002901e+01 1.2480731201451675e+01 1.2463207575019920e+01 0 0 0
109 1 1.2646779611746682e+01 4.0803169507831551e+00 6.1498197527097176e+00 0 0 0
110 2 1.3204656225936155e+01 3.3564292570437138e+00 5.8584687482459952e+00 0 0 0
111 2 1.2229552799426319e+01 4.5077975759457125e+00 5.3536392584125947e+00 0 0 0
112 1 1.5195922477910431e+01 6.4807195488895797e+00 1.2793623847253132e+01 0 0 0
43 1 2.1707319528206639e+01 1.4970241855840813e+01 6.3608480858024850e+00 0 0 0
1109 2 1.2091712372693397e+01 2.2968700086477362e+01 1.1619498427106176e+01 0 0 0
115 1 1.5530699977822508e+01 1.1452144074079513e+01 6.0296262719365021e+00 0 0 0
116 2 1.4783180409936175e+01 1.0952382334841477e+01 6.3650016881881148e+00 0 0 0
117 2 1.5726584138522876e+01 1.2175259040215099e+01 6.7094136169234346e+00 0 0 0
118 1 1.7912077466435772e+01 1.3209592042497007e+01 1.2704299858761937e+01 0 0 0
83 2 6.3230689023107791e+00 1.0052718367157233e+01 8.3006174382646751e+00 0 0 0
120 2 1.7352202919740854e+01 1.3702683225426117e+01 1.2099921045359997e+01 0 0 0
121 1 3.1906033710250767e+00 2.8884685757490338e+00 4.1159515084545282e+00 0 0 0
900 2 1.2677202531433622e+01 2.5804431179131363e+01 1.0624552089736486e+01 0 0 0
123 2 3.4479195601773673e+00 2.0569089088068946e+00 4.5290003585870116e+00 0 0 0
124 1 5.7896778120787378e+00 4.2235699226888181e+00 1.0809039360059293e+01 0 0 0
125 2 6.6834218027193497e+00 4.6001320406540565e+00 1.0544841104968897e+01 0 0 0
126 2 5.9935437994717162e+00 3.3756382315435656e+00 1.1297578109578421e+01 0 0 0
127 1 5.4071048176141563e+00 9.6826424234386455e+00 4.2833084243878536e+00 0 0 0
1571 2 1.1106223649461407e+01 1.2859625872634368e+01 2.6325053180113334e-01 0 0 1
129 2 6.2133312919529393e+00 9.9760319413684844e+00 3.8055910388077026e+00 0 0 0
130 1 8.0338662413872370e+00 1.2022084849857402e+01 1.1296242939543925e+01 0 0 0
42 2 2.0605136920412132e+01 1.0284279190823902e+01 1.2731172008153347e+01 0 0 0
132 2 8.9299187762474226e+00 1.2366333009865272e+01 1.1085486279917854e+01 0 0 0
133 1 1.0415637759859479e+01 2.7837129937639995e+00 4.4576086041437382e+00 0 0 0
134 2 1.0787878978324370e+01 2.0031867566205346e+00 4.8930111245581109e+00 0 0 0
135 2 1.1214588886514040e+01 3.1017960492617607e+00 4.0211105371626834e+00 0 0 0
136 1 1.3304370172666131e+01 4.2880907000785253e+00 1.1265959486179945e+01 0 0 0
137 2 1.3844819647036271e+01 4.9601795096474000e+00 1.0791976242902317e+01 0 0 0
138 2 1.2972297827889594e+01 4.5096226343584096e+00 1.2158792213157614e+01 0 0 0
139 1 1.3397802239749812e+01 1.0019708891216126e+01 4.4291873778929025e+00 0 0 0
140 2 1.4206342345511963e+01 1.0440265899312644e+01 4.0905558418558750e+00 0 0 0
141 2 1.3707910934978374e+01 9.1107280924682907e+00 4.6566403901042870e+00 0 0 0
142 1 1.5950052645924531e+01 1.1556694188202041e+01 1.1140408852526598e+01 0 0 0
143 2 1.6692795799804397e+01 1.1979509497865124e+01 1.0706940113327871e+01 0 0 0
144 2 1.6403359583773796e+01 1.0828702048542409e+01 1.1576016335772943e+01 0 0 0
145 1 6.7852272587634932e+00 1.8608067141294478e+00 5.3058757265434950e+00 0 0 0
146 2 7.5584775737984895e+00 1.6409752902793013e+00 5.8521079319218181e+00 0 0 0
147 2 6.4989095398550836e+00 2.7663526450048481e+00 5.5687317560957519e+00 0 0 0
148 1 9.1320595907189190e+00 3.5981917914169470e+00 1.1852052098792143e+01 0 0 0
149 2 9.4983961277589746e+00 3.7847209001349160e+00 1.0953746294811575e+01 0 0 0
150 2 9.9726169740119701e+00 3.3976417506344481e+00 1.2309147838219499e+01 0 0 0
151 1 9.3232505371597014e+00 9.2293227342765469e+00 5.1930373776879417e+00 0 0 0
152 2 9.0751023630976810e+00 1.0140134918957672e+01 5.4244155447614331e+00 0 0 0
153 2 9.7138891192354357e+00 9.4808755774086091e+00 4.2558935300863547e+00 0 0 0
154 1 1.1894232620253472e+01 1.0982417206191879e+01 1.1864681026289112e+01 0 0 0
155 2 1.1227217074499915e+01 1.0323504364045315e+01 1.1548281728503847e+01 0 0 0
156 2 1.2338814980271879e+01 1.1281174737949019e+01 1.1033668123798128e+01 0 0 0
157 1 1.4333595386443653e+01 2.0309510751526254e+00 5.1315093925548609e+00 0 0 0
158 2 1.5204148958181369e+01 1.7815470353728571e+00 5.5062015733423797e+00 0 0 0
159 2 1.4616015088726932e+01 2.4239569586475538e+00 4.3164556042064728e+00 0 0 0
160 1 1.6748281947436752e+01 4.4001570191277644e+00 1.2292066129237753e+01 0 0 0
161 2 1.6139534511299292e+01 5.1065943131631126e+00 1.2588961906584581e+01 0 0 0
162 2 1.6227160893419285e+01 3.6316034479402899e+00 1.2399436093883677e+01 0 0 0
163 1 1.7040344004737147e+01 9.0338295426483342e+00 5.0163004055377982e+00 0 0 0
164 2 1.6702311984920925e+01 9.8558641884947225e+00 5.3860888827490729e+00 0 0 0
165 2 1.7466255581039142e+01 9.3860550792526407e+00 4.1595700713358319e+00 0 0 0
166 1 1.9324307412788180e+01 1.1052507387345834e+01 1.2051212611867648e+01 0 0 0
167 2 1.8878176669934355e+01 1.1859634178008839e+01 1.2388237532364897e+01 0 0 0
168 2 1.9465681770524235e+01 1.1233037581098340e+01 1.1097127003994039e+01 0 0 0
169 1 9.0648178343154733e+00 4.2715029921058374e+00 6.3764236531132070e+00 0 0 0
170 2 9.6573570397978941e+00 3.6253338096953192e+00 5.9091222596777548e+00 0 0 0
171 2 8.4151987490771702e+00 4.5286492049512548e+00 5.7069777282379421e+00 0 0 0
172 1 1.1508290630072491e+01 5.8836874034634450e+00 1.3200267084615103e+01 0 0 0
1131 2 1.2537164928308666e+01 2.0985229362716083e+01 4.6601564162199978e+00 0 0 0
313 1 3.6375846657566746e+00 4.7937139694655668e+00 1.1670585408909990e+00 0 0 0
175 1 1.1327325769126825e+01 1.1071944357179397e+01 6.3463239928364885e+00 0 0 0
176 2 1.1984362018377746e+01 1.0658552043125425e+01 5.7395038844630539e+00 0 0 0
177 2 1.1813146482042949e+01 1.1879604933016665e+01 6.5676607441506576e+00 0 0 0
178 1 1.4416607272289808e+01 1.3416669887497324e+01 1.2661107083956669e+01 0 0 0
179 2 1.3643061169012620e+01 1.3648091073392560e+01 1.2058684881563781e+01 0 0 0
180 2 1.4937113595152045e+01 1.2749760992277379e+01 1.2239818624617129e+01 0 0 0
181 1 1.6561548976464991e+01 4.1721878622156581e+00 5.8904941793414478e+00 0 0 0
182 2 1.7266618187385706e+01 3.6282958025348324e+00 5.5305599569423345e+00 0 0 0
183 2 1.7035014790065432e+01 4.8882206050795558e+00 6.3934869361741953e+00 0 0 0
184 1 1.8879993501118090e+01 6.1886518200472462e+00 1.3071110223885556e+01 0 0 0
959 2 2.7540110910942769e+01 2.6602156639242459e+01 1.2226144949089180e+01 0 0 0
1857 2 1.1595242710266085e+01 1.5625900077558963e+01 1.3295139556609973e+01 0 0 0
187 1 1.9028484755255519e+01 1.1437078655389454e+01 5.8787446809903487e+00 0 0 0
188 2 1.8702584890163550e+01 1.1079240977683146e+01 6.7372067243382450e+00 0 0 0
189 2 1.9266920259794940e+01 1.2310055872423325e+01 6.2678499472590161e+00 0 0 0
190 1 2.1789275320969804e+01 1.3264634294722715e+01 1.3169876187679028e+01 0 0 0
1085 2 1.0788546452767896e+01 2.1274999834985188e+01 8.4153340071260434e+00 0 0 0
192 2 2.1126478448230959e+01 1.3404149007878630e+01 1.2491123137358315e+01 0 0 0
193 1 8.2683349596218072e+00 2.6450787225952674e+00 2.7735608180468594e+00 0 0 0
194 2 7.5304923986718375e+00 2.5848996173632517e+00 3.3661595227368362e+00 0 0 0
195 2 8.9138534537553227e+00 2.4238055967555718e+00 3.4123525362261278e+00 0 0 0
196 1 1.0844253297966890e+01 4.1804538657771992e+00 9.6675037276416678e+00 0 0 0
197 2 1.0780113476739707e+01 3.3968789179224208e+00 9.0540874010640362e+00 0 0 0
198 2 1.1713258470004320e+01 4.2013520210234594e+00 1.0062410258322352e+01 0 0 0
199 1 1.0896741502449514e+01 9.8588097069178140e+00 3.0828039137292245e+00 0 0 0
200 2 1.0930195285091159e+01 9.1673209627759267e+00 2.3836578478586889e+00 0 0 0
201 2 1.1807721922767213e+01 9.9395852691669369e+00 3.4601293806561384e+00 0 0 0
202 1 1.3839985516528710e+01 1.1602123353939078e+01 9.3154157301948501e+00 0 0 0
203 2 1.4683961341128953e+01 1.1416827620006195e+01 9.7535999899594863e+00 0 0 0
204 2 1.3666036408777302e+01 1.0836080501351503e+01 8.7112247227302166e+00 0 0 0
205 1 1.5990730431907606e+01 2.3854175204995585e+00 2.5135517919978150e+00 0 0 0
1129 1 1.2408946249568618e+01 2.1714630151008770e+01 5.2762435113152124e+00 0 0 0
876 2 1.5805489675893286e+01 2.8074100803837890e+01 1.3663839128382447e+01 0 0 0
208 1 1.8283493093536691e+01 4.7035359135516526e+00 9.8406039574799760e+00 0 0 0
209 2 1.7720880540195363e+01 4.6981322631799474e+00 1.0607495013288318e+01 0 0 0
207 2 1.6062564875693862e+01 1.5107107040465182e+00 2.0968753331951349e+00 0 0 0
211 1 1.8445361315291549e+01 9.7635385996346020e+00 2.7329613187597475e+00 0 0 0
287 2 2.2838895497957868e+01 1.5022358240324074e+01 1.0096783676493855e+01 0 0 0
213 2 1.8005915729976810e+01 1.0484932015386740e+01 2.2227209678833617e+00 0 0 0
214 1 2.0603777471052268e+01 1.1283832475008147e+01 9.4907278684439103e+00 0 0 0
1133 2 1.4866780910065231e+01 2.2685234186697194e+01 1.1420795520834249e+01 0 0 0
80 2 2.8958435518665433e+00 7.3907460668500669e+00 3.9125291079087926e-01 0 0 0
217 1 5.7952592933441078e+00 1.3802363622600746e+00 1.6823085839773828e+00 0 0 0
218 2 4.8890392215978355e+00 1.0721453875995088e+00 1.7783344226480393e+00 0 0 0
219 2 6.1114397742773621e+00 1.5719221653589679e+00 7.5339761391060123e-01 0 0 0
220 1 8.2606044753714905e+00 3.0089301912212729e+00 8.6848455579400792e+00 0 0 0
221 2 8.0430712025309283e+00 3.7577953234745185e+00 9.3208228444114880e+00 0 0 0
222 2 8.4090348346869259e+00 3.4696481414238125e+00 7.8108066226487436e+00 0 0 0
223 1 8.0470262531742947e+00 8.2664666056306366e+00 1.7295259176239208e+00 0 0 0
224 2 8.7283575557373645e+00 7.6006390493075013e+00 2.0834645305541124e+00 0 0 0
225 2 8.3100784080190948e+00 8.6102435309643806e+00 8.7282340218313881e-01 0 0 0
226 1 1.0752044698636599e+01 1.0099253882733858e+01 8.8443772766428008e+00 0 0 0
227 2 1.1383778328480467e+01 9.3475864934638757e+00 9.0615767106595424e+00 0 0 0
228 2 1.1036253852035276e+01 1.0460544534020080e+01 7.9485572304272338e+00 0 0 0
229 1 1.3264035933810828e+01 1.2098212976554963e+00 1.6155689659617263e+00 0 0 0
230 2 1.2393633305183004e+01 7.3677754055910527e-01 1.7678238212290123e+00 0 0 0
231 2 1.3036654454731993e+01 2.0796338438164961e+00 2.0813326720940806e+00 0 0 0
232 1 1.5592409379212086e+01 3.3579369043334943e+00 8.4153862838253453e+00 0 0 0
233 2 1.5998288830933756e+01 2.5134035920315312e+00 8.6718533139713063e+00 0 0 0
234 2 1.5967335533111482e+01 3.5253460081105805e+00 7.4826775601648814e+00 0 0 0
235 1 1.5540213724958313e+01 8.4147520124463426e+00 1.6629597902110098e+00 0 0 0
236 2 1.5571836025143167e+01 8.6434804429687500e+00 7.2636266083831025e-01 0 0 0
237 2 1.6269097269816275e+01 7.7932249869388928e+00 1.7883429050861828e+00 0 0 0
238 1 1.8080651680292505e+01 1.0287442313467800e+01 8.2860769610656888e+00 0 0 0
239 2 1.8613881117737002e+01 9.6093195634977953e+00 8.6917759202366263e+00 0 0 0
240 2 1.7962253635128196e+01 1.1082966070982446e+01 8.8790640913549890e+00 0 0 0
241 1 7.6520317763418566e+00 4.8056126323451007e+00 1.1031390793696434e+00 0 0 0
242 2 7.8759406596524837e+00 4.1264586775548961e+00 1.7484262274035971e+00 0 0 0
243 2 6.8247139734672375e+00 5.2657285197953900e+00 1.3984709483239040e+00 0 0 0
244 1 1.0091860926514208e+01 6.1786272421690853e+00 7.8866511670119674e+00 0 0 0
245 2 1.0473008582213986e+01 5.5530687050386458e+00 8.6128022769334063e+00 0 0 0
246 2 9.8192254975304500e+00 5.5696274012038813e+00 7.1651349329104734e+00 0 0 0
247 1 1.0192526989184891e+01 1.1625403966051021e+01 1.0815049791364419e+00 0 0 0
248 2 9.5236525502915939e+00 1.2048426178946105e+01 1.5657501122279349e+00 0 0 0
249 2 1.0588132605506274e+01 1.1071332576674493e+01 1.7756546063431005e+00 0 0 0
250 1 1.2877058145586622e+01 1.3202080367179466e+01 7.4542298625264278e+00 0 0 0
251 2 1.3332182132923272e+01 1.2873316407439507e+01 8.2507939834579300e+00 0 0 0
252 2 1.3423740349372544e+01 1.3963691858380930e+01 7.0686362029488192e+00 0 0 0
253 1 1.5020602188281602e+01 4.6636230073022071e+00 9.1049398306864349e-01 0 0 0
254 2 1.5324597086968991e+01 4.0662834970852160e+00 1.5976705220811889e+00 0 0 0
255 2 1.4515824921013259e+01 5.3331043670552516e+00 1.4233585882756252e+00 0 0 0
256 1 1.7657418264783029e+01 6.0108363587868450e+00 7.5395745520528017e+00 0 0 0
257 2 1.8074081394376108e+01 5.7180739026224234e+00 8.4424364236090756e+00 0 0 0
258 2 1.6924985380142942e+01 6.6294142217858960e+00 7.8136870721710414e+00 0 0 0
259 1 1.7586864888797926e+01 1.1558286482895623e+01 7.4800310962831695e-01 0 0 0
260 2 1.6897902663529390e+01 1.2210186794789832e+01 1.0380961018880686e+00 0 0 0
1022 2 1.9758395235529054e+01 1.7974477666615496e+01 3.4574471586465189e-01 0 0 0
262 1 1.9953312527942327e+01 1.3252822304582258e+01 7.7682315833351598e+00 0 0 0
263 2 2.0412473387021436e+01 1.2457511551791452e+01 8.1245142625983870e+00 0 0 0
264 2 2.0684573912716431e+01 1.3782105987638833e+01 7.3633994385628494e+00 0 0 0
265 1 9.5605880197745865e+00 6.2906526786511456e+00 2.9668437505478287e+00 0 0 0
266 2 8.8244737259855235e+00 5.7835807515014359e+00 3.3059095121654023e+00 0 0 0
267 2 1.0036485336670840e+01 5.7506337791549189e+00 2.3288448840300093e+00 0 0 0
268 1 1.2305623196596791e+01 7.8765368577550650e+00 9.6025614151676315e+00 0 0 0
269 2 1.2538022147528171e+01 7.3678489537266731e+00 8.8119194622177623e+00 0 0 0
270 2 1.1632504012507471e+01 7.4458076477464150e+00 1.0190952695069409e+01 0 0 0
271 1 1.2182357675870247e+01 1.3247451070518874e+01 2.5356093798057215e+00 0 0 0
272 2 1.2845994661791767e+01 1.3569920088930383e+01 3.1654369503335005e+00 0 0 0
273 2 1.1382001641948829e+01 1.3013597058181267e+01 3.1539150477868225e+00 0 0 0
274 1 1.4572700205855346e+01 1.5108939584412873e+01 9.4822169574314312e+00 0 0 0
275 2 1.4274568062737902e+01 1.5990073281515183e+01 9.2056226195925017e+00 0 0 0
276 2 1.5423494973720071e+01 1.5220189510255389e+01 9.9830262414222428e+00 0 0 0
277 1 1.7208895006692515e+01 6.0820616412247626e+00 2.6403683435658718e+00 0 0 0
278 2 1.6352163589760750e+01 5.7841679672194193e+00 2.9804344629656989e+00 0 0 0
1141 1 2.0170175740285870e+01 2.1582483946486626e+01 5.2679534382987994e+00 0 0 0
280 1 1.9675011840876763e+01 7.8542475559618428e+00 9.5869350977619483e+00 0 0 0
855 2 1.2729025074187627e+01 1.4319898942065858e+01 4.4934321204204858e-01 0 0 0
46 1 2.3979046193390296e+01 1.7161883680004046e+01 1.3253926161137253e+01 0 0 0
283 1 1.9569660971201554e+01 1.3251639916214872e+01 2.6112621014927666e+00 0 0 0
1128 2 2.2221431119223073e+01 2.9766162392770461e+01 1.1696663569605304e+01 0 0 0
798 2 1.8809101730515977e+01 2.3304766923783372e+01 1.3643950606084299e+01 0 0 0
1089 2 1.1011242136447002e+01 2.5259682952518848e+01 2.5530245341108870e-01 0 0 0
860 2 1.5908105654176486e+01 2.1226435421305585e+01 5.1050856306923986e-01 0 0 0
288 2 2.1823712535855474e+01 1.5405914989659475e+01 8.8695327843602492e+00 0 0 0
289 1 5.7915515783917337e+00 6.8284503834252863e+00 1.8833814189036360e+00 0 0 0
290 2 5.4042272804463867e+00 6.5469593387174738e+00 2.7243943599810407e+00 0 0 0
291 2 6.5505057083170346e+00 7.4374468175331110e+00 2.0505246581656698e+00 0 0 0
292 1 8.6220791007597786e+00 8.3392562287047465e+00 8.4312403203361743e+00 0 0 0
293 2 9.1733922107918708e+00 7.5201196098113030e+00 8.1651163004709240e+00 0 0 0
294 2 9.2377982233718221e+00 9.0622018553922601e+00 8.4266520922025485e+00 0 0 0
295 1 8.2498396389894353e+00 1.3962827332080126e+01 1.6708138019789427e+00 0 0 0
296 2 8.1145407176344158e+00 1.3814539515108569e+01 2.5845029531203298e+00 0 0 0
297 2 7.4029750366775691e+00 1.4196134832862151e+01 1.2788411575513814e+00 0 0 0
298 1 1.1163089207998063e+01 1.5770723735472707e+01 8.7299985818655426e+00 0 0 0
299 2 1.1494279059279783e+01 1.4904685120147551e+01 8.4392524577458161e+00 0 0 0
300 2 1.0366197882350376e+01 1.5793281321603805e+01 8.2321802027477222e+00 0 0 0
301 1 1.3108639769546999e+01 6.9333789868416362e+00 1.9757668803580346e+00 0 0 0
302 2 1.2711299272200382e+01 6.8580401754878801e+00 2.8585417271439044e+00 0 0 0
303 2 1.3928862522269149e+01 7.5083021564534409e+00 2.0236740416950063e+00 0 0 0
304 1 1.5935116989884030e+01 8.1798993879479944e+00 8.1668320184161249e+00 0 0 0
305 2 1.5885961166445728e+01 8.2036848506113955e+00 9.1314485418926026e+00 0 0 0
306 2 1.6681682510664722e+01 8.7862529315146887e+00 7.9239873323344963e+00 0 0 0
307 1 1.5945403378417190e+01 1.3760879740767848e+01 1.5798500381034231e+00 0 0 0
308 2 1.5169278779479473e+01 1.3908298118854542e+01 1.0472819150329431e+00 0 0 0
309 2 1.6551986990536566e+01 1.4525920294509675e+01 1.5592446831016102e+00 0 0 0
310 1 1.8479830646394596e+01 1.5544480124389832e+01 8.6807819857590722e+00 0 0 0
311 2 1.8893747986384071e+01 1.4734138800187653e+01 8.2687284852569984e+00 0 0 0
312 2 1.7889849250318719e+01 1.5910069259160910e+01 7.9644799313910886e+00 0 0 0
36 2 1.6169743192299492e+01 1.6540388336710798e+01 1.3376843022090457e+01 0 0 0
344 2 6.7073838396254795e+00 1.3876921942011561e+01 4.8743762189568729e+00 0 0 0
315 2 4.3866059954197034e+00 4.2750878987979952e+00 1.4994956304648432e+00 0 0 0
316 1 6.6550518864234309e+00 6.1531711059817509e+00 7.6039708671954127e+00 0 0 0
317 2 6.8416595700590221e+00 6.8898709791400483e+00 6.9753631770267690e+00 0 0 0
318 2 5.9576551198332783e+00 6.5484959823886406e+00 8.2231959190892283e+00 0 0 0
319 1 5.8077233289399715e+00 1.1947690090277215e+01 1.0156987001264584e+00 0 0 0
978 2 2.3303325043554754e+01 1.7826103279659094e+01 8.9091918520782656e+00 0 0 0
321 2 6.5493704886637190e+00 1.1620139498831836e+01 1.5881399016271587e+00 0 0 0
322 1 9.0679188249876113e+00 1.3321280156794799e+01 7.3085668819293828e+00 0 0 0
323 2 8.3903508614627889e+00 1.3775334956223986e+01 7.8354712706542351e+00 0 0 0
324 2 8.6626538711621635e+00 1.2563633553117679e+01 6.8558449272958706e+00 0 0 0
325 1 1.1217288588110234e+01 4.8883438159930348e+00 1.0125594509272011e+00 0 0 0
1127 2 2.1285269515587405e+01 2.9175376601518785e+01 1.0499295373847263e+01 0 0 0
1082 2 8.1770672804174591e+00 1.8041086104916065e+01 4.5288531924616066e-01 0 0 0
328 1 1.3530008783076173e+01 6.3721661988116800e+00 7.4222876609439066e+00 0 0 0
329 2 1.3408246182290842e+01 5.4304680354148136e+00 7.1420440890012662e+00 0 0 0
330 2 1.4142064632844994e+01 6.3100244994998125e+00 8.1421209343253640e+00 0 0 0
331 1 1.3812913128193061e+01 1.1748953685175911e+01 7.3787411507257195e-01 0 0 0
332 2 1.3179033653856676e+01 1.2258601120215681e+01 1.2294943167505055e+00 0 0 0
333 2 1.4448211753462473e+01 1.1578188426434600e+01 1.4136843039640674e+00 0 0 0
334 1 1.6377847936897410e+01 1.3545161014968057e+01 7.5972577373271859e+00 0 0 0
335 2 1.6663508863839812e+01 1.4205170583682216e+01 6.8668319007902747e+00 0 0 0
336 2 1.5824481591488590e+01 1.4156132452750434e+01 8.0764119256563625e+00 0 0 0
337 1 4.4932620858640178e+00 6.1806913037833118e+00 4.4574779671034319e+00 0 0 0
338 2 4.6985842876999619e+00 5.3962512301633581e+00 5.0636843145341670e+00 0 0 0
92 2 1.0682407604594253e+01 7.6722866327064860e+00 1.3616342431454903e-01 0 0 0
340 1 7.2720778854322301e+00 7.9121623011129500e+00 1.1079909657781114e+01 0 0 0
1134 2 1.4581755001130901e+01 2.3000393919491628e+01 1.2900587126772960e+01 0 0 0
342 2 7.9676049196361518e+00 8.2148616656674083e+00 1.0471736375645261e+01 0 0 0
343 1 6.9269850910872419e+00 1.3211939308349001e+01 4.2034991667361599e+00 0 0 0
889 1 8.1105301013452333e+00 1.6605274021770310e+01 4.1881496063443464e+00 0 0 0
842 2 5.3195982738731233e+00 1.4344866563392713e+01 1.6538142072436923e-01 0 0 0
346 1 9.3742803380024036e+00 1.5026220540956052e+01 1.0901281339653192e+01 0 0 0
347 2 1.0169716898156206e+01 1.5292801361362084e+01 1.0383396161683280e+01 0 0 0
348 2 9.7139591717976046e+00 1.4248781061944836e+01 1.1351703409340061e+01 0 0 0
349 1 1.1912260987712399e+01 6.2335133383052179e+00 4.2675487738055988e+00 0 0 0
350 2 1.2012076411329243e+01 6.9467540295262289e+00 4.9099718693825141e+00 0 0 0
351 2 1.0941342747867534e+01 6.2455198912931182e+00 4.1608112393747438e+00 0 0 0
352 1 1.4644912248872380e+01 8.7179757613763478e+00 1.0773710072574351e+01 0 0 0
353 2 1.4750610108777154e+01 7.9782215536584351e+00 1.1323244490376126e+01 0 0 0
354 2 1.3706875484072718e+01 8.7313788955699341e+00 1.0605681172563200e+01 0 0 0
355 1 1.4614337726755522e+01 1.3632782925377953e+01 4.2119807336512247e+00 0 0 0
356 2 1.4766563734549074e+01 1.2892215592789041e+01 4.7827662240721356e+00 0 0 0
357 2 1.5090490781478836e+01 1.3487165673239755e+01 3.3632070862158434e+00 0 0 0
358 1 1.6822982191952299e+01 1.5439906703692163e+01 1.1062176910342998e+01 0 0 0
359 2 1.6814146749645769e+01 1.6152228710962177e+01 1.1747587635985390e+01 0 0 0
360 2 1.7614901804298889e+01 1.5514385243975575e+01 1.0544690599869194e+01 0 0 0
361 1 7.0021105751288530e+00 7.7682858354685820e+00 5.2603043277367991e+00 0 0 0
362 2 6.2583728551706113e+00 8.3948398204809802e+00 5.1743439656121568e+00 0 0 0
363 2 7.8092317036964749e+00 8.3621544644774328e+00 5.2893616273197201e+00 0 0 0
364 1 9.7147269730720893e+00 9.4413194180248716e+00 1.1849525669091056e+01 0 0 0
365 2 9.0826156893096197e+00 9.9164123689364541e+00 1.1324342396812629e+01 0 0 0
366 2 9.5024129560109607e+00 9.6509972433383631e+00 1.2764636258517591e+01 0 0 0