LAMMPS data file via write_data, version 15 Apr 2020, timestep = 4775000

6144 atoms
2 atom types

-4.0240291715546164e+00 6.3992318307592861e+01 xlo xhi
0.0000000000000000e+00 2.8150479298384795e+01 ylo yhi
0.0000000000000000e+00 2.7211303629882792e+01 zlo zhi
1.0170455951276892e+01 1.0192985754328788e+01 7.1292494879549935e+00 xy xz yz

Masses

1 16
2 2

Atoms # atomic

5943 2 1.0293307514605058e+01 2.4014040109016985e+01 1.6686956344856235e+01 1 0 0
359 2 9.9224120189968250e+00 2.1694062712983857e+01 2.0345760385312015e+01 0 0 0
4267 1 1.4017440801353921e+01 3.0491564675774804e+01 2.2625919532623747e+01 1 0 -1
5942 2 9.8482195062708726e+00 2.3514893119155403e+01 1.5200077228024480e+01 1 0 0
5204 2 1.1529448591597987e+01 2.5060597056016725e+01 1.9524993124135957e+01 1 -1 0
5038 1 7.6101712476527972e+00 1.6184831641372728e+01 1.9662387060519375e+01 1 0 0
801 2 1.3009678399620704e+01 3.1108246115540915e+01 1.6047938672563181e+01 0 0 0
2327 2 8.3050848335682659e+00 1.3406778494291618e+01 2.0277739100587539e+01 0 1 0
127 1 8.7733048932234947e+00 1.9443789102477560e+01 1.3581048853348770e+01 0 1 0
3665 2 1.1026472753455661e+01 2.5925583676969495e+01 1.3339205542826349e+01 1 -1 0
2264 2 8.8284427378604811e+00 1.4899103637513484e+01 2.4223422563695610e+01 0 0 1
2678 2 4.9493799902902147e+00 1.1033721149582995e+01 1.3235671565451904e+01 0 1 0
2473 1 1.3505609416301233e+01 2.5454149135880602e+01 2.3833957292104785e+01 0 -1 0
2565 2 7.3688118887742675e+00 2.6528821790082361e+01 4.7186446403135891e+00 0 0 0
2812 1 6.3464316903306965e+00 1.8064751074206463e+01 1.3016729579858989e+01 0 0 0
212 2 1.2629765988291656e+01 2.6237987560153755e+01 1.8207749010433155e+01 0 -1 0
2447 2 5.6128051755530262e+00 1.6936911405218787e+01 9.2012268639218266e+00 0 0 0
1134 2 6.7871791581223846e+00 1.1423212928569461e+01 2.2020429120002209e+01 0 2 -1
297 2 9.4792816607465937e+00 2.8604630493925331e+01 7.5411750005710045e+00 0 -1 0
2643 2 4.4220998355968462e+00 1.3181971270979579e+01 8.7973114730463724e+00 0 0 1
204 2 6.0599268997539504e+00 1.2006417215706456e+01 1.7144986799027478e+01 0 1 0
2687 2 3.9772116476335029e+00 9.0116900796387061e+00 1.2929498577476975e+01 0 1 1
1517 2 8.7123982082079277e+00 2.2456123670564111e+01 1.3383120780102486e+01 0 1 0
2326 1 8.2892343890882287e+00 1.3671430443557979e+01 1.9330369799265672e+01 0 1 0
5996 2 1.3450647808671988e+01 2.9106992564486326e+01 1.9068264423411733e+01 1 0 0
5206 1 1.0645704654240472e+01 1.6049059253131027e+01 2.5644631199549941e+01 1 0 0
1879 1 7.7820327325894567e+00 7.6269577370539618e+00 2.5993090174374206e+01 0 0 0
786 2 1.4466501387522573e+01 3.1689464401764816e+01 1.9280035317879005e+01 0 0 0
4239 2 1.2066376382728727e+01 2.2687173493165336e+01 2.5453153059099986e+01 1 0 -1
628 1 -1.0445170848775622e+00 1.9835989544901389e+00 4.8977495253285861e+00 0 0 1
3715 1 8.5331008036767351e+00 1.3491224625144403e+01 2.1846512213517496e+01 1 0 -1
1657 1 5.7037734294099778e+00 6.5908882707189731e+00 2.4367312773511294e+01 0 0 -1
2474 2 1.3718657748547010e+01 2.4867545359539601e+01 2.3114608929813741e+01 0 -1 0
962 2 1.2539523366413974e+01 2.0545546726118769e+01 2.5893202578449827e+01 0 -1 0
5009 2 1.5055356160100590e+01 3.2499399782206517e+01 2.2080272962566333e+01 1 -1 0
1766 2 5.0531016343860404e+00 5.6748703164753334e+00 1.7214771961449937e+01 0 0 0
1925 2 7.7099860529369373e+00 2.5380711138143507e+01 7.6805745784919732e-01 0 -1 0
1249 1 8.8182361365852895e+00 2.0911985150282423e+01 1.6387566201837021e+01 0 1 0
211 1 1.2462550601296819e+01 2.6406598022983829e+01 1.7247263734053917e+01 0 -1 0
2512 1 7.2585673058421349e+00 2.3466871919705234e+01 2.9051087749750573e+00 0 0 0
3622 1 6.7767548981637198e+00 1.2292381716389864e+01 5.5165669719066965e+00 1 0 0
5008 1 1.5761690501173085e+01 3.3193658952910660e+01 2.2079934288365340e+01 1 -1 0
800 2 1.4150246858376214e+01 3.1777136504864938e+01 1.6909173076974003e+01 0 0 0
3666 2 1.1125479865248908e+01 2.5263439630831304e+01 1.4729326332139587e+01 1 -1 0
2530 1 5.2255080446653039e+00 1.4864324040017502e+01 6.2984353173316094e+00 0 0 1
5828 2 8.5206408186161013e+00 1.7109993031482880e+01 1.5198447814177221e+01 1 0 0
84 2 4.3975443492912696e+00 7.4182917492517397e+00 2.0150858753199287e+01 0 0 -1
129 2 8.8602933961546952e+00 1.9413194427854837e+01 1.2603350107878486e+01 0 1 0
344 2 1.0465101050534857e+01 1.7977616343494926e+01 2.5055814090126276e+01 0 0 -1
192 2 1.6538029237610274e+00 4.3056228454671395e+00 1.3179583751000614e+01 0 1 0
128 2 8.4594427397997052e+00 1.8537308409126666e+01 1.3857270767201888e+01 0 1 0
117 2 1.6782075861860788e+00 1.2823116197637203e+01 2.1911012655697277e+00 0 0 0
2531 2 5.0890810221545539e+00 1.4603569141282147e+01 7.2625880654033104e+00 0 0 1
2532 2 6.2108001465058695e+00 1.4993586047844897e+01 6.3053443362747075e+00 0 0 1
2328 2 7.8116640856960728e+00 1.3070664733793965e+01 1.8749450641785259e+01 0 1 0
5994 2 9.9397649052972348e+00 1.8159416346988682e+01 2.1663354197679901e+01 1 0 0
629 2 9.5654806395857541e+00 2.9492815023920336e+01 5.5191835693910507e+00 0 -1 1
4439 2 1.5573034131697824e+01 3.0934642554438504e+01 2.5259275129881729e+01 1 0 -1
3002 2 8.3668458773687604e-01 4.3623035274453867e+00 9.4394312647259699e+00 0 1 0
3624 2 6.0185190169667671e+00 1.2874336480322802e+01 5.3788528169425076e+00 1 0 0
2513 2 7.0803164551912250e+00 2.4238368571557334e+01 2.3266677040859038e+00 0 0 0
799 1 1.3832301350457882e+01 3.0924710515373679e+01 1.6540218878101104e+01 0 0 0
1980 2 5.7027461829916231e+00 2.0171016031430856e+01 6.9004594335538583e+00 0 -1 1
343 1 9.9255496808939547e+00 1.8793105896573671e+01 2.4937533256769630e+01 0 0 -1
5989 1 7.3197349241577641e+00 1.8487988874288053e+01 1.6256305297990007e+01 1 0 0
2750 2 7.1518273198194198e+00 2.3664581657588297e+01 9.2163834807380827e+00 0 0 1
784 1 1.3816892876081312e+01 3.2386545499758775e+01 1.9420857984244471e+01 0 0 0
751 1 3.0054664733591725e+00 1.2138926747998163e+01 8.3712415939969897e+00 0 0 0
2311 1 8.0250273827568108e+00 1.0571086406761232e+01 2.1394728591970544e+01 0 1 -1
6069 2 1.1578294584741387e+01 2.8762240343524880e+01 1.6238997673700378e+01 1 0 0
5010 2 1.5837977770866267e+01 3.3614296805656970e+01 2.2933278430369612e+01 1 -1 0
5827 1 9.1364664919393697e+00 1.6595072884713751e+01 1.4688009490816734e+01 1 0 0
958 1 3.0558268003481235e+00 1.5918435974852008e+01 3.4939442834585983e+00 0 2 0
1737 2 4.4183272000778206e-01 5.8639865345521924e+00 2.3054126005854632e+00 0 0 1
2446 1 6.3121966621337950e+00 1.7199000445911071e+01 8.5579377815437851e+00 0 0 0
2448 2 6.0858152073863181e+00 1.8079120201618750e+01 8.1575710112741984e+00 0 0 0
959 2 3.7184400007694789e+00 1.5383861504587941e+01 3.0994983818737127e+00 0 2 0
3623 2 7.0228161459517420e+00 1.2435076219389614e+01 6.4551380099620426e+00 1 0 0
2265 2 8.3908528776283422e+00 1.4896626020773491e+01 2.2765712371791068e+01 0 0 1
4269 2 1.4279299864790481e+01 3.0137639577217350e+01 2.3477504882049271e+01 1 0 -1
792 2 1.1901558174514065e+01 2.0778561633841452e+01 2.3817057512885622e+01 0 -1 -1
1924 1 6.8992413477562309e+00 2.5785803221281178e+01 1.2043712762055010e+00 0 -1 0
2475 2 1.4260865247703215e+01 2.6066725167014486e+01 2.4031079384681394e+01 0 -1 0
798 2 5.1294678655863777e+00 2.1963517644376115e+01 1.2797486765151369e+00 0 0 1
5203 1 1.2224929675520244e+01 2.5593095411677858e+01 1.9943881792811762e+01 1 -1 0
796 1 5.9162663234069939e+00 2.1555537344274025e+01 1.5942570453773426e+00 0 0 1
6068 2 1.1252712581701051e+01 2.7754131414867778e+01 1.5066324111092429e+01 1 0 0
2589 2 9.4172557736537428e+00 2.6200777072255264e+01 8.6405705581709533e+00 0 0 0
2347 1 8.9316477816809865e+00 2.5842237007355219e+01 5.2054817759136016e+00 0 0 1
2390 2 1.0698461161039024e+01 2.5533283698873682e+01 1.0799271694468027e+01 0 0 0
961 1 1.3367014351840702e+01 2.0699304408455578e+01 2.6528174572285568e+01 0 -1 0
963 2 2.7721717202029152e+00 1.3590629106197323e+01 2.3712958838171658e-01 0 -1 1
1979 2 7.3069107810413669e+00 2.0175127889234901e+01 7.3080826930844571e+00 0 -1 1
1978 1 6.5110081912504594e+00 1.9591382381373826e+01 7.0316313947086035e+00 0 -1 1
3758 2 -6.2612489142592365e-01 2.3431137036096490e+00 8.9012623580704187e+00 1 0 0
5995 1 1.2701450665778676e+01 2.9220674373517102e+01 1.8492146236469875e+01 1 0 0
5208 2 9.8880797983420692e+00 1.6126056607982804e+01 2.6193835383546460e+01 1 0 0
2514 2 6.8160791604866127e+00 2.2682386665256395e+01 2.4431018818233259e+00 0 0 0
323 2 6.4504679065068302e+00 1.4730018708907650e+01 1.3038103276042207e+01 0 0 0
1580 2 7.3333580717702915e+00 2.0595628725968012e+01 1.3683528864138122e+01 0 0 1
2749 1 8.0115938151200510e+00 2.3199576982919552e+01 8.9657715801797675e+00 0 0 1
6067 1 1.1480824127848088e+01 2.8689696071974868e+01 1.5240216043039233e+01 1 0 0
3692 2 1.0343044019939907e+00 6.3171029927553644e+00 6.0919672172067925e+00 1 0 0
2354 2 4.5739976686309056e+00 1.6392970299960105e+01 6.1244718189288401e+00 0 1 0
2187 2 6.5120420803073671e+00 8.1817493011857394e+00 1.6104923928366215e+01 0 1 -1
2386 1 1.1402474212071821e+01 2.8045190604789720e+01 9.6413812222759780e+00 0 1 0
2387 2 1.1025125153685924e+01 2.7375273479534211e+01 1.0169431244940984e+01 0 1 0
2185 1 6.4584189895829667e+00 8.5843601971870598e+00 1.5175824499779649e+01 0 1 -1
483 2 3.4718709867291473e+00 1.1944829793598730e+01 4.1234376747255324e+00 0 0 0
481 1 2.5913768970829034e+00 1.1533839025706675e+01 4.1654520891223488e+00 0 0 0
266 2 7.2169919324534426e-01 3.7699772944021626e+00 7.0981063031060172e+00 0 0 -1
482 2 2.9212905445559185e+00 1.0637070312421359e+01 4.0908358207535382e+00 0 0 0
305 2 1.2654850683150997e+01 2.8964258045840005e+01 1.4020735182501575e+01 0 -1 -2
2751 2 8.6481258020955565e+00 2.3978797476180695e+01 8.8901737341334677e+00 0 0 1
5801 2 8.9276994851021190e+00 2.4003712936356933e+01 5.6932226755837441e+00 1 0 1
191 2 1.6785201137138532e+00 4.0433379269922547e+00 1.1688740369280046e+01 0 1 0
24 2 6.3404126267423884e+00 6.9202523816801209e+00 1.8590888993126406e+01 0 1 0
5802 2 8.6869312452167904e+00 2.3278045178019550e+01 7.0090399520080977e+00 1 0 1
797 2 5.7522937492525319e+00 2.0638568945487258e+01 2.0092272426581106e+00 0 0 1
1345 1 -2.7991027868528313e+00 5.0329986714641173e-01 1.2478214374791743e+00 0 1 0
1881 2 7.0885397698183699e+00 7.2812729191332757e+00 2.5410381744390943e+01 0 0 0
785 2 1.4366944911185033e+01 3.3239813984216859e+01 1.9506504621531668e+01 0 0 0
82 1 4.8490911541718802e+00 6.5528256945145129e+00 2.0031612360117975e+01 0 0 -1
1346 2 -2.8498861790544572e+00 6.4622745910918589e-01 2.7907409759401852e-01 0 1 0
202 1 6.7865656387075077e+00 1.2203628085668171e+01 1.7805573714154288e+01 0 1 0
435 2 8.7491852873797455e+00 1.9194675898146158e+01 1.9337542112396356e+01 0 -1 0
1926 2 7.2331219154602486e+00 2.6680485844948642e+01 1.4595431384740751e+00 0 -1 0
2679 2 5.1139141035037614e+00 1.2601419595991070e+01 1.3446005875275009e+01 0 1 0
3717 2 7.6882188656552284e+00 1.2935353086339060e+01 2.1946945660436800e+01 1 0 -1
360 2 1.0506975362352016e+01 2.2823635085248242e+01 2.1301740536169188e+01 0 0 0
1516 1 9.2692038310687401e+00 2.3219460862544508e+01 1.3205524077558762e+01 0 1 0
4438 1 1.4696827307389839e+01 3.1124610248842750e+01 2.5632442999537531e+01 1 0 -1
2677 1 4.5097094857002826e+00 1.1842506813367814e+01 1.3686621005544994e+01 0 1 0
322 1 5.5985616612285440e+00 1.4291501298716767e+01 1.3123120819947497e+01 0 0 0
83 2 5.0280277900196353e+00 6.1518983375528986e+00 2.0931956890002400e+01 0 0 -1
5223 2 2.6783252815626284e+00 7.1566863514254742e+00 1.4214494359067031e+01 1 0 0
976 1 1.0677672690629255e+01 2.4202504361179997e+01 1.8426299309517649e+01 0 0 0
1659 2 1.5555307183344809e+01 3.4565832020588005e+01 2.5331233763710813e+01 0 -1 -1
433 1 8.8714082644035592e+00 1.8404304405839746e+01 1.8771812769265104e+01 0 -1 0
790 1 1.1430785346092900e+01 2.0846604405264888e+01 2.4683994034338564e+01 0 -1 -1
1518 2 9.8264221341134821e+00 2.3037671574749382e+01 1.2415095734156072e+01 0 1 0
1155 2 1.0603025337390655e+00 9.5860451983111297e+00 1.5829983469476891e+00 0 0 1
3664 1 1.1047816845689912e+01 2.6111734773633522e+01 1.4274014901061269e+01 1 -1 0
2641 1 4.9636183239925771e+00 1.4021810445086555e+01 8.7736934466307250e+00 0 0 1
434 2 8.5647822828695936e+00 1.7640294636628049e+01 1.9270760737026848e+01 0 -1 0
791 2 1.0800358561697823e+01 2.0103138408067839e+01 2.4793403140166749e+01 0 -1 -1
5997 2 1.3012804138200792e+01 2.9842596182835123e+01 1.7869937741213178e+01 1 0 0
3691 1 3.3792812080949908e-01 6.4321997551641568e+00 6.8725800460850150e+00 1 0 0
5990 2 7.8749078631870510e+00 1.8511730660204329e+01 1.7052531722613796e+01 1 0 0
2642 2 4.5886759303735047e+00 1.4380736827829280e+01 9.5983279333685800e+00 0 0 1
5040 2 7.8925483663023233e+00 1.5235894838830507e+01 1.9547545827610413e+01 1 0 0
324 2 5.1099099456519141e+00 1.4523104772630550e+01 1.2352869082462989e+01 0 0 0
1880 2 8.2759312532017617e+00 8.3115163184695202e+00 2.5462489016964586e+01 0 0 0
2332 1 1.0437229379543211e+01 2.2853132606341930e+01 1.0695871021715579e+01 0 0 0
3638 2 1.4856607062110669e+01 2.7796201197878563e+01 2.5805410510254625e+01 1 -1 -1
1668 2 1.1979130140862161e+01 2.1304790089794764e+01 2.1558917234277267e+01 0 0 0
295 1 9.8792589387729173e+00 2.8133953306861763e+01 6.7128133212315273e+00 0 -1 0
203 2 7.0396284615976583e+00 1.1258983071524572e+01 1.8093164391248440e+01 0 1 0
279 2 1.2416091402351832e+01 2.3060633823482025e+01 1.4947426828457868e+01 0 -1 0
630 2 -6.2427377441018006e-01 2.8412372446122167e+00 5.1089547502441670e+00 0 0 1
14 2 1.5426560009415127e+01 2.9631371666432994e+01 1.9519178325389873e+01 0 -1 -1
13 1 1.4799505171806391e+01 2.9399861038288286e+01 2.0212000360647838e+01 0 -1 -1
1853 2 1.5276165928031080e+01 3.1756574741741645e+01 1.4450878332889332e+01 0 -1 1
2349 2 9.3596647678341292e+00 2.6471464648729139e+01 5.7767171846380512e+00 0 0 1
1560 2 7.1330712696290242e+00 9.2420395614428230e+00 1.8489018418895206e+01 0 1 0
116 2 2.0694517139128212e+00 1.4314957208162872e+01 2.2886857496061195e+00 0 0 0
213 2 1.2446447496884289e+01 2.5531406187247441e+01 1.6866305213364949e+01 0 -1 0
115 1 1.6612966519785477e+00 1.3658849726901247e+01 1.7020814365165755e+00 0 0 0
2839 1 5.5834853751554832e+00 9.6864925482034927e+00 1.2617130001467675e+01 0 0 1
5992 1 1.0856381232811268e+01 1.8324733152345942e+01 2.1483997269270368e+01 1 0 0
5993 2 1.1324552683017480e+01 1.8347150567454992e+01 2.2384660083260293e+01 1 0 0
3716 2 9.2649236246815292e+00 1.2919881536208955e+01 2.2245346511918573e+01 1 0 -1
1765 1 5.4066567547183269e+00 4.7442738405813536e+00 1.7138029371482350e+01 0 0 0
1902 2 1.0368537276067496e+01 1.8406679306994924e+01 1.7827741529510423e+01 0 0 1
2841 2 5.4368210687742735e+00 9.5514254344872782e+00 1.1651128716440741e+01 0 0 1
5207 2 1.1104129655561742e+01 1.5261564620521964e+01 2.6038442118715817e+01 1 0 0
2313 2 8.7145596035365696e+00 1.0194215286690284e+01 2.1914229971274196e+01 0 1 -1
2312 2 7.9789320537185269e+00 1.0137945166895690e+01 2.0553429321029672e+01 0 1 -1
23 2 7.7021711433939153e+00 7.2173957107474562e+00 1.7902843274366454e+01 0 1 0
2334 2 1.1224345531715223e+01 2.2440472348864532e+01 1.0288245278257389e+01 0 0 0
3639 2 1.5596727785533844e+01 2.7225645741812592e+01 2.4501512145014779e+01 1 -1 -1
3637 1 1.4906830185132470e+01 2.7871819635821396e+01 2.4825742569232659e+01 1 -1 -1
1772 2 8.5343832436823135e+00 6.8495942692277740e+00 2.1225653133893406e+01 0 1 -1
2333 2 9.7059958829383355e+00 2.2611113498143570e+01 1.0134629607009165e+01 0 0 0
1771 1 8.1959901113202953e+00 7.3305903454893784e+00 2.2026522038862982e+01 0 1 -1
2587 1 9.9565524127899963e+00 2.5411123261204548e+01 8.6362127359917693e+00 0 0 0
2987 2 9.6661268845927211e+00 6.9931686647542630e+00 1.9397446611389185e+01 0 1 1
2631 2 7.6928294737256966e+00 1.2009811861654546e+01 8.5155577893153698e+00 0 0 0
1956 2 1.4052728977588256e+01 2.9104161379169398e+01 1.6446932999930290e+01 0 -1 1
4430 2 4.3998186629977418e+00 9.5751950179378618e+00 9.3439049257298343e+00 1 0 0
1901 2 1.1714115748281875e+01 1.9151200150427616e+01 1.8017273629329690e+01 0 0 1
278 2 1.1620094948047695e+01 2.1760226953938481e+01 1.4503119519643937e+01 0 -1 0
71 2 9.4259073275356542e+00 2.0591872532792252e+01 7.9162480745869326e+00 0 0 0
15 2 1.4743461083072429e+01 3.0075874385049623e+01 2.0918886480740195e+01 0 -1 -1
1773 2 7.2690110503754699e+00 7.1666654892000148e+00 2.2003810929222411e+01 0 1 -1
4407 2 1.0307328304423368e+01 2.1349709436343154e+01 1.7350044441081870e+01 1 0 0
72 2 8.3775567866115992e+00 2.1604696687309676e+01 8.5329993604080130e+00 0 0 0
2630 2 6.4135061935648494e+00 1.2976899111989274e+01 8.6011246232279763e+00 0 0 0
1955 2 1.3931937346490788e+01 2.7553519108721868e+01 1.6697859943017484e+01 0 -1 1
5969 2 1.0159601581618869e+01 2.0112035060603453e+01 1.4209835329045456e+01 1 0 0
2588 2 1.0678930508399100e+01 2.5586779950531636e+01 8.0280205373486258e+00 0 0 0
3043 1 5.5160596865490632e+00 6.6612170732574985e+00 1.3644542975067889e+01 0 1 0
56 2 1.1631033501009169e+01 2.0733377409835043e+01 1.9548931983317427e+01 0 -1 0
5016 2 8.5832759930395319e+00 1.0710759783048792e+01 1.5261501768773325e+01 1 0 0
5014 1 8.0575653981942850e+00 1.1546476144276303e+01 1.5152749960599520e+01 1 0 0
1900 1 1.1222293894620529e+01 1.8561532088829551e+01 1.7361072600239300e+01 0 0 1
1666 1 1.2602194177471745e+01 2.1339265495589103e+01 2.2291094662723282e+01 0 0 0
42 2 5.5882404895762647e+00 1.3913567278411888e+01 2.3130940123930630e+00 0 0 0
40 1 5.3325695710316374e+00 1.4889970482593331e+01 2.3980854944955317e+00 0 0 0
55 1 1.2246900663672857e+01 2.0008393241681095e+01 1.9678119584790672e+01 0 -1 0
41 2 6.0071866678310695e+00 1.5203563099658236e+01 3.0776747650542271e+00 0 0 0
381 2 1.7629352620151916e+01 2.9910958676330203e+01 2.1799872174565660e+01 0 -1 -1
1954 1 1.4529439534453658e+01 2.8276955546088733e+01 1.6402374671129465e+01 0 -1 1
2849 2 1.3270715106013505e+01 2.4165253623730599e+01 2.1022135705090950e+01 0 0 1
2400 2 8.0509284888441073e+00 1.4924601729793691e+01 7.8818888489618963e+00 0 0 0
2472 2 8.8472051839507859e+00 1.9931624102048083e+01 1.0083107831863925e+01 0 0 0
2388 2 1.2272430126529532e+01 2.7677609716926199e+01 9.3944453114093029e+00 0 1 0
70 1 8.5986208260220334e+00 2.0662233718367442e+01 8.4215507718297253e+00 0 0 0
277 1 1.1959540302685895e+01 2.2623339667069864e+01 1.4212306125550416e+01 0 -1 0
1667 2 1.3039695223255116e+01 2.2194534621548105e+01 2.2257034221495811e+01 0 0 0
2986 1 8.8728166834905444e+00 6.4179266708212097e+00 1.9551975206600591e+01 0 1 1
1250 2 8.3965829213375240e+00 2.0170499930088774e+01 1.6019247422794216e+01 0 1 0
2988 2 8.9698524922458311e+00 5.4767684281291382e+00 1.9463128768240157e+01 0 1 1
2496 2 3.1218054273432330e+00 9.9467563129680876e+00 7.1422845125584011e+00 0 0 1
2391 2 1.2014391528777654e+01 2.5874912534317456e+01 1.1605650904491728e+01 0 0 0
2389 1 1.1071578514086571e+01 2.6168250135965085e+01 1.1490522537787864e+01 0 0 0
1558 1 7.8064999050938511e+00 9.8622632917102280e+00 1.8822263921690745e+01 0 1 0
2348 2 9.4195849799444762e+00 2.5830258757404259e+01 4.3468323650286207e+00 0 0 1
1241 2 9.9597336241606840e+00 1.4058442061157921e+01 1.8768151695593549e+01 0 1 0
5970 2 1.1399700165835183e+01 1.9830874358500747e+01 1.5210003392512979e+01 1 0 0
2672 2 1.1386008846882541e+01 1.6718812844892884e+01 2.0873734462057026e+01 0 1 0
4387 1 9.4836646802615210e+00 2.4985027058805301e+01 7.4673255072169342e-01 1 0 0
1027 1 1.4781343871294034e+01 2.2653050320039441e+01 2.5171436717279860e+01 0 0 -1
379 1 1.7562516556981024e+01 2.9329621454944682e+01 2.2608226931458550e+01 0 -1 -1
2399 2 7.2277593410118985e+00 1.6207570712814366e+01 7.5903417028935660e+00 0 0 0
380 2 1.7454113550122990e+01 2.9996514861885981e+01 2.3348322700564523e+01 0 -1 -1
4486 1 1.3377914082992667e+01 2.4616706098761796e+01 1.1446836962074409e+01 1 0 0
6020 2 1.6974515451835742e+01 3.2074997804337507e+01 2.1469639996201508e+01 1 0 0
2398 1 7.6828663657179845e+00 1.5460188792509106e+01 7.1305448249807304e+00 0 0 0
2629 1 7.2595832014670396e+00 1.2801502855900688e+01 8.1633970890317418e+00 0 0 0
4429 1 5.0488933313494950e+00 9.2437837619634493e+00 1.0051591407671392e+01 1 0 0
2362 1 2.4909047130389634e+00 8.4562896014854161e+00 1.6091660384473634e+00 0 0 1
2491 1 1.1992987170413912e+01 1.3690992619158536e+01 2.6155261736016669e+01 0 0 0
2493 2 1.1729231837418515e+01 1.3007871666795221e+01 2.6837551817039973e+01 0 0 0
3045 2 5.5758654790533839e+00 7.5082508847470386e+00 1.4007501502742675e+01 0 1 0
1854 2 1.4431221088169128e+01 3.0729497974596175e+01 1.3708890392396313e+01 0 -1 1
57 2 1.1722079626197917e+01 1.9543588731510308e+01 2.0343036504907865e+01 0 -1 0
2840 2 6.5898170099502380e+00 9.5237513474596263e+00 1.2759309940840781e+01 0 0 1
1673 2 7.5787383609665842e+00 1.9611205136012654e+01 8.2904950427197732e-01 0 0 0
4405 1 1.1203037231298673e+01 2.1513757392249921e+01 1.7706865654799643e+01 1 0 0
4406 2 1.1851640443722399e+01 2.1025784426307389e+01 1.7192923460631960e+01 1 0 0
2471 2 9.1608796148297138e+00 1.8423951568136708e+01 1.0598921603574343e+01 0 0 0
2470 1 9.1819660001301102e+00 1.9406806986958351e+01 1.0858754074526894e+01 0 0 0
4431 2 5.8655325198352593e+00 9.0596930213948959e+00 9.5759288516067951e+00 1 0 0
2364 2 2.7143842035556478e+00 8.5520308417113160e+00 2.5142997958295554e+00 0 0 1
2494 1 3.9539683486931079e+00 9.4791580198740633e+00 7.3167944898770481e+00 0 0 1
3642 2 1.8798415744235768e+01 3.4051206812661562e+01 2.4092920916167419e+01 1 -1 0
1240 1 1.0807577312539163e+01 1.4539871533086437e+01 1.8623131920629945e+01 0 1 0
2803 1 7.6287148071714519e+00 1.1287049890627262e+01 2.5408330169143593e+01 0 1 0
5968 1 1.1122380133720064e+01 2.0275375292857952e+01 1.4348463135625201e+01 1 0 0
2492 2 1.2794680122449030e+01 1.3297178707910355e+01 2.5744536921010265e+01 0 0 0
1242 2 1.1117031859509620e+01 1.4944914945696880e+01 1.9489990805086375e+01 0 1 0
4389 2 9.9402457206100578e+00 2.5614584273144736e+01 1.1201910220131053e-01 1 0 0
1852 1 1.5271056692370077e+01 3.1211007142199101e+01 1.3702684186067538e+01 0 -1 1
1767 2 6.0833666763811074e+00 4.8330750527383373e+00 1.6355123706761091e+01 0 0 0
1043 2 1.1940561762756049e+01 2.9522047041829705e+01 1.0591129449361992e+01 0 0 0
2804 2 7.8886738407897781e+00 1.0686643755821020e+01 2.4682295164820477e+01 0 1 0
2363 2 2.1065573847352219e+00 7.5777603648866023e+00 1.5937959523594847e+00 0 0 1
3006 2 5.4266668353938599e+00 4.7054404394381590e+00 1.1221142891773548e+01 0 0 1
5015 2 7.6195572587523923e+00 1.1746733063546522e+01 1.5983133068686948e+01 1 0 0
1008 2 1.7961658228308522e+01 3.1883519262707885e+01 2.4780717908502798e+01 0 -1 0
1028 2 1.4261246850166891e+01 2.2943298274716057e+01 2.5938152319263093e+01 0 0 -1
3005 2 5.9648776651873376e+00 3.5178769574585855e+00 1.2283089110247120e+01 0 0 1
3044 2 5.2163085457074398e+00 6.7674404679323565e+00 1.2725244979893329e+01 0 1 0
5829 2 9.7563096144960184e+00 1.6232756522031444e+01 1.5407759786358152e+01 1 0 0
1058 2 1.3347738758662906e+01 1.8094426541627566e+01 2.3361866891190807e+01 0 1 -1
2624 2 3.2596212353592637e+00 1.7183823782590178e+01 9.9546094876663560e-01 0 -1 1
2411 2 1.0090574219481708e+01 2.5751635302750941e+01 2.1383063658300525e+00 0 0 1
2412 2 1.0278743212397252e+01 2.7178763270408297e+01 2.7354863017130007e+00 0 0 1
2495 2 4.4031668659236871e+00 9.6011845663652231e+00 6.4412748454675928e+00 0 0 1
2410 1 1.0399654494135703e+01 2.6249923438068304e+01 2.9444115329292253e+00 0 0 1
2553 2 9.1880083870307736e+00 2.3179224365684060e+01 3.1796032442654658e+00 0 -1 0
1006 1 1.7369663230069612e+01 3.1112767721821026e+01 2.4808203447283240e+01 0 -1 0
1042 1 1.2491059627556361e+01 3.0221455752006776e+01 1.0997384728935655e+01 0 0 0
1044 2 1.2816270815710514e+01 2.9816753189062922e+01 1.1828004403484753e+01 0 0 0
1007 2 1.7688685305985288e+01 3.0505710714656200e+01 2.5506207861588329e+01 0 -1 0
2600 2 4.3008941491151731e+00 7.6565990035733646e+00 7.7412349516067440e+00 0 0 0
2433 2 1.8684833908986576e+01 2.9260232070765724e+01 2.6884177269806344e+01 0 0 0
1029 2 1.4127548692420028e+01 2.2110073485963952e+01 2.4773325913823815e+01 0 0 -1
2432 2 6.9001251694745349e+00 2.2074748241129324e+01 7.5731254669191464e-02 0 0 1
2431 1 1.7798280243820500e+01 2.9100248889137447e+01 2.6520960407796736e+01 0 0 0
1672 1 1.7909570538154359e+01 2.6375833930629401e+01 2.7144299054770016e+01 0 0 -1
2486 2 1.6391867231907284e+01 3.1594886894998908e+01 1.8157446732406918e+01 0 -1 0
2485 1 1.6557779162195779e+01 3.0798056451967902e+01 1.8659905862105308e+01 0 -1 0
2848 1 1.3863029683875116e+01 2.3683465293464678e+01 2.1631007880794730e+01 0 0 1
2850 2 1.4729480874745260e+01 2.3523672602568002e+01 2.1226281297214925e+01 0 0 1
2186 2 6.4159249884055054e+00 9.5103625286214992e+00 1.5358516018040556e+01 0 1 -1
2506 1 6.8900923161975829e+00 5.0262148565638860e+00 1.5045277551118485e+01 0 1 0
1559 2 8.6308245920508568e+00 9.6282889999077845e+00 1.8368070164438862e+01 0 1 0
150 2 1.3969946322714311e+01 2.3553025382929640e+01 1.6837124862059603e+01 0 -1 -1
148 1 1.3082233729359977e+01 2.3740973315903627e+01 1.6534965894490945e+01 0 -1 -1
4488 2 1.3939113874807752e+01 2.4852691618333523e+01 1.2222749302679926e+01 1 0 0
2508 2 6.5800389694167620e+00 5.7043669694225558e+00 1.4354090377382530e+01 0 1 0
2602 1 2.4671711972602157e+00 5.0840978131137842e+00 9.5311255197755784e+00 0 1 0
149 2 1.2472711996177654e+01 2.3113679391735943e+01 1.7013785045829813e+01 0 -1 -1
1057 1 1.2436020840139896e+01 1.8015036839529170e+01 2.3663494389215902e+01 0 1 -1
3496 1 1.0627815319212781e+01 1.2265780442237503e+01 2.2761708646004863e+01 1 0 0
3497 2 1.0780374376327144e+01 1.1872308679170036e+01 2.3637649871675144e+01 1 0 0
2671 1 1.1835716398330145e+01 1.5875034418410632e+01 2.0556970551420775e+01 0 1 0
4601 2 8.3971133018474511e+00 1.5766445875640439e+01 1.3647117825887991e+01 1 0 0
1445 2 3.8814726936868889e+00 6.0610878267003638e+00 1.0445367222137728e+01 0 1 0
1735 1 1.4117318476155702e+00 5.9375856502134585e+00 2.4101164503859973e+00 0 0 1
1444 1 4.6737787244093738e+00 6.2997806320798642e+00 1.1017186693473191e+01 0 1 0
304 1 1.3399480054783744e+01 2.9187144294400618e+01 1.3407338947786686e+01 0 -1 -2
6021 2 1.7328719803029237e+01 3.1214796018328144e+01 2.0174432097322171e+01 1 0 0
306 2 1.3766642580542666e+01 2.8320633441247011e+01 1.3392203117174740e+01 0 -1 -2
1873 1 9.2454622957278421e-01 2.3030899025618115e+00 2.8125203476827498e-01 0 -1 1
1875 2 1.4682504416003983e-01 1.9226735102299406e+00 6.4999320718596021e-01 0 -1 1
2551 1 9.9629720755522797e+00 2.2659840957562292e+01 3.0553647846565042e+00 0 -1 0
1059 2 1.2585656416098949e+01 1.7305086136763681e+01 2.4342224825061876e+01 0 1 -1
1460 2 1.4469841078438506e+01 1.9467688144318501e+01 2.6609835816551900e+01 0 0 -1
4388 2 9.7661178654478871e+00 2.4042737173950982e+01 4.6633255833141557e-01 1 0 0
4600 1 8.0923973413293524e+00 1.5460338104777687e+01 1.2787928827745105e+01 1 0 0
490 1 -3.8595926608190378e-01 7.3663575184750485e-01 2.2683849037425952e+00 0 0 0
491 2 -6.0545350092515804e-01 1.2863350397205855e+00 3.0449692954618341e+00 0 0 0
2599 1 4.1643791224204243e+00 6.7660972528393941e+00 8.1170866665625638e+00 0 0 0
2307 2 1.6098663435109522e+01 2.1581981342667142e+01 2.5405572714213644e+01 0 0 -1
1289 2 1.3130605337820430e+01 2.6044730587284882e+01 7.5230909045601084e+00 0 0 0
1674 2 1.7894067507203808e+01 2.7215125137940113e+01 2.6644492243306175e+01 0 0 -1
296 2 1.0815931621510920e+01 2.8205392838736245e+01 6.6408202217100429e+00 0 -1 0
714 2 1.3804679026360681e+01 2.0244821470178390e+01 2.2217087332593028e+01 0 0 -1
712 1 1.4571536352163438e+01 1.9557160487739072e+01 2.2198811812311821e+01 0 0 -1
4502 2 7.9313959664883456e+00 1.6922376963399195e+01 3.9983349272558213e+00 1 0 0
1278 2 7.2569552602989589e+00 1.8951755511782874e+01 5.2320647109135665e+00 0 1 0
1276 1 7.7266472278661027e+00 1.8851092281835616e+01 4.3630922914792265e+00 0 1 0
1277 2 6.9897855916082641e+00 1.8756799701779450e+01 3.6985272584744138e+00 0 1 0
6019 1 1.7582700462585212e+01 3.1402990311444015e+01 2.1067048076552332e+01 1 0 0
519 2 4.9168895340502079e+00 1.9029383810741514e+01 3.1209238690094279e+00 0 0 0
2673 2 1.2019977517906348e+01 1.5301871736150389e+01 2.1377273486483951e+01 0 1 0
1770 2 8.8878689167704028e+00 8.3774473433533565e+00 2.3367492008058917e+01 0 0 -1
1768 1 8.9982829812498206e+00 9.0308828486371482e+00 2.4122371358503035e+01 0 0 -1
3498 2 1.0932098237688621e+01 1.1580544853452531e+01 2.2169918184397673e+01 1 0 0
22 1 6.7654921583581427e+00 7.4408929937785011e+00 1.7881998314461548e+01 0 1 0
1769 2 9.9205364714530440e+00 9.3868512702576865e+00 2.4108478966370789e+01 0 0 -1
492 2 -1.2855537945342110e+00 5.1865383146386379e-01 1.8606612804928737e+00 0 0 0
2603 2 2.5684704664754028e+00 5.6760133671322066e+00 8.7668285761285496e+00 0 1 0
4602 2 8.4155225734129218e+00 1.6037990080785807e+01 1.2079474038635938e+01 1 0 0
2465 2 7.7085343751272717e+00 1.7136753475436407e+01 1.0025064378164009e+01 0 1 -1
518 2 5.4607488635498704e+00 1.8525117574038223e+01 1.7817493256528083e+00 0 0 0
2719 1 2.1033992030002020e+00 5.5952946871935598e+00 5.0599536203930295e+00 0 1 1
5800 1 9.0675316499051384e+00 2.3150893103515493e+01 6.1098339785155273e+00 1 0 1
2464 1 8.5344837804431357e+00 1.6982404451834611e+01 1.0475300858421873e+01 0 1 -1
1753 1 3.1318055379549987e+00 8.5346143667738747e+00 4.3099801481370426e+00 0 -1 1
1685 2 1.6192700128026871e+01 2.7841383801466726e+01 2.2266918748608589e+01 0 -1 1
1684 1 1.5953392896948039e+01 2.7243270157540241e+01 2.1538447757067022e+01 0 -1 1
1686 2 1.5418659200070977e+01 2.7683962375995304e+01 2.0871775935304441e+01 0 -1 1
2487 2 1.7158181940294199e+01 3.0313822744288153e+01 1.7991454240866737e+01 0 -1 0
265 1 9.8826753737901640e-01 3.3893136188511610e+00 6.2665774258029892e+00 0 0 -1
1754 2 2.3192109354932233e+00 8.2740906909798611e+00 4.7971995844316258e+00 0 -1 1
2604 2 3.1655515487117736e+00 4.3957496904653155e+00 9.3342738747631682e+00 0 1 0