LAMMPS data file via write_data, version 15 Apr 2020, timestep = 0

6144 atoms
2 atom types

-1.9223322678237054e+00 6.1890621399008893e+01 xlo xhi
0.0000000000000000e+00 2.8150479298384795e+01 ylo yhi
0.0000000000000000e+00 2.7211303629882792e+01 zlo zhi
1.0170455951276892e+01 1.0192985754328788e+01 7.1292494879549935e+00 xy xz yz

Masses

1 16
2 2

Atoms # atomic

1595 2 1.7216513153945890e+01 2.2717406481897982e+01 1.8077031530094111e+01 0 0 0
1604 2 6.8982016624046398e+00 1.0395485179113486e+01 2.0635637109348428e+00 0 0 1
876 2 4.3482257643507172e-01 2.6573954863944347e+00 3.2247391413952808e+00 0 1 0
987 2 1.2394766112567826e+01 8.4376035262168756e+00 2.4626493736716426e+01 0 0 0
225 2 9.9777725520564058e+00 4.7870884071704234e+00 3.3925848518713422e+00 0 0 0
52 1 1.5565743419904372e+01 2.4855142094903773e+01 1.0476539922050494e+01 0 -1 0
25 1 1.0004574337497946e+01 1.0687101336141865e+01 5.4973914435401685e+00 0 0 -1
1625 2 1.6409582874652830e+01 1.9962973285848058e+01 2.4675183172926566e+01 0 0 0
2464 1 5.6387619557182020e+00 1.3693841727808854e+01 1.8535657987934002e+00 0 1 0
877 1 1.5737853510122985e+01 4.8617160030592075e+00 5.0648026650897613e+00 0 0 0
1633 1 1.3055245302483579e+01 1.3880234098290011e+01 2.2264185988122922e+01 0 0 0
849 2 1.8114209273000036e+01 1.9923531962255417e+01 1.2733185429545415e+01 0 0 -1
2443 1 1.2986858635276192e+01 1.4719638480611895e+01 1.0399441919380948e+01 0 1 0
358 1 2.1333712453246136e+01 2.5189123001018206e+01 1.8527506080254035e+01 0 0 0
2466 2 5.9036566223632772e+00 1.4139501458489365e+01 2.6572302055777692e+00 0 1 0
1895 2 9.2077913672627361e+00 1.2817880229834419e+01 1.1159861771868977e+01 0 0 1
1670 2 2.9254929913643277e+00 7.1217051928063224e+00 1.0379662694605420e+00 0 0 0
1634 2 1.3217919127361810e+01 1.4353722603298916e+01 2.3135817255707906e+01 0 0 0
1064 2 2.1061124178973181e+01 2.6799844484977527e+01 1.7845347674338466e+01 0 0 -1
1894 1 9.0620837549807032e+00 1.3066087245297734e+01 1.0218043035614677e+01 0 0 1
1740 2 1.5959536600692907e+01 2.6305813902440121e+01 2.4615252760407280e+01 0 0 0
1916 2 1.4238391066362603e+01 2.6705172193322436e+01 1.5012111197784501e+01 0 0 0
611 2 7.7911614438112728e+00 4.1953816274576994e+00 1.5287861452985727e+01 0 1 0
1709 2 2.6256803468955333e+01 3.1553397912971402e+01 1.6885253162665503e+01 0 -1 0
487 1 2.2240860401326934e+01 2.5591941458740386e+01 2.1044048541368998e+01 0 0 -1
53 2 1.5042168520601230e+01 2.4702664538945271e+01 1.1254294599095607e+01 0 -1 0
1587 2 1.1281118021939037e+01 1.4250439807463056e+01 1.2852666346605007e+01 0 0 0
1586 2 1.1951883662303821e+01 1.4000072742792391e+01 1.1454612035584102e+01 0 0 0
2431 1 1.4608542108352175e+01 2.9186279812555682e+01 1.9529662327188984e+01 0 0 0
2564 2 8.9317632053427154e+00 9.5598007855627039e+00 1.1990061725211798e+00 0 1 0
416 2 1.0695229423298253e+01 1.3836548336118842e+01 1.7197117306520440e+01 0 0 0
249 2 4.1686438805258206e+00 6.4103643228127050e+00 8.1616165854105240e+00 0 0 0
610 1 1.7380924034203051e+01 3.1883555924026894e+01 1.4699053932646621e+01 0 0 0
1275 2 9.0537856613475594e+00 8.1908065796631018e+00 9.6407449942596681e+00 0 0 0
2606 2 2.4565400052444030e+01 1.4480078939889044e+01 1.9025842507460556e+01 0 0 0
2475 2 1.0335349045366488e+01 2.7416053814405323e+01 7.2870111211949133e+00 0 -1 1
1708 1 2.7158662640274535e+01 3.1136288731158874e+01 1.7126944424713294e+01 0 -1 0
27 2 1.0550934881979543e+01 1.0563269153014847e+01 6.2388601379507795e+00 0 0 -1
907 1 1.6481985271503113e+01 2.6778261000038565e+01 1.9513830497739225e+01 0 0 -1
99 2 1.1306877720109188e+01 3.5551616104488502e+00 1.5567032369680833e+00 0 0 0
1561 1 1.0203250335601627e+01 1.2116484830806920e+01 1.4880560668870690e+01 0 0 0
1901 2 3.5688859168883456e+00 4.2179025620392006e+00 9.2830230588872256e-02 0 0 1
888 2 1.2715653557265011e+01 2.4068746886126238e+01 2.0328372304542469e+01 0 1 -1
1686 2 1.5068193207931209e+01 2.4629168063166155e+01 2.6474295066368942e+01 0 -1 0
924 2 1.6551550541850609e+01 2.1896858193427128e+01 1.1615750110545402e+01 0 0 0
166 1 2.4909873166545516e+01 2.7460765923950035e+01 2.3207700979252877e+01 0 0 -1
224 2 1.0719070085727493e+01 3.3582957032372911e+00 3.6875178269392510e+00 0 0 0
1781 2 1.1623256523873906e+01 9.6274821912420485e+00 1.4609085869054205e+01 0 0 0
1710 2 2.7539668407951588e+01 3.1447161084581257e+01 1.7954975973122124e+01 0 -1 0
1689 2 1.2524236595532937e+01 5.4855526253177063e+00 1.4519874236617959e+01 0 0 0
1705 1 1.7590825479472901e+01 1.7682525078502159e+01 1.5248390090007298e+01 0 0 -1
1773 2 1.1671983619484021e+01 7.8328540335323202e+00 2.6425750721964128e+01 0 1 -1
101 2 6.5488138360171320e+00 8.4415670887848187e+00 1.0413405302186845e+01 0 0 0
1570 1 1.4428578672840956e+01 1.2066977893953016e+01 1.4105665180886971e+01 0 0 1
2314 1 1.5103277338701911e+01 2.6205469090033237e+01 7.0988773961531972e+00 0 0 1
1129 1 1.3083632850633133e+01 1.9638686652408168e+01 1.5972468548924912e+01 0 0 -1
2360 2 1.3844308573419845e+01 1.7688573642180955e+01 1.0252625385955479e+01 0 0 0
1635 2 1.3415076449653988e+01 1.4374090628562588e+01 2.1487813745603134e+01 0 0 0
1017 2 7.9594253384780096e+00 7.1403268141557952e+00 1.2331589206144169e+01 0 1 -1
2344 1 2.0558056629794553e+01 2.0846077429542976e+01 1.7462972671074006e+00 0 0 1
821 2 2.0398624720195595e+01 2.5158348537721587e+01 2.1574532822882976e+01 0 0 -1
212 2 2.7066963536077694e+01 2.7524852353289177e+01 1.8277120485290023e+01 0 -1 0
896 2 1.7898474060532735e+01 2.9910346465853539e+01 2.0987147801615251e+01 0 0 -1
868 1 7.3640082574167884e+00 1.5180884655968491e+01 9.4353825817694279e+00 0 0 0
1741 1 8.4943987883839682e+00 8.6239767326936541e+00 2.2150608832098580e+01 0 0 0
1571 2 1.4923347315449735e+01 1.1184264145598032e+01 1.4125600617973998e+01 0 0 1
1659 2 1.6983797053085276e+01 2.9124062836656332e+01 1.4043497511680377e+01 0 -1 0
894 2 1.1049145502685723e+01 1.8271383758133627e+01 5.8660675147414540e+00 0 0 0
1733 2 2.6725837047531176e-01 4.2110348407634790e+00 1.8344502200741479e+00 0 1 0
1274 2 8.1553468038367463e+00 7.0850114760893623e+00 1.0214176003141660e+01 0 0 0
1113 2 1.3936095738618475e+01 2.0997872760212406e+01 8.9721143786638642e+00 0 0 0
1669 1 3.2955150926442363e+00 6.6915491184913893e+00 1.8745980162543330e+00 0 0 0
1063 1 2.1116821128186118e+01 2.7699522704644185e+01 1.7414606798018692e+01 0 0 -1
1671 2 3.9754379415914851e+00 6.0059420441165159e+00 1.5868397622832191e+00 0 0 0
1539 2 1.0961883386254275e+01 1.4552907978753423e+01 2.0644977037971266e+01 0 0 0
1001 2 6.2392240060401480e+00 1.3480692518656635e+01 7.2028709218525808e+00 0 0 0
846 2 1.5343491977378982e+01 1.8367351916340290e+01 2.0983738045227312e+01 0 0 -1
359 2 2.0511404268620254e+01 2.4901788589626943e+01 1.8190517129449400e+01 0 0 0
221 2 9.4133060297765336e+00 1.2119515278925551e+01 2.4213700121585433e+01 0 0 -1
822 2 1.9515269086024503e+01 2.4710070838961485e+01 2.2789336583509655e+01 0 0 -1
2471 2 1.3139711673908639e+01 7.8784328641905086e+00 1.7175499087686813e+01 0 1 0
1112 2 1.4501048702251296e+01 2.1295533226313591e+01 7.5931337711253812e+00 0 0 0
1011 2 1.6595211908092409e+01 1.0795157642478735e+01 1.0121827950106785e-01 0 1 -1
2465 2 6.4980978362169957e+00 1.3796211058941456e+01 1.2604755593899064e+00 0 1 0
54 2 1.5365015164147255e+01 2.5774957756499468e+01 1.0272080449109181e+01 0 -1 0
102 2 5.8462990412856177e+00 8.1705998153028130e+00 9.0873453669580986e+00 0 0 0
223 1 9.9529181760451664e+00 3.8101402946001679e+00 3.1863846487434775e+00 0 0 0
1825 1 5.7628031198110845e+00 6.9503720414130274e+00 1.4561269874194055e+01 0 0 0
353 2 8.3103249557849495e+00 1.0048688013913228e+01 6.0163886947568077e+00 0 0 0
2407 1 8.6396887482765496e+00 1.7406038744184357e+01 1.0188256671512161e+01 0 0 0
1687 1 1.2351718087374103e+01 4.5752433629724543e+00 1.4862963189786866e+01 0 0 0
986 2 1.3063839472537737e+01 9.4479167072468009e+00 2.3625576605333301e+01 0 0 0
1706 2 1.6712944982053518e+01 1.7430227665796718e+01 1.5007113323809925e+01 0 0 -1
1703 2 9.5733353253416862e+00 9.9664849214009141e+00 2.1040403614858480e+01 0 0 0
2268 2 1.1384644484771625e+01 2.9407245655174520e+01 5.6256581827813497e+00 0 0 1
1688 2 1.1978926811371112e+01 4.0706972189859485e+00 1.4087885365013705e+01 0 0 0
1002 2 7.4007966238383673e+00 1.4598530340428681e+01 7.6047211873040075e+00 0 0 0
1610 2 7.1211862340513843e+00 1.7020941311476097e+01 1.0332489980563817e+00 0 -1 0
922 1 1.6424261474192736e+01 2.1407384510515431e+01 1.0798957664521536e+01 0 0 0
2409 2 9.5131869081680236e+00 1.7922775109218748e+01 9.8954914342283686e+00 0 0 0
845 2 1.6455493653872303e+01 1.7635849694373235e+01 2.1949262807881080e+01 0 0 -1
1563 2 1.0549941599940585e+01 1.2992347649688886e+01 1.4911404938116060e+01 0 0 0
908 2 1.5658778440578082e+01 2.6441325062557709e+01 1.9069496069764128e+01 0 0 -1
893 2 1.2632614354005879e+01 1.8387066596724679e+01 5.7256166055580549e+00 0 0 0
28 1 2.0144955936900395e+01 2.2845986337354880e+01 1.5698908462002912e+01 0 0 0
2652 2 2.6747500174629483e+01 3.1423507065907827e+01 2.3480042138228939e+01 0 0 0
870 2 7.8592410762845653e+00 1.6036237183544589e+01 9.7064791906956547e+00 0 0 0
300 2 1.1066336579939641e+01 1.9233471086052170e+01 8.9182378678589398e+00 0 0 0
1585 1 1.1294756397706159e+01 1.3566172328578904e+01 1.2062853975800524e+01 0 0 0
2414 2 1.1799127632070498e+01 1.8583827584809285e+01 1.3247797439894523e+01 0 0 1
2436 2 2.1185337779632988e+01 1.7801982799813935e+01 1.3120222922293488e+01 0 0 0
2441 2 1.3253029714420357e+01 2.3532850677352521e+01 8.9144908372428127e+00 0 0 1
847 1 1.8204373520412666e+01 1.9008223681189079e+01 1.3002639463743868e+01 0 0 -1
1562 2 1.1082234330842031e+01 1.1725352125270161e+01 1.5112939816502362e+01 0 0 0
1015 1 8.6307819851706071e+00 7.8116358108533790e+00 1.2615367413043327e+01 0 1 -1
332 2 5.6577718490586060e+00 4.1567169488584499e+00 1.5027631246036059e+01 0 1 0
949 1 2.4686752059258605e+01 2.0950988717417545e+01 1.5539430939119120e+01 0 -1 0
30 2 1.9599233210282506e+01 2.3463201278688913e+01 1.6233158893111437e+01 0 0 0
2396 2 2.5867691770614663e+00 2.8902914261423667e+00 9.7550822674914990e+00 0 1 0
83 2 1.0977443819242634e+01 1.6853936288199495e+01 2.1505318429295308e+01 0 0 -1
989 2 1.7979774152452798e+01 3.2357325782140606e+01 2.0445531037640894e+01 0 0 0
2440 1 1.2502666402710503e+01 2.3490727919628817e+01 9.5497037408142074e+00 0 0 1
98 2 1.2216311307535273e+01 3.7376860021794527e+00 3.0453303844289747e-01 0 0 0
254 2 1.4415331570440429e+01 6.6997639073722510e+00 7.5966308594097018e+00 0 0 -1
369 2 1.9109723065033307e+01 1.5432714987903264e+01 1.2690117627107748e+01 0 0 -1
1065 2 2.1471546871047007e+01 2.7581163511488562e+01 1.6507512825894864e+01 0 0 -1
1130 2 1.2583281978637480e+01 2.0571247569381956e+01 1.5973219656325528e+01 0 0 -1
2355 2 2.3855634631375509e+01 2.4855256095067322e+01 1.2904712080728919e+01 0 0 0
962 2 8.7402054592738132e+00 1.9913059806539817e+01 2.5760776175680582e+00 0 0 0
89 2 2.3084392374823199e+01 2.3232660847948292e+01 1.4114493723416553e+01 0 -1 -1
1135 1 1.2528777742067749e+01 1.2606845635629796e+01 2.4839753266555871e+01 0 1 -1
299 2 1.1704566394375640e+01 1.7816120885896680e+01 9.6231435728344010e+00 0 0 0
626 2 1.3689391462796644e+01 7.9256442502186033e+00 6.9277048085321480e-01 0 0 0
1920 2 2.6412658868250475e+01 1.8775314901628285e+01 2.4031019498799303e+01 0 0 0
105 2 7.9864839447697484e+00 1.1880647652034959e+01 9.1261489416095429e+00 0 0 0
2311 1 1.7748546181996765e+01 1.4923692329377317e+01 2.6236609832158667e+01 0 1 -1
1515 2 8.9451931600856600e+00 1.7364350324456556e+01 6.9237535929170813e+00 0 0 0
1896 2 9.9383449280562406e+00 1.3168224787553832e+01 9.8629225264717970e+00 0 0 1
1546 1 7.8138792834086992e+00 1.1976990824840541e+01 1.6550098386467365e+01 0 1 0
984 2 1.2776596361388428e+01 7.8660076625646278e+00 9.1253295121912057e+00 0 1 -1
588 2 6.7282020424061297e+00 1.2890790363737372e+01 4.0764488409895243e+00 0 0 0
909 2 1.6185275019769527e+01 2.7449755407114608e+01 2.0200543920982831e+01 0 0 -1
2668 1 1.9759983292279571e+01 2.2752880885768469e+01 1.2849148396175343e+01 0 0 0
2354 2 2.3053532046378137e+01 2.4110448220110040e+01 1.1847328986225902e+01 0 0 0
2399 2 8.8201495711254054e+00 2.2847736390345091e+01 6.8650747608603098e+00 0 0 0
1201 1 2.2497582218661016e+01 1.7066038589655971e+01 1.8151852659963161e+01 0 1 -1
1273 1 8.3376893699738517e+00 7.5391416175661119e+00 9.4097668624599500e+00 0 0 0
1132 1 9.9285151340372853e+00 9.7786540998161282e+00 9.8410654101290689e+00 0 1 0
1780 1 1.1147227676518428e+01 9.2577563702769190e+00 1.3853888177464992e+01 0 0 0
898 1 1.4391133436444431e+01 2.8206367235164414e+01 1.6242356702776299e+01 0 0 0
1514 2 1.0266710730636047e+01 1.7476840954118764e+01 7.8361275596896931e+00 0 0 0
10 1 2.3366980097312517e+01 1.1659529684187749e+01 2.6471407117009910e+01 0 0 -1
352 1 7.4080033005514423e+00 1.0040013616753415e+01 6.3385097831953097e+00 0 0 0
961 1 9.1939630788172657e+00 2.0555852524873718e+01 2.0265954340498573e+00 0 0 0
885 2 2.3235699528992825e+01 2.9325138770299521e+01 1.4976764288219657e+01 0 0 -1
489 2 2.2045747763095335e+01 2.5360197884705585e+01 2.0099158758891537e+01 0 0 -1
2316 2 1.5031461820139796e+01 2.5260671973175793e+01 7.4150016864336470e+00 0 0 1
975 2 1.1171388779342035e+01 2.6172351389531023e+01 1.0295248463318581e+01 0 0 0
818 2 2.3010284520087577e+01 3.0559454517882294e+01 1.6574794940566171e+01 0 0 -1
775 1 8.9345824835687999e+00 2.3881255822136179e+01 3.5625926850269535e-01 0 0 0
1603 1 7.5736307147271642e+00 1.0914777469437761e+01 1.5640380017824840e+00 0 0 1
722 2 2.6340587309924285e+01 2.9608487587949476e+01 6.0947932789512889e+00 0 -1 0
1605 2 7.9016520552033267e+00 1.1568406908446228e+01 2.2162006307277462e+00 0 0 1
824 2 6.5064080846280259e+00 7.7295157434820414e+00 1.9756260575818189e+01 0 1 -1
2508 2 8.4621763219880783e+00 1.8066450536086389e+01 3.3808498226564199e+00 0 0 1
100 1 5.6487890098116127e+00 8.4465731628073577e+00 1.0004156353854951e+01 0 0 0
1877 2 2.1451096061670146e+01 3.0114797177909974e+01 1.8499672358519064e+01 0 -1 0
2669 2 1.9388536002999921e+01 2.3351787529997310e+01 1.2182152896940913e+01 0 0 0
2323 1 6.5749580155752021e+00 1.4949279675848656e+01 4.3798172455005675e+00 0 1 1
899 2 1.4867333986169793e+01 2.8868097605252199e+01 1.6750628339703798e+01 0 0 0
1016 2 8.1921139563904966e+00 8.6723245033823950e+00 1.2448463483520653e+01 0 1 -1
2283 2 1.0775477969795881e+01 2.1130981156359461e+01 9.0127249175402824e+00 0 -1 0
995 2 5.2301741767314462e+00 9.0304125668207611e+00 4.3214880495042696e+00 0 1 0
97 1 1.1648463103675898e+01 3.0955864060055420e+00 7.3361081183220711e-01 0 0 0
2361 2 1.3045957061042389e+01 1.6383074161150809e+01 1.0671291449543217e+01 0 0 0
931 1 1.7324026153939691e+01 1.3372946602634492e+01 8.1278248542907523e+00 0 1 0
1513 1 9.9507178014738500e+00 1.7270928569358340e+01 6.9333535644579429e+00 0 0 0
1078 1 2.1826444546049530e+01 2.3832758829590595e+01 1.0698503836825555e+01 0 0 0
963 2 9.3689313553221680e+00 2.1224266408369466e+01 2.7154950116635947e+00 0 0 0
1547 2 8.4948720582637485e+00 1.2320878529976291e+01 1.5970844544971708e+01 0 1 0
2353 1 2.3697420028871150e+01 2.3961549578031178e+01 1.2540527919738848e+01 0 0 0
917 2 7.4901544007234691e+00 8.7797443546248122e+00 3.8540193358567119e+00 0 1 0
417 2 1.1008823541759046e+01 1.2775131873811675e+01 1.8205205677747220e+01 0 0 0
985 1 1.3042025391324771e+01 8.4965434784926153e+00 2.3880992981320148e+01 0 0 0
1884 2 1.0681222574618381e+01 1.9631103779805791e+01 1.2267224181717758e+01 0 0 0
76 1 1.0034337087367946e+01 2.2507195481285919e+01 4.1515933874507898e+00 0 -1 0
298 1 1.0914347379695219e+01 1.8188668548879953e+01 9.2660390620729789e+00 0 0 0
1707 2 1.7494298617765111e+01 1.7970672483184703e+01 1.6157565908371801e+01 0 0 -1
2624 2 1.2584352281922182e+01 1.8505266564785586e+01 2.2665620890273068e+01 0 0 0
612 2 1.7560672871483398e+01 3.0945247883759176e+01 1.4622209402614249e+01 0 0 0
1641 2 1.0487515090936395e+01 4.7346157798006896e+00 1.5726049399586083e+01 0 0 0
1079 2 2.0958336723267657e+01 2.4250276524756238e+01 1.0899508090565353e+01 0 0 0
883 1 2.3924340926188798e+01 2.9953873249290616e+01 1.5271393980359704e+01 0 0 -1
2442 2 1.1718505561051909e+01 2.3312786616648509e+01 9.0762046594030501e+00 0 0 1
1915 1 1.3939442831626906e+01 2.5847215084881768e+01 1.4699758270196467e+01 0 0 0
2451 2 1.4210884906826614e+01 2.3850631002655160e+01 2.2079064223995729e+01 0 0 0
2315 2 1.4521424927141386e+01 2.6189661442020576e+01 6.3063073978077142e+00 0 0 1
823 1 7.4627474571368175e+00 7.6423865864926066e+00 1.9484119815135305e+01 0 1 -1
983 2 1.1854132259025736e+01 7.5093289204499367e+00 1.0273616133474990e+01 0 1 -1
923 2 1.5478453608520560e+01 2.1434374480832897e+01 1.0675085617144250e+01 0 0 0
2572 1 1.4364936487340326e+01 2.3378370358716747e+01 1.7437541841053527e+01 0 0 0
354 2 7.5984735438101829e+00 1.0548274824792649e+01 7.1660785542257557e+00 0 0 0
156 2 2.2002834434190621e+01 2.4566163610082349e+01 7.5677110326677859e+00 0 -1 0
1589 2 2.4236040876501377e+01 3.3763346459405568e+01 2.3502168873281054e+01 0 -1 0
1616 2 1.5193329054553402e+01 1.9439491206566771e+01 1.3749593736288652e+01 0 -1 0
1050 2 9.3235128133545437e+00 1.5796838081224930e+01 2.9753242255032988e+00 0 0 0
1081 1 1.8497247308996336e+01 1.5621671576833686e+01 2.0923221644597692e+01 0 0 -1
1594 1 1.7218930755622768e+01 2.3027023917426160e+01 1.7131401852795761e+01 0 0 0
2445 2 1.2584651992479852e+01 1.4343572208151359e+01 9.5958763211914793e+00 0 1 0
1588 1 1.4560759479779378e+01 6.4463051897261776e+00 2.3571952135904468e+01 0 0 0
1150 1 1.7819933811010493e+01 1.5582850272889219e+01 1.8368136847069795e+01 0 0 0
1841 2 1.9320874221479933e+01 1.2745014413348173e+01 2.4013181982996628e+01 0 0 0
313 1 1.1737727240325363e+01 2.1915270214354873e+01 1.6128128377378570e+01 0 0 -1
1118 2 1.9300587957804915e+01 3.0664290234355530e+01 1.8291514218215603e+01 0 0 -1
1047 2 2.9267952106099248e+01 2.7833525652347646e+01 2.0798740794063264e+01 0 0 0
1371 2 2.2918777271175500e+01 9.2955974978414133e+00 2.5081409415292669e+01 0 1 -1
1133 2 1.0547466357754804e+01 1.0286607518601322e+01 1.0484122874012302e+01 0 1 0
1762 1 1.2618563662098069e+01 7.0371513154411662e+00 1.3274466851156298e+01 0 0 0
2556 2 1.4903433656954860e+01 2.1210311924306289e+01 2.2966902895455693e+01 0 0 0
2548 1 1.9250397978444596e+01 1.0566444936077982e+01 2.6646423132274368e+01 0 1 0
1870 1 1.4162052312338442e+01 2.5736464859376955e+01 1.8658092095421416e+01 0 0 0
1662 2 1.5620506520439587e+01 2.3851672842723247e+01 2.4058954184536034e+01 0 -1 0
1278 2 1.4318526775454050e+01 6.7859316322167835e+00 1.2333500782510082e+01 0 1 0
1736 2 1.6585327681406280e+01 9.9364348702368819e+00 7.6786777190702011e+00 0 0 0
376 1 1.5305186800599820e+01 6.0166286071955426e+00 1.8959333211799620e+01 0 0 0
1109 2 8.1119452318716974e+00 8.5903853062704076e+00 1.6190019576226742e+01 0 0 0
372 2 2.4639823345672593e+01 3.1989262686046764e+01 2.1294023644712855e+01 0 -1 0
1827 2 5.3314973411318665e+00 6.1268753992504212e+00 1.4936841780185476e+01 0 0 0
2243 2 2.1570407214416679e+01 9.6963566235839771e+00 1.5588623673849680e+01 0 0 0
374 2 5.2700823973445514e+00 8.0539492167161839e+00 6.7786375445292038e+00 0 0 0
1801 1 1.7489240285722587e+01 2.0928781523154139e+01 1.5584816195056529e+01 0 -1 0
442 1 9.3531178331105203e+00 5.3517985113364634e+00 7.9637928978408006e+00 0 0 0
2601 2 1.6546852464774084e+01 1.9281081965329918e+01 3.8203145269930996e+00 0 0 0
2600 2 1.5292772789407916e+01 1.8577360286172141e+01 3.4536092718971614e+00 0 0 0
2558 2 2.8388562370677121e+01 2.1861214660160392e+01 2.4449370038551905e+01 0 0 0
2444 2 1.3981378062822433e+01 1.4507303476456658e+01 1.0507424997447938e+01 0 1 0
20 2 1.9319010722719540e+01 9.0098840871651760e+00 2.3856192991803635e+01 0 0 -1
2642 2 1.8259523428051931e+01 2.9964445657838560e+01 7.7130932153279215e+00 0 -1 1
2307 2 2.0001591887000689e+01 2.8049450990722633e+01 6.7728663660383379e+00 0 -1 0
1119 2 1.8397338418435332e+01 3.1836698092153743e+01 1.8538786244974197e+01 0 0 -1
1088 2 2.2017441847333373e+01 2.9755401869675886e+01 2.6386561534305834e+01 0 0 -1
1732 1 2.8636643306382892e-01 4.3463524363976553e+00 8.7177323026008269e-01 0 1 0
269 2 1.5304772847865902e+01 1.2979694158318603e+01 1.8381360749105067e+01 0 -1 -1
2306 2 2.1433715258594045e+01 2.7520420981463086e+01 6.6313682785581038e+00 0 -1 0
198 2 1.5541989310617382e+01 2.1592108937357580e+01 1.3629861513958321e+01 0 -1 0
1089 2 2.0544425242889435e+01 3.0080474318510419e+01 2.6808776816513696e+01 0 0 -1
2468 2 9.9919819209853387e+00 1.3906179415257522e+01 5.7612725028943936e+00 0 0 1
2570 2 1.2750643903084004e+01 2.7010863999409445e+01 8.8731974741066200e+00 0 0 0
776 2 9.3234650223017219e+00 2.4174658483055463e+01 1.2149885649588485e+00 0 0 0
830 2 1.2696040933050757e+01 2.9190646048399540e+01 8.3418680235065086e+00 0 0 0
1658 2 1.7739299587314036e+01 2.8749798019132498e+01 1.5345932297260376e+01 0 -1 0
1103 2 1.2044547774002684e+01 1.5760554628898269e+01 2.4048513349163908e+01 0 1 -1
2604 2 1.3606291347556359e+01 1.8511539745878146e+01 2.4664948916342833e+01 0 1 0
2397 2 2.9379374621772323e+00 3.0703810588933815e+00 1.1228945215357163e+01 0 1 0
1134 2 9.0550594226337626e+00 1.0256874720600116e+01 9.8429273898276328e+00 0 1 0
2644 1 1.3491162556300674e+01 9.6778822461766865e+00 1.9979708275166846e+01 0 0 0
2167 1 2.2304050469902741e+01 1.3343602715474104e+01 1.2527048662366278e+01 0 0 0
1645 1 1.6802107973610710e+01 8.8231543106339920e+00 2.6388108649363065e+00 0 0 0
1735 1 1.6300457365229164e+01 9.6615751742009692e+00 8.6060548654372990e+00 0 0 0
2646 2 1.2808091158030884e+01 9.1597389021846034e+00 2.0484775618935409e+01 0 0 0
2413 1 1.2019959648125916e+01 1.7911415522687111e+01 1.3919877794405442e+01 0 0 1
895 1 1.7700587987387383e+01 3.0795381997310933e+01 2.1353365362629699e+01 0 0 -1
2603 2 1.3343207695516895e+01 1.8112264633932991e+01 2.6209785632014697e+01 0 1 0
2375 2 4.0380542658679230e+00 2.6918516706624507e+00 5.4797173431164392e+00 0 1 1
2629 1 1.0586661667445856e+01 6.4434252788303112e+00 3.9901437093499106e+00 0 0 0
2305 1 2.0727640871924830e+01 2.7713698575334160e+01 7.2925598960280640e+00 0 -1 0
443 2 1.0177295531074332e+01 5.6518439630123982e+00 7.5153838419018326e+00 0 0 0
2341 1 1.2725013113375564e+01 2.0521049952443132e+01 2.5771558075172560e+01 0 1 0
796 1 1.3602679947769385e+00 4.7086330470327535e+00 5.5048673153313326e+00 0 1 0
994 1 4.4626835839778831e+00 9.2453109413069257e+00 4.9800631284098111e+00 0 1 0
2641 1 1.7880436045859714e+01 2.9197706985269619e+01 8.1140887294177855e+00 0 -1 1
897 2 1.7939106411304486e+01 3.0759984744926737e+01 2.2306677833654575e+01 0 0 -1
318 2 2.2076877531432377e+01 2.3465249196670101e+01 2.4131135425269740e+01 0 -1 -1
725 2 7.9910257048498661e+00 3.9687589841437658e+00 4.4610195124798615e+00 0 0 1
2456 2 2.5178286920574187e+01 2.7264895088856868e+01 2.6244682211337839e+01 0 0 0
1672 1 1.7846462699395197e+01 2.9200941949658056e+01 1.1314320965409985e+01 0 -1 0
1617 2 1.4368002937954166e+01 1.9902049508469741e+01 1.5016750316728150e+01 0 -1 0
1117 1 1.8623474808969320e+01 3.1203559232351864e+01 1.7875030237605984e+01 0 0 -1
1737 2 1.6490259358234812e+01 1.0419613669444551e+01 9.2311126495739106e+00 0 0 0
1909 1 1.4698392408331973e+01 1.8283313058992217e+01 8.7270898550329044e+00 0 0 0
1682 2 6.6711310067749938e+00 4.8613267480901836e+00 6.0091197040456867e+00 0 0 0
368 2 1.9855047110807696e+01 1.6255688305484316e+01 1.1667056012499438e+01 0 0 -1
197 2 1.5917815899068749e+01 2.3096936724639516e+01 1.3984546955193499e+01 0 -1 0
759 2 2.2312390507660147e+01 2.5963660047681863e+01 5.4682732873274755e+00 0 -1 0
2576 2 3.9222829070804472e+00 4.9721237614220435e+00 1.0377597192092429e+01 0 1 0
444 2 8.9771541444224638e+00 6.2028904262177367e+00 8.2524370994491107e+00 0 0 0
2513 2 1.8205772388397943e+01 2.4216496263264787e+01 1.7318696300708076e+01 0 0 0
2376 2 4.2812576508128135e+00 3.9288449368779417e+00 6.5114657374370770e+00 0 1 1
1681 1 6.2523260223749340e+00 4.9926377018673698e+00 6.9086005454923232e+00 0 0 0
2467 1 9.1813255621622183e+00 1.3306061762538631e+01 5.5255551758073187e+00 0 0 1
1596 2 1.7298284305576150e+01 2.2140019124449172e+01 1.6554420887577816e+01 0 0 0
1621 1 1.3419880946181493e+01 1.1035719333062332e+01 2.3167625873807712e+01 0 0 -1
1622 2 1.3122666285771189e+01 1.1664692139660609e+01 2.3842410267857730e+01 0 0 -1
1151 2 1.7411055436221272e+01 1.6443420943872404e+01 1.8254692966398455e+01 0 0 0
1691 2 1.3840862411403116e+01 2.2499650561919665e+01 1.8046878939641038e+00 0 -1 1
316 1 2.2826808405168261e+01 2.3610483465082730e+01 2.3557246396873865e+01 0 -1 -1
2326 1 3.2532786174220149e+01 3.3305161776179069e+01 2.4558626671728611e+01 0 0 0
2491 1 1.7731902511657779e+01 2.8484723190850268e+01 2.7149081553956520e+01 0 0 0
1913 2 1.8662345407626894e+01 3.4387388759463121e+01 2.6724717891450705e+01 0 0 0
1110 2 7.0888702981347986e+00 9.3776269588444521e+00 1.6998592962431733e+01 0 0 0
1876 1 2.0762143387356282e+01 3.0060619489704994e+01 1.9195895150525423e+01 0 -1 0
2563 1 9.7893531285427660e+00 9.0941407585093668e+00 1.1381407610904708e+00 0 1 0
2630 2 1.0044314170166148e+01 7.2876739955321321e+00 3.8972098010778020e+00 0 0 0
216 2 2.1644984359631888e+01 2.0698517902993153e+01 1.0848427305107593e+01 0 0 0
819 2 2.3472100583022023e+01 3.0345915190752674e+01 1.8093499201086704e+01 0 0 -1
373 1 6.0810180049845606e+00 7.8274977389769065e+00 7.3408751297615504e+00 0 0 0
1049 2 9.2258565821139182e+00 1.6450599384394074e+01 4.3838117087075519e+00 0 0 0
2512 1 1.8951457013595622e+01 2.4944983276909497e+01 1.7272793962119433e+01 0 0 0
214 1 2.0763345259044641e+01 2.0728199314639912e+01 1.1182235769776925e+01 0 0 0
1900 1 1.2940003328056680e+01 1.0927197264295186e+01 2.6884430654008789e+01 0 0 0
375 2 6.7129105613968569e+00 8.4346448743097255e+00 6.8683478538530940e+00 0 0 0
1668 2 4.7893611177269566e+00 8.4114505925990084e+00 1.0602524665183595e+00 0 0 1
2439 2 1.0714624695368371e+01 1.5606641829062252e+01 6.7045257104706568e+00 0 1 0
2476 1 2.5243633103114416e+01 1.5836242316452312e+01 2.5419093850827391e+01 0 0 0
844 1 1.5485824669703412e+01 1.7618674689460875e+01 2.1692081783467188e+01 0 0 -1
1607 2 1.7942101673010644e+01 4.7568424896647619e+00 1.0459393054001216e+01 0 0 0
1611 2 7.8269967101408664e+00 1.5973194980590856e+01 4.1796190180161980e-01 0 -1 0
314 2 1.1927279613827128e+01 2.2869376671388828e+01 1.5973835427237832e+01 0 0 -1
2602 1 1.3832218343256596e+01 1.7899393103154061e+01 2.5384118512655192e+01 0 1 0
1871 2 1.4316643303331510e+01 2.4822351010975627e+01 1.8300413401500656e+01 0 0 0
1560 2 6.4268966551516229e+00 2.1543021759199701e+00 1.1641703659862555e+00 0 1 1
90 2 2.1813614326030926e+01 2.2872698198694483e+01 1.5130292324237194e+01 0 -1 -1
271 1 1.2606539279924082e+01 1.1519682871090417e+01 1.8371025680462232e+01 0 0 0
2469 2 8.3966744577668031e+00 1.3634772600101126e+01 6.0524793378585287e+00 0 0 1
1657 1 1.7789411004867254e+01 2.9336463342939034e+01 1.4555373761865752e+01 0 -1 0
385 1 2.1644887531252884e+01 2.0899184292256724e+01 2.6908649316892433e+01 0 0 -1
154 1 2.1245409730503280e+01 2.3961763487498803e+01 7.2982246452500990e+00 0 -1 0
29 2 1.9736176191167125e+01 2.2754340809762763e+01 1.4790913365377758e+01 0 0 0
1152 2 1.8095055185923016e+01 1.5633219156923406e+01 1.9305903613715348e+01 0 0 0
625 1 1.2797912849265577e+01 8.1922724770938320e+00 9.9742322969739339e-01 0 0 0
1878 2 2.0262818547733648e+01 2.9263297921986982e+01 1.9072415815856917e+01 0 -1 0
2437 1 1.1239034908468629e+01 1.4799112395157742e+01 6.8033866569450492e+00 0 1 0
1615 1 1.5213478136361644e+01 2.0101558616708829e+01 1.4515363309104712e+01 0 -1 0
920 2 2.0731432260083199e+01 1.3301761104227921e+01 2.0357647974689534e+01 0 0 -1
284 2 3.0471803349477277e+01 2.9895016477908293e+01 2.3508615787675801e+01 0 0 -1
630 2 2.0463480469494726e+01 7.9993822819363887e+00 1.5683357445700551e+01 0 0 0
820 1 1.9554695651923918e+01 2.5362556639515020e+01 2.2020537422522654e+01 0 0 -1
2670 2 2.0250294845903017e+01 2.2036327996936809e+01 1.2440855246726219e+01 0 0 0
117 2 1.6223581848919736e+01 1.3858914174772726e+01 8.6694038012677754e-01 0 0 0
857 2 1.9722477582222858e+01 1.0494365523125403e+01 9.0733409588039624e+00 0 0 0
2492 2 1.7999813558796461e+01 2.9470460199762563e+01 2.7127408657624855e+01 0 0 0
1085 2 2.0542158232802151e+01 2.4746508966885791e+01 2.6358262035599761e+01 0 0 -1
848 2 1.8180711184405581e+01 1.8974563464980232e+01 1.4014276972700957e+01 0 0 -1
187 1 1.0013535072125434e+01 2.4120027503821724e+01 7.9837284241770243e+00 0 0 0
1084 1 2.0625122914916712e+01 2.4553031460486462e+01 2.5386718089909213e+01 0 0 -1
1910 2 1.5629948508630044e+01 1.8405099402472004e+01 8.9698770021600431e+00 0 0 0
1087 1 2.1228844789037115e+01 2.9358147863024112e+01 2.6877653248523178e+01 0 0 -1
360 2 2.2007283121873400e+01 2.4765786048043136e+01 1.7955891611201302e+01 0 0 0
196 1 1.5702490224339009e+01 2.2535493573317936e+01 1.3250690462927121e+01 0 -1 0
777 2 1.9066606976240855e+01 3.1832609934976507e+01 2.7068801981480199e+01 0 0 -1
308 2 2.9768145019738675e+01 2.9081530132096074e+01 2.5223002152713288e+01 0 0 -1
309 2 2.8956872340505193e+01 2.8929859932824328e+01 2.6577772237410542e+01 0 0 -1
3003 2 1.4040947512829373e+01 4.1948704642696093e+00 1.1254365449968592e+01 0 1 0
1809 2 1.5775127522296760e+01 1.5531867949332764e+01 1.4153978068082964e+01 0 0 0
880 1 1.7200116426543826e+01 2.4651982214458521e+01 2.1065702489100683e+01 0 0 0
315 2 1.1124591222163009e+01 2.1711257127699792e+01 1.5370491236865396e+01 0 0 -1
283 1 3.0071037409986953e+01 3.0412136565942909e+01 2.4288854256138229e+01 0 0 -1
386 2 2.0889961930358570e+01 2.0780568717943286e+01 2.6249142643626481e+01 0 0 -1
1619 2 7.1536967077610640e+00 1.8224510319435680e+01 5.6610158528949519e+00 0 0 1
726 2 6.9673781069825171e+00 4.8307472223464600e+00 3.7573239900319013e+00 0 0 1
31 1 1.0069800808725667e+01 2.4836682765896377e+01 2.6174896895018285e+00 0 0 0