LAMMPS data file via write_data, version 3 Mar 2020, timestep = 25550000

2016 atoms
2 atom types

0.0000000000000000e+00 1.7961712400221725e+01 xlo xhi
-5.5095699892944232e+00 5.0505729966223356e+01 ylo yhi
0.0000000000000000e+00 1.9102065507980704e+01 zlo zhi
5.1911324055394302e-02 -6.6814844905044843e+00 -2.1400558509228063e-02 xy xz yz

Masses

1 16
2 2

Atoms # atomic

1238 2 7.8706935467243451e+00 3.9027632222834256e+00 1.3190178727004628e+01 -1 1 0
1392 2 8.8977738412939065e+00 -3.6471316530584303e+00 2.6180390334485963e+00 -1 1 0
1862 2 1.2887305743595562e+01 -6.3027667854274938e-01 5.7136090969037898e+00 0 1 1
879 2 1.5260505747522316e+01 7.0074359263669042e+00 6.2563905801837434e+00 -2 0 -1
622 1 6.4179995585457164e+00 5.1061288952245754e+00 1.0393030565889312e+00 -2 0 -3
1137 2 4.2023319995820785e+00 6.5756095011854239e+00 1.7291817355431245e+01 0 0 -1
202 1 9.0619043243930051e+00 4.2987458588557939e+00 9.1876708735872992e+00 -5 0 -1
1149 2 -1.8647495523732474e+00 5.6306093555142649e+00 7.9649250715809350e+00 1 0 0
288 2 -3.7429360389216271e-01 7.3620063019710322e+00 1.7057271830454997e+01 2 0 -3
1164 2 1.0623363597176207e+01 -4.9772809702463521e+00 2.9166128120816657e+00 2 0 0
1496 2 8.3575449706664973e-01 -9.3409596449401544e-01 1.7751096280586072e+01 -1 1 -1
358 1 1.3525339984474346e+01 6.4687681069235623e+00 9.8249021474980189e+00 1 0 0
1428 2 3.5109523495236110e+00 4.1266897837433181e-01 3.4262425075033986e+00 0 1 2
642 2 1.1044376240992168e+01 4.2351031292150729e+00 1.1559445784972914e+01 5 0 0
297 2 1.1393202414851373e+01 -5.0136036324734663e+00 8.6505015830869567e+00 1 0 3
1237 1 7.7374694303758931e+00 3.4526318294367471e+00 1.4079312452756865e+01 -1 1 0
1686 2 1.0641527921004469e+01 -4.6325782934265964e+00 1.7966328137947404e+01 -3 1 -1
1584 2 -2.0847760270169231e+00 -3.3037194651698507e+00 1.4266438398805104e+01 -1 0 1
1562 2 5.2144079535731613e-01 6.2886645005115263e+00 1.8915818869699223e+01 0 0 0
722 2 4.7405068106434411e+00 -4.9640247460325284e+00 8.5519831242306434e+00 -4 0 -2
1561 1 7.8421980792248380e-01 7.1116033570600887e+00 1.8445463194916925e+01 0 0 0
523 1 7.1445029678825556e+00 7.7645074876941838e+00 9.0326868519224082e+00 -4 0 -4
1426 1 3.7678402841601661e+00 -5.9311167923739738e-01 3.3844760068416759e+00 0 1 1
48 2 8.6336554676867276e+00 -3.5448550562481724e+00 7.0637741578707507e+00 -3 0 -1
1863 2 1.4315031891528900e+01 -1.3376869354728553e+00 5.7408595939585423e+00 0 1 1
807 2 1.0961136115061441e+01 -2.9084949042648924e+00 1.7125359038986733e+01 -4 0 1
1038 2 6.2922893363657026e+00 8.0840978540805501e+00 5.1517662551615642e+00 -1 0 -1
1858 1 4.3325562527374526e+00 -3.7263263251846039e+00 1.4465644251299407e+01 -1 1 0
1111 1 -4.4857304746094107e-01 -5.0219643494926522e+00 8.3994663669654397e+00 1 0 0
1297 1 1.6254389533717308e+00 -2.7162414991767676e+00 1.1255515333635698e+01 0 1 0
215 2 1.4111951204680954e+01 -4.8004015314483475e+00 5.3668836997153324e+00 1 0 -1
1435 1 1.5652758254919981e+01 -3.5771863910447088e-01 2.8122037118814198e+00 -2 1 0
1436 2 1.4729525724129148e+01 -3.2391206920125715e-01 3.0033270384813791e+00 -2 1 0
1123 1 9.5676060171707711e+00 -4.2119306380289681e+00 1.1461476486740040e+01 -1 0 -1
1311 2 9.4264324543234217e+00 -5.0417368077718363e+00 1.6307076708912284e+01 -1 1 -2
415 1 5.3394056271414936e-01 4.1516819524954478e+00 1.6360891428566728e+01 2 0 0
1495 1 5.3201924237316067e-01 -1.7412113531436644e+00 1.7221122458909640e+01 -1 1 -1
1358 2 -9.0506737949404004e-01 -6.9639603250506532e-01 1.2087033345489798e+01 -1 1 0
216 2 1.3425726587269041e+01 -3.7557457884041341e+00 4.3810333874135496e+00 1 0 -1
1359 2 2.3496496146275625e-01 -1.4691083576563111e+00 1.1412720871069739e+01 -1 1 0
1427 2 3.7523345367810466e+00 -9.5836306203222144e-01 4.2728861548328778e+00 0 1 2
1063 1 1.6531396758147288e+01 6.8443818906872522e+00 3.6738101082152288e+00 -1 0 0
338 2 8.7644942930128842e+00 7.3349956938590477e+00 1.1742229945515222e+01 -1 0 -1
425 2 6.5511724901336130e+00 1.9867661353330366e+00 8.8119142961159245e+00 -2 0 2
806 2 1.1391643827850636e+01 -1.9013892340992995e+00 1.6125267397351546e+01 -4 0 1
417 2 1.0466445995318310e+00 4.9729291335053620e+00 1.6196367275336055e+01 2 0 -1
1972 1 -2.1766829751344874e+00 -2.7806314328087840e+00 8.2598757283101172e+00 -1 1 0
1298 2 1.4605209374662804e+00 -3.7061439339708411e+00 1.1257444005325510e+01 0 1 0
46 1 8.1069810529670789e+00 -4.3530240399971962e+00 6.8216555238917032e+00 -3 0 -1
1492 1 1.2300632855293768e+01 -2.6317649911417957e+00 3.7797968268665914e+00 0 1 -1
1437 2 1.6055721993635117e+01 -6.1378840336286355e-01 3.6423996894065267e+00 -2 1 0
1357 1 -3.0308914979596313e-01 -5.9368343077416874e-01 1.1383544561708279e+01 -1 1 0
836 2 1.6591679698100787e+01 -4.9371616215352772e+00 1.2182405901801769e+00 -1 0 2
1582 1 -2.5268556195915957e+00 -4.1570157850997393e+00 1.4172339756537580e+01 -1 0 1
568 1 -1.9969322907402693e+00 -3.8522878742554338e+00 1.9081169776355225e+01 -2 0 1
1064 2 1.5977191485483392e+01 6.1841278447987609e+00 3.1002804127125323e+00 -1 0 0
1497 2 -4.4849135408248575e-01 -1.5967630064608942e+00 1.7085149185095666e+01 -1 1 -1
171 2 -2.2235973309657018e+00 -2.7725075476964740e+00 6.4272006549660947e+00 0 0 3
1136 2 3.0325706243654764e+00 6.9776000874148369e+00 1.6299578984125596e+01 0 0 -1
1299 2 2.2036854871926863e+00 -2.4705980181360943e+00 1.2051339494216682e+01 0 1 0
1734 2 1.2778453765162478e+01 -1.4640303986814427e+00 2.9800621006432375e+00 -1 1 1
203 2 9.8036612303030868e+00 4.9655936363936739e+00 9.0962173227802001e+00 -5 0 -1
1388 2 6.4243934722987062e+00 -3.3834493643661911e+00 9.0544196835578745e+00 1 1 1
1614 2 7.4832547801924418e+00 -4.2552781803474851e+00 1.5475951544603928e+01 0 0 0
1685 2 1.1479128973002698e+01 -5.1644538717550930e+00 1.6746351163757812e+01 -3 1 -1
1124 2 8.9571280669721887e+00 -4.9541478823026548e+00 1.1405608777673915e+01 -1 0 -1
160 1 5.5507875331932919e+00 5.6582922417045296e+00 6.9765404662820591e+00 2 0 -4
424 1 7.1849034129687990e+00 1.7754052158927003e+00 8.0625364394604730e+00 -2 0 2
432 2 -7.0585391063729208e-01 -3.9437856343667388e-01 9.6733638911105277e+00 2 0 4
1065 2 -7.2697249048297963e-01 6.4118571188437699e+00 4.2040709646558359e+00 0 0 0
431 2 -4.2398100766375801e-01 -6.1788641797013710e-02 8.1570143719975778e+00 2 0 4
575 2 -2.5902658331698283e+00 -4.5338480004351407e+00 1.5024960190837509e+01 -1 0 1
295 1 1.1184945290897188e+01 -4.1962907824046463e+00 9.1922431621228764e+00 1 0 3
1634 2 -1.0289274386797942e-02 3.1548042758580888e+00 1.0926139913006502e+01 1 0 0
1391 2 7.8062401000191954e+00 -2.6422325541858864e+00 2.0551362162136568e+00 -1 1 0
877 1 1.5242111956638842e+01 7.8032493601241377e+00 5.7281892948795763e+00 -2 0 -1
1341 2 1.2794776138896976e+01 -4.5606740131637906e+00 1.2250962853233583e+01 0 0 1
938 2 1.1573311457248874e+01 -3.7158952250156991e+00 1.3972099954101875e+01 0 0 1
999 2 1.2022808801035856e+00 -5.0472459809246280e+00 5.9683620623987466e+00 -2 0 3
676 1 6.3973128167647264e+00 -3.9858378737797828e+00 4.6763550439249029e+00 -1 0 2
175 1 -2.3031567435814360e-02 -1.0698990838905544e+00 4.9004678348846937e+00 -4 0 0
337 1 8.6766033958805089e+00 6.7839406599980379e+00 1.2545435452424570e+01 -1 0 -1
283 1 9.6734386367870906e-01 5.4722064472201684e+00 1.2744843004390187e+00 -3 0 1
1340 2 -3.7095341097960564e+00 -4.4457958551646355e+00 1.2654791245080961e+01 1 0 1
641 2 1.1045863775579356e+01 4.5460658049233622e+00 1.3101006250936960e+01 5 0 0
746 2 1.6378657289879885e+00 7.5094879943967623e+00 5.0932859294181609e+00 -2 0 1
197 2 9.6236088564286639e+00 7.6513504330187931e+00 1.3729724396131358e+01 -2 0 -2
483 2 9.4371604884674110e+00 6.5100305762333637e+00 1.7052535229564370e+01 -2 0 -3
190 1 1.3316694856952619e+01 6.7797223586804058e+00 8.1290768621763287e-01 -2 0 -2
570 2 5.4410200391755463e+00 -4.3113486338159444e+00 2.8720572357243807e-01 -2 0 2
458 2 5.9083584139516931e+00 5.1317535188260024e+00 1.7182909883270792e+01 -1 0 -3
204 2 8.9552362455885763e+00 4.1523320588944692e+00 8.2416630949833358e+00 -5 0 -1
525 2 7.1763507057902771e+00 7.8455972674977641e+00 8.0555921358460747e+00 -4 0 -4
284 2 1.0319276556874617e+00 5.7983799110942797e+00 2.1405254134771621e+00 -3 0 1
1125 2 1.0078628141465071e+01 -4.2751334557568015e+00 1.0642471379944652e+01 -1 0 -1
287 2 -1.1776862288878549e+00 6.6501521122603648e+00 1.5816760380764299e+01 2 0 -3
677 2 7.1024741338161226e+00 -3.7115814656809327e+00 4.0741307469158414e+00 -1 0 2
624 2 5.4589119476764161e+00 5.1190286647092655e+00 1.0897309022146404e+00 -2 0 -3
176 2 -8.3482197465605279e-01 -1.7166550685712267e+00 5.0142444151689070e+00 -4 0 0
623 2 6.8633699448735559e+00 5.4877087592148328e+00 1.8127742301363614e+00 -2 0 -3
797 2 -2.6736777428454137e+00 -4.5173067441061292e+00 1.7603640267558635e+01 -2 0 0
1860 2 4.5263295465174131e+00 -4.3488086420394181e+00 1.3749786942909987e+01 -1 1 0
939 2 1.0604968160802475e+01 -4.4526500988675899e+00 1.2953495738117216e+01 0 0 1
1974 2 -1.6274449387565781e+00 -3.6141872854718993e+00 8.4018065525293029e+00 -1 1 0
1304 2 1.1999985363465683e+01 6.5543118265185392e+00 9.3847525275264125e+00 0 0 -1
621 2 5.2046896892780188e+00 -4.2842403330850161e+00 1.8659347260534695e+01 -3 0 -2
1383 2 1.3430612741296546e+01 -7.8145340008981723e-01 1.2355190004943195e+01 -1 1 0
718 1 1.0991610938065381e+00 -5.3420994272600417e+00 1.0615923720098708e+01 -3 0 -2
214 1 1.4258604988446306e+01 -4.2698932809880965e+00 4.5290578065047642e+00 1 0 -1
244 1 6.1563879243576514e+00 6.6903657121392115e+00 1.3552566105522896e+01 -4 0 -3
805 1 1.1068753259266209e+01 -1.9555390862562287e+00 1.7038680787589783e+01 -4 0 1
245 2 6.9481409066301705e+00 6.7276135237393895e+00 1.2983776925469634e+01 -4 0 -3
943 1 2.6534934840761881e+00 -3.6014249795718682e+00 1.7324241921778508e+01 1 0 3
1045 1 3.8861297984322802e+00 6.3595668702140991e+00 3.3249057546483147e+00 1 0 -1
854 2 -2.4663918446489461e+00 7.1446789104415735e+00 1.7530629938554174e+01 -2 0 -3
57 2 7.9978063623302846e+00 -3.1557070811431638e+00 1.2264853149206663e+01 -1 0 2
792 2 6.7938667632164729e-01 -9.6006244281519670e-01 1.6139605610690666e+00 -1 0 1
292 1 3.1107994106411878e+00 -1.5831157492047532e+00 1.3336247453974190e+01 1 0 -3
293 2 3.5637254287884232e+00 -2.3716941526017172e+00 1.3794154957607716e+01 1 0 -3
1271 2 2.0803862942352782e+00 -2.6509412913481105e+00 9.7020458313835576e+00 0 1 0
326 2 1.4880273216493242e+01 4.4791193652318100e+00 2.2764039815667969e+00 1 0 -1
1270 1 2.4546906214883926e+00 -2.9333701526801970e+00 8.8314896333623665e+00 0 1 0
1272 2 3.2258241605310598e+00 -2.3250629022088853e+00 8.6972516642300519e+00 0 1 0
71 2 6.3487734214182066e+00 -9.3572744967168742e-01 1.1884277541528157e+00 1 0 1
1493 2 4.2978445010173321e+00 -7.0548695508110804e-01 3.8119854792810365e-01 5 0 3
937 1 1.1406059538199244e+01 -4.5732843625154844e+00 1.3515762727977297e+01 0 0 2
1389 2 6.7842938973099365e+00 -4.3411378292827258e+00 7.8966310766630032e+00 1 1 1
944 2 3.2328893514340376e+00 -3.5490196512208807e+00 1.8066819144120199e+01 1 0 3
1612 1 7.0070053940433725e+00 -3.3951402963092732e+00 1.5215501475532283e+01 0 0 0
350 2 -3.2651224047346674e+00 1.1603230442213075e+00 1.8271362749206705e+01 3 0 4
449 2 8.9653759849697092e+00 -1.6355655017249977e+00 1.6820169227793851e+01 -2 0 -1
426 2 7.6891297857044734e+00 9.8425891633568607e-01 8.3792981798392301e+00 -2 0 2
926 2 7.1945751067032635e+00 7.3079732163612210e+00 2.8101128993002109e+00 1 0 1
430 1 -1.0578609273954758e+00 -4.2426105794794378e-01 8.7994285335641003e+00 2 0 4
945 2 2.0062379113064130e+00 -2.9433706520842469e+00 1.7281396626193978e+01 1 0 3
790 1 1.1152378900932711e+00 -1.3229999436527846e+00 2.3819793395923226e+00 -1 0 1
698 2 3.6585393389545651e+00 2.5915262926446783e+00 3.0435126748935084e+00 4 0 7
1078 1 7.2187035129873758e+00 -7.4148439036977454e-01 1.5589338887648632e+00 1 0 1
56 2 7.3715734357339322e+00 -2.7837603084100913e+00 1.3730089470804806e+01 -1 0 2
55 1 7.5586262739497778e+00 -2.4541398199247442e+00 1.2821861880886159e+01 -1 0 2
629 2 1.0882727922645747e+01 -1.9658316078442621e+00 6.5001533079168814e+00 -2 0 2
484 1 4.8159140912937302e+00 -1.3341588286745596e+00 9.2041346655884171e-01 5 0 3
1601 2 -1.5111427814087297e-01 3.0894437260461522e+00 5.5812873857978698e+00 2 0 1
716 2 6.8027902494622072e+00 -9.6246899376972639e-01 1.8302680601916027e+01 3 0 3
1494 2 4.4228861232944325e+00 -1.3959069545305605e+00 1.8442565183690314e+00 5 0 3
1944 2 1.0906599589301088e+01 2.7858473996244246e+00 2.7513476180722010e+00 -1 1 0
1613 2 6.0603640574763871e+00 -3.4879050211324061e+00 1.5278470681249562e+01 0 0 0
697 1 2.8494723680090051e+00 2.0291198867202143e+00 3.1589517985566142e+00 4 0 7
128 2 5.3880024172320606e+00 2.0408082938372187e+00 5.8391557572525432e+00 -2 0 -1
791 2 2.0099747952945659e+00 -8.7977483534842094e-01 2.5507941182543430e+00 -1 0 1
630 2 1.0523390155803316e+01 -7.0223825117784600e-01 5.6223718898209984e+00 -2 0 2
450 2 7.7956234964075115e+00 -2.1479797104333467e+00 1.6016013045017459e+01 -2 0 -1
448 1 8.0691245760214336e+00 -1.3503066249741469e+00 1.6547957810697795e+01 -2 0 -1
349 1 -3.2748518853430433e+00 1.9570327674616017e-01 1.8399078727619983e+01 3 0 4
294 2 3.8516265890443924e+00 -1.0572427819469361e+00 1.2994445370748142e+01 1 0 -3
296 2 1.2045096913726294e+01 -3.7937676375268907e+00 9.4076381911356748e+00 1 0 3
1942 1 1.1547850702517156e+01 2.0208215164404262e+00 2.7187366402073305e+00 -1 1 0
1943 2 1.1370428156155480e+01 1.6498133587382506e+00 1.8242432031285942e+00 -1 1 0
672 2 1.3679120890618726e+01 -3.8064335139749801e+00 1.0479715018456719e+01 -5 0 -1
596 2 8.9962926768406799e+00 -1.3566486733311285e+00 1.3040301853905834e+01 1 0 -3
1952 2 1.6144832149444497e+00 -2.7459776329449910e+00 7.2645072778343067e+00 -1 1 0
835 1 1.7085220360183932e+01 -4.4860019354449232e+00 4.9132766079684226e-01 -1 0 2
127 1 5.7123353332037077e+00 1.0960342916690822e+00 5.8377459022317622e+00 -2 0 -1
1602 2 -1.6397878509133987e+00 2.8744712064057012e+00 6.0417402329969248e+00 2 0 1
1895 2 5.0934836009563913e+00 -2.9322845707200913e+00 5.1991274153772142e+00 -2 1 0
1600 1 -7.2765852778072460e-01 2.8394527711379585e+00 6.3588207972636415e+00 2 0 1
1894 1 4.3710346505758686e+00 -2.3375293159855257e+00 5.5269421619349242e+00 -2 1 0
717 2 1.3060132894040709e+01 -9.8830225620326484e-01 6.5810415466857364e-01 3 0 4
1093 1 1.1656183198712196e+01 -2.0265185031166992e+00 1.4443624622375538e+01 0 0 -2
396 2 1.0373165533831227e+01 -3.1640729244856844e+00 8.3840449786540407e+00 -5 0 -3
671 2 1.4307702920158796e+01 -3.0005450389799933e+00 9.1393654526439434e+00 -5 0 -1
1172 2 2.2786298870156592e+00 3.7354456768889275e+00 5.7987359390304194e+00 3 0 1
628 1 1.1180783112987552e+01 -1.4615612240347868e+00 5.7597337670460096e+00 -2 0 2
1577 2 1.8522902877140668e+00 -9.3372601950584855e-01 1.4239496612428285e+01 1 0 0
1173 2 1.8949600124556920e+00 2.9146667898522978e+00 4.4990221910491073e+00 3 0 0
1171 1 1.5403765651774184e+00 3.5193222287596804e+00 5.1941147306586268e+00 3 0 0
351 2 -4.2484841365409105e+00 7.1123578166528034e-02 1.8534597306268587e+01 3 0 4
394 1 9.9132890463250636e+00 -2.5521603472325669e+00 7.7477813957098878e+00 -5 0 -3
1631 2 7.6214578188343705e+00 2.2996023854853220e-01 1.6567109167022011e+01 0 0 0
75 2 9.0090995739462620e+00 6.5628916852465036e-01 4.6053581411610489e+00 -4 0 2
73 1 9.9144826544993183e+00 7.6499075266370653e-01 4.9699672121210563e+00 -4 0 2
1762 1 1.6390353788868435e+00 4.7288684252747615e-01 1.8722887599850708e+01 -2 1 0
1094 2 1.0924751453100477e+01 -1.6073508017615450e+00 1.3907065109628814e+01 0 0 -2
699 2 2.3744131943982429e+00 2.0423088039867778e+00 2.3293948381244669e+00 4 0 7
715 1 6.1027050585529032e+00 -1.2593718355088503e+00 1.8876974807921638e+01 3 0 3
246 2 6.4643179084299414e+00 6.3718442364976262e+00 1.4394986081905634e+01 -4 0 -3
129 2 6.2185937183722606e+00 1.1425560215333146e+00 6.6723377810737006e+00 -2 0 -1
704 2 3.1471507444354252e-01 1.5119729046997339e+00 6.7562875577034323e+00 -2 0 1
1896 2 3.4598035161990861e+00 -2.7380623038866805e+00 5.4539391809502344e+00 -2 1 0
703 1 7.4275651908776696e-01 6.6448432432434679e-01 6.9217921449383235e+00 -2 0 1
1764 2 1.4545974549099148e+00 1.4472055668614088e+00 1.8664450864590858e+01 -2 1 0
1095 2 1.2453642916000476e+01 -1.5627507657620501e+00 1.4129918966660915e+01 0 0 -2
1941 2 1.4398324761174939e+01 2.7974477653899115e+00 1.5653358053759061e+00 0 1 2
1080 2 7.7472632287201515e+00 -2.9456589343175477e-01 8.6037188682444043e-01 1 0 1
837 2 4.8615916572231299e-02 -4.3055701586521398e+00 8.3577808210252846e-01 0 0 2
670 1 1.3530124472119116e+01 -3.2591313191691471e+00 9.6765676028783076e+00 -5 0 -1
148 1 5.4624101207375819e+00 -2.5027901625997728e-01 1.2629806313013377e+01 -4 0 0
150 2 6.1485978535287451e+00 -9.2238399516075287e-01 1.2798199183379619e+01 -4 0 0
1913 2 7.3343010614868822e+00 4.5211374381562610e+00 1.5327919566181953e+01 0 1 1
149 2 5.5242032143407931e+00 4.1954948315739138e-01 1.3350962733194590e+01 -4 0 0
206 2 -2.6294443161306420e+00 -2.3434192728471790e+00 1.6861387389662053e+01 5 0 -1
1951 1 1.6688333550389225e+00 -2.9033644148404143e+00 6.3070669370630910e+00 -1 1 0
1867 1 -5.9992940731783122e+00 -1.0719579732803108e-01 1.8581835897388522e+01 0 1 -1
1576 1 1.0714005518310277e+00 -5.0190209654853923e-01 1.4742066427660763e+01 1 0 0
189 2 5.7882316052191509e+00 -1.5737202855315915e+00 8.8182559427615850e+00 -5 0 -5
1578 2 1.0539555370901361e+00 -9.4165847116622814e-01 1.5625343954206423e+01 1 0 0
905 2 3.0703752393729236e+00 2.0789524283383960e+00 9.5020859516222913e+00 -3 0 2
388 1 -4.3428119035111168e-01 4.8873648875633009e+00 8.2243975143025896e+00 1 0 1
904 1 3.1135991889451797e+00 2.5705570902374273e+00 1.0349349344233955e+01 -3 0 2
69 2 9.3573879973532037e+00 2.2745504701359387e-02 9.6564108029736104e+00 -3 0 -2
1132 1 1.1763998331111686e+01 1.4444348530360571e+00 1.6288013652160526e+01 0 0 0
1134 2 1.1712104369957506e+01 1.0741596644241591e+00 1.7191617778786032e+01 0 0 0
74 2 1.0360715750989169e+01 1.3329057217504516e+00 4.3428777035391963e+00 -4 0 2
1921 1 1.4445922128870901e+01 5.5463043263196354e-01 8.4179669259040164e+00 0 1 0
1912 1 6.9342411245856610e+00 5.2959635278656290e+00 1.5763258076782883e+01 0 1 1
633 2 1.4741783416122928e+01 2.1147790125713710e+00 4.1386046391378422e+00 -4 0 -1
205 1 -2.1359229616944666e+00 -1.5202152868888290e+00 1.6621403693620312e+01 5 0 -1
395 2 9.7353921963544590e+00 -1.6537308258327950e+00 8.2576183792211317e+00 -5 0 -3
862 1 9.5047030084207833e+00 5.6589661203117902e+00 8.3256431429449118e-01 -4 0 -3
595 1 9.5273792602725429e+00 -5.6157789806891856e-01 1.3161913567319280e+01 1 0 -3
755 2 5.8742854787588552e+00 1.0987110340895851e+00 1.1163944112262094e+01 1 0 4
669 2 -2.2024405161096490e+00 3.1689489734139666e+00 1.7068508135626718e+01 -1 0 -2
906 2 7.6291372640607555e+00 5.8884138318534998e+00 1.6124451666262900e+01 0 0 1
1763 2 2.6030222932550036e+00 4.6523440259625026e-01 1.8810739159046530e+01 -2 1 0
754 1 5.8070158634206921e+00 1.7932791129491852e+00 1.0495262388430541e+01 1 0 4
188 2 6.2457133233085944e+00 -1.4688835712857884e+00 1.0384387483193752e+01 -5 0 -4
1922 2 -2.5871476358138157e+00 3.1833037235899297e-01 8.6637960044619700e+00 1 1 0
597 2 9.7636853013917655e+00 -2.9450380960649536e-01 1.2258182790585503e+01 1 0 -3
1869 2 1.1584290106619740e+01 -9.8657045112133002e-01 1.8201430554568752e+01 -1 1 -1
864 2 1.0329548018526108e+01 6.0953865546768995e+00 6.8526623720575774e-01 -4 0 -3
863 2 9.0575234223853407e+00 6.2795950804105001e+00 1.4684667765342734e+00 -4 0 -3
363 2 -6.9858495818398669e-01 -1.3443237546375242e+00 1.4236779036374934e+01 1 0 -1
1953 2 1.0525630937986525e+00 -2.2319814468906856e+00 5.8588395279919450e+00 -1 1 0
187 1 6.5657942461400278e+00 -1.7100285176697736e+00 9.4939506540868503e+00 -5 0 -5
361 1 -1.6447534648169739e+00 -1.4479253283233353e+00 1.4141838670640729e+01 1 0 -1
390 2 -6.1265789960771588e-01 4.4921025024182821e+00 9.1573074102519776e+00 1 0 1
705 2 5.7539987237782109e-01 9.4020096925230945e-02 6.1183511086106934e+00 -2 0 1
67 1 8.7858501131815547e+00 -3.4316225220784879e-01 8.9404830241935915e+00 -4 0 -2
68 2 8.0777527505203857e+00 -9.5905734928876463e-01 9.1908276951083892e+00 -4 0 -2
667 1 -2.9502918975174675e+00 3.1069663526283868e+00 1.7671912735032226e+01 -1 0 -2
161 2 5.5584003927879300e+00 5.5383574276737857e+00 7.9535556883767402e+00 2 0 -4
1986 2 2.4732309729833393e+00 8.0133950396495468e-01 7.4358095635074681e+00 1 1 1
141 2 1.6230314066279934e+01 1.5521109409577551e+00 4.7316856498421039e-01 -2 0 -2
1939 1 1.4186086504179109e+01 3.0167512235654854e+00 2.4894817120860968e+00 0 1 2
1133 2 1.0871835805183595e+01 1.5086063245669745e+00 1.5949926428481643e+01 0 0 0
1630 1 7.4107173127525003e+00 1.1879457479993398e+00 1.6734242105500609e+01 0 0 0
803 2 4.9926193116354751e+00 2.0476917002649140e+00 1.4642057575931938e+01 -3 0 -2
756 2 4.9005304296609076e+00 2.1519943433540822e+00 1.0572900873114914e+01 1 0 4
1940 2 1.3229678349402779e+01 2.7232230523631582e+00 2.5923027827214025e+00 0 1 2
139 1 1.6868038173930522e+01 1.0206343310751178e+00 1.0231155480211402e+00 -2 0 -2
571 1 1.0564800854741934e+01 1.7048261062964531e-01 1.0622478346161278e+01 2 0 5
1394 2 4.1310635001574800e+00 4.1683935983580511e+00 1.7910230071155791e+01 0 1 0
1923 2 1.4238103866559070e+01 8.8450602431417558e-02 7.5765736507909605e+00 0 1 0
631 1 1.4796521195686640e+01 2.0809297917736496e+00 5.1030481287160390e+00 -4 0 -1
364 1 4.7490227305553327e+00 3.7296248358609922e+00 3.2093879238047354e+00 3 0 2
207 2 -2.5922939264438742e+00 -7.1988366503099499e-01 1.7009837425820848e+01 5 0 -1
927 2 7.5740043203232474e+00 6.1848194927113251e+00 3.6170996251589616e+00 1 0 1
1914 2 2.2585346974986824e+00 2.2756494178528524e+00 1.0832840504593788e+01 -3 0 2
1868 2 1.1164968810089224e+01 3.6635110643348412e-01 1.9018077231618584e+01 -1 1 -1
632 2 1.4429511236768386e+01 1.1904199881334954e+00 5.3542264184934885e+00 -4 0 -1
365 2 5.7496900688509749e+00 3.6367283155145262e+00 2.9241318105215894e+00 3 0 2
423 2 1.3504684297553236e+01 1.9744059643378389e+00 8.5859800208830634e+00 1 0 0
421 1 1.3330223799143301e+01 2.9038364870956119e+00 8.8235413478567022e+00 1 0 0
1393 1 3.6153755268890269e+00 3.3592156458357145e+00 1.7701893493283780e+01 0 1 0
1992 2 1.4090096905216587e+01 4.7102031989991229e+00 6.6128017731492763e+00 -1 1 0
1632 2 6.6895622199247464e+00 1.4961573743489058e+00 1.6096989029278269e+01 0 0 0
152 2 5.0138687151855077e+00 2.0853468037603307e-01 1.8742309101153214e+01 1 0 -1
572 2 1.1489260460493039e+01 -2.1259365056491664e-01 1.0450893565376445e+01 2 0 5
33 2 1.4069725834305185e+01 3.6349345301779934e+00 1.0045060962421067e+01 -5 0 -6
802 1 5.8985368684456496e+00 1.7279048285345784e+00 1.4626262197267376e+01 -3 0 -2
828 2 9.3844330269581846e+00 9.4446755149483952e-01 1.4360134558048234e+01 2 0 1
855 2 -4.0362673258911252e+00 7.0019333308244924e+00 1.7436548914612377e+01 -2 0 -3
668 2 -2.8126854131421180e+00 3.5938239251080724e+00 1.8487889069480730e+01 -1 0 -2
362 2 -2.0301777550102198e+00 -1.3186667845534474e+00 1.5028627730080220e+01 1 0 -1
826 1 9.4139786573141500e+00 1.7037172160438736e+00 1.4984326805858501e+01 2 0 1
26 2 -5.4524998201134842e+00 4.7848357283627561e+00 1.5652996588552721e+01 0 0 -2
1010 2 1.3568405508832395e+01 -2.3975300232854302e-01 9.7688675406907635e+00 -1 0 1
1009 1 1.3079399625756075e+01 -7.3708973112571829e-01 1.0488019651075914e+01 -1 0 1
366 2 4.4722861376204062e+00 4.6842743296701954e+00 3.0635388784442918e+00 3 0 2
389 2 -3.6922709438553047e-01 4.2168623011725597e+00 7.4941531052778982e+00 1 0 1
1529 2 -4.0081780727815888e+00 4.0147335302461880e+00 1.2348951216926716e+01 0 0 0
1528 1 -3.9908814773261065e+00 4.1035168317564938e+00 1.3319006156876364e+01 0 0 0
1530 2 -4.1751157655770417e+00 3.2083001931458526e+00 1.3653240800065090e+01 0 0 0
140 2 1.6369310838133099e+01 4.0649022545325408e-01 1.6434553621268397e+00 -2 0 -2
106 1 3.5287247879830153e+00 3.0889180785765387e+00 1.4886677960986766e+01 -4 0 -2
153 2 4.5921356747278494e+00 1.6774485522004623e+00 1.8295446199691277e+01 1 0 -1
25 1 1.2399221626368432e+01 5.4215106916789324e+00 1.4942291298948101e+01 -1 0 -2
1011 2 1.3036340056760075e+01 -1.6654910922619774e+00 1.0122718491411309e+01 -1 0 1
504 2 -1.8239764803152037e+00 4.7820557194005850e+00 1.4621977860441190e+01 1 0 -2
1112 2 -1.2328083039893643e+00 -5.5129603649053953e+00 8.6352128717663668e+00 1 0 1
1990 1 1.3475712647353010e+01 3.9872533459818218e+00 6.3823720537716513e+00 -1 1 0
1677 2 8.6366103035465933e+00 3.2484186300157898e+00 1.8302967116892166e+01 1 0 1
1675 1 8.2636880143685900e+00 2.5257494376476366e+00 1.8839869937346883e+01 1 0 1
1676 2 7.6958047548869777e+00 2.1384641595735854e+00 1.8145257081822095e+01 1 0 1
647 2 6.6847418262277820e+00 4.0889173143819857e-01 4.3343449064542794e+00 0 0 0
646 1 7.4621124889397343e+00 5.6382868614878046e-01 3.7483370846482269e+00 0 0 0
1984 1 3.2743210227619208e+00 9.3258042106427208e-01 8.0187524097252041e+00 1 1 1
1400 2 3.2014091412751489e+00 4.1009278860312541e+00 1.0635263000926805e+01 -1 1 0
107 2 3.5996881231929807e+00 3.2825105428483781e+00 1.5841166735918161e+01 -4 0 -2
1135 1 3.5283994174380524e+00 7.2870818855572086e+00 1.7091781662834574e+01 0 0 -1
827 2 8.6512506401296445e+00 1.5551084288759798e+00 1.5627754393016994e+01 2 0 1
485 2 1.1766719830378131e+01 -2.1400630186983403e+00 4.4503706265273193e+00 0 0 -1
1859 2 3.8184252281526669e+00 -4.3031519577911617e+00 1.5068393181784097e+01 -1 1 0
1221 2 2.6975221012090129e+00 5.7978964757435971e+00 1.4364144292565392e+01 0 0 0
339 2 9.3191663911233178e+00 6.0621411201535338e+00 1.2387395923008587e+01 -1 0 -1
486 2 1.1784000048328608e+01 -3.3827508103602355e+00 3.4502051697427683e+00 0 0 -1
325 1 1.5333567590773525e+01 5.3179229770067202e+00 2.0050407906329255e+00 1 0 -1
1219 1 1.9536801082357451e+00 6.1563380922214019e+00 1.4981902328801974e+01 0 0 0
710 2 -5.8889478803833279e+00 7.8919005759232856e+00 1.8278818367271615e+01 -1 0 -2
503 2 -1.0559572501439032e+00 5.7207720365008363e+00 1.3578778975387022e+01 1 0 -1
1309 1 8.4868822579298921e+00 -5.3273689892391278e+00 1.5961766826040439e+01 -1 1 -2
1490 2 9.5121163933637227e+00 7.4410755108032500e+00 1.5874735162351310e+01 -3 0 -3
1477 1 2.0603086331494684e+00 -3.6804959826449144e+00 9.4167365358967137e-01 1 1 1
711 2 3.1711733211003512e-01 8.4350979174081573e+00 7.0071085123524146e-01 -1 0 -1
1732 1 1.3043190354340235e+01 -5.6439880264990183e-01 2.5102752411409019e+00 -1 1 1
619 1 1.1367883887248732e+01 -3.5307849464046743e+00 8.3126045644065130e-02 -3 0 -1
457 1 5.3769492927849907e+00 5.5180014701000673e+00 1.7919387753188698e+01 -1 0 -3
559 1 1.5940378913932549e+00 6.5115650577927813e+00 8.9312824072257495e+00 -1 0 0
723 2 3.3072918485054768e+00 -4.4307264346403610e+00 8.8647925369987757e+00 -4 0 -2
1651 1 3.6715180226874646e+00 7.4770133794686355e+00 7.0411643117106175e+00 -1 0 0
82 1 -5.3805104595568336e+00 7.9211264882791212e+00 1.6382663207791303e+01 1 0 -1
191 2 1.2425763074610989e+01 7.0522983565191080e+00 1.2867729322791415e+00 -2 0 -2
1911 2 8.0861309580696723e+00 4.9478350909611173e+00 5.7182648434477361e+00 1 0 2
360 2 1.3809634461026381e+01 5.6700515042708073e+00 1.0338797748617511e+01 1 0 0
192 2 1.3623630789359570e+01 7.6954883139198511e+00 5.4050525548995532e-01 -2 0 -2
1001 2 8.4429549031425566e-01 2.1359515402230196e+00 1.2576624194545460e+01 -1 0 -1
804 2 6.4833575622299557e+00 2.4524545063221259e+00 1.4188273930953631e+01 -3 0 -2
151 1 4.4789757033230888e+00 1.0161237694832010e+00 1.9039110890275683e+01 1 0 -1
1032 2 2.0437343494596423e+00 2.5358774940329365e+00 1.4494053846974076e+01 0 0 0
1399 1 3.3574150816385844e+00 5.0667988578919196e+00 1.0827664940690875e+01 -1 1 0
1030 1 1.1085992714163151e+00 2.2352546302854766e+00 1.4290847368332994e+01 0 0 0
815 2 3.2489176753369947e-01 2.1889075719457827e+00 1.2394372329279806e+00 4 0 2
472 1 1.1067017403664229e+01 4.4792714001915570e+00 5.3275800064880245e+00 1 0 3
474 2 1.0911438001354664e+01 4.3618077287075945e+00 4.3508655589783620e+00 1 0 3
991 1 9.7661236663310014e+00 4.8827558834791773e+00 1.8106023952952409e+01 2 0 1
634 1 3.8728220059012903e+00 5.2614476114178341e+00 1.3406072664029951e+01 1 0 -1
844 1 1.0025348359925003e+01 4.1377350765596557e+00 2.9090627615051630e+00 2 0 2
61 1 7.4196977339062951e+00 3.8833332854495204e+00 1.1384866523822957e+01 -1 0 -2
846 2 1.0002627372002465e+01 4.8293489570365313e+00 2.2320235464897431e+00 2 0 2
473 2 1.1908589666321866e+01 4.1563018525233417e+00 5.6817172204846482e+00 1 0 3
845 2 9.1409637304390330e+00 3.9630013541518316e+00 3.2121209629312530e+00 2 0 2
814 1 1.1067320245181556e+00 2.7790781248021492e+00 1.2370087739732722e+00 4 0 2
422 2 1.3231129122393680e+01 3.3653538557464664e+00 7.9684505828106680e+00 1 0 0
510 2 4.4966006952782820e+00 -1.6114131184609080e+00 7.0617896618871834e+00 -1 0 0
515 2 3.1413677017102248e-01 6.8603776467967830e+00 1.2255543029412548e+01 2 0 2
509 2 4.1328053618953291e+00 -5.2007202438606903e-01 8.1422396398644388e+00 -1 0 0
1256 2 -4.4216559533118982e+00 3.6275604005311859e+00 1.7292816771854884e+01 0 0 -1
992 2 9.7633919767746704e+00 5.2675750797959822e+00 1.8971620156189129e+01 2 0 1
1981 1 3.6032338016552212e+00 5.0309824350333816e+00 6.4156320147797152e-01 0 1 1
461 2 1.0271780108484741e+01 3.2900896661724950e+00 9.8695122466859253e+00 -3 0 -1
1000 1 7.9832972265502367e-01 1.9519793833609178e+00 1.1594976804204288e+01 -1 0 -1
1991 2 1.4000817121180058e+01 3.3685506294660055e+00 5.8555251439449938e+00 -1 1 0
1395 2 2.8773360941705448e+00 3.3649504551254790e+00 1.8319243089335913e+01 0 1 0
403 1 7.0400342225685701e+00 -5.5188702351190697e+00 1.1230297939309194e+01 3 0 2
1878 2 6.4476815064586308e+00 5.1071187026112241e+00 1.0284824217825642e+01 1 1 1
648 2 7.2700134778196963e+00 1.1563026193587866e-01 2.9068693748197547e+00 0 0 0
816 2 7.9029610833376018e-01 3.7014847663142945e+00 1.2692321002477431e+00 4 0 2