LAMMPS data file via write_data, version 3 Mar 2020, timestep = 1000000

1008 atoms
2 atom types

2.4000680447020883e-01 1.8159548195523818e+01 xlo xhi
4.6906763125274864e-02 2.2523482236868787e+01 ylo yhi
2.1758755372585803e-01 1.9288128446268757e+01 zlo zhi
5.8094563027928189e-02 -6.6656690996764985e+00 -2.2412012790302794e-02 xy xz yz

Masses

1 16
2 2

Atoms # atomic

1 1 6.5643194030485938e+00 1.2000587102946920e+00 5.1761986144068572e+00 0 0 0
165 2 1.6621402326963587e+01 8.4610449905477070e-01 6.6306159873157156e-01 0 0 0
3 2 6.7189036785581724e+00 1.6676404060854206e+00 4.2976699262072220e+00 0 0 0
4 1 3.8707688983036999e+00 1.0700998579592975e+00 5.1161534748625845e+00 0 0 0
5 2 4.8028023980781045e+00 8.9740993456945717e-01 5.0550273736861167e+00 0 0 0
6 2 3.7878398546876166e+00 1.5614011511207657e+00 5.9949711323441459e+00 0 0 0
7 1 -3.5734410674008465e-01 6.7739952277545683e+00 5.0187202242347793e+00 0 0 0
8 2 -5.8411976216354566e-01 6.3146507949554618e+00 5.8091965308992277e+00 0 0 0
9 2 -9.7999032085739524e-01 7.4741785247455610e+00 4.7757916765056141e+00 0 0 0
10 1 2.1678107881970536e+00 6.2381574050509920e+00 4.7171989994882368e+00 0 0 0
11 2 1.2802966335802080e+00 6.5616163144356072e+00 4.8643766083114297e+00 0 0 0
12 2 2.7732803345901935e+00 6.9810348804292452e+00 4.6657670264820181e+00 0 0 0
217 1 6.6865884559272306e+00 1.0738809908945310e+01 6.4734136226435428e+00 0 0 0
14 2 4.7526821132608248e+00 5.2680415239145910e+00 9.0223777683991617e+00 0 0 0
248 2 7.8684089612625403e+00 8.4213370441082027e+00 4.5659106399984728e-01 0 0 0
219 2 5.9666553486423641e+00 1.0403579707576929e+01 7.1185461238420729e+00 0 0 0
18 2 5.5967678072677698e+00 5.1416432550738218e+00 5.9747596957507354e-01 0 0 0
151 1 6.4325968790126229e+00 5.1974223735687919e-01 8.6416150481255816e+00 0 0 0
293 2 1.2529257605538970e+01 1.0984658150735571e+01 7.4526101972927572e+00 0 0 0
21 2 8.9414575487248904e-01 2.2631970727461286e+00 7.9492918559992953e-01 0 0 0
486 2 1.1536705655760983e+01 1.4928823989226536e-01 8.9323445109269599e+00 0 0 0
23 2 1.4088678847877838e+00 3.5470991788359774e+00 9.3737509754113102e+00 0 0 0
25 1 4.6899608142659357e+00 6.1436210950811470e+00 7.3252720703576157e+00 0 0 0
26 2 5.4233183802633436e+00 6.7202472727055351e+00 7.6680104919510006e+00 0 0 0
27 2 3.8525299515389495e+00 6.6625360307551036e+00 7.6050665433268936e+00 0 0 0
28 1 5.8683697872824618e+00 6.0253580261524249e+00 2.2314379182389752e+00 0 0 0
29 2 5.7913670385378877e+00 5.6538567675785751e+00 3.1252341200438076e+00 0 0 0
30 2 5.2900640842163256e+00 6.8128763797385279e+00 2.0471671428738318e+00 0 0 0
31 1 1.2557050271658556e+00 1.5182199562423744e+00 2.5620060435229517e+00 0 0 0
32 2 2.2175698480533903e+00 1.2337263844778583e+00 2.4747748700961236e+00 0 0 0
33 2 1.2500752639223172e+00 1.9940172802722316e+00 3.3557479300351947e+00 0 0 0
34 1 3.9309410261925981e-01 1.0971583498177349e+00 7.3332902796357757e+00 0 0 0
100 1 1.4726650207883512e+01 5.0073328775273485e+00 4.5402592616923743e-01 0 0 0
36 2 8.4305056339587336e-01 1.7289981879237770e+00 8.0238714491330825e+00 0 0 0
37 1 6.5330814109928879e+00 2.5787735555791489e+00 2.6610341298543863e+00 0 0 0
38 2 5.5692309122735733e+00 2.8527939296825542e+00 2.5851458070952202e+00 0 0 0
39 2 7.0780790004500780e+00 3.3886706314803510e+00 2.7192940422510175e+00 0 0 0
40 1 4.0030389639796233e+00 2.5926170967001543e+00 7.6053332144587298e+00 0 0 0
41 2 4.8825784375729162e+00 2.9646727517835370e+00 7.5568433837969469e+00 0 0 0
42 2 3.3313196475078937e+00 3.2728308656593148e+00 7.3431039801032973e+00 0 0 0
43 1 -3.6832959178113778e-01 4.9784074712558528e+00 7.2237608542033289e+00 0 0 0
44 2 -1.0153771398225664e+00 4.1591130126262108e+00 6.9866057143195368e+00 0 0 0
45 2 -6.3880899487218312e-01 5.3797497625574415e+00 8.0941285547599549e+00 0 0 0
46 1 1.8409800308771715e+00 4.8763060651607839e+00 2.3195027926911327e+00 0 0 0
47 2 9.4850999083453258e-01 4.5136725818040491e+00 2.4367836495649811e+00 0 0 0
48 2 1.8539246363724593e+00 5.4682833896433465e+00 3.1015317786842735e+00 0 0 0
49 1 6.8181304096587887e+00 3.4388661088899415e+00 6.6836479160576028e+00 0 0 0
50 2 6.6010539603271905e+00 4.0516480275268449e+00 5.9771416152299830e+00 0 0 0
51 2 6.8803531708286378e+00 2.6255661132088917e+00 6.1938166262635663e+00 0 0 0
52 1 3.7530259195963493e+00 3.4361266858661366e+00 3.7044205506740302e+00 0 0 0
53 2 2.9549938307980210e+00 3.8441884523629124e+00 3.3406800417711406e+00 0 0 0
54 2 3.5613241653494372e+00 2.5562629884992272e+00 3.9690779443537414e+00 0 0 0
55 1 -6.2602082511022106e-01 4.3909724309470093e+00 3.7437898107009309e+00 0 0 0
56 2 -8.1105108705996698e-01 5.2256510518634016e+00 4.0974548164138422e+00 0 0 0
57 2 -1.2727950556530709e-01 3.8888938742838284e+00 4.4135711405566775e+00 0 0 0
58 1 2.2956341851413984e+00 4.3454829990803407e+00 6.6471580956336895e+00 0 0 0
59 2 2.5092898865865485e+00 5.1769635676950303e+00 6.2217795564416321e+00 0 0 0
60 2 1.4583556042889545e+00 4.5906239560198676e+00 7.1019520703542014e+00 0 0 0
61 1 8.3686760858514386e+00 6.9589813223426811e+00 1.4669189680196484e+00 0 0 0
62 2 7.6758059956904230e+00 6.6630723835309889e+00 2.0405380191488605e+00 0 0 0
63 2 8.4783042381137967e+00 6.1323089948270812e+00 9.9372178349423290e-01 0 0 0
64 1 2.2008019509065258e+00 6.9887160730719931e+00 8.5264260352305357e+00 0 0 0
65 2 1.5182823640589556e+00 7.5531930396538272e+00 8.1523463774613312e+00 0 0 0
66 2 2.5939729492005106e+00 7.5947825765843584e+00 9.1442528272758405e+00 0 0 0
671 2 8.3351606022201441e+00 5.6660404384389711e+00 8.9374622552502139e+00 0 0 0
68 2 -2.1857886866308598e+00 1.3437496202617512e+00 9.0661918803594315e+00 0 0 0
2 2 7.1744226899056738e+00 4.6075067232735523e-01 5.1332696223244394e+00 0 0 0
72 2 3.9582790270429475e+00 1.1639841770338273e+00 1.2884018987337187e+00 0 0 0
73 1 5.3886560831114485e+00 5.0634405201772097e+00 4.9101556635088013e+00 0 0 0
74 2 5.0599640459393243e+00 5.6834755143420370e+00 5.5734778218436158e+00 0 0 0
75 2 4.6542867378684143e+00 4.4918925209773848e+00 4.5910817651393696e+00 0 0 0
76 1 9.2443734768425845e-01 2.6959777481519320e+00 5.0388487761806759e+00 0 0 0
77 2 6.0440966372890537e-01 2.1170812188779169e+00 5.7053935439089072e+00 0 0 0
78 2 1.6794016274556336e+00 3.1370235092588574e+00 5.4705150469858612e+00 0 0 0
80 2 6.6399682553602890e+00 1.8772505715356524e+00 7.5953817518876032e-01 0 0 0
612 2 1.2017408429093477e+01 2.8688994996677737e+00 4.0462388742628652e-01 0 0 0
86 2 1.6447856903128752e+01 5.6543026381436956e-01 5.0013814464747011e+00 0 0 0
85 1 1.5865412484138050e+01 1.3384447430692075e+00 4.8657697865258625e+00 0 0 0
87 2 1.5753575869059238e+01 1.6747517125342051e+00 3.9114623442537910e+00 0 0 0
88 1 1.2932220808887122e+01 1.3502798374228850e+00 5.4116829106934494e+00 0 0 0
89 2 1.2603019492021209e+01 1.8317328035600560e+00 4.6468193742633481e+00 0 0 0
90 2 1.3871041344644960e+01 9.8112975131115354e-01 5.2887341844152251e+00 0 0 0
91 1 8.2217821526167629e+00 6.5450534675631200e+00 4.9304711628365778e+00 0 0 0
92 2 8.0399139218619347e+00 5.7547573780515711e+00 4.3569938255077671e+00 0 0 0
93 2 9.1095785287150086e+00 6.8666300491007908e+00 4.7827011431199375e+00 0 0 0
94 1 1.0904170126966214e+01 6.5114040640411899e+00 5.0755200858161373e+00 0 0 0
95 2 1.1588934446041568e+01 7.1885361853715919e+00 5.2857366674279493e+00 0 0 0
96 2 1.1032630689836001e+01 5.8171902324986444e+00 5.7766503101543432e+00 0 0 0
586 1 -8.8123222184482497e-01 6.2869917742327726e+00 9.6364695571443164e+00 0 0 0
83 2 1.8308088607359854e+00 5.6271249861778907e+00 6.8658726976220497e-01 0 0 0
220 1 3.8639962543784345e+00 1.0666646078512743e+01 3.6003499480943395e+00 0 0 0
101 2 1.4742643995643327e+01 5.3778128910912404e+00 1.3587420116014051e+00 0 0 0
301 1 1.5597519290299660e+01 1.0858502654239725e+01 6.3708384846445201e+00 0 0 0
70 1 3.6592283995408841e+00 4.3237718270129200e-01 1.9291372145078491e+00 0 0 0
836 2 1.2675014402410964e+01 9.4339827016258582e+00 9.0990338673393438e+00 0 0 0
109 1 1.3871349139006188e+01 6.4720973397617625e+00 7.4125874435507901e+00 0 0 0
110 2 1.4190985448669283e+01 5.7100439072278775e+00 7.9835345549268082e+00 0 0 0
111 2 1.2961183532637989e+01 6.6476653671905712e+00 7.7934936697079573e+00 0 0 0
112 1 1.4941335183421920e+01 6.5308826620084659e+00 2.7801444682139471e+00 0 0 0
113 2 1.4268710144647221e+01 7.2146715368388525e+00 2.5346079825540517e+00 0 0 0
114 2 1.5929165215805741e+01 6.7258493055767419e+00 2.7654571261845882e+00 0 0 0
115 1 1.0321362824707446e+01 1.1576582616582440e+00 2.8089816684920139e+00 0 0 0
116 2 1.0273458442615695e+01 1.8000785072997638e+00 2.1126202154331981e+00 0 0 0
221 2 4.7208257667972120e+00 1.0659376011632441e+01 3.0603209715183119e+00 0 0 0
118 1 8.8677166832815359e+00 1.1891885154555391e+00 7.8103426208285391e+00 0 0 0
119 2 8.9964050725414602e+00 1.9089895343141068e+00 8.4692188509885273e+00 0 0 0
120 2 9.1467245526580321e+00 1.5173306058250984e+00 6.9254836369782549e+00 0 0 0
121 1 1.5238606655147247e+01 2.8419567449343344e+00 2.6841996239756440e+00 0 0 0
122 2 1.5944367012342614e+01 3.5545383448102528e+00 2.9217868690657620e+00 0 0 0
123 2 1.5465375087438032e+01 2.4571289582425737e+00 1.8124747035800561e+00 0 0 0
124 1 1.3287076102121970e+01 2.6535107264503259e+00 7.7316621519939970e+00 0 0 0
125 2 1.3998821837142094e+01 3.1556898589095130e+00 7.3293737242405363e+00 0 0 0
126 2 1.2965236129424516e+01 2.0717367829072941e+00 7.0492940299606301e+00 0 0 0
127 1 8.6742837260509251e+00 5.2681150652248689e+00 7.2648983871065509e+00 0 0 0
128 2 8.1530608448785582e+00 4.4303818923698408e+00 7.0419006801217954e+00 0 0 0
129 2 8.5284710052616681e+00 5.8598799455709889e+00 6.4877872842933018e+00 0 0 0
130 1 1.0925636755876061e+01 5.1453292829736892e+00 2.5472832319509933e+00 0 0 0
131 2 1.1590548801286022e+01 4.5180290665347336e+00 2.9036982716149682e+00 0 0 0
132 2 1.0853975003226248e+01 5.8305513700588119e+00 3.1885769776381911e+00 0 0 0
134 2 1.5014446861359605e+01 4.0917297679861475e+00 5.8970820361732823e+00 0 0 0
136 1 1.2693768837968637e+01 3.6284876345054493e+00 3.6187109962539479e+00 0 0 0
137 2 1.3109166761427129e+01 4.2847550919724418e+00 4.2205535009788875e+00 0 0 0
138 2 1.3417725938240739e+01 3.2696783897603354e+00 3.0665608001648899e+00 0 0 0
139 1 8.4631298455024524e+00 4.1329352623941960e+00 3.4170904791455774e+00 0 0 0
140 2 9.2124969883782075e+00 4.3843401528540493e+00 2.8278563789481863e+00 0 0 0
141 2 8.7455071171427772e+00 3.4553937375536150e+00 4.0386107649166574e+00 0 0 0
142 1 1.1123595729939838e+01 4.1005062504708549e+00 6.4892632420659213e+00 0 0 0
143 2 1.1882747874444341e+01 3.6478099651650724e+00 6.8769758546672630e+00 0 0 0
144 2 1.0404676976077079e+01 4.2536824782909619e+00 7.1012186660301397e+00 0 0 0
147 2 1.7104159406559429e+01 7.6375174955898695e+00 1.1069892049073538e+00 0 0 0
148 1 1.1248477226050621e+01 6.9149876726830959e+00 8.4853083954907067e+00 0 0 0
149 2 1.1221686555854255e+01 6.1421287164226612e+00 9.1071545251296175e+00 0 0 0
150 2 1.1442790725484620e+01 7.7136875617640204e+00 9.0116903371361428e+00 0 0 0
584 2 2.8926770980723280e+00 4.8038348993857966e-01 9.4571891480852806e+00 0 0 0
780 2 1.2855715443300875e+01 9.3983047882957038e+00 6.9916553003718274e-01 0 0 0
153 2 6.1054404625094696e+00 1.3469873876475054e+00 9.0781914451518126e+00 0 0 0
152 2 7.3024237072361622e+00 6.7725695257923402e-01 8.2064141333391216e+00 0 0 0
155 2 1.3078607748004247e+01 1.3720866944633039e+00 1.1452601916659280e+00 0 0 0
302 2 1.4824252736134781e+01 1.0583769306414849e+01 6.8659470780151768e+00 0 0 0
157 1 1.4167600838234472e+01 5.2737950871265147e+00 5.0828210469420805e+00 0 0 0
158 2 1.4401235988729740e+01 5.9365600401400700e+00 4.3667708087171135e+00 0 0 0
159 2 1.3978548477750994e+01 5.7758125763368735e+00 5.8564790240860125e+00 0 0 0
160 1 9.6258877893818049e+00 2.3079483269850911e+00 5.1767001066892062e+00 0 0 0
161 2 1.0214075582780293e+01 3.0723116996235609e+00 5.3655993314598742e+00 0 0 0
162 2 9.9733383580935140e+00 1.8085421252599860e+00 4.4037482384066466e+00 0 0 0
290 2 1.5791629167115952e+01 1.0659910357837784e+01 2.7928819229387156e+00 0 0 0
311 2 1.0820114711241775e+01 1.0832525424756476e+01 5.2645329403625745e+00 0 0 0
97 1 1.4103495776317692e+01 4.5684689002773737e+00 9.6899449263847011e+00 0 0 0
169 1 6.7222802067716660e+00 8.7150384857008447e+00 4.5397416597374187e+00 0 0 0
170 2 7.2323800035153063e+00 7.9252699006475389e+00 4.6010770827801561e+00 0 0 0
171 2 6.7619000169485872e+00 9.0804947211822125e+00 5.4699306797380576e+00 0 0 0
172 1 3.9238034984382502e+00 8.1428670190148491e+00 4.9057983104415168e+00 0 0 0
173 2 3.7665411336055383e+00 8.9883840122029799e+00 4.4049702738663923e+00 0 0 0
174 2 4.8544533561446448e+00 8.0134040509875675e+00 4.8019024089879023e+00 0 0 0
696 2 4.7033674932567653e+00 1.0923172094039652e+01 3.0854807689135832e-01 0 0 1
84 2 2.9757788956093960e+00 6.6946244106764716e+00 6.9249045670599263e-01 0 0 0
254 2 1.5640408999456470e+01 9.2587577465982207e+00 5.4829050940655764e+00 0 0 0
192 2 5.3793262211785642e-01 9.9197155269563719e+00 9.0924098338461139e+00 0 0 0
199 1 1.6271261080939263e+00 8.7794488860373114e+00 2.5819847117673498e+00 0 0 0
200 2 1.3106196319952317e+00 9.2213952201788132e+00 1.7474445157503362e+00 0 0 0
201 2 1.1333660669623309e+00 7.9200504670214729e+00 2.4919517607438983e+00 0 0 0
202 1 4.0568932010680836e-01 8.9375833946398995e+00 7.5669705101509068e+00 0 0 0
203 2 -4.8965305487259925e-01 8.5693008476922188e+00 7.6048487802377380e+00 0 0 0
204 2 6.2772351620603350e-01 9.1685649846720629e+00 6.6332730209735526e+00 0 0 0
205 1 6.3582842905176351e+00 1.0465522829161770e+01 2.5630860722134732e+00 0 0 0
206 2 6.6201112571753864e+00 9.7744119190572682e+00 3.2347921865675144e+00 0 0 0
207 2 6.5666820496425871e+00 1.0012707615611216e+01 1.7480195931113807e+00 0 0 0
208 1 4.2281370352113656e+00 9.5459349398192757e+00 7.2294154819155469e+00 0 0 0
104 2 9.4115525331179928e+00 3.2790190871118847e+00 3.6308022347118896e-01 0 0 1
210 2 4.2428046257797609e+00 8.7677709138584810e+00 6.6433858474365017e+00 0 0 0
156 2 1.2335498643381348e+01 1.0096306575385317e+00 2.5304942171861717e+00 0 0 0
209 2 3.5148361690277028e+00 1.0138069961110114e+01 6.9197388778233897e+00 0 0 0
222 2 3.1220587018822803e+00 1.0975190262634218e+01 3.0924588299526143e+00 0 0 0
521 2 1.9493931406943306e+00 5.6876323268012161e+00 9.6199377611060246e+00 0 0 0
35 2 -5.5257551196738475e-01 1.1336558128487031e+00 7.7049436328038645e+00 0 0 0
235 1 -2.2391231870128632e+00 8.0619190454315710e+00 8.1263530191215931e+00 0 0 0
236 2 -2.6315063434643737e+00 8.7687759743951759e+00 8.7093946007758110e+00 0 0 0
238 1 3.8684796106801174e+00 7.7604660873928655e+00 1.4854990329136115e+00 0 0 0
239 2 3.2523897766358529e+00 8.1247365398288789e+00 2.1633367881050694e+00 0 0 0
240 2 4.1340491173221485e+00 8.5996243796763512e+00 1.0389845519156036e+00 0 0 0
244 1 1.1077661777057008e+00 9.8127270187356164e+00 4.9704885894754467e+00 0 0 0
245 2 1.3824494324450585e+00 9.5370179920634737e+00 4.0386180524807305e+00 0 0 0
246 2 1.8671355541908519e+00 1.0359124305451797e+01 5.3838677085214144e+00 0 0 0
22 1 9.7574114878525053e-01 2.6917310530362046e+00 9.2495872054747128e+00 0 0 0
667 1 1.2279645925716711e+01 1.4323028233470312e+00 9.7005360972852639e+00 0 0 0
253 1 1.5543860425723928e+01 8.5919404777096915e+00 4.7812174100239133e+00 0 0 0
255 2 1.5310302893361493e+01 8.9501123583052351e+00 3.8991721888198456e+00 0 0 0
256 1 1.2827108759425398e+01 8.6612898481189902e+00 5.3412344606806466e+00 0 0 0
257 2 1.3716301778883402e+01 8.4443760819573015e+00 5.1630699663609247e+00 0 0 0
258 2 1.2674325204985371e+01 9.3723090259797388e+00 4.5525039680124610e+00 0 0 0
145 1 1.7542849182308078e+01 7.0414828713935798e+00 1.7004246895916577e+00 0 0 0
272 2 9.9739922516429118e+00 9.8570907853657026e+00 1.1481241768486417e+00 0 0 0
583 1 3.5952818510371318e+00 1.1313657934644246e+00 9.7433090961056266e+00 0 0 0
276 2 9.5184790578113532e+00 9.8628356618781297e+00 8.4473991115103164e+00 0 0 0
283 1 1.0462063026365895e+01 8.5582824358420755e+00 2.4485100537620870e+00 0 0 0
284 2 1.0375813269051113e+01 8.8511594276667349e+00 3.3888742316582534e+00 0 0 0
285 2 9.6978696256620225e+00 7.9986550248313870e+00 2.2343497505015204e+00 0 0 0
286 1 9.4497041710823275e+00 8.5232411793430938e+00 7.1140280947278329e+00 0 0 0
287 2 1.0039477793831640e+01 7.7716534243165301e+00 7.2535124342982353e+00 0 0 0
288 2 8.6217844111151170e+00 8.2631399948691726e+00 7.4582213677234410e+00 0 0 0
289 1 1.5054441837966287e+01 1.0077232124075673e+01 2.5893079947306128e+00 0 0 0
304 1 1.2573759235332323e+01 1.0584687225736937e+01 3.4169246520057510e+00 0 0 0
291 2 1.5216836090686206e+01 9.6227403530136932e+00 1.7502000670954181e+00 0 0 0
292 1 1.3008829826810416e+01 1.0141995685013155e+01 7.6072164721230431e+00 0 0 0
693 2 -1.5495698658029031e+00 1.0403106070975111e+01 9.7136971883933310e+00 0 0 0
294 2 1.2818540771942223e+01 9.6198223374388210e+00 6.8180769283341238e+00 0 0 0
154 1 1.3105154433445261e+01 7.6907634056099572e-01 1.9527655560178616e+00 0 0 0
67 1 -2.0481099121346436e+00 4.9855695451325305e-01 8.5569376405105029e+00 0 0 0
135 2 1.5740217124844159e+01 2.6259812553709159e+00 5.8718980560600835e+00 0 0 0
102 2 1.4040779438555335e+01 4.3633726965315187e+00 3.1180117956235831e-01 0 0 0
319 1 6.7494208097947510e+00 8.0609888749551679e+00 8.3079393599924511e+00 0 0 0
320 2 6.7571273420649387e+00 8.8966225650654067e+00 8.8779130893892848e+00 0 0 0
321 2 7.0966282139593577e+00 7.3785929241265711e+00 8.9425248308043450e+00 0 0 0
322 1 1.2822031002407297e+01 7.8098566878176987e+00 1.8512394436674044e+00 0 0 0
323 2 1.1839853612128746e+01 8.0838138466834515e+00 2.0002681638135087e+00 0 0 0
324 2 1.2744494389597916e+01 7.1264345371729236e+00 1.0954298574703318e+00 0 0 0
328 1 9.7699512779979294e+00 9.7523439216063252e+00 4.6765106489669934e+00 0 0 0
329 2 9.5092188289294626e+00 9.4462431601236219e+00 5.5665387398990207e+00 0 0 0
330 2 9.1106370336346743e+00 1.0377653365703710e+01 4.4606252522512513e+00 0 0 0
224 2 -7.6749580492266656e-02 1.0992450396506598e+01 4.1934556515085717e+00 0 0 0
274 1 9.5183525464784804e+00 1.0336677053564227e+01 9.3564518310195268e+00 0 0 0
668 2 1.2740039775580811e+01 2.0780265386071717e+00 9.1235455651916570e+00 0 0 0
306 2 1.3421887612059711e+01 1.0416431089189794e+01 2.9990345528438493e+00 0 0 0
237 2 1.4894526816518802e+01 7.6532426850102571e+00 7.7591178045256930e+00 0 0 0
587 2 -1.6288376089909047e+00 6.7461651030868008e+00 9.2883431990945269e+00 0 0 0
146 2 1.7681167342044720e+01 6.2219290148365722e+00 1.2184981539024466e+00 0 0 0
117 2 9.6858434302789576e+00 4.3683486978157204e-01 2.4979799991621596e+00 0 0 0
133 1 1.5509552334711884e+01 3.4003555135315682e+00 6.5016388731180816e+00 0 0 0
167 2 1.1241571005670277e+01 5.4191715409037604e+00 9.2206973873610143e-01 0 0 0
585 2 3.7004664265216274e+00 1.8371727867131304e+00 9.0588772689627213e+00 0 0 0
753 2 4.2113122020100455e+00 9.3570606200460134e+00 9.1261482213598608e+00 0 0 0
331 1 1.5815694086992041e+01 8.8434164731503291e+00 5.3586662315929767e-01 0 0 0
103 1 1.0050843524837633e+01 2.6350263771873288e+00 7.5574143718685416e-01 0 0 0
776 2 7.7082601785383105e+00 1.0367349218985982e+01 9.6551613660616393e+00 0 0 0
305 2 1.2028108702292220e+01 1.1175766715052793e+01 2.8528364942640243e+00 0 0 0
163 1 1.5974629228172583e+01 1.4406346184534391e+00 2.5551373628538937e-01 0 0 0
399 2 8.2073742662873066e+00 4.0276978860558615e-01 1.0728609796662667e+00 0 0 0
69 2 1.5146605711898465e+01 2.6927807787243585e-01 7.9635620907113900e+00 0 0 0
189 2 1.9886933341300244e+00 1.0399960901414673e+01 2.7326458324374858e-01 0 0 0
24 2 3.7291565018378048e-02 2.8967991938262165e+00 9.4898819741197418e+00 0 0 0
777 2 6.2142116277774662e+00 1.0864030028866164e+01 9.6262142011687750e+00 0 0 0
694 1 3.9646191253832725e+00 1.0211860828496734e+01 3.3722114604432540e-01 0 0 1
187 1 1.0192778375569933e+00 1.0255342028258578e+01 4.0668613052697533e-01 0 0 0
271 1 1.0065123716353085e+01 1.0042539522939371e+01 2.1931335105711208e-01 0 0 0
809 2 1.0096506613232162e+01 1.0450659848321402e+01 1.2562667393387716e+01 0 0 0
517 1 1.6763012066986800e+00 4.6309510845704001e+00 1.8919228360403721e+01 0 0 0
332 2 9.6178808747197202e+00 9.2523293063078569e+00 1.8857207362192490e+01 0 0 0
833 2 7.1146514139645980e+00 9.7821538619053747e+00 1.3711650178961637e+01 0 0 0
166 1 5.1119287872885870e+00 5.7818967758784048e+00 1.9190046881379466e+01 0 0 0
659 2 1.0004162871573921e+01 1.6526076840389176e-01 1.1712152745653233e+01 0 1 0
825 2 3.4217359642849283e+00 8.6115568495829553e+00 1.8157162295198574e+01 0 0 0
520 1 2.0759196817937622e+00 4.9861101673730746e+00 1.0284444305271798e+01 0 0 0
656 2 2.5397995041845469e+00 1.0963369381197266e-01 1.7520686563208287e+01 0 1 0
523 1 -1.6469758642684040e+00 2.7289788307410237e+00 1.0252969831858525e+01 0 0 0
190 1 3.8991080515848919e-01 1.0403709833071208e+01 9.9265731880871968e+00 0 0 0
620 2 6.2286963520284635e+00 4.5312912358825558e-01 1.2101140064967339e+01 0 0 0
655 1 3.2688524126553560e+00 5.6022813306269781e-01 1.7986410680129815e+01 0 0 0
507 2 3.8675580685415580e+00 3.2907471824897716e-01 1.4299225649661244e+01 0 0 0
191 2 6.3031402979034112e-01 9.7020366765729360e+00 1.0592220761937499e+01 0 0 0
518 2 7.0693614711104491e-01 4.4836913825022338e+00 1.9080819617560891e+01 0 0 -1
837 2 1.2352604784694080e+01 9.3072482942344301e+00 1.0515707675537332e+01 0 0 0
808 1 9.3956913557089159e+00 1.0639659848041477e+01 1.3187208565144863e+01 0 0 0
505 1 3.3065743725911094e+00 1.0656576312471768e+00 1.4111152363237498e+01 0 0 0
506 2 3.5908227555301666e+00 1.8396366491052516e+00 1.4647030286042694e+01 0 0 0
835 1 1.2526602377506912e+01 8.7030119405485724e+00 9.7763465948153456e+00 0 0 0
508 1 6.6230681587483797e-01 1.1857345251466682e+00 1.4490597015864493e+01 0 0 0
81 2 3.3744446954794505e-02 8.0430268216096745e-01 1.8747994546876946e+01 0 0 0
510 2 1.6091957367909790e+00 8.6826767129501481e-01 1.4454510129484332e+01 0 0 0
511 1 -4.0313807911975799e+00 6.5062173564380315e+00 1.4599303621347117e+01 0 0 0
512 2 -4.3160623724664324e+00 5.8590163454731190e+00 1.3951276267082715e+01 0 0 0
513 2 -4.0900619949352093e+00 6.0467021430204690e+00 1.5446568973335461e+01 0 0 0
514 1 -1.2086058020328392e+00 6.8359496293297610e+00 1.4433967063612767e+01 0 0 0
515 2 -1.2460182126826709e+00 5.9636258685978829e+00 1.4876884434327676e+01 0 0 0
516 2 -2.1355640901881023e+00 7.1031933068867437e+00 1.4319937644241698e+01 0 0 0
658 1 9.1383508441986514e+00 5.9344748716255136e-01 1.1481702740048213e+01 0 0 0
519 2 1.5609631772634245e+00 5.2243714816123275e+00 1.8123133179523911e+01 0 0 0
823 1 3.5903454218551110e+00 7.6745571565929236e+00 1.7842000371188455e+01 0 0 0
522 2 1.9958662674811469e+00 5.4278140732468865e+00 1.1171066204929220e+01 0 0 0
728 2 -3.6379100319317592e+00 1.1141955311974696e+01 1.3704590390131923e+01 0 0 0
98 2 1.4008578240302459e+01 5.4177443435881525e+00 1.0186318480299919e+01 0 0 0
525 2 -1.6420424391972401e+00 2.4608501603410193e+00 1.1195883865529762e+01 0 0 0
669 2 1.1721303868087299e+01 1.9572543097994315e+00 1.0352224082092873e+01 0 0 0
527 2 -2.8217032338226198e+00 1.9987562630782847e+00 1.8317814577473861e+01 0 0 0
529 1 1.3696668300249604e+00 6.3304881274380058e+00 1.6835086706617517e+01 0 0 0
530 2 1.2780170328748994e+00 5.8080789689241454e+00 1.5921223273149419e+01 0 0 0
531 2 5.4745782816744271e-01 6.8898643552025254e+00 1.6797290555981682e+01 0 0 0
532 1 2.1142342274689696e+00 6.3397895559731383e+00 1.2602704745732586e+01 0 0 0
533 2 3.0526380533992628e+00 6.6225942268667559e+00 1.2435855575907224e+01 0 0 0
534 2 2.0237436271638556e+00 5.8506196396467196e+00 1.3502572825167395e+01 0 0 0
535 1 -1.6651527622273981e+00 1.1243573390919694e+00 1.2427636916473260e+01 0 0 0
509 2 6.7839229322075312e-02 3.8869612159465405e-01 1.4466169924351860e+01 0 0 0
537 2 -8.5623953893154381e-01 7.5305931801686199e-01 1.1931061694620791e+01 0 0 0
538 1 -2.8651775925077345e+00 8.5496590030292174e-01 1.6926641592140321e+01 0 0 0
672 2 8.6893323773767577e+00 6.8316142835400173e+00 1.0028693421356575e+01 0 0 0
540 2 -2.7307160932055279e+00 1.2075840120921109e+00 1.6022260714236374e+01 0 0 0
541 1 3.0917139723286660e+00 2.8865898562013723e+00 1.2093231307598685e+01 0 0 0
542 2 3.0478925928537581e+00 2.1628533204712421e+00 1.2788130019673158e+01 0 0 0
543 2 3.1166404359202402e+00 2.5161195139426389e+00 1.1153640638239942e+01 0 0 0
544 1 6.1044341364008936e-01 2.7788565199376976e+00 1.6505630889604539e+01 0 0 0
545 2 5.3120896327330147e-01 2.3009089016931297e+00 1.7339524266547649e+01 0 0 0
546 2 4.8890319337391652e-01 2.0427826880718065e+00 1.5861680977627657e+01 0 0 0
547 1 -3.9048612453178704e+00 5.0757031594363182e+00 1.6824308327027367e+01 0 0 0
548 2 -4.6315387399795656e+00 4.4054187109829543e+00 1.6768099867564587e+01 0 0 0
549 2 -4.0081407039778671e+00 5.5820086562740885e+00 1.7649758742127858e+01 0 0 0
550 1 -1.4213424056109134e+00 5.2726886782071931e+00 1.2088017552520439e+01 0 0 0
551 2 -7.5249015090245353e-01 4.5176171285574469e+00 1.2283106333209425e+01 0 0 0
552 2 -1.4280331328725189e+00 5.8630262209473196e+00 1.2889742144334923e+01 0 0 0
553 1 3.3779689576953498e+00 3.3423803696534566e+00 1.5588788157679041e+01 0 0 0
554 2 2.7985310683868860e+00 3.0691453402921738e+00 1.6304117824363281e+01 0 0 0
555 2 4.1877174476464880e+00 3.8349995700008033e+00 1.5973268138919197e+01 0 0 0
556 1 5.6144847449681201e-01 3.5417237581289651e+00 1.2795867027858829e+01 0 0 0
557 2 1.5389373078456305e+00 3.4849917914348967e+00 1.2523795734773534e+01 0 0 0
558 2 4.0608483267491291e-01 2.6160100892898481e+00 1.3071231774268020e+01 0 0 0
559 1 -3.9964295532970064e+00 3.9272729145299827e+00 1.2853128943507391e+01 0 0 0
560 2 -3.2503391681396607e+00 4.4471369731080275e+00 1.2461054930066105e+01 0 0 0
561 2 -3.5825436211333597e+00 3.2655901109936063e+00 1.3440115024273227e+01 0 0 0
562 1 -1.2225527441676176e+00 4.6115794358101994e+00 1.5734848689331473e+01 0 0 0
563 2 -5.2423085152668669e-01 4.0570223697258214e+00 1.6154333204784869e+01 0 0 0
564 2 -1.9761804179649967e+00 4.6214454544120525e+00 1.6446080262972309e+01 0 0 0
565 1 4.8617326588742635e+00 6.9642753324189819e+00 1.1572760252471932e+01 0 0 0
566 2 4.5837577624782497e+00 7.7311715268592014e+00 1.1019917793825925e+01 0 0 0
567 2 4.9200650870325537e+00 6.1591401634121130e+00 1.0989797050205574e+01 0 0 0
568 1 -1.1191151582673404e+00 7.5384977104135986e+00 1.7711529246288265e+01 0 0 0
569 2 -1.2349988797853904e+00 6.6333061807322977e+00 1.8118364562990216e+01 0 0 0
570 2 -7.1831338947176882e-01 8.0531258958451293e+00 1.8508906971985567e+01 0 0 0
333 2 8.4560934977089914e+00 8.3117198192240913e+00 1.9099820953183325e+01 0 0 0
572 2 -5.7023862977622537e+00 1.2931566802728556e+00 1.7780214984410698e+01 0 0 0
721 1 3.3145748372470791e+00 1.0745353506617233e+01 1.5534304030256118e+01 0 0 0
807 2 1.2544153078274840e+01 1.0099381649975381e+01 1.5654863399988180e+01 0 0 0
576 2 1.1414062972529262e+00 1.0290106397273906e+00 1.0352408880770964e+01 0 0 0
577 1 1.6352168816204040e+00 5.0238734182147917e+00 1.4641128192293310e+01 0 0 0
578 2 9.7392864855245342e-01 4.5579279396188745e+00 1.4096087827649253e+01 0 0 0
579 2 2.2679042830846168e+00 4.3299545732630849e+00 1.4907152037361033e+01 0 0 0
580 1 -2.6182914875202594e+00 2.3019518023075309e+00 1.4718840019285546e+01 0 0 0
581 2 -2.3224905775367048e+00 1.8361852598656208e+00 1.3917979246114966e+01 0 0 0
582 2 -1.9188777218505910e+00 2.9981821316762964e+00 1.4880242513902422e+01 0 0 0
593 2 8.9455993831414347e+00 2.0650060326030814e-01 1.4638467455552226e+01 0 0 0
749 2 -2.0510387312353129e+00 1.0440592745799254e+01 1.4999508286561644e+01 0 0 0
589 1 1.2337091497077715e+01 9.0796172448073853e-01 1.4448339916621574e+01 0 0 0
590 2 1.1346489547007980e+01 8.5031768974949917e-01 1.4375349596040635e+01 0 0 0
591 2 1.2516863127197981e+01 1.7690236187577746e+00 1.4919901308225006e+01 0 0 0
592 1 9.5592976070749494e+00 9.6038948303277882e-01 1.4779477069246321e+01 0 0 0
794 2 1.2539958485632983e+01 1.0784594795119723e+01 1.2713169747733733e+01 0 0 0
594 2 9.2195090417587764e+00 1.6984657704695028e+00 1.4225805466655617e+01 0 0 0
595 1 5.2161587445975721e+00 6.6519605979174035e+00 1.4562350615820268e+01 0 0 0
596 2 5.2447066724871565e+00 6.1916633191463397e+00 1.5415349595203757e+01 0 0 0
597 2 5.3261607271004197e+00 5.8768812391333247e+00 1.3970491866796984e+01 0 0 0
598 1 7.9545910270651028e+00 6.4982291022962144e+00 1.4448314090084940e+01 0 0 0
599 2 7.0126443650096526e+00 6.7893881364282587e+00 1.4501508385360466e+01 0 0 0
600 2 8.0654719982495706e+00 6.0159981942534531e+00 1.3587449936579178e+01 0 0 0
571 1 -5.3795018954646885e+00 4.0469223169603030e-01 1.7612894686610218e+01 0 0 0
603 2 1.0691761674643569e+01 5.3498913332571849e+00 1.8180669146141760e+01 0 0 0
903 2 4.4714371398473300e+00 2.0075066958930465e-01 1.0608321144321289e+01 0 0 0
605 2 1.1277923501346654e+01 5.0262468104112594e+00 1.1014554058023508e+01 0 0 0
827 2 1.0354068473818403e+01 7.7141591564352723e+00 1.1505124482311182e+01 0 0 0
828 2 8.8627595204663443e+00 8.2944695332287441e+00 1.1749657781956881e+01 0 0 0
524 2 -2.4775079467280219e+00 3.1839212122179554e+00 1.0081524289255618e+01 0 0 0
609 2 6.0337743396445145e+00 2.3102341698709110e+00 1.0888048697983873e+01 0 0 0
986 2 1.3432793555672198e+01 6.0600727755056694e-01 1.0904806411632517e+01 0 0 0
611 2 5.9070848940105343e+00 2.2538888872114664e+00 1.8157698529350306e+01 0 0 0
613 1 1.0459084291802583e+01 6.2987690521321129e+00 1.6704589526358156e+01 0 0 0
614 2 1.1072510747732405e+01 6.9784343097040136e+00 1.7056076901127931e+01 0 0 0
615 2 9.5635207228842063e+00 6.6742082644355820e+00 1.6975772860438056e+01 0 0 0
616 1 1.1696689721243329e+01 6.7693395615754444e+00 1.2055327586169167e+01 0 0 0
617 2 1.1602250116589506e+01 6.2038344532205576e+00 1.2826135115628139e+01 0 0 0
618 2 1.2634338257503270e+01 6.8418910998357232e+00 1.1819349075196051e+01 0 0 0