LAMMPS data file via write_data, version 8 Apr 2021, timestep = 21641000

576 atoms
2 atom types

0.28229141522508155 17.637709584782087 xlo xhi
0.07729041522572708 17.432708584782212 ylo yhi
0.42729141522492836 17.782709584782186 zlo zhi

Masses

1 16
2 2

Atoms # atomic

173 2 2.6216055048533975 1.9637924667652384 3.6639906503950495 2 1 -1
172 1 3.007702007841419 2.799050236503738 3.967169174853784 2 1 -1
174 2 2.530883755218764 3.46322473137291 3.4342547609150254 2 1 -1
269 2 0.8574553564151908 0.5437472254247089 0.631787160531529 0 0 4
1 1 1.5096269695109898 3.5953383004616244 1.7374441168623114 3 0 0
2 2 0.9000327142420439 2.806028221585082 1.6826911682365249 3 0 0
3 2 0.8518820922125236 4.275923081789382 1.8099497801131736 3 0 0
99 2 4.78722732658669 2.532101029901959 3.842083566614225 1 2 1
196 1 5.546116108961646 3.374425908093208 1.2083383377665458 0 -1 1
197 2 5.5328630167529935 3.062363536029069 2.1978680267067543 0 -1 1
455 2 7.815552988246837 1.3185689596608483 1.7959795910174885 0 2 0
454 1 8.286826686454893 1.5836742497979819 2.62868316710346 0 2 0
456 2 7.431497221519428 1.7490024009065719 3.0734803389235075 0 2 0
97 1 5.76814601536374 2.467799450241966 3.7268933966890203 1 2 1
98 2 6.122648769664896 3.3329398078194354 3.968037832978167 1 2 1
37 1 6.7109421789463415 0.9769003653531235 0.7207595604576068 0 3 -1
38 2 6.188131709180525 1.8224842591802406 0.5643518067094258 0 3 -1
198 2 4.710312987169915 2.9583033676475616 0.8789592051276371 0 -1 1
39 2 6.1068478768512255 0.26921700352853517 1.0239716740653109 0 3 -1
49 1 2.0551592765597753 6.076893062796338 4.134987436374171 -1 1 1
521 2 3.6718225448215893 7.281577504606435 1.3412668089887148 1 0 -1
520 1 4.565416532690099 7.718113298902935 1.4177916130848394 1 0 -1
51 2 2.181870837533513 6.193882076099232 3.148600485801533 -1 1 1
544 1 2.083913448420736 6.653094419523329 1.3925073838625606 2 -2 1
50 2 1.7570257709514048 7.005366058816283 4.391846400930963 -1 1 1
288 2 3.8873380357312963 6.630339824189044 4.242868976868911 0 0 -3
241 1 1.7489539015432773 8.607184659294107 4.673884540889627 2 0 -1
102 2 0.44961330752455064 5.29149360807963 4.572516616372853 1 1 1
545 2 1.4176785289276201 7.302848572961664 1.1894914245824502 2 -2 1
546 2 2.423005647769726 6.169742599854471 0.6084341679548969 2 -2 1
287 2 4.8440130279191544 7.416710982194419 3.2947471181425696 0 0 -3
286 1 4.804040965991226 6.92439690038943 4.131925416164125 0 0 -3
522 2 5.276358663088455 7.0729898575617876 1.1670422789705208 1 0 -1
77 2 7.567904693507898 6.765379570539797 1.8156396197241984 0 1 1
76 1 8.055497691185732 6.874057748780471 2.639830967291845 0 1 1
375 2 7.782986809800932 8.646073554696473 2.9678517317824924 -1 -1 0
78 2 7.661447137434385 6.130163614820638 3.159260859361727 0 1 1
126 2 5.986490089316417 5.745363466447268 4.363099921524497 -2 0 0
124 1 6.731091158697896 5.142588566486894 4.04696492644504 -2 0 0
201 2 6.145458672827435 4.960333877377217 0.5479478752178962 2 2 0
199 1 6.464672243225478 5.91817033723327 0.545141340297213 2 2 0
550 1 0.912629109392642 9.42021308918301 0.982218681756423 2 -1 1
289 1 2.2176565325797033 12.65294707379257 1.9054861795915212 0 0 1
291 2 1.3695522784999852 12.403201071808654 2.3781053177621545 0 0 1
242 2 2.512883960212062 8.807770180907948 4.146395108313999 2 0 -1
370 1 3.2794035737362774 10.348827871523245 2.4101790076350342 0 0 -1
371 2 2.985283025988443 11.286490574645414 2.1244540340603852 0 0 -1
372 2 3.6753736527243763 9.972265050926687 1.5916907714702828 0 0 -1
552 2 1.4193973184171715 9.425281145057689 1.8014786808655379 2 -1 1
404 2 4.521020938292282 10.423333844079975 3.5335044191169636 0 -1 0
243 2 1.0108217996164848 9.06791213535092 4.252006126695906 2 0 -1
390 2 8.688198077808082 12.643777588958137 3.230997374450193 1 1 -1
403 1 5.2265706526300955 10.660327167972754 4.173992178606824 0 -1 0
374 2 7.74656651229619 9.900341570387226 2.182569642381614 -1 -1 0
373 1 7.446185875388076 9.542602765978138 3.0474729260847417 -1 -1 0
405 2 6.020521620604452 10.264194993382977 3.658395759913039 0 -1 0
389 2 8.422588995235593 12.882472290731025 1.6910825991119305 1 1 -1
131 2 8.4107912191146 9.694993248779928 4.52503238829343 0 -1 1
507 2 2.1946435431300957 17.411266363548762 1.8731024704316857 -2 -1 0
505 1 2.698362635066612 17.372423872873423 2.702855919899458 -2 -1 0
290 2 2.429797011149305 13.483388623895944 2.383833167837147 0 0 1
506 2 2.3539045759350175 16.63885471278593 3.248968637136329 -2 -1 0
282 2 1.2764849715959006 14.605398392190915 4.316000278914239 -1 -1 2
280 1 2.112592147615253 14.644936005343347 3.860834442487683 -1 -1 2
281 2 2.691639135170679 14.920247122350814 4.598457069793706 -1 -1 2
402 2 0.9930122116941542 15.099539777182093 1.9508143977878618 -1 -1 0
465 2 4.234092554111357 16.992039018295788 2.069153411991499 1 0 1
400 1 0.32413426620618635 15.408150857805227 1.346196469445475 -1 -1 0
567 2 7.845178257427517 15.480425368660631 2.6931926523328875 1 2 -1
566 2 6.707920519812397 14.427654259494151 3.3098018964395557 1 2 -1
565 1 6.960678325992687 14.994847098354613 2.548687285221921 1 2 -1
365 2 6.757701741631021 13.983281531324248 1.0017078983055026 0 1 1
464 2 5.424020349067434 15.932406074974786 2.1318632115808347 1 0 1
463 1 4.993291005681307 16.636428345902804 1.5619117167725225 1 0 1
397 1 0.5614726732598601 0.3761627544249534 8.826200538152522 0 1 0
167 2 1.4657435761815467 3.198704366620804 6.509886526298461 -1 1 0
309 2 3.5280703422572 3.462566691189892 7.414919566057127 0 -1 1
308 2 3.339201594921404 3.780426776593464 5.846684646698268 0 -1 1
307 1 3.0241936586772478 3.99182469214358 6.731434591828654 0 -1 1
13 1 4.425177249631555 2.1574059480212315 8.084789962390683 0 0 -1
57 2 0.31895449126500935 0.9240805733910721 5.965021426035966 0 0 0
166 1 0.6907902689340091 2.678494073264471 6.20114872492371 -1 1 0
168 2 0.37942474725575037 3.1306597667635008 5.396337833930798 -1 1 0
23 2 5.4708419647789075 1.0657112839326437 5.07096533023442 1 0 2
293 2 8.438709257651613 0.11849259846652319 7.766730220611784 2 0 0
24 2 6.045077383887423 0.1612842815375926 6.174946387125934 1 0 2
252 2 7.462295863114785 2.094945147457566 8.300190559690831 1 0 0
15 2 4.702034557135698 1.5824013907922736 7.363551041619626 0 0 -1
14 2 5.252135728785644 2.4834754960801453 8.40329003310662 0 0 -1
22 1 5.237841514910714 0.6246263573498905 5.891906627222654 1 0 2
250 1 7.009294350609969 2.8967407593275154 8.582168899146154 1 0 0
540 2 0.9725208234998146 5.692889477943897 8.474666567497104 2 -1 0
235 1 1.5997482821635067 6.21209261737758 7.077076170351113 0 0 0
237 2 2.212361406941654 6.9854662498213465 7.395526384767894 0 0 0
236 2 2.18075458276895 5.406513050834252 6.979101469847613 0 0 0
271 1 3.1746836903823956 8.02974698278395 7.900611301396362 1 1 2
273 2 3.808566265296211 7.450655105199058 8.34865720518912 1 1 2
272 2 3.6807008501447207 8.475096912825189 7.141135079270163 1 1 2
259 1 4.7668477869288175 6.080617934953046 8.938537277451784 1 1 2
134 2 4.840930568407393 8.183168875524984 5.511133413213557 2 1 1
244 1 8.178324877858742 7.033443119657938 6.3250210126464514 -1 1 0
191 2 6.824825374892798 4.451111424369782 7.618213134806753 1 1 1
125 2 7.1827351172967395 5.041333195632875 4.916525007019152 -2 0 0
192 2 7.204072825120112 5.820155946755775 6.936183297859859 1 1 1
190 1 6.539520534193444 5.083760719777228 6.9264641720212206 1 1 1
260 2 5.075731641914687 5.617624421283203 8.144701923326835 1 1 2
246 2 8.89004761106592 6.4176667178286095 6.612453043824234 -1 1 0
245 2 8.600026675154098 7.864498540327512 6.185541183897512 -1 1 0
306 2 1.112097130078218 10.010416128219767 6.584674498629601 -1 -2 1
304 1 0.8073751885620142 10.787278443689416 6.999249517521766 -1 -2 1
482 2 2.3177222648628604 11.671814215886629 7.527473953417719 0 -2 0
481 1 3.0361071317184125 12.066497869393345 8.097358637493032 0 -2 0
483 2 2.8561414079256964 11.665389558870627 9.064061637892369 0 -2 0
434 2 5.291107037153386 12.443973716609733 4.844138421261871 -1 0 0
513 2 7.258096849445799 12.791867952690428 5.127683077772431 0 0 0
511 1 8.186140811824602 12.885267483880053 4.892430320960792 0 0 0
133 1 4.655711568180517 8.957080260537792 6.124941845582171 2 1 1
130 1 8.516902829372038 9.663682990611063 5.4582408480121565 0 -1 1
222 2 6.069347190603006 9.499219013551036 7.144681397144288 1 0 0
135 2 4.778061896032818 9.70267172134516 5.501384459006675 2 1 1
221 2 7.392690881979339 10.048708812744948 6.496515909113953 1 0 0
220 1 6.763619925747698 10.176110543116259 7.280531648440793 1 0 0
323 2 4.761212209709526 12.20966511793511 8.197735945160183 -1 -1 1
322 1 5.7415723017375795 12.395980658827776 8.349482464605103 -1 -1 1
324 2 6.1184535452081015 11.534670580833769 7.96099748586328 -1 -1 1
413 2 7.459983326641922 9.706169953801087 8.733056783632193 0 1 0
512 2 8.692751898794086 12.208918466436417 5.397419326779027 0 0 0
284 2 4.030522595560111 16.16557787163697 6.128061891971708 -1 1 2
332 2 1.4257936806073361 14.708406984205752 8.334489794070363 -1 -2 -1
331 1 2.407607333105207 14.672559815947315 8.327837439150217 -1 -2 -1
285 2 2.9259398497483113 15.181030057084163 6.722765210600172 -1 1 2
333 2 2.7028561696698943 13.767573309925718 8.197020434723674 -1 -2 -1
283 1 3.4144104389206102 15.417812654805312 5.922902955847106 -1 1 2
56 2 0.477857586532354 17.380885037440777 7.208218692811449 0 -1 0
433 1 5.490143445448888 13.389208450068468 4.883790393467212 -1 0 0
58 1 7.333236673731859 16.452962000039996 6.768251080355488 2 -1 -1
435 2 4.77248327914152 13.892345425989319 5.340609270217665 -1 0 0
448 1 6.256587786956595 15.107708492885855 8.889348765674077 1 -1 0
449 2 5.992799367489383 14.181420689549755 8.851692226251918 1 -1 0
60 2 7.061365484299413 15.702268455672677 7.3256440228335125 2 -1 -1
59 2 7.835550758063991 16.131827867100146 6.004322109157241 2 -1 -1
300 2 8.821236057257435 14.489706736699922 5.017442257025142 1 1 -2
426 2 3.0661764203093718 2.1382911114792718 13.037519758762134 1 0 -2
424 1 2.6248776725879988 2.634771697597119 12.346673305989677 1 0 -2
425 2 2.5943109510048425 2.071130050568768 11.534160571879218 1 0 -2
354 2 3.7070782718642548 3.6291773195756876 11.227491621419555 -1 2 0
569 2 1.2375393492300146 3.560013013368514 12.668948574417598 2 0 1
163 1 2.971617563030817 0.9435447268048069 10.10706020438939 0 1 0
164 2 3.6417180858552074 1.3454281580540235 9.47838028263136 0 1 0
352 1 4.3042406591524465 4.233637586583846 10.805873706252925 -1 2 0
398 2 1.393597981748208 0.6939456279305224 9.305607451763871 0 1 0
568 1 0.31091959623900134 3.792908166224949 12.898712520038169 2 0 1
355 1 6.80440581738401 3.471432367482359 11.459470017243929 0 0 0
357 2 6.6991488904526 2.892483257301734 12.243676015801984 0 0 0
356 2 7.745543840740098 3.8377003258072193 11.462451809748186 0 0 0
353 2 5.228764762197469 4.044823317983529 11.084570958528245 -1 2 0
251 2 7.183108060154114 2.8210999198550493 9.514773578463188 1 0 0
476 2 7.307951740218853 0.37741584966375497 13.33740151023041 -2 3 0
539 2 0.4446479630859222 4.485908994714064 9.188831265481115 2 -1 0
501 2 1.6353091046567945 5.942103301907628 10.896953270127574 -1 1 -1
500 2 3.069960723187174 5.5428713568261445 11.302396772595092 -1 1 -1
499 1 2.3480983063192933 6.112580057469107 11.555349066538422 -1 1 -1
120 2 2.4623327622880207 7.9623756365792415 10.891079230038502 0 4 -2
538 1 0.6083694274834667 5.384776742369266 9.405050524774525 2 -1 0
459 2 2.379164648879402 6.285407723888325 13.254285739869605 0 1 -2
261 2 4.475490928408901 5.355371775757012 9.528015624899405 1 1 2
118 1 1.9867776507539023 8.576800123727638 10.327520879458133 0 4 -2
119 2 2.3904712235217556 8.458761556985085 9.450864511171504 0 4 -2
267 2 0.2985838830106857 8.744244301840606 10.913890685296408 -2 0 0
378 2 6.332845568138127 6.304102766279538 9.534915210860165 -1 0 2
377 2 7.488583446005707 5.95989937597918 10.507976929442595 -1 0 2
376 1 7.101195163024116 6.715854746460418 10.023933833229178 -1 0 2
258 2 6.59467034874023 7.867369717536119 11.396293185899802 0 -1 -1
256 1 6.172142731139005 8.461786016957818 12.113009769477062 0 -1 -1
414 2 7.607174125697107 8.521563687492897 9.651670185553485 0 1 0
362 2 3.2802996700595717 11.124573538664217 10.617709453164014 -1 -1 0
361 1 2.342618228669321 11.254712418187971 10.42415389443616 -1 -1 0
363 2 1.9724316106075541 10.350457389847152 10.5166167056034 -1 -1 0
44 2 1.1451791592835403 12.474697473109037 11.053015901367134 -1 -1 0
45 2 0.7828396600721736 13.084999063237976 12.44762122620365 -1 -1 0
347 2 4.1732148281600905 11.46949575836641 12.92055179563195 1 -1 -1
415 1 8.865917807797747 11.466598379990439 10.591023907645639 2 -1 -2
70 1 4.784554756810578 10.717504683142366 11.48008434518054 1 0 -1
254 2 7.33892722473433 12.102824957738111 10.975682898151163 1 1 -1
253 1 6.5381705395698555 12.662283811243304 10.921702520255947 1 1 -1
72 2 5.421876898615238 11.458330067952806 11.238471225812102 1 0 -1
71 2 5.300456104265636 9.89309577146064 11.601195455797866 1 0 -1
255 2 6.303844928234105 12.55290533579709 9.982457060714411 1 1 -1
257 2 6.943976853448243 8.854980366530679 12.617006811207267 0 -1 -1
416 2 8.529412338207912 10.552539484632971 10.285082133722806 2 -1 -2
412 1 8.060514187623864 9.370528089079547 9.435459975045928 0 1 0
165 2 3.165479947761111 17.323578895638544 10.249331568063797 0 0 0
43 1 0.6023258368992486 13.156572246736578 11.50824168081237 -1 -1 0
314 2 3.1998111889948038 15.368326106270452 9.646394570867308 0 -1 1
561 2 0.4282607635574974 15.070274181224132 10.833675391768544 -2 -1 1
313 1 3.9359664533910474 15.711823434305769 10.20283102772686 0 -1 1
559 1 0.46922445528218515 16.026540168639784 10.729388997510883 -2 -1 1
523 1 3.200550678080453 14.77327515487684 12.547091094934892 -1 0 -2
525 2 2.264718149511248 14.799317027852904 12.57594572865375 -1 0 -2
524 2 3.3878885953481648 13.858739480422473 12.8340837864897 -1 0 -2
315 2 3.825570895417104 15.260856164953905 11.03319032481373 0 -1 1
450 2 5.490094782680773 15.589508925042018 9.220960220329221 1 -1 0
475 1 7.903032423733235 16.969633641511574 13.37182001978478 -2 2 0
303 2 6.512354390538153 13.855787765019201 12.09376095169331 0 -1 0
301 1 6.71725316440222 14.546068784203458 12.791261541725627 0 -1 0
477 2 7.442812897184862 16.132789298280663 13.124996946292928 -2 2 0
140 2 7.780790888546443 15.540909937365027 9.979377093245423 0 -1 -2
139 1 8.77776788807417 15.530299711096971 9.916127005713697 0 -1 -2
302 2 5.90803269701559 14.868533284222684 13.171175241698682 0 -1 0
351 2 2.916678080171273 1.8310413211744714 17.237185626185763 2 -1 0
556 1 3.997199452066504 1.4969637017122166 14.440188949352228 0 -1 1
558 2 4.102438082462081 0.48923376025850873 14.494028176018348 0 -1 1
557 2 3.764100363796722 1.8575886370047638 15.298680961923484 0 -1 1
349 1 3.644605238366143 2.4279309799480346 16.888921652050147 2 -1 0
350 2 3.1789907020632455 3.264498002920616 16.761615081108204 2 -1 0
268 1 1.6834417414700842 0.31769074028633615 17.505720928894117 0 0 3
526 1 6.550414492546783 1.8453286684853145 13.739043033487835 -1 3 1
527 2 5.569890974851694 1.5957114768281149 13.934181558938995 -1 3 1
382 1 8.35322702391222 0.1668808752412656 16.10698367090437 0 1 1
528 2 6.734558060912288 2.443485034264868 14.510014842556288 -1 3 1
224 2 7.50264667798847 4.201302367845361 15.57919539822003 1 0 -2
223 1 7.665037774758109 3.2795532256814077 15.797053796671284 1 0 -2
225 2 8.540730143078083 3.0145851384171585 15.499469606442894 1 0 -2
383 2 7.717117240049647 0.619886454958952 16.693334189970926 0 1 1
90 2 3.011000761689408 5.235779470171102 15.715640933768386 1 0 -1
457 1 2.6374369792804515 6.540802331515003 14.125722240306436 0 1 -2
393 2 4.29180663331418 6.804510586787576 14.16828456600012 0 -1 0
458 2 2.306638472841668 7.4608738546841025 14.222270338966732 0 1 -2
88 1 2.593296366159872 4.874976774780842 16.555678045043784 1 0 -1
89 2 1.704852508547686 4.572536158183375 16.263811616720595 1 0 -1
391 1 5.271378062569794 6.994778241542105 14.293498305035206 0 -1 0
200 2 6.739234879191019 5.932329259286732 16.93845012465668 2 2 -1
392 2 5.552505840474795 7.43987238246888 13.464104301473343 0 -1 0
327 2 7.903460935529392 5.9619080910296365 14.706254861573639 -2 1 -1
326 2 6.315434458141604 6.022791212562886 14.929331213783426 -2 1 -1
325 1 7.146712055248928 5.747101471205893 15.342748397954145 -2 1 -1
345 2 5.229332825036442 8.344868332969336 17.014193150582393 1 -1 0
343 1 5.782405095330453 8.64476705412657 16.183872664560365 1 -1 0
344 2 5.585814568794506 7.969802303764421 15.492657655644914 1 -1 0
186 2 2.473619270989916 10.342035108550022 13.762239544783606 -1 -1 0
470 2 2.1493828686941936 13.045218174445658 17.409416656113642 0 -1 1
469 1 2.4267025766971586 12.908816645693918 16.505244811039866 0 -1 1
184 1 2.0207275507856584 9.605669355914648 14.161801425286985 -1 -1 0
185 2 2.3256357736217774 9.810269524619727 15.092690026150148 -1 -1 0
69 2 2.1022057479314737 9.993828029231754 17.064051226368225 -1 0 -1
67 1 2.888237253211538 10.335614783165047 16.62461969619095 -1 0 -1
68 2 2.6440290642938633 11.272705732840082 16.55702100061573 -1 0 -1
533 2 1.3033048904025653 12.751576488691482 14.683293419945514 0 2 0
348 2 4.4360143146536775 12.153255147277253 14.342172358478779 1 -1 -1
346 1 3.796029871690302 12.103051490608603 13.610170801226392 1 -1 -1
432 2 8.44364734235825 9.972792537899625 16.962823515764622 -1 -1 -1
431 2 7.30851860697991 8.959084179884139 17.08751942252579 -1 -1 -1
536 2 6.210239814009162 11.915799905488003 16.21785481256543 0 -2 1
535 1 6.055450597438553 11.277888383666644 15.488767327431152 0 -2 1
484 1 7.77303211243255 9.847248732250499 14.150509215554814 1 0 -1
485 2 8.545750747492539 10.27886982797534 13.702113038095218 1 0 -1
486 2 7.228233219040508 10.336951829921732 14.80590061556055 1 0 -1
537 2 5.5361340892607025 10.56172494034409 15.95363962420979 0 -2 1
430 1 8.159834341266336 9.199630314847496 17.515878596760285 -1 -1 -1
471 2 3.1514201283087733 13.553356158790304 16.35467713070048 0 -1 1
270 2 1.45244677229479 17.03114551018003 16.796207606151967 0 -1 3
176 2 4.048510369869648 15.961421822433906 13.651956561088436 0 -3 0
572 2 4.17669335260184 15.840325665605814 17.565241091326506 1 -2 1
534 2 0.7277605449571238 14.125612189338826 14.748656034429176 0 2 0
177 2 4.3222808668981605 15.881407771282515 15.159490035467922 0 -3 0
571 1 3.7899592433217584 15.365226801890868 16.768119235900645 1 -2 1
532 1 0.7803486633634451 13.374924311817018 14.114971437553264 0 2 0
358 1 0.5903958435833263 15.514290019964058 15.929950428435815 0 0 -1
573 2 2.9027225739003075 15.626761698380557 16.94040842385976 1 -2 1
175 1 4.599176127228425 16.373758967845834 14.350355667575709 0 -3 0
366 2 7.4591868938130395 13.884076535414575 16.98559489030169 0 1 0
213 2 8.947015689962239 14.530647032603145 15.762134142635235 -1 -1 -2
494 2 7.962230728864535 13.576353304153166 13.683961946769903 0 -1 0
212 2 8.703589456219484 15.95813051803621 16.394845823336823 -1 -1 -2
493 1 8.80690615217845 13.386698847751623 14.15726071600207 0 -1 0
211 1 8.841883964381088 14.967500655847354 16.618999738106425 -1 -1 -2
384 2 7.998194231759322 17.22002412270015 15.295785133942148 0 0 1
364 1 6.951896709188701 13.327837008572693 17.62995080730214 0 1 0
419 2 12.41493133543205 3.529733042558503 4.597153078662075 1 1 0
194 2 10.725593316784574 3.471936621800941 2.961400075062617 2 2 1
193 1 10.541539188954372 3.150809954462685 2.070841881324626 2 2 1
42 2 12.468520559087372 1.6240573795411046 3.7530567067084606 0 0 0
40 1 13.040526708968569 0.9828968967030709 3.2535787622510375 0 0 0
418 1 11.61693606223653 2.9514479579050557 4.475968011554782 1 1 0
92 2 11.27743839770682 1.5446492802305443 1.2946114367712172 1 0 1
91 1 11.659458616773499 0.9178987610023902 0.6418573987231665 1 0 1
41 2 12.724840384770182 0.09548916207302938 3.49173290728579 0 0 0
62 2 10.172349702817323 4.103352447973102 0.7678829585465776 -2 0 -1
195 2 9.76721039653138 2.6520049580248264 2.2377809635111534 2 2 1
341 2 15.252597243362432 2.947631006020824 3.917237249739195 -1 -1 0
340 1 15.484380418678455 1.999920326189193 3.8479814006821083 -1 -1 0
149 2 16.380973781696575 1.951731625435069 2.19506044182873 -1 0 0
517 1 13.995320645589228 4.27477892213443 4.104973097559963 0 -1 1
150 2 16.544917370531625 1.7130868932892072 0.5314247577825748 -1 0 0
342 2 14.575964361782939 1.679527176261457 3.5732274580228904 -1 -1 0
519 2 13.885447512296576 4.0791586778669195 3.1236924681776435 0 -1 1
148 1 16.866284892011457 1.4908124844004966 1.4577515928351121 -1 0 0
549 2 13.575326972639324 0.2140830949703873 1.3170217503670154 1 2 0
548 2 15.059183111039678 0.17394793555153507 0.8066918415119082 1 2 0
479 2 13.79519842316861 3.8156601449649576 0.7683740343186648 0 0 0
5 2 11.077769426337316 6.260793182207124 4.0402145125463775 2 0 1
490 1 12.444274320456646 6.580706922525147 1.1141272765865082 0 -2 -1
492 2 12.015807728424596 6.73489312942479 1.9904976216926429 0 -2 -1
4 1 10.75852202727174 6.843925402709359 3.3431574529848858 2 0 1
6 2 9.816774280351362 6.702227172362663 3.1887368026285148 2 0 1
249 2 12.88050145309218 8.418394334689195 3.5176254652379084 1 0 0
491 2 11.754881492965518 6.628888276938741 0.4436472802488357 0 -2 -1
100 1 16.97993822062077 4.785306705468253 4.606145576050808 0 1 1
518 2 14.032332499553357 5.233103711233267 4.108830899939893 0 -1 1
531 2 15.782550465279487 4.998009796160203 1.602430602640933 0 0 1
478 1 14.131665531440111 4.4494996004951926 1.4649227472075894 0 0 0
529 1 16.65761634481615 5.162496566451688 1.926549420571031 0 0 1
530 2 16.589991212313947 4.972174047719687 2.863748139097338 0 0 1
182 2 15.094092155487928 7.261241788804295 3.3372060936354706 -1 0 0
121 1 16.12128009844886 7.75685961471689 2.039808635642552 -1 2 1
122 2 16.453531543812023 6.818905830411179 1.9678394860090915 -1 2 1
181 1 14.487618038515356 6.93062803858299 4.074649196110235 -1 0 0
123 2 15.53151423221639 7.904711789995311 1.2352555394457407 -1 2 1
480 2 13.489680324801675 5.199547563952077 1.3320002041194514 0 0 0
395 2 10.021109595070207 9.652954034983306 1.404756283839348 -1 1 2
247 1 12.88282850222902 9.379880392338949 3.5714438247547484 1 0 0
248 2 12.086643345399107 9.652755199254765 3.0438023999186954 1 0 0
210 2 12.088762626100365 12.697470362380196 3.558638925936043 -2 -1 1
394 1 10.610800442602729 10.308550974598468 1.8963956718634134 -1 1 2
396 2 10.125537034175329 11.127096530194834 1.7900151706027208 -1 1 2
388 1 9.049629134937081 12.539810387452668 2.3003631457259885 1 1 -1
504 2 12.777977488343334 10.779767848214062 4.639061366800579 0 -1 1
576 2 14.883909797708094 10.219071970765238 1.7505996292140131 -2 -1 1
75 2 16.45683578487722 9.159264784703694 3.0940679615483284 -1 0 2
137 2 16.88722026091176 11.667583002107648 2.421466119586874 -1 0 1
73 1 16.912168199784272 9.718579237133326 3.775933702014558 -1 0 2
575 2 15.543314367021217 11.473478762409766 0.8192931819220741 -2 -1 1
136 1 17.209045602105604 12.519072616774332 2.7632578999795117 -1 0 1
138 2 16.980958410229942 12.412357020253763 3.7254989183056746 -1 0 1
74 2 16.245232679955873 9.709123731909306 4.444291827864407 -1 0 2
551 2 17.332160457898528 9.61970474150433 1.1785950970111534 1 -1 1
574 1 15.636442583089346 10.550552865616497 1.1547699188409761 -2 -1 1
209 2 10.912452224259411 13.443475947990004 2.694878372923498 -2 -1 1
208 1 11.816035882937237 13.553086347166513 3.0924254284549937 -2 -1 1
169 1 11.232928937765706 15.461973725818648 0.7683116499034859 -1 0 1
143 2 13.010418387580685 13.753188795262464 1.7638973020397648 1 1 1
423 2 11.967219429816842 15.236149282587075 3.4050781272866377 -1 -1 3
48 2 10.137276598977682 16.204677961682346 2.223737994217295 -1 0 1
299 2 9.526859683304133 15.866650451911147 4.4135219261901435 1 1 -2
46 1 9.225209741022935 16.334726054193702 2.5430057369541865 -1 0 1
170 2 11.565511744558075 16.381643471879705 0.6278347492640701 -1 0 1
421 1 11.914187605098997 16.093623582503962 3.8947532460416907 -1 -1 3
47 2 9.199273595420895 17.280433665708248 2.677919090519998 -1 0 1
369 2 15.065396302110816 13.617818973403224 0.45454743602474773 0 -2 1
142 1 13.696132797768568 14.130522718472799 1.2063115672067912 1 1 1
144 2 13.299313593965433 14.83154521051888 0.6972514896619079 1 1 1
379 1 15.307253803227765 15.40136892441146 3.31803219622572 0 -2 -1
380 2 14.912127527735489 16.218713222375396 3.1248882105830575 0 -2 -1
381 2 14.885706426775249 14.737338915320516 2.752268502703554 0 -2 -1
239 2 16.479125410994175 15.258540867370533 4.417010406345437 0 0 -1
547 1 14.27545049634769 17.008448394354254 0.8712208046063645 1 1 0
401 2 16.937577030766608 15.435788884133633 1.9890183635876042 -2 -1 0
368 2 16.594178462553185 13.594017581923262 0.6621442400498355 0 -2 1
294 2 9.179116239826508 0.4477440386358351 9.059833306281103 2 0 0
420 2 11.16104568798651 2.8529108165419634 5.310189017873895 1 1 0
438 2 10.076594056460063 4.195116988014157 7.328081000138822 1 1 1
553 1 10.508891168895337 2.6534938198439795 7.01098193022667 0 -2 1
554 2 9.915828468647293 1.903309990916523 7.175034340587558 0 -2 1
555 2 11.329748163300698 2.257238485419771 7.285882668337225 0 -2 1
442 1 12.85751093467393 1.8219357380553514 7.847186863647687 0 0 1
204 2 12.726626792483813 0.18956321967709258 8.086615707988456 1 1 -1
292 1 8.997836461247012 0.8410391364119272 8.185366676129421 2 0 0
232 1 17.029421553664605 3.0134491579728793 8.787267589859917 0 0 -1
443 2 13.410366715023242 2.311925369651532 8.499719456359513 0 0 1
66 2 15.120935547016213 1.3317270547871618 5.4916872923949915 -1 1 0
444 2 13.568699819330549 1.6144811499236515 7.183668551305011 0 0 1
233 2 17.324836489455265 3.060945827672527 7.857283743217672 0 0 -1
64 1 14.8488601324886 0.9494692336938141 6.3358428245363285 -1 1 0
65 2 15.606524214359725 0.6393896273038604 6.719870494664967 -1 1 0
234 2 17.162888161890695 2.108764205596546 9.103152967400916 0 0 -1
437 2 10.088765027062554 5.507179804199105 8.1514470743339 1 1 1
436 1 9.75682145341158 5.13536359159086 7.334373165397694 1 1 1
498 2 11.049699466021732 5.7656170123325845 6.436946094921312 0 0 -2
218 2 11.448345879135083 8.578807696834062 7.118535722971147 1 1 1
217 1 12.09982324980453 8.486425541143038 6.377919918864031 1 1 1
497 2 12.21894025873928 6.748718069252841 5.967702466677637 0 0 -2
496 1 11.846674761992098 5.834748551855247 5.889348746165946 0 0 -2
187 1 10.632573401683107 8.553194145614393 8.861336179502148 1 -2 0
101 2 16.38785803746201 5.3136199980360965 5.139271958098396 0 1 1
296 2 13.656223395779804 5.227467354179615 8.673381354714563 1 0 0
474 2 17.19360179969056 6.548681972081725 6.7598526579792875 -2 -1 0
183 2 14.757550958537983 7.464097148022778 4.849869833503737 -1 0 0
10 1 14.148407955280518 5.046366040526181 7.167979747566759 -3 1 -1
11 2 13.417202192892475 5.1868876329086655 6.56020811282724 -3 1 -1
12 2 14.993564245155534 5.482456828193814 6.920131245046017 -3 1 -1
472 1 16.26734656140562 6.801229987362808 6.629548189008781 -2 -1 0
473 2 16.1772051467735 7.736346281675402 6.926600937364325 -2 -1 0
502 1 12.567304353455905 11.668356045824138 5.000950970431223 0 -1 1
219 2 11.647099858930575 8.846268513134076 5.549530114248489 1 1 1
108 2 11.513169218956865 12.55272780016084 8.903049186952849 -1 1 0
189 2 9.753129305312626 8.970699691353051 9.056126412265396 1 -2 0
132 2 9.208011735708103 10.320267212706712 5.741120241258346 0 -1 1
514 1 10.202823284410638 11.411638931615576 6.239035455305721 0 -1 -1
516 2 11.029909586222065 11.593908406516999 5.748493484406817 0 -1 -1
515 2 10.264518551225926 11.792416337795759 7.163686771105434 0 -1 -1
106 1 10.552656571755284 12.52369544551984 8.675332364791016 -1 1 0
145 1 13.273930906699105 12.026228370883064 8.89966805071 -1 -1 0
408 2 14.19933762090993 9.115477960161584 6.315413993189535 -2 -1 2
503 2 13.300910100756216 11.8727913716495 5.6268458280759015 0 -1 1
406 1 15.096712545141965 9.32801271370105 6.053215850504796 -2 -1 2
154 1 14.544021174268881 12.605664644396375 6.5254072070728455 2 0 0
407 2 15.372059896647196 10.160900863074872 6.495340899236737 -2 -1 2
146 2 13.76935517022475 12.067010173623315 8.033310265085397 -1 -1 0
155 2 15.498298138674025 12.427838404746879 6.2984212635869 2 0 0
82 1 16.002687744884526 10.671010886287842 8.718551322517675 -1 -1 0
112 1 16.890666485161617 12.494468801699004 5.4840903023491085 -1 0 0
84 2 15.771585374074931 11.602925202099236 9.03467922289799 -1 -1 0
305 2 17.30511362748315 10.618478619864813 7.532243622336652 -2 -2 1
114 2 17.6376705118061 11.946447951685128 5.783467585976178 -1 0 0
298 1 9.223129935910954 15.325364043319006 5.246556966815238 1 1 -2
202 1 12.535430905326884 16.727009356241012 8.586052801879337 1 0 -1
203 2 11.669775494136962 16.22286956582717 8.410930829253033 1 0 -1
107 2 10.406435616557216 13.484067724946502 8.438124390151819 -1 1 0
179 2 9.86033478023268 15.269591564334023 8.519810930679968 0 -1 0
178 1 10.51964327004785 15.220888115695566 7.752295304733523 0 -1 0
180 2 10.035694371738625 15.218035268475278 6.873183280902851 0 -1 0
422 2 12.195342983569612 15.891332556199297 4.7804748935394 -1 -1 3
151 1 17.11744766629927 14.3763607069536 8.01461006426372 0 0 0
453 2 14.118833801169462 16.215684671121263 5.813191264610207 2 -2 -1
238 1 17.15651832393364 15.101014446656855 5.129106524847524 0 0 -1
113 2 17.03620923849663 13.437832597228015 5.623036421874553 -1 0 0
156 2 14.293909758554864 13.528945005956352 6.2453414288220355 2 0 0
55 1 17.613998233953513 17.326521320237273 6.250158249131423 -1 -1 0
240 2 17.299267152896565 15.907123718930036 5.650479225329048 0 0 -1
152 2 16.383857880762605 14.900678880926767 7.64259820633641 0 0 0
452 2 13.476395935576937 15.718681052388785 7.053335198347494 2 -2 -1
451 1 13.836640221280994 15.38972237138909 6.262696840274615 2 -2 -1
153 2 16.68680309035544 13.783717869449998 8.713851034873594 0 0 0
161 2 11.297445908222421 2.0995516198121273 11.368339357639417 -1 -1 2
328 1 10.742495232684934 0.7172528272958839 10.303250515880856 1 1 1
338 2 10.13796466142856 3.848476997923057 11.592710721797866 -2 1 -1