LAMMPS data file via write_data, version 15 Apr 2020, timestep = 200000

972 atoms
2 atom types

1.9365275923500214e-01 1.9797400240767210e+01 xlo xhi
1.7217147372132224e-01 1.9818881526281121e+01 ylo yhi
1.0645780690298245e-01 2.0694314193096837e+01 zlo zhi
-8.8053285128037034e-03 2.0585512584268376e-01 4.9382114533056881e-01 xy xz yz

Masses

1 16
2 2

Atoms # atomic

4 1 3.6225155384934973e+00 1.6347535599739038e+00 3.1311338134991238e+00 0 0 0
5 2 3.8958775802099979e+00 2.5114031536311532e+00 3.4620938954937777e+00 0 0 0
6 2 2.9345368591773613e+00 1.3750446882203520e+00 3.8242612764749637e+00 0 0 0
7 1 5.8521636013077849e+00 4.8108660695109897e+00 5.5339858274924172e+00 0 0 0
8 2 6.5899933361936585e+00 4.6159791675189359e+00 4.9134834191411940e+00 0 0 0
9 2 5.0631342802289119e+00 4.7322935472003609e+00 5.0362023356074523e+00 0 0 0
10 1 1.2532431622176043e+00 4.7146326309873015e+00 4.0723403342307130e+00 0 0 0
891 2 3.1049410430447577e+00 1.9138591423807846e+01 4.7691990305833171e-01 0 0 0
12 2 1.0851470087883777e+00 5.4603183227127197e+00 3.4788591810156513e+00 0 0 0
13 1 4.5341198131911087e+00 5.9597185763094274e+00 1.9167265006915757e+00 0 0 0
14 2 4.5608293933281558e+00 6.5997526515040148e+00 2.6683901346938201e+00 0 0 0
15 2 3.7687937512843259e+00 6.0999490542568484e+00 1.3470123976499357e+00 0 0 0
16 1 3.9460513620132329e+00 4.1631652187141395e+00 3.8885927735542891e+00 0 0 0
17 2 4.1089728078067580e+00 4.7683703998627953e+00 3.0383269184676633e+00 0 0 0
18 2 3.0305570839677491e+00 4.4073821516384939e+00 4.1519555535183388e+00 0 0 0
258 2 9.8457411956152132e+00 1.4375668034132548e+01 3.9134862871802887e+00 0 0 0
20 2 9.2701749555657464e-01 7.6007942300741167e+00 2.3797502718577421e+00 0 0 0
22 1 2.0981035468973510e+00 9.9785748518767170e-01 5.1372573791163090e+00 0 0 0
23 2 1.1740910228015340e+00 1.3602055771644213e+00 5.1772324927234807e+00 0 0 0
24 2 2.6371034257339820e+00 1.6176564206328170e+00 5.7291475356719070e+00 0 0 0
25 1 2.9164872514506821e+00 5.5581402106159681e+00 6.9651509611389919e+00 0 0 0
26 2 2.6278680151408329e+00 6.1608120246031541e+00 6.2342376770043746e+00 0 0 0
27 2 3.7138443374836116e+00 5.8808317533294350e+00 7.3977362906870114e+00 0 0 0
28 1 5.7729579069755959e+00 1.3583219380987774e+00 4.7315557836039499e+00 0 0 0
29 2 4.9090216254854200e+00 1.3598159215810579e+00 4.2683368186300763e+00 0 0 0
30 2 5.7965905360907319e+00 4.4097301884314222e-01 5.1093115121149779e+00 0 1 0
31 1 6.0318682899191378e-01 2.7047975847808443e+00 2.3351651898452057e+00 0 0 0
1 1 2.8526822019522333e+00 2.7173705806804467e+00 5.4038412931343216e-01 0 0 0
33 2 7.8932130280293034e-01 3.4676932783077850e+00 2.9915442226254014e+00 0 0 0
19 1 7.3942422455460954e-01 6.6654749559819209e+00 2.3576792576884107e+00 0 0 0
35 2 6.0512139472262731e+00 2.5177415815767743e+00 1.7609179296661752e+00 0 0 0
46 1 7.9777642695186852e+00 4.2878851895095842e+00 3.7910465906439894e+00 0 0 0
47 2 8.9663239338167990e+00 4.3215167947724140e+00 3.7438212442272101e+00 0 0 0
48 2 7.6428539422977035e+00 4.8400805969118155e+00 3.0916152488896547e+00 0 0 0
55 1 7.0510791567302356e+00 5.7442431397963558e+00 1.4058860477487838e+00 0 0 0
56 2 7.3333707328044282e+00 6.7026814829920651e+00 1.5391960565189988e+00 0 0 0
57 2 6.0597703122641979e+00 5.7961853463358652e+00 1.4165985885705838e+00 0 0 0
58 1 8.5104387348229569e+00 1.1045549650993145e+00 4.7979880173021785e+00 0 0 0
711 2 8.2528076216292217e+00 5.2208200401942948e+00 2.9429906992320276e-01 0 0 0
60 2 7.6092667338559163e+00 1.2864903927553510e+00 4.4194479962684712e+00 0 0 0
61 1 9.0213994267837556e+00 5.4310073989655914e+00 6.5844394169331455e+00 0 0 0
62 2 9.1700795312376666e+00 4.4434699062845233e+00 6.6717237080905765e+00 0 0 0
63 2 8.7663834540489685e+00 5.7043756871401188e+00 7.4678847319202619e+00 0 0 0
67 1 7.8535289003288948e+00 2.1796402084794231e+00 2.2278269376795792e+00 0 0 0
68 2 7.8629032865979687e+00 2.9119209470168279e+00 2.9409927679286119e+00 0 0 0
69 2 8.4101606420306201e+00 2.4513622348250994e+00 1.4567268060030887e+00 0 0 0
2 2 3.6951319849977162e+00 2.4278324813622278e+00 8.2765146794926614e-01 0 0 0
609 2 7.7876353053158818e+00 1.6292222082903692e+01 9.8980836738897047e+00 0 0 0
675 2 1.6800753376382778e+00 6.1263510752778343e+00 1.0035882561110547e+00 0 0 0
112 1 4.4792289514404597e+00 8.1052533170157286e+00 3.6942814102541277e+00 0 0 0
113 2 5.0134858002816616e+00 7.9655277010720349e+00 4.5320217480068381e+00 0 0 0
114 2 4.6707172323892303e+00 9.0290065236819341e+00 3.4928147231944564e+00 0 0 0
115 1 6.3929352309112968e+00 1.1389489001961113e+01 5.6266286693672978e+00 0 0 0
116 2 6.2139382819754836e+00 1.2305539433236742e+01 5.9070832381931133e+00 0 0 0
117 2 6.2890937106739750e+00 1.0854568895465938e+01 6.3702283234316948e+00 0 0 0
118 1 1.5252072552900047e+00 1.1295218700888674e+01 3.5939214947449281e+00 0 0 0
141 2 2.3121248353021456e-01 9.4172113165911586e+00 1.3204926627927345e+00 0 0 0
120 2 2.4404806270300843e+00 1.1123097561228061e+01 3.8272996389366960e+00 0 0 0
121 1 4.9300587961344888e+00 1.2662426576421534e+01 1.7058777008465611e+00 0 0 0
122 2 5.8596316221475826e+00 1.2461318373131846e+01 1.6385701905466443e+00 0 0 0
123 2 4.4252712874464484e+00 1.2416760780795078e+01 8.9453613205931559e-01 0 0 0
124 1 4.7338707286109267e+00 1.0782398268891853e+01 3.6438588212140846e+00 0 0 0
125 2 4.5811434321813307e+00 1.1544670843383196e+01 3.0059955984708440e+00 0 0 0
126 2 5.3018013054993487e+00 1.1124209030916015e+01 4.3487037845377037e+00 0 0 0
127 1 8.7583912858985202e-01 1.2697437877233636e+01 1.2645030160506450e+00 0 0 0
128 2 1.6441719737898906e+00 1.2421188469563955e+01 7.2509750925023264e-01 0 0 0
129 2 1.0808876762916992e+00 1.2173545652196951e+01 2.0731757328118086e+00 0 0 0
130 1 2.2391876450599342e+00 7.7269954587180356e+00 5.1177677672694992e+00 0 0 0
131 2 3.0348784357753029e+00 7.9542001251280450e+00 4.6019729231792406e+00 0 0 0
132 2 2.4879219321622688e+00 8.3201961970543348e+00 5.8936785265205192e+00 0 0 0
133 1 2.5740276163033453e+00 1.2425053919144974e+01 6.8502983331181371e+00 0 0 0
134 2 1.8534272575854094e+00 1.2566554455491792e+01 7.5097294343300520e+00 0 0 0
135 2 2.3978565852389901e+00 1.3136791881167364e+01 6.1890803652148376e+00 0 0 0
136 1 6.4475652112743758e+00 7.5885381649422596e+00 5.9352955898939266e+00 0 0 0
137 2 6.1560908963733167e+00 6.7189396903977556e+00 6.0539182908846980e+00 0 0 0
138 2 7.2641115050945571e+00 7.4935641707514682e+00 5.3883155726392262e+00 0 0 0
139 1 9.5849126065055501e-01 9.1383601528067597e+00 1.8565749940079990e+00 0 0 0
140 2 1.1531591853636169e+00 9.8134533669506041e+00 2.5350088127571695e+00 0 0 0
479 2 7.9675079223203014e+00 1.1555396291919351e+01 1.0294474177229720e+01 0 0 0
147 2 8.6290539682315917e+00 9.0615219651505718e+00 7.5563153278904449e-01 0 0 0
111 2 1.8665180530759886e+00 9.0708006753090800e+00 3.3403701358945032e-01 0 0 0
154 1 8.2299464883828204e+00 1.0752472844472891e+01 3.8544245684877052e+00 0 0 0
155 2 8.0378174047928397e+00 1.0910248475651997e+01 4.7862704019009854e+00 0 0 0
156 2 9.2408211927442316e+00 1.0759865777458787e+01 3.7726475990794834e+00 0 0 0
163 1 7.5127584932954141e+00 1.2532279572258837e+01 1.9053179886333891e+00 0 0 0
164 2 7.5697010697380813e+00 1.1936897663021607e+01 2.6844966666783718e+00 0 0 0
165 2 8.1958977699207729e+00 1.2216951308125086e+01 1.2297449112077898e+00 0 0 0
166 1 8.9173020998210824e+00 7.5977778805511935e+00 5.0926535394868644e+00 0 0 0
167 2 9.0810934734305118e+00 8.3117579029896351e+00 5.8306424250052205e+00 0 0 0
168 2 9.1040111187783914e+00 6.8041494520818278e+00 5.6479719537873683e+00 0 0 0
169 1 9.5028566055588861e+00 1.2022799485804967e+01 6.9500864236858124e+00 0 0 0
171 2 9.2252952810441435e+00 1.2677368844977719e+01 6.2967739883141371e+00 0 0 0
175 1 7.3607754035332675e+00 8.7083289144974572e+00 2.2017371301646098e+00 0 0 0
176 2 7.5236050133136843e+00 9.5095904799286242e+00 2.7839774927156675e+00 0 0 0
177 2 6.4406834643646000e+00 8.7483796672360885e+00 1.7677777069403460e+00 0 0 0
450 2 4.6121272149725225e+00 1.1244869582067997e+01 9.7588683273763195e+00 0 0 0
3 2 2.3723165367582641e+00 2.4991743219833311e+00 1.3290259430559315e+00 0 0 0
927 2 8.2989760719223149e+00 1.8549613538202877e+01 3.1797848640559034e-01 0 0 0
143 2 4.3143568319646093e+00 9.2494346632960038e+00 1.2080779041820630e-01 0 0 0
253 1 9.5227293000112709e+00 1.5646208867163434e+01 2.6400318037244286e-01 0 0 0
220 1 3.9416433325129394e+00 1.4621701085948997e+01 3.1109951664883360e+00 0 0 0
221 2 3.9537207797897191e+00 1.5499996098861239e+01 2.6729614174453458e+00 0 0 0
222 2 4.2378383381917617e+00 1.3942889809052069e+01 2.4386807271367137e+00 0 0 0
223 1 6.0547585943900204e+00 1.8294187942480775e+01 5.6240460492417066e+00 0 0 0
224 2 6.8312694383094978e+00 1.7859780428828465e+01 5.1487554057659182e+00 0 0 0
225 2 5.7482369630050334e+00 1.7649500437303061e+01 6.3121336277260109e+00 0 0 0
226 1 1.1206778563876250e+00 1.7474109930530354e+01 3.6413276900298834e+00 0 0 0
227 2 8.5273251547018769e-01 1.8238348996844479e+01 3.0734629718823161e+00 0 0 0
228 2 1.0853988820994018e+00 1.6635664751057575e+01 3.0893766163172551e+00 0 0 0
229 1 4.4465959687939254e+00 1.9228977852292658e+01 1.6617438897520420e+00 0 0 0
230 2 4.4098162140692203e+00 1.8514213648586455e+01 2.3521584713296475e+00 0 0 0
231 2 4.2378382704900996e+00 3.9148296083681922e-01 2.1482662602722544e+00 0 0 0
232 1 4.1830200138864466e+00 1.7617178327513948e+01 3.8017901107866270e+00 0 0 0
233 2 3.2146186919119009e+00 1.7864506536989580e+01 3.9604805383335484e+00 0 0 0
234 2 4.7864311513794640e+00 1.7853238807328019e+01 4.6055827762668899e+00 0 0 0
235 1 8.9205028673079767e-01 1.9594463058547454e+01 1.9755659222782622e+00 0 0 0
236 2 8.4817749364078143e-01 9.1792434167871662e-01 2.0668903675828920e+00 0 0 0
237 2 1.3629537513423693e+00 1.9373537294747614e+01 1.1470621300109018e+00 0 0 0
238 1 2.2023304559309835e+00 1.4566151293778713e+01 5.1894457791798771e+00 0 0 0
239 2 2.7255958859494416e+00 1.4791117560011104e+01 4.3619988503589635e+00 0 0 0
240 2 1.1893914914186028e+00 1.4539794862049536e+01 4.8409538363301943e+00 0 0 0
241 1 2.6822473422381941e+00 1.8600623071560136e+01 7.0401855037777761e+00 0 0 0
242 2 2.3615739664019477e+00 1.8996772032313636e+01 6.2512981414970357e+00 0 0 0
243 2 2.5758775557154667e+00 1.7609083059023412e+01 6.9466452741033322e+00 0 0 0
244 1 5.9935978596892010e+00 1.4123845274832224e+01 5.2596907232734731e+00 0 0 0
245 2 5.6588212226891921e+00 1.4804129620603574e+01 5.9126096501426746e+00 0 0 0
246 2 5.3659540896388824e+00 1.4261703920750811e+01 4.5049215069945046e+00 0 0 0
247 1 1.1340383918397654e+00 1.5311619556703029e+01 1.8770404153968365e+00 0 0 0
248 2 1.1581196459041441e+00 1.4377097801137179e+01 1.7553563787287445e+00 0 0 0
249 2 1.9747456823422265e+00 1.5560092657752497e+01 1.4407485020371202e+00 0 0 0
251 2 6.4621687670615193e+00 1.5670579008979548e+01 8.3074858138275742e-01 0 0 0
59 2 9.1133770702478625e+00 1.2012361425647224e+00 3.9973387727320278e+00 0 0 0
262 1 7.9354964342295844e+00 1.7299444374832341e+01 3.8681120228975923e+00 0 0 0
263 2 8.9066869747870463e+00 1.7286834006553718e+01 3.9860078690361100e+00 0 0 0
264 2 7.7983668673385935e+00 1.7968676217467866e+01 3.1017241427635729e+00 0 0 0
271 1 7.2538945516909310e+00 1.9131835895392001e+01 1.8720590350400683e+00 0 0 0
272 2 7.3901167496011775e+00 4.3541081804245274e-01 1.9652463830368492e+00 0 0 0
273 2 6.2999637160969337e+00 1.9043177855291248e+01 1.6975664328998570e+00 0 0 0
274 1 8.6143273088780070e+00 1.4137190647060850e+01 5.2817361647788017e+00 0 0 0
275 2 9.0056098230968473e+00 1.4839947850198495e+01 5.7900939378634897e+00 0 0 0
276 2 7.6656545608041089e+00 1.4372224255277407e+01 5.2366480561441824e+00 0 0 0
277 1 9.2211230483404609e+00 1.8614069484055783e+01 6.3246624770043542e+00 0 0 0
278 2 9.1749173059798537e+00 1.9012605790583642e+01 5.4542840741238106e+00 0 0 0
279 2 8.4113652750667640e+00 1.8860526344628944e+01 6.8200148967817924e+00 0 0 0
283 1 7.5560217179259483e+00 1.5262525733453904e+01 1.9538483607253549e+00 0 0 0
284 2 7.6291744632376455e+00 1.5605125040468101e+01 2.8374832574735653e+00 0 0 0
285 2 7.5914010825590648e+00 1.4272546288909368e+01 2.0717023232702507e+00 0 0 0
356 2 1.0743150553087022e+00 1.5610294245898033e+00 9.1685270713061602e+00 0 0 0
325 1 3.1407800315026133e+00 2.6974991278037370e+00 6.8485080293201026e+00 0 0 0
326 2 3.1120152090888191e+00 3.6987454215748592e+00 6.7834161120539624e+00 0 0 0
327 2 4.1297231310475144e+00 2.5792204024585614e+00 7.1223865439205216e+00 0 0 0
329 2 4.9147003849866335e+00 9.5817153362661189e-01 9.6277564603241270e+00 0 0 0
337 1 5.1399420855521134e+00 6.3286126377113394e+00 8.5049051777004792e+00 0 0 0
338 2 4.9743592827433671e+00 5.8698345342285370e+00 9.3365471736506738e+00 0 0 0
339 2 5.0425441918163898e+00 7.2292830557337044e+00 8.8341632918217670e+00 0 0 0
470 2 9.3398972848199833e+00 1.0331207644776750e+01 7.0606305725515375e+00 0 0 0
344 2 1.4224394090152919e+00 6.0775279458307168e+00 9.6790786252592103e+00 0 0 0
345 2 1.8225843503964985e+00 6.1514172146369850e+00 8.2450130070056424e+00 0 0 0
355 1 9.6487790141308394e-01 2.4894531967135456e+00 8.9099767013049878e+00 0 0 0
673 1 2.2462063509082966e+00 5.7252348840637870e+00 2.5120854614109867e-01 0 0 1
357 2 1.7008629750219386e+00 2.6448637081326343e+00 8.3248965577504013e+00 0 0 0
358 1 5.7520119777262115e+00 2.6387258913389404e+00 7.0276652629633150e+00 0 0 0
359 2 5.7896738329021700e+00 3.5638803714022695e+00 6.6162768372855982e+00 0 0 0
360 2 5.6416291871928488e+00 2.0985364707243188e+00 6.1644179284047791e+00 0 0 0
361 1 9.2953503442470389e+00 2.6602107794258090e+00 6.8926247188609917e+00 0 0 0
362 2 8.7576866599120233e+00 2.1167009777240118e+00 6.2362602760975516e+00 0 0 0
363 2 8.7669860775366217e+00 2.7156602019031268e+00 7.7225834366670210e+00 0 0 0
254 2 8.9577944252629482e+00 1.5289518795811217e+01 9.4954842762187308e-01 0 0 0
379 1 8.0326127576279376e+00 6.4743192653546275e+00 8.9326786390811890e+00 0 0 0
380 2 7.8905519182813793e+00 7.3600241292975097e+00 9.2998928417531630e+00 0 0 0
381 2 7.1152791509565940e+00 6.2680838654553872e+00 8.7448664212113840e+00 0 0 0
391 1 7.4890607888045917e+00 2.4706643035566729e+00 8.9871914549641136e+00 0 0 0
392 2 7.0671842515171557e+00 2.2434096035533813e+00 9.8510425220912001e+00 0 0 0
393 2 6.7692938007075316e+00 2.5180495068066349e+00 8.2647498204563039e+00 0 0 0
451 1 9.8679728131632360e-01 1.3094442236140804e+01 8.9176662509843361e+00 0 0 0
433 1 2.9967873035731594e+00 9.5398941403685154e+00 7.1121102415237951e+00 0 0 0
434 2 2.9725170315462988e+00 1.0426379847697314e+01 6.7256620689113067e+00 0 0 0
435 2 2.2565992283462459e+00 9.4953373954398259e+00 7.7871502814960953e+00 0 0 0
210 2 2.9658257028902579e-01 7.9264198933559138e+00 4.9161100060913911e+00 0 0 0
445 1 4.8237315044867035e+00 1.2409494485701812e+01 8.5364503091850317e+00 0 0 0
446 2 4.5439075542161769e+00 1.3158393554084091e+01 9.1448664520772684e+00 0 0 0
447 2 4.0378162513669942e+00 1.2391791448924479e+01 7.9488555499578348e+00 0 0 0
11 2 5.3872295562603978e-01 4.7343182658272855e+00 4.7109023084376327e+00 0 0 0
463 1 1.0186401861701579e+00 9.4320165252621067e+00 8.9010545387940194e+00 0 0 0
452 2 7.5521730087004857e-01 1.4026299892348044e+01 9.1831216767503090e+00 0 0 0
250 1 5.6429519495615219e+00 1.5590043544620386e+01 2.3681873003647463e-01 0 0 0
465 2 1.0258655906684075e+00 8.4565216718934817e+00 9.0743979726918287e+00 0 0 0
466 1 5.6895711919696286e+00 9.4019075324724035e+00 7.4454927193039913e+00 0 0 0
467 2 5.8864851443323625e+00 8.6341974387135103e+00 6.8004430422456394e+00 0 0 0
468 2 4.7371598124623251e+00 9.3541922879023982e+00 7.5572590990388600e+00 0 0 0
469 1 9.4593962594754579e+00 9.3369967618799095e+00 6.9995395061253767e+00 0 0 0
558 2 4.2560179090744894e+00 1.7856637873808509e+01 9.5142073214417646e+00 0 0 0
471 2 8.9575711306999928e+00 8.9411398376374684e+00 7.7380662178971704e+00 0 0 0
573 2 1.1929462150554819e+00 1.6375727377423445e+01 9.8746817130281812e+00 0 0 0
487 1 7.7069383026821070e+00 1.2238994710139393e+01 8.8813443159731609e+00 0 0 0
488 2 8.2827646812089046e+00 1.2057871816337174e+01 8.0837189853579936e+00 0 0 0
489 2 6.8516482166846222e+00 1.2491904736336132e+01 8.5220683030611557e+00 0 0 0
499 1 7.7834850415428267e+00 9.0521536170459900e+00 9.0995305537417313e+00 0 0 0
557 2 4.2426028499670076e+00 1.6303589300929438e+01 9.8878797750376002e+00 0 0 0
501 2 6.9073975185866843e+00 9.3095509874153866e+00 8.6533880560130179e+00 0 0 0
119 2 1.1026944647034533e+00 1.1601490487027242e+01 4.4124847036423045e+00 0 0 0
500 2 7.8611338783705236e+00 9.6328220385461645e+00 9.8720043424781956e+00 0 0 0
541 1 2.8033420174792760e+00 1.5968176515801142e+01 7.3437300743629317e+00 0 0 0
542 2 2.0650394131177103e+00 1.5736538139790344e+01 7.9970098177235451e+00 0 0 0
543 2 2.5302755327998114e+00 1.5518353688181380e+01 6.5081899398604106e+00 0 0 0
553 1 4.8963326749014424e+00 1.9398149595153718e+01 8.5656312603812399e+00 0 0 0
554 2 5.8218371470681820e+00 1.9418254766238860e+01 8.2244123237166562e+00 0 0 0
555 2 4.2774342154516836e+00 1.9368387648797039e+01 7.8211591622789527e+00 0 0 0
335 2 1.3340705841526641e+00 3.8121431511380508e+00 1.0095084894742506e+01 0 0 0
559 1 7.8843894439012108e-01 1.9400791545453899e+01 8.8175091739398574e+00 0 0 0
560 2 1.4775334272435501e+00 1.9294346991353208e+01 8.0874981531616683e+00 0 0 0
561 2 1.1179412087538503e+00 1.8732889298433285e+01 9.4586221799073638e+00 0 0 0
571 1 9.5418158052407764e-01 1.5742492925825090e+01 9.1648812424434940e+00 0 0 0
574 1 5.4207840434133363e+00 1.5962473728463973e+01 7.1698934348317467e+00 0 0 0
575 2 6.0110202136532545e+00 1.5929058633854192e+01 7.9206525871915021e+00 0 0 0
576 2 4.5357316860777281e+00 1.5753788661194292e+01 7.4392468598166879e+00 0 0 0
577 1 9.3415701490598391e+00 1.5938462117093861e+01 7.1604461859166566e+00 0 0 0
578 2 9.2588929739047696e+00 1.6859960403088508e+01 6.8650126717098185e+00 0 0 0
579 2 8.8121566265780782e+00 1.5763153682778350e+01 7.9277648162515089e+00 0 0 0
343 1 1.2614988178268489e+00 6.5945889287390163e+00 8.8654018452475345e+00 0 0 0
595 1 7.5624438325519652e+00 1.9438406608194704e+01 8.3670576860127870e+00 0 0 0
596 2 7.6907253176440804e+00 7.5064574747330570e-01 8.7565167576246203e+00 0 0 0
597 2 7.5463832416924292e+00 1.8890448111835319e+01 9.2019956279265287e+00 0 0 0
607 1 7.6557155226227271e+00 1.5659225043235132e+01 9.1235254056827486e+00 0 0 0
608 2 7.6886978391603007e+00 1.4751336350732720e+01 9.4263930590391904e+00 0 0 0
297 2 3.8912244392993650e-01 1.8164279038486590e+01 5.2483574659869925e+00 1 0 0
372 2 8.3720090518244561e+00 5.6167792957093967e+00 1.0236541767087219e+01 0 0 0
328 1 4.8754532336287211e+00 1.6076164416924472e+00 1.0334989712009047e+01 0 0 0
34 1 5.4604786869289095e+00 2.5101328698850498e+00 9.7013866251462122e-01 0 0 0
674 2 2.1473260418430202e+00 4.7261783620899331e+00 2.1474368257816923e-01 0 0 1
544 1 4.1684713473790378e+00 1.4374796477642610e+01 1.0211408608432889e+01 0 0 0
36 2 5.5899081677962021e+00 3.3558094753364940e+00 4.6023733783594817e-01 0 0 1
443 2 1.3904334509139815e+00 1.0396774378548114e+01 1.0221882689842344e+01 0 0 0
556 1 4.1445940691267271e+00 1.7202448773682924e+01 1.0272072936016261e+01 0 0 0
218 2 3.8932314102399954e+00 1.5914763481230507e+01 1.3617245668572206e-01 0 0 0
386 2 9.7267956119784618e+00 4.8059231869793617e+00 1.3692249849042389e+01 0 0 0
667 1 1.1378085273118428e+00 6.3254530529577142e+00 1.5651073433157922e+01 0 0 0
384 2 9.8966555569907371e+00 1.0622393032062667e+00 1.1236606093315428e+01 0 0 0
371 2 9.1802519452251872e+00 4.3632508115475535e+00 1.0623036337761604e+01 0 0 0
39 2 9.0406259619045688e+00 2.4340053656029221e+00 1.9805774810768526e+01 0 0 0
601 1 9.5078229292330967e+00 1.8529417373329743e+01 1.3549822125411918e+01 0 0 0
331 1 6.5674880473809987e+00 4.7809311562955754e+00 1.2659587092126834e+01 0 0 0
332 2 7.4002423308822536e+00 4.6899775351489881e+00 1.2113875105567237e+01 0 0 0
333 2 5.8747378857287211e+00 4.6875836002607478e+00 1.1970174008457132e+01 0 0 0
787 1 9.3427691688519932e-01 8.9420458118010941e+00 1.5534956414108644e+01 0 0 0
109 1 2.7612644339037993e+00 9.8150755797764173e+00 2.0272335929125553e+01 0 0 -1
707 2 8.9846428885474943e+00 1.2857696862776016e+00 1.8018528614856223e+01 0 0 0
346 1 2.3518739589559075e+00 1.4447528366414004e+00 1.1694067102262293e+01 0 0 0
347 2 3.1478736609259275e+00 1.4885600009278885e+00 1.1079163585332054e+01 0 0 0
348 2 2.6565635379238128e+00 2.0991349250894364e+00 1.2322240080187107e+01 0 0 0
349 1 2.9879225222366426e+00 5.7535634992095988e+00 1.3645411791010984e+01 0 0 0
350 2 2.6159956937192632e+00 6.1455077985104483e+00 1.2839396305129533e+01 0 0 0
351 2 3.2104302283570769e+00 4.8140496729068865e+00 1.3453060601189360e+01 0 0 0
352 1 6.6523501684738546e+00 7.3069995913805519e-01 1.2251010419071111e+01 0 0 0
353 2 7.5734711993996724e+00 8.0026012778113786e-01 1.1911115541501189e+01 0 0 0
354 2 6.3282613067900888e+00 1.9459508961310888e+01 1.2481699290111285e+01 0 0 0
219 2 2.9706582483874628e+00 1.7407264973480210e+01 2.0486594462840536e+01 0 0 -1
382 1 9.2592221439114741e+00 1.1263806619597942e+00 1.1982648737319009e+01 0 0 0
383 2 9.3084961200356791e+00 1.9877118118216984e+01 1.2440913137178708e+01 0 -1 0
810 2 9.8470724133517411e+00 1.1133111968607556e+01 1.7477875764377139e+01 0 0 0
385 1 9.4516991114834958e+00 5.7544609632970136e+00 1.3740587492275209e+01 0 0 0
37 1 9.3998168311360928e+00 3.0921790618372311e+00 2.0428560950170770e+01 0 0 -1
387 2 8.7891314523265169e+00 5.8328307327987829e+00 1.4490522389307053e+01 0 0 0
552 2 2.6282900228938058e+00 1.7657239747700785e+01 1.0774721059614809e+01 0 0 0
336 2 1.2573240395019771e+00 4.8621745503948288e+00 1.1323911816031266e+01 0 0 0
439 1 5.9001576988312854e+00 1.1564720522722418e+01 1.2680421128013013e+01 0 0 0
440 2 5.8133819826793083e+00 1.2489766892775346e+01 1.2735813130614011e+01 0 0 0
441 2 5.2838557879940344e+00 1.1201245346424892e+01 1.1975095346797008e+01 0 0 0
146 2 9.4367562436712813e+00 1.0642161348631314e+01 2.0331305014858117e+01 0 0 0
454 1 2.1070152243085358e+00 7.9376613879709694e+00 1.1688747299035093e+01 0 0 0
455 2 2.9402047130692464e+00 7.8089506274944807e+00 1.1122906830505167e+01 0 0 0
456 2 2.4758335908043838e+00 8.7081051452195357e+00 1.2202175793324191e+01 0 0 0
457 1 2.6657101263667209e+00 1.2319094992139298e+01 1.3743522905285120e+01 0 0 0
458 2 3.5259738652611601e+00 1.2660180241561548e+01 1.4145293404348571e+01 0 0 0
459 2 1.9271464337985682e+00 1.2572729890819973e+01 1.4334478430195787e+01 0 0 0
460 1 6.2928584904751386e+00 7.6759036477983074e+00 1.2590319627833880e+01 0 0 0
461 2 6.4750007017432356e+00 6.7014782957156980e+00 1.2702804110919638e+01 0 0 0
462 2 7.2414380765065580e+00 7.9141697039189376e+00 1.2289327897008302e+01 0 0 0
775 1 8.2227346351372066e-01 1.2811897613253610e+01 1.5530323667561055e+01 0 0 0
480 2 7.3976350055521589e+00 1.1254845080164277e+01 1.1758589586522611e+01 0 0 0
486 2 9.8719511889752027e+00 1.0689129881180634e+01 1.0882098341382067e+01 0 0 0
490 1 8.9773654155277853e+00 7.8214861906924442e+00 1.1984206599020640e+01 0 0 0
491 2 9.0709764408227915e+00 6.9301832754934791e+00 1.2411006053570798e+01 0 0 0
492 2 9.1034454861460130e+00 8.3482428617501299e+00 1.2710376609222090e+01 0 0 0
493 1 9.5140618653916427e+00 1.2314433362271835e+01 1.3484567291110586e+01 0 0 0
494 2 8.9924434877717978e+00 1.2724654454401124e+01 1.4170853328506150e+01 0 0 0
495 2 9.2825290264178566e+00 1.2918246914672697e+01 1.2745275228151606e+01 0 0 0
710 2 9.4797323109255309e+00 4.8228423202388635e+00 2.0133658287728004e+01 0 0 0
858 2 6.4344076636423786e-01 7.5141985414613579e+00 1.8920773359145286e+01 0 0 0
478 1 8.0099160510045202e+00 1.0925915231244902e+01 1.1019064587765174e+01 0 0 0
334 1 1.7215596640470145e+00 4.6378209697940882e+00 1.0511684235356471e+01 0 0 0
599 2 9.1358073536494331e+00 1.4808117736204892e+01 1.1264142861371877e+01 0 0 0
680 2 4.9530157925317847e-01 2.8485915322929536e+00 1.5426737533222386e+01 0 0 0
547 1 6.0703067903622969e+00 1.7900439738023287e+01 1.2476681080809982e+01 0 0 0
548 2 5.1923880269811935e+00 1.7773050914349241e+01 1.2051159535893044e+01 0 0 0
549 2 6.0069692093642528e+00 1.7328310805356800e+01 1.3275334562515464e+01 0 0 0
442 1 1.5816978247872036e+00 1.1102502841614969e+01 1.0865114020406841e+01 0 0 0
562 1 1.9882418543158173e+00 1.4334208773680096e+01 1.1900938634326694e+01 0 0 0
563 2 1.0231665321659329e+00 1.4211556546235235e+01 1.1957521163736606e+01 0 0 0
564 2 2.3564192680140157e+00 1.3660372146622656e+01 1.2560229280250516e+01 0 0 0
565 1 2.8356518104697868e+00 1.9195412961897063e+01 1.3503957244981121e+01 0 0 0
566 2 2.7757106050870819e+00 1.9992258443888282e+01 1.2904591891027273e+01 0 0 0
567 2 3.7468286475109811e+00 1.9277920340575868e+01 1.3905844540692520e+01 0 0 0
568 1 5.7354449430962706e+00 1.4223339962509952e+01 1.2312060076217357e+01 0 0 0
569 2 6.6202496983094106e+00 1.4283811133547275e+01 1.1847155282237519e+01 0 0 0
570 2 5.7068657448789253e+00 1.4965357606629556e+01 1.2911657877404268e+01 0 0 0
545 2 3.2520577906485997e+00 1.4349530279291651e+01 1.0511004292475196e+01 0 0 0
902 2 9.6661115356999332e+00 1.6583343890659471e+01 1.3424323645586306e+01 0 0 0
588 2 7.2647386878006470e+00 1.7742257609371975e+01 1.1204103192278724e+01 0 0 0
598 1 8.4250487352951460e+00 1.4578876996946370e+01 1.1903102001651332e+01 0 0 0
551 2 1.1346987288638757e+00 1.7639837624127452e+01 1.1528196617132016e+01 0 0 0
600 2 8.7898315691919056e+00 1.5022725529614776e+01 1.2699617171146214e+01 0 0 0
436 1 4.6162533340811329e+00 8.0928960085886992e+00 1.0625602683919977e+01 0 0 0
603 2 8.8794681838994283e+00 1.8704017275968475e+01 1.4250908255214522e+01 0 0 0
438 2 5.2528017654820385e+00 7.8062845772225504e+00 1.1400572726961979e+01 0 0 0
781 1 3.3597242121984343e+00 1.2504796278989190e+01 2.0515604880578877e+01 0 0 0
649 1 3.3578093136259466e+00 3.0186168093358319e+00 1.3633590689466711e+01 0 0 0
650 2 4.3206987097159866e+00 2.8770301465821491e+00 1.3896638851464704e+01 0 0 0
651 2 2.8494703015798688e+00 2.8774463149910550e+00 1.4421672975442007e+01 0 0 0
652 1 4.6186774031041606e+00 1.6674764908120681e+00 1.7147998580154010e+01 0 0 0
653 2 4.7705850280683251e+00 2.5910478433904354e+00 1.7066588510276411e+01 0 0 0
654 2 5.2891914055927414e+00 1.2758528610500854e+00 1.7663013741099505e+01 0 0 0
655 1 5.7587262495952078e+00 4.7261347985815059e+00 1.9311573380824903e+01 0 0 0
656 2 5.6710569296454931e+00 5.6936759419746066e+00 1.9309826580511071e+01 0 0 0
657 2 6.6416530357325145e+00 4.6405231405140785e+00 1.8810832715881880e+01 0 0 0
658 1 1.7951731159517008e+00 4.4613709752365205e+00 1.7688554486610442e+01 0 0 0
659 2 1.4895266862656671e+00 3.7060608262076853e+00 1.7075293281176471e+01 0 0 0
660 2 1.4291133158111644e+00 5.2540222830945487e+00 1.7195874136964932e+01 0 0 0
661 1 5.2293987365424517e+00 6.1102758957291110e+00 1.5267686505322388e+01 0 0 0
662 2 4.7540926548869411e+00 5.4158702096210227e+00 1.5739168043144007e+01 0 0 0
663 2 4.6586902954606311e+00 6.1534192793401452e+00 1.4427480773113407e+01 0 0 0
664 1 4.4613595213252752e+00 4.4008562440152144e+00 1.7038923880168930e+01 0 0 0
665 2 3.5743163015590973e+00 4.4800353704705422e+00 1.7275972405302980e+01 0 0 0
666 2 4.9619089620420782e+00 4.5655342842878914e+00 1.7888957402130728e+01 0 0 0
330 2 5.2211974802051522e+00 1.3521648904876673e+00 1.1182245748707766e+01 0 0 0
668 2 1.0540042076290561e+00 7.3155596314720848e+00 1.5727544168889485e+01 0 0 0
669 2 1.8339141548438249e+00 6.0971774935146330e+00 1.4978198934924899e+01 0 0 0
670 1 2.3121945503359198e+00 1.7567244922866361e+00 1.8941313055048084e+01 0 0 0
671 2 2.4707651940713911e+00 2.4038338665571852e+00 1.9775564828975348e+01 0 0 0
672 2 3.1090332956009377e+00 1.8630569283498224e+00 1.8336293425950807e+01 0 0 0
676 1 6.1256619298026642e+00 1.1876171957695794e+00 1.9356145655032250e+01 0 0 0
677 2 5.9367065336059301e+00 1.7329835029221123e+00 2.0133657196235887e+01 0 0 0
678 2 6.9816369802521372e+00 1.3753669092032719e+00 1.9052640951967952e+01 0 0 0
679 1 1.4312872925698539e+00 2.6892920862458380e+00 1.5742494629302259e+01 0 0 0
341 2 3.7932935063626974e+00 4.6161124896447001e+00 1.0638977775260262e+01 0 0 0
681 2 1.4935273874727204e+00 1.7200747934884035e+00 1.5915214807125381e+01 0 0 0
682 1 5.8626198054578955e+00 2.4508735323179218e+00 1.3995505247192549e+01 0 0 0
683 2 6.3764605939869723e+00 3.2463434715770645e+00 1.3761483356381907e+01 0 0 0
684 2 6.1806185659795290e+00 1.7569109361233517e+00 1.3311791674960046e+01 0 0 0
685 1 9.4889017595777592e+00 2.8961049512227328e+00 1.4121457833764165e+01 0 0 0
687 2 9.1938429600184914e+00 2.4019510100547308e+00 1.3347220459756675e+01 0 0 0
694 1 7.8525410588309432e+00 4.1544967810240010e+00 1.7807993609409387e+01 0 0 0
695 2 8.8305176662763163e+00 4.3638699987592107e+00 1.7939191291101253e+01 0 0 0
696 2 7.6251959651973955e+00 3.4329003583801141e+00 1.7156259797753933e+01 0 0 0
703 1 7.7484059860127248e+00 6.2794923829482645e+00 1.5974063499981041e+01 0 0 0
704 2 7.9382925680029093e+00 5.5786939331054057e+00 1.6689566729040251e+01 0 0 0
705 2 6.8189594796242110e+00 5.9962961212761714e+00 1.5710532961084761e+01 0 0 0
706 1 8.6866711257056437e+00 1.1283828852022397e+00 1.8897285058139154e+01 0 0 0
110 2 2.7025965885322520e+00 9.2083057108667319e+00 1.9537457824954842e+01 0 0 0
708 2 8.9740235653987295e+00 1.9897640665915084e+01 1.9267125103835589e+01 0 -1 0
715 1 7.4700693008081602e+00 2.1713457874269961e+00 1.6015088832336595e+01 0 0 0
716 2 6.7662731437255426e+00 2.1584437171553970e+00 1.5325949238887404e+01 0 0 0
717 2 8.2788091290996455e+00 2.5072275893411802e+00 1.5585654893188442e+01 0 0 0
550 1 1.6937136460034232e+00 1.7825808717994377e+01 1.0733913027826786e+01 0 0 0
926 2 9.3469312144897074e+00 1.7796255111655697e+01 2.0447246708241650e+01 0 0 0
757 1 2.7735790566615086e+00 9.7635844428523662e+00 1.3833166153091732e+01 0 0 0