LAMMPS data file via write_data, version 15 Apr 2020, timestep = 0

1944 atoms
2 atom types

-3.2634731498463410e-01 4.0308452314981942e+01 xlo xhi
0.0000000000000000e+00 1.9775011189712352e+01 ylo yhi
0.0000000000000000e+00 2.0448200216409116e+01 zlo zhi
-1.6004857128301353e-02 -1.6922947969050028e-02 1.7876881573503312e-02 xy xz yz

Masses

1 16
2 2

Atoms # atomic

491 2 3.7981225616635674e+00 8.1023961798142885e+00 4.0717957461738301e+00 0 1 0
263 2 1.0533081793556294e+01 1.5693132459195883e+01 3.7761223562649376e-01 0 0 0
99 2 6.7196794111760436e+00 2.2346367677965291e+00 6.8961299988771776e+00 0 0 -1
519 2 1.9796397152622514e+01 1.5723061453704643e+01 7.0469856909650428e+00 0 0 0
671 2 1.4424672419320512e+01 8.3640935685540185e+00 1.2941972151222698e+00 0 -1 0
777 2 1.9884106438650068e+01 5.9802930780723020e+00 8.0493779448908800e+00 0 0 0
449 2 1.4463061718659798e+01 1.7075068516329882e+01 2.4975462419996934e+00 0 0 0
1549 1 1.2909366480691240e+01 1.3163745300418643e+00 3.2129948638336745e+00 0 1 1
287 2 1.8841364444270816e+01 1.0377140119693781e+01 6.0476606832427278e+00 0 0 1
1783 1 1.5536660845692636e+00 1.9250100635592901e+01 6.8301976113214709e+00 0 0 0
1377 2 1.3799494756904425e+01 9.5501971227462357e-01 7.4198445148314205e+00 0 1 1
906 2 1.7820583976621997e+01 1.9064664514768939e+01 7.0837573628180124e+00 0 -1 0
952 1 1.0024775850601737e+01 1.9285825692843299e+00 3.8992796977014539e+00 0 1 1
739 1 1.5886398638352109e+01 1.1732206410007654e+01 6.1188381182577096e+00 0 0 1
1304 2 5.9036229737824941e+00 4.2960665006789639e-01 3.1047951519933905e+00 0 0 1
103 1 7.8970963545445709e+00 6.2319984863691706e+00 1.8997570881324672e+00 0 0 0
753 2 8.7064513422924410e+00 6.9727449292208821e+00 5.5610435662554911e+00 0 0 0
1375 1 1.4689541501470396e+01 5.6889505442920207e-01 7.1395064006087603e+00 0 1 1
1804 1 1.1391700482121319e+01 1.5162149952285825e+01 5.9362554106429739e+00 0 0 1
1580 2 1.0957932733502712e-01 1.9337694993620453e+01 9.3618546371094418e+00 0 -1 0
526 1 2.7261900684139895e+00 8.0045192302398227e-01 3.0905527403434636e+00 0 1 0
272 2 1.5754090458898588e+01 2.6001981936595739e+00 1.2486958523688987e+00 0 0 1
1527 2 1.2341236547749267e+01 1.9659474011232813e+01 8.9548400946184668e+00 0 0 1
264 2 9.5145645092925406e+00 1.4925401987777061e+01 1.2101077480156728e+00 0 0 0
1156 1 2.6901888432611498e+00 1.3842146439704488e+01 9.1545488365011831e+00 0 0 0
273 2 1.4499026179559598e+01 1.8300517246260504e+00 1.0716764016613365e+00 0 0 1
1550 2 1.3873075025942024e+01 1.1075962954612444e+00 3.3653733543407967e+00 0 1 1
1731 2 2.9194651787749577e+00 1.8999758680230137e+01 3.7290329209663517e+00 0 0 0
1306 1 7.4032971381197319e+00 1.6947378541312133e+01 5.1010574737564900e+00 0 0 1
46 1 8.0944405889276663e+00 7.5815384551221845e+00 7.9778398694777550e+00 0 -1 0
228 2 1.1196734330813620e+00 1.2447184321355749e+01 2.1375420967106611e+00 0 0 0
969 2 1.0786630599772719e+01 1.0941165799523327e+01 3.3205601273312707e-01 0 0 1
288 2 1.8266731467910780e+01 1.0624958926904000e+01 4.6021255536002581e+00 0 0 0
1559 2 1.6804392299073122e+01 3.3306604651869218e+00 4.0768870317504504e+00 0 1 1
743 2 1.3400470405889109e+01 4.9909195114272693e+00 4.7754072129798466e+00 0 -1 0
270 2 1.7486764376025622e+01 1.5604373355567207e+01 2.5544109740543011e+00 0 0 0
954 2 1.1031449585147641e+01 1.8059391545483736e+00 3.7917872333918532e+00 0 1 1
1578 2 1.9243349590200765e+01 7.3621951084233830e+00 3.9002832975263266e+00 0 0 1
905 2 1.8041905114806404e+01 1.9670074703678054e+01 8.4904015181291612e+00 0 -1 0
221 2 1.3971016277188893e+01 1.4424523839396775e+01 7.5672779186170605e+00 0 1 0
1572 2 9.5167767000688315e+00 1.8210186715492217e+01 1.2096257541714022e+00 0 -1 1
745 1 1.9030139191051120e+01 1.0437254275132911e+01 9.6930392444161062e-01 0 0 1
58 1 -1.3363948898671116e-01 6.5601221344742928e+00 8.2036728954227520e+00 0 0 -1
747 2 1.8461434129788074e+01 9.7046831230397625e+00 1.2886007102680470e+00 0 0 1
1747 1 6.0793683923649688e-01 1.0768626652170415e+01 4.7560008350843663e+00 0 0 1
488 2 1.7344582090511846e+01 1.6803123727411480e+00 2.2000083024989601e+00 0 1 -1
1801 1 6.9490930668057045e+00 3.6975294274241435e+00 2.4006688688583888e+00 0 1 1
1542 2 7.5149739098206272e+00 1.2434455313239246e+01 6.1148053144273407e-01 0 -1 1
1599 2 1.7442369023368613e+01 1.3396000487820148e+01 1.7336493923434477e+00 0 1 1
72 2 5.7323262892704934e+00 1.5496542403519724e+01 4.3486932817062929e+00 0 -1 0
22 1 -2.7162602756403753e-01 1.6273461664646597e+01 8.3626513927994619e+00 0 -1 -1
1323 2 1.7504278467245289e+01 1.2925089153303745e+01 8.2660806970354876e+00 0 0 0
898 1 1.1194431326227057e+00 7.6605160390823501e+00 5.9392318248318459e+00 0 0 0
710 2 1.9005074263992647e+01 3.7769853542007490e+00 2.8191017195822039e+00 0 0 0
1603 1 1.4053622614221204e+01 5.0843385247935418e+00 1.9751972954297732e+00 0 1 1
1544 2 1.9850542825555659e+00 1.3394890377913557e+01 7.6411458114109401e+00 0 0 0
736 1 1.9764251411455817e+01 1.3538437351169229e+01 4.6273916777457638e+00 0 0 0
1561 1 2.8026163050216732e+00 7.2274837883349194e+00 9.6000556509548183e+00 0 1 0
921 2 1.9338345818863001e+00 3.4167696513819621e+00 2.2583543832004911e+00 0 1 0
1381 1 1.5901512008602840e+01 6.7819807235841427e+00 7.2414031085767929e+00 0 0 0
680 2 1.7758644312369829e+00 1.0088709992124327e+01 6.3004498902222634e+00 0 0 0
518 2 1.9163489991211620e+01 1.6250975709498519e+01 5.8248659712603104e+00 0 0 0
1763 2 3.4642768677130698e-01 6.3582189163177771e+00 1.1971041663383577e+00 0 1 0
665 2 6.8380445711628335e+00 3.9364462027227378e+00 5.6462245906366997e+00 0 0 0
487 1 1.7542567440370085e+01 2.3158029451701578e+00 1.5298086018148678e+00 0 1 -1
744 2 1.4132307272619641e+01 3.7066210223408320e+00 4.1195144609024030e+00 0 -1 0
1730 2 3.6893501745651340e+00 1.8061806698709713e+01 4.7042678820899431e+00 0 0 0
926 2 1.1707607947879682e+01 1.6731350312297149e+00 5.8425167139254697e+00 0 0 0
453 2 2.9941838052032757e+00 1.2632367436366572e+01 3.4886520581416600e+00 0 -1 -1
286 1 1.9105383918900493e+01 1.0585430998027970e+01 5.0991090465546263e+00 0 0 0
1803 2 7.6772674033476989e+00 3.1150111289018532e+00 2.0821683649566030e+00 0 1 1
913 1 1.2942366339317124e+01 1.3214699392854435e+01 2.3678692930076601e+00 0 0 0
904 1 1.8262691905588007e+01 5.8775849807067092e-02 7.5221041864614628e+00 0 0 0
294 2 1.9441246508907266e+01 9.2198321474920650e+00 7.9770951187750407e+00 0 -1 -1
528 2 2.4958242761763714e+00 1.4969346384738607e+00 2.3796493891867372e+00 0 1 0
1084 1 1.0005403014126028e+01 9.6318197113030966e+00 4.6925222198373557e+00 0 0 0
219 2 9.0000552472387785e+00 1.9261664185003731e+01 8.9327365053138141e+00 0 -1 0
1595 2 6.2458989689455482e+00 1.6460929217344432e+01 1.1855354579701289e+00 0 0 1
1762 1 1.0269187275035951e-01 6.6281719169831428e+00 2.0767491548164281e+00 0 1 0
1750 1 8.7489796578820425e+00 1.2907510502002912e+01 7.7973846354232945e+00 0 1 1
691 1 5.1237710731169805e+00 1.4957087816456467e+00 6.5892287651121855e+00 0 1 1
247 1 7.8002639511884730e+00 1.9674239070946633e+01 5.3847766919547340e+00 0 0 -1
1802 2 7.0868330514963871e+00 3.9731772524591253e+00 3.3149163049373636e+00 0 1 1
1340 2 1.3003972283891862e+01 1.3535933520596659e+01 9.5858545154028665e+00 0 0 1
1362 2 6.2141678049676949e+00 1.7680759590996409e+01 5.7121929574723307e+00 0 -1 0
1361 2 5.4652581035132783e+00 1.9074443559677860e+01 5.9065844650740047e+00 0 -1 0
232 1 1.3820020498685754e+01 1.1247352496877019e+01 7.9335801118780740e+00 0 0 -1
751 1 9.3502217047345333e+00 6.3802537629845277e+00 5.9958515985350207e+00 0 0 0
681 2 1.4229604146025636e+00 9.9307598144628280e+00 7.8073336367974937e+00 0 0 0
1095 2 7.9901048093086615e+00 1.1739826777934894e+01 3.0161614109963137e+00 0 2 0
24 2 -6.2221555680706031e-02 1.6829811471723410e+01 9.1604557526567998e+00 0 -1 -1
463 1 1.6255617782952651e+01 4.9556803874882762e+00 3.5216242519184693e+00 0 0 -1
677 2 8.4409803013726747e-02 8.1969646941275602e+00 2.6966269961324656e+00 0 0 0
492 2 3.1749827022251389e+00 7.0155896703037914e+00 3.1868007093578314e+00 0 1 0
259 1 7.4958880693751579e+00 1.9045890379654601e+01 8.1411474322368775e+00 0 -1 -1
1147 1 9.7724764903989438e+00 2.2608895962280471e+00 7.9626598444730599e+00 0 0 -1
38 2 1.1948133573397778e+01 1.9749520153476805e+01 2.5377468247021340e+00 0 -1 0
101 2 1.9224912583809811e+01 1.8529956137767023e+01 4.7932557059358185e+00 0 -1 0
292 1 1.8676932231767704e+01 9.3747533487695396e+00 7.2881315321125459e+00 0 -1 -1
1086 2 1.0600339490029677e+01 9.7277212835940698e+00 5.4601970263400927e+00 0 0 0
1081 1 1.0577312780935365e+01 1.4927720669938591e+01 8.6829189344580229e+00 0 0 0
1136 2 4.4126884113551643e+00 1.2170079137998247e+01 4.9062285596338775e+00 0 1 0
1186 1 3.0635335025219024e+00 1.4169871992478374e+01 2.8258236884678669e+00 0 0 0
1795 1 1.7490428821281530e+01 1.0187085882426009e+01 9.8426476586548262e+00 0 1 0
1104 2 4.9631400324782584e+00 5.1492292373943318e+00 8.2421861874860660e+00 0 1 0
666 2 7.0890241246697405e+00 5.3538107175850627e+00 4.9076515406458041e+00 0 0 0
1607 2 1.5256445400283383e+01 1.9500551987593514e+01 3.0196988067811609e-01 0 -2 0
893 2 1.0397029179234776e+00 2.1534577335638381e+00 5.2637117035794949e+00 0 0 0
251 2 4.4974610769614758e+00 1.0215066885987083e+01 3.6029257738964833e+00 0 -1 0
1334 2 1.4910186638487779e+01 1.9547578358711508e+01 9.2609341826017655e+00 0 -1 0
955 1 1.8051166118936095e+01 1.5571756996932635e+01 8.8976847139601105e+00 0 0 0
1583 2 1.5072086795728625e+01 6.4840986568570411e+00 3.9662442718600621e-01 0 0 0
88 1 5.4613319803372091e+00 1.1287274685263483e+01 1.0134303913540326e+00 0 0 0
1101 2 1.2201716280519395e+01 1.8703893646643099e+01 5.0114985173395592e+00 0 0 0
260 2 6.9732838121684964e+00 1.8264702990348670e+01 8.3397165275744918e+00 0 -1 -1
1771 1 1.5287465489775570e+01 7.1792733428424560e+00 4.6688078308404863e+00 0 0 0
1558 1 1.6972737871206142e+01 2.4733779004296577e+00 4.5202892459429025e+00 0 1 1
1300 1 3.4074257109125781e+00 6.2020191139841152e-01 8.8561438805232875e+00 0 1 0
966 2 4.6102119688599954e+00 1.8081808709309087e+01 7.4533982884170005e+00 0 0 0
708 2 1.4594317879879656e+01 1.1062753179651990e+01 1.5543076792626298e+00 0 0 1
742 1 1.3514055714162453e+01 4.0324495697474747e+00 4.8192802665116297e+00 0 -1 0
1341 2 1.3794213184544752e+01 1.2595123148773329e+01 8.6878376996341480e+00 0 0 1
1134 2 1.9843971563947342e+01 1.5380300992893966e+01 9.9275867001321527e-01 0 0 0
1562 2 3.2483531385903128e+00 6.4177413407240103e+00 9.1564414237580429e+00 0 1 0
10 1 1.0045118333953124e-01 6.7405494285156603e-02 1.4446147167354708e+00 0 0 0
1525 1 1.2979934845779422e+01 6.6050555746795026e-01 9.1055073969048426e+00 0 1 1
696 2 1.6269876049285010e+01 9.4929977815084321e+00 8.9563361417006124e+00 0 -1 0
1775 2 5.0974763857081813e+00 3.9537245781312342e+00 1.5822755576556360e-01 0 1 1
217 1 9.8688728312126734e+00 1.9688212445307272e+01 9.1338545058435496e+00 0 -1 -1
1187 2 3.1905951460824706e+00 1.3633316621991973e+01 1.9988291875507027e+00 0 0 0
971 2 4.9830086435270804e+00 4.8357765485421966e+00 5.3380087694483462e+00 0 0 0
240 2 4.0280675843742006e+00 2.4147958480762375e+00 1.0075741376165666e+00 0 0 0
12 2 3.3802997078569919e-01 1.9111964329489943e+01 2.1270139727455435e+00 0 -1 0
1545 2 1.6030110470925549e+00 1.2087418695564027e+01 7.0191108936475377e+00 1 0 0
513 2 2.0232048649682937e+00 1.4459772035790108e+01 4.0804169325919029e+00 0 -1 -1
229 1 2.7082880567389309e+00 1.6186809568398353e+01 6.8724974980966271e+00 0 0 0
42 2 1.1588421159351601e+01 6.5569592960905370e+00 8.2355544471987336e+00 0 -1 0
1797 2 1.7996160178254648e+01 1.0433768014841341e+01 9.0286226607315587e+00 0 1 0
1314 2 1.6673637546660030e+00 4.8301624427474588e+00 3.9493080853351041e+00 0 0 1
685 1 6.2499257810146212e+00 1.2492394126993428e+01 3.2602236811037839e+00 0 0 0
1188 2 3.9441656453480114e+00 1.4675095161744160e+01 2.9058060987486702e+00 0 0 0
218 2 9.9426100161034672e+00 7.5231583238018407e-01 8.6001863478556189e+00 0 0 0
234 2 1.4412818631833296e+01 1.0390558614036136e+01 8.1235894344483057e+00 0 0 -1
1329 2 4.0731185985235232e+00 9.7473005434209874e+00 7.3429102288068666e+00 0 0 0
1333 1 1.5769495079561057e+01 1.9249004545322343e+01 9.7019780985925514e+00 0 -1 0
1749 2 -1.8119141033201153e-01 1.0859754472692480e+01 5.3620020897711820e+00 0 0 1
1620 2 1.3931017425828619e+01 4.4054816359583677e+00 7.5183986681286621e+00 0 0 0
1370 2 9.5725478417307759e+00 5.0628311639885251e+00 4.3137282966246717e+00 0 0 1
1605 2 1.3090613785763439e+01 5.2173299794719634e+00 1.8997761915995555e+00 0 1 1
1548 2 4.1807428202192520e+00 1.2076618168166625e+01 7.3311173778709560e-01 0 0 1
1322 2 1.8906107594444673e+01 1.2709844072897322e+01 7.6709914865396716e+00 0 0 1
1149 2 1.0636134487333667e+01 2.2850533634769916e+00 7.4687950117509807e+00 0 0 -1
741 2 1.6595770798636597e+01 1.2050732789261845e+01 6.7304069372787518e+00 0 0 1
737 2 1.9381777658728101e+01 1.2674541891027770e+01 4.7840801628645009e+00 0 0 0
964 1 4.4891984569800361e+00 1.7868582671426513e+01 8.4199051359564834e+00 0 0 0
68 2 1.2380110642738855e+00 3.6064546814217109e+00 6.8889290609591436e+00 0 0 0
1161 2 1.1359223373915828e+01 2.4416112371323417e+00 1.0586481121322251e+00 0 1 0
74 2 1.1541750740352615e+01 9.8277183408981941e+00 9.4518650300221392e+00 0 0 0
478 1 1.9419712778136176e+01 1.8610457012774244e+01 7.7258069353611702e-01 0 0 -1
655 1 8.8783544562405314e+00 1.5201267764869092e+01 2.8536460238868986e+00 0 0 0
1529 2 2.4356192975424578e+00 3.3849326314649453e+00 9.2094163422407664e+00 0 0 0
250 1 4.9977034843367827e+00 9.3997784655884953e+00 3.8529095287633530e+00 0 -1 0
1834 1 1.2606957689513047e+01 6.8339554476720261e+00 4.5262359088041926e+00 0 1 1
1369 1 9.7046515350781526e+00 4.5214799131340104e+00 3.5250480207310755e+00 0 0 1
1344 2 9.9212637264406833e+00 1.0164845045847615e+01 8.0619340816384124e+00 0 -1 0
944 2 1.8185271816128378e+01 1.7865179640669332e+01 3.3552731803080560e+00 0 0 1
1832 2 9.3935627879325168e+00 1.6264442082555458e+01 9.2996207230901735e+00 0 -1 0
1539 2 1.9754665654666415e-01 1.4472728356133802e+01 2.2658169539233119e+00 0 0 0
748 1 8.5630879597391587e+00 1.4596747262212104e+00 1.9000369705241649e+00 0 0 1
709 1 1.9512324814098978e+01 3.2904487591763401e+00 3.4791901003801544e+00 0 0 0
686 2 6.0034849907281780e+00 1.2343054085043022e+01 4.2123966616145161e+00 0 0 0
940 1 1.6157354870721139e+01 2.5661915320695763e+00 8.0574870246021728e+00 0 1 1
1124 2 1.8732242491785673e+01 4.0874682101198072e+00 6.5609211609050133e+00 0 1 0
47 2 8.7182764840599489e+00 6.9742271704037027e+00 7.5100331342734545e+00 0 -1 0
945 2 1.6777471012306059e+01 1.7738386585257359e+01 2.6245004603726847e+00 0 0 1
538 1 1.1026450425996346e+01 1.9715652893094006e+01 5.8093443222291610e+00 0 0 1
1353 2 1.1002848022451934e+01 7.7123498668993662e+00 2.3713015182511579e+00 0 0 1
73 1 1.1574354111136618e+01 9.7257926831520507e+00 8.4837055894033586e+00 0 0 0
1307 2 8.0061798619006854e+00 1.7694711550645440e+01 5.2094615819955186e+00 0 0 1
943 1 1.7700078316067376e+01 1.7506854491103095e+01 2.5755339339733658e+00 0 0 1
41 2 1.1676776491857261e+01 7.9817927789704752e+00 7.7403041184288011e+00 0 -1 0
672 2 1.3048260878793069e+01 8.7854514828264083e+00 1.9360726304031179e+00 0 -1 0
738 2 1.9504890919006307e+01 1.4251873296577115e+01 5.2570388107566766e+00 0 0 0
919 1 2.3493038753109263e+00 2.7682755951575047e+00 1.6224215317918376e+00 0 1 0
958 1 1.1442650706688717e+01 5.8734283160317222e+00 9.8769135343731680e+00 0 1 0
1785 2 1.3598204264460130e+00 3.4438884910639969e-02 6.0778565306824062e+00 0 0 0
76 1 1.9296183964733682e+01 5.4290565515385547e-01 4.7773358848190544e+00 0 0 0
871 1 1.1263569248715415e+00 1.0349615123589619e+01 4.5285788885063472e-01 0 0 0
230 2 2.0022016807100171e+00 1.6235244431703300e+01 7.5844284628227010e+00 0 0 0
965 2 4.3504437343076523e+00 1.8734301065690861e+01 8.8170469685324164e+00 0 0 0
968 2 9.6514264040497988e+00 1.0853636110256138e+01 1.4287269726483240e+00 0 0 1
1158 2 3.3614154881895226e+00 1.4511384190781065e+01 8.9934331318020853e+00 0 0 0
1085 2 1.0479769138788569e+01 9.1267304883989873e+00 3.9977252716360892e+00 0 0 0
1083 2 1.0240774106643830e+01 1.4058842174480517e+01 8.9007614285284795e+00 0 0 0
1551 2 1.2813659871307255e+01 2.0271533941112039e+00 2.4524627674541373e+00 0 1 1
1102 1 3.9476600152034509e+00 5.2827468529187520e+00 8.2423910706817534e+00 0 1 0
60 2 6.1261659680100611e-02 5.9764696291105013e+00 8.9804488838229144e+00 0 0 -1
464 2 1.7023958905879706e+01 4.9967490008059796e+00 2.7912903604591581e+00 0 0 -1
40 1 1.1797197155535564e+01 7.0639285640731382e+00 7.3873116159852410e+00 0 -1 0
37 1 1.1396687304021636e+01 1.9076965319155526e+01 2.1244787351940597e+00 0 -1 0
1822 1 1.6405446203482871e+01 1.6182603810030553e+01 3.0966878369379458e-01 0 0 1
1137 2 5.2885922778164076e+00 1.2911036258226950e+01 5.9188671835349069e+00 0 1 0
289 1 7.1764028697946616e+00 9.7688928886094786e+00 5.4115195361295845e+00 0 0 -1
1099 1 1.2814861242065934e+01 1.8038932960309410e+01 4.7416594470346132e+00 0 0 0
1608 2 1.4234978250174082e+01 1.9042636853928045e+01 1.2811486062874955e+00 0 -2 0
970 1 4.0718303575582544e+00 5.1785244485295800e+00 5.5754684094725047e+00 0 0 0
1382 2 1.5579034855013052e+01 7.1426821827117974e+00 6.3472737260435919e+00 0 0 0
670 1 1.3931727902482343e+01 9.0986034853259206e+00 1.6543192768339092e+00 0 -1 0
900 2 2.3055752870327118e-01 7.9348785653217195e+00 5.6933573231830721e+00 0 0 0
1308 2 7.6907643772268184e+00 1.6367196588283125e+01 5.8078146387664304e+00 0 0 1
1093 1 8.9206887827894832e+00 1.1412313326345414e+01 2.9647212777060927e+00 0 2 0
1162 1 1.4539634944441627e+01 1.7315295581267485e+01 7.4772247301890342e+00 0 0 1
11 2 7.3867598446203053e-01 1.9642716230291231e+01 6.6125725367692767e-01 0 -1 0
937 1 6.5631937592250118e+00 1.3678822970338116e+01 9.2077476665650373e+00 0 0 0
894 2 -1.1255510142594272e-01 1.1393210529900797e+00 4.8260356298182847e+00 0 0 0
220 1 1.3921992585121318e+01 1.4922931664260869e+01 6.7314623413664254e+00 0 1 0
527 2 2.0632267470283656e+00 8.8198766478487722e-01 3.8470755278667030e+00 0 1 0
1579 1 -5.2671471291271033e-02 3.2756918289308923e-01 8.7329433972218915e+00 0 0 0
249 2 7.7462007904520025e+00 8.6438416062390544e-01 5.2973122680579818e+00 0 1 -1
509 2 1.4262337920309287e+01 5.0700915957444419e+00 9.6743736192656868e+00 0 2 -1
914 2 1.2421903088549776e+01 1.2968665299918527e+01 1.5655673706352664e+00 0 0 0
957 2 1.7249566669992493e+01 1.5026377260259666e+01 8.9180042414687541e+00 0 0 0
662 2 8.4504802242223009e-02 1.7981230393961833e+00 1.7797524632282726e+00 0 0 1
482 2 1.0255964155261706e+01 1.6720039325117853e+01 6.4134591227587077e+00 0 0 0
1135 1 5.1591909733410048e+00 1.2051429189639990e+01 5.4904620948993781e+00 0 1 0
1208 2 1.9885559619290778e+01 1.9410472781372341e+01 7.7686288135214836e+00 0 0 0
514 1 1.1528147817531913e+01 1.2611664362587145e+01 5.2297152715195298e-02 0 1 0
1364 2 1.8952287301263748e+01 1.4649772876433230e+01 9.9869000261391569e+00 0 0 0
472 1 4.5445400112421792e+00 1.5534683529441184e+01 9.3353720808648522e+00 0 0 0
481 1 9.7255804128167309e+00 1.7477062170606853e+01 6.6350410179924726e+00 0 0 0
1598 2 1.7959037024732613e+01 1.2206703195243280e+01 8.3943547471435920e-01 0 1 1
687 2 6.2606680389730718e+00 1.3448481118732724e+01 3.1775552016039326e+00 0 0 0
1160 2 1.2236021382160477e+01 3.2850751799552222e+00 1.3271828930515056e-01 0 1 0
1748 2 4.1327276046423878e-01 1.0059349770298386e+01 4.0960612356185173e+00 0 -1 1
1826 2 1.7014805253642891e+01 7.8833647389808847e+00 1.8107503810291434e+00 0 0 1
540 2 1.0557150503369174e+01 1.9037310866434883e+01 6.3523682397832530e+00 0 0 1
293 2 1.8470147472339224e+01 8.4252697088356143e+00 7.0702379654729892e+00 0 -1 -1
256 1 9.2329263127296812e+00 4.2386086185503089e+00 9.8394552252222240e+00 0 0 0
953 2 9.5249882849146363e+00 1.4511863353687893e+00 3.1911291972767959e+00 0 1 1
1148 2 9.8466805802353168e+00 2.7424316171433252e+00 8.8196968610062747e+00 0 0 -1
1577 2 1.9195499413816542e+01 8.7435810722726277e+00 4.6587600936796107e+00 0 0 1
222 2 1.4522957741927717e+01 1.4475916621518440e+01 6.0167346780562418e+00 0 1 0
1360 1 5.2482446782525178e+00 1.8102220280094254e+01 5.8862328543429800e+00 0 -1 0
92 2 1.5361063491314493e+01 1.3362061708310073e+01 9.6017185530765712e+00 0 0 -1
669 2 1.3494613929815689e+00 1.7647408926528431e+01 3.7143849056156508e+00 0 0 0
1594 1 5.5640763343755069e+00 1.7150985808156790e+01 1.5753912101985785e+00 0 0 1
961 1 3.0577009211628681e-01 9.2881366062832154e+00 9.0190543098120592e+00 0 0 0
48 2 8.6398671856511466e+00 8.4652656483078115e+00 7.9928135478395186e+00 0 -1 0
1755 2 2.7275727095723878e-01 3.5713858579588362e+00 9.1750124977753753e+00 0 1 -1
1618 1 1.4704752608126658e+01 4.5883056962264908e+00 8.0520309018736249e+00 0 0 0
77 2 1.8987017562695911e+01 8.7405503921274197e-01 5.5985691057748923e+00 0 0 0
664 1 6.5908936934779403e+00 4.5125463015080047e+00 4.8691960197071831e+00 0 0 0
1327 1 5.0259971199841278e+00 9.9513844221598884e+00 7.2008814578404863e+00 0 0 0
1784 2 2.0611200521760349e+00 1.8447197532704102e+01 6.6239905034522666e+00 0 0 0
1125 2 1.7806066384529270e+01 3.0673074815519450e+00 7.3118366764747122e+00 0 1 0
1328 2 4.9961435073684592e+00 1.0697007479541504e+01 6.5376810461101709e+00 0 0 0
511 1 1.4690882864699606e+00 1.4493973342531543e+01 4.8457041760965032e+00 0 -1 -1
1570 1 8.6918662445504520e+00 1.7706396851322097e+01 1.2568047136105263e+00 0 -1 1
939 2 6.0730859601387408e+00 1.4497389431150138e+01 9.0048409762124315e+00 0 0 0
26 2 6.5359666021282194e+00 1.1909604716674213e+01 9.3575440830926553e+00 0 0 0
105 2 7.7848962310359191e+00 5.2791669217322355e+00 1.9566759277745753e+00 0 0 0
1096 1 1.5113558705226662e+01 5.8655258568345059e-01 4.2139976248719000e+00 0 1 0
1560 2 1.7367276509881666e+01 2.6636369512583169e+00 5.4160877028742744e+00 0 1 1
1812 2 1.0614721764394218e+01 5.8501651727611739e+00 9.1841160000953836e-01 0 0 1
1596 2 6.0695592624176218e+00 1.7730530381437987e+01 2.1865489455604536e+00 0 0 1
231 2 2.1234812421696483e+00 1.5890335859826832e+01 6.1236945809235648e+00 0 0 0
653 2 7.7458318464042772e+00 7.1464228846024600e+00 3.5112213291050729e+00 0 0 0
90 2 5.9016826744155608e+00 1.0421157041682312e+01 8.9603444766630758e-01 0 0 0
1098 2 1.5760238333310024e+01 4.1707414206661228e-02 3.7269252109947764e+00 0 1 0
474 2 4.4822912649944469e+00 1.6490684458644260e+01 9.1628393841637958e+00 0 0 0
752 2 1.0137096882097824e+01 6.8137115485217024e+00 6.2928274929294332e+00 0 0 0
1805 2 1.1064412416221161e+01 1.4479972087167734e+01 5.3515674003312244e+00 0 0 1
233 2 1.4346057413632815e+01 1.1595813074364740e+01 7.2102219214532592e+00 0 0 -1
1824 2 1.7305042110069333e+01 1.5940884303173572e+01 6.5318938681809280e-01 0 0 1
1184 2 5.9355154525295726e+00 1.5122031210790846e+01 6.6730143041863546e+00 0 -1 0
1535 2 6.8712520238408672e+00 7.8082737307849506e+00 1.7354643063759698e+00 0 -1 0
245 2 3.9008827787363520e-01 1.0968326296928542e+01 9.7311324961306003e+00 0 0 0
313 1 3.6016736840670949e+00 6.0467346550571115e+00 1.8393313972335348e+00 0 0 0
694 1 1.5443265591837608e+01 9.0700193621844267e+00 8.6674898230349910e+00 0 -1 0
452 2 2.1812062401275387e+00 1.1514199872313242e+01 4.2484568642187206e+00 0 0 -1
1164 2 1.4343205299798125e+01 1.6445132573134334e+01 7.0040568798084308e+00 0 0 1
290 2 6.8612016158035241e+00 9.9254082150908634e+00 6.2943299718493497e+00 0 0 -1
27 2 6.0077634809221845e+00 1.0579423553514621e+01 8.5807398572124818e+00 0 0 0
1729 1 2.9070945526668353e+00 1.8140858160769127e+01 4.0941658081077605e+00 0 0 0
657 2 8.1853426375126066e+00 1.5509792127982859e+01 3.5290785590231848e+00 0 0 0
539 2 1.0370799200992600e+01 1.9939237893985262e-01 5.1836287388372124e+00 0 1 2
306 2 8.0658860221632445e+00 1.5712634748085126e+01 7.8698945470291921e+00 0 0 1
1536 2 6.0612984482676229e+00 9.0149731352948947e+00 2.4668767150892918e+00 0 -1 0
1171 1 1.2878799534126173e+01 1.6331549151944326e+01 9.6406955131823544e+00 0 0 0
1373 2 1.4031334653122343e+00 1.5898753948366508e+01 6.6552466842756941e-01 0 -1 1
490 1 3.1124739808598743e+00 7.3795062356145893e+00 4.0913862835326462e+00 0 1 0
71 2 5.5883035813517621e+00 1.6004306363914996e+01 2.9244158143362253e+00 0 -1 1
1159 1 1.2171148111823626e+01 2.9932847752049287e+00 1.0803216930684829e+00 0 1 0
956 2 1.8324215238481827e+01 1.5618890517256055e+01 7.9352946675019229e+00 0 0 0
654 2 7.3530409098645215e+00 8.3370033791496514e+00 4.5395736218440454e+00 0 0 0
1606 1 1.4365244270503233e+01 1.9723453714679838e+01 6.2481144007796519e-01 0 -2 0
1761 2 4.8291068946575892e+00 4.1146878455469571e-01 2.6010195087425486e-01 1 0 1
226 1 3.2741922836457737e-01 1.2740906045169019e+01 2.5825125426728688e+00 0 0 0
740 2 1.6173602342063347e+01 1.0839367687313098e+01 5.7568023809597317e+00 0 0 1
1546 1 3.2408905874526188e+00 1.2479189822293892e+01 6.4187512008083314e-01 0 0 1
941 2 1.5796447278317096e+01 1.6582126703331022e+00 7.7945059740928659e+00 0 1 1
903 2 1.8743993565491866e+01 6.4169008840259574e+00 6.0221985295923082e+00 0 1 0
69 2 2.5072684791238902e+00 3.9767695748049876e+00 6.0198654449614812e+00 0 0 0
1827 2 1.7283379329487179e+01 8.7702740344586747e+00 3.0050427399081268e+00 0 0 0
258 2 8.4036896597980153e+00 4.5537780995587003e+00 9.4595797630070049e+00 0 0 0
252 2 5.6440888974282482e+00 9.7224896231844600e+00 4.4927588304650410e+00 0 -1 0
91 1 1.6303864823820799e+01 1.3317930051047869e+01 9.6410615971237252e+00 0 0 -1
1349 2 6.9764321695842515e+00 5.7197112344968559e+00 8.0576272278900660e+00 0 0 0
261 2 7.2042949335664979e+00 1.9647717425129041e+01 8.8467932155914895e+00 0 -1 -1
8 2 2.1172499739504802e-02 1.3245408789618017e+01 7.8061593470953863e+00 0 -1 0
537 2 1.6754061271772926e+01 1.7260855328507855e+01 5.5610871758443166e+00 0 0 0
656 2 9.5522505687139585e+00 1.4727550094953854e+01 3.3914938168341795e+00 0 0 0
315 2 2.8230598372302533e+00 6.1561842794049042e+00 1.2625220223329821e+00 0 0 0
901 1 1.8508410805550515e+01 6.0166402664834679e+00 6.8680940146755223e+00 0 1 0
749 2 9.1912115071597871e+00 1.1533657206521606e+00 1.2563905155262542e+00 0 0 1
535 1 1.6593752696671832e+01 1.8169793118615026e+01 5.7397547857378637e+00 0 0 0
734 2 1.5627562222012680e+01 1.2955552096176227e+01 5.1368509529129689e+00 0 0 0
308 2 1.5760266560592843e+01 1.0483369053190515e+01 3.4849674393945742e+00 0 0 0
314 2 4.1798591382180303e+00 5.6560240363920009e+00 1.2042567874007875e+00 0 0 0
268 1 1.7537553525841641e+01 1.4675164948025687e+01 2.8032104978007890e+00 0 0 0
1352 2 1.0689970898571056e+01 9.2644713152475884e+00 1.9725791610457362e+00 0 0 1
59 2 6.6826679290023039e-01 6.4814447712954673e+00 7.6247833089078076e+00 0 0 -1
1553 2 1.8928095100539224e+01 5.9568268907562354e+00 2.0518959086383939e+00 0 0 1
1526 2 1.2854535155470387e+01 1.0018385060630957e+00 1.0021749255097193e+01 0 1 1
1538 2 -2.9551382595954800e-02 1.6076338999994285e+01 2.4475830621713217e+00 0 0 0
1581 2 4.1297693883142628e-01 1.2907410106070180e-01 7.9172286488472219e+00 0 0 0
1343 2 8.4001723439165037e+00 1.0729907957735277e+01 8.4289907198692902e+00 0 -1 0
1571 2 9.0530622232143205e+00 1.6903864181751754e+01 1.5405655396812321e+00 0 -1 1
878 2 1.3633560717713181e+01 1.4683930682109494e+01 1.9703494596779501e+00 0 1 1
1123 1 1.8609618326410917e+01 3.1485701792186225e+00 6.8233467118916549e+00 0 1 0
450 2 1.4464777073490923e+01 1.8072388211807322e+01 3.6004125921791892e+00 0 0 0
1350 2 6.9155478369382291e+00 4.2732372892991162e+00 7.7588960728423890e+00 0 0 0
483 2 9.4990177535850862e+00 1.7307858604659224e+01 7.5873925430724389e+00 0 0 0
1534 1 6.6961140263311805e+00 8.7936461837086686e+00 1.6902393128121767e+00 0 -1 0
248 2 7.8677344601923220e+00 1.9576137876322417e+01 6.3591612458482771e+00 0 0 -1
877 1 1.4045739489200116e+01 1.5440520322302941e+01 1.5460405665207970e+00 0 1 1
1602 2 1.2645833478890733e+01 1.6378699247617607e+01 7.2177671857038250e-01 0 1 1
750 2 7.8721394334510570e+00 8.0878384181634877e-01 2.0054860926745306e+00 0 0 1
695 2 1.5615339256197091e+01 8.2834245994835740e+00 8.0982209364109110e+00 0 -1 0
876 2 5.2596617307140026e+00 2.8213588920642421e+00 3.1808522263084056e+00 0 0 0
512 2 1.6382941123619310e+00 1.3728170437063032e+01 5.4679965811847024e+00 0 -1 -1
1751 2 7.7992672676531392e+00 1.3034333135302292e+01 8.0463714329550982e+00 0 1 1
967 1 1.0154232121887370e+01 1.0333907062737138e+01 7.7911620961841033e-01 0 0 1
1582 1 1.5568159167641534e+01 7.3113778031533982e+00 6.0335971656554166e-01 0 0 0
1321 1 1.7999950921102823e+01 1.2443043965077367e+01 7.5662027669658745e+00 0 0 1
1132 1 1.8986373581018753e+01 1.5317655736345955e+01 4.6226550868552752e-01 0 0 0
1600 1 1.1995004740741713e+01 1.6556195053392972e+01 1.0085857124376869e-01 0 1 1
307 1 1.6331619950555446e+01 9.9821045589735640e+00 4.1172809882770043e+00 0 0 0
1760 2 5.1003154334509961e+00 1.8679986715233202e+01 6.3620355385536387e-01 0 -1 1
1825 1 1.7707467402394695e+01 8.3724034172443460e+00 2.2404142604111685e+00 0 0 1
75 2 1.2260890861683382e+01 1.0293852848027557e+01 8.1544673343712173e+00 0 0 0
1836 2 1.1762992916881938e+01 6.8743861379889797e+00 4.0687135620622206e+00 0 1 1
920 2 1.9667832170420452e+00 3.0039692031270326e+00 7.7874535341555018e-01 0 1 0
1302 2 3.1746674001734876e+00 1.3584760350304224e+00 9.4872137992905987e+00 0 1 0
517 1 1.9094819939710042e+01 1.5567575659823808e+01 6.4629445265627750e+00 0 0 0
1773 2 1.4356909433368525e+01 7.0843028870883495e+00 4.3343862205785806e+00 0 0 0
1806 2 1.2325095943409977e+01 1.4878845103091402e+01 6.1364767390381445e+00 0 0 1
1563 2 2.1993505941827376e+00 7.7093541363534843e+00 9.0510495985658768e+00 0 1 0
1831 1 8.5785168378155578e+00 1.6773206855311223e+01 9.0884531123580974e+00 0 -1 0
104 2 8.7953648000351787e+00 6.4527650466249309e+00 1.5984138402203878e+00 0 0 0
269 2 1.8085627275391715e+01 1.4655329646618167e+01 3.5744790695113293e+00 0 0 0
872 2 2.0226026555133276e+00 1.0720435049957167e+01 3.6302165328444114e-01 0 0 0