LAMMPS data file via write_data, version 8 Apr 2021, timestep = 21749000

576 atoms
2 atom types

0.13599769395922626 17.78400330603756 xlo xhi
-0.06900330604081394 17.57900230603865 ylo yhi
0.280997693956913 17.929003306040798 zlo zhi

Masses

1 16
2 2

Atoms # atomic

133 1 3.187049007193551 4.108904828320564 2.006802380901947 3 -3 2
416 2 0.8883236942235808 3.2477644028866965 4.366811874024134 -1 -1 3
415 1 1.6892341801430313 2.6932499006442914 4.362100169521323 -1 -1 3
417 2 2.0932228707751057 3.0456641547617296 3.5558984192974625 -1 -1 3
534 2 4.312175500486049 2.7061805204203293 3.079411543450488 3 5 3
396 2 0.2935282572735803 2.0402042035385244 0.9310186588261715 1 -3 1
253 1 0.8242074179141168 0.22581294125896811 0.7078463182611049 3 2 3
329 2 3.9413303083649915 3.8492602422089033 0.4901009591782819 -3 1 1
423 2 3.2855426445561844 -0.007964279394527499 3.026090381351375 4 1 6
255 2 1.4960717638233003 0.013009481023488617 1.362512807732293 3 2 3
227 2 6.88583874779287 2.004756281398017 0.7877591523204232 -2 -1 2
532 1 4.669259702386547 1.7992551837492685 3.2087746778700805 3 5 3
226 1 7.053710730095247 1.933397679697134 1.7613427920747649 -2 -1 2
533 2 5.232063982351922 1.7230993229382683 2.4369768354997494 3 5 3
228 2 7.5675611832337815 1.0651515089117773 1.8263507504983765 -2 -1 2
299 2 7.876187361045581 3.0692643194056335 2.4130709970160247 0 6 -3
405 2 5.487653207694335 0.8868644342289371 4.514019716401445 5 -2 -9
298 1 8.434555547837073 3.8121721541037794 2.808259077656648 0 6 -3
155 2 8.255704143403532 3.214714303517414 4.38411525951819 -3 0 1
385 1 12.211765472761016 1.7711456892853323 1.5027978555648855 0 -7 2
387 2 11.714604517279737 2.61433972223048 1.4962960554143991 0 -7 2
300 2 9.29693217700267 3.891238527541625 2.446847503799442 0 6 -3
370 1 10.96369305276822 4.148470073257941 1.941435715476056 -4 0 1
23 2 11.648663712220564 0.6371437868372626 2.891987788711638 -1 2 -4
386 2 13.171777312690258 2.0679503499443146 1.5527418944298879 0 -7 2
395 2 17.73857848551562 3.529011380482396 0.989953074906271 0 -3 1
394 1 17.271285150352536 2.6656472808609615 1.2373589899740927 0 -3 1
77 2 15.514623847801186 2.8477184244907225 1.827823353167993 -3 -6 4
76 1 14.540896489235466 2.977172544245427 2.0048456355898665 -3 -6 4
78 2 14.472449142237725 3.0242582771222644 2.994790156701605 -3 -6 4
286 1 14.72846400921489 0.5013738813413452 3.818698759306984 -4 0 4
125 2 15.468338146617647 0.18123025835685758 2.3710844797570476 -1 7 0
222 2 14.28942570573631 4.177502389562729 0.9337076996355318 9 -3 -4
288 2 14.50579462388977 1.4505618836407606 4.1084110153158635 -4 0 4
523 1 14.781744790867185 3.3923694565657114 4.6795689867151475 2 1 1
126 2 16.64724537920446 0.1746144621300687 1.2998528467174668 -1 7 0
287 2 14.039678348657544 -0.0104024859185423 4.257494404725734 -4 0 4
322 1 1.100758669640857 4.849886462879985 0.5243780474510441 2 5 3
135 2 2.464969167407869 4.5861781726618895 1.5043534184536707 3 -3 2
134 2 3.6896111614360705 4.7729897964695365 2.54367500623629 3 -3 2
472 1 3.4255845394145137 7.889904196852852 3.90190117248619 0 -3 4
473 2 3.812659302137952 6.994254603489791 3.8960652981814627 0 -3 4
474 2 4.029352143963003 8.379290064251816 4.557498434995021 0 -3 4
57 2 3.9435149351957253 8.453477937721292 2.1847189329410726 2 0 -5
257 2 1.8826016883399441 8.277423529912468 3.805378314929257 7 2 1
55 1 4.33801271619577 8.522401839171291 1.280554622275015 2 0 -5
256 1 0.9459204018084791 8.505370181288763 4.078482222214888 7 2 1
323 2 0.4804893385730339 5.572963841975088 0.7285405255521126 2 5 3
424 1 8.88693166293339 7.540136305853696 0.4814004226692723 -8 0 -2
426 2 7.917259459103464 7.622204578536245 0.6810058954567596 -8 0 -2
338 2 4.825517313508879 4.9602225590821485 4.530376272899615 -2 2 4
337 1 4.694432729311939 5.578010058921233 3.755977390561969 -2 2 4
327 2 7.673992310738049 5.454739719796104 3.0655116706504657 -2 2 -4
339 2 5.595606224421322 5.913894279955296 3.5371668934440814 -2 2 4
326 2 6.923162430545242 6.377995751776772 1.9213836125684567 -2 2 -4
325 1 7.126221733847196 6.291478701418275 2.889550845693953 -2 2 -4
377 2 7.186261940687947 8.00174837413718 3.4171057472696504 2 0 3
311 2 5.341744245754793 7.17573379933077 0.695171050090975 -4 2 3
310 1 5.975398539803028 6.458010191840805 0.4606068997009628 -4 2 3
2 2 13.34070430104342 6.437652504775046 1.2892758702038642 -3 1 2
371 2 11.580082160644034 4.576823881027415 2.6071537952294626 -4 0 1
372 2 10.90287252823724 4.659237953022437 1.0673546914899965 -4 0 1
63 2 10.151622116723862 7.65610467921651 2.434789845899237 -4 2 -2
450 2 10.60128232216939 6.831854339564606 4.677612086221417 -1 4 7
247 1 12.484318447561948 5.091032624734033 3.849197132042152 1 3 4
61 1 10.981672484716682 7.640318964758384 2.9877193792916694 -4 2 -2
3 2 12.598726386198326 7.699105689409529 1.8026880535630192 -3 1 2
248 2 11.798702360116033 5.36238452217886 4.538501134375939 1 3 4
249 2 13.058489588137249 4.456993987183323 4.322013730600286 1 3 4
1 1 13.176189340287548 7.367386345235711 1.1526661061353212 -3 1 2
62 2 11.309722377571022 8.606909371601128 3.106123932494445 -4 2 -2
68 2 15.814889937819187 6.251550199015204 0.6030270269510195 0 -6 -3
350 2 13.384225420043482 6.7503027756104785 3.9666185285634805 -3 2 0
216 2 17.019743117352924 5.329371390567423 4.2762133200759225 0 -1 1
29 2 17.255354019274275 7.54581171294924 3.748981655915841 1 3 -6
69 2 16.612887581797946 6.445535245338278 1.8784019364686895 0 -6 -3
28 1 16.599884729672244 6.768010554592471 3.5741570554667326 1 3 -6
30 2 15.649666254613932 7.017800838713907 3.8089825332420872 1 3 -6
349 1 14.086364507051469 7.3320419586443935 4.283637289564787 -3 2 0
67 1 16.716066628051948 6.530301933627326 0.9182726923243436 0 -6 -3
116 2 17.471883187505505 8.22840816801906 0.2819870899411874 2 -2 -1
431 2 2.5265248250521983 1.183095149683279 4.759523483522663 3 6 3
430 1 2.411246350140269 0.3135257577850788 5.174414972088529 3 6 3
140 2 2.600079970151304 3.2847831834699246 7.692798510145857 -3 5 -3
304 1 4.0313433373728 1.7655755014719678 7.009272465483681 0 1 2
306 2 3.2621543076324766 1.2739496678676774 6.572275122724266 0 1 2
305 2 4.346371565832891 1.2324282711134815 7.794454354380874 0 1 2
139 1 2.562664805369608 4.017005603219774 8.325128791526312 -3 5 -3
432 2 1.4634792640187804 0.2801000873990626 5.347317283509174 3 6 3
404 2 6.906099925374169 1.3464555511193808 5.077978053163302 5 -2 -9
403 1 6.2712454182297765 0.5399014053466106 5.071024291123788 5 -2 -9
470 2 6.238954095728555 0.582049542234267 8.88648428119404 -2 3 -4
197 2 4.854797719664714 2.9730160370540215 5.793830744466653 -1 1 2
154 1 7.919021722196693 2.878135811841881 5.3076339985683445 -3 0 1
156 2 8.541633095227995 2.206352699642883 5.652743435883104 -3 0 1
198 2 6.2555664538816504 3.314522978512323 5.286746475469395 -1 1 2
196 1 5.3152131945607985 3.735020720541426 5.477220200547778 -1 1 2
555 2 8.563347901737151 0.6229683866235477 7.212477575044472 -2 -1 0
481 1 7.694003864975041 -0.020293799098659172 8.44680691814046 0 -1 -4
462 2 8.875666024129314 4.16727891325853 9.076840376501377 -1 -2 -2
553 1 9.270827670292077 1.0665973214242905 6.614946366139265 -2 -1 0
8 2 12.025867198398947 1.258381590339669 8.757710938007536 5 -1 -3
554 2 9.950277864473918 1.454533206890461 7.209468811449907 -2 -1 0
7 1 11.629217178401383 1.9026537025119292 8.094193562045476 5 -1 -3
531 2 13.098105470994275 2.8965676534465756 7.387835847325199 2 3 4
9 2 11.18623665080546 2.497929186617425 8.72688778998822 5 -1 -3
194 2 16.53047562573261 0.28110030325280044 4.698367808203572 -3 5 -2
529 1 13.655961716795488 3.6750648448112275 7.173489327863574 2 3 4
525 2 15.757947176049289 3.6839031842946555 4.796126021583431 2 1 1
74 2 14.68373210737857 3.098351900931889 8.488694489273598 -4 0 1
565 1 16.724206375911958 0.3831847610792634 8.024458065059804 0 1 -1
567 2 16.366688308605994 1.2810107911164303 8.263646243420508 0 1 -1
566 2 16.944683604301012 0.38431163615187564 6.9589397851897 0 1 -1
524 2 14.465617073430499 3.496825372445026 5.620303063705834 2 1 1
75 2 16.175264728643114 3.494266502572007 8.65584868338712 -4 0 1
73 1 15.509446239453315 2.8209266228087486 8.942001011206763 -4 0 1
193 1 17.16671309215667 0.028369404277364008 5.357917707332205 -3 5 -2
564 2 3.509690432376492 8.35258066717647 7.415159035039651 2 1 -1
468 2 4.204825736330862 4.543045530666411 8.116628525308947 -2 1 -2
147 2 0.49489082094116943 4.681281953388053 7.926383691387616 -4 -4 -1
200 2 0.49749200466702626 8.72477826584196 5.897961941693776 0 -2 -3
233 2 5.575755971211566 8.585095725325903 5.933405923882603 7 -3 1
466 1 5.148252917119507 4.893596014925832 7.916413214345129 -2 1 -2
467 2 5.299528987613475 4.4351727591491565 7.054225697867539 -2 1 -2
341 2 7.032501327547247 6.23011593061181 6.206357180073982 0 -2 -4
460 1 8.31499760522542 4.789591743545215 8.66119162954833 -1 -2 -2
549 2 5.900736525201452 7.645087722335205 7.961572757004259 1 -5 -2
547 1 5.458553311000695 7.27087976450481 7.194512644288783 1 -5 -2
548 2 5.446224289870668 6.32060399316368 7.367858374019196 1 -5 -2
342 2 7.749839714166001 4.886338221282855 6.221524057026329 0 -2 -4
340 1 7.823076819838133 5.781453086031138 5.885137387596093 0 -2 -4
461 2 8.953062472303932 5.436389240181014 8.3321057291808 -1 -2 -2
131 2 7.522441807610591 8.645531626446166 8.733710110171922 2 -1 1
479 2 13.14776731185883 5.775046105617134 9.042333155609686 -4 -3 1
449 2 9.61586716243367 5.684769591431023 5.022200273522524 -1 4 7
448 1 10.46438189104016 6.0713099819933944 5.274804163595227 -1 4 7
530 2 13.116227027261221 4.457566118022394 7.464085115560504 2 3 4
542 2 9.874077166932345 7.541819820631298 8.04131684194499 0 10 2
541 1 10.28042379488328 6.684487788544038 7.985102501063658 0 10 2
478 1 12.850715995889269 5.967952761634831 8.137818980526621 -4 -3 1
543 2 10.189809398702003 6.436509468179698 7.0488839760068505 0 10 2
480 2 11.904920974461152 6.200915040976524 8.112585632073147 -4 -3 1
60 2 15.589977417222759 7.27713880041177 7.498952087898075 -2 -5 2
102 2 13.47864652734059 7.18083755500095 7.16036636480532 -5 -4 0
214 1 17.294722783086677 4.5680982238446495 4.828984406314858 0 -1 1
351 2 14.122481193986593 7.415708080259583 5.274795732605013 -3 2 0
145 1 17.22344112717977 4.7579969594345695 7.661365249630259 -5 -4 -1
100 1 14.221850294773859 7.732230664264596 6.781028173648424 -5 -4 0
215 2 17.35524734883631 4.7950038156103325 5.753079197251135 0 -1 1
58 1 16.49732785898255 7.187118721082733 7.960376511990837 -2 -5 2
59 2 17.129653504106553 7.836334132485061 7.541539282740577 -2 -5 2
146 2 17.028326426546457 5.744135696536254 7.718094408110883 -5 -4 -1
101 2 14.036167866223684 8.743661346868135 6.9155253834994745 -5 -4 0
203 2 1.2647838140249317 2.830153433433581 11.311436749574437 -4 1 -3
501 2 3.1619949374199736 2.6408973568179412 12.117822979992315 -1 -1 1
202 1 1.9766732274947307 3.5286203963288374 11.179046330649115 -4 1 -3
499 1 3.569776371956097 2.2246520991715437 12.94809522088019 -1 -1 1
500 2 3.248171783811874 1.3460963296347443 13.04976060806293 -1 -1 1
445 1 0.17247651165108024 1.5919324358899898 11.576822376950574 0 2 1
141 2 2.4931084097585368 3.6068437052816122 9.287134336308444 -3 5 -3
267 2 0.4788584781266564 1.382319617928356 13.370648156271853 6 0 0
188 2 3.4409664577909997 0.14117991822280862 9.989386093425901 0 -3 -3
455 2 5.085347237977982 3.63270067580622 10.973158606953152 2 4 -5
471 2 5.415748352473748 1.8357554650699797 9.42534742644084 -2 3 -4
454 1 5.592612196500514 3.323518019391656 10.21321485488055 2 4 -5
390 2 7.300904877679116 3.6931870188299087 11.582496582112755 5 -5 -1
388 1 7.408442775061926 3.503243152822507 12.563512983493283 5 -5 -1
389 2 7.071963585995578 2.5672660731346104 12.585294513926826 5 -5 -1
280 1 5.929594936819074 1.2525423033541674 12.409010121996186 2 -1 -2
281 2 5.096571183462047 1.7523909008999314 12.449869959694619 2 -1 -2
456 2 5.585438099565089 3.9093035620893675 9.438044257491338 2 4 -5
191 2 8.958677778279805 4.096246661529824 12.87327821367574 1 3 -3
483 2 8.229729040602587 0.014838053552108987 9.241280925804753 0 -1 -4
469 1 5.321654922610357 0.8987246399328931 9.137750995118093 -2 3 -4
282 2 6.0795529007640985 1.0848142552186506 11.481297481714401 2 -1 -2
492 2 9.432387679361815 0.30926962655430035 11.032403125812602 -1 2 -3
408 2 12.810772231614008 0.5875447502155376 12.615095947485242 0 4 3
345 2 9.839024529446874 2.417626129110805 10.132392703909092 -3 3 -3
143 2 12.49454577241932 2.76386951366247 12.066866691288851 -1 6 0
344 2 10.966816600502774 3.466333464262253 10.554952648479876 -3 3 -3
406 1 13.10474592252416 1.268876392648458 11.96147118809199 0 4 3
343 1 10.144563112369562 3.3137306927463297 10.095698884406445 -3 3 -3
142 1 12.09257708529005 3.677835013262891 12.113896860761185 -1 6 0
264 2 12.841467966721616 0.054666610124307596 10.524479233098306 -3 1 0
192 2 10.508366442334644 4.077505974886985 12.884520396761111 1 3 -3
490 1 9.68696779209114 0.7388819584242041 10.192175565230864 -1 2 -3
144 2 12.789700239642595 4.304659300129989 11.74699428706986 -1 6 0
491 2 10.499461436702026 0.1733385969536349 10.092150365614716 -1 2 -3
446 2 17.721371904474175 0.7424335948538234 11.102735381792655 -1 2 1
407 2 14.031514564412356 1.537929676671602 12.039237732358945 0 4 3
447 2 16.893965192033807 1.9016377256150194 11.589276596843515 -1 2 1
88 1 15.278524032615048 2.7216384685154837 11.743667096424863 -3 1 0
90 2 15.326254679328356 3.2024770782422722 10.918273649522632 -3 1 0
89 2 15.31623377354575 3.3868332117829874 12.493686901885933 -3 1 0
204 2 1.7725984944480648 4.367131608427768 11.512524964850664 -4 1 -3
361 1 1.255217797334236 6.062471410439023 11.804810750011338 0 -1 0
363 2 1.9258664677222403 6.697920820310234 11.516058834587781 0 -1 0
16 1 2.86403381809736 8.030413761714678 10.858800327022317 -3 1 1
362 2 0.9173730245074895 6.292988725203305 12.709455056380113 0 -1 0
18 2 2.921272894867621 8.100455109273081 9.934821550941273 -3 1 1
464 2 4.649288695934278 7.18530553851919 11.497715091046427 6 0 0
463 1 5.419916671714686 7.179642730824456 12.10844782950032 6 0 0
465 2 6.066338982684758 6.673686466667265 11.550506942356213 6 0 0
346 1 7.223622281502348 6.009858649884026 10.635984354520517 -3 -1 -9
347 2 8.007910823810722 6.160692937762234 11.168055858347186 -3 -1 -9
132 2 7.08853176731099 7.695899055689473 9.862465942937943 2 -1 1
130 1 6.798979275089798 8.373477782881741 9.32419986248969 2 -1 1
348 2 7.6047846731642865 5.569160632541177 9.815334582953296 -3 -1 -9
519 2 6.075568838935409 8.705640310877262 12.933495324413641 -4 5 3
190 1 9.730122275848682 4.5924833676999866 13.17672440494755 1 3 -3
552 2 9.339393653793161 7.485615355319618 12.301234183727816 -4 2 -1
550 1 9.692785967738256 6.765731646983188 11.762771800689652 -4 2 -1
551 2 9.774654323300386 6.002555493204266 12.348919859270838 -4 2 -1
164 2 11.347946627736421 7.570882353732106 11.577503839852827 0 -3 3
170 2 13.179636626516462 6.4017142932532245 10.883213802330442 5 1 0
163 1 12.321642866370663 7.779555906090061 11.416364442156182 0 -3 3
165 2 12.239193443983282 8.522027788469416 10.773729055443177 0 -3 3
138 2 15.744727005557667 8.646925590454938 10.668667612131673 3 1 -2
169 1 13.61290220185463 5.5444046934956 10.690591385712278 5 1 0
315 2 17.201198562013897 6.174929535038384 10.936966098884676 0 1 0
171 2 14.534413219176441 5.573558352160153 10.919111954341776 5 1 0
313 1 16.333609013779455 6.399266158761637 10.546830010533721 0 1 0
314 2 16.558100155341275 6.7696598090384175 9.658741685022797 0 1 0
230 2 15.72329601643868 6.89419653997157 12.187319310216054 -6 -3 -4
229 1 15.751316554651519 7.010015780025357 13.128954229839426 -6 -3 -4
231 2 15.09301694154345 7.684367541893816 13.412522115490201 -6 -3 -4
572 2 15.147609860068933 5.416418427525112 13.497952904321917 1 2 -2
353 2 3.4555770159672696 3.5234872621897204 14.341228936058677 3 2 -2
420 2 1.653831482690449 0.1559827449132299 15.152495591242324 1 0 2
265 1 0.25348485495784623 1.2219755937719645 14.307384118025164 6 0 0
266 2 0.6654344457028418 1.9316661619050577 14.749103693591408 6 0 0
330 2 4.1353323334044525 4.118412876393789 16.574872457600236 -3 1 0
254 2 1.2187170338650506 0.09596459736175768 17.493477809040822 3 2 2
122 2 5.795250695109879 0.10768952558430313 15.417603191844744 0 6 1
121 1 6.547362860488213 0.4660962359986177 14.890670506646936 0 6 1
123 2 6.199049181159989 0.7344336101019763 14.018357667508837 0 6 1
513 2 6.699128113501301 1.977042286340192 16.14884644100588 0 -1 4
512 2 5.959917392829696 3.240426963827805 16.832844245185214 0 -1 4
511 1 6.817075770281611 2.728771503698929 16.693433907648227 0 -1 4
328 1 4.609831724899502 4.130508020816151 17.419079860222492 -3 1 0
252 2 8.268544718160294 3.4699559782097467 16.097948928181204 0 -2 0
504 2 9.34283353337406 -0.00930415412075522 15.102841670199563 3 4 1
485 2 12.060032349671616 0.7174700840089384 17.8946836695818 -1 1 5
437 2 11.044074301915906 1.4963621852691527 14.321376558708806 -5 -4 6
486 2 11.506353252222139 0.507577276219809 16.438676594775302 -1 1 5
438 2 10.121978287841277 2.122114527157561 15.469751131871362 -5 -4 6
436 1 10.51179759982406 1.327410707017919 15.095767730431572 -5 -4 6
250 1 9.27470760718736 3.580904512769387 15.822492083677568 0 -2 0
251 2 9.186852652738237 4.05146598227099 14.958408109945488 0 -2 0
484 1 12.092460799510619 0.09582642273656615 17.10544188509117 -1 1 5
50 2 15.198548319431625 3.779517275298571 16.636801700723517 -1 0 -1
536 2 17.2776144283334 4.040829503782792 15.647932602319235 1 0 -7
51 2 15.577522370553648 2.282571647764216 16.15686476133897 -1 0 -1
573 2 15.339860937626527 4.054863807296719 14.405372656104225 1 2 -2
49 1 15.689106719493267 3.2572718031189027 15.996674704151681 -1 0 -1
11 2 13.793649636147313 0.35436371618818285 16.758591488594046 2 -1 3
10 1 14.781995466270782 0.5468207198826679 16.684160668001223 2 -1 3
12 2 15.097201209044835 0.2917555607297266 17.61999339666674 2 -1 3
352 1 3.222482775292013 4.345353430861654 14.854616446624345 3 2 -2
354 2 2.234596320803238 4.37742769466158 14.911115345458622 3 2 -2
535 1 0.5279274487339796 4.410099376696359 15.55450173872529 2 0 -7
324 2 0.9969341302689076 4.659836734143172 17.193250378349802 2 5 2
537 2 0.5022460703250138 5.29783105791969 15.294135078761256 2 0 -7
120 2 3.517463172153399 8.033757749915546 14.11064998643186 -2 1 -2
398 2 1.237589156111512 7.691355570046409 14.490529241428098 1 -4 -4
397 1 0.646430446065199 6.910668918351994 14.44002369555248 1 -4 -4
118 1 2.8442674678208535 8.73678615142453 14.09013428362996 -2 1 -2
177 2 4.148056474861686 5.957628186812119 14.757191198934388 0 -1 4
176 2 5.016017480658523 6.555181630706603 13.65401117221825 0 -1 4
312 2 5.463580501177122 5.6343137042251685 17.90468326924368 -4 2 2
31 1 8.848730969263261 8.388334439007329 13.854116748002241 2 -1 2
175 1 4.794626723682749 6.625677336980304 14.617097247039096 0 -1 4
32 2 8.438592999775683 7.565472380659846 14.295288419182357 2 -1 2
209 2 7.948485606369952 6.105252282594149 15.925616897026385 -3 -4 0
210 2 6.667896727372868 6.196741024114616 15.036140662214615 -3 -4 0
208 1 7.651637206652301 6.190386130935871 14.995558221213129 -3 -4 0
439 1 10.812707397774505 5.533475725685719 17.404221468625853 -7 5 0
5 2 11.740640000145218 5.525896146608566 14.657717801228369 3 2 3
441 2 10.109424452593872 6.2339021749798595 17.453970998245005 -7 5 0
317 2 12.507159260894579 7.137181929359084 15.296307389302747 3 0 -3
425 2 9.189168655893114 8.342852517750414 17.635588143484064 -8 0 -3
6 2 13.175537791422203 5.036632604954009 14.200105958275833 3 2 3
318 2 12.7723751327429 7.758078484191489 16.702237547623895 3 0 -3
4 1 12.669590542056335 5.534976412502694 14.845121731774968 3 2 3
316 1 12.444128405760566 7.995155217136632 15.817726909119354 3 0 -3
440 2 10.406714224234168 4.822182936611816 16.831707078472533 -7 5 0
220 1 14.290947236642369 4.807410781453311 17.88230043797253 9 -3 -5
399 2 17.44188201995432 7.107674216272156 14.091454960495968 0 -4 -4
571 1 14.942224997875591 4.432209830143896 13.605402931003296 1 2 -2
221 2 13.452458181458981 4.727851252975639 17.460304639612385 9 -3 -5
20 2 0.5376085720405664 12.240179502083512 2.3227506908898063 5 0 0
56 2 3.6229084558642857 8.850665632057458 0.684291000275976 2 0 -5
258 2 0.6014174943078906 9.262953936534227 3.5121615079254673 7 2 1
19 1 1.0194913008980084 13.0565720116637 2.1412770052341004 5 0 0
487 1 7.04993077683225 11.981492927956733 2.13062482503459 1 -2 4
489 2 7.882436559281662 12.192990958716912 1.6245766146664926 1 -2 4
498 2 6.612940062925435 10.64074991933938 1.4737057204030954 -7 5 0
496 1 6.67839649644413 9.659846799126525 1.125267613111917 -7 5 0
497 2 5.72384714560273 9.328459684885667 1.1596448824471766 -7 5 0
234 2 5.8218419663058105 9.258238545583966 4.548760498200362 7 -3 1
488 2 6.585065865858742 12.725366482424127 2.486354144618216 1 -2 4
376 1 7.147433984732209 8.951465452563422 3.7626386733935293 2 0 3
378 2 6.958267767573752 9.457767120329729 2.975342820625096 2 0 3
494 2 11.763547789541308 10.399683213666163 2.009194844820629 7 -3 1
493 1 11.724406633251201 10.147841074123694 2.9895162895176703 7 -3 1
495 2 11.325824151673226 10.907889427199592 3.4525077913001145 7 -3 1
332 2 10.04764368662546 12.669422146049419 4.238755043711016 -2 -1 -7
434 2 10.125972043063337 12.665544492838112 0.7091004090415834 5 -4 -3
355 1 11.354456255163845 11.277637784805195 0.570089031556805 -7 -2 -2
433 1 9.18412618360783 12.973706939068732 0.8577431455761757 5 -4 -3
180 2 17.630574947032514 9.981860737555039 1.6668345827278628 -2 -6 -1
576 2 14.317937362817327 12.070097999582647 1.1708126421750262 -5 5 7
178 1 17.590625590504448 10.417059893444323 2.579190032132291 -2 -6 -1
179 2 16.596463427869075 10.600938650457687 2.7111881883832276 -2 -6 -1
303 2 13.897886311937622 10.201191021614617 2.810101301288158 -1 -3 3
301 1 14.662498779661517 9.699679175630775 2.473411635637776 -1 -3 3
302 2 14.522219073031764 8.773280582151083 2.6383286135897817 -1 -3 3
574 1 14.13470708968958 11.40864229259567 0.43086682904220014 -5 5 7
575 2 14.465156069791064 10.546195705610097 0.683665059674748 -5 5 7
237 2 2.2479810481964746 13.43322296968816 0.8537644853817796 -1 -7 -1
246 2 1.9578428966263541 14.022370964466337 3.2452577636077677 2 -1 -4
422 2 2.40881372318697 16.46150779998618 3.124796510995551 4 0 6
244 1 2.2051931768090935 14.71246510939684 3.9021419552535357 2 -1 -4
421 1 2.7630857274024176 17.022804824460394 2.449417079555029 4 0 6
85 1 4.411650340511377 15.474853559197351 1.2157519660336575 1 5 5
86 2 3.8229138006390024 16.149061909943697 1.754363586595754 1 5 5
21 2 0.28145009549735334 13.785456265811252 2.047630637077397 5 0 0
245 2 1.3704264635420453 14.881166614021474 4.42895908594627 2 -1 -4
236 2 3.4903591199379536 14.281034206031844 0.4970880592330622 -1 -7 -1
87 2 4.87972787044663 14.958011711025165 1.919092807571772 1 5 5
271 1 5.606557917987894 14.082931287854553 3.2106804011465706 2 -5 1
272 2 6.233480996714364 14.779869135758567 3.5989579353184054 2 -5 1
44 2 7.717975780215167 16.19645418345579 3.2523615432314927 -4 -3 4
43 1 7.137823102538614 16.049296025342823 4.051829394131916 -4 -3 4
45 2 6.877827974760686 16.92814298034259 4.424313645247412 -4 -3 4
273 2 5.084610246698567 13.80942294869223 4.024609932342688 2 -5 1
161 2 8.526089603323694 16.630000685593437 1.1580503339878536 2 -1 -5
160 1 8.540484558242175 17.205758273095388 1.9087864877800802 2 -1 -5
279 2 9.142136640566529 13.93356274695486 2.4337777735188624 -1 -3 -3
278 2 10.411057660326168 14.556353246638485 2.8098319883733156 -1 -3 -3
277 1 9.62324496358318 14.155366883835145 3.2228688489560455 -1 -3 -3
166 1 12.296477019498422 15.22823315670676 2.1924938417292488 1 -2 -1
168 2 11.96980673532101 16.119198056963736 2.421152025814715 1 -2 -1
167 2 12.19886839603087 15.101515482540822 1.2563703003341935 1 -2 -1
22 1 11.1431375557687 17.423322221473732 2.8822205583566123 -1 1 -4
162 2 9.49558495173768 17.168914744619066 2.3300530897116567 2 -1 -5
24 2 10.999957929735778 17.232550312089217 3.8265528185616526 -1 1 -4
127 1 14.318500979481598 13.340582667348523 2.243507162924391 -1 6 -3
510 2 16.2989446301126 14.73145699540273 0.7192901662984299 2 2 4
128 2 13.60393070483647 13.966377081590883 2.2849255741457393 -1 6 -3
369 2 14.207202373777594 13.260504645584792 3.913127055066077 -3 -2 4
509 2 16.660047171358258 15.685844644774617 1.7799507362414382 2 2 4
129 2 15.102845038456547 13.861793375751592 2.2229980621175653 -1 6 -3
508 1 16.59296392756564 14.704667118256955 1.7167808594761647 2 2 4
124 1 15.731742182138895 17.432776079297035 1.5174010019884119 -1 6 0
199 1 0.4268917575099781 8.901695946821452 6.869279028966344 0 -2 -3
291 2 3.8735037901471303 12.212841513743212 6.118260301326037 -6 1 1
296 2 3.4164802904342686 12.78657833650259 8.097255167714282 -1 -7 1
290 2 3.9759414811091287 10.737751634673586 6.223739460792125 -6 1 1
289 1 3.9774166515761515 11.537058686624906 6.782400536322605 -6 1 1
201 2 1.3058706707654455 9.050733350484698 7.226087312209144 0 -2 -3
562 1 2.9015158647162864 8.89881149390696 7.8977287689262505 2 1 -1
563 2 3.401176874877889 9.70050660768869 8.046047304110527 2 1 -1
232 1 5.19541750649956 9.192824477328037 5.278187410210809 7 -3 1
103 1 6.30797296407662 12.460019794783253 9.032497956004503 1 1 -3
308 2 8.409008672065006 9.49274297596565 4.695177180931706 -3 0 -5
105 2 6.7189448586713185 12.075335372837626 8.260824079193517 1 1 -3
561 2 7.076696040542969 10.819916539551135 6.115673289798514 2 0 -4
560 2 5.774428317087338 11.556445131529564 6.563466618382276 2 0 -4
559 1 6.729693821861936 11.558692993645721 6.670629238016503 2 0 -4
307 1 8.821285405293724 9.887321905655607 5.476442311510777 -3 0 -5
270 2 8.870925945005254 9.328276319138979 7.004368333484244 -1 2 2
269 2 9.672860837087761 10.029059200366362 8.221365519954716 -1 2 2
515 2 10.047528677381186 12.079575262536375 8.797595620163898 4 -3 0
268 1 9.113456925512931 9.196301766943034 7.931777892609265 -1 2 2
331 1 10.416897355347798 11.866791414904446 4.717466456756506 -2 -1 -7
333 2 11.104845666086355 12.139952096428383 5.335839371321328 -2 -1 -7
309 2 9.363015418638257 10.64907064537574 5.188969414816193 -3 0 -5
181 1 12.430588747623421 12.366358884332383 6.45664160156673 0 2 4
183 2 12.99728151936814 12.975129720364636 5.889937501439042 0 2 4
182 2 11.911329488782725 13.009438458813435 7.046794890729859 0 2 4
185 2 13.383466467590864 11.026457700113864 6.8922888062976515 -1 4 -1
184 1 13.815915833679957 10.284562651861124 7.3339916867124195 -1 4 -1
41 2 17.001914226445844 10.232080183610082 7.250610903577243 -1 -10 -2
40 1 16.454219379256283 10.983975961676563 7.5008014282276445 -1 -10 -2
42 2 15.519967821866068 10.709251622548575 7.736948500323561 -1 -10 -2
218 2 16.244647303432416 12.269899741398499 6.537847156471517 -3 -2 2
186 2 13.48325190764601 10.265993465171201 8.250540806112102 -1 4 -1
295 1 3.1304152669738166 13.369162882471185 8.805750645242911 -1 -7 1
243 2 3.341354636120518 14.249104853529822 4.948155087111646 4 5 3
452 2 2.394086104462082 14.922639972217295 8.151150443732368 -3 0 -3
241 1 4.042797076293254 13.707962683778147 5.457799233948613 4 5 3
453 2 2.911317869404549 16.1467397553094 7.547525907549894 -3 0 -3
451 1 2.0360921681336364 15.717178465453765 7.721026175662923 -3 0 -3
84 2 0.8177557534890469 15.392634626357319 6.475049863511881 -1 -2 4
82 1 0.23863076146262027 15.168057355743562 5.704108297532002 -1 -2 4
242 2 4.399310244560961 14.330508564719604 6.1271254926657 4 5 3
528 2 6.514404880683144 14.304196308507214 8.627642947876742 -2 1 -2
538 1 4.672096256082261 16.01396723811162 6.845892357294396 6 -2 8
540 2 4.76840719177768 16.899308497176307 6.558261052594734 6 -2 8
53 2 8.430905115720144 13.830126555502451 5.705974459674931 2 0 2
54 2 7.775274146016504 15.158497100116461 5.224222350350649 2 0 2
539 2 5.28705579247796 15.871628624624176 7.6204677753017025 6 -2 8
526 1 6.645243473676317 15.13687947405062 8.09824541281361 -2 1 -2
527 2 7.178678258396846 14.87152459601859 7.325802495063761 -2 1 -2
52 1 8.386594962286091 14.749154354912688 5.879753921851734 2 0 2
482 2 7.329694494252892 16.7161253184372 8.402449091679246 0 -2 -4
36 2 10.742901791365727 13.918480130956127 9.082626764448758 0 3 -3
66 2 10.155659234136088 16.018804527100134 5.434294265710234 0 -3 4
64 1 10.618547556844286 16.86290814055675 5.433785861548759 0 -3 4
34 1 10.44191097745708 13.851248530544563 8.112656442012845 0 3 -3
47 2 12.449259957904427 16.33950850227508 5.3868946425523205 2 -1 -3
35 2 9.810208409776966 14.613532822638541 8.039109935786453 0 3 -3
65 2 10.061557353825636 17.484736472508263 5.9759665263928055 0 -3 4
263 2 12.899697972229843 16.99815367176872 9.091904123216016 -3 0 0
219 2 15.434856366110248 13.258179306118318 5.659089190795078 -3 -2 2
46 1 13.412873176367562 16.24766714689336 5.360127877381474 2 -1 -3
379 1 15.284527080265562 14.389517119654291 8.506030682614377 0 1 -1
80 2 14.7040987357714 15.796591526790655 8.17903904135586 2 6 -1
381 2 14.798813225395138 13.691342568997381 8.988878792980701 0 1 -1
83 2 17.415659794579604 14.326321617105723 6.025632788826518 -2 -2 4
380 2 15.691775340104723 13.971640997014518 7.7115241926848395 0 1 -1
217 1 16.2016563640153 13.24682366573067 6.305879527715674 -3 -2 2
81 2 15.001354111991986 17.211249848373534 7.884678293115319 2 6 -1
195 2 17.276717411597634 16.647185133118718 5.306251155367855 -3 4 -2
48 2 13.737792900717833 16.57132626988166 6.198331404316003 2 -1 -3
367 1 14.096218089597532 13.558472998290542 4.828035252175893 -3 -2 4
368 2 14.000985566004838 14.53504929674925 4.766739426744426 -3 -2 4
79 1 14.243713846991984 16.61995396561502 7.94284144690559 2 6 -1
384 2 4.389750136623224 10.464121528115118 11.350228574027865 1 0 1
383 2 3.991759748029225 11.570105135365186 12.403361303095002 1 0 1
382 1 4.20458108802564 10.608068852585717 12.334102154467011 1 0 1
114 2 1.27479072778728 10.767999764932572 11.176068597332847 -4 -4 -6
112 1 1.2198698114004234 10.023566513525784 11.813682062497868 -4 -4 -6