LAMMPS data file via write_data, version 8 Apr 2021, timestep = 1713000

1008 atoms
2 atom types

0.21944116869825867 18.180113831299458 xlo xhi
0.1149008282133776 22.455488171786495 ylo yhi
0.20299664224252198 19.302719357753745 zlo zhi
0.24304994762896406 -6.940501632016635 0.03256685026300062 xy xz yz

Masses

1 16
2 2

Atoms # atomic

1 1 6.665135743493397 1.2947730417514405 4.676909874733172 0 0 0
3 2 6.833837216632539 1.5934676847335605 3.7445365015982848 0 0 0
4 1 3.936379269577018 1.0523510817533621 4.999704525662098 0 0 0
5 2 4.838576195483766 0.9773184636949184 4.70358169820696 0 0 0
6 2 3.9395851747301904 1.6655611821354412 5.770338774515996 0 0 0
7 1 -0.1902762706813869 6.294085900826544 5.159848067732147 0 0 0
8 2 -0.07557629370206373 6.022025437619611 6.08746010961572 0 0 0
10 1 2.34189266324686 6.552953345855841 4.526963874197073 0 0 0
11 2 1.3764931898709067 6.711044794588642 4.748859935322749 0 0 0
12 2 2.836847280610356 7.308725214967305 4.925005249919213 0 0 0
18 2 5.965455062182643 5.168134681502135 0.8410861096865054 0 0 0
21 2 1.2061475488970035 2.367153975343075 1.3148143459090877 0 0 0
25 1 4.856909102934726 6.3108013351734575 7.101577425160409 0 0 0
26 2 5.375425688444104 7.076219141615955 7.478179975462366 0 0 0
27 2 3.9402851129698226 6.654400131101784 7.14874099873644 0 0 0
28 1 6.1821440252587365 6.351962682692431 2.2641801833821105 0 0 0
29 2 6.135225427671359 5.991317070749675 3.1446410232830333 0 0 0
30 2 5.40955531231603 6.970539375573518 2.1151357378693754 0 0 0
31 1 1.4143871355707187 1.2532790611680433 3.0472947291106363 0 0 0
33 2 1.3205206204920379 1.6249567135674747 3.8960352668953826 0 0 0
34 1 0.13634729349295724 1.4398368826837709 7.908695142458249 0 0 0
36 2 0.1822142700973084 2.1478270739796765 8.568497356485166 0 0 0
37 1 6.550323746364521 2.6744981204615703 2.2084338097086094 0 0 0
38 2 5.6139707322588555 2.907535195630971 2.334492423566401 0 0 0
39 2 7.084863244999982 3.437871777513309 2.4996158781832736 0 0 0
40 1 4.291176768422154 2.8035291808089196 7.259505472096315 0 0 0
41 2 5.200662284175349 3.1352543720738657 7.186445745154402 0 0 0
42 2 3.712334502057671 3.458411571278751 6.817940140479121 0 0 0
43 1 -0.11090733107568054 5.051666151471169 7.584592693330772 0 0 0
44 2 -0.8225315816140488 4.353726220706351 7.6221806229458835 0 0 0
45 2 -0.20714530510874987 5.513888668514328 8.385276860566227 0 0 0
46 1 2.167995953671917 4.658197177151567 2.373556501242147 0 0 0
47 2 1.358665931958814 4.228203416945724 2.753809039528415 0 0 0
48 2 2.410503461465677 5.409054067432937 2.8713009422366658 0 0 0
49 1 6.810837309389363 3.5694899532811974 6.392351470954667 0 0 0
50 2 6.440472373464767 4.1527491340529235 5.692388293023025 0 0 0
51 2 6.878978060840543 2.729383087887002 5.880589821543766 0 0 0
52 1 4.2383201194550235 3.4489035863771944 3.2596089004828515 0 0 0
53 2 3.3544518463085864 3.7389280033640535 2.922845856676885 0 0 0
54 2 4.0633273373257195 2.63978949195709 3.7987762691736604 0 0 0
57 2 -0.2374652386637818 3.6362709457603826 4.212897270463977 0 0 0
58 1 2.385976430054367 4.573619607388381 6.260724869085235 0 0 0
59 2 2.5025966280072125 5.3572102255335 5.6763541896282055 0 0 0
60 2 1.8207960268694743 4.7923015064685925 7.023947019067595 0 0 0
61 1 8.587335177148468 7.099482228482062 1.4053229853789848 0 0 0
62 2 7.795702164582265 6.881870343073315 1.8669739254227375 0 0 0
64 1 2.2499650732427283 7.132295247967616 8.098840317276691 0 0 0
65 2 1.4620708479922813 7.685018430773636 7.8795010091526025 0 0 0
66 2 2.7234731633252336 7.827055418260773 8.639705477039438 0 0 0
72 2 4.1004201614522975 1.0826074372549659 1.0199385810120445 0 0 0
73 1 5.528786958340747 5.3905176475905145 4.636608519517741 0 0 0
74 2 5.0861249454202 5.893647754596205 5.342426081821186 0 0 0
75 2 4.910967532331128 4.779940434573488 4.14729370770068 0 0 0
76 1 0.8659210460960993 2.6349133641215596 5.4769517021089404 0 0 0
77 2 0.43443229888409496 2.2161579480431497 6.24392774674343 0 0 0
78 2 1.4759928865158742 3.401634004031755 5.814311319339102 0 0 0
91 1 8.211565649389307 6.7355439690917 5.37259699205515 0 0 0
92 2 7.91968122094993 5.933501189945167 4.944643897378259 0 0 0
93 2 9.157790295985482 6.943146436027417 5.0486029461028465 0 0 0
94 1 10.962341229409152 6.495080126123642 4.71155027783057 0 0 0
95 2 11.485267812882578 7.343063165801772 4.631418786492515 0 0 0
96 2 11.314768609658143 5.882481562703713 5.401304319854192 0 0 0
115 1 10.578170095039964 0.966395557604304 2.2527870401384544 0 0 0
116 2 10.286471885545975 1.5672457380309703 1.5186450056717273 0 0 0
118 1 9.250769964560323 1.6153942553695044 7.1876782063780515 0 0 0
119 2 9.235129751507904 2.2198967659544495 7.924695640285074 0 0 0
120 2 9.59895283285886 2.0928287630978755 6.373554589517087 0 0 0
127 1 8.918500214974927 4.890086348134182 7.448613393820955 0 0 0
128 2 8.238595253218008 4.25396387086417 7.035896652224036 0 0 0
129 2 8.70813603782434 5.7490947765432585 6.940281490262532 0 0 0
130 1 11.011447045220025 5.006685761138235 2.4675795355662418 0 0 0
131 2 11.671576227588991 4.29587361465864 2.6755900548178198 0 0 0
132 2 11.045780471705031 5.605407992628879 3.2285184387521317 0 0 0
139 1 8.439578917016826 4.35590622572968 3.4614231967591786 0 0 0
140 2 9.25446476530604 4.5966062794679905 2.913855484364028 0 0 0
141 2 8.743039678196297 3.5713188352316 3.925479976073945 0 0 0
142 1 11.3348214558458 4.339728531799257 6.154943314486089 0 0 0
144 2 10.53088031528441 4.581937792443007 6.6321321773224975 0 0 0
148 1 11.112674852449299 6.924492913961783 8.027168087235676 0 0 0
149 2 10.86705546680809 6.105007086495784 8.459711210025514 0 0 0
153 2 6.179040730264022 1.2630990693406843 8.399578194302968 0 0 0
155 2 13.279993962305914 1.031422200260722 1.2695539894008643 0 0 0
160 1 9.932757245953807 2.496132333348914 4.666587547873186 0 0 0
161 2 10.637590247218592 3.1272207183151792 4.827395539547338 0 0 0
162 2 10.235170307179317 1.7470823435628997 4.104986837772639 0 0 0
169 1 6.670577310476034 8.675288290649261 4.622908275613839 0 0 0
170 2 7.320332462888536 7.878483190794216 4.787847340122609 0 0 0
171 2 6.806591322525743 9.367566238885516 5.294586549170128 0 0 0
172 1 4.0425535995239 8.947294031917396 4.978324693051779 0 0 0
173 2 4.104516231895645 9.709097887425354 4.363751218634856 0 0 0
174 2 5.001444067853764 8.602079065750805 4.859646178149279 0 0 0
192 2 0.8205553831098206 10.177208762009156 9.205815254338608 0 0 0
199 1 1.533530975590834 8.707510478562023 2.771200249738445 0 0 0
200 2 1.3132073453956177 9.243449352389069 2.006129114213766 0 0 0
201 2 1.179227628861898 7.846249611837357 2.637862848980925 0 0 0
202 1 0.2906021888819509 9.195410809013776 7.830581553133205 0 0 0
203 2 -0.6142461836129577 8.86871927220938 7.837844706181639 0 0 0
204 2 0.40017679791417793 9.554954190575195 6.939278558051588 0 0 0
205 1 6.463464640579767 10.259006251637695 2.4240181683903446 0 0 0
206 2 6.518198891970853 9.55456674139165 3.084383392707057 0 0 0
207 2 6.65256176849953 9.897054943413945 1.5274370498421619 0 0 0
208 1 4.29115187240483 10.478302996953554 7.252424612748937 0 0 0
210 2 4.152656402399154 9.764412130307198 6.520339549711119 0 0 0
238 1 4.3112645974800206 8.276818143499716 1.881576077473351 0 0 0
239 2 3.4625028725549023 8.327956657198836 2.4300101180330866 0 0 0
240 2 4.170060860481846 8.928895794015569 1.1921586646139493 0 0 0
244 1 0.786223724360007 9.888787445088338 5.138552731797188 0 0 0
245 2 1.210164502780291 9.35434371842442 4.439963538912171 0 0 0
276 2 9.449172680070854 9.703358609892517 8.94324105879911 0 0 0
283 1 10.645423542608173 8.449655418165344 2.851497426044969 0 0 0
284 2 10.272811240874695 8.947204927725831 3.59557671561784 0 0 0
285 2 9.94602360822762 7.811963175227489 2.5212773094952863 0 0 0
286 1 9.128846691374072 8.904058738241678 7.196673253620734 0 0 0
287 2 9.802230955712018 8.182726037680423 7.0862870826577575 0 0 0
288 2 8.319767188840789 8.490992438757162 7.521505632029107 0 0 0
319 1 6.552232044931953 7.970591131061699 8.09934373940061 0 0 0
321 2 6.957924552187785 7.381092553921758 8.79295553504719 0 0 0
322 1 13.344852730663067 7.805559992435514 1.7467529777694313 0 0 0
323 2 12.538145173477757 8.090554240547416 2.2413791150296283 0 0 0
324 2 12.78681341366781 7.3334683010371915 1.094720765212709 0 0 0
328 1 9.643357295145446 10.10302100246873 4.890833412428385 0 0 0
329 2 9.194600568788283 9.888312318906141 5.786362818663115 0 0 0
330 2 9.075138652677314 10.807875390469558 4.452928354554529 0 0 0
89 2 12.726681089382225 1.918305477614442 4.630942391700299 0 0 0
136 1 12.796522675087967 3.279979185361984 3.6314240149405417 0 0 0
63 2 8.640516615476853 6.220856553860675 0.9515886554299358 0 0 0
258 2 12.880849917126447 9.081456589173397 4.314623060664421 0 0 0
143 2 11.858491390050457 3.974159898523544 6.879459355014584 0 0 0
88 1 12.855843665863631 1.267524504708282 5.367540158976333 0 0 0
137 2 13.244155164413074 3.9385808445505415 4.2165496048175735 0 0 0
150 2 11.430057723134661 7.4869294763936844 8.748181963062741 0 0 0
32 2 2.242790512777671 0.7552942818513599 3.0895226059820597 0 0 0
272 2 10.52452692343437 9.629792383970868 1.506098250893265 0 0 0
671 2 8.296135534512542 5.520891610043023 9.106194986589385 0 0 0
80 2 6.81817790523622 2.0849352202027225 0.8260074721863543 0 0 0
246 2 1.3914225487005247 10.540149880315333 5.50026350642138 0 0 0
35 2 -0.7330432151504065 1.0307077999216154 7.862294846331216 0 0 0
248 2 7.516172260672853 8.354798674569114 0.6545016268942064 0 0 0
585 2 3.99943206198447 1.9288112750954134 9.044800737352196 0 0 0
320 2 6.460903833761468 8.845249566252216 8.603949258631808 0 0 0
304 1 12.991774251071073 10.514116850160605 3.4146171163182744 0 0 0
14 2 4.775459704710601 5.509845534855054 8.692646310117027 0 0 0
256 1 12.876617954325615 8.620052577575764 5.1952050732180455 0 0 0
138 2 13.596016998775278 3.016305002698442 3.14386848786354 0 0 0
306 2 13.700713205539682 10.536222360321892 2.7245604489589472 0 0 0
99 2 12.988565712991196 4.661486683843319 9.603886778601042 0 0 0
83 2 2.3899667475609343 5.559361851280644 0.8337892395577509 0 0 0
68 2 -2.709437138685782 1.5017136939823408 8.732071795952768 0 0 0
103 1 10.341198989342493 2.8160491100888416 0.450005817712374 0 0 0
152 2 7.262194389397996 0.8270308788993399 7.395842015124857 0 0 0
273 2 11.231646730433695 10.44210298719643 0.5731572731774548 0 0 1
56 2 -0.5340520315757734 5.1110621957974125 3.945880081437801 0 0 0
219 2 6.033294812467358 10.95798014576708 6.869578471898067 0 0 0
187 1 1.136631708817534 10.191515974002018 0.28252212851585795 0 0 0
151 1 6.56863189480499 0.4764704660833926 7.977218749723719 0 0 0
217 1 6.778436908516114 11.047445825700668 6.3132284882317755 0 0 0
55 1 -0.3189468978712481 4.243694911958309 3.448568548606474 0 0 0
15 2 3.7094973355909877 5.044179120428335 9.693967356852207 0 0 0
156 2 12.287550620034903 0.16036535552125059 2.146782567780215 0 0 0
753 2 3.947013787375592 9.725692961022007 8.700732627416988 0 0 0
117 2 9.76099739306665 0.30823257513420677 2.208032610377526 0 0 0
528 2 3.214229675822634 2.8037364780696334 0.34715141827971685 0 0 0
220 1 4.173175691538758 11.19572380817186 3.1726008098539924 0 0 0
777 2 6.18587275380062 11.071112914990984 9.679620494205725 0 0 0
221 2 4.9622835042894105 10.870184201451552 2.692179751862739 0 0 0
154 1 13.195708430176948 0.21676136057425804 1.811503497044359 0 0 0
2 2 7.233193270969405 0.5400415785288254 4.966437368874259 0 0 0
126 2 12.984731634702879 2.2605322333135165 6.982718714379621 0 0 0
101 2 14.825772399979824 5.096264952501386 1.0398708061931277 0 0 0
113 2 14.420188048911074 6.605857057311524 2.097861542993516 0 0 0
111 2 12.726440933502138 6.454153448746996 7.197196783807471 0 0 0
257 2 13.836824891198447 8.44242236028492 5.36299479889696 0 0 0
90 2 13.741108087612844 0.8959574916122517 5.1054099304167915 0 0 0
292 1 13.084017812703367 10.1004018859088 7.507187293002693 0 0 0
294 2 12.923048989893456 9.568399131978246 6.712012619811713 0 0 0
124 1 13.07929119176136 3.018859453382611 7.6117820472919195 0 0 0
668 2 12.461662651146813 1.9457583289933438 9.030009557973964 0 0 0
158 2 14.897999111582807 5.817767862329128 4.347327622865138 0 0 0
159 2 14.130166302421841 5.880804229814973 5.646550648630847 0 0 0
157 1 14.403331971207907 5.256730629053365 4.93952101084586 0 0 0
112 1 15.219986623230563 6.131776837311609 2.462439671371895 0 0 0
109 1 13.64306928944548 6.253937830449108 7.222920474163074 0 0 0
289 1 15.572842766658951 9.779370716917137 2.8956532479864365 0 0 0
291 2 15.930560844593433 9.38107030282575 2.0433785085752088 0 0 0
836 2 13.065926318026936 9.21763445718731 8.809515603268693 0 0 0
121 1 15.139978888002462 2.718604058185939 2.7150448274703156 0 0 0
123 2 15.547860079530624 2.4041216644760945 1.8896981057754771 0 0 0
125 2 13.96654403350982 3.392501689487822 7.440817846218396 0 0 0
167 2 11.433736298887354 5.6988316687633525 0.9060818527853342 0 0 0
102 2 14.274217452327155 3.7958822974910165 0.2507014597765321 0 0 0
401 2 1.435621660937731 0.34823136317992887 8.24637429484904 0 0 0
67 1 -2.5246379191403387 0.7358445559902485 8.142568641354853 0 0 0
87 2 15.948713281244258 1.388001164037493 4.24492473051355 0 0 0
70 1 3.7694714962752887 0.3808663602232563 1.6304526991269257 0 0 0
106 1 8.8562534192443 3.0282696722806732 9.731994675415102 0 0 0
19 1 1.262748615391417 2.5114535652035093 0.33078561486754166 0 0 0
780 2 13.305074386623586 9.459436386711294 0.6663481113385898 0 0 0
165 2 16.64176079576081 0.8477736330379959 0.7877755052764805 0 0 0
302 2 14.823288792992509 10.447607632971524 7.026923415687948 0 0 0
236 2 -2.7268315744886715 8.846659767326177 8.78377689641851 0 0 0
235 1 -2.4059664102211897 8.157067945923048 8.247342740696157 0 0 0
521 2 2.0631940577918986 5.8529156577346955 9.470346402964772 0 0 0
305 2 12.240979792809398 11.129340241971219 3.2145138445898005 0 0 0
108 2 7.8970148342453905 3.231048683389222 9.706125206035862 0 0 0
604 1 11.184457678313684 4.806877327299644 9.65706585211853 0 0 0
751 1 3.591943945778423 9.152445060353063 9.39557426660135 0 0 0
584 2 2.956808185648076 0.8720328558299708 9.288190348385475 0 0 0
587 2 -1.418153032200401 7.010222885960054 9.378315088445078 0 0 0
271 1 10.356812401443792 10.33597073156691 0.8345537171166245 0 0 0
311 2 10.773867830074941 11.28003033421447 5.666963657782922 0 0 0
293 2 12.43415572747213 10.855406439750956 7.438512023043188 0 0 0
209 2 3.5641149613492473 11.111017545183794 7.049057081599147 0 0 0
163 1 16.08564288383924 1.5799139991897562 0.4325817472222937 0 0 0
145 1 -0.3111703611189326 6.935455718817609 1.86799014660387 1 0 0
255 2 15.610808766538225 8.913001717897332 4.319303529209402 0 0 0
301 1 15.721497328470742 10.725184980010926 6.674853118195942 0 0 0
612 2 11.96028436163547 2.849416342698044 0.2471599916197502 0 0 0
399 2 7.902488554619937 0.4576821094802262 1.0596379269319796 0 0 0
86 2 16.300176526066465 0.2727848001335288 5.196851306067857 0 0 0
85 1 15.666476102195245 1.0368749915158695 5.090889466609277 0 0 0
69 2 14.602090326497361 0.3926189012313371 7.82553456475757 0 0 0
135 2 15.7634232881582 2.684307972885286 6.2525164071020525 0 0 0
133 1 15.500599124037285 3.510079292140937 6.680421280772109 0 0 0
835 1 12.71796792145351 8.633175410097369 9.533635163541023 0 0 0
237 2 14.79083925283558 7.567893731652208 7.962988179664575 0 0 0
253 1 15.67284849724453 8.34248481776109 5.180151475816103 0 0 0
147 2 17.54038411064646 7.6611450651218505 1.186778705734199 0 0 0
13 1 4.647167064119559 5.170874281457367 9.61220688028313 0 0 0
114 2 16.07640883223699 6.590335162338606 2.2784080628404664 0 0 0
134 2 15.163588903191755 4.152046533268977 5.952920535944102 0 0 0
122 2 15.742396814889087 3.398668438022391 3.101495321962991 0 0 0
254 2 15.786299117133867 9.044212763062493 5.8847671829703145 0 0 0
9 2 -0.8107948974605643 7.084106662426786 5.21278577655343 0 0 0
290 2 16.20893281957629 10.549125945174184 2.9216865481163206 0 0 0
776 2 7.627710704247525 10.465460114675277 9.589429702148243 0 0 0
97 1 13.930047265876233 4.934066647129758 9.495802803928317 0 0 0
146 2 17.704213569809134 6.135177644620448 1.3068797006268564 0 0 0
110 2 13.824084686896219 5.617455278781786 7.95973227124498 0 0 0
84 2 3.2356873813095324 6.9143196191203895 0.8377687907993107 0 0 0
606 2 10.486078683946975 4.126808677293459 9.509024615259781 0 0 0
82 1 2.8801222180026915 6.159778283210689 0.24188055828727895 0 0 1
486 2 11.413886966391745 0.24357278560794152 8.57093061418526 0 0 0
224 2 -0.06044188107191931 10.986655012953012 4.046625910737644 0 0 0
104 2 9.831584055275782 3.650208985623368 0.5220537362270408 0 0 1
670 1 7.912955638127644 6.241024847041472 9.691927311265143 0 0 0
667 1 12.131554418718908 1.3079807957315654 9.722307279505246 0 0 0
166 1 11.813197388861674 6.280281937588854 0.20493974481466307 0 0 1
331 1 16.247485820017182 8.971399150260227 0.5364894480049212 0 0 0
711 2 2.108205800195569 10.371578608517456 12.448162386184597 0 0 0
247 1 -0.06467938220129502 8.948012725886718 19.273301067169722 0 0 -1
523 1 -2.380107087013903 2.9204968646805347 10.016382114102086 0 0 0
724 1 0.4932584250100104 10.891005965627636 13.292742503426798 0 0 0
98 2 13.944378690039274 5.510392043028965 10.274977065512292 0 0 0
986 2 13.466964939152744 0.4713576823626946 10.580058833701514 0 0 0
656 2 2.3310352919502817 0.6423476026480637 17.25818918586055 0 1 0
809 2 10.173390059556327 10.796164760662823 12.395506068926387 0 0 0
906 2 -2.3814235120204064 0.2299031782492036 17.680909721616015 0 0 0
728 2 -3.7708306807063368 11.010777885801083 13.54961543287755 0 0 0
602 2 9.832007852767457 4.555924164924958 18.732893198748837 0 0 -1
537 2 -1.2452424108410018 0.9782405466743753 12.337434424450635 0 0 0
188 2 -5.986228265869536 9.504745893774443 18.75536558893245 0 0 0
527 2 -3.158054907417861 2.2232445322598884 18.21840566263448 0 0 0
79 1 0.1596777454425921 1.4454279799774867 19.198708489255456 0 0 0
752 2 3.1586982195469075 9.695932592652577 10.07381191938945 0 0 0
164 2 8.475486798537869 1.0320960145136484 19.138929006156513 0 0 0
17 2 -1.7266100177314252 4.115921125111029 18.94985683916737 0 0 -1
505 1 2.879767098978658 1.3218679958209314 14.128675277812151 0 0 0
506 2 3.1995972070073355 1.979900640778136 14.725289385339961 0 0 0
990 2 7.048867199844286 0.2041601462261371 17.316305104701254 0 1 0
508 1 0.08000938758254411 1.645630966855722 14.491863235910213 0 0 0
775 1 6.72386688491842 10.240110223746049 9.84338400987171 0 0 0
510 2 1.015721159683347 1.6555874002172868 14.280559249585275 0 0 0
511 1 -4.308879292625562 6.529905578648158 14.575271719313186 0 0 0
512 2 -4.3376731497405805 5.680011478059898 14.005112466408102 0 0 0
513 2 -4.062760185730636 6.0649583435841095 15.40882093468035 0 0 0
514 1 -1.6713578823174304 6.53705173615381 14.291900377356992 0 0 0
515 2 -1.564656053420098 5.732206560067058 14.823398564355141 0 0 0
516 2 -2.6625824513530127 6.887542351111382 14.41919549947822 0 0 0
518 2 0.8928384259525431 4.4449292014385415 19.226556089237114 0 0 -1
519 2 1.6179457059412046 5.293161589462513 18.250753398248005 0 0 0
828 2 8.589403313290406 8.01876338289114 11.859206903992774 0 0 0
522 2 2.136790025025036 5.795237719038881 11.013718725181585 0 0 0
274 1 9.519557012332145 10.115568091080576 9.81310648314865 0 0 0
694 1 -3.085256802459546 10.62890458911033 19.03714688648923 0 0 0
620 2 6.3010279410026095 0.5254286178891534 11.967412934987996 0 0 0
903 2 4.542149614373559 0.17931631388226837 10.554961389830973 0 0 0
23 2 0.7669683680224851 4.02294724867253 9.965237714995748 0 0 0
529 1 0.8698871463378929 6.620856303737582 17.11956217842228 0 0 0
530 2 0.9423269010257712 6.18794646165234 16.236080047111916 0 0 0
531 2 -0.0632271441844772 6.591658677986849 17.334361286708482 0 0 0
532 1 2.474008482990132 6.682006033955227 12.389471580305127 0 0 0
533 2 3.3473399609514103 7.145354144192967 12.32603591394976 0 0 0
534 2 2.3712323429902065 6.201131647235376 13.255304263527822 0 0 0
535 1 -2.1762674388403918 1.3445026729709255 12.241758269074355 0 0 0
812 2 4.250094893355154 11.163998659756398 12.443162223269477 0 0 0
332 2 9.76606818208009 9.431217985452722 18.896349258111123 0 0 0
538 1 -3.4028743673924953 1.2049361717587739 16.928101210744 0 0 0
714 2 1.4698274939167486 10.283304008247885 16.54377848108061 0 0 0
540 2 -3.233264709276333 1.544338624606204 16.016538527371253 0 0 0
541 1 2.8700835641898834 2.8639401955099197 12.045605259804345 0 0 0
542 2 3.012145690346098 2.2140387946345617 12.811052643922272 0 0 0
543 2 2.8581981046647202 2.4118004577954504 11.181610888139552 0 0 0
544 1 0.9780193558812562 2.82314172478705 17.09184141789742 0 0 0
545 2 0.8638431518003631 2.1731670743721843 17.800030760993177 0 0 0
546 2 0.5804063501406552 2.362746127930863 16.308677921537 0 0 0
547 1 -3.805760234790018 5.134388283112878 16.80541726494713 0 0 0
548 2 -4.511337251959349 4.532993012132825 16.72495979319665 0 0 0
549 2 -3.7799513778584357 5.547447643811661 17.689470625621432 0 0 0
550 1 -1.8740364995484016 5.027876908584723 12.047016670987615 0 0 0
551 2 -1.0741044298853781 4.424079616675432 12.14759610097065 0 0 0
552 2 -1.871559074407576 5.605744787022119 12.829469761751156 0 0 0
553 1 3.1881815937932 3.5448011202374765 15.739548487759565 0 0 0
554 2 2.450184994797519 3.353401423055531 16.34788118357168 0 0 0
555 2 3.9833229267478654 3.925307869934396 16.27715744647538 0 0 0
556 1 0.23623699427621275 3.482875376861067 12.702320176780972 0 0 0
557 2 1.1374863040151908 3.2365393492077077 12.438167822445388 0 0 0
558 2 0.055371696548168314 2.9091277009023027 13.412868344263979 0 0 0
559 1 -4.2041590103217725 4.138775399528245 13.113057963472256 0 0 0
560 2 -3.4963595436501747 4.387477919733479 12.446422871058001 0 0 0
561 2 -3.8423973959661124 3.4655356525694603 13.738849897947842 0 0 0
562 1 -1.3939365689703536 4.313616664302839 15.760411158536408 0 0 0
563 2 -0.6473051583744416 4.2048244618443205 16.424363761885726 0 0 0
564 2 -2.226337585686262 4.260500450208031 16.308024031108168 0 0 0
565 1 4.891949955089718 7.332678827538939 11.18246087877487 0 0 0
566 2 4.770769848904411 8.071930287096492 10.532479055615713 0 0 0
567 2 5.036593555389245 6.557402176642521 10.598325726188616 0 0 0
568 1 -1.6326942918488396 7.057463337878163 17.916006070492404 0 0 0
569 2 -1.566561413577611 6.152106042535356 18.125621424448923 0 0 0
570 2 -1.455709577250678 7.603873203499266 18.72402048484124 0 0 0
81 2 -0.6845888769646209 0.9420908366898657 18.916237757053356 0 0 0
572 2 -5.806150577355667 0.9495798032979135 18.655424155979432 0 0 0
827 2 10.103965397641401 7.32803698549271 11.851928172654713 0 0 0
539 2 -4.348765028096683 0.9314670076036158 16.880313082607177 0 0 0
576 2 0.336599102272906 1.5814945892465375 10.699453717109376 0 0 0
577 1 1.497399543014136 5.411013844830507 14.567092753740154 0 0 0
578 2 0.8865261324109508 4.838295806764891 14.052350983342025 0 0 0
579 2 2.2260422674956386 4.8857523669342635 14.95433271187125 0 0 0
580 1 -2.7440024010157824 2.2546874826028485 14.58029475595681 0 0 0
581 2 -2.597110929152035 1.8637088787796077 13.687401509739395 0 0 0
582 2 -1.9864183320245439 2.787330827551701 14.858165116218169 0 0 0
655 1 3.0940678184246733 0.6913660021822328 17.88214364478646 0 0 0
808 1 9.391398231008743 10.928215800326486 13.035485188316903 0 0 0
589 1 11.62000132131991 0.9663497647425394 14.923392845364887 0 0 0
834 2 5.603188144191876 10.57352086843061 14.209439329744297 0 0 0
591 2 11.64365068418215 1.6556371512619528 15.574890397888202 0 0 0
592 1 8.922976021196202 1.371566484669193 14.573976090549177 0 0 0
826 1 9.495199173817975 7.941781308443817 11.401572267330737 0 0 0
594 2 8.936529325469627 1.9418141926834818 13.80990625320562 0 0 0
595 1 4.589177839336103 6.583097482344376 14.66618984821682 0 0 0
596 2 4.592795940130569 6.050582043547141 15.496743315976273 0 0 0
597 2 4.5135757548455535 5.868413031104584 14.050090076723421 0 0 0
598 1 7.469811868200092 6.418889143821449 14.45222086810553 0 0 0
599 2 6.54292164800312 6.587918589327568 14.438204280232789 0 0 0
600 2 7.587162635447938 6.0044357856841355 13.593343258157171 0 0 0
16 1 -0.9679637313035572 4.795756037875904 19.02286409123164 0 0 -1
749 2 -2.12923443882014 10.42479046341574 15.192198715357675 0 0 0
574 1 0.368874514527223 0.695684947493004 11.1095284880157 0 0 0
605 2 11.090733031157823 5.129895865759419 10.584815793949202 0 0 0
832 1 6.246150314345784 9.890282758430214 14.62515826717475 0 0 0
601 1 10.73593929923748 4.88702207358662 18.733233764474043 0 0 0
825 2 2.7329636643883872 8.726065392485372 18.659125350898503 0 0 0
609 2 6.135416355099195 2.6447758844038756 10.69881398505834 0 0 0
526 1 -2.9097003115577924 2.733356011693022 19.02078884342156 0 0 0
611 2 6.035763762867022 2.422455057257834 18.236724644126262 0 0 0
613 1 10.299728123307684 6.457871355247719 16.532618517941618 0 0 0
614 2 10.976152443109985 7.116152278643522 16.405536559686 0 0 0
615 2 9.60357384772705 6.90861310866618 16.989516802689884 0 0 0
616 1 11.263957988092846 6.145358207380846 12.135306659845853 0 0 0
617 2 11.201562292934938 5.82001234727168 13.078521870644355 0 0 0
618 2 12.108687534139067 6.570516979210473 12.011108416572078 0 0 0
619 1 6.676681562752024 1.3785753800633394 12.173971366262231 0 0 0
588 2 -1.340428149900626 5.994836527006543 10.52488377730491 0 0 0
621 2 7.656043152800951 1.2528661632936289 12.017345082477657 0 0 0
622 1 5.640648090158333 1.2551085930232544 16.943106703835905 0 0 0
623 2 4.6873138098102105 1.1813876564887924 17.16572940599353 0 0 0
624 2 5.668346265581018 1.6677157387199733 16.029300718454582 0 0 0
625 1 11.648651135937063 2.6684076372889263 12.027245698183105 0 0 0
626 2 11.395823489892502 1.9657496496839237 12.676639506065966 0 0 0
627 2 12.190631736401826 3.353081337416858 12.432162856814864 0 0 0
628 1 9.430352717471301 2.8314216807002985 17.07127067595434 0 0 0
629 2 9.344825401189448 2.428988727754114 17.967084834760747 0 0 0
630 2 9.293246151166572 2.178077402012466 16.340268226025206 0 0 0
631 1 5.208224272674163 4.835546867217605 16.89810163417748 0 0 0
632 2 5.1376906712027335 5.126536751684628 17.844208372753446 0 0 0
633 2 6.142864536993259 4.439473471831385 16.748988421969578 0 0 0
634 1 7.193209976984794 5.187655403260506 12.101381195427278 0 0 0
635 2 6.2429554519958534 4.89528363569003 12.244427037196678 0 0 0
636 2 7.461311043661904 5.512506921452562 11.157530338436871 0 0 0
637 1 12.108864120820636 3.4956428815186698 16.290086929442296 0 0 0
638 2 11.643786188805976 4.0342494578539485 15.624430075105561 0 0 0
639 2 11.409562044709318 3.1741356000493806 16.862294014818005 0 0 0
640 1 9.173675567085345 3.6196418252287974 12.888965990774983 0 0 0
641 2 8.399810770325718 4.0699842452403 12.415760744654841 0 0 0
642 2 9.810478207810673 3.3329757350990143 12.223134655698031 0 0 0
643 1 4.761482255419181 4.503570393466834 12.748903660646011 0 0 0
644 2 4.124312457696021 4.03977165250414 12.175129340492107 0 0 0
645 2 5.074491498228396 3.8550799477946445 13.479700708367991 0 0 0
646 1 7.47611235175229 4.0617865813316785 15.784492562888278 0 0 0
647 2 8.222439512254628 3.8157021950720367 16.34640473732167 0 0 0
648 2 7.698379586754618 4.9884101848099185 15.484756452421232 0 0 0
649 1 13.72509114856548 6.931484697830762 11.279207415410685 0 0 0
650 2 13.488320158626287 7.680321523494073 10.617560313842919 0 0 0
651 2 -3.5460933491341833 7.334123031665963 11.874815475610655 0 0 0
652 1 7.888275767921961 6.967688680300521 18.053689778154382 0 0 0
653 2 7.090915361985307 7.132698098167849 17.524645872504376 0 0 0
654 2 7.84060497927932 6.112390249264151 18.469470759386624 0 0 0
249 2 0.2605224730290358 9.254676105090862 18.360635061720956 0 0 0
536 2 -2.7378160021254048 0.65266602193251 11.863348425614777 0 0 0
661 1 10.686689255904659 4.944965041537543 14.46137459344341 0 0 0
662 2 10.25869385124059 5.601299688205102 15.01339474789808 0 0 0
663 2 10.039795635704102 4.514043222776142 13.83997169764864 0 0 0
664 1 5.880712984382093 2.6281130441282774 14.555911481420814 0 0 0
665 2 6.609654794360835 3.0825833009263666 15.020833857128569 0 0 0
666 2 6.268777909887205 2.18788200185575 13.767574520508582 0 0 0
571 1 -5.664903219780338 0.177508261258785 18.059422113854264 0 0 0
669 2 11.850854420180406 1.9178851927010778 10.494864423225431 0 0 0
590 2 10.685890110504063 0.6827130788113651 14.80583922864949 0 0 0
673 1 2.9455813856475164 8.862708999168426 14.441941459681807 0 0 0
674 2 3.6601565111021594 8.131404950371389 14.650988736956293 0 0 0
675 2 3.2027839715712316 9.670519916985903 14.96378770971895 0 0 0
676 1 0.10077587248875657 8.516242408713596 14.706205241729387 0 0 0
677 2 1.1057534057109208 8.396359480062236 14.629133615396377 0 0 0
678 2 -0.41950029261965793 7.670469987461605 14.559110692236557 0 0 0
525 2 -2.543616686076042 2.371303973099431 10.812554785729324 0 0 0
797 2 10.48284608057575 10.493941454778678 16.847897887271067 0 0 0
190 1 0.8773705100424555 10.717095044521264 10.046668158197814 0 0 0
807 2 12.463597097938894 10.255804599365423 15.446920913233713 0 0 0
695 2 -2.9498293562910436 10.001669649975648 18.266292175225846 0 0 0
658 1 9.06764937835756 0.4740987905313833 11.154403804259477 0 0 0
703 1 -2.21424189714284 8.728777529134199 12.28779632699731 0 0 0
704 2 -2.096239946321383 9.511477175941005 11.71751383174371 0 0 0
705 2 -1.3665762592204609 8.332126871592079 12.372597598544084 0 0 0
706 1 -3.364189413431891 8.769305414862334 17.06008455436308 0 0 0
707 2 -3.3557967954621075 9.181035083776505 16.20161597158811 0 0 0
708 2 -2.7537354747792135 8.039827771735458 17.255593193115672 0 0 0
709 1 2.9593215804930697 10.091417929243123 12.090489157305418 0 0 0
710 2 3.3208943228810477 9.443169354331607 12.720252695379266 0 0 0
691 1 -1.866587017189235 10.368247840775174 10.089664972277886 0 0 0
712 1 0.587966222749995 9.921152082036356 16.82006488912539 0 0 0
713 2 0.1749090824605446 9.483193444802609 16.03707846947487 0 0 0
275 2 9.569176886000024 9.365162726167986 10.439385450538195 0 0 0