LAMMPS data file via write_data, version 15 Apr 2020, timestep = 500000

1008 atoms
2 atom types

1.0926400420175497e-01 1.8374135995794571e+01 xlo xhi
1.9803155449419130e-01 2.2219168445505701e+01 ylo yhi
2.2188002388495498e-01 1.9168301976109902e+01 zlo zhi
4.8390900237966654e-02 -6.7698841093534501e+00 -6.3594757210672249e-03 xy xz yz

Masses

1 16
2 2

Atoms # atomic

1 1 1.4980339292724716e+00 4.5005006475010925e+00 2.4741602166089094e+00 0 0 0
2 2 2.1725523849674979e+00 5.1512795970972043e+00 2.8655505483480166e+00 0 0 0
3 2 1.2905221305657093e+00 3.8087041790695286e+00 3.1553964508339036e+00 0 0 0
4 1 2.8727381215811869e+00 6.2780488607371243e+00 3.9313593918123639e+00 0 0 0
5 2 3.6253140353532318e+00 6.0640318055043751e+00 4.4998297557004490e+00 0 0 0
6 2 3.1411407392601371e+00 7.0671282842352054e+00 3.3454331054102417e+00 0 0 0
7 1 -8.6378592246084046e-02 6.2857688417222448e+00 1.4238170613891727e+00 0 0 0
8 2 1.7460900327600623e+01 5.8044655269398717e+00 9.9527760526139974e-01 0 0 0
9 2 4.6719313600960177e-01 5.5394980467885038e+00 1.8381331612294061e+00 0 0 0
10 1 9.5154100262819741e-01 3.1277436004169679e+00 4.6115643388257341e+00 0 0 0
11 2 1.1808979413713452e+00 3.7111391421687530e+00 5.3892664092483633e+00 0 0 0
12 2 7.0147473044525954e-02 2.7099797454713932e+00 4.8380092132378278e+00 0 0 0
13 1 -4.4740568470652331e+00 3.1774543194605318e+00 1.9056570761364725e+01 0 0 -1
14 2 2.1517974811029212e+00 3.5580980810520599e+00 1.0064104616146676e+00 0 0 0
15 2 -3.5259765484030017e+00 3.0449871423791564e+00 1.8977226129027159e+01 0 0 0
16 1 3.1372578360048582e+00 1.1560157058182385e+00 2.4544936338804995e+00 0 0 0
306 2 1.4269502768036734e+01 1.1014199030518164e+01 4.3992798980230239e+00 0 0 0
18 2 2.1353435611265281e+00 1.2996598537134727e+00 2.6143283805866813e+00 0 0 0
19 1 5.6860697355736400e-01 9.5723614435215343e-01 2.5294559734546174e+00 0 0 0
20 2 -1.1949408397081851e-01 1.6443317198517422e+00 2.5428427563087777e+00 0 0 0
799 1 1.0247072564976820e+01 1.0554012178002921e+01 1.6855620755875826e+01 0 0 0
179 2 6.0787349731309992e-01 1.1143564163095062e+01 5.7181031723505837e+00 0 0 0
24 2 -5.5651252039416743e-01 1.0317151586850442e+00 6.4914788278819602e+00 0 0 0
25 1 -1.3787480019650398e+00 2.2986275184053548e+00 5.7360401687648919e+00 0 0 0
26 2 1.6049006194534826e+01 1.8153930869392902e+00 5.5732690223352366e+00 0 0 0
27 2 -1.6212053701528153e+00 3.0335733735467483e+00 6.3891806919772698e+00 0 0 0
28 1 1.0430028191223362e+00 2.2584122201893262e+00 8.5718170220436587e+00 0 0 0
29 2 1.8200522865031306e+00 2.1290371968017667e+00 9.2105420274046459e+00 0 0 0
30 2 9.8141738907149234e-01 1.4210257818397247e+00 8.0602406696228641e+00 0 0 0
31 1 3.6543569891721717e-01 6.7894730682915343e+00 4.9944222200417814e+00 0 0 0
32 2 1.3532218043605801e+00 6.6839006935727809e+00 4.8096684415270392e+00 0 0 0
33 2 -1.4493837912747320e-01 7.3883612349435737e+00 4.4253143289690833e+00 0 0 0
34 1 -7.9461489679060682e-01 6.6166500334563585e+00 9.6981384614436923e+00 0 0 0
35 2 -1.6855037311784091e+00 6.3245381889534027e+00 9.9454257331698042e+00 0 0 0
36 2 -8.7176701171371906e-01 7.1158035425513742e+00 8.8174039157094697e+00 0 0 0
37 1 -1.8845452246090548e+00 4.4155294889905417e+00 7.4433043745090961e+00 0 0 0
38 2 -9.3496499285760137e-01 4.6481206716074963e+00 7.2532737526886750e+00 0 0 0
39 2 -1.8436050079797570e+00 4.0776248324134130e+00 8.4036508114273829e+00 0 0 0
40 1 9.9853643930281155e-01 4.6868024745715768e+00 7.1474907796798437e+00 0 0 0
41 2 1.7987227417620266e+00 5.3096042739402121e+00 7.1888312987224392e+00 0 0 0
42 2 1.1016206481358677e+00 3.8793825629905010e+00 7.7276352766580398e+00 0 0 0
43 1 4.4515165065671560e+00 2.8945049209059888e+00 7.2322849268969795e+00 0 0 0
44 2 4.7089116739941375e+00 3.4959329647375266e+00 6.5457794440865733e+00 0 0 0
45 2 3.7211129162158483e+00 2.4472219214505948e+00 6.7727686589617324e+00 0 0 0
46 1 2.8807005939449422e+00 1.4982584736526425e+00 5.8456752343673273e+00 0 0 0
47 2 2.6257825089445039e+00 5.8038110989708858e-01 6.2136682025079972e+00 0 0 0
48 2 2.2953940656954739e+00 1.8246990639400598e+00 5.1604452687279920e+00 0 0 0
49 1 5.7869496242023164e+00 1.2474008845687443e+00 8.9566657961594593e+00 0 0 0
50 2 5.6279452325373711e+00 1.9855562217970515e+00 8.2580442781363850e+00 0 0 0
51 2 6.5035228396712368e+00 1.6525887375894717e+00 9.5619349113161878e+00 0 0 0
52 1 5.0738864173039797e+00 5.1003982639023011e+00 5.0395757574645712e+00 0 0 0
53 2 6.0173387486987719e+00 5.4187805902803650e+00 4.9400587580031825e+00 0 0 0
54 2 4.8513016545995580e+00 4.5076819341219698e+00 4.3006189276884914e+00 0 0 0
55 1 4.0069684134533805e+00 4.4698386161918648e+00 9.3150483632135792e+00 0 0 0
56 2 3.1699108294079803e+00 4.9456564121145661e+00 9.4867899289342681e+00 0 0 0
57 2 3.9745147133173004e+00 4.0387122377364815e+00 8.4823391739449914e+00 0 0 0
58 1 2.9512814290911269e+00 6.5902217450654810e+00 7.2804809275078766e+00 0 0 0
59 2 3.9520862453881715e+00 6.5971761241564995e+00 7.2348477022682784e+00 0 0 0
60 2 2.8890261579423320e+00 7.0029971318978408e+00 8.2014466457827986e+00 0 0 0
61 1 5.8248750911242153e+00 6.9309477591299649e+00 7.0255002119630303e+00 0 0 0
62 2 5.9156116448697169e+00 7.6921798621193602e+00 7.6659840618070607e+00 0 0 0
63 2 6.3925353786787724e+00 6.1820771397673733e+00 7.4485675301230874e+00 0 0 0
64 1 6.3450709665912317e+00 7.2024447804453606e+00 2.7879909614157579e+00 0 0 0
65 2 7.0338464360544517e+00 6.6502361257202303e+00 3.1988448778796483e+00 0 0 0
66 2 6.0590234768224924e+00 7.8103578155278388e+00 3.5665278758082724e+00 0 0 0
67 1 7.7441501249239035e+00 5.4682537913574869e+00 4.1572016126638909e+00 0 0 0
68 2 7.9631642597058150e+00 4.7162189884538943e+00 3.5568115202406569e+00 0 0 0
69 2 8.5226257278196407e+00 5.9263985558346084e+00 4.5042726367355295e+00 0 0 0
70 1 4.8471390927275664e+00 5.5693841274331115e+00 1.3496881892873192e+00 0 0 0
71 2 5.3011263518226768e+00 6.1933106631200348e+00 1.9705343656992342e+00 0 0 0
72 2 4.2588096770658384e+00 6.0927163511649427e+00 7.6468035504769805e-01 0 0 0
210 2 1.1153808842726618e+00 1.1022391037852390e+01 7.8403512421044796e+00 0 0 0
101 2 1.2459245553341418e+01 4.9772257723561053e-01 1.6320311086729786e+00 0 0 0
75 2 4.5126090137233499e+00 8.8346161770499598e-01 5.0228304555747467e+00 0 0 0
76 1 6.8210756408236017e+00 9.7152126565333241e-01 3.3553290939672853e-01 0 0 0
521 2 4.8522150800076602e-03 4.6179999972768543e-01 1.0882425826336059e+01 0 0 0
78 2 9.3557395031431501e-01 1.3148593182469106e+00 1.9076904163171989e+01 0 0 0
79 1 7.6359688918362725e+00 3.2028814257438190e+00 2.6906357888323744e+00 0 0 0
80 2 7.3750305292976472e+00 3.5599344080745725e+00 1.8199649124793245e+00 0 0 0
81 2 6.7152080753278893e+00 3.0487104896282431e+00 3.1118198471383582e+00 0 0 0
82 1 4.7082110770191203e+00 3.3655168858211915e+00 2.9484181081396486e+00 0 0 0
83 2 4.6627268950204206e+00 4.0023092307462900e+00 2.1753357811073766e+00 0 0 0
84 2 4.1636963902624915e+00 2.5270089712491290e+00 2.7465628379629639e+00 0 0 0
85 1 1.0502486039045282e+01 4.2041565539777768e+00 2.6999887035167633e+00 0 0 0
86 2 1.1239972409985068e+01 4.6485182203257356e+00 3.1677692513935134e+00 0 0 0
87 2 9.9512788014995319e+00 3.7608092383984864e+00 3.3841406084449663e+00 0 0 0
88 1 1.2085957563491826e+01 5.8385632682628090e+00 4.0063066834653842e+00 0 0 0
89 2 1.2948610733164584e+01 5.4041993810404705e+00 4.4259420868152199e+00 0 0 0
90 2 1.2512814811636298e+01 6.5592206414990457e+00 3.5585506963237057e+00 0 0 0
91 1 9.3127598735844010e+00 6.0724138255346993e+00 1.2605074043656159e+00 0 0 0
92 2 8.6081794496788326e+00 5.6381580471398465e+00 7.0250214061229754e-01 0 0 0
93 2 9.6342926607540971e+00 5.2813513490429562e+00 1.8365171251817081e+00 0 0 0
94 1 9.9482078541542052e+00 2.9020240936793282e+00 4.9516535832318427e+00 0 0 0
95 2 9.9671618681566319e+00 3.6161271678374183e+00 5.6260556748479766e+00 0 0 0
96 2 9.0548477071483227e+00 2.6481351495096965e+00 5.1191645870261251e+00 0 0 0
97 1 4.3100632148788245e+00 3.4590229800166368e+00 1.9085837808437617e+01 0 0 -1
98 2 1.0981460614535656e+01 3.6745222556302144e+00 1.0963705711874723e+00 0 0 0
99 2 5.2543518168006269e+00 3.3102945217637458e+00 1.9013334976686316e+01 0 0 0
100 1 1.2427544790306596e+01 1.0486264445420508e+00 2.4579213478720652e+00 0 0 0
207 2 -2.0462039102011196e+00 1.1156386752728858e+01 8.1938257868888620e+00 0 0 0
102 2 1.1483250060112608e+01 1.2356864884061285e+00 2.5356807721351893e+00 0 0 0
103 1 9.3911234327719821e+00 1.0850270945390554e+00 2.9744220001371042e+00 0 0 0
104 2 8.6339218998980769e+00 1.7592173769573516e+00 2.9584720447715043e+00 0 0 0
131 2 1.1963849248047627e+01 8.8798796170793282e-01 6.3514272453511804e+00 0 0 0
665 2 1.2186761802313665e+01 8.7362928177520938e-01 1.0655462984082281e+01 0 0 0
108 2 8.0062612128422028e+00 1.3148403780797964e+00 6.5291791670234156e+00 0 0 0
109 1 7.4587740954689599e+00 2.4323507269938176e+00 5.5482851090102949e+00 0 0 0
110 2 6.6563927690706963e+00 2.0644263781713441e+00 5.0844252924418312e+00 0 0 0
111 2 7.1635954302081002e+00 3.2187248718908035e+00 6.0197728083390301e+00 0 0 0
112 1 1.0140487660237319e+01 2.3740673387908520e+00 8.7025596517954895e+00 0 0 0
113 2 1.1004114603076717e+01 2.0509893915694128e+00 8.9887298320165510e+00 0 0 0
114 2 9.9237130535926319e+00 1.8363874947595646e+00 7.9139543169859001e+00 0 0 0
115 1 9.7118127669296399e+00 7.1110165521973663e+00 5.0684029763952037e+00 0 0 0
116 2 1.0495674956131662e+01 6.5559472599480246e+00 4.8944809267207523e+00 0 0 0
117 2 9.7660250686406815e+00 7.7297961774895105e+00 4.3223277243159188e+00 0 0 0
118 1 8.4592698534773660e+00 7.1487307913374680e+00 9.6722493850863156e+00 0 0 0
119 2 7.5865432311199550e+00 6.8651336312746158e+00 9.9938433113664811e+00 0 0 0
120 2 8.4846521609090715e+00 7.6254396479400715e+00 8.7655093963109039e+00 0 0 0
121 1 7.3633389745507465e+00 4.3852594932794275e+00 7.3831519803847341e+00 0 0 0
122 2 8.3970414229814025e+00 4.5026867903710288e+00 7.2988799503073736e+00 0 0 0
123 2 7.2499623221793250e+00 3.9766037368607243e+00 8.3251268758704171e+00 0 0 0
124 1 1.0060441593829104e+01 4.4765439956160877e+00 7.0293601969846771e+00 0 0 0
125 2 1.0630069727878759e+01 5.2905795310417130e+00 7.1069801793442862e+00 0 0 0
126 2 1.0368660895753694e+01 3.8281738727896872e+00 7.6499267206395931e+00 0 0 0
127 1 1.3241424796785466e+01 3.2444203582183522e+00 7.3955469944244632e+00 0 0 0
128 2 1.3762050174088728e+01 3.7772457209044674e+00 6.7869565170905437e+00 0 0 0
129 2 1.2731044249799991e+01 2.5736013883222317e+00 6.8822909330935076e+00 0 0 0
130 1 1.2222753221905894e+01 1.5948630400638864e+00 5.7367954903936926e+00 0 0 0
662 2 1.1210154574862900e+01 2.8771273737614816e-01 1.4863857201972079e+01 0 0 0
132 2 1.1324910417461940e+01 1.9753524346326636e+00 5.5065938558203484e+00 0 0 0
133 1 1.4730986233800083e+01 1.3938152659395964e+00 8.6393389024847220e+00 0 0 0
134 2 1.4293533195041753e+01 2.1301674177428893e+00 8.1094027762908389e+00 0 0 0
135 2 -2.8279908933131961e+00 1.9306909487726740e+00 8.9443372457385362e+00 0 0 0
136 1 1.4074948377444901e+01 4.4241391174862388e+00 5.1204736214729492e+00 0 0 0
137 2 1.5034074069551924e+01 4.6717350599192988e+00 5.1810851620985954e+00 0 0 0
138 2 1.4043364668825181e+01 3.8564246954299439e+00 4.3199643893242810e+00 0 0 0
139 1 1.2909550844538877e+01 4.7976546615638673e+00 9.7849905206474066e+00 0 0 0
140 2 1.2147491888532208e+01 5.4012012562071225e+00 9.7083756029594124e+00 0 0 0
141 2 1.3002953441311998e+01 4.2933752280182098e+00 8.9079495621739468e+00 0 0 0
142 1 1.1750245074462857e+01 6.6147261673425914e+00 7.4926248022091437e+00 0 0 0
143 2 1.2614088179545679e+01 6.3501146530078909e+00 7.1920996001034139e+00 0 0 0
144 2 1.1756057993666904e+01 7.0012305416750076e+00 8.4111123491349193e+00 0 0 0
145 1 1.4515001721423911e+01 6.5696563729500692e+00 7.3077644596227502e+00 0 0 0
146 2 1.4864025222001679e+01 7.1914484780103551e+00 7.9378221319053983e+00 0 0 0
147 2 1.5305367972620402e+01 5.9025242735858576e+00 7.2943005384218011e+00 0 0 0
148 1 1.5185179794840593e+01 6.9376532900774510e+00 2.8895786995631281e+00 0 0 0
149 2 1.5825878345745329e+01 6.3980006650640107e+00 3.3789264368661116e+00 0 0 0
150 2 1.4842288575273153e+01 7.5195429727882068e+00 3.5974675746329488e+00 0 0 0
151 1 1.6588296942067718e+01 5.2355209762808830e+00 4.4974500480468569e+00 0 0 0
152 2 1.6912664418727513e+01 4.4076036227782067e+00 4.1075603484634513e+00 0 0 0
153 2 -8.4980828802020958e-01 5.6440799632258614e+00 4.8525638921724399e+00 0 0 0
154 1 1.3967648125252182e+01 5.2071894372768277e+00 1.2053857346233898e+00 0 0 0
155 2 1.4309589021761358e+01 5.9435849909741520e+00 1.7478417378016471e+00 0 0 0
156 2 1.3205790404058632e+01 5.6359134609908557e+00 7.0783036927801724e-01 0 0 0
157 1 1.4782924666720332e+01 8.1154392757682636e-01 5.0839739045736856e+00 0 0 0
685 1 -1.3355740722699052e+00 1.0282037662665028e+01 9.6381569071439888e+00 0 0 0
159 2 1.3938662115898300e+01 1.2353971910178383e+00 4.9892514070623921e+00 0 0 0
160 1 9.0946668643007769e+00 1.0736846673971219e+00 1.8995733800476984e+01 0 0 -1
181 1 -4.6867759807187408e+00 1.0423070270981180e+01 1.9093074899584707e+01 0 0 -1
162 2 9.9139147145776363e+00 1.5335622002153886e+00 1.8774726617402450e+01 0 0 0
163 1 1.6662191402450571e+01 3.0503512540806867e+00 2.6020812927224748e+00 0 0 0
164 2 1.6667431778707659e+01 3.4836875942758070e+00 1.7269746094868439e+00 0 0 0
165 2 1.5729853285392924e+01 2.9253675800435559e+00 2.8041403606283000e+00 0 0 0
166 1 1.3982470613173756e+01 3.1142184249443359e+00 2.8268630343612853e+00 0 0 0
167 2 1.3895371387864223e+01 3.7224427604190002e+00 2.0676391617039078e+00 0 0 0
168 2 1.3315351992874536e+01 2.3897493322130492e+00 2.6492257562210337e+00 0 0 0
73 1 5.3693587396626175e+00 4.2568537893165598e-01 4.9067053979047452e+00 0 0 0
178 1 4.7988787233317609e-01 1.0607635443789970e+01 4.8976351382424896e+00 0 0 0
105 2 9.2731056974035706e+00 5.5105124617443790e-01 2.1102519120003729e+00 0 0 0
180 2 -4.0293765601478237e-01 1.0212986586614731e+01 4.9028966548534871e+00 0 0 0
266 2 1.1339203065785879e+01 1.0821935141543680e+01 1.3346608796165280e+00 0 0 0
836 2 1.3299624228244106e+01 1.0879404904282209e+01 1.1243200231137081e+01 0 0 0
183 2 -3.8054043464595826e+00 1.0071927959782059e+01 1.9027903925069630e+01 0 0 0
184 1 3.0745436302855169e+00 8.3290638989808574e+00 2.3454073849081567e+00 0 0 0
185 2 2.8567114467690571e+00 7.9902877807418990e+00 1.4171195876543918e+00 0 0 0
186 2 2.2592840873990578e+00 8.7541835438793782e+00 2.6439332152476491e+00 0 0 0
187 1 3.2793064674909522e-01 8.4874375339283574e+00 2.7602485914893320e+00 0 0 0
188 2 -2.6846839048997578e-01 9.2218213997280465e+00 2.4243107635500589e+00 0 0 0
189 2 1.1382392360355953e-01 7.7011898816015352e+00 2.1893757112872794e+00 0 0 0
190 1 -5.3469900215743582e-01 7.8994309953286770e+00 7.3275602665511403e+00 0 0 0
191 2 -2.6862338144320219e-01 7.2438404877205187e+00 6.6404458024073740e+00 0 0 0
192 2 -1.1126875026180421e+00 8.5055354213202925e+00 6.8313799421232426e+00 0 0 0
193 1 -1.8549377465001118e+00 9.5725153108102017e+00 5.8855437088291334e+00 0 0 0
194 2 1.5611662318376275e+01 9.0494429321286027e+00 5.6984859043428910e+00 0 0 0
195 2 1.6175909546073662e+01 1.0494865439395090e+01 6.1564862290424118e+00 -1 0 0
196 1 1.0153103149318041e+00 9.5581681083220822e+00 8.8569130533922173e+00 0 0 0
197 2 1.7732054889789155e+00 9.1173145176275465e+00 9.3144411777250458e+00 0 0 0
198 2 5.5249927309784530e-01 8.9253909682085162e+00 8.3532810651527001e+00 0 0 0
605 2 9.0357881363782528e+00 4.7237047789012587e-01 1.0996281031632771e+01 0 0 0
213 2 3.4073679479737429e+00 1.0095210308088397e+01 6.4982863424773454e+00 0 0 0
214 1 2.5803641729119122e+00 8.9630427809790518e+00 5.8227040257336249e+00 0 0 0
215 2 2.5231560782902291e+00 8.0834103715054759e+00 6.2192578958530200e+00 0 0 0
216 2 1.6833004050921292e+00 9.2338049728606837e+00 5.4968349324770296e+00 0 0 0
217 1 5.4048452921947279e+00 9.1852541534590753e+00 8.5817786408139050e+00 0 0 0
218 2 4.8986191367792022e+00 9.7286161910804321e+00 8.0090490099341789e+00 0 0 0
219 2 6.0530276371690972e+00 9.7031550753095193e+00 9.1003875787104445e+00 0 0 0
241 1 5.3151021761679438e+00 8.5751588522999693e+00 4.8483767930839550e+00 0 0 0
242 2 5.4274394153362620e+00 7.9478530111508743e+00 5.5466137446401600e+00 0 0 0
243 2 4.3959612908550980e+00 8.8878087823875962e+00 4.8641132015932511e+00 0 0 0
244 1 6.9981039802090939e+00 8.2103011109995272e+00 3.4960055128647671e-01 0 0 0
245 2 6.9345054839943989e+00 7.9631167547576771e+00 1.2717162161764091e+00 0 0 0
246 2 7.9548030692498717e+00 8.3890346696386668e+00 2.4114926895061051e-01 0 0 1
247 1 8.0969999345526702e+00 1.0675242218961900e+01 2.4879307240138231e+00 0 0 0
161 2 1.5963579087193786e+01 6.0159777179363449e-01 8.6410262419700501e-01 0 0 0
249 2 7.2097766618454981e+00 1.0424386005969014e+01 2.6732504800696852e+00 0 0 0
250 1 4.8208244200572068e+00 1.0557376818810738e+01 2.5122771610589605e+00 0 0 0
830 2 1.1232915711636508e+01 7.7607097399854013e+00 1.4923442356359979e+01 0 0 0
252 2 4.2091172986871417e+00 9.7626934813039821e+00 2.4603085285317161e+00 0 0 0
832 1 1.2151624397226605e+01 8.2152047984545824e+00 9.7624028828290541e+00 0 0 0
262 1 1.0050526340823124e+01 1.0473656253007958e+01 4.9780969495255096e+00 0 0 0
829 1 1.1248422888131707e+01 8.5360156411185759e+00 1.4312704875308071e+01 0 0 0
264 2 9.1447530742303353e+00 1.0166542742608909e+01 5.0736682040670509e+00 0 0 0
265 1 1.1447610323451251e+01 1.0328201014811455e+01 4.9892181586871148e-01 0 0 0
714 2 -2.0261098058646954e+00 1.1165805548279584e+01 1.7335122824779326e+01 0 0 0
267 2 5.6126155322125486e+00 1.0276147310793812e+01 1.9061770693280145e+01 0 0 0
268 1 1.2577159195386830e+01 8.3108649607409344e+00 2.6291736989009529e+00 0 0 0
269 2 1.2490406821028586e+01 7.8014534275571599e+00 1.7843443484227506e+00 0 0 0
270 2 1.1565173777207836e+01 8.4372966231251407e+00 2.7274105122842638e+00 0 0 0
271 1 9.7836723642968586e+00 8.2964465789928550e+00 2.7933777697467610e+00 0 0 0
272 2 9.4050295524446792e+00 9.2056893714862635e+00 2.6278356252808530e+00 0 0 0
273 2 9.3626292386780694e+00 7.6160067534604092e+00 2.2375686609168333e+00 0 0 0
274 1 8.7973224375752164e+00 8.2255654954171522e+00 7.2964869370568159e+00 0 0 0
275 2 9.1050398077772137e+00 7.6877824559443004e+00 6.5281478343725068e+00 0 0 0
276 2 8.0555637367422808e+00 8.7496202873936681e+00 6.8405998187117483e+00 0 0 0
277 1 7.4251741377491527e+00 1.0081602977554411e+01 5.9249621803454646e+00 0 0 0
278 2 6.6118201224189495e+00 9.8154470665222160e+00 5.4839270318667417e+00 0 0 0
279 2 7.2972457656973866e+00 1.0908228054934195e+01 6.4939466893584896e+00 0 0 0
280 1 1.0101297222451761e+01 9.9329888125109917e+00 8.8827991784044773e+00 0 0 0
281 2 1.0867483264575181e+01 9.4614233426039505e+00 9.3047312967055529e+00 0 0 0
282 2 9.8381689092170497e+00 9.3504624719422154e+00 8.0811638091529403e+00 0 0 0
77 2 6.8267928162065985e+00 4.3356400429274378e-01 1.1670721409922034e+00 0 0 0
297 2 1.2897569101026432e+01 1.0157921350696787e+01 7.1373458356593034e+00 0 0 0
298 1 1.1999338365670102e+01 9.0589790853648591e+00 6.0313617358912683e+00 0 0 0
299 2 1.1719150734002133e+01 8.2354661349416016e+00 6.5660364335227976e+00 0 0 0
300 2 1.1305955972166338e+01 9.4034612548568681e+00 5.4580363824017839e+00 0 0 0
301 1 1.4646267197910710e+01 8.8940071720395402e+00 9.0943254109200478e+00 0 0 0
302 2 1.4239781361758313e+01 9.6710616187248526e+00 8.5774285738133198e+00 0 0 0
303 2 -2.8240665948626509e+00 9.2835586349964334e+00 9.4246741108083647e+00 0 0 0
325 1 1.4352856021126978e+01 8.1091144295763726e+00 5.1609961694655482e+00 0 0 0
326 2 1.4305362204131429e+01 7.4762784394756991e+00 5.9284786133959786e+00 0 0 0
327 2 1.3498743348327739e+01 8.5497843046746151e+00 5.2353081392295850e+00 0 0 0
328 1 1.5652613148341336e+01 8.0227633097811388e+00 3.8744596973894369e-01 0 0 0
329 2 1.5683330543051531e+01 7.5587893824735684e+00 1.2652676024580136e+00 0 0 0
330 2 1.6596570396124385e+01 8.1753595889605890e+00 2.4305136672525215e-01 0 0 1
331 1 1.6790190568249578e+01 1.0286301172461767e+01 2.4507602502249917e+00 0 0 0
783 2 3.9630410493473374e+00 1.0322336411318556e+01 1.5824153160575090e+01 0 0 0
333 2 1.5802835271310780e+01 1.0211831073945509e+01 2.5523266557981876e+00 0 0 0
334 1 1.4055405774092398e+01 1.0432449622739517e+01 2.7758461179937983e+00 0 0 0
990 2 1.1508449598305877e+01 3.7653514978495040e-01 1.2928956217416191e+01 0 0 0
336 2 1.3544072808317836e+01 9.5529827816440527e+00 2.6872520099088089e+00 0 0 0
664 1 1.2376233224199826e+01 1.2000551036941547e+00 9.7802912628862320e+00 0 0 0
835 1 1.3364487820513624e+01 1.0410387997542756e+01 1.2090306753364882e+01 0 0 0
505 1 -1.6438707471601433e+00 4.1290408959181342e+00 1.2007882373961257e+01 0 0 0
506 2 -1.0082614050106495e+00 4.7070658454630925e+00 1.2477565957928180e+01 0 0 0
507 2 -2.0376068714236411e+00 3.5231870679863406e+00 1.2629392660243264e+01 0 0 0
508 1 -1.5424227081374298e-01 6.0658504211432609e+00 1.3399042124439219e+01 0 0 0
509 2 6.8219111371523677e-01 5.8050421558743075e+00 1.3847790017449645e+01 0 0 0
510 2 -5.4718436127869197e-02 6.8038451953444286e+00 1.2737287676170221e+01 0 0 0
511 1 -3.1551291465782012e+00 5.9795320973439017e+00 1.0790229265393156e+01 0 0 0
512 2 1.4279815516152816e+01 5.6014694583690865e+00 1.0424216360308570e+01 0 0 0
513 2 -2.7352142630346394e+00 5.3555872847293271e+00 1.1397737167922983e+01 0 0 0
514 1 -2.4285728772511312e+00 2.8271494435247493e+00 1.4547654794083872e+01 0 0 0
515 2 -2.4762932698851148e+00 3.5620715826370395e+00 1.5144112677193078e+01 0 0 0
516 2 -3.3881469801681647e+00 2.6395475859885962e+00 1.4539921534600298e+01 0 0 0
517 1 -1.4581864989712869e+00 3.0511965584649441e+00 9.5808185398957519e+00 0 0 0
518 2 -1.3219120410981993e+00 3.3167841534621303e+00 1.0567605683863583e+01 0 0 0
519 2 -5.4950382022015853e-01 2.7846686994620065e+00 9.2918850619383591e+00 0 0 0
520 1 1.2215178953572448e-01 8.9878941368800425e-01 1.1770200422896306e+01 0 0 0
525 2 -3.1209650887366496e+00 4.5025617527015704e-01 1.1489076218204776e+01 0 0 0
522 2 -7.6061613689836083e-01 1.3626808916769144e+00 1.1874013274886297e+01 0 0 0
523 1 -2.8852204381287248e+00 1.1580278294536406e+00 1.2139828020165618e+01 0 0 0
524 2 -3.7273615534435107e+00 1.6359766014354995e+00 1.2281270547614804e+01 0 0 0
807 2 -5.8855092814746115e+00 8.9157270486593383e+00 1.8810418823323360e+01 0 0 0
182 2 1.9501257012585818e+00 1.0612033054332286e+01 1.0960016750658672e+00 0 0 0
528 2 -4.1255732039329231e+00 1.4915711669889757e+00 1.6187432691559906e+01 0 0 0
529 1 -5.0700689512679444e+00 2.6231380050391429e+00 1.5327093383439841e+01 0 0 0
530 2 1.2341320821171729e+01 2.1371286201227964e+00 1.5093877175304874e+01 0 0 0
531 2 -5.3045941302098010e+00 3.3579111303104185e+00 1.5824723339804466e+01 0 0 0
532 1 -2.0890933867197123e+00 2.5769859642260493e+00 1.8343578019000418e+01 0 0 0
533 2 -1.3997113364545033e+00 2.0417212057670726e+00 1.8881374471320868e+01 0 0 0
534 2 -2.3058118515616628e+00 1.9549987504133577e+00 1.7675628166589000e+01 0 0 0
535 1 -2.7211730110803010e+00 7.1535206592174880e+00 1.4469467487514960e+01 0 0 0
536 2 -1.8697413958348488e+00 6.7586753608048573e+00 1.4366260371335121e+01 0 0 0
537 2 -2.8946849574806279e+00 7.7455056517956207e+00 1.3669793746969569e+01 0 0 0
538 1 2.4247993214715620e+00 6.9510196038280370e+00 3.4512401831381967e-01 0 0 1
539 2 1.5760839318223907e+00 6.4735459461096285e+00 4.7505974298630566e-01 0 0 0
540 2 -4.3330446763458355e+00 7.1675741979531935e+00 1.8321395654337607e+01 0 0 0
541 1 -5.3690597879688982e+00 4.8738529143249378e+00 1.7206240563411029e+01 0 0 0
542 2 -4.4594416248055202e+00 4.9403444966115497e+00 1.6855900776427831e+01 0 0 0
543 2 -5.1507480185347685e+00 4.2769599716923761e+00 1.7967623628294099e+01 0 0 0
544 1 -2.4899622128015495e+00 4.6429370266954635e+00 1.6388796837471745e+01 0 0 0
545 2 -1.7654166080931799e+00 5.3768763677290448e+00 1.6456247717209607e+01 0 0 0
546 2 -2.1986560345505706e+00 4.0388449462066625e+00 1.7058221259271299e+01 0 0 0
547 1 8.5425319159071300e-01 3.4205775505905973e+00 1.6864597591071927e+01 0 0 0
548 2 1.0767031527986051e+00 3.7010988821068893e+00 1.5941962391899066e+01 0 0 0
549 2 2.3501781979692815e-01 2.6830748218230678e+00 1.6603938020907549e+01 0 0 0
550 1 -5.1449374782703039e-01 1.6025502141610779e+00 1.5464704434203988e+01 0 0 0
551 2 -6.6644764722437966e-01 7.7971281160424766e-01 1.5988232260270024e+01 0 0 0
552 2 -1.3488531362708560e+00 1.9242004773477599e+00 1.5123147558505684e+01 0 0 0
553 1 2.4180322702752450e+00 1.6697070769630746e+00 1.8286927785935021e+01 0 0 0
554 2 2.0654477441721726e+00 2.2140094972227011e+00 1.7521520458583694e+01 0 0 0
555 2 3.0645465011310344e+00 2.2855467739492084e+00 1.8665864993784567e+01 0 0 0
556 1 1.7227075610059712e+00 4.4305905762941205e+00 1.4355746318439419e+01 0 0 0
557 2 2.6858880182073754e+00 4.4349348171012153e+00 1.4547112739021557e+01 0 0 0
558 2 1.5510888468638200e+00 3.8129891240631650e+00 1.3677219847716916e+01 0 0 0
559 1 7.0617418253689443e+00 4.6078656968170586e+00 4.6737610263886764e-01 0 0 1
560 2 6.1116815553174373e+00 4.9529142302302089e+00 6.2286358436417621e-01 0 0 0
561 2 3.6237295366843103e-01 4.3123749506092572e+00 1.8493580129363892e+01 0 0 0
562 1 -6.1232438226898722e-01 6.5280191478070906e+00 1.7015330056758735e+01 0 0 0
563 2 2.8514306109001275e-01 6.2521526492148922e+00 1.6704893252824881e+01 0 0 0
564 2 -4.3478995417109356e-01 6.9689485562692708e+00 1.7915219021006578e+01 0 0 0
565 1 2.2080817653856544e+00 6.5525535499087662e+00 1.6621846294863786e+01 0 0 0
566 2 2.4173642657723864e+00 7.2401340747870551e+00 1.7283585011400888e+01 0 0 0
567 2 2.7138980038604155e+00 5.7299780625195780e+00 1.6789837927941385e+01 0 0 0
568 1 2.8283606322129913e+00 6.7259954650477036e+00 1.2290970951609593e+01 0 0 0
569 2 3.4348558309485737e+00 6.1509030161367040e+00 1.2894260549981720e+01 0 0 0
570 2 2.5259081120607938e+00 7.4431316667072061e+00 1.2897341239285861e+01 0 0 0
571 1 4.4448453572656028e+00 5.2169539891165195e+00 1.3849972376489884e+01 0 0 0
572 2 4.6292409229552405e+00 4.5141343249546368e+00 1.3205443937780258e+01 0 0 0
573 2 5.2664433022906287e+00 5.7671801196588479e+00 1.3890631892914556e+01 0 0 0
574 1 1.3484351072560172e+00 5.0895285872607205e+00 1.0698326848953741e+01 0 0 0
575 2 1.8151860130172719e+00 5.7581489011105358e+00 1.1273642951705085e+01 0 0 0
576 2 6.0966557945365318e-01 5.5086472214922519e+00 1.0235269616532966e+01 0 0 0
577 1 1.8724832405068996e+00 6.1062753376052825e-01 1.4506501324343217e+01 0 0 0
840 2 9.9389238854900590e+00 1.0083756370358914e+01 1.1962255846753708e+01 0 0 0
579 2 9.5166361787088061e-01 9.3910114998246808e-01 1.4472683132659162e+01 0 0 0
580 1 3.1782068459977024e+00 7.9144659231437964e-01 9.7106114621342510e+00 0 0 0
212 2 4.5533075659943503e+00 1.1164661728063487e+01 6.3924428923953744e+00 0 0 0
582 2 4.0484712130973843e+00 1.1835695361697383e+00 9.5856483976213607e+00 0 0 0
583 1 4.6521464674043811e+00 2.8768959825898306e+00 1.1575870832235196e+01 0 0 0
584 2 4.6266344868374505e+00 3.4637934109211064e+00 1.0771683268203224e+01 0 0 0
585 2 3.7036782453585939e+00 2.6686991238562374e+00 1.1688654231405925e+01 0 0 0
586 1 1.9371489056827631e+00 2.9537914044001718e+00 1.1946311415099888e+01 0 0 0
587 2 1.5103703159826853e+00 3.7337646456035518e+00 1.1529413878056328e+01 0 0 0
588 2 1.3006414627997520e+00 2.1824661965304148e+00 1.2001560155558174e+01 0 0 0
589 1 7.2435219917550269e+00 4.4350493741278854e+00 1.2021457907931248e+01 0 0 0
590 2 7.9084916262685407e+00 5.0866522074615199e+00 1.2397891111517749e+01 0 0 0
591 2 7.0218029257888448e+00 3.9797988565755298e+00 1.2851704902933493e+01 0 0 0
592 1 8.8323722485908451e+00 6.4163881500353943e+00 1.3388586585461246e+01 0 0 0
593 2 9.6439131284496504e+00 5.8877817372993535e+00 1.3739657716911468e+01 0 0 0
594 2 9.1194583999993739e+00 7.1222702333635430e+00 1.2774922008638335e+01 0 0 0
595 1 5.7894670837437854e+00 6.2727300745661783e+00 1.0482838582249036e+01 0 0 0
596 2 5.1628490049854099e+00 5.8232624891341738e+00 9.8868993795642144e+00 0 0 0
597 2 6.0760343191217387e+00 5.5501724762202969e+00 1.1045538837643852e+01 0 0 0
598 1 6.6341559214959069e+00 2.9445416728018716e+00 1.4212719545071806e+01 0 0 0
599 2 6.8888365553263924e+00 3.2521202527301751e+00 1.5076104042817944e+01 0 0 0
600 2 5.7508662547811085e+00 2.6020248645550104e+00 1.4403465307327259e+01 0 0 0
601 1 7.6251225408353207e+00 2.9789747964603173e+00 9.9803529868065937e+00 0 0 0
602 2 7.6518098234813809e+00 3.3907363141708582e+00 1.0876816092820846e+01 0 0 0
603 2 8.5492613297337137e+00 2.7704427992194551e+00 9.6901911315650686e+00 0 0 0
604 1 8.9910783564595036e+00 8.3596786588391581e-01 1.1909010310527732e+01 0 0 0
806 2 1.1247541213131143e+01 9.6510403390529813e+00 1.8067682206980635e+01 0 0 0
606 2 8.0359059075176980e+00 1.0485967607849913e+00 1.2021548054587173e+01 0 0 0
607 1 6.1387733452237789e+00 8.1536893216891126e-01 1.2053790328451827e+01 0 0 0
608 2 5.5616122805700297e+00 1.5190991475846318e+00 1.1829839106150732e+01 0 0 0
805 1 1.1502602917446904e+01 8.7768116695943732e+00 1.8431156547235332e+01 0 0 0
770 2 7.5227529133345126e+00 1.1046936221077738e+01 1.0646100554439856e+01 0 0 0
612 2 4.8031936556329367e+00 1.2239267317506233e+00 1.6089534210131102e+01 0 0 0
613 1 4.0338956038323461e+00 2.3287412693647562e+00 1.5065883978653876e+01 0 0 0
614 2 3.2019839782284736e+00 1.8202780856967831e+00 1.4921447742744906e+01 0 0 0
615 2 3.8682277026972596e+00 3.0117763437641263e+00 1.5716726432092964e+01 0 0 0
616 1 6.7545710583514982e+00 2.3868695578910342e+00 1.8264766573315491e+01 0 0 0
617 2 7.6880219036958870e+00 2.0506163023855670e+00 1.8453345413584621e+01 0 0 0
618 2 6.4282966292802231e+00 1.6572769665294897e+00 1.7670933540648342e+01 0 0 0
619 1 6.5017517903931337e+00 6.9634975444216627e+00 1.4375379450904255e+01 0 0 0
620 2 7.3993984250983065e+00 6.6010060509822734e+00 1.4154850442049074e+01 0 0 0