LAMMPS data file via write_data, version 15 Apr 2020, timestep = 200000

972 atoms
2 atom types

8.0487261649382802e-02 1.9910565738352588e+01 xlo xhi
1.6027766625203732e-01 1.9830775333749997e+01 ylo yhi
1.0398912782592973e-01 2.0696782872175955e+01 zlo zhi
-2.2660013397525069e-01 2.5416450810394065e-01 1.5590945034188577e-01 xy xz yz

Masses

1 16
2 2

Atoms # atomic

4 1 4.5498326913348750e+00 1.5351303755435117e+00 3.4634815428741330e+00 0 0 0
5 2 4.5632463414430422e+00 2.5278456632023825e+00 3.5767678498283986e+00 0 0 0
6 2 3.7393316591896193e+00 1.2119292516705102e+00 3.9164030596562158e+00 0 0 0
7 1 6.2127293263820933e+00 4.5593762339386847e+00 5.8142007240624016e+00 0 0 0
8 2 6.9458195626542443e+00 4.3037055114095093e+00 5.2450612714068248e+00 0 0 0
9 2 5.4797488256575093e+00 4.4069924915963856e+00 5.1719896155488758e+00 0 0 0
10 1 1.5087314598548944e+00 4.2202124964744012e+00 3.8618981052541224e+00 0 0 0
142 1 5.6035725891209163e+00 9.2647401290078548e+00 3.2994538844619187e-01 0 0 0
12 2 1.5022757156278816e+00 4.9534535988268864e+00 3.2319576076707617e+00 0 0 0
13 1 4.7436289726099110e+00 5.9930196664078164e+00 1.8349314947982287e+00 0 0 0
14 2 4.6521473281469836e+00 6.8945633513541216e+00 2.2082868004290543e+00 0 0 0
15 2 4.1735785051190453e+00 5.9637326411903828e+00 9.9702841548726640e-01 0 0 0
16 1 4.4014022053848780e+00 4.2431057557817500e+00 3.8046926250287099e+00 0 0 0
17 2 4.4901723483003888e+00 4.8607055657554845e+00 2.9958976034516143e+00 0 0 0
18 2 3.4449985211875953e+00 4.2778745706038324e+00 3.8877099945500331e+00 0 0 0
444 2 1.0695094282153925e+00 1.0296947163394968e+01 1.0382728014546650e+01 0 0 0
20 2 9.5624708619340137e-01 6.8786698710004659e+00 2.2249048423375859e+00 0 0 0
22 1 2.3361341955365713e+00 8.9106388547197690e-01 5.1271444379071189e+00 0 0 0
23 2 1.3910784037802224e+00 7.6359091069699858e-01 4.9926713088959938e+00 0 0 0
24 2 2.4463786874243039e+00 1.6720450328193666e+00 5.6974899150238887e+00 0 0 0
25 1 2.9815432924994414e+00 5.6765362617560475e+00 6.7959924899472588e+00 0 0 0
26 2 2.8659735817602030e+00 6.4858036645700841e+00 6.2424991403221162e+00 0 0 0
27 2 3.7397369579721778e+00 5.9283054247634963e+00 7.4232095637578333e+00 0 0 0
28 1 6.1005291249426845e+00 5.5064802922938805e-01 5.4570440719842326e+00 0 0 0
29 2 5.6522960955419581e+00 8.8500518589779475e-01 4.6844230896714745e+00 0 0 0
30 2 5.9009156246694525e+00 1.9214778628719088e+01 5.3085078116550308e+00 0 0 0
143 2 4.6232358384157735e+00 9.1089650190536666e+00 4.6844367930717462e-01 0 0 0
140 2 1.2794530214923399e+00 9.4614319409789491e+00 2.8882421987388773e+00 0 0 0
33 2 9.9891303006788978e-01 2.9043873626947385e+00 2.8321389902972700e+00 0 0 0
2 2 3.8366100911773353e+00 2.8752398872677807e+00 3.6925544011219175e-01 0 0 0
35 2 6.0346807495049717e+00 2.6628684531551938e+00 1.4035997137707135e+00 0 0 0
46 1 8.2638650565806753e+00 4.0899434094465210e+00 3.7948406491159914e+00 0 0 0
47 2 9.1292062748545284e+00 4.1969198548216262e+00 4.1977322265522590e+00 0 0 0
48 2 8.0998550773461879e+00 4.9058067570678814e+00 3.2399790011408651e+00 0 0 0
55 1 7.4097196715629758e+00 5.9773999762697851e+00 2.2559601321806633e+00 0 0 0
56 2 7.5703898014783855e+00 7.0103697345840148e+00 2.2878637414880574e+00 0 0 0
57 2 6.4633820429390623e+00 5.8334713760752877e+00 2.1800433883658243e+00 0 0 0
58 1 8.6538945088867791e+00 1.9845996788095557e-01 4.7457556299940205e+00 0 0 0
19 1 1.0788277639396484e+00 6.0453510804964736e+00 1.7155713640796300e+00 0 0 0
60 2 7.7528284708801047e+00 5.5068392305654568e-01 4.7943671746393166e+00 0 0 0
361 1 8.9966312209199426e+00 2.5077805914659774e+00 6.6397472243109652e+00 0 0 0
891 2 2.9583775543160340e+00 1.8610579006142792e+01 1.7917889437170567e-01 0 0 0
63 2 8.5435594852928585e+00 5.4349975700906406e+00 7.2906842330323007e+00 0 0 0
67 1 7.5487241126295261e+00 2.0241456709482621e+00 2.0146835927443756e+00 0 0 0
68 2 7.7761477962371393e+00 2.7022356524405668e+00 2.7288527346906464e+00 0 0 0
69 2 8.2630430140653850e+00 2.0637992577345869e+00 1.3999485264864888e+00 0 0 0
111 2 2.1220920135455872e+00 9.2489783996008086e+00 7.3070329886959950e-01 0 0 0
609 2 7.8052078164615368e+00 1.5601639706713488e+01 1.0000474325517200e+01 0 0 0
34 1 5.3494002735049309e+00 2.8353747031742729e+00 7.1016500482751355e-01 0 0 0
112 1 4.5319758563656247e+00 7.9582401504231424e+00 3.5615304278736537e+00 0 0 0
113 2 5.2380248546189163e+00 7.8082437449377853e+00 4.2327742733940177e+00 0 0 0
114 2 4.2863433503843789e+00 8.9598813786942504e+00 3.5338817334717771e+00 0 0 0
115 1 6.2933871148309777e+00 1.1439337517292953e+01 5.3754606362556085e+00 0 0 0
116 2 5.8840364541060080e+00 1.2306354754141843e+01 5.3094434832349977e+00 0 0 0
117 2 5.8515881179412190e+00 1.0994024915113732e+01 6.1939524101827379e+00 0 0 0
118 1 1.6415851882919512e+00 1.0756844047222144e+01 3.8234508998956684e+00 0 0 0
119 2 9.7519261697027826e-01 1.0746781985641986e+01 4.5063461015574635e+00 0 0 0
120 2 2.5297504343182400e+00 1.0661184184488690e+01 4.1592939395232040e+00 0 0 0
121 1 4.5632727914648354e+00 1.2298562312833447e+01 1.6150712985184648e+00 0 0 0
122 2 5.4781188690374467e+00 1.2237278100716024e+01 1.4267599933933763e+00 0 0 0
123 2 4.0400539154413391e+00 1.2107210261753755e+01 7.9637965124151822e-01 0 0 0
124 1 4.2542619770190688e+00 1.0438381343922192e+01 3.6785205748761340e+00 0 0 0
125 2 4.2869618376526120e+00 1.0775717940887581e+01 2.7678539013867360e+00 0 0 0
126 2 5.0636495923922382e+00 1.0828478731556061e+01 4.1003090346054751e+00 0 0 0
127 1 8.4110174534443582e-01 1.2749495911394588e+01 1.9627326115330102e+00 0 0 0
128 2 1.5401676174563412e+00 1.2526571572991394e+01 1.3438125830648981e+00 0 0 0
129 2 8.1653421833238649e-01 1.2167633065349641e+01 2.7123637911266485e+00 0 0 0
130 1 2.4521493034895516e+00 7.7283748239675827e+00 5.1815832982524865e+00 0 0 0
131 2 3.2647631239757637e+00 7.7020204869138515e+00 4.6140164694748549e+00 0 0 0
132 2 2.7842491724743423e+00 8.4558452489195908e+00 5.7418666499864477e+00 0 0 0
133 1 2.7746150491762913e+00 1.2232806627650929e+01 6.9432513941828962e+00 0 0 0
134 2 1.8857748583080867e+00 1.2419105196679412e+01 7.3282346849459916e+00 0 0 0
135 2 2.6784314433901439e+00 1.2819915000401847e+01 6.1392752010058667e+00 0 0 0
136 1 6.2571790278260018e+00 7.3669298681604838e+00 5.8843619754082885e+00 0 0 0
137 2 6.1561816418036495e+00 6.4178675931263029e+00 6.0230651568546927e+00 0 0 0
138 2 7.1870664310843084e+00 7.4610089571492990e+00 5.5331147748830967e+00 0 0 0
11 2 6.2523791543104013e-01 4.3799747831390619e+00 4.3653812153506619e+00 0 0 0
258 2 9.7035015699457219e+00 1.4068306017708293e+01 3.7061687284393470e+00 0 0 0
3 2 2.1696155838690832e+00 2.9784197522901117e+00 6.4053279217361914e-01 0 0 0
465 2 1.0136371544210254e+00 7.9048585960377400e+00 9.3700446088422922e+00 0 0 0
210 2 7.9187631263530955e-01 7.2869672911083816e+00 5.2201708391269595e+00 0 0 0
154 1 8.3064987302671405e+00 1.0554618678271151e+01 3.7836960218153961e+00 0 0 0
155 2 7.7620143363071294e+00 1.0775624446627466e+01 4.5585474560093990e+00 0 0 0
156 2 9.2942887090432951e+00 1.0703693040613276e+01 3.8963745565049308e+00 0 0 0
163 1 7.4760538178964602e+00 1.1965298087516043e+01 1.7165725757748924e+00 0 0 0
164 2 7.9267759673884370e+00 1.1742718857656619e+01 2.5495556316798584e+00 0 0 0
165 2 8.1141494906916769e+00 1.1731378734049660e+01 1.0225389142218777e+00 0 0 0
166 1 8.8873574945846681e+00 7.7138502563045215e+00 5.3069891341266295e+00 0 0 0
167 2 9.2768280557289629e+00 8.3648475430410727e+00 5.9506572405033511e+00 0 0 0
168 2 9.1438365917144644e+00 6.8714723743306410e+00 5.7861510395359250e+00 0 0 0
169 1 8.7511696179660774e+00 1.2385925671397437e+01 6.9156682434227008e+00 0 0 0
171 2 8.4979373640228140e+00 1.3032738983754911e+01 6.2516670302000854e+00 0 0 0
175 1 7.5700176808978945e+00 8.7042782618225054e+00 2.0803568325208808e+00 0 0 0
176 2 7.8348761466542136e+00 9.2558950168180836e+00 2.7957888692795136e+00 0 0 0
177 2 6.7129285155079286e+00 9.0806090748900061e+00 1.7443943116649492e+00 0 0 0
818 2 9.7081741595798832e+00 1.1994464490021272e+01 3.1502650124011156e-01 0 0 0
711 2 8.3223252649408490e+00 5.3765671101752570e+00 7.8732408234543616e-01 0 0 0
147 2 8.6744482769581328e+00 8.8737657258038016e+00 5.1389417495926049e-01 0 0 0
571 1 7.4321996965525217e-01 1.5794033733354356e+01 9.0201039473758833e+00 0 0 0
479 2 7.3852168122472541e+00 1.1598117687807008e+01 1.0267065952061945e+01 0 0 0
220 1 3.6888579895369187e+00 1.4455379774487605e+01 3.1855515128906697e+00 0 0 0
221 2 3.6461952751722091e+00 1.5432479949228521e+01 2.9732900753250378e+00 0 0 0
222 2 3.5111923879530469e+00 1.3997412883810368e+01 2.3822025163424931e+00 0 0 0
223 1 5.8501090476938469e+00 1.7438353179420041e+01 5.1462323471476248e+00 0 0 0
224 2 6.5952583439148382e+00 1.7095445400404010e+01 4.6002811583808123e+00 0 0 0
225 2 5.8731254110421478e+00 1.6953312069080283e+01 5.9964306277663759e+00 0 0 0
226 1 1.2863561732501740e+00 1.7515289313418002e+01 3.6979128413274234e+00 0 0 0
227 2 9.6473085344535481e-01 1.8195120652460091e+01 3.0996266076229984e+00 0 0 0
228 2 1.0567381856813753e+00 1.6707025662690953e+01 3.1433654006934799e+00 0 0 0
229 1 4.3258901492958941e+00 1.8934054664769697e+01 1.4952325329278218e+00 0 0 0
230 2 4.2775237165625475e+00 1.8163132682804864e+01 2.1287349111903162e+00 0 0 0
231 2 4.1706122361884477e+00 1.9724683436997978e+01 1.9998680863281617e+00 0 -1 0
232 1 3.8870687699437743e+00 1.7193583813187061e+01 3.3262598635545313e+00 0 0 0
233 2 2.9364079351605250e+00 1.7465811353644234e+01 3.5200283118556008e+00 0 0 0
234 2 4.5346711539105566e+00 1.7302525414893537e+01 4.0630724275196384e+00 0 0 0
235 1 3.2407683125148878e-01 1.9347228079135377e+01 1.3956705659379962e+00 0 0 0
236 2 8.7687551085296855e-01 5.1873974006430790e-01 1.7152372675959742e+00 0 0 0
237 2 1.0063920055018216e+00 1.9138257121233927e+01 7.5697617950985707e-01 0 0 0
238 1 1.9296661065466874e+00 1.4125152464156322e+01 5.4247247085333363e+00 0 0 0
239 2 2.5058604592955791e+00 1.4157042911394047e+01 4.6515723042889698e+00 0 0 0
240 2 9.7265047601739019e-01 1.4026638749391099e+01 5.2437548173688961e+00 0 0 0
241 1 2.6256445639786974e+00 1.8630143968592506e+01 7.1266505053664764e+00 0 0 0
242 2 2.5112269443530404e+00 1.9178394620379727e+01 6.2847762251736699e+00 0 0 0
243 2 2.6392699315546246e+00 1.7639098160828702e+01 7.0080558870559608e+00 0 0 0
244 1 5.7975127559880848e+00 1.4132785896065954e+01 5.0168784578878434e+00 0 0 0
245 2 5.5604104100013192e+00 1.4723074108649381e+01 5.6903874526218665e+00 0 0 0
246 2 5.1662421725797074e+00 1.4295546690657249e+01 4.2854439869542817e+00 0 0 0
247 1 5.9439823929917912e-01 1.5479394034200496e+01 2.3020716346646006e+00 0 0 0
248 2 6.8967422840296833e-01 1.4509335327971879e+01 2.5334386161478566e+00 0 0 0
249 2 1.2309076452366958e+00 1.5603105051787724e+01 1.5542840509526241e+00 0 0 0
251 2 5.7215417983560259e+00 1.5418795523916549e+01 9.0813140861520714e-01 0 0 0
559 1 6.6809917010278574e-01 1.9525716142064923e+01 8.8518632255875467e+00 0 0 0
262 1 7.6322441194426371e+00 1.6826582628916924e+01 3.1923366169759406e+00 0 0 0
263 2 8.6326815197621887e+00 1.6904814712470966e+01 3.0393467677106867e+00 0 0 0
264 2 7.2430024236212924e+00 1.7640583096197517e+01 2.8111620134991133e+00 0 0 0
271 1 6.9342327225453753e+00 1.9167796578146380e+01 1.9194199870953805e+00 0 0 0
272 2 7.3061623827642714e+00 3.6958505318558010e-01 2.2528608765272424e+00 0 0 0
273 2 6.0331170509769976e+00 1.9109302607921890e+01 1.5571130020682320e+00 0 0 0
274 1 8.3653178286315821e+00 1.4067320275352772e+01 4.8421574837485890e+00 0 0 0
275 2 8.6880219275957113e+00 1.4817306836311833e+01 5.4145700237963510e+00 0 0 0
276 2 7.3926881703885687e+00 1.4143909368300120e+01 4.7785656696389474e+00 0 0 0
277 1 9.3287697390907187e+00 1.8384832672485594e+01 7.0777574048128908e+00 0 0 0
278 2 9.1631206045521818e+00 1.8940129033487835e+01 6.2909483405002868e+00 0 0 0
279 2 8.6983010412271167e+00 1.8769519184807713e+01 7.7143173305186767e+00 0 0 0
283 1 7.1957427357524049e+00 1.4812721970424683e+01 1.5550591307611834e+00 0 0 0
284 2 7.3636115786350151e+00 1.5348703984741016e+01 2.3952655211365763e+00 0 0 0
285 2 7.4722769335389589e+00 1.3877164809913888e+01 1.6486183742260794e+00 0 0 0
59 2 9.1119074105147551e+00 3.5019806340652304e-01 3.9185173960733777e+00 0 0 0
325 1 2.4637010159818127e+00 2.9162349774451846e+00 6.8671252188747491e+00 0 0 0
326 2 2.4922604573265499e+00 3.8828804465531270e+00 6.6438515621144738e+00 0 0 0
327 2 3.3873120374015748e+00 2.8523540750891909e+00 7.1455271038311281e+00 0 0 0
329 2 4.7989363176536708e+00 8.0910233183477143e-01 9.6102683755705041e+00 0 0 0
337 1 4.8704680282256918e+00 5.6668451441037737e+00 8.6987859547665067e+00 0 0 0
338 2 4.7349060799657439e+00 4.9458469595299119e+00 9.3694625679299470e+00 0 0 0
339 2 4.7449146004174239e+00 6.4668163879114777e+00 9.2767181620755910e+00 0 0 0
343 1 9.5177058696868000e-01 6.1090116336801108e+00 8.6960432186759800e+00 0 0 0
344 2 1.4426298523212384e+00 5.4857430291651479e+00 9.2845476682347154e+00 0 0 0
345 2 1.4169185164468541e+00 5.9351284541447615e+00 7.8331804287719606e+00 0 0 0
355 1 6.0527979876983540e-01 2.6059471206424489e+00 8.9722334186797816e+00 0 0 0
356 2 6.1295637536643888e-01 1.6936473604093019e+00 9.2413464144458572e+00 0 0 0
357 2 1.3638771172856246e+00 2.7088661813383013e+00 8.3962113087330241e+00 0 0 0
358 1 5.0698602919981051e+00 2.2705853527393294e+00 7.3577284983693776e+00 0 0 0
359 2 5.5745018002529800e+00 2.9465169784483685e+00 6.8895117709445417e+00 0 0 0
360 2 5.2037495316554230e+00 1.3780339886368553e+00 6.9445713308748562e+00 0 0 0
32 2 1.1742153217850168e-01 2.2601790543890856e+00 1.8035175543769861e+00 0 0 0
362 2 8.8025599944516575e+00 1.8461498997352344e+00 5.8888265540875953e+00 0 0 0
363 2 8.3312548303584641e+00 2.5353460562237613e+00 7.4113305710053794e+00 0 0 0
450 2 4.0715180919854603e+00 1.1196245590114376e+01 9.7998572724746662e+00 0 0 0
379 1 7.4660996997506723e+00 6.1730727769217104e+00 8.6004138913738490e+00 0 0 0
380 2 7.4000850903683064e+00 7.0779798487267236e+00 8.8886203307860807e+00 0 0 0
381 2 6.4736104142758446e+00 5.9849355497775614e+00 8.4981868169995973e+00 0 0 0
391 1 7.4348864360374263e+00 2.5788869513471595e+00 8.6390990132187664e+00 0 0 0
392 2 7.5826854918377622e+00 3.2621609422534652e+00 9.3555297489389133e+00 0 0 0
393 2 6.4908030653330222e+00 2.4680378437188635e+00 8.4434285322306000e+00 0 0 0
62 2 9.1340730603292410e+00 4.3738539943767192e+00 6.3274513999650015e+00 0 0 0
433 1 2.8073198143356461e+00 9.5932364582565288e+00 7.1034227045644611e+00 0 0 0
434 2 2.8020898797249005e+00 1.0587247684214509e+01 6.9003232734892972e+00 0 0 0
435 2 2.1645192835778504e+00 9.4557993677932579e+00 7.8356728720425899e+00 0 0 0
139 1 1.0098156911815801e+00 8.6226929775184580e+00 2.3522839727044174e+00 0 0 0
445 1 4.4883574604388699e+00 1.2618631688751803e+01 8.7975263433951927e+00 0 0 0
446 2 4.3365455004283424e+00 1.3477728020017768e+01 9.2939526596133444e+00 0 0 0
447 2 3.9106964314410995e+00 1.2551741573778539e+01 8.0201492588208954e+00 0 0 0
61 1 9.2208687859403451e+00 5.3005337967213100e+00 6.6095040459174008e+00 0 0 0
451 1 8.7823809786646700e-01 1.2804355582450897e+01 8.8136253379531801e+00 0 0 0
452 2 9.4631094077269406e-01 1.3743493329598694e+01 8.9960370091060131e+00 0 0 0
443 2 1.0407289477291490e+00 1.1818951972064374e+01 1.0006661303078149e+01 0 0 0
21 2 2.1383909368854054e-01 5.7297725928341947e+00 1.3636147167571022e+00 1 0 0
466 1 5.5445313967473417e+00 9.7630748321557004e+00 7.1492706482259027e+00 0 0 0
467 2 5.8407128424316070e+00 8.9714716350066013e+00 6.7009166050007742e+00 0 0 0
468 2 4.5894181292255194e+00 9.5697307430405463e+00 7.2230315328168047e+00 0 0 0
141 2 1.3392221641443713e-01 8.8063435263898775e+00 2.0328416743667228e+00 0 0 0
470 2 9.2986846839528958e+00 1.0452016179436342e+01 7.2815944841578126e+00 0 0 0
471 2 8.6324981940317755e+00 9.2643942297855926e+00 8.1103687849841570e+00 0 0 0
31 1 1.0390069459488216e+00 2.2216857778292134e+00 2.1110345340358148e+00 0 0 0
487 1 7.1841958611660051e+00 1.2628633209360403e+01 8.9897470130335613e+00 0 0 0
488 2 7.7190832810859105e+00 1.2541492042558916e+01 8.1827442694440649e+00 0 0 0
489 2 6.2179466923213251e+00 1.2511771325296843e+01 8.8157039766971295e+00 0 0 0
499 1 7.3576633140547623e+00 8.8968107540367356e+00 9.1561592559605725e+00 0 0 0
500 2 7.4478564539804806e+00 9.5906475383678806e+00 9.8742897813155110e+00 0 0 0
501 2 6.6680677257468286e+00 9.3169425232885938e+00 8.5336673484265830e+00 0 0 0
608 2 7.2618640275830524e+00 1.4497195554499193e+01 9.1419690931486084e+00 0 0 0
372 2 7.6184314177574546e+00 5.2340946350964046e+00 9.8667136324616571e+00 0 0 0
541 1 2.8309938959733363e+00 1.5931819508469623e+01 7.2187468751109636e+00 0 0 0
542 2 2.1393430741387141e+00 1.5915757873172923e+01 7.9416895835517209e+00 0 0 0
543 2 2.4340143562071219e+00 1.5341136667179340e+01 6.4937563240222040e+00 0 0 0
553 1 5.0047480869351331e+00 1.8954034711463784e+01 8.7663520588769739e+00 0 0 0
554 2 5.9577596865520670e+00 1.9092395566173209e+01 8.6427907270743329e+00 0 0 0
555 2 4.4634327699898648e+00 1.8711474982543479e+01 8.0089289673072646e+00 0 0 0
463 1 8.5338424898757481e-01 8.8699657077092002e+00 9.2068615799622489e+00 0 0 0
573 2 8.7361369063037464e-01 1.6549396452028269e+01 9.6599083673133457e+00 0 0 0
560 2 1.2176562511043312e+00 1.9265688232534387e+01 8.0844049135428193e+00 0 0 0
561 2 9.4509555729564276e-01 1.8889409015081647e+01 9.5543679732735303e+00 0 0 0
469 1 9.3748409390124543e+00 9.4796411451111133e+00 7.4718093147902378e+00 0 0 0
574 1 5.3747069281454758e+00 1.5853039736285133e+01 7.1139969090130899e+00 0 0 0
575 2 5.9906859293308372e+00 1.5759031099354225e+01 7.8696152738399245e+00 0 0 0
576 2 4.4135057848979651e+00 1.5796218104457898e+01 7.3936415489476612e+00 0 0 0
577 1 9.3247126652071959e+00 1.5774975280365691e+01 6.7304417015841880e+00 0 0 0
578 2 9.3879806054218395e+00 1.6727356927236087e+01 6.7309129160285961e+00 0 0 0
579 2 8.7531195353194970e+00 1.5578345674944064e+01 7.5086156406571805e+00 0 0 0
254 2 8.2570278066940936e+00 1.5699367663571534e+01 5.0625882300314140e-01 0 0 0
595 1 7.6610145967677932e+00 1.9343607189436057e+01 9.0090661976655042e+00 0 0 0
596 2 7.9593760878526725e+00 5.9244604954688707e-01 9.3556931802940770e+00 0 0 0
597 2 7.9115738947434622e+00 1.8837817504247575e+01 9.8165737926469294e+00 0 0 0
607 1 7.5049563592332191e+00 1.5370121145722417e+01 9.0558894500345399e+00 0 0 0
558 2 4.3194595259085622e+00 1.8080425105215241e+01 1.0261819091365172e+01 0 0 0
927 2 8.2021253134099474e+00 1.8722928120449843e+01 7.3940226140258269e-01 0 0 0
297 2 -4.9563051533226904e-02 1.7531219926679974e+01 5.0315820618875984e+00 1 0 0
170 2 9.6026458293397177e+00 1.2674605607244599e+01 7.2645449414744769e+00 0 0 0
675 2 2.2084204709817929e+00 5.9552799452996137e+00 5.4789754736833052e-01 0 0 0
464 2 1.9409925213100734e-01 8.9448954875413840e+00 8.4449296127106628e+00 0 0 0
328 1 4.2813889644591381e+00 1.1753551955630577e+00 1.0342531709826794e+01 0 0 0
544 1 4.0101147994017943e+00 1.5024179775002153e+01 9.9969029899451396e+00 0 0 0
437 2 4.0380733471629924e+00 9.0248816018882678e+00 1.0273393211817758e+01 0 0 0
436 1 4.2988203182487048e+00 7.9806631752418147e+00 1.0160059238991508e+01 0 0 0
250 1 5.1026199248860378e+00 1.5694077124406029e+01 2.7721993750568152e-01 0 0 0
36 2 5.5579735619359703e+00 3.6667947458973078e+00 2.8019441850196369e-01 0 0 1
218 2 3.2831047094291756e+00 1.5641071363086068e+01 1.1188057632410384e-01 0 0 0
37 1 9.5389261536170640e+00 2.6996552140192942e+00 1.7784260652050396e-01 0 0 0
572 2 4.4135455001865498e-03 1.5896697376568723e+01 8.4318080458417768e+00 0 0 0
775 1 9.8670922567071107e-01 1.2708109726511521e+01 1.5777648976985931e+01 0 0 0
448 1 3.7168864910411843e+00 1.0594997704609284e+01 1.0468654447591211e+01 0 0 0
926 2 9.2089906913688271e+00 1.7809904821015913e+01 2.0356822295477141e+01 0 0 0
371 2 8.8117662496026838e+00 4.3965612453760938e+00 1.0606030072868347e+01 0 0 0
39 2 9.6502265834569236e+00 2.1763875654223428e+00 2.0060329482941079e+01 0 0 0
586 1 8.2836780948719468e+00 1.7546747082144073e+01 1.0821433569656746e+01 0 0 0
331 1 6.1789330701565603e+00 4.8040091181879268e+00 1.2644575868481949e+01 0 0 0
332 2 6.8787844041796911e+00 4.6517821168244051e+00 1.1969919153688169e+01 0 0 0
333 2 5.4056659470024462e+00 4.4902042606389463e+00 1.2110298281017423e+01 0 0 0
933 2 8.2177087389573096e+00 1.5547857862571416e+01 1.5229779131304827e+01 0 0 0
876 2 4.9489541992069019e-01 1.7356908319639921e+01 1.8351848377465718e+01 0 0 0
599 2 9.6376719938600850e+00 1.4521624951312969e+01 1.0985819446404168e+01 0 0 0
346 1 2.0219645558204657e+00 1.0889902286299944e+00 1.1774570951236701e+01 0 0 0
347 2 2.7504454898097581e+00 1.0322166495706311e+00 1.1109476160344645e+01 0 0 0
348 2 2.3597050274297580e+00 1.8650185109619726e+00 1.2287949392156532e+01 0 0 0
349 1 2.5057817769006783e+00 5.5199741844137709e+00 1.4087316760018100e+01 0 0 0
350 2 2.2615679387703858e+00 5.7665185604385600e+00 1.3199179309247491e+01 0 0 0
351 2 2.6900977267094497e+00 4.5285786070473328e+00 1.4057556341682451e+01 0 0 0
352 1 6.0697355788423781e+00 8.1726324718913379e-01 1.2772773771721448e+01 0 0 0
353 2 6.9891551838986334e+00 1.1211703274562812e+00 1.2559463389484840e+01 0 0 0
354 2 5.9324807069701304e+00 1.9490041389960702e+01 1.2897440751808391e+01 0 0 0
686 2 1.0036515441270840e+01 2.7924707092683212e+00 1.4427654405769577e+01 0 0 0
382 1 8.8917900261815248e+00 1.0509680063738234e+00 1.2526466920565559e+01 0 0 0
383 2 8.8536073851189627e+00 1.9820488954725796e+01 1.2943997258821689e+01 0 -1 0
777 2 1.1667526964425372e+00 1.3648182476866243e+01 1.5656602666003259e+01 0 0 0
685 1 9.1444040365265007e+00 2.9868550116185681e+00 1.4147693289771116e+01 0 0 0
386 2 9.0876647675772535e+00 4.7579537677445769e+00 1.3666140399004018e+01 0 0 0
387 2 8.6591729784642517e+00 5.8228460114217970e+00 1.4612631106200347e+01 0 0 0
925 1 9.0985931776486133e+00 1.8760611317997842e+01 2.0609148231084205e+01 0 0 0
426 2 3.5274508450600228e-01 6.5129410028693546e-01 1.1875049862014464e+01 0 0 0
439 1 5.5400007089616805e+00 1.1447522764294863e+01 1.2526451225028115e+01 0 0 0
440 2 5.6554781220667643e+00 1.2406964436168606e+01 1.2387109891036580e+01 0 0 0
441 2 4.8354345906017713e+00 1.1105676224467620e+01 1.1939935551210874e+01 0 0 0
932 2 7.5702202612724809e+00 1.5980717907179772e+01 1.6567022324559638e+01 0 0 0
454 1 2.2624467999915372e+00 7.3527835362559957e+00 1.2105490110359726e+01 0 0 0
455 2 2.8837624840051741e+00 7.5978856660026173e+00 1.1378021357227123e+01 0 0 0
456 2 2.3921800401117999e+00 8.0737900229337853e+00 1.2754848335243004e+01 0 0 0
457 1 2.5652916115719884e+00 1.2344820223534652e+01 1.3699052118535604e+01 0 0 0
458 2 3.4657351103031400e+00 1.2481346109825330e+01 1.4068033390245461e+01 0 0 0
459 2 1.9535054017127846e+00 1.2414472665203071e+01 1.4447262205000978e+01 0 0 0
460 1 5.9057702317373000e+00 7.6164966199753801e+00 1.2442409489393208e+01 0 0 0
461 2 5.8411527775980474e+00 6.6755430730149641e+00 1.2635558820211621e+01 0 0 0
462 2 6.9370622069703529e+00 7.7457659787627975e+00 1.2286244407869420e+01 0 0 0
384 2 9.3385010954922070e+00 1.1295305993750033e+00 1.1703897997741988e+01 0 0 0
480 2 6.9943999659443081e+00 1.0855379072138614e+01 1.1579650162823739e+01 0 0 0
336 2 7.2171082886053450e-01 4.4456150912483476e+00 1.1680878060909249e+01 0 0 0
490 1 8.6424983360104424e+00 7.7023914693506015e+00 1.2017629720584836e+01 0 0 0
491 2 8.8636215343039755e+00 6.9066892584383108e+00 1.2562900507745750e+01 0 0 0
492 2 8.8828377109197287e+00 8.4975793619222095e+00 1.2555564188418129e+01 0 0 0
556 1 4.0304689262632234e+00 1.7564609193133357e+01 1.1035130398116678e+01 0 0 0
494 2 8.8519392749582000e+00 1.2661096416522486e+01 1.4065366338466948e+01 0 0 0
495 2 9.4123550107826208e+00 1.3047302795028346e+01 1.2560642169920186e+01 0 0 0
889 1 2.4438751142983182e+00 1.8703171452702762e+01 2.0174042123005385e+01 0 0 0
552 2 2.1227976509240731e+00 1.7670408258334398e+01 1.1154308508107254e+01 0 0 0
673 1 3.0256862921773440e+00 5.9724832305883924e+00 2.0335006478020926e+01 0 0 0
550 1 1.2456062843408517e+00 1.7671735916224115e+01 1.0747755362620657e+01 0 0 0
252 2 5.7171076775561387e+00 1.6685649582750735e+01 2.0455974666093780e+01 0 0 0
546 2 4.8759259233306658e+00 1.4859036114506532e+01 1.0407506393345990e+01 0 0 0
547 1 6.3029584400717624e+00 1.7766703616102703e+01 1.2590897387429779e+01 0 0 0
548 2 5.6185729327742635e+00 1.7637567879317025e+01 1.1881122219764729e+01 0 0 0
549 2 6.1923889710376008e+00 1.6898606719280828e+01 1.3088591646797637e+01 0 0 0
545 2 3.3265012332787181e+00 1.4685968665327959e+01 1.0722794963351141e+01 0 0 0
562 1 2.4314530267295584e+00 1.4389423032943329e+01 1.1893764677695064e+01 0 0 0
563 2 1.4477030527487449e+00 1.4448509483510698e+01 1.1835676620761159e+01 0 0 0
564 2 2.5289475947530091e+00 1.3574817923678665e+01 1.2475426026352787e+01 0 0 0
565 1 2.3401095040128941e+00 1.8826875081406264e+01 1.3447692953578839e+01 0 0 0
566 2 2.1549231765585519e+00 1.9327337062999661e+01 1.2629919204226692e+01 0 0 0
567 2 3.1389752574926342e+00 1.9245281259592950e+01 1.3818803960185559e+01 0 0 0
568 1 6.0373130264661334e+00 1.4042049703895566e+01 1.1736476719789271e+01 0 0 0
569 2 7.0196123308708014e+00 1.3941485982947297e+01 1.1658121599045320e+01 0 0 0
570 2 6.0106713448845399e+00 1.4643468358229786e+01 1.2513150566134097e+01 0 0 0
883 1 5.3950660967835673e-01 1.8981617735432714e+01 1.5692988085284213e+01 0 0 0
679 1 1.1144152283958277e+00 1.9320349354359934e+00 1.6024632759780815e+01 0 0 0
588 2 7.8013565917177763e+00 1.7750508982804988e+01 1.1673125086536704e+01 0 0 0
598 1 8.7644154714545213e+00 1.4436192039348537e+01 1.1472060561832764e+01 0 0 0
109 1 3.0319206875133284e+00 9.7611524820039595e+00 2.0675959044092341e+01 0 0 -1
600 2 8.7237970411587185e+00 1.5077305200765785e+01 1.2196476923169637e+01 0 0 0
601 1 9.1811976817960073e+00 1.8654242889262086e+01 1.3855131217103526e+01 0 0 0
603 2 8.4589335187820893e+00 1.8851560077912268e+01 1.4562170182184003e+01 0 0 0
110 2 2.7925722291994122e+00 9.1278291121721047e+00 1.9918228855804514e+01 0 0 0
782 2 2.7087825558507443e+00 1.1337723687327999e+01 2.0342520887237107e+01 0 0 0
649 1 2.8096587840481768e+00 2.9860064103879900e+00 1.4311461545687132e+01 0 0 0
650 2 3.7363745256473737e+00 2.8662101259083577e+00 1.4629416021657619e+01 0 0 0
651 2 2.2542337506223324e+00 2.5398011654891137e+00 1.5017588327181750e+01 0 0 0
652 1 4.3768126831392706e+00 1.5952518628367220e+00 1.7049523858919379e+01 0 0 0
653 2 4.2718965787224388e+00 2.5443767054966955e+00 1.7307207258241071e+01 0 0 0
654 2 4.9739706892181550e+00 1.2966257254718223e+00 1.7749202639051244e+01 0 0 0
655 1 6.1446457377339625e+00 5.0047473634075166e+00 1.9392519464940289e+01 0 0 0
656 2 5.9120580330327792e+00 5.9458622545494739e+00 1.9578806486849768e+01 0 0 0
657 2 6.8576325033071353e+00 4.9924143529551532e+00 1.8684985031578591e+01 0 0 0
658 1 1.4659643633232458e+00 4.5155367434425964e+00 1.7766166849515617e+01 0 0 0
659 2 1.3247400367117081e+00 3.6266974271693457e+00 1.7345431878103383e+01 0 0 0
660 2 1.2267991969755321e+00 5.2345429606560963e+00 1.7176958850447804e+01 0 0 0
661 1 4.7453084650775859e+00 6.2206541116182352e+00 1.5339834540187310e+01 0 0 0
662 2 4.5689355995769496e+00 5.5825965102650237e+00 1.6105493582569103e+01 0 0 0
663 2 3.9269489613827075e+00 6.0509062469133426e+00 1.4822656086471522e+01 0 0 0
664 1 4.2237941298175521e+00 4.4309276595747047e+00 1.7429139519441140e+01 0 0 0
665 2 3.2441487435197658e+00 4.4224486026940033e+00 1.7727348292521125e+01 0 0 0
666 2 4.7920101679564810e+00 4.5748984579871026e+00 1.8226095970428453e+01 0 0 0
667 1 9.4071491909139937e-01 6.4589762832156552e+00 1.6019389007934365e+01 0 0 0
668 2 9.5857150562958027e-01 7.4090905897353778e+00 1.6076840211665584e+01 0 0 0
669 2 1.5303309516355279e+00 6.1764882362927436e+00 1.5224707377843146e+01 0 0 0
670 1 2.2419493330079199e+00 1.2700147983080039e+00 1.8916575733040677e+01 0 0 0
671 2 2.7661208228655307e+00 1.8714865966727099e+00 1.9478838623140152e+01 0 0 0
672 2 2.6975994239001952e+00 1.2983334520434864e+00 1.8053929439173782e+01 0 0 0
676 1 6.3806793509430797e+00 1.4245558324352967e+00 1.9064093494056987e+01 0 0 0
677 2 6.3485642176571702e+00 2.0984495494448936e+00 1.9761631644285110e+01 0 0 0
678 2 7.3559475410274109e+00 1.2409686661728498e+00 1.8872459905093791e+01 0 0 0
219 2 2.5365215863178125e+00 1.7029555487384478e+01 2.0492856824743985e+01 0 0 -1
707 2 9.7110639201851576e+00 1.1607445465347030e+00 1.8115424998662263e+01 0 0 0
681 2 1.3083472866686199e+00 9.8702885233672677e-01 1.6074798388773839e+01 0 0 0
682 1 5.5148702739611979e+00 2.6969666662717779e+00 1.4549105843980144e+01 0 0 0
683 2 5.6273681892920502e+00 3.4961916995455904e+00 1.3967133449284953e+01 0 0 0
684 2 5.6328180396060654e+00 1.9714569301935065e+00 1.3861029117595855e+01 0 0 0
819 2 9.1013243623300433e+00 1.2625384416614548e+01 1.9543643365227361e+01 0 0 0
687 2 9.1638327652936038e+00 2.2976654014238096e+00 1.3361362605185375e+01 0 0 0
694 1 7.9568235951506168e+00 4.3999224086977931e+00 1.7459234414269545e+01 0 0 0
695 2 8.9432169071044161e+00 4.2557436252398917e+00 1.7549402272416401e+01 0 0 0
696 2 7.8056270302710580e+00 3.5157251168185129e+00 1.7102420723418827e+01 0 0 0
703 1 7.3847229992602328e+00 6.3831471780284028e+00 1.5728628584822838e+01 0 0 0
704 2 7.5386441941274551e+00 5.7151070639946191e+00 1.6393669470191096e+01 0 0 0
705 2 6.4943493054040209e+00 6.0778502010540452e+00 1.5388689922860435e+01 0 0 0
706 1 9.0133008283418246e+00 1.0258657755130751e+00 1.8833629784202227e+01 0 0 0
334 1 1.4788868011717780e+00 4.3382075947339898e+00 1.1109876438689380e+01 0 0 0
708 2 9.3289920787940446e+00 3.3628938621255411e-01 1.9434235881303426e+01 0 0 0
715 1 7.5899815590618074e+00 2.1021404943595678e+00 1.6200441341241138e+01 0 0 0
716 2 6.7190071081400342e+00 2.2245650030911359e+00 1.5609112457261265e+01 0 0 0