LAMMPS data file via write_data, version 15 Apr 2020, timestep = 0

1944 atoms
2 atom types

-3.2532242789980259e-01 4.0307427427898730e+01 xlo xhi
0.0000000000000000e+00 1.9761170278900536e+01 ylo yhi
0.0000000000000000e+00 2.0444273172832400e+01 zlo zhi
-3.4181981606998590e-02 -1.5302927625647555e-02 2.2457331096056521e-02 xy xz yz

Masses

1 16
2 2

Atoms # atomic

491 2 7.8525704436765906e+00 8.9708343969379067e-01 6.3347244144720554e+00 0 1 0
1538 2 2.5276579584922092e+00 1.4364069781409480e+01 3.0009260982394976e+00 0 0 0
485 2 1.2112169819470262e+01 1.4580221710787345e+01 4.6139381138869267e+00 0 0 0
488 2 1.6119429126585334e+01 4.4414606728872439e+00 6.3895247221700506e+00 0 1 -1
480 2 1.9764345943941780e+01 1.4240215373488403e+00 8.2747409976311346e+00 0 1 -1
918 2 3.6242030030704746e+00 3.5603104961546359e+00 9.9683155464822253e+00 0 0 0
1519 1 1.8417768675211985e+01 9.1835252439283312e+00 1.7014787353587755e+00 0 0 1
32 2 4.7620230783702200e-02 1.3515974985266878e+01 2.2350271963848876e+00 1 -1 0
677 2 -1.3263285347048515e-01 6.9323643222836235e+00 1.8807585675502259e+00 0 0 0
87 2 8.8193185537674044e+00 3.2460497697750594e+00 1.0333318299131009e+00 0 0 0
672 2 5.5454196286694151e+00 2.6314360110580943e+00 5.4408883495113516e+00 0 0 0
282 2 3.3705597016685460e+00 6.8439443604211547e+00 9.2564349235722376e-01 0 0 0
1133 2 1.4981275005478924e+01 1.1742481446546726e+00 2.5018274447020530e+00 0 1 0
241 1 4.6148627409150320e+00 1.3671672171354249e+01 1.9863213582319666e-01 0 0 0
435 2 1.9174004872992654e+01 7.3849142577090117e+00 6.6264803188593380e+00 0 1 0
1580 2 -1.1802298337635275e-01 1.8916245057056052e+01 9.2406114364574528e+00 0 -1 0
895 1 7.2796269949675647e+00 2.0439412904236760e+00 4.9047472565608352e+00 0 0 0
679 1 3.5839010682688899e-01 7.4394389311474907e+00 8.7254863228366553e+00 0 0 0
1804 1 9.3564727774602452e-01 1.3285928411993986e+01 4.8175646761999058e+00 0 0 1
1093 1 1.2374750703334696e+01 1.7701971481367195e+01 5.0774144286720988e+00 0 2 0
991 1 1.9018348286403750e+01 1.2404834093280378e+01 7.5812011280879554e+00 0 0 0
437 2 1.9076704929326715e+00 6.9158613135649629e+00 3.0226933775455684e+00 0 0 0
993 2 1.8211894301067776e+01 1.2905257596253524e+01 7.4707497658302309e+00 0 0 0
912 2 1.7940623113601056e+01 1.0467167699274782e+01 2.9529638602801298e+00 0 0 0
102 2 1.0459298459502898e+01 9.6465157432816717e+00 7.7443446089406738e+00 0 1 0
465 2 1.4466591857663392e+01 1.8800443156950667e+01 7.2293961026266462e+00 0 0 -1
713 2 4.7919376079305414e+00 8.0745609265645104e+00 4.7693756648496310e-01 0 0 1
489 2 1.5235181902223477e+01 5.0507165211644143e+00 5.2534947845052802e+00 0 1 -1
59 2 3.2846928251279861e-01 4.3526768480518037e+00 9.1329858160546582e+00 0 0 -1
1393 1 1.1394427043153533e+01 1.1747717345992770e+00 1.3260342493355437e+00 0 0 0
77 2 9.6594823115665083e+00 9.5359219247189966e+00 3.6835952087298657e-01 0 0 0
1350 2 7.8314089992543376e+00 3.4092841749480134e+00 7.3471146259504589e+00 0 0 0
964 1 5.4026946012342423e+00 5.2029246745728059e+00 8.6657162720383507e+00 0 1 0
1094 2 1.2388910986199672e+01 1.7785178060192344e+01 4.0655004803595816e+00 0 2 0
1317 2 -1.2538967421967762e-01 1.3584941896316989e+01 8.7266070149732897e+00 0 -1 0
745 1 1.2928325789234940e+01 1.0765776452835876e+00 3.4857575539331980e+00 0 1 1
954 2 1.1981689829028165e+01 4.4471880645307724e+00 7.7645688102617765e+00 0 1 1
229 1 1.0030349251757265e+01 1.2567455070153395e+01 3.6126723090271167e+00 0 0 0
1207 1 1.7245712176022618e+01 2.5786096020261684e-01 4.5074356103545981e+00 0 1 0
661 1 1.0621570550227727e-01 1.2924381804106095e+00 1.7765009578646607e+00 0 0 1
1335 2 1.3502089337995875e+01 1.2255330143569227e+01 4.4275387170731700e-01 0 -1 1
1151 2 7.1485700611570815e+00 1.6341686880027712e+01 8.0361129924388450e+00 0 0 0
1822 1 1.5054780609289411e+01 1.2283290062112528e+01 2.7698245785105313e+00 0 0 1
479 2 1.8284453634948477e+01 1.0610001095775612e+00 7.8473636543509748e+00 0 1 -1
1749 2 -9.7293624500760983e-02 9.2059073854551041e+00 2.9703120665568461e+00 0 0 1
1331 2 8.4368941379276574e+00 7.6970563212050109e+00 5.9588699777989784e-01 0 0 0
883 1 1.7738518299349849e+01 3.3034504746386912e+00 9.6353712598426320e+00 0 0 0
519 2 1.3849797438241167e+01 5.3983496537377125e+00 3.5956426060527669e+00 0 1 0
1739 2 1.5591614266325911e+01 1.3865442145433692e+01 8.1372340749536320e+00 0 0 0
1379 2 1.4900648320762565e+01 1.8060729338313450e+01 1.6646566179273854e+00 0 0 1
1162 1 1.2758067842428231e+01 9.0872297535266728e+00 1.0022634176828000e+00 0 1 1
476 2 3.6373276003083124e+00 3.4959357643208815e+00 2.3299519948793401e+00 0 1 1
898 1 6.2031033416224481e+00 1.0883921108447769e+01 5.3012590226866392e+00 0 0 0
504 2 1.8795234254930115e+01 1.6662055963456979e+01 6.4234827038541802e+00 0 1 1
39 2 1.7478212898487357e+01 6.7583450948664874e+00 8.1479646080734227e+00 0 0 -1
1738 1 1.5019211955368460e+01 1.3971324941400885e+01 8.9029660701405913e+00 0 0 0
1783 1 7.9369065660121336e+00 6.6996488719931815e+00 8.4501740743543134e+00 0 1 0
1561 1 3.4935430887571486e+00 2.6675705212476690e+00 8.2508666802908639e+00 0 1 0
1526 2 1.6196658427371453e+01 9.9523300023392522e+00 6.7901239169513268e+00 0 0 1
1163 2 1.2640068964564145e+01 1.0075053974335427e+01 1.1256926640327993e+00 0 1 1
1784 2 7.7112743042918375e+00 7.6238425276039301e+00 8.2144567840657601e+00 0 1 0
1762 1 2.5349029264357337e-01 5.1953741155372697e+00 1.9482656939858196e+00 0 1 0
1128 2 1.0472552863249165e+01 5.6940920992193913e+00 3.1616830293870142e+00 0 1 1
669 2 1.4845302014823016e+00 6.3306946409074860e-01 7.9546960000595934e+00 0 1 0
226 1 4.1887634438149801e-02 1.1705902310814301e+01 1.5799042055563306e+00 0 0 0
1098 2 1.2185106506726783e+01 1.4572689701934117e+01 7.1926701193969738e+00 0 1 0
220 1 1.6132348672541433e+01 1.8103838996979796e+01 7.5797755429836791e+00 0 1 0
1313 2 3.7620853798611376e-01 4.3422086341302748e+00 3.5428048141812831e+00 0 0 1
678 2 5.1506908449350342e-01 8.0979507140441189e+00 1.0897053515191004e+00 0 0 0
21 2 1.5673557996970646e+00 5.9787389550168557e+00 5.1841596258946874e+00 0 0 0
100 1 9.6618277731427966e+00 9.3858445701821012e+00 7.2559872194719865e+00 0 0 0
956 2 9.3566734697556964e+00 1.6284294604585327e+01 2.0692727528358299e+00 0 0 0
310 1 1.9258979962575147e+01 8.4591015952494253e+00 1.0103283221173534e+01 0 0 0
1164 2 1.2530526226190398e+01 8.6998680109188342e+00 1.8757114036420401e+00 0 1 1
1112 2 8.1094680800804397e-01 1.5213726262570944e+01 5.6268564897554301e+00 0 0 0
1084 1 2.8380687926118333e+00 9.6329259453496068e+00 3.4283741073632279e+00 0 0 0
483 2 7.5284934363285787e+00 1.8507843939764339e+01 7.0407108286720828e+00 0 0 0
49 1 1.0814888143653079e+01 1.3534250056158050e+00 8.5725560083047547e+00 0 0 0
1305 2 4.8344253292550219e+00 1.0464569340599523e+01 1.1378038036793912e+00 0 -1 1
58 1 1.1032549769738204e-01 4.9357635076577671e+00 8.3880539539756800e+00 0 0 -1
484 1 1.1889628692589906e+01 1.4475294143244836e+01 3.6549572181405821e+00 0 0 0
1137 2 5.1451911372898262e+00 1.2375312884396418e+01 7.0242989711057611e+00 0 1 0
1330 1 8.4477940339110642e+00 6.7471064909613983e+00 5.6004918522226876e-01 0 0 0
571 1 1.7964875152031698e+01 1.5047971446423889e+01 3.6433541369742506e+00 0 0 0
227 2 2.4893385076244923e-01 1.1109696012763125e+01 2.3282741069612585e+00 0 0 0
945 2 1.9650184669122055e+01 9.2503261599202580e-01 1.1302131778201376e+00 0 1 1
1587 2 1.2513632832804932e+01 1.1190725217393100e+00 2.5414215442317989e-01 0 1 1
1750 1 7.0805197115863852e+00 1.2017529189330011e+01 1.6458709100670645e+00 0 1 1
1586 2 1.3725632534853897e+01 2.2796837366287859e-01 2.6603915968266131e-03 0 1 1
1301 2 5.8231096306056438e+00 1.5898741755909050e+01 1.9480816830609691e+00 0 0 0
910 1 1.7508178520644972e+01 1.1110577574620823e+01 3.6001745262728280e+00 0 0 0
1155 2 1.8831253306856368e+01 1.2067720948954598e+01 4.3173032257730926e+00 0 1 0
321 2 1.1275860075323978e+01 8.9893090871746733e+00 9.3833354680868144e+00 0 -1 1
1368 2 1.6997332814257305e+01 1.8452929664314713e+01 2.0255314266147367e-01 0 0 1
1302 2 5.5487525460967939e+00 1.7368939297251334e+01 1.5723398461879738e+00 0 0 0
108 2 1.9693159912007257e+01 1.0747576662372293e+01 7.4716198382404668e+00 0 0 1
320 2 1.2413835410020123e+01 1.0209655216773474e+01 9.0588730539575035e+00 0 -1 1
1375 1 2.5234787829279632e+00 3.5821483832930928e-01 9.3327599029609729e+00 0 1 1
95 2 8.8782645375516918e+00 7.6715368415294920e+00 3.7469798437286350e+00 0 0 0
1086 2 2.0044378073355689e+00 1.0061145048756288e+01 3.5286793848335605e+00 0 0 0
450 2 4.8586938878235912e+00 1.9701305847511257e+01 3.5483711746793021e+00 0 0 0
665 2 2.9795054587778278e+00 4.2196262223243490e+00 7.4883885714631164e+00 0 0 0
919 1 8.0873580088470232e-03 1.6724241184788095e+01 3.3752266765807781e+00 0 0 0
1537 1 2.9352740493490401e+00 1.3572617816324659e+01 2.5587628777214912e+00 0 0 1
749 2 1.9711301886834047e+01 1.2347584119446296e+01 1.8917575572177656e+00 0 0 1
739 1 1.0345317049985212e+01 2.1333834911251803e+00 5.0747129276778145e+00 0 0 1
683 2 2.2559434563711367e+00 1.7197479995065475e+01 6.2190124057431078e+00 0 -1 0
1123 1 1.9554329315193812e+01 4.5801958742562361e+00 3.7593263260484804e+00 0 1 0
1300 1 5.1574609542623806e+00 1.6514659084642357e+01 1.4354378189549197e+00 0 0 0
1792 1 1.0001299470335285e+01 1.9431782198722431e+01 3.4423514921408462e+00 0 -1 1
1160 2 1.5082782622471207e+01 4.2507712339914399e+00 8.2643947000862124e+00 0 1 0
296 2 1.6627163147924868e+01 2.6162629857001378e+00 3.1390373578368740e+00 0 1 0
550 1 1.1827395499115585e+01 1.8029866928653107e+01 2.2458048123152161e+00 0 0 0
1312 1 5.1839778523420510e-01 3.9511648701289968e+00 4.4036134209208750e+00 0 0 1
741 2 1.0646391964599996e+01 2.7706613910181286e+00 4.4243559410854942e+00 0 0 1
573 2 1.8487360237593126e+01 1.4521146946121540e+01 4.3375208225489175e+00 0 0 0
740 2 9.3425309302231412e+00 2.3855163913338324e+00 5.1620247685365896e+00 0 0 1
1555 1 1.1509687339983113e+01 1.5942052772334769e+01 7.1223925853701953e-01 0 0 1
276 2 1.4125054544991400e+01 1.7056976027688158e+01 4.6005935209652211e+00 0 0 0
936 2 5.8650364141521614e+00 1.2100052579560751e+01 4.2723970807496432e+00 0 1 1
742 1 9.0341538271941637e+00 1.0392173247098640e+01 5.0548451055077015e+00 0 -1 0
676 1 -2.4960925137788254e-01 7.9451478797329909e+00 1.6990051021123305e+00 0 0 0
562 1 1.6908379401519998e+01 1.3939643671287227e+01 7.0308656829746115e+00 0 0 0
1562 2 3.1585588555705364e+00 1.8439733566415066e+00 8.6513434631673611e+00 0 1 0
965 2 5.2956054090794629e+00 5.4612616366613533e+00 7.7545585476349395e+00 0 1 0
242 2 5.4736237596125044e+00 1.4093424898997718e+01 3.4079267829274174e-01 0 0 0
64 1 1.6503628775299191e+01 7.3625620060777219e+00 4.4549863161953587e+00 0 0 -1
900 2 7.1790840677015035e+00 1.0871879551076072e+01 5.1540606460428604e+00 0 0 0
1135 1 4.2556868217716222e+00 1.2173487081299667e+01 7.3592066173836983e+00 0 1 0
86 2 8.1217883190491609e+00 3.7037784040609387e+00 2.3349953313180851e+00 0 0 0
620 2 -1.8304021366197618e-01 1.7823325085519603e+01 6.1422930834153755e+00 1 0 0
245 2 5.8087525095609225e+00 3.6274662233689989e+00 2.6603753213725652e+00 0 1 0
1396 1 1.9763738388505285e+01 6.2711926882566367e+00 4.9840608393656755e-01 0 -1 1
1334 2 1.2056913160116091e+01 1.2206703450534670e+01 9.4162146961646320e-01 0 -1 1
551 2 1.1572500432007612e+01 1.7406200960439364e+01 1.6001100629109606e+00 0 0 0
1788 2 4.9167774900319809e+00 1.9356556995665585e+01 7.6589111398514484e+00 0 0 1
1153 1 1.9442933437120661e+01 1.2777077687428656e+01 4.6874997786416133e+00 0 1 0
914 2 1.7295203447891165e+01 1.8519600086629229e+01 3.5869326146379286e+00 0 0 0
689 2 1.2505381349837691e+01 2.8670683093173528e+00 5.8625922587459707e+00 0 0 0
685 1 2.5627524152483478e+00 1.6619749800026526e+01 3.3682909995671162e+00 0 0 0
1353 2 8.7913930672409766e+00 1.4796574674959491e+01 5.5911018546215097e+00 0 0 1
1358 2 6.1977398095220284e+00 1.6400238114842999e+01 4.0903272257415901e+00 0 0 -1
668 2 2.0319341319736295e-01 6.1546800213379460e-01 7.2644224936287518e+00 0 1 0
746 2 1.3054466042836527e+01 2.6831861378854310e-01 3.9332990757618593e+00 0 1 1
920 2 -2.8454106742124585e-01 1.6934863431095255e+01 4.3084179577816286e+00 0 0 0
1156 1 6.8472457486646539e+00 9.3122552222470514e+00 7.9753446534136208e+00 0 0 0
743 2 9.4942346924470460e+00 1.1108822501905642e+01 4.5970753356009499e+00 0 -1 0
684 2 2.0271893559119829e+00 1.8885759429920235e+01 6.5122820631244158e+00 0 -1 0
458 2 1.5554134809590009e+01 7.9994317650586417e+00 8.3604638035637926e+00 0 1 0
1097 2 1.3379298223584364e+01 1.4122287804745083e+01 6.2796089994788842e+00 0 1 0
1823 2 1.4869288870638343e+01 1.2901770111131505e+01 2.0298390337367005e+00 0 0 1
871 1 3.8018831543545124e+00 5.3778537870370402e-01 2.7085398444189361e+00 0 1 0
478 1 1.8997230645332394e+01 1.6853988379820459e+00 7.7261311356057059e+00 0 1 -1
291 2 1.2895723323250671e+01 4.7414298810080204e+00 9.6166397180913261e+00 0 0 -1
1794 2 9.0707976636590129e+00 1.9509616582095617e+01 3.0888050965571501e+00 0 -1 1
487 1 1.6176412195065659e+01 4.8844932127278913e+00 5.5176006702221745e+00 0 1 -1
25 1 3.4192334486498352e+00 1.3135620109723300e+01 9.7573060209297129e+00 0 0 0
259 1 3.6913584044024326e+00 1.4852325285413777e+01 5.2811272767627466e+00 0 0 -1
231 2 1.0926398213002958e+01 1.3006272374458844e+01 3.6656619741974623e+00 0 0 0
85 1 8.9968585310476694e+00 3.5406071530018357e+00 1.9593809327947369e+00 0 0 0
937 1 5.9331868476103624e+00 1.4243043617126434e+01 6.6468955119988546e+00 0 0 -1
1830 2 1.8416065688923890e+01 1.8917169413128196e+01 9.7970544413098235e+00 0 -1 0
1732 1 1.5381961272131006e+01 7.8448031523390425e+00 2.0216582506384086e+00 0 1 1
935 2 4.7011714785351977e+00 1.2900111997802318e+01 3.4370522916881847e+00 0 1 1
787 1 1.9565350490273197e+01 1.6679243076748364e+01 9.2739273122132051e+00 0 -1 0
246 2 6.6465014613029298e+00 4.7153854490046463e+00 3.5736730124497011e+00 0 1 0
1521 2 1.9107052289813378e+01 9.2967268541320927e+00 1.0356473295999531e+00 0 0 1
1603 1 1.2757675584381021e+01 1.0072477252613337e+01 5.0776565058126497e+00 0 1 1
1398 2 1.8934149886637744e+01 5.9737884377154673e+00 9.2553130737227218e-01 0 -1 1
944 2 1.9586887588666638e+01 6.4320276394168741e-01 2.8044982926386672e+00 0 1 1
686 2 3.1835819233947213e+00 1.6863478943784497e+01 2.6956810573826235e+00 0 0 0
257 2 1.1402187168171883e+01 8.4909409843304717e-01 5.5907255700170024e+00 0 1 1
1810 1 1.5925678903622529e+01 1.4973034285257755e+01 1.7415179526029212e-01 0 0 1
744 2 9.4083423775122945e+00 1.0205516482271507e+01 6.0196146700819728e+00 0 -1 0
921 2 9.4099006201969648e-01 1.6688151959647715e+01 3.3395582425287564e+00 0 0 0
1785 2 8.1981759392961902e+00 6.6485828129896527e+00 9.3963090849919801e+00 0 0 0
219 2 1.9322484962450591e+01 7.5196893214997020e+00 4.4504664610144715e+00 0 0 0
966 2 6.3415157683929673e+00 5.4766837623062443e+00 8.8156060732391381e+00 0 1 0
707 2 9.4882509446974890e+00 1.3035854270160131e+01 7.5385988655058309e+00 0 -1 0
1159 1 1.5893838603151170e+01 3.8872868792356869e+00 7.8505880463013362e+00 0 1 0
885 2 1.8124192317809538e+01 4.1400484695334514e+00 1.0049456902569629e+01 1 0 0
693 2 1.3701572904624483e+01 1.2433399831337359e+01 9.1499891213590026e+00 0 0 0
94 1 8.1577993247871294e+00 8.2790044627350845e+00 3.8399526701661038e+00 0 0 0
433 1 1.9882576207052857e+01 7.7328549424424775e+00 6.0650585412407585e+00 0 1 -1
1321 1 4.7381212288912016e+00 8.5498114397188392e+00 5.2205117831256667e+00 0 0 1
1386 2 1.2816156099206657e+01 6.3771907858703107e+00 4.8451412411961364e-01 0 0 1
47 2 6.5039505188865849e+00 1.9331498642935959e+01 2.5233023512270552e+00 0 -1 0
1209 2 1.8130401958529788e+01 2.9740076436687957e-01 4.8387713532035255e+00 0 1 0
11 2 1.4191635537839087e-03 1.7705088499247907e+01 2.1951084453082119e+00 0 -1 0
518 2 1.3470583959217976e+01 4.5755453676661606e+00 4.8235680317391934e+00 0 1 0
1806 2 -6.1957104227506332e-02 1.3283627969125641e+01 4.8661215253098460e+00 0 0 1
552 2 1.1185699469928583e+01 1.8704649717941283e+01 2.4395886285362769e+00 0 0 0
1085 2 3.3904122004445374e+00 1.0155603369740671e+01 2.7308963985016188e+00 0 0 0
563 2 1.7364288951692725e+01 1.4817896694735445e+01 6.9535097578340688e+00 0 0 0
1768 1 8.2821611126239993e+00 1.6986514920443490e+01 5.7143018643423404e-01 0 0 1
666 2 1.6598728244055587e+00 4.8486933623544868e+00 7.2772881194797261e+00 0 0 0
702 2 3.3911140362784282e+00 1.7842600099284418e+01 7.6532388380049170e+00 0 0 -1
1751 2 6.5369101910972347e+00 1.2368802918826104e+01 2.4421359932750515e+00 0 1 1
893 2 2.4067671580249317e+00 4.2678643729247305e+00 4.2111048956108252e+00 0 0 0
10 1 -2.8837761412848550e-02 1.8471300913749797e+01 1.5471825020331615e+00 0 -1 0
19 1 1.2055463688742467e+00 6.7609451824844564e+00 4.8105559409927308e+00 0 0 0
1596 2 8.3715721281097739e+00 6.0490133442053811e+00 5.7780376256598789e+00 0 1 0
481 1 7.3041651013314848e+00 1.7565997376690291e+01 7.1568578648630536e+00 0 0 0
1351 1 8.3463064618879095e+00 1.3896011999022656e+01 5.5722806525046034e+00 0 0 1
1124 2 1.8874276890469471e+01 3.8567500623524293e+00 3.6348591051588688e+00 0 1 0
344 2 1.8376411221689658e+01 1.4102591416764069e+01 2.2148539363955821e+00 0 0 0
675 2 1.2869744570466446e+01 8.1420437893445801e+00 6.9889895517489657e+00 0 -1 0
456 2 5.5991234779977628e+00 1.5531873561290906e+01 9.3806083851521134e+00 0 0 0
1316 2 1.9258068445223608e-01 1.5012800426456307e+01 9.1248503066915134e+00 0 -1 0
680 2 4.6994360905691546e-01 8.1717345243626855e+00 9.4648331122980363e+00 0 0 0
897 2 7.0001304832025513e+00 2.7473883737164662e+00 4.2282174907521952e+00 1 0 0
474 2 8.8726655254179416e+00 1.6946619095492579e+01 6.1317314388099282e+00 0 1 0
955 1 9.3693305556018007e+00 1.5807560006519981e+01 2.9441416899136192e+00 0 0 0
436 1 2.7172265687293957e+00 7.1002175241598584e+00 2.5960499812597315e+00 0 0 0
497 2 3.8026368663711070e+00 9.2471090623290593e+00 7.5838610062632590e+00 0 0 -1
1126 1 1.0147482245164747e+01 6.5068631630118228e+00 2.7928421345496748e+00 0 1 1
673 1 1.3262576562863364e+01 7.2525791201699832e+00 6.8753466923982964e+00 0 -1 0
482 2 6.6905801849046904e+00 1.7373463796518973e+01 6.4538951873276629e+00 0 0 0
139 1 1.9876074235534354e+01 5.6186520274466778e-01 5.5628693223852119e+00 0 0 0
1384 1 1.3402852937303479e+01 6.1580484760261607e+00 1.2356477852881753e+00 0 0 1
20 2 2.1220892122022261e-01 6.7462950097647418e+00 4.9659960071962850e+00 1 0 0
1380 2 1.3358329659495103e+01 1.8611070295365568e+01 1.8429472052947420e+00 0 0 1
884 2 1.8327053610109534e+01 3.0978348870854697e+00 8.9280882071877219e+00 0 0 0
1747 1 1.6556356350901263e-01 9.9419025121351705e+00 3.5692651644231685e+00 0 0 1
288 2 1.6997382238941281e+01 4.8339862020727047e+00 1.8974235097101511e+00 0 0 0
1333 1 1.2909610511156894e+01 1.1796315101406341e+01 1.0785425331631200e+00 0 -1 1
682 1 2.6311738543207666e+00 1.8122135316733232e+01 6.2512154071001396e+00 0 -1 0
908 2 9.4607431581766388e+00 1.3190976228400539e+01 7.3289064042773155e-01 0 0 1
1575 2 1.1633837198681331e+01 1.2692919482816288e+01 6.6754990022362488e+00 0 0 0
260 2 2.9799370500608875e+00 1.4249230427895226e+01 5.5118648195324154e+00 0 0 -1
1733 2 1.5283990342698148e+01 8.5649792117338084e+00 1.3871307354893574e+00 0 1 1
687 2 3.0040527728038291e+00 1.6011776072643197e+01 3.9687191536304138e+00 0 0 0
486 2 1.2670229279800413e+01 1.4442670268859990e+01 3.1062218804270176e+00 0 0 0
1357 1 5.7246895147759131e+00 1.6935984914169666e+01 4.7603170127508188e+00 0 0 0
1314 2 1.0040653692628132e+00 3.1184940002562342e+00 4.2323514314623720e+00 0 0 1
671 2 4.1605268102317945e+00 3.3611384732507958e+00 5.0906006429311752e+00 0 0 0
463 1 1.3842618679421033e+01 1.9484490132884105e+01 7.5138837155584204e+00 0 0 -1
700 1 3.9357390448934808e+00 1.7986428053769711e+01 8.5222773040940609e+00 0 0 -1
496 1 4.3146910494536366e+00 9.5956501814592610e+00 8.3280286069751259e+00 0 0 -1
1793 2 1.0107287371807777e+01 5.3872610160116863e-01 3.8990072711504395e+00 0 0 1
1208 2 1.6622254390670587e+01 6.8482990476329242e-01 5.1264955583794993e+00 0 1 0
285 2 1.9743385602660986e+01 4.4974721721301290e+00 5.4197405648330852e+00 0 0 0
701 2 4.0881705324956403e+00 1.7042836687310110e+01 8.8668067725652815e+00 0 0 -1
738 2 1.4877332516762428e+01 1.3132712997157714e+01 4.4554243468216965e+00 0 0 0
1605 2 1.3689539097477477e+01 1.0167453724625272e+01 5.1501353567009795e+00 0 1 1
1376 2 2.8249899125391806e+00 1.9265314701453399e+01 8.9716858540078004e+00 0 0 1
1127 2 1.0776788170237246e+01 7.2275710384367224e+00 3.0770933754889658e+00 0 1 1
457 1 1.5568603240855484e+01 7.0498896535780071e+00 8.3346964753940949e+00 0 1 0
222 2 1.6901296339299325e+01 1.7560267284310495e+01 7.2863835484492681e+00 0 1 0
512 2 2.4846186906678613e-01 1.0435607545244588e+01 9.8453997179269805e+00 0 -1 -1
1829 2 1.7372343699696728e+01 2.7525345603463713e-01 9.9137602545784187e+00 0 0 0
654 2 4.0051074552035555e+00 6.7767543531628709e+00 9.3004372344199009e+00 0 0 0
712 1 5.3260264468362157e+00 8.8718615599610899e+00 6.0340813500006263e-01 0 0 1
873 2 3.8617226406382521e+00 1.5712130610705328e+00 2.4677975540098251e+00 0 1 0
503 2 1.8595951413044261e+01 1.6613909589810852e+01 7.9292215271644269e+00 0 1 1
473 2 9.2597727286631013e+00 1.6820448077241291e+01 4.6017902131748940e+00 0 1 0
1812 2 1.6729529845926145e+01 1.5196700889105516e+01 6.6897408330620856e-01 0 0 1
1755 2 8.8168283834831107e-02 1.7797545200331881e+00 9.9939503394493823e+00 0 1 -1
1567 1 5.9668732500719148e+00 6.6283085238697801e+00 3.3092112864890026e+00 0 -1 1
60 2 3.2218539223161613e-01 5.8750211134787227e+00 8.7046108299095852e+00 0 0 -1
1741 1 6.4842952565716256e+00 2.6529238964780335e+00 8.5061775018662527e+00 0 1 0
1087 1 1.9587892437434595e+00 8.6561877865959591e+00 6.7439077733538975e+00 0 1 0
498 2 3.7058595025317027e+00 9.4976602978787739e+00 9.1233658423204655e+00 0 0 -1
1366 1 1.7254984063591927e+01 1.7558989361866754e+01 6.1105479654426587e-01 0 0 1
882 2 6.8607085861321337e+00 6.0145510052711533e+00 4.7645436608022157e-01 0 1 0
1573 1 1.1353493653175073e+01 1.1781265799735277e+01 6.7932408731452476e+00 0 0 1
1604 2 1.2197491644929634e+01 1.0729564465270785e+01 5.4984362021125150e+00 0 1 1
1541 2 1.2530112555455264e+00 1.5132243475304989e+00 1.6774644408107253e-01 0 0 1
1132 1 1.5542671147139773e+01 1.7754393749612281e+00 1.9694531953061614e+00 0 1 0
295 1 1.7189057973788358e+01 3.3958047436268104e+00 3.4671789959932844e+00 0 1 0
251 2 8.1765201117971298e+00 9.0412242526977202e+00 2.4205938265115221e+00 0 -1 0
270 2 1.3587958229498676e+01 1.6991792176683802e+01 8.9489887989259760e+00 0 0 0
268 1 1.4482960368146406e+01 1.6634185626113350e+01 9.1557350636616643e+00 0 0 0
733 1 1.5422038269979737e+01 1.6165034484439835e+00 6.3491112161635108e+00 0 1 0
1743 2 6.1504981659779778e+00 1.7229871093226323e+00 8.2650903908008235e+00 0 1 0
1535 2 6.3531732246892565e+00 1.4370721688739776e+01 3.3626095570996766e+00 0 -2 0
217 1 1.8936193495748807e+01 7.2640095068545518e+00 3.5866212973442360e+00 0 0 -1
653 2 2.8338424122103447e+00 6.4090377812061323e+00 8.3960854660565101e+00 0 0 0
221 2 1.6626882808922915e+01 1.8650704553477162e+01 8.2518607125177983e+00 0 1 0
452 2 2.6305019482682370e+00 1.1599174491664517e+01 6.9760155356142466e+00 0 0 -1
938 2 6.6751047033674391e+00 1.4043961278905597e+01 6.0733657281697742e+00 0 0 -1
345 2 1.8992545879210020e+01 1.3986363635666716e+01 7.0760747653024325e-01 0 0 0
26 2 3.5664184927595342e+00 1.4043890625668748e+01 9.2964310675569344e+00 0 0 0
492 2 8.9418071860370194e+00 2.7811052545818928e-02 5.8030920812419184e+00 0 1 0
881 2 5.9001452809908406e+00 5.6452530170992556e+00 1.5199556873597750e+00 0 1 0
1315 1 -5.9439457977606747e-02 1.4486775629610227e+01 8.3663574366217137e+00 0 -1 0
96 2 8.5274247090719317e+00 9.0514173209458413e+00 4.3266381310129223e+00 0 0 0
1536 2 7.7813332002135258e+00 1.5090766569197470e+01 3.1469867993584013e+00 0 -2 0
1799 2 1.4052051260247534e+01 3.1183761656188445e+00 1.1829229675958521e+00 0 1 1
308 2 3.4486167311495670e+00 2.7963748685348108e-02 8.8560695619289975e-01 0 1 0
490 1 8.4946107260230228e+00 2.4179066661617341e-01 6.6741801799018443e+00 0 1 0
1780 1 1.3892332853044556e+01 1.5140869700184670e+01 1.7052762980805474e+00 0 0 1
269 2 1.5150508122515156e+01 1.7148107928513941e+01 8.6740714140648070e+00 0 0 0
1337 2 1.2666222577366318e+01 7.3354032614605407e+00 3.8529732079128172e+00 0 0 0
1803 2 1.2113163763223250e+01 3.5643950324670755e+00 2.2919453944305257e+00 0 1 1
1136 2 4.3009731927637942e+00 1.1216663465429900e+01 7.5608905581193531e+00 0 1 0
1805 2 1.2308530736603374e+00 1.2420193505341977e+01 5.2161519808272372e+00 0 0 1
894 2 3.1722874598572441e+00 5.3457006486682781e+00 3.3558474224959887e+00 0 0 0
1520 2 1.8588471297771012e+01 8.4033275108205814e+00 2.2448621537707036e+00 0 0 1
244 1 6.6125926495250305e+00 3.8161427605249436e+00 3.1107388583214872e+00 0 1 0
1158 2 7.0912957046329295e+00 9.8425673851922184e+00 7.2173440935033568e+00 0 0 0
939 2 6.3721215973264034e+00 1.4713522913705170e+01 7.4393160133506093e+00 0 0 -1
454 1 4.6999820519381625e+00 1.5687451098115579e+01 9.7079414384791338e+00 0 0 0
1801 1 1.1452026006386896e+01 3.6453491573902554e+00 3.0085985989357007e+00 0 1 1
1593 2 9.1371020824000428e+00 6.6812289534305913e+00 7.4206268100066026e+00 0 1 1
1734 2 1.5634666797336914e+01 8.1514952267962073e+00 2.9304740504246682e+00 0 1 1
735 2 1.4886222801604243e+01 9.2930609821088850e-01 6.8535774943423853e+00 0 1 0
289 1 1.3250749418721288e+01 4.0394905182818377e+00 8.9892408878824384e+00 0 0 -1
1359 2 4.9167092037504521e+00 1.6501989613083847e+01 5.0773785389387784e+00 0 0 0
1150 1 7.2965692460681790e+00 1.5501178697442594e+01 8.5350490833589792e+00 0 0 0
66 2 1.7471185159124119e+01 7.5443331193943415e+00 4.3242823641440111e+00 0 0 -1
952 1 1.1494932215954703e+01 4.3708010248824065e+00 6.9027375712966572e+00 0 1 1
37 1 1.8278469522684812e+01 6.3077498232670974e+00 7.9251286872675326e+00 0 0 -1
1781 2 1.4058396594234353e+01 1.5828055539834061e+01 2.3740469608912136e+00 0 0 1
737 2 1.5030048948620582e+01 1.4595711294686534e+01 4.6755648421783480e+00 0 0 0
652 1 3.0672308488050630e+00 6.5996780042296379e+00 9.3021139746180381e+00 0 0 0
688 1 1.3298258403530077e+01 2.8802550498472552e+00 5.2249572473379731e+00 0 0 0
667 1 1.1092225905136066e+00 4.6417634137314462e-01 7.0813919855135117e+00 0 1 0
1088 2 1.7329068400309651e+00 8.1911916968515204e+00 5.9310276167646645e+00 0 1 0
1113 2 7.0559237624662874e-01 1.5428175348734554e+01 7.1507488056418866e+00 0 0 0
243 2 4.0409818869519372e+00 1.4307456012832880e+01 6.1626796310891019e-01 0 0 0
449 2 5.6084135362592571e+00 1.8671254738001565e+01 4.4085933652775235e+00 0 0 0
284 2 1.9201784104472871e+01 3.3343392096593991e+00 6.2508438307825411e+00 0 0 0
1191 2 1.9941416478239184e+01 1.8283469619577712e+01 5.3959165431731710e+00 0 0 0
48 2 6.6396730911180724e+00 1.9609733835568537e+01 1.0132161980124421e+00 0 -1 0
1559 2 1.4076215816719822e+01 6.3130249967217333e-02 9.5159295842692657e+00 0 1 1
1120 1 1.1608739617879309e+01 1.4728951851638978e+01 8.9842587432224104e+00 0 0 0
1787 2 5.3422596987750577e+00 4.3674663855808865e-01 6.5122231815615628e+00 0 1 1
1800 2 1.3439556551427634e+01 4.5596480189877191e+00 1.0412337188505056e+00 0 1 1
475 1 4.2465580091781039e+00 2.9142908394574358e+00 1.8561542810802378e+00 0 1 1
477 2 4.2116569695015125e+00 3.2033115892149153e+00 9.1127664453747925e-01 0 1 1
46 1 7.0600529199979487e+00 1.9176699084807257e+01 1.7443863244283522e+00 0 -1 0
1378 1 1.4244344048357577e+01 1.8709505022411950e+01 1.3725024819317051e+00 0 0 1
1534 1 6.8081536340214832e+00 1.5195981584619958e+01 3.0111562912175307e+00 0 -2 0
529 1 1.5614954224737659e+01 9.7770559127948271e+00 5.2384504579304316e+00 0 1 -1
992 2 1.9711128613727038e+01 1.3001383142612667e+01 7.8204949606551883e+00 0 0 0
275 2 1.5589180948728689e+01 1.7056496730250604e+01 4.0280470623039397e+00 0 0 0
459 2 1.4919429997370488e+01 6.7040744534272010e+00 7.7121329796437639e+00 0 1 0
1592 2 1.0370937368233394e+01 6.1014484544189136e+00 6.6297829709618341e+00 0 1 1
51 2 1.1364508240295347e+01 8.6077591219194982e-01 7.9073162027760304e+00 0 0 0
1581 2 8.6883070949139052e-02 1.7363421312254694e+01 9.2727639021293324e+00 0 -1 0
258 2 1.1594371182493102e+01 1.9097564831861881e+01 5.6134832442207570e+00 0 0 1
670 1 4.5995461541342442e+00 2.7743546224330835e+00 5.7269873522691128e+00 0 0 0
461 2 4.5661109016102319e+00 5.1525262961409295e+00 6.0826806224554621e+00 0 1 0
50 2 9.9281295246769865e+00 1.4558030753079763e+00 8.1971788327579578e+00 0 0 0
736 1 1.4918670183428338e+01 1.3802260090310106e+01 5.1961702163336732e+00 0 0 0
564 2 1.6262038109893204e+01 1.3925864201232455e+01 6.2240304487222744e+00 0 0 0
453 2 1.6742634436377846e+00 1.0337494973101910e+01 6.6354331821153467e+00 0 -1 -1
78 2 1.1113762850612440e+01 9.3030957777600634e+00 1.7291594445241201e-01 0 0 0
1569 2 5.2617522326016317e+00 7.2744012230909965e+00 3.6203620192067505e+00 0 -1 1
65 2 1.6562136388617542e+01 6.5833113088698907e+00 5.0616171302053514e+00 0 0 -1
1574 2 1.1412758262669174e+01 1.1666776631368290e+01 7.7348351479507622e+00 0 0 0
572 2 1.8056892415485969e+01 1.5984340526703924e+01 3.7646206893304646e+00 0 0 0
1798 1 1.3276056376696044e+01 3.6010061790000938e+00 9.4074328541970098e-01 0 1 1
448 1 5.7851892752305183e+00 1.9560903735782823e+01 3.9607947048266485e+00 0 0 0
1602 2 1.6813780908648923e+01 9.8199178277682542e+00 5.1571767115476042e-01 0 1 1
250 1 8.1780055843711814e+00 9.3709917226775001e+00 1.4862646659080887e+00 0 -1 0
1563 2 4.0117154317876142e+00 2.4306048528852071e+00 7.5163992333446528e+00 0 1 0
714 2 6.0902153144535074e+00 8.5728623711007970e+00 1.0996821563669925e+00 0 1 1
261 2 4.5252783716040632e+00 1.4470297843648027e+01 5.7070858290734474e+00 0 0 -1
218 2 1.8950271360631490e+01 6.2878954049338844e+00 3.5372890620089930e+00 0 0 0
101 2 9.7794036706205016e+00 8.4543477088426258e+00 7.0006484589368005e+00 0 0 0
228 2 7.6198652248404097e-01 1.1575112560407867e+01 8.7940681900313855e-01 0 0 0