LAMMPS data file via write_data, version 8 Apr 2021, timestep = 1691000

1008 atoms
2 atom types

0.24330416735739924 18.15625083263866 xlo xhi
0.0038485262630888655 22.566540473738797 ylo yhi
0.1759301758212475 19.329785824177407 zlo zhi
-0.2090782471018293 -6.575316818364026 -0.0222630586056264 xy xz yz

Masses

1 16
2 2

Atoms # atomic

1 1 6.527098883878486 0.883121846604302 5.056155640915613 0 0 0
3 2 6.726412025259018 1.3677315404702106 4.234095402801998 0 0 0
4 1 3.893731152424818 1.1226299000781117 5.323393956010416 0 0 0
5 2 4.79871943271079 1.0382710345503754 5.097852002842684 0 0 0
6 2 3.9007253196759 1.5707507647519663 6.226934928840554 0 0 0
7 1 -0.5398873852195784 6.3404286713227505 5.039274736110849 0 0 0
8 2 -0.5120180116041545 5.928598688708654 5.958618368311015 0 0 0
10 1 2.2244251934546186 6.578982682107721 5.000107609834799 0 0 0
11 2 1.2878534175983631 6.818934762276619 5.10828136544585 0 0 0
12 2 2.793008885578014 7.358694631613162 5.181164939847601 0 0 0
18 2 5.803594141455852 5.366703459535299 1.357855109546205 0 0 0
25 1 4.742409677452804 6.180180607758641 6.969140918532109 0 0 0
26 2 5.441636776179906 6.870318514142033 7.206150397893317 0 0 0
27 2 3.92083952184124 6.630079735447924 7.337857830092283 0 0 0
28 1 5.8982459181180005 6.175362045512365 2.6420009820174206 0 0 0
29 2 5.92435144307255 5.680814161330398 3.547647739142404 0 0 0
30 2 5.186033665276315 6.817350868480436 2.6531919543046287 0 0 0
31 1 1.1115300949460696 1.2593300991189922 2.5741791154020617 0 0 0
33 2 1.0154391908246159 1.4553231408440472 3.5322974904377618 0 0 0
34 1 -0.12429484498185311 1.060282203038958 7.180566045817012 0 0 0
36 2 0.1242487478993398 1.708200585631469 7.869610336063844 0 0 0
37 1 6.512329007382543 2.308869325196425 2.6169108128954206 0 0 0
38 2 5.654823374427417 2.7467483886788506 2.7322975606249535 0 0 0
39 2 7.180665994463547 3.043578057834652 2.7718761510143044 0 0 0
40 1 4.213591808260575 2.6993199390692144 7.447342877575237 0 0 0
41 2 5.0888712041358435 3.0393813738319317 7.2456011661022925 0 0 0
42 2 3.5685510192682566 3.395686475025089 7.1892390752445685 0 0 0
43 1 -0.08605593518488608 4.899439909308488 7.407718885959079 0 0 0
44 2 -0.7468872848523095 4.1915341764473535 7.2059975645040435 0 0 0
45 2 -0.450213613617341 5.35873398258577 8.296585412165257 0 0 0
46 1 1.9561849130243603 5.105025858419107 2.691083025438012 0 0 0
47 2 1.024315032644289 4.758806510394483 2.922818835514432 0 0 0
48 2 2.1881726727824535 5.768202802593375 3.383338439393726 0 0 0
49 1 6.849366213861846 3.1214082182416636 6.705377751356182 0 0 0
50 2 6.415382722630608 3.6377020666892714 6.002352502895999 0 0 0
51 2 6.976188795555584 2.2590203479035176 6.334420658495036 0 0 0
52 1 4.007080205628046 3.3555633632432715 3.41263982785874 0 0 0
53 2 3.1970163486393064 3.8279356024573206 3.0062260154614506 0 0 0
54 2 3.6928911603036503 2.617461738818451 3.9906720271850387 0 0 0
57 2 -0.37584131935317744 3.5610739824379847 3.9803541242802347 0 0 0
58 1 2.2666404829140636 4.262536149328242 6.690216813748096 0 0 0
59 2 2.565693202315998 5.107762768186781 6.326736549446444 0 0 0
60 2 1.3311418088242475 4.516156474254602 6.95876682373453 0 0 0
61 1 8.21724376280762 7.11362072649974 1.686965554950997 0 0 0
62 2 7.36281413202604 6.860919968643106 2.080235731373045 0 0 0
64 1 2.3229854172248348 7.0082227454001895 8.315625873731113 0 0 0
65 2 1.6471814288429407 7.535884913534912 7.728042502099204 0 0 0
72 2 3.723246073143314 1.1673195591832803 1.080001105241722 0 0 0
73 1 5.575893929937294 4.849410225681491 4.836915783781108 0 0 0
74 2 5.086898782831901 5.339331538999811 5.573250361276197 0 0 0
75 2 4.836074826354855 4.347877352850665 4.385856698682479 0 0 0
76 1 0.8028978703562129 2.5312719241496575 5.063356642979969 0 0 0
77 2 0.39662778407077326 1.9740091776500897 5.820009719548257 0 0 0
78 2 1.3826864076225174 3.196294166304953 5.502823972636116 0 0 0
91 1 8.808231339348378 6.673470239985288 5.15330726757644 0 0 0
92 2 8.554982959033001 5.98770786947408 4.51723203913305 0 0 0
93 2 9.796409926449972 6.813428511209013 5.0528448220828945 0 0 0
115 1 10.286583647041471 1.4004226377878548 2.8083335019960174 0 0 0
116 2 10.312219076283561 2.1233639911309203 2.1023996581203344 0 0 0
118 1 9.20425191459987 1.1930712045071985 7.501461470598451 0 0 0
120 2 9.362011992297557 1.6992528270772738 6.617661664908902 0 0 0
127 1 8.788555009099255 4.97843744030287 7.3418584154265965 0 0 0
128 2 8.22774660023519 4.198026423906908 7.15571668867071 0 0 0
129 2 8.670907332670813 5.550264821708415 6.511262845095423 0 0 0
130 1 10.796475027366533 5.171572946077326 2.5249176855045956 0 0 0
139 1 8.203082543669105 4.47002998941608 3.6082101415027763 0 0 0
140 2 9.07170597516898 4.758397313688136 3.2328160081254 0 0 0
141 2 8.504525022166437 3.8347113938030244 4.319921484431547 0 0 0
153 2 6.472856646755159 1.5563357231105395 8.83875514474843 0 0 0
160 1 9.6825744702584 2.5399848646426686 5.095995217073066 0 0 0
162 2 10.08752802461173 2.108684974682298 4.23303389102654 0 0 0
169 1 6.752697678362298 8.609889371148265 4.758935509707392 0 0 0
170 2 7.585492892240738 8.145561721596254 4.825615675587679 0 0 0
171 2 6.7279522073899445 9.263204853667407 5.487416271871059 0 0 0
172 1 3.934234706396661 8.716915564217068 5.0010095081053105 0 0 0
173 2 3.8924646548540043 9.409998051688204 4.291873496035758 0 0 0
174 2 4.8404019905518885 8.33925644116604 4.872025881169676 0 0 0
199 1 1.165699738902934 8.694793246584576 2.683634228315894 0 0 0
200 2 0.9159426944917152 9.215711064441605 1.8443556554918639 0 0 0
201 2 0.4942328231249699 7.929458492125305 2.5778884392315313 0 0 0
202 1 0.49374890748449773 8.57908325256698 7.184959554128149 0 0 0
203 2 -0.4756334373058355 8.398886037976519 7.248148061132305 0 0 0
204 2 0.5780149043492743 9.072234629605889 6.318692299867605 0 0 0
205 1 6.23264052397675 10.07606966437992 2.6237817388866254 0 0 0
206 2 6.741058951121738 9.470062199656255 3.2357277166770726 0 0 0
207 2 6.381427469097052 9.721882416796177 1.7360019237221695 0 0 0
208 1 4.027910915477388 10.12668772048153 7.375799695308048 0 0 0
210 2 3.9962680733871894 9.517721833008594 6.583854678198616 0 0 0
238 1 3.9825173236594007 7.903262975412068 1.9175274421338424 0 0 0
239 2 3.236839035151194 8.003281357879404 2.514985329570932 0 0 0
240 2 4.0153898241374755 8.731310782156946 1.32631749372316 0 0 0
244 1 0.6247568175924523 9.97719080648528 4.926991413639118 0 0 0
245 2 0.9280113376207241 9.45873334510045 4.122414043912133 0 0 0
283 1 10.263571424341025 8.546397950762382 2.658106132953245 0 0 0
284 2 10.235890411252866 8.715320445374278 3.628171756372499 0 0 0
285 2 9.438112929222232 8.018005798945635 2.516028585653113 0 0 0
288 2 8.163824997817454 8.50889801916541 7.410817877157958 0 0 0
319 1 6.763613964787094 7.6658120499939875 8.141806805533019 0 0 0
329 2 9.525049782447685 9.66328504014223 5.869969484870273 0 0 0
330 2 9.084776976093051 10.436498274407235 4.53570312845703 0 0 0
272 2 9.857567838918138 9.540688390351544 1.2328632319107082 0 0 0
320 2 6.589087430433024 8.351017725587464 8.828655518175292 0 0 0
14 2 5.116675715263619 5.268566204470194 8.890166138918545 0 0 0
192 2 0.6010558047092975 9.686303225371972 8.711993826922056 0 0 0
246 2 1.4196082562037509 10.457641435112587 5.208062655189285 0 0 0
66 2 2.6309701794628566 7.647994588215037 8.998796083265376 0 0 0
35 2 -1.029147779500048 0.6900912825914982 7.4128281444695245 0 0 0
80 2 6.712333544579353 1.6372315402756201 0.9597866158349296 0 0 0
63 2 8.309396298789306 6.323843590724761 1.0597506982298264 0 0 0
32 2 2.0600876477846253 0.9577597695526912 2.3179694678947693 0 0 0
21 2 0.6129944580186908 2.544064554953061 1.1516115421182207 0 0 0
321 2 7.313608747515799 6.953131907262918 8.668756072178954 0 0 0
9 2 -1.2070484314335703 7.060389202640873 5.190295459857994 0 0 0
220 1 3.867863792215761 10.841359100238371 3.445552253798228 0 0 0
132 2 11.102429838552137 5.956637382563633 2.9783107427126523 0 0 0
286 1 9.130950889500976 8.812420300680966 7.425738843759162 0 0 0
328 1 9.79000542239096 9.949292874926249 5.004860198006737 0 0 0
94 1 11.43788722445374 6.564651164970874 4.930461517707692 0 0 0
119 2 9.405781477859128 1.8252117848307268 8.242529789162754 0 0 0
131 2 11.312003923088085 4.490194325819412 2.9384470594020176 0 0 0
161 2 10.485912950977152 3.0486595869299307 5.3604463852934865 0 0 0
276 2 9.404326558308234 9.888692843144877 8.902035970246072 0 0 0
287 2 9.641666856187062 8.027511479210371 7.5251134472307415 0 0 0
324 2 12.610591327200405 7.340234026070059 1.2376308311846969 0 0 0
323 2 11.739605979176053 8.126920224619802 2.287909377889942 0 0 0
155 2 13.089510422137124 0.9876065554816784 1.3279629524070662 0 0 0
96 2 11.678271474908753 5.754483143507971 5.405645711693549 0 0 0
144 2 10.527602640823417 4.399838805634487 6.955005017802131 0 0 0
142 1 11.39864488414237 4.242892434350992 6.474537096719488 0 0 0
95 2 12.141473776562348 7.256592103254108 4.922108369613116 0 0 0
322 1 12.691433364383288 7.888697381906832 2.0787739127527463 0 0 0
148 1 10.857944622044998 6.933982791672538 8.367526316083191 0 0 0
149 2 11.099568379576926 6.013717573123482 8.586759994470547 0 0 0
68 2 15.052038640124456 1.3158185951032106 8.484710572649384 -1 0 0
152 2 7.488237767816889 0.9035265236909475 7.856980515388024 0 0 0
167 2 11.556041829471472 5.496426497078928 0.8571187486511349 0 0 0
671 2 8.581670421726617 5.620959113279428 8.889884147603023 0 0 0
235 1 -2.0055805154988953 7.9021990069923325 7.96586476696573 0 0 0
219 2 5.661283921656896 10.698815454463315 7.0555390405471625 0 0 0
293 2 12.532761078297174 10.670715048136852 7.451019618391237 0 0 0
221 2 4.588651312677973 10.639585363964846 2.7992414555602916 0 0 0
309 2 7.625208962281892 11.10516446190079 3.0501868713578744 0 0 0
836 2 12.774346369064045 9.134105203433437 8.975054941525839 0 0 0
55 1 -0.6133560712584932 4.219260059621047 3.2665415040608887 0 0 0
2 2 7.167257916913964 0.15184412516023338 5.127157156265748 0 0 0
154 1 12.889963279208654 0.46917389346629423 2.097675590357908 0 0 0
236 2 -2.2719602404646304 8.709102066019273 8.511059495533829 0 0 0
304 1 12.609400432963216 10.605744304430258 3.671536372608653 0 0 0
753 2 3.623611322716122 9.537128806738238 8.94748482129496 0 0 0
151 1 6.6185521949454795 0.7313388851572558 8.330806728461457 0 0 0
101 2 14.825831080604942 5.123906565692335 1.1093969689251513 0 0 0
256 1 12.854639937231305 8.67213641844845 5.3544019485821535 0 0 0
136 1 12.794053969927704 3.2272471314635927 3.612548461055066 0 0 0
257 2 13.807232283022882 8.442424097919572 5.435761550561764 0 0 0
294 2 12.949823235107079 9.416439012703622 6.669885427381133 0 0 0
111 2 12.694237974704919 6.785394523200824 7.352776537584325 0 0 0
89 2 12.684194690635232 1.8320808840217757 4.538121486064937 0 0 0
143 2 11.877586882186593 3.513946808860897 6.852080253771802 0 0 0
138 2 13.454627964861977 2.8339475810057113 3.0001379115418128 0 0 0
258 2 12.765231308997024 9.432465230777977 4.681484196200206 0 0 0
150 2 11.310194263374754 7.490925726576332 8.991695942370328 0 0 0
88 1 12.793342000089122 1.0450685899743792 5.103001904814521 0 0 0
137 2 13.368845417939468 3.8993687631109766 4.092576436389903 0 0 0
306 2 13.396453674610063 10.450029176735981 3.157509523740487 0 0 0
292 1 13.14485229720875 9.870359673336608 7.577643263274143 0 0 0
126 2 13.075459029440003 1.9413338006869616 6.625259824061378 0 0 0
518 2 7.410547742193519 4.775705927107738 0.3113925760978387 0 0 0
289 1 15.302376189295718 10.175487014864094 2.5832571960366773 0 0 0
90 2 13.676737933321522 0.8401064292528706 4.792923739906076 0 0 0
109 1 13.58848840367175 6.435947949644785 7.215271164793419 0 0 0
121 1 15.305154698284234 2.3589434590291023 2.4561331252119314 0 0 0
123 2 15.419079130338897 1.810847037215391 1.6899923750299533 0 0 0
158 2 14.456874083384694 5.530766873755126 3.9402836161855013 0 0 0
112 1 15.092345064296985 6.255120696260235 2.6295676008631137 0 0 0
113 2 14.405873483275158 6.911645484573129 2.5753002981878503 0 0 0
159 2 13.92839971637704 5.988424011933381 5.384896824080841 0 0 0
124 1 13.158954828390891 2.492307256582451 7.417049038843313 0 0 0
157 1 14.081094283087978 5.168038148748558 4.805563566658011 0 0 0
291 2 15.570255025808313 9.757214418064828 1.7081004333714556 0 0 0
100 1 14.859839100797968 4.72964998266331 0.20912275284743523 0 0 0
86 2 16.313009869940053 0.37608480175249476 4.840973507946751 0 0 0
134 2 15.134884700664257 3.9609907172879812 5.796375987150207 0 0 0
56 2 -0.9061381942793001 4.959697937903632 3.804785411224592 0 0 0
135 2 15.802159572205907 2.549325736468569 6.110322016447479 0 0 0
114 2 15.919944740828056 6.78484072074435 2.4208174112049794 0 0 0
668 2 12.8078259165646 1.9692143943361358 9.06629433366025 0 0 0
163 1 16.075068914311395 1.1289149821396602 0.22347801036415846 0 0 0
102 2 14.414206681974587 3.8952621179958626 0.2530392130760079 0 0 0
209 2 3.556558540230222 10.888090128488205 7.005229323971108 0 0 0
117 2 9.621540491133842 0.7928855673226443 2.435771100541908 0 0 0
585 2 4.149843741153594 1.9128724154006587 8.953176002237761 0 0 0
83 2 2.2802149274841446 5.601396852389723 1.2253231928375952 0 0 0
237 2 15.067526203869324 7.544687884564685 7.698578672864119 0 0 0
122 2 16.206049158267056 2.746598066618244 2.621251906183544 0 0 0
778 1 12.51417408132447 10.275456579797696 0.458641242695101 0 0 1
780 2 12.605742232875029 9.518172407462357 1.0392855072398457 0 0 0
521 2 2.099612680332375 5.090813576474011 9.123341020626288 0 0 0
145 1 17.21778896064368 7.234387789359916 1.5819840739099555 0 0 0
486 2 11.66082424408419 -0.0012838928567039708 8.824089245300076 0 0 0
190 1 0.6136118524185785 10.209341491512795 9.515488631201881 0 0 0
156 2 11.975732783413644 0.6608571891701865 2.2834242951940382 0 0 0
165 2 16.538944677278792 0.37320046129851475 0.7406944287776627 0 0 0
248 2 7.613463697301572 8.335477033275646 0.5981605205307958 0 0 0
104 2 9.523618456844618 3.6184718426454485 0.55332219435904 0 0 1
224 2 -0.389565226588805 11.007030378304695 4.09999926182621 0 0 0
110 2 13.756700535191344 5.827142956200053 7.993783598215881 0 0 0
253 1 15.545176204541958 8.504749117617566 4.955173786979243 0 0 0
147 2 16.964132117815566 7.924267257829249 0.9940992487661625 0 0 0
23 2 1.069711027507196 3.3352156448649803 9.696757705447673 0 0 0
218 2 7.107872080414756 11.216533631206657 7.0003466272863415 0 0 0
311 2 10.848020882202693 11.218828558245203 5.88977872231331 0 0 0
85 1 15.52145569300686 1.042298520212286 4.802661644212455 0 0 0
189 2 2.0573051371489055 10.398755618431009 0.46048491580741946 0 0 0
133 1 15.57126552945545 3.402988255609929 6.514822525834218 0 0 0
19 1 1.0717178256350102 2.8675152564503574 0.3778863444479245 0 0 0
255 2 15.72649554773055 8.981122395801032 4.080646930100101 0 0 0
97 1 13.838789831110892 4.899473375969155 9.564658516178223 0 0 0
87 2 15.410030542098713 1.4389824526513275 3.9122344219090426 0 0 0
584 2 3.0376680642182765 0.9962260766507279 9.212076032751963 0 0 0
217 1 6.395842074837657 10.853107733804817 6.43984180815452 0 0 0
302 2 14.902901931278176 10.691818657768803 7.199995872996744 0 0 0
401 2 1.6360030547562134 0.22382091051277614 7.7130212852089866 0 0 0
586 1 -0.8676715301423163 6.119756777735595 9.726295587081502 0 0 0
693 2 -1.1804481331380334 10.206031851836306 9.458893105621122 0 0 0
70 1 3.5020295046596543 0.4457432057970648 1.7280852564570182 0 0 0
254 2 15.65455008299353 9.201034115017 5.657808761144259 0 0 0
24 2 -0.3928724451858313 2.846722678368251 9.57624087278634 0 0 0
528 2 2.732661949908783 2.6096307363143474 0.24316696499478535 0 0 0
305 2 11.941656329895276 11.103676456946658 3.160602549296057 0 0 0
146 2 17.395962099997547 6.531137936916136 0.9619522960076793 0 0 0
125 2 14.01911198862625 2.968099620826674 7.213975673696234 0 0 0
290 2 15.932160310859253 10.920166753608266 2.838274959870922 0 0 0
67 1 -2.434208092137224 0.4903563167532281 8.132327305320667 0 0 0
301 1 15.579784233472965 10.863688279470635 6.475460803275078 0 0 0
22 1 0.47245318614473913 2.5954494197809628 9.376386738417793 0 0 0
84 2 3.3410446386859243 6.775582519276614 0.6820553599057595 0 0 0
696 2 4.470221988841392 11.004540879622468 0.28300352388980343 0 0 1
587 2 -1.4258945491670088 6.847017634951245 9.1862998199355 0 0 0
17 2 4.993605997238274 4.367084379923706 0.536383067950107 0 0 0
187 1 1.129483118148292 10.119759576549779 0.5134417196728529 0 0 0
273 2 10.834337964235491 10.385466368518916 0.4837534788321307 0 0 1
222 2 3.13270582207799 11.250329726526317 2.9413846023969037 0 0 0
82 1 2.652505649616942 6.105801215746436 0.44479079912426167 0 0 1
583 1 3.6778022480200545 1.5302530277736537 9.702880948148303 0 0 0
691 1 -2.168090836210536 9.993719794919155 9.499840556677766 0 0 0
16 1 5.725813733491987 4.963390193186488 0.4332935242376623 0 0 0
103 1 10.24068169877044 2.932969982690482 0.6841847249956716 0 0 0
247 1 6.922840802602348 8.952724532873578 0.2681578809789003 0 0 0
271 1 9.87449420342566 10.276178897989368 0.5175791076967734 0 0 0
526 1 3.770330952474519 2.679473975782938 0.3054078641160296 0 0 1
692 2 -2.750371286573634 10.76882386510928 9.655880586074451 0 0 0
694 1 3.838607116444183 10.265621851299572 0.362754898229314 0 0 1
670 1 8.096787604192421 6.0431209043180685 9.625043528416601 0 0 0
612 2 12.535422468207772 2.9625150407583676 0.5356827964957621 0 0 0
751 1 3.6529614539064656 8.891338879508762 9.703453221290852 0 0 0
69 2 14.721428835901465 -0.0002124636536588913 7.705958632781614 0 0 0
399 2 8.212686825132053 0.03987251401058834 0.8300199768201166 0 0 0
331 1 16.04975407845092 9.096152881027738 0.18548033850198967 0 0 0
604 1 11.298823542046584 4.567090978377488 9.7379355043127 0 0 0
520 1 2.1113485816391355 4.679630525316015 9.965025076508246 0 0 0
164 2 8.783963438188692 0.6601464229774651 18.92494783543233 0 0 0
523 1 -2.082696778928137 2.997750106231086 9.812499242513425 0 0 0
797 2 10.94888094567103 10.264283252471536 16.666667075688316 0 0 0
667 1 12.667312731303044 1.4564306363789237 9.893294299260834 0 0 0
711 2 1.8756944430808087 10.226337814638152 12.489544744109853 0 0 0
517 1 1.7742648988829592 4.820222914464466 19.32891933131011 0 0 0
809 2 10.302842084652665 10.569501536272174 12.447805524992228 0 0 0
810 2 8.785784858895372 11.046943241252723 12.187112160545865 0 0 0
249 2 0.7376332863475408 9.459851925615503 18.685518041981993 0 0 0
990 2 7.316821166966884 0.1442302600053042 17.385161246620633 0 1 0
332 2 9.701366504877504 9.430132265233144 18.478650339013058 0 0 0
657 2 4.059354244692567 0.0551754095028989 18.96614058559556 0 1 0
527 2 -2.522389130070642 2.401314540807764 18.57038654308563 0 0 0
593 2 8.942091127023792 0.2766098510855575 14.706375711996975 0 0 0
507 2 3.9565278027156716 0.4598970656411572 14.017648541462398 0 0 0
658 1 9.403934848375867 0.36082847935827655 11.386213230376566 0 0 0
98 2 14.073594847437723 5.705779419597768 10.088873874440681 0 0 0
505 1 3.1854809018938743 1.0853529147801697 14.041789868348793 0 0 0
506 2 3.345892775005226 1.8419469882411372 14.77283247767042 0 0 0
537 2 -1.1831698776468809 0.9132323670659264 12.083740139104828 0 0 0
508 1 0.5455462907987089 1.3371155689129082 14.577344611831045 0 0 0
588 2 -1.4036509248986786 5.640078476953092 10.40397348931063 0 0 0
510 2 1.4814226145132336 1.0969719327137248 14.280609289372615 0 0 0
511 1 -3.711518210502275 6.4421517461452265 15.028591994237397 0 0 0
512 2 -3.8810486135204423 5.806468628746383 14.320345591783033 0 0 0
513 2 -3.9391541636573235 5.876838860255323 15.817081501869913 0 0 0
514 1 -0.9381325454234644 6.429776689770624 14.233269114903274 0 0 0
515 2 -0.6668398147329542 5.6761246150834035 14.786727004153105 0 0 0
516 2 -1.8590874997384512 6.612092272596202 14.499981359190386 0 0 0
573 2 11.539431526366258 0.4642995398558224 17.491376090185092 0 0 0
519 2 1.872313950866192 5.231070290669819 18.476987020943646 0 0 0
828 2 8.680431854910434 8.160840434669874 11.881825770036984 0 0 0
522 2 1.9435240427965232 5.421096571229057 10.550160573680936 0 0 0
725 2 -0.4736988795953502 11.239367816574108 12.554652365789543 0 0 0
721 1 3.461862497452228 10.789841448167051 15.93399617291783 0 0 0
275 2 9.754828007227472 9.306777200487227 10.221781560605596 0 0 0
798 2 9.769367651896722 9.412009828151362 16.01327438915368 0 0 0
779 2 5.997564347683377 9.844802819050944 18.75567235647291 0 0 0
529 1 1.5545267669998324 6.338491462194675 16.870460408019728 0 0 0
530 2 1.6793200518756486 5.988776203195589 15.94880809927438 0 0 0
531 2 0.5738802955276558 6.627321141179245 16.920404276709665 0 0 0
532 1 2.426731840293256 6.629004441067105 12.192108754222502 0 0 0
533 2 3.341761315476868 6.913452763469696 12.083987897428326 0 0 0
534 2 2.512780998576214 6.000894059524921 12.973501552200606 0 0 0
535 1 -2.015305053297689 1.282670658977987 12.537357900113975 0 0 0
602 2 10.122391415843452 4.629678448212264 18.875989642072412 0 0 -1
571 1 -5.543257514957616 0.6249748184024742 17.97429840656273 0 0 0
538 1 -3.1587269492116614 1.033341726193621 16.960796212828704 0 0 0
606 2 10.828344339236553 3.7066533282586334 9.92630462255292 0 0 0
540 2 -2.9715362104518452 1.5124815563563545 16.120038564181893 0 0 0
541 1 3.216183522835764 3.033343212827574 11.993594679268096 0 0 0
542 2 3.2434617698609696 2.36445324777139 12.756248783026908 0 0 0
543 2 3.312401381510078 2.5647980140092583 11.152612112894737 0 0 0
544 1 0.7843094807924597 2.70150040438762 16.92470234763215 0 0 0
545 2 0.6947879947167724 2.2464992683573684 17.837310477020512 0 0 0
546 2 0.6827811001455355 2.0146338905630246 16.26997366383786 0 0 0
547 1 -3.8310436641538477 4.87428848161015 17.185242584863012 0 0 0
548 2 -4.555416399639722 4.258485561703865 17.003507013336044 0 0 0
549 2 -3.9217333202713034 5.303792044896109 18.054080974984775 0 0 0
550 1 -1.7911349906835956 5.098247321242181 12.099084856547526 0 0 0
551 2 -1.3586390130010444 4.267329274614932 11.88905621984065 0 0 0
552 2 -1.2330177269072955 5.43174388268468 12.809397674075091 0 0 0
553 1 3.31205513194742 2.9437042455427678 15.734042808776021 0 0 0
554 2 2.628532502222989 2.933324058579549 16.41408835871139 0 0 0
555 2 3.9732830089933953 3.5782591236359633 16.009488729212187 0 0 0
556 1 0.6457594992024369 3.617304395314683 12.753999932603385 0 0 0
557 2 1.4578285701328422 3.382061224116788 12.247232271279742 0 0 0
558 2 0.4429472957667792 2.748882555363933 13.205349871723143 0 0 0
559 1 -4.056855989617849 4.5978025026246865 13.203532904733699 0 0 0
560 2 -3.2025470636437032 4.869569294252452 12.788700836935284 0 0 0
561 2 -3.755492407088955 3.8468714242886857 13.775468070311641 0 0 0
562 1 -1.1183995085847995 4.210343059300529 16.025607362359796 0 0 0
563 2 -0.39167502910674745 3.6959313674633076 16.460636189085143 0 0 0
564 2 -1.8494310964745635 4.4933774801545425 16.65247172299645 0 0 0
565 1 5.09051813023428 7.177572791390428 11.492341162907106 0 0 0
566 2 4.897701381440764 7.912514391162912 10.914700217265196 0 0 0
567 2 5.100234565141825 6.417729201473274 10.897784852036123 0 0 0
568 1 -1.2824067859254078 7.156262249408183 17.719766449467386 0 0 0
569 2 -1.3813569960087213 6.4972551259900335 18.435907352908906 0 0 0
570 2 -0.8089193556347858 7.9092842216884325 18.06915857909755 0 0 0
107 2 9.378286836210203 1.990687139659167 10.460670919910775 0 0 0
572 2 -5.709997536846256 1.4973357206911149 18.440893260944698 0 0 0
827 2 10.026183007396426 7.2536902133714225 11.512614349080328 0 0 0
539 2 -4.057858339259945 0.8229082337064333 17.027676773368416 0 0 0
576 2 0.4799256273272315 1.4059357945134248 10.665592049490298 0 0 0
577 1 1.9145754444691012 5.08021580844458 14.50185500257735 0 0 0
578 2 1.2987008892503933 4.586561933294276 13.894747035880924 0 0 0
579 2 2.494415814470427 4.321232262712716 14.617579241114582 0 0 0
580 1 -2.6988735001895265 2.503234715540268 14.736445040665117 0 0 0
581 2 -2.407160967487316 2.0260297672044927 13.896030723668295 0 0 0
582 2 -2.0044672027557913 3.0689810156803046 15.179162301671777 0 0 0
168 2 4.458337386869171 6.5157604241189855 18.94370761247653 0 0 0
333 2 8.740471406594066 8.477606704750015 19.095903029876613 0 0 0
589 1 12.346440618725472 1.100020805433467 14.251666309649448 0 0 0
749 2 -1.784233074485312 10.394656096041215 14.664813007857575 0 0 0
591 2 12.465133175990305 1.9477768065546803 14.724399041076467 0 0 0
592 1 9.511938848023407 1.039259284595074 14.84250669838033 0 0 0
826 1 9.377244587543093 7.924584543090292 11.17703049334052 0 0 0
594 2 9.182026454141253 1.7921268324230852 14.311419291384578 0 0 0
595 1 5.108555415365986 6.396622896804119 14.744855594460924 0 0 0
596 2 5.150972019774298 5.821053818610817 15.540380450875366 0 0 0
597 2 4.8949375295914015 5.817542304845291 13.950224898678432 0 0 0
598 1 8.115630535688076 6.312553090107164 14.352010875356255 0 0 0
599 2 7.334476988043417 6.808970616399972 14.556032452224645 0 0 0
600 2 7.9663071587073775 5.977568575449949 13.465569240883813 0 0 0
81 2 -0.34360001936352613 0.5701197255128829 19.09438939682541 0 0 0
105 2 3.5985927282886885 2.179053627351076 19.17166225852403 0 0 0
536 2 -2.7531225466029756 0.5780704282054095 12.36851849418756 0 0 0
605 2 11.221011150686978 5.0574435000220435 10.575455237801183 0 0 0
832 1 6.465670541194516 10.0414437039961 14.882586920351859 0 0 0
986 2 13.551892900284821 0.3400440727619261 10.663407132133875 0 0 0
825 2 3.423815237360351 8.638165560030096 18.366040287824248 0 0 0
609 2 6.394572958519447 2.5917701954063204 10.836819800800546 0 0 0
669 2 12.145901073364358 2.020383652554865 10.519389738082278 0 0 0
611 2 6.263966214427299 2.1618424793456326 18.351957141083542 0 0 0
613 1 10.41316892336753 6.717651773976119 16.59495459821655 0 0 0
614 2 11.02099547521649 7.295461372378818 17.167250166054924 0 0 0
615 2 9.511717646983614 6.918489346310151 16.92654630245436 0 0 0
616 1 11.419213855854933 6.138068519348578 12.006469767258476 0 0 0
617 2 11.389418460176106 5.705211287165021 12.856178524809913 0 0 0
618 2 12.298981385071786 6.551047447239556 11.823427481908059 0 0 0
619 1 6.762000278411826 1.127714236535664 12.209067163325818 0 0 0
837 2 12.133188988433993 9.365803475309349 10.411976813708364 0 0 0
621 2 7.71097451608331 1.053396735271054 11.974050519067948 0 0 0
622 1 5.81028929702242 1.1519091271163655 17.120320634273995 0 0 0
623 2 4.902382823472022 0.9667440195332987 17.44712896015601 0 0 0
624 2 5.746296014884758 1.5041596019007961 16.198710423933715 0 0 0
625 1 11.807341800595022 2.762627245576736 12.174957229633478 0 0 0
626 2 12.065860443092216 2.044685113734399 12.782602224649226 0 0 0
627 2 12.280032619017916 3.52497371234497 12.487255457043846 0 0 0
628 1 9.785292424498671 2.73465543637334 16.93969937291626 0 0 0
629 2 9.429068767800734 2.3155743841323675 17.708734681164835 0 0 0
630 2 9.598209315618215 2.104747402584715 16.228198861430542 0 0 0
631 1 5.225717203334255 4.6972311725281 16.922978126579604 0 0 0
632 2 5.093547431995606 4.9902439215348 17.86090331365936 0 0 0
633 2 6.1599754296001565 4.404899546320214 16.848100072118623 0 0 0
634 1 7.706361583849873 5.026811765270546 12.164993860560802 0 0 0
635 2 6.756914076652937 4.701738131358817 12.276877046705094 0 0 0
636 2 7.757206156122138 5.1760754007070275 11.198141445806622 0 0 0
637 1 12.306564105650873 3.2405761609673425 15.934463745340203 0 0 0
638 2 11.911576275728489 3.8930759259971714 15.295610638979428 0 0 0
639 2 11.537094511776838 2.9893750237742753 16.465679085497147 0 0 0
640 1 9.267863464365178 3.114879064112961 13.380963129378538 0 0 0
641 2 8.80296780847071 3.3652739914911294 12.511405219228527 0 0 0
642 2 10.14826316596611 3.166715565875677 13.05049479713122 0 0 0
643 1 5.387555712713228 4.278492292613346 12.904212362848376 0 0 0
644 2 4.701886409784792 3.939355585366829 12.3863800073698 0 0 0
645 2 5.501799861078463 3.606057186953055 13.587041947762634 0 0 0
646 1 7.6733262102954685 4.031645922278517 15.931838823051498 0 0 0
647 2 8.552731014612336 3.7294911097219976 16.22517609862721 0 0 0
648 2 7.8512473321421306 4.7865600327920825 15.305791047304059 0 0 0
649 1 13.859759870261733 7.045025230024182 11.2131697578229 0 0 0
650 2 13.441093229026682 7.789038857228972 10.721834854490025 0 0 0
651 2 -3.4605210869396084 7.40842805878189 11.857654854472202 0 0 0
652 1 8.001259294800748 7.019520772902167 18.0664718914807 0 0 0
653 2 7.191710018226731 7.29026997272303 17.656959021804493 0 0 0
654 2 7.824511431284036 6.155909470299625 18.468582985173374 0 0 0
509 2 0.015843807375272217 0.5303163782453911 14.484673844276113 0 0 0
188 2 -5.505490800096188 9.519967585101544 18.873776505517988 0 0 0
661 1 10.872694451307227 4.928277209554529 14.496671813416967 0 0 0
662 2 10.678471586071199 5.687672264818629 15.091578044082057 0 0 0
663 2 10.063440348850442 4.415109274294735 14.424049768519017 0 0 0
664 1 6.018252083959104 2.3733628272219165 14.559491899944312 0 0 0
665 2 6.828259992802721 2.7987048670300076 14.906293687147203 0 0 0
666 2 6.200173184247062 1.7306876337349995 13.81371741767305 0 0 0
574 1 0.1775845086494499 0.6124122022491044 11.22381934814862 0 0 0
620 2 6.197587549349557 0.32622907026141623 12.059440989454599 0 0 0
812 2 4.133406242206053 10.880953459136515 12.804409739704557 0 0 0
673 1 3.312101449174698 8.522846796241957 14.537518602540619 0 0 0
674 2 3.868068731363697 7.721588683190536 14.648026052198018 0 0 0
675 2 3.603106997566413 9.215663847913364 15.15713776336343 0 0 0
676 1 0.7006129427679141 8.601689773710909 14.541270478522167 0 0 0
677 2 1.603972843134257 8.277254623956853 14.527853030902147 0 0 0
678 2 0.08238384566138601 7.861972134732565 14.444071224140108 0 0 0
525 2 -2.2610641966043046 2.4784617031293714 10.583979609028878 0 0 0
805 1 12.418096188541398 10.941703008727057 15.889871899245891 0 0 0
655 1 3.5333956770899215 0.6198571915428546 18.327551739955815 0 0 0
807 2 12.688728000493391 10.073085875930467 15.42078683344691 0 0 0
695 2 -2.9426583723392485 9.933733677360832 18.58959097283441 0 0 0
590 2 11.456242222590125 0.8083748995611696 14.482349085904247 0 0 0