LAMMPS data file via write_data, version 15 Apr 2020, timestep = 500000

3072 atoms
2 atom types

1.5262224649763567e-01 2.9987571753499218e+01 xlo xhi
1.4192577434783971e-01 2.8198540225650767e+01 ylo yhi
1.5454492029704348e-01 2.7256900079700557e+01 zlo zhi
1.0181402403010781e+01 1.0189183756671200e+01 7.1044334700405782e+00 xy xz yz

Masses

1 16
2 2

Atoms # atomic

1 1 7.4682731848483499e+00 5.4458307162609199e+00 4.4831511213350250e+00 0 0 0
2 2 6.7864439904190688e+00 4.8782875791777540e+00 4.0331048799707450e+00 0 0 0
3 2 7.0898951806073782e+00 6.3144887316913731e+00 4.5747450456300731e+00 0 0 0
4 1 1.0238678441144847e+01 7.4200147774944583e+00 1.0868671652032068e+01 0 0 0
5 2 1.0619679219193186e+01 6.7812251002782684e+00 1.1591247744186779e+01 0 0 0
6 2 1.0054492566591978e+01 8.3822531627985466e+00 1.1160275574581979e+01 0 0 0
7 1 1.0344059581508906e+01 1.2411058824032505e+01 3.8662520211074662e+00 0 0 0
8 2 1.0903315182119647e+01 1.2322118738602560e+01 4.7334796549887868e+00 0 0 0
9 2 9.8953975487066739e+00 1.3264794455272199e+01 4.0988808896031870e+00 0 0 0
10 1 1.2571485913970871e+01 1.4072497645237593e+01 1.0828596225506969e+01 0 0 0
11 2 1.3379731195112935e+01 1.4300448285435101e+01 1.0373651731007053e+01 0 0 0
12 2 1.2044848718520058e+01 1.3568217646237384e+01 1.0180046216576111e+01 0 0 0
13 1 1.4840958422521339e+01 5.3270867439528455e+00 4.0844618450959809e+00 0 0 0
14 2 1.5363055840636839e+01 5.2058292559851207e+00 4.8883117221889592e+00 0 0 0
15 2 1.4575079873650303e+01 6.2153157686711715e+00 4.2720285673575980e+00 0 0 0
16 1 1.7486542260032071e+01 6.8814190162947000e+00 1.0838930585651148e+01 0 0 0
17 2 1.7843466964701285e+01 6.6240039493397127e+00 1.1712033327350461e+01 0 0 0
18 2 1.8298640815561651e+01 7.1105399343135405e+00 1.0352317270948582e+01 0 0 0
19 1 1.7384339750565829e+01 1.2447060160328329e+01 3.8152636467263261e+00 0 0 0
20 2 1.8195738647390407e+01 1.2717415563837715e+01 3.3968268643115431e+00 0 0 0
21 2 1.7777376850176001e+01 1.2036179580005008e+01 4.6655535321314785e+00 0 0 0
22 1 2.0008991126916293e+01 1.3744606617047285e+01 1.0881689623825563e+01 0 0 0
23 2 2.0804634516396270e+01 1.3930913669043123e+01 1.0340389943918797e+01 0 0 0
24 2 1.9874853487928750e+01 1.4647741308959482e+01 1.1189490717058199e+01 0 0 0
25 1 1.1647701528193831e+01 8.2977542691578954e+00 6.2023121324329820e+00 0 0 0
26 2 1.0785982612383894e+01 8.7137256733690229e+00 5.9257477476641869e+00 0 0 0
27 2 1.1361171414353919e+01 7.7510725863729970e+00 6.9996677413521402e+00 0 0 0
28 1 1.4378875763281613e+01 9.8715494982014604e+00 1.3137973203228986e+01 0 0 0
29 2 1.4521754096285743e+01 9.2368253864428524e+00 1.2371807346956963e+01 0 0 0
30 2 1.3611717734998365e+01 1.0366085784057427e+01 1.2824555777634957e+01 0 0 0
31 1 1.4186845208033452e+01 1.5151559690257963e+01 6.3950124428882464e+00 0 0 0
32 2 1.4503012197716417e+01 1.4738400673597152e+01 5.5662317122596754e+00 0 0 0
33 2 1.3481142942159943e+01 1.5714811612855655e+01 6.1520826377165569e+00 0 0 0
34 1 1.6891064322122823e+01 1.7043235160636591e+01 1.3116900168006220e+01 0 0 0
35 2 1.6087744760504314e+01 1.7504748367399412e+01 1.2710527713518717e+01 0 0 0
806 2 2.4920292411674879e+01 2.2968754861786810e+01 6.9724021689298077e+00 0 0 0
37 1 1.9028881034352047e+01 8.1348843589616706e+00 6.5853683229273265e+00 0 0 0
38 2 1.8290461830197469e+01 8.6753990322172676e+00 6.2176759676598072e+00 0 0 0
282 2 2.0319994879004671e+01 8.2627633132328473e+00 1.0176588314550317e+01 0 0 0
798 2 1.8827297829970789e+01 2.3482748557880253e+01 1.3531514270960836e+01 0 0 0
1152 2 2.4128038138058624e+01 3.1219655075542121e+01 1.2368030137123114e+01 0 0 0
42 2 2.0929316395512579e+01 1.0470963739322956e+01 1.2880711485021669e+01 0 0 0
1053 2 2.5494706984086100e+01 2.7289118846043145e+01 3.3344890890870027e+00 0 0 0
44 2 2.0847255784826952e+01 1.5683511125523081e+01 6.0497009145368468e+00 0 0 0
1151 2 2.4455353863107444e+01 3.0027868990306345e+01 1.3453750598668208e+01 0 0 0
48 2 2.3686558862263901e+01 1.6444070239078599e+01 1.3689039254805440e+01 0 0 0
47 2 2.3384784389573561e+01 1.7734124804656972e+01 1.2941389828758002e+01 0 0 0
1617 2 9.1850214672003094e+00 1.2298008182236234e+01 1.3593436270680472e+01 0 0 0
49 1 5.6229583150087246e+00 3.6773129544349921e+00 2.8968964732735802e+00 0 0 0
50 2 5.7119825590292672e+00 2.7898735939807864e+00 2.4198917924892527e+00 0 0 0
51 2 4.9099503484675182e+00 3.5094436934651840e+00 3.5483572979634350e+00 0 0 0
52 1 7.9127095227905269e+00 5.5707324337749604e+00 9.5871077376289033e+00 0 0 0
53 2 7.5499393957439569e+00 5.9815087904766617e+00 8.7604428780597488e+00 0 0 0
54 2 8.7696425702617002e+00 5.9473430681683030e+00 9.8495721696332215e+00 0 0 0
55 1 7.8871627401086659e+00 1.0635003637483164e+01 2.9987400832140478e+00 0 0 0
56 2 8.1858754428345684e+00 9.8771886327799514e+00 2.4316972791552640e+00 0 0 0
57 2 8.6310167338415908e+00 1.1091016217313236e+01 3.3763089399493986e+00 0 0 0
58 1 1.0666659500070509e+01 1.2670311287772769e+01 9.8079906811138535e+00 0 0 0
59 2 1.0329997878748925e+01 1.3111537999294240e+01 8.9570368621804697e+00 0 0 0
60 2 1.0720844839569363e+01 1.1760652878151488e+01 9.4733482484520426e+00 0 0 0
61 1 1.2646208099815556e+01 3.7434824339131563e+00 2.9650020725692885e+00 0 0 0
62 2 1.3282737086436065e+01 4.5025417274575341e+00 3.1906816066688592e+00 0 0 0
63 2 1.2232309508291960e+01 4.1031636652386840e+00 2.1743250151883138e+00 0 0 0
64 1 1.5386833852997936e+01 5.5128065161043533e+00 9.7963679433735678e+00 0 0 0
65 2 1.6218352551773314e+01 5.9891149239794697e+00 1.0067838600778755e+01 0 0 0
66 2 1.5644028664690300e+01 4.6738123271347050e+00 9.4381985056258202e+00 0 0 0
67 1 1.5160861881446188e+01 1.0719246086942080e+01 3.0117660823625934e+00 0 0 0
68 2 1.5847666259887099e+01 1.1277927398988790e+01 3.4781215817111750e+00 0 0 0
69 2 1.5576652317643362e+01 9.8840180671883839e+00 2.7835123183241945e+00 0 0 0
70 1 1.7838100964737087e+01 1.2622581137196198e+01 9.8433419201805989e+00 0 0 0
71 2 1.7418788833395642e+01 1.3081220106767956e+01 9.0315284281818169e+00 0 0 0
72 2 1.8730952626197510e+01 1.2937912814784401e+01 1.0104517889673156e+01 0 0 0
114 2 1.4526626484534617e+01 5.6657920390212118e+00 1.3590697722125483e+01 0 0 0
1148 2 2.3270097285842205e+01 2.9428094438527079e+01 5.2050569201405912e+00 0 0 0
1147 1 2.2427482747042347e+01 2.8965414798308696e+01 5.3248234066497702e+00 0 0 0
76 1 3.5065808696665064e+00 2.5225655054346854e+00 7.5272646521553090e+00 0 0 0
77 2 1.4405381524934363e+01 3.0114910102150702e+01 8.0461208730856733e+00 0 -1 0
900 2 1.2962054054569199e+01 2.5187757823365665e+01 1.0572466205112590e+01 0 0 0
174 2 1.0965339986949102e+01 5.5752140806151429e+00 1.3481882308596100e+01 0 0 0
855 2 1.3164921975775339e+01 1.4283449178090082e+01 5.2226606074449355e-01 0 0 0
1050 2 2.4797339030383650e+01 2.1480507545295360e+01 8.6529523126052261e+00 0 0 0
82 1 6.3795881542161670e+00 9.5952491543841312e+00 7.5231134382911922e+00 0 0 0
344 2 7.2775753988889615e+00 1.4015199646076926e+01 4.4271536003150418e+00 0 0 0
84 2 7.1543858509665972e+00 9.0955637968441483e+00 7.6731363090305553e+00 0 0 0
85 1 8.6662578834438637e+00 1.0772137209745469e+00 6.4698104637256093e-01 0 0 0
1141 1 1.9725513621542536e+01 2.1804502300914535e+01 4.9546333768609614e+00 0 0 0
87 2 8.3185833416488091e+00 1.5946554484615565e+00 1.4586461081652151e+00 0 0 0
88 1 1.1179009203490269e+01 2.7651953645641161e+00 7.7692571856401615e+00 0 0 0
89 2 2.2027113962708651e+01 3.0164541464730519e+01 7.9913086657323342e+00 0 -1 0
90 2 1.1681433003771611e+01 3.3131800294474716e+00 7.1568646894854435e+00 0 0 0
888 2 2.2348942613268445e+01 2.6698489155344497e+01 1.3178906579510890e+01 0 0 0
206 2 1.6663839003593857e+01 2.9251681387414754e+00 3.1731228365612560e+00 0 0 0
93 2 1.1718862436642571e+01 7.4755952233768497e+00 1.1651528912926856e+00 0 0 0
94 1 1.4042898629981771e+01 9.6251213636735073e+00 7.3748629106127082e+00 0 0 0
95 2 1.4644520869723802e+01 9.0607465300329260e+00 8.0078561174091387e+00 0 0 0
96 2 1.3263883680033501e+01 9.1098852083007813e+00 7.1022795186565419e+00 0 0 0
97 1 5.4428484381086193e+00 4.3234019773120078e+00 6.3527678016500086e+00 0 0 0
98 2 5.9993891309128138e+00 4.8982005235175254e+00 6.9313771701739189e+00 0 0 0
99 2 4.9591474839649852e+00 3.7346613332409508e+00 6.9197178715851768e+00 0 0 0
100 1 8.0176583774274270e+00 6.3068301361845300e+00 1.2770088797075029e+01 0 0 0
101 2 7.8138026351448406e+00 6.8711990742134983e+00 1.2015662274721514e+01 0 0 0
102 2 8.7301754780738570e+00 5.6566119931041374e+00 1.2448338647242830e+01 0 0 0
103 1 7.7841125471610297e+00 1.1567136278338319e+01 6.2265871317217591e+00 0 0 0
104 2 7.0875760969745780e+00 1.2062730571730340e+01 5.7574468714597167e+00 0 0 0
105 2 7.1211839394690148e+00 1.0889695615836409e+01 6.6020741286188427e+00 0 0 0
106 1 1.0444918938487879e+01 1.3132598480853822e+01 1.2755251308050706e+01 0 0 0
850 1 1.1304540181337725e+01 2.3655823041374607e+01 7.3757509366119072e+00 0 0 0
108 2 1.1176945900703743e+01 1.2488725400585952e+01 1.2421581418811384e+01 0 0 0
109 1 1.3008535215880411e+01 4.2279021186929260e+00 6.2323305637719653e+00 0 0 0
110 2 1.3562649428196751e+01 3.5144554555941938e+00 5.8682147807603720e+00 0 0 0
111 2 1.2821058057996819e+01 4.9122875161126043e+00 5.4917026902528256e+00 0 0 0
112 1 1.5119786424065342e+01 6.1201639362309024e+00 1.2974704918154444e+01 0 0 0
80 2 2.8760545955492391e+00 7.2042139569058463e+00 5.8352734221489522e-01 0 0 0
1011 2 1.3213523846174189e+01 1.9038157915385135e+01 4.7103988521944684e-01 0 0 0
115 1 1.5412945750796204e+01 1.1587973626885226e+01 6.0361669352333687e+00 0 0 0
116 2 1.4902722778481339e+01 1.0981601429271867e+01 6.5978162813512995e+00 0 0 0
117 2 1.5782453553684643e+01 1.2176316056840147e+01 6.7023141379760220e+00 0 0 0
118 1 1.7701922321654006e+01 1.3528785815580385e+01 1.2734084871652941e+01 0 0 0
953 2 2.4252479586953577e+01 2.0795207756747274e+01 1.3392169886015944e+01 0 0 0
120 2 1.7140931998262854e+01 1.4074644622121394e+01 1.2094109042043000e+01 0 0 0
121 1 3.2062216395661540e+00 3.0112219161364191e+00 4.3502003829429894e+00 0 0 0
1150 1 2.4764137225007630e+01 3.0466100251716146e+01 1.2595389038344941e+01 0 0 0
123 2 3.6180348297910641e+00 2.1406163597012333e+00 4.6658557385105546e+00 0 0 0
124 1 5.7895806666494902e+00 4.7407517212736625e+00 1.1133431251974292e+01 0 0 0
125 2 6.5308584545416917e+00 5.1661187399083914e+00 1.0616107633679103e+01 0 0 0
126 2 6.2058389469452582e+00 3.9327830692620651e+00 1.1502527072918509e+01 0 0 0
127 1 5.7375066602620777e+00 9.9719190490381227e+00 4.4496524674881082e+00 0 0 0
959 2 2.7253616539389011e+01 2.6698426057819933e+01 1.2418833853793725e+01 0 0 0
129 2 6.5396489347103000e+00 1.0219905656327096e+01 3.9483905944035063e+00 0 0 0
130 1 8.2805474180231968e+00 1.2048408189379218e+01 1.1125212868064317e+01 0 0 0
210 2 1.9228157667042641e+01 4.4312462852959165e+00 9.9870095850700888e+00 0 0 0
132 2 9.0563859390452670e+00 1.2491659619740128e+01 1.0740367915952771e+01 0 0 0
133 1 1.0611507933555981e+01 2.8580690992596578e+00 4.3816666937026332e+00 0 0 0
134 2 1.1066292165035158e+01 2.0592578393529237e+00 4.7231622918889737e+00 0 0 0
135 2 1.1390923323513622e+01 3.3531981923023535e+00 4.0052229976035409e+00 0 0 0
136 1 1.3354946027204115e+01 4.5086372390710174e+00 1.1260129173868254e+01 0 0 0
137 2 1.4075770740522600e+01 5.0412021628701034e+00 1.0774350910492085e+01 0 0 0
138 2 1.2864849167150268e+01 5.1772494239640023e+00 1.1785850372574377e+01 0 0 0
139 1 1.2940699105027008e+01 1.0265226535622421e+01 4.4443382013313411e+00 0 0 0
140 2 1.3714661319628609e+01 1.0758345221284330e+01 3.9604548449077512e+00 0 0 0
141 2 1.3395187440194178e+01 9.3983856851994005e+00 4.7792821361783737e+00 0 0 0
142 1 1.5738361092187752e+01 1.1735216664108240e+01 1.1249025572848627e+01 0 0 0
143 2 1.6488633109300473e+01 1.2073777179215874e+01 1.0655518506623403e+01 0 0 0
144 2 1.5965776169795760e+01 1.0843434396019989e+01 1.1480674436444440e+01 0 0 0
145 1 7.0640241210630990e+00 2.2923053650606198e+00 5.1333426505161972e+00 0 0 0
146 2 7.8553252546531809e+00 2.1268477303898727e+00 5.6426701323312978e+00 0 0 0
147 2 6.7520416777213352e+00 3.1122799460652288e+00 5.5642678650957365e+00 0 0 0
148 1 9.5281652420027712e+00 4.0633231809188359e+00 1.2095787686145874e+01 0 0 0
149 2 9.9981469456993146e+00 4.1243398745185189e+00 1.1232272258534532e+01 0 0 0
150 2 1.0295069266179258e+01 3.8101720556249692e+00 1.2625070305547974e+01 0 0 0
151 1 9.5419642720535176e+00 9.5157995615392146e+00 4.9389161636939249e+00 0 0 0
152 2 9.0772339577398711e+00 1.0301178428733259e+01 5.2722517533862820e+00 0 0 0
153 2 9.9740544925664363e+00 9.7010246287441628e+00 4.1134100522425712e+00 0 0 0
154 1 1.2268811647195802e+01 1.1006734953022804e+01 1.1974763937981100e+01 0 0 0
155 2 1.1404655818917917e+01 1.0558603546386177e+01 1.1995735936193295e+01 0 0 0
156 2 1.2510593737608776e+01 1.1113946490209873e+01 1.1066616702524700e+01 0 0 0
157 1 1.4380373678079273e+01 2.2499539065344814e+00 4.9918031907310896e+00 0 0 0
158 2 1.5133428839099318e+01 1.9052814916683714e+00 5.5529682459405132e+00 0 0 0
159 2 1.4796501050853315e+01 2.5585331946497099e+00 4.1728644824529821e+00 0 0 0
160 1 1.6883424323659732e+01 4.1629212634009507e+00 1.2340388865120222e+01 0 0 0
161 2 1.6415563660900883e+01 5.0097781971255220e+00 1.2545520540092360e+01 0 0 0
162 2 1.6080811120353601e+01 3.5945552127590292e+00 1.2426177995932161e+01 0 0 0
163 1 1.6924498027077433e+01 9.1810220904646194e+00 5.0649332616240423e+00 0 0 0
164 2 1.6448248466503408e+01 9.9287645359147287e+00 5.4185643253463898e+00 0 0 0
165 2 1.7219976821067920e+01 9.2489373365251257e+00 4.1290728542271609e+00 0 0 0
166 1 1.9531289481938906e+01 1.1173502666349732e+01 1.2023591405890562e+01 0 0 0
167 2 1.9010062870040663e+01 1.1964151119373964e+01 1.2188953721784902e+01 0 0 0
168 2 1.9762024964085313e+01 1.1193654532820480e+01 1.1030737965813588e+01 0 0 0
169 1 9.2486826130432362e+00 4.3662296033036290e+00 6.2609456302896911e+00 0 0 0
170 2 9.8189816837770270e+00 4.0411245317873874e+00 5.5257954042742181e+00 0 0 0
171 2 8.5748545314888993e+00 4.8040126415540421e+00 5.7478233443795945e+00 0 0 0
172 1 1.1515106341071956e+01 6.0180130838646448e+00 1.2772107281068861e+01 0 0 0
81 2 4.4099102885602282e+00 7.1860094115527318e+00 1.1157501239063192e+00 0 0 0
128 2 4.9903102917587017e+00 9.7647943149432859e+00 3.7872917280586331e+00 0 0 0
175 1 1.1314017913150499e+01 1.1451325973445993e+01 6.2927260339472531e+00 0 0 0
176 2 1.1976492066976967e+01 1.0918605349696666e+01 5.8769443647862136e+00 0 0 0
177 2 1.1793683548510934e+01 1.2181325321562641e+01 6.7318221988375369e+00 0 0 0
178 1 1.4307915300383133e+01 1.3371477953401831e+01 1.2790276860412714e+01 0 0 0
179 2 1.3448575226433302e+01 1.3294091031686623e+01 1.2367600631008360e+01 0 0 0
180 2 1.4886871973865187e+01 1.2789045110123036e+01 1.2241815482439188e+01 0 0 0
181 1 1.6542965046908574e+01 4.6254651779406748e+00 5.9642072491756624e+00 0 0 0
182 2 1.7209578784298845e+01 4.2337299591537576e+00 5.2938111488674089e+00 0 0 0
183 2 1.7011811341408780e+01 5.2874292626771808e+00 6.5780372043089841e+00 0 0 0
184 1 1.8789766111318340e+01 6.3080594402791998e+00 1.3243123185157224e+01 0 0 0
281 2 2.0108382875188447e+01 7.6315334703095186e+00 8.8154125541187458e+00 0 0 0
1127 2 2.1203381061476890e+01 2.9118784495657486e+01 1.0792897148853626e+01 0 0 0
187 1 1.8963403852112659e+01 1.1501208770353287e+01 6.0894782264104768e+00 0 0 0
188 2 1.8617359822046787e+01 1.1071048815462452e+01 6.9839037306368024e+00 0 0 0
189 2 1.9358125543392102e+01 1.2238499695617396e+01 6.5287472391103520e+00 0 0 0
190 1 2.1742828059490357e+01 1.3170425096406166e+01 1.3007195051487562e+01 0 0 0
512 2 1.9992722208086345e+01 1.0639604478820511e+01 5.0244695083171464e+00 0 0 0
192 2 2.0970664723681146e+01 1.3193598007999878e+01 1.2425595671621625e+01 0 0 0
193 1 8.4483055305794341e+00 2.6814521293763889e+00 2.9087392845201392e+00 0 0 0
194 2 7.9517458828897665e+00 2.3602047750370936e+00 3.6826079787730062e+00 0 0 0
195 2 9.3593616666641211e+00 2.6193401507757947e+00 3.3122068615080758e+00 0 0 0
196 1 1.0988145003642298e+01 4.4784305914710778e+00 9.9621562359860345e+00 0 0 0
197 2 1.1088907718558172e+01 3.7341778716158216e+00 9.3508757838605945e+00 0 0 0
198 2 1.1892728629171719e+01 4.5883094261499124e+00 1.0319917571151134e+01 0 0 0
199 1 1.0971605707387283e+01 9.9984849430096201e+00 2.6584899884967057e+00 0 0 0
200 2 1.1072432121928134e+01 9.4064921080284414e+00 1.8933843999913624e+00 0 0 0
201 2 1.1797631584350693e+01 9.9228427781675350e+00 3.1957605049753428e+00 0 0 0
202 1 1.3537024716445126e+01 1.1627405738694792e+01 9.7290763515655367e+00 0 0 0
203 2 1.4403175816666428e+01 1.1532386269235277e+01 1.0192174134356955e+01 0 0 0
204 2 1.3513956277871671e+01 1.0898294485385888e+01 9.1000480999167319e+00 0 0 0
205 1 1.5774341465872808e+01 2.8696555347907275e+00 2.8260446343306755e+00 0 0 0
107 2 1.0773738833573475e+01 1.3774334382413123e+01 1.3378418324177398e+01 0 0 0
284 2 1.9886160532390118e+01 1.2713326840339906e+01 2.0859629704255216e+00 0 0 0
208 1 1.8409975259830169e+01 4.0439342749872456e+00 9.6043679106883140e+00 0 0 0
209 2 1.7725311956911728e+01 4.0407837500066135e+00 1.0349300709561607e+01 0 0 0
808 1 2.6631445238813043e+01 2.3872311448712708e+01 1.3285980134682305e+01 0 0 0
211 1 1.8256671656978671e+01 9.7478760549430774e+00 2.7626737852469971e+00 0 0 0
79 1 3.6445690175259684e+00 7.7896359417724064e+00 7.7211985343059542e-01 0 0 0
213 2 1.8002329289443729e+01 1.0511501331750942e+01 2.1263004578351126e+00 0 0 0
214 1 2.0806586799616397e+01 1.1377141677226010e+01 9.3323385608647129e+00 0 0 0
119 2 1.7080311670817068e+01 1.2834519355313905e+01 1.3100198092929524e+01 0 0 0
1133 2 1.5053449425484796e+01 2.2624386909092014e+01 1.1677629075373874e+01 0 0 0
217 1 5.6511095748722688e+00 1.5103805520536389e+00 1.5147154052312817e+00 0 0 0
218 2 4.8538140405358154e+00 9.5301645782131983e-01 1.4530754837714663e+00 0 0 0
219 2 5.9853806426382903e+00 1.8232414355804185e+00 6.7380893497385619e-01 0 0 0
220 1 8.0487098264691923e+00 3.0764372898980694e+00 8.3956081790078887e+00 0 0 0
221 2 7.9243656982174153e+00 3.9709656795114148e+00 8.8225154879003966e+00 0 0 0
222 2 8.5415049795358282e+00 3.3400520992360354e+00 7.6060619780027734e+00 0 0 0
223 1 8.3124040112389643e+00 8.2420291301580821e+00 1.9777987918874314e+00 0 0 0
224 2 8.9610853645678450e+00 7.6423784828010444e+00 2.3559439758801259e+00 0 0 0
225 2 8.6196760706050135e+00 8.4030755548662146e+00 1.1021299672824183e+00 0 0 0
226 1 1.0719410694110852e+01 1.0095213612616805e+01 8.7328909869460887e+00 0 0 0
227 2 1.1351093102999899e+01 9.5551823720149685e+00 9.2332955537883112e+00 0 0 0
228 2 1.1085217016299833e+01 1.0418146963834594e+01 7.8621072865434281e+00 0 0 0
229 1 1.3351193930931622e+01 1.3578368726506946e+00 1.6997475508790196e+00 0 0 0
230 2 1.2620631718578338e+01 6.8494452084770252e-01 1.8039572298231796e+00 0 0 0
231 2 1.3117271034033843e+01 2.1544077730625828e+00 2.1663209624714383e+00 0 0 0
232 1 1.5659045171366779e+01 2.8666081539838375e+00 8.4240786991813223e+00 0 0 0
233 2 2.6527919553874050e+01 3.0262055079624492e+01 8.6479325698748362e+00 0 -1 0
234 2 1.5908100645526918e+01 3.1833632624807233e+00 7.5408841521476475e+00 0 0 0
235 1 1.5688344081096396e+01 8.3012965622380399e+00 1.8787150499310230e+00 0 0 0
236 2 1.6024265330980874e+01 8.5672290680961112e+00 1.0235119094283491e+00 0 0 0
237 2 1.6342873991766954e+01 7.5976032092235002e+00 2.2250304787035975e+00 0 0 0
238 1 1.7984226625961000e+01 1.0261876766054193e+01 8.6830760986036264e+00 0 0 0
239 2 1.8785230570123137e+01 9.7034685868137167e+00 8.8651707026698485e+00 0 0 0
240 2 1.8025876127633683e+01 1.1070447957019848e+01 9.1660088758529561e+00 0 0 0
241 1 7.5647999025514681e+00 4.8908155852248809e+00 1.0452867371979173e+00 0 0 0
242 2 7.7346031975897827e+00 4.2699701127620653e+00 1.7636864846902718e+00 0 0 0
243 2 6.9357432423462271e+00 5.5728981195749263e+00 1.4091695462133633e+00 0 0 0
244 1 1.0226992762725576e+01 6.3264177044220702e+00 7.8504908919103711e+00 0 0 0
245 2 1.0513003372965375e+01 5.6742952114555862e+00 8.5076232557604943e+00 0 0 0
246 2 9.9713802203193094e+00 5.7295524021144484e+00 7.1112913712936265e+00 0 0 0
247 1 9.9713339300400250e+00 1.1835088229602988e+01 7.6226886534813765e-01 0 0 0
248 2 9.1724468717337206e+00 1.2386293249455999e+01 8.4804508692167402e-01 0 0 0
249 2 1.0117669015371686e+01 1.1532051646521962e+01 1.6740469193080092e+00 0 0 0
250 1 1.2786340510521036e+01 1.3265095952756717e+01 7.5841575060798112e+00 0 0 0
251 2 1.3288520775648017e+01 1.2942461670905153e+01 8.3690740110831268e+00 0 0 0
252 2 1.3366400322610062e+01 1.3879221216758086e+01 7.1349325041234684e+00 0 0 0
253 1 1.4680211488839149e+01 4.8579048219385541e+00 9.3110670515810257e-01 0 0 0
254 2 1.4946537181633515e+01 4.2125462394826840e+00 1.6676679827712475e+00 0 0 0
255 2 1.4071921298153873e+01 5.5086141916313780e+00 1.3421576889170597e+00 0 0 0
256 1 1.7590523285034806e+01 6.1507253502296857e+00 7.8200282271394892e+00 0 0 0
257 2 1.7647552563288667e+01 5.5341139841254403e+00 8.5491533749341748e+00 0 0 0
258 2 1.6849182455986618e+01 6.7341383657654879e+00 8.1377999843624984e+00 0 0 0
259 1 1.7646711749931896e+01 1.1541556631323385e+01 8.1679083628807458e-01 0 0 0
260 2 1.7073617369013608e+01 1.2293507059345373e+01 1.1219419834064450e+00 0 0 0
39 2 1.8643322438168642e+01 7.4969226747666431e+00 7.2365695761412097e+00 0 0 0
262 1 1.9829136995013243e+01 1.3480471958523431e+01 7.8931323093898156e+00 0 0 0
263 2 2.0181658548638367e+01 1.2729444321022395e+01 8.4129817036764756e+00 0 0 0
264 2 2.0584064047320961e+01 1.3745011291910540e+01 7.2977125058234229e+00 0 0 0
265 1 9.8132000815692777e+00 5.9304776007579703e+00 3.1999273128452259e+00 0 0 0
266 2 8.9700944861534424e+00 5.6133004131014816e+00 3.4832958827312481e+00 0 0 0
267 2 1.0028862723070567e+01 5.3861852756426387e+00 2.3657897050050987e+00 0 0 0
268 1 1.2381800393222218e+01 7.8794327938035345e+00 9.5579053294353749e+00 0 0 0
269 2 1.2664571867487261e+01 7.2876713927318679e+00 8.8521462330724408e+00 0 0 0
270 2 1.1468244651936349e+01 7.5318517456051248e+00 9.8337978158367747e+00 0 0 0
271 1 1.2472633699163044e+01 1.3293309870408997e+01 2.5726180031656014e+00 0 0 0
272 2 1.3256307675519091e+01 1.3386905548143371e+01 3.2755107639721550e+00 0 0 0
273 2 1.1761796409544340e+01 1.2833290743670817e+01 3.0439271339103744e+00 0 0 0
274 1 1.4661796910061488e+01 1.4907375665629370e+01 9.5411211969116110e+00 0 0 0
275 2 1.4328422936377768e+01 1.5702342481602480e+01 9.1367381464249018e+00 0 0 0
276 2 1.5434079806434807e+01 1.5112970196972309e+01 1.0157125808876607e+01 0 0 0
277 1 1.7016375774469935e+01 6.2466168944129095e+00 2.8642291803722637e+00 0 0 0
278 2 1.6248418017378775e+01 5.6358632338262700e+00 3.1411250581177628e+00 0 0 0
173 2 1.1946631179128932e+01 6.7339760689481398e+00 1.3311909359445258e+01 0 0 0
280 1 1.9603148707756954e+01 8.2046988849846993e+00 9.4974170737329437e+00 0 0 0
122 2 3.0788124537437085e+00 3.4321049320300352e+00 5.2112492638717853e+00 0 0 0
216 2 2.0912699846072375e+01 1.0553395344228868e+01 8.8629152935095910e+00 0 0 0
283 1 1.9642588077930764e+01 1.3397464799912969e+01 2.7516249894833722e+00 0 0 0
320 2 5.9787062773020621e+00 1.1151792864272901e+01 9.2502826329871024e-01 0 0 0
1128 2 2.2038273744527537e+01 2.9759504769773400e+01 1.1918003508898162e+01 0 0 0
286 1 2.1979007354645880e+01 1.4916792126730911e+01 9.6464571191669215e+00 0 0 0
1092 2 1.3078521253337000e+01 2.8348691854507958e+01 8.1936709952464604e+00 0 0 0
288 2 2.1645356097758928e+01 1.5788048575400081e+01 9.3207986360152297e+00 0 0 0
289 1 5.8287004363908705e+00 6.7866187363786636e+00 1.9968635396681984e+00 0 0 0
290 2 5.6273654984168786e+00 6.4925870882084551e+00 2.8985101088735110e+00 0 0 0
291 2 6.5479233705102997e+00 7.4582715494994289e+00 2.0616966932048255e+00 0 0 0
292 1 8.5455453541413817e+00 8.4790554276363075e+00 8.4129382739487575e+00 0 0 0
293 2 9.0832432621134931e+00 7.7882170424927084e+00 8.0078916467524177e+00 0 0 0
294 2 9.1816936850265378e+00 9.2079911986938949e+00 8.5451330736848252e+00 0 0 0
295 1 8.3451819663447395e+00 1.4060240733091135e+01 1.6535021086505226e+00 0 0 0
296 2 8.0307284646081385e+00 1.3561089785894595e+01 2.4656161100322804e+00 0 0 0
297 2 7.5248932649239686e+00 1.4486337370358809e+01 1.2507039074949844e+00 0 0 0
298 1 1.1008705337251108e+01 1.5586355250069992e+01 8.5922818529437528e+00 0 0 0
299 2 1.1358594734345241e+01 1.4925992080400086e+01 8.0012371680144092e+00 0 0 0
300 2 1.0158814834482282e+01 1.5898182809362307e+01 8.1842638283025675e+00 0 0 0
301 1 1.3346322500722493e+01 6.9206702860493250e+00 1.9620628119360208e+00 0 0 0
302 2 1.2910855563079084e+01 6.8686714797880342e+00 2.8518417250103911e+00 0 0 0
303 2 1.4098119878979389e+01 7.5637382989194464e+00 1.8636819126042197e+00 0 0 0
304 1 1.6164262392038449e+01 8.2855546461478120e+00 8.5457257499285628e+00 0 0 0
305 2 1.5913317368236894e+01 8.3345189462480693e+00 9.5096767057909108e+00 0 0 0
306 2 1.6794844634082974e+01 9.0579756121904644e+00 8.5462751601312874e+00 0 0 0
307 1 1.6042019801844948e+01 1.3648203891223558e+01 1.7960582002003638e+00 0 0 0
308 2 1.5380944448117468e+01 1.3920730346043287e+01 1.1014449428139041e+00 0 0 0
309 2 1.6762516907966866e+01 1.4290958747297871e+01 1.7336059070234668e+00 0 0 0
310 1 1.8456460472286647e+01 1.5678723043268008e+01 8.8413803355200482e+00 0 0 0
311 2 1.8871647939423617e+01 1.4940822044934301e+01 8.3750035511475094e+00 0 0 0
312 2 1.7821856863000690e+01 1.6017571480776077e+01 8.1790529253883228e+00 0 0 0
313 1 3.7404408631838999e+00 4.5231527003563095e+00 9.3454390393312137e-01 0 0 0
1126 1 2.2044808346333749e+01 2.9050440553402957e+01 1.1291358718598278e+01 0 0 0
315 2 4.4170079453629931e+00 4.3852777338231839e+00 1.6346481785036771e+00 0 0 0
316 1 6.4064255140987534e+00 6.3963706078123250e+00 7.6682955408174438e+00 0 0 0
317 2 6.6443337338255155e+00 7.1782888927805724e+00 7.1082107440000737e+00 0 0 0
318 2 5.7161889087507429e+00 6.7843466008632287e+00 8.2969743023173539e+00 0 0 0
319 1 6.2866074857373118e+00 1.1978608162314382e+01 1.3500318451656210e+00 0 0 0
876 2 1.5822266618339878e+01 2.7643746491110093e+01 1.3361064952632669e+01 0 0 0
321 2 6.9458145869844543e+00 1.1612535548676298e+01 2.0412625838851017e+00 0 0 0
322 1 9.1467254556594391e+00 1.3470723625253946e+01 7.4272140943162190e+00 0 0 0
323 2 8.5553637099575077e+00 1.4093775665640038e+01 7.9420478468176468e+00 0 0 0
324 2 8.5977129239193317e+00 1.2734308117369995e+01 6.9733547902022428e+00 0 0 0
325 1 1.1043896693591112e+01 4.7911893091463087e+00 9.1976248762076995e-01 0 0 0
1138 1 1.7296335618735931e+01 3.0561228528627961e+01 1.1991965970975507e+01 0 0 0
261 2 1.7117958983420280e+01 1.0936669382050523e+01 2.1488723291505007e-01 0 0 0
328 1 1.3788373789546274e+01 6.5680168641162675e+00 7.5630170281876987e+00 0 0 0
329 2 1.3466628788566437e+01 5.7200107913696572e+00 7.2355760099000328e+00 0 0 0
330 2 1.4544281524721859e+01 6.2240273501265797e+00 8.1346205016555100e+00 0 0 0
331 1 1.3767682223345505e+01 1.1653550582937855e+01 7.5760607902703969e-01 0 0 0
332 2 1.3178810718141296e+01 1.2120949269585269e+01 1.4424128238797227e+00 0 0 0
333 2 1.4398245899156770e+01 1.1334856744614482e+01 1.3878920457088968e+00 0 0 0
334 1 1.6266225789831555e+01 1.3543579787048753e+01 7.8410673641438580e+00 0 0 0
335 2 1.6558981446452066e+01 1.4138767246112570e+01 7.1069131629495113e+00 0 0 0
336 2 1.5504887581346015e+01 1.3969688490504106e+01 8.3777702882023313e+00 0 0 0
337 1 4.6014006844895583e+00 6.0984869921906784e+00 4.5678065760537896e+00 0 0 0
338 2 4.8417028460666289e+00 5.4161631862519801e+00 5.2398946275536149e+00 0 0 0
1140 2 1.8016184511541194e+01 3.1153621020890007e+01 1.2037529712318255e+01 0 0 0
340 1 7.0821049496328836e+00 8.0803106139812257e+00 1.0792915532321429e+01 0 0 0
974 2 2.1752452893506234e+01 1.6644985671757279e+01 3.1625011774125906e+00 0 0 0
342 2 7.6345573481299125e+00 8.2045081357171981e+00 1.0000239064257430e+01 0 0 0
343 1 7.2249080550887417e+00 1.3201708113556611e+01 3.8622661098124893e+00 0 0 0
1134 2 1.4764823530392796e+01 2.3027371446143732e+01 1.3144008481159371e+01 0 0 0
1145 2 2.1677416835619614e+01 2.4616661882888788e+01 1.1642936785716754e+01 0 0 0
346 1 9.6729348592665154e+00 1.5137819956548398e+01 1.1009157630009808e+01 0 0 0
347 2 1.0365286955165873e+01 1.5215910293208696e+01 1.0313636707585276e+01 0 0 0
348 2 9.9168374624251960e+00 1.4344618403633284e+01 1.1558411390036854e+01 0 0 0
349 1 1.2115521279699765e+01 6.3003720032151467e+00 4.3216454202094647e+00 0 0 0
350 2 1.2022392172484093e+01 7.0191155882828786e+00 5.0603787505163158e+00 0 0 0
351 2 1.1189181384594153e+01 6.1615066838829966e+00 3.9951449471092535e+00 0 0 0
352 1 1.4567378280376193e+01 8.2121082918506385e+00 1.0982679390747538e+01 0 0 0
353 2 1.4666868549370033e+01 7.4107182124592619e+00 1.1478569245599807e+01 0 0 0
354 2 1.3703053264370734e+01 8.1581063458748417e+00 1.0418735267156162e+01 0 0 0
355 1 1.4735071820656271e+01 1.3644627238338227e+01 4.2951835650653569e+00 0 0 0
356 2 1.4799862195205694e+01 1.2792489501718354e+01 4.8018547684697204e+00 0 0 0
357 2 1.5419086763940967e+01 1.3683226352343020e+01 3.6030369683404944e+00 0 0 0
358 1 1.6831608011148248e+01 1.5270368440276968e+01 1.1089290111211948e+01 0 0 0
359 2 1.6796197214794507e+01 1.6039749469777760e+01 1.1739841591959790e+01 0 0 0
360 2 1.7538344769132792e+01 1.5496935181684066e+01 1.0386640994591238e+01 0 0 0
361 1 7.4352429681270795e+00 7.9828709238698794e+00 5.2874004492913818e+00 0 0 0
362 2 6.7820818037060313e+00 8.6830652086014375e+00 5.1503873873727652e+00 0 0 0
363 2 8.2534414374583775e+00 8.3408491478184494e+00 5.0073166144746066e+00 0 0 0
364 1 9.8859660174925459e+00 9.7729217453956814e+00 1.2191564930071790e+01 0 0 0
365 2 9.1411278493141470e+00 1.0386760980515920e+01 1.1906385456095959e+01 0 0 0
366 2 9.5023501886794133e+00 9.3035788103350452e+00 1.3020374460125716e+01 0 0 0