LAMMPS data file via write_data, version 15 Apr 2020, timestep = 0

6144 atoms
2 atom types

-1.1431798259445429e+00 6.1111468957127691e+01 xlo xhi
0.0000000000000000e+00 2.8042186737556506e+01 ylo yhi
0.0000000000000000e+00 2.7101945984549424e+01 zlo zhi
1.0160474236922994e+01 1.0185393730097587e+01 7.1130749633839656e+00 xy xz yz

Masses

1 16
2 2

Atoms # atomic

1595 2 1.6415956110242718e+01 1.7812080352807392e+01 1.8092744823721102e+01 0 0 0
1604 2 1.9241272484301344e+01 2.0699556965971695e+01 2.5673387816034097e+01 0 0 0
2594 2 4.9439421426838335e+00 7.9764147411029391e+00 1.0494754267267906e+01 0 1 0
987 2 1.7717003264211414e+01 1.7902440674030373e+01 2.1040525569083790e+01 0 0 0
225 2 9.5931500744946074e+00 5.2966536549235936e+00 1.0283794550123048e+01 0 0 0
52 1 1.4677492868070871e+01 2.6214945645544862e+01 9.1013656444643622e+00 0 -1 0
25 1 9.5989595119507722e+00 1.5681106981942609e+01 1.2129076065891450e+01 0 0 -1
1625 2 1.5269997065834559e+01 1.5583015210179370e+01 1.8512727765006190e+01 0 0 0
2464 1 1.0347266113685320e+01 1.3578535233936977e+01 9.7947073188497082e+00 0 1 0
886 1 1.6615366861446255e+01 2.0856694354434392e+01 1.9687013517853554e+01 0 1 -1
1633 1 2.0075415259374640e+01 1.5893138151020297e+01 1.9722597542307824e+01 0 0 0
849 2 1.7886137399278887e+01 1.7855937246018403e+01 4.6944789197060919e+00 0 0 -1
2443 1 9.8369920235242354e+00 1.1602902260019336e+01 6.6924785591376779e+00 0 1 0
358 1 1.9229336999448591e+01 2.1669727316876237e+01 2.4372780105480640e+01 0 0 0
2466 2 1.0390223159828327e+01 1.2977459995335012e+01 1.0530800961723294e+01 0 1 0
1895 2 1.1431295649133309e+01 1.7521902933830226e+01 6.7720392117478170e+00 0 0 1
1670 2 6.8731899575456818e+00 5.6646486933244926e+00 1.4075836884766608e+00 0 0 0
1634 2 1.9556967224904696e+01 1.5139213959303712e+01 2.0064189075713330e+01 0 0 0
1064 2 2.0397934848043310e+01 2.3603023238340597e+01 2.1705345754912042e+01 0 0 -1
1894 1 1.1112399925581332e+01 1.8217712491078789e+01 7.3917562095268243e+00 0 0 1
1740 2 1.7460819772635141e+01 2.2138149285766978e+01 2.6524838385589877e+01 0 0 0
1916 2 1.3742485280855098e+01 2.1206408626555774e+01 1.8136214865916283e+01 0 0 0
611 2 8.3378656465497833e+00 4.0163257472798728e+00 1.4178415626806750e+01 0 1 0
1709 2 1.6571743065779685e+01 6.9636937242124048e+00 1.7467172996350268e+01 0 0 0
487 1 1.8088359879002923e+01 2.4663145163896999e+01 2.4067353256021565e+01 0 0 -1
53 2 1.5149553161265086e+01 2.5549401612364775e+01 9.6703467790646123e+00 0 -1 0
1587 2 1.2098890664592158e+01 1.3434981877178418e+01 1.3042205102571989e+01 0 0 0
1586 2 1.1003815682710940e+01 1.2417694337554497e+01 1.3212492493844033e+01 0 0 0
336 2 1.1692601968257827e+01 2.1232867348103685e+01 1.8006269160286049e+01 0 0 0
2564 2 9.9785226215022327e+00 1.0392826150795772e+01 2.8762241102068558e+00 0 1 0
2655 2 1.5923382844747067e+01 1.0323832071831019e+01 5.1313226037297035e+00 0 1 0
1871 2 1.7449643110364864e+01 2.4900438746952560e+01 2.0419237675460657e+01 0 0 0
610 1 7.5724153201248718e+00 4.5234112609052834e+00 1.4473854098832815e+01 0 1 0
1275 2 5.7408478963743663e+00 7.7404316923152523e+00 2.4875893389734114e+00 0 0 0
783 2 1.5010133134829779e+01 3.0133885712749127e+01 1.4991193136896831e+01 0 0 0
2450 2 1.6131941942484517e+01 2.2952483680701501e+01 2.2895653135427803e+01 0 0 0
1708 1 1.5830086199206900e+01 7.4538354976748540e+00 1.7927546665378031e+01 0 0 0
27 2 1.0000808096257666e+01 1.5293661922579687e+01 1.1311430660166002e+01 0 0 -1
907 1 2.1823826586028233e+01 3.1584463032890088e+01 2.0797352437101338e+01 0 0 -1
99 2 9.5206774522893660e+00 1.4660249342153412e+01 6.4788549358546073e+00 0 0 0
1561 1 1.2970398834309258e+01 1.5634980166448221e+01 1.6990488000808433e+01 0 0 0
1901 2 1.1805286903758166e+01 8.8461949808952944e+00 2.3108388196025192e+01 0 0 0
174 2 2.1704358035469852e+01 7.7614477611958543e+00 2.3468471980120054e+01 0 0 -1
107 2 9.7646399711404932e+00 2.0826513035239145e+01 1.1952744527458830e+01 0 0 0
924 2 1.9695166240801832e+01 1.4089242476104403e+01 1.0963824603780225e+01 0 0 0
149 2 9.1526505644630216e+00 6.5945946555795780e+00 2.5015772313530434e+01 0 0 -1
224 2 1.0187593301935259e+01 4.8241941788007239e+00 8.9102269164136700e+00 0 0 0
1781 2 9.3464427140334170e+00 8.7580697603851956e+00 1.2384491824770691e+01 0 0 0
1710 2 1.5225011147162260e+01 7.6727538629147078e+00 1.7178616905388584e+01 0 0 0
1689 2 2.2403750771764333e+01 3.2112830360159933e+01 1.9224422508620030e+01 0 -1 0
1705 1 1.8235870924213334e+01 1.4441422201982917e+01 1.8098750683830684e+01 0 0 -1
1773 2 2.5907765663476653e+01 3.2479848451538082e+01 2.6242023607789498e+01 0 0 -1
101 2 6.5442208976495184e+00 9.4317215677761084e+00 7.0377005642148367e+00 0 0 0
1570 1 1.7389683108003943e+01 9.6743868039066232e+00 1.8099369483830348e+01 0 0 1
2314 1 1.8246717174061402e+01 2.1272246280276565e+01 1.1927876147319749e+01 0 0 1
1129 1 1.4187128929348990e+01 1.6567932834424383e+01 2.1863393708242718e+01 0 0 -1
2360 2 1.2289949687398572e+01 1.5405595498694264e+01 1.1624086425210857e+01 0 0 0
1635 2 1.9620147460152499e+01 1.6195813982593251e+01 1.8865320328273079e+01 0 0 0
1017 2 6.7359445351419227e+00 4.0659038052560357e+00 1.2852958297328364e+01 0 1 -1
747 2 2.4149045674075538e+01 2.7843943208784584e+01 2.2708935059442652e+00 0 -1 0
821 2 9.0050848823748595e+00 1.7430850310872003e+01 7.8815232034068028e-01 0 0 0
1879 1 8.8466984087393232e+00 1.0105633890695870e+01 2.0955901531785518e+01 0 0 0
896 2 1.8538607970377001e+01 2.7933295312546282e+01 2.2332686354739739e+01 0 0 -1
868 1 7.8731060537489483e+00 1.5358330564502129e+01 8.8716793169519672e+00 0 0 0
944 2 6.1276122938097846e+00 1.2881582999066119e+01 1.4182579478135060e+00 0 1 0
1571 2 1.6872250032533856e+01 8.8344504824396033e+00 1.7920812371666376e+01 0 0 1
1659 2 2.0811381738017186e+01 2.8550500259070031e+01 2.1688581262756031e+01 0 -1 0
894 2 1.5845018105047046e+01 1.7042577178701574e+01 1.2738916346853511e+01 0 0 0
102 2 6.5826098799441191e+00 8.8597197549248357e+00 8.3833506882581919e+00 0 0 0
1274 2 6.0965558187556921e+00 8.6452743263695968e+00 1.2403516784252944e+00 0 0 0
2365 1 2.9422320956313889e+01 2.3515571121773284e+01 2.5604982299019461e+01 0 0 -1
1669 1 6.5182499882049711e+00 5.5471332843894503e+00 5.0171753854914281e-01 0 0 0
1063 1 1.9858484440825261e+01 2.4394583786784231e+01 2.2005892479459408e+01 0 0 -1
1671 2 1.7192956236968840e+01 1.1976163838017222e+01 2.7081215553281545e+01 0 0 -1
1791 2 5.4006834134602126e+00 8.0370461209669717e+00 5.0360238875254693e+00 0 0 1
59 2 1.5298677845606406e+01 2.7222673894779799e+01 2.1458336039739528e+01 0 0 -1
846 2 1.5915230336223605e+01 1.6792334365852106e+01 2.4714820215311686e+01 0 0 -1
359 2 1.9216538378068279e+01 2.1140076935437691e+01 2.3496777767725785e+01 0 0 0
1739 2 1.6274908554346034e+01 2.1416346460807802e+01 2.5881205854690467e+01 0 0 0
822 2 1.8350333401049916e+01 2.4844847577672297e+01 2.6602370324201807e+01 0 0 -1
2471 2 1.8034916278410503e+01 8.1057890220921394e+00 2.2518914095231970e+01 0 1 0
1677 2 1.2385397811630654e+01 1.8373715162389836e+01 1.8743717861426653e+01 0 0 0
887 2 1.6511671828696187e+01 2.0876318919491908e+01 2.0645468518942909e+01 0 1 -1
2465 2 9.5292186787753241e+00 1.3276368750376127e+01 9.3754788004380405e+00 0 1 0
54 2 1.5342904983551126e+01 2.6138538399384515e+01 8.4049738913900782e+00 0 -1 0
348 2 7.3120991116613983e+00 1.4958867991762565e+01 1.0448064200841170e+01 0 0 0
223 1 9.4788772387270370e+00 5.3647974887201215e+00 9.3279173777860311e+00 0 0 0
1917 2 1.4548378296861383e+01 2.1009220743680590e+01 1.6862946684417096e+01 0 0 0
353 2 8.2608821802797099e+00 9.7394468923538362e+00 1.0533468173190364e+01 0 0 0
2407 1 1.4939266017399248e+01 1.6950510988767242e+01 6.9063097709226460e+00 0 0 0
1687 1 2.2222556683660283e+01 3.2583256186544958e+01 1.8389400021243965e+01 0 -1 0
986 2 1.8034326163121250e+01 1.6457449338021036e+01 2.1267982902689990e+01 0 0 0
1706 2 1.8634037252421187e+01 1.4656352371493973e+01 1.7221532573479450e+01 0 0 -1
1703 2 1.3084368838677380e+01 1.4002724276279391e+01 2.0381147063622965e+01 0 0 0
1374 2 2.7655182683903046e+01 2.3230962355312506e+01 2.5471650739981460e+01 0 0 -1
1688 2 2.2014341350098960e+01 3.1843044432124337e+01 1.7799927382410466e+01 0 -1 0
1002 2 6.5303348016993858e+00 1.5275655243890821e+01 4.3283004872121733e+00 0 0 0
1610 2 7.6086399244263099e+00 1.6797812733932126e+01 2.4678403285678474e+00 0 -1 0
922 1 2.0661126534464398e+01 1.3909344410376384e+01 1.1195317589054568e+01 0 0 0
2409 2 1.4635314684861221e+01 1.7880055498426781e+01 6.5974093952954913e+00 0 0 0
845 2 1.6026725600078144e+01 1.5348763192699472e+01 2.4284703228343965e+01 0 0 -1
1563 2 1.3588299656349839e+01 1.6061352482393350e+01 1.6350024215641842e+01 0 0 0
908 2 2.1213896871118461e+01 3.2343268226459486e+01 2.1063445241700510e+01 0 0 -1
893 2 1.5005363859226701e+01 1.8207487778237301e+01 1.3061571977344981e+01 0 0 0
28 1 2.1861408525175776e+01 2.6402665006718749e+01 1.6346205176699797e+01 0 0 0
2652 2 2.6634987834190053e+01 2.4097295869344933e+01 2.0055778531425283e+01 0 0 0
755 2 1.2867573234385947e+01 2.2145110990421628e+01 1.4817787255178144e+01 0 0 0
300 2 1.3103078619040909e+01 1.9576415809768047e+01 9.6838151877816934e+00 0 0 0
1585 1 1.1750730249649893e+01 1.2814656123230193e+01 1.3715687634507752e+01 0 0 0
2414 2 1.5733141404547915e+01 1.3216141276821354e+01 1.5461546564574705e+01 0 0 1
1664 2 9.7676063715954609e+00 1.7893579628752949e+01 1.4041671596785655e+01 0 0 0
2441 2 1.5701509319452882e+01 2.0381101700407509e+01 9.2419066812645472e+00 0 0 1
847 1 1.6985944537583279e+01 1.8230153764420450e+01 4.8940888592301901e+00 0 0 -1
1562 2 1.2701735589081544e+01 1.6441857115127640e+01 1.7452985580411269e+01 0 0 0
1015 1 6.5833137151499983e+00 4.2838529581417895e+00 1.1896192198275028e+01 0 1 -1
1738 1 1.6978789177619163e+01 2.2118695473186889e+01 2.5684725247933343e+01 0 0 0
88 1 2.6561237446992017e+01 2.3852327062250581e+01 1.2792939453565223e+01 0 -1 -1
30 2 2.2219535840097492e+01 2.5782086019843486e+01 1.6974012326960896e+01 0 0 0
437 2 1.8140807311297269e+01 1.3138588552112280e+01 8.9732607367166679e+00 0 -1 0
781 1 1.4509931157094154e+01 2.9280147330880894e+01 1.4873305355554022e+01 0 0 0
150 2 1.0593106747231708e+01 7.1577299719184611e+00 2.4475666795264495e+01 0 0 -1
2440 1 1.5604891620757257e+01 2.1365147358323608e+01 9.2578652197249713e+00 0 0 1
98 2 7.9963404810907193e+00 1.4321342387402071e+01 6.1699224168709197e+00 0 0 0
2408 2 1.5767730884703308e+01 1.7209266823646015e+01 7.3480222840789953e+00 0 0 0
369 2 1.5501446985674846e+01 6.8582862217240166e+00 1.2926107313153656e+01 0 0 -1
1065 2 1.9098362686467304e+01 2.4698982990118719e+01 2.1485270686966860e+01 0 0 -1
1130 2 1.3244822471569604e+01 1.6631161237461384e+01 2.1932147783143940e+01 0 0 -1
2355 2 1.9868236575545929e+01 2.7283991744968414e+01 2.0404008291760597e+01 0 0 0
962 2 2.3670818509148091e+01 2.9165438112282192e+01 2.2645962327851276e+01 0 0 -1
888 2 1.5803838086024818e+01 2.0500469524658175e+01 1.9257017154835268e+01 0 1 -1
1135 1 1.3955364768040774e+01 1.0366972353105350e+01 2.3486122522344775e+01 0 1 -1
299 2 1.2283689059745679e+01 2.0770337556748807e+01 9.1063021349167421e+00 0 0 0
626 2 2.4074129170649087e+01 1.6861081822037349e+01 2.3805374795707468e+01 0 0 -1
873 2 1.6093436927316819e+01 1.3554500569519604e+01 1.9454224483702728e+01 0 0 0
105 2 8.2320895198570057e+00 1.1399728411970546e+01 9.2126819167939686e+00 0 0 0
2311 1 1.8321556686347716e+01 1.4253605725650958e+01 2.6045059339197749e+01 0 1 -1
1515 2 1.0168122806062703e+01 1.5434089586517901e+01 3.2250272146389687e+00 0 0 0
1896 2 1.1742307028306946e+01 1.8483697494823613e+01 8.1102720085327977e+00 0 0 1
1546 1 7.1623725540346452e+00 9.2168794402527912e+00 1.5342955792528408e-02 0 1 1
984 2 2.0037664395385566e+01 8.2742482851444965e+00 1.4115619557838594e+01 0 1 -1
588 2 9.7032840333162440e+00 9.8471395224137659e+00 6.2113982201474105e+00 0 0 0
909 2 2.1746855670178377e+01 3.0957146512071606e+01 2.1534844208920667e+01 0 0 -1
2668 1 2.0490359007336451e+01 2.1809966988222563e+01 1.3149039562952030e+01 0 0 0
2354 2 1.9885384977047519e+01 2.6561834756788613e+01 1.8969272824142976e+01 0 0 0
1820 2 2.1782532386444625e+01 1.4043301800999586e+01 8.4496946391252425e+00 0 0 0
133 1 2.7292340883191208e+01 2.3465936345005851e+01 1.6327603664288155e+01 0 -1 0
1273 1 5.4187327066102293e+00 8.5099415439788544e+00 1.9580236619200431e+00 0 0 0
1132 1 1.1545332118870418e+01 3.8800159474772467e+00 8.5791286691341000e+00 0 1 0
1780 1 9.9269597016750470e+00 9.2009654071673133e+00 1.1732065266376475e+01 0 0 0
898 1 1.4686528793662628e+01 2.4392397442916039e+01 1.8427123301805384e+01 0 0 0
1514 2 1.0055777924932752e+01 1.6617622437674409e+01 4.2033763127020132e+00 0 0 0
1111 1 1.1761577010184908e+01 2.2305717884208725e+01 9.3794783642021979e+00 0 0 0
352 1 7.9212427927704816e+00 9.6654027943444305e+00 9.6120545931034691e+00 0 0 0
961 1 2.4020636200629543e+01 2.9164142861368433e+01 2.3569543004948571e+01 0 0 -1
885 2 1.4921136996867588e+01 5.0059813448902597e+00 1.3014127157737471e+01 0 1 -1
2768 2 1.9777276637015270e+01 8.4055345435153175e+00 2.6188723309114124e+01 0 1 -1
2316 2 1.8810278793780522e+01 2.1140687490060543e+01 1.1172132946318476e+01 0 0 1
975 2 1.4347331490379563e+01 2.6424536992346813e+01 1.2601950403117794e+01 0 0 0
818 2 2.1687394934340237e+01 3.0679258264285096e+01 1.5922677255146397e+01 0 0 -1
775 1 1.2232090774139253e+01 2.4021169239728540e+01 3.6475207022402336e+00 0 0 0
1603 1 1.9294392801030732e+01 1.9973979769680057e+01 2.6392300725646077e+01 0 0 0
2635 1 1.8251033763816011e+01 2.7453041096115108e+01 2.4091400478553439e+01 0 0 0
1605 2 1.9690556212530378e+01 1.9107321423645800e+01 2.5997289184235658e+01 0 0 0
60 2 1.5444896082052310e+01 2.6446498906643022e+01 2.2842730571310941e+01 0 0 -1
77 2 1.2237409779916884e+01 2.4377778873212659e+01 1.0254540221424120e+00 0 -1 0
100 1 6.0914091511240542e+00 8.6908911859605293e+00 7.5382335867489152e+00 0 0 0
1877 2 1.3489019312592276e+01 5.6613811070949023e+00 1.8894279980375945e+01 0 0 0
2669 2 2.1146688514927924e+01 2.2508324760754185e+01 1.3347280425543753e+01 0 0 0
2323 1 8.0303625642670671e+00 2.0944356659539455e+01 1.7896361375290253e+00 0 1 1
1620 2 7.1989792241285144e+00 1.7829100858045699e+01 6.6315784697591225e+00 0 0 1
1016 2 6.4899284841664810e+00 3.3787387468912988e+00 1.1464322903930441e+01 0 1 -1
2673 2 4.9681527927666007e+00 5.1743806644059847e+00 1.2098344802061456e+01 0 1 0
995 2 5.3004730057011287e+00 1.0102958760908495e+01 2.7254801356730538e+00 0 1 0
97 1 8.7424300760614582e+00 1.4185408545563718e+01 6.7969353092903466e+00 0 0 0
2361 2 1.3213806339834317e+01 1.4227184976897012e+01 1.1330762074886531e+01 0 0 0
1675 1 1.2968761868196044e+01 1.8159751879323377e+01 1.7988784802640662e+01 0 0 0
1513 1 9.5044548706892780e+00 1.5982196511471008e+01 3.7438810859829803e+00 0 0 0
1078 1 1.7155595794974026e+01 3.0860044514394783e+01 1.6447034320969301e+01 0 0 0
963 2 2.4957089231355077e+01 2.9397299720138630e+01 2.3470799608829154e+01 0 0 -1
1547 2 1.7806638496361824e+01 1.5515119154108543e+01 2.6703503832705618e+01 0 1 0
2353 1 2.0425706502454567e+01 2.6857751839182907e+01 1.9725792656371961e+01 0 0 0
917 2 1.3386446235710551e+01 1.3727380539854174e+01 2.5260609716081053e+01 0 1 -1
417 2 1.4213403548319123e+01 1.7710936076901767e+01 1.8909874704376364e+01 0 0 0
985 1 1.7935723046098992e+01 1.7248810567730381e+01 2.1780266730105577e+01 0 0 0
1884 2 1.1713964575068999e+01 1.4793045856714711e+01 6.4765160369923169e+00 0 0 0
76 1 1.1675215897243465e+01 2.4537067033939767e+01 2.4640498276380035e-01 0 -1 0
298 1 1.2531767932667604e+01 1.9795172012386743e+01 8.9938559299135985e+00 0 0 0
1707 2 1.7270398924524091e+01 1.4678761476954300e+01 1.8042613630196520e+01 0 0 -1
234 2 1.4114264396955836e+01 1.9783068675151597e+01 2.2188237465387260e+01 0 -1 0
612 2 7.9558520907300156e+00 5.2879754392115146e+00 1.4965023490529298e+01 0 1 0
1494 2 2.8774956260788880e+01 3.0378933805953562e+01 1.4859460943847724e+01 0 0 0
1079 2 1.7390153443301646e+01 2.9935154244451624e+01 1.6427954178998370e+01 0 0 0
883 1 1.4937483276339083e+01 5.4657413464330311e+00 1.2180499941581909e+01 0 1 -1
2442 2 1.4881592494652679e+01 2.1588109683245968e+01 8.5472972114017729e+00 0 0 1
1915 1 1.4514270535961099e+01 2.0607582114196354e+01 1.7774321841278596e+01 0 0 0
2451 2 1.5178594958618703e+01 2.4094213736159386e+01 2.2293205197558009e+01 0 0 0
2315 2 1.8389573408395933e+01 2.0448931145137976e+01 1.2384251243012752e+01 0 0 1
2389 1 1.2161609871088405e+01 2.5084656334081600e+01 8.3662645168932510e+00 0 0 0
983 2 1.9841128605281575e+01 9.2262154173032140e+00 1.5232187092186955e+01 0 1 -1
923 2 2.0707669253674204e+01 1.3107443959823787e+01 1.1710850486060986e+01 0 0 0
2572 1 1.4482481505311416e+01 1.7610892417769215e+01 1.5849433283347683e+01 0 0 0
354 2 8.6038620802379864e+00 9.1110402437724680e+00 9.1496241392796964e+00 0 0 0
156 2 4.5238492388680207e+00 3.9322870105824723e+00 8.4831611192168328e+00 0 0 0
1589 2 2.0371742750585636e+01 2.9000570630930675e+01 2.6598700249824784e+01 0 -1 0
1616 2 1.1755949313040738e+01 1.9626350888274697e+01 1.2384503085470588e+01 0 -1 0
1050 2 1.4376787420077545e+01 2.0029620140543823e+01 5.9249538331962874e+00 0 0 0
2390 2 1.1580154976572684e+01 2.5288269809655059e+01 9.1723116032724512e+00 0 0 0
1594 1 1.6754077663984006e+01 1.7688565149160425e+01 1.7177792736965301e+01 0 0 0
2445 2 1.0188758033074079e+01 1.1383435811557254e+01 7.6000931061230537e+00 0 1 0
1588 1 9.6555516984798757e+00 2.2485424484508908e+01 1.0196914615584309e-01 0 -1 1
1150 1 1.4423243000791054e+01 1.5513571105579416e+01 1.3905525528508928e+01 0 0 0
1841 2 9.6226221892230566e+00 6.9739722764347043e+00 1.4873600141600982e+00 0 0 1
313 1 1.0979485209374122e+01 1.7050138950186110e+01 1.4440336144815491e+01 0 0 -1
1118 2 2.5476272688454124e+01 2.6017969209186457e+01 2.2405807710070970e+01 0 0 -1
1872 2 1.7272017996322788e+01 2.6164656577277377e+01 2.1257708747319040e+01 0 0 0
2613 2 1.7519529124590317e+01 2.7029775503890082e+01 1.3353908813426793e+01 0 0 1
1133 2 1.1978405104130507e+01 4.2112316885062970e+00 7.7685819798615228e+00 0 1 0
1762 1 9.9263617952053416e+00 1.1800243494583771e+01 1.2099492651353195e+01 0 0 0
2556 2 2.2407003404043081e+01 1.9778439735189856e+01 2.2454636562660035e+01 0 0 0
2548 1 2.3576449729292300e+01 1.1647073295579133e+01 2.3308965899967330e+01 0 1 0
1870 1 1.7924262634323590e+01 2.5728323845661208e+01 2.0662214216261617e+01 0 0 0
1662 2 6.9826544092277132e+00 1.4791270039123148e+01 1.6810922473018497e+00 0 -1 1
1136 2 1.3775042944050423e+01 1.0272423160071328e+01 2.4434630411382852e+01 0 1 -1
1736 2 1.2546949294906359e+01 7.6841043999786613e+00 1.1943255111254345e+01 0 0 0
376 1 2.1829193181719248e+01 2.8966617390946936e+01 1.8834505352188906e+01 0 -1 0
1109 2 1.1070254915135719e+01 5.9993637569959288e+00 1.3438327767506653e+01 0 0 0
372 2 1.1162212716692515e+01 1.2754537446213387e+01 2.3052485567449025e+01 0 0 0
333 2 1.7763755207196805e+01 3.2540803951327682e+01 1.8973388174552891e+01 0 0 0
2555 2 2.1671443048577295e+01 1.9842307907195554e+01 2.1043194703720832e+01 0 0 0
374 2 6.5699550318731852e+00 7.0427279603926980e+00 7.1394573185859720e+00 0 0 0
1801 1 1.2247925315039350e+01 1.9331879035776272e+01 1.5250614779403938e+01 0 -1 0
442 1 9.0292910543893150e+00 4.8813569912547274e+00 1.9169056737418653e+00 0 0 0
2601 2 1.7200212777548064e+01 2.2092850737326529e+01 8.8166953629611804e+00 0 0 0
2600 2 1.8581757428953086e+01 2.2614414437764992e+01 9.1548860997476087e+00 0 0 0
188 2 1.3493902599930223e+01 2.2157592628919296e+01 1.1494981932240547e+01 0 0 0
2444 2 9.3146939697376183e+00 1.2430115065048856e+01 6.7934704002949609e+00 0 1 0
1701 2 1.3697514873502975e+01 1.6027478196883983e+01 2.5829486477011272e+01 0 0 0
2642 2 8.1981001153530144e+00 4.5180187262124356e+00 9.0854822289150832e+00 0 0 1
2307 2 2.0041336667307263e+01 2.5522256311219209e+01 2.3734222471067463e+00 0 -1 0
1119 2 2.5737823791141221e+01 2.6577289523182493e+01 2.1070285524757036e+01 0 0 -1
1088 2 1.8913160611017396e+01 3.0099735626008922e+01 2.2625835647047591e+01 0 0 -1
345 2 4.0742486795924631e+00 1.1438598217910283e+01 1.3974792874212660e+00 0 0 0
269 2 2.0467723677497155e+01 2.0384282878759780e+01 1.8985922393573748e+01 0 -1 -1
2306 2 2.0663875356088987e+01 2.5005728166222596e+01 3.6331012656814803e+00 0 -1 0
198 2 1.6530991672267543e+01 2.8509044105727106e+01 1.2024562856349313e+01 0 -1 0
1089 2 2.0017641542213543e+01 3.1157157485647168e+01 2.3148779046328666e+01 0 0 -1
2468 2 1.1070877026641353e+01 1.1754713595575879e+01 5.6505450768469103e+00 0 0 1
2570 2 1.8852510992686792e+01 2.6071297785153689e+01 8.2386966706225895e+00 0 0 0
776 2 1.3015826666545028e+01 2.4541924348339496e+01 3.5704506227832269e+00 0 0 0
830 2 1.7059791909277983e+01 2.2204219424503968e+01 1.2241990940307931e+01 0 0 0
1658 2 2.1078452510261428e+01 2.8650669234515394e+01 2.3288246623042511e+01 0 -1 0
72 2 1.0465862204361599e+01 1.7257940314250945e+01 1.0053227582317568e+01 0 0 0
2604 2 1.8111606643019044e+01 1.8046097523944717e+01 2.4701391975045585e+01 0 1 0
2397 2 1.3831557513002382e+01 2.9036508179117419e+01 9.6626880773392614e+00 0 0 0
1134 2 1.1203311415682775e+01 2.9366007588573186e+00 8.3871955954607600e+00 0 1 0
2644 1 1.6744291038865033e+01 1.1465475876436187e+01 2.3624741793593241e+01 0 0 0
3026 2 2.8072110296432992e+01 2.9274658374487377e+01 1.8290382920487453e+01 0 0 0
332 2 1.7569730371411715e+01 3.2065264932021044e+01 1.7522931143972077e+01 0 0 0
1735 1 1.2337915285584963e+01 8.3137891477613977e+00 1.2669689349079425e+01 0 0 0
2646 2 1.6931721142545133e+01 1.1156287864823888e+01 2.4543729874339249e+01 0 0 0
2413 1 1.4927322141317283e+01 1.3418955091185273e+01 1.5946152671254765e+01 0 0 1
895 1 1.8836027815432878e+01 2.8498305102907221e+01 2.1581804692304161e+01 0 0 -1
2603 2 1.7366332497586903e+01 1.8000671764988383e+01 2.3384631872320870e+01 0 1 0
2554 1 2.1960475249761757e+01 1.9249712233869161e+01 2.1759000137256184e+01 0 0 0
2629 1 6.7766583703997121e+00 6.6873876749964118e+00 1.0647076943812682e+01 0 0 0
2305 1 2.0814057721531604e+01 2.5750259390840807e+01 2.9123200201786648e+00 0 -1 0
443 2 9.1983269384935706e+00 5.2823586397533369e+00 2.7814332683259995e+00 0 0 0
829 1 1.6380213063999676e+01 2.2960533284696488e+01 1.2358936316602643e+01 0 0 0
2375 2 5.5144401904267717e+00 4.4400792842065089e+00 6.6797044314086911e+00 0 1 1
994 1 5.0442254701418037e+00 1.1046707838490594e+01 2.7551922422695485e+00 0 1 0
2641 1 7.3135074937985429e+00 4.2710729231731985e+00 8.7381461005346459e+00 0 0 1
897 2 1.8215332492397152e+01 2.8313262862998521e+01 2.0832056738275668e+01 0 0 -1
318 2 2.1798323333606053e+01 2.5963141213569532e+01 2.5754546608184540e+01 0 -1 -1
725 2 7.4049977573873242e+00 6.2265544331952238e+00 3.7324892659453019e+00 0 0 1
2456 2 1.4845126141470093e+01 2.1924430347933168e+01 2.0275678153974557e+00 0 0 1
1672 1 1.7142273788590536e+01 2.9743324288448619e+01 7.4513643419919022e+00 0 -1 0
1617 2 1.3206497445835414e+01 1.9919513444868091e+01 1.2053192482791699e+01 0 -1 0
1117 1 2.6208582999816471e+01 2.6442111525698621e+01 2.1924997276853340e+01 0 0 -1
1737 2 1.1825143330328164e+01 7.7744093986079941e+00 1.3324086736535401e+01 0 0 0
1909 1 1.7185011239156463e+01 1.0049157719527569e+01 1.4774280051720208e+01 0 0 0
842 2 1.4249579430136459e+01 2.3020444260701883e+01 2.3622908718041359e+01 0 0 -1
368 2 1.4818781060562632e+01 7.8253287777077301e+00 1.3864123944564650e+01 0 0 -1
197 2 1.5826829709432786e+01 2.8309133656173220e+01 1.3389744644629404e+01 0 -1 0
759 2 2.1991844642609568e+01 2.7224278065712998e+01 6.1621772648462221e+00 0 -1 0
233 2 1.4122249434075449e+01 1.9154671300679656e+01 2.3591306598518880e+01 0 -1 0
444 2 9.9270678473264375e+00 4.6346963075931162e+00 1.6749416862326110e+00 0 0 0
2513 2 1.7372867582999152e+01 2.4061370695607927e+01 1.6201042782514648e+01 0 0 0
2406 2 1.4928322955003239e+01 2.6176911541103294e+01 1.8127700074846537e+01 0 0 0
1825 1 5.7983377879120690e+00 7.6301051691731114e+00 1.4549140118474744e+01 0 0 0
2467 1 1.1775741192808704e+01 1.1662514181275141e+01 4.9667940810657418e+00 0 0 1
1596 2 1.7696508625637172e+01 1.7750662044146541e+01 1.7141961415209291e+01 0 0 0
1621 1 1.3489976241635475e+01 1.1032895509059731e+01 1.8658793502029006e+01 0 0 -1
1622 2 1.3071019985976470e+01 1.1842634896634316e+01 1.8977267826890102e+01 0 0 -1
1151 2 1.3876470129454415e+01 1.5312144902176598e+01 1.3109592869366429e+01 0 0 0
1691 2 2.2926596660018593e+01 2.8108675374878750e+01 2.6604076876775135e+01 0 -1 0
316 1 2.1199394150436358e+01 2.5525015655996395e+01 2.5202177980434964e+01 0 -1 -1
2612 2 1.8985346844633305e+01 2.6620694451468243e+01 1.3830690459558010e+01 0 0 1
2491 1 9.1239227561210665e+00 1.9069532137343806e+01 4.1419303906568707e+00 0 0 1
293 2 6.7182863914928141e+00 1.2902959512235372e+01 8.2201100791413637e+00 0 0 0
1110 2 1.0949472180943243e+01 6.3748717059613389e+00 1.4875865449909574e+01 0 0 0
1876 1 1.4062786903760076e+01 6.1012416723143623e+00 1.9492558519616431e+01 0 0 0
2563 1 9.3375707042232658e+00 9.7388826868873437e+00 3.2144037666273761e+00 0 1 0
2630 2 6.8457863357937123e+00 5.7605663693685294e+00 1.1063261879330367e+01 0 0 0
216 2 1.7825069605405922e+01 1.9169100390447404e+01 1.4380410074295630e+01 0 0 0
819 2 2.0223306267498771e+01 3.0846018773480573e+01 1.6515603985376039e+01 0 0 -1
373 1 6.9231662070911941e+00 6.1717863973695941e+00 6.7763817957074162e+00 0 0 0
1049 2 1.3535475344195193e+01 1.9555952237613649e+01 7.1923962125907837e+00 0 0 0
2512 1 1.7947220510611722e+01 2.3822470319915880e+01 1.6937095172660566e+01 0 0 0
214 1 1.8160920714066108e+01 1.9019640178613734e+01 1.3427130226618400e+01 0 0 0
1900 1 1.1978973199038194e+01 7.9981512204885004e+00 2.3643186460024580e+01 0 0 0
375 2 7.3892229076772438e+00 5.6639082531708773e+00 7.4339894765668548e+00 0 0 0
1668 2 7.5693215454256553e+00 1.1020763712537546e+01 5.2295578337216464e-01 0 0 1
2439 2 6.2025572472116028e+00 1.0472735082983515e+01 5.3924999305724377e+00 0 1 0
189 2 1.4446006090982715e+01 2.1396326031129547e+01 1.0556525689445198e+01 0 0 0
844 1 1.5581363544288987e+01 1.5912105895034799e+01 2.4949713119245438e+01 0 0 -1
187 1 1.4139697524570519e+01 2.1413489157666397e+01 1.1523065203381854e+01 0 0 0
1611 2 8.2357897769060635e+00 1.8010878149250011e+01 3.2815653022839335e+00 0 -1 0
314 2 1.1645208310620415e+01 1.7415877258479615e+01 1.5010301905030557e+01 0 0 -1
2602 1 1.7238551965508854e+01 1.8235702975982619e+01 2.4337061327814922e+01 0 1 0
1548 2 1.6611801822394678e+01 1.6430132120045855e+01 2.6421654259971650e+01 0 1 0
1560 2 1.3941222229921829e+01 2.5985572495069018e+01 2.1190475444917234e+00 0 0 1
1830 2 1.1432735077693923e+01 2.7381061254889637e+01 7.4046789146286063e+00 0 -1 0
271 1 1.5720720642577476e+01 1.0493984530515693e+01 2.0010574543922708e+01 0 0 0
2469 2 1.1334258518998457e+01 1.1683482671389415e+01 4.0982102893657251e+00 0 0 1
1657 1 2.1455900806432261e+01 2.8754767526005814e+01 2.2360055503610376e+01 0 -1 0
385 1 1.1845785501672049e+01 1.0480210791464048e+01 3.9586867404827274e-02 0 0 0
154 1 4.5322051884925401e+00 4.6628540137818977e+00 9.1744118690519141e+00 0 0 0
29 2 2.0953801028382880e+01 2.6442902477779043e+01 1.6642773801629875e+01 0 0 0
1152 2 1.5353180916086387e+01 1.5227012985456211e+01 1.3826784502774606e+01 0 0 0
625 1 2.4324341257239180e+01 1.6804087834116196e+01 2.4752001813783867e+01 0 0 -1
1878 2 1.4762035412409334e+01 6.5155172094637104e+00 1.8995034838127754e+01 0 0 0
2437 1 7.0060701707261597e+00 9.8793052036043161e+00 5.2165830808593956e+00 0 1 0
1615 1 1.2627288564876139e+01 1.9134059849987835e+01 1.2298959807736784e+01 0 -1 0
920 2 2.4940781250150224e+01 1.9998551530055792e+01 2.5890456844743866e+01 0 0 -1
284 2 2.8059765988565303e+01 3.1370474584431086e+01 1.8505000362970264e+01 0 0 -1
871 1 1.6117928569060123e+01 1.3069470467017254e+01 2.0332207696665211e+01 0 0 0
820 1 1.9255815529831310e+01 2.5039563725299146e+01 2.7022924390515108e+01 0 0 -1
2670 2 2.0058688258602768e+01 2.1918772426702592e+01 1.2313501763493425e+01 0 0 0
117 2 1.3225940382175583e+01 1.5389390745523945e+01 3.7186274968849404e+00 0 0 0
302 2 2.1688604756135284e+01 8.7217871923270600e+00 1.8744155431573162e+01 0 0 -1
2492 2 8.7802657184274917e+00 1.9020950081107127e+01 5.1323839552236263e+00 0 0 1
1085 2 1.6876305491064514e+01 1.4477138432526026e+01 4.5711033421266247e+00 0 0 0
848 2 1.7066063284977417e+01 1.8616448779969748e+01 5.7452436907443767e+00 0 0 -1
273 2 1.6387338626988821e+01 1.0239752570015096e+01 1.9332212434025784e+01 0 0 0
1084 1 1.7559900457799611e+01 1.3891691027427068e+01 4.2396845822574871e+00 0 0 0
1910 2 1.6427137814781815e+01 9.6343337931363298e+00 1.5171305439530334e+01 0 0 0
1087 1 1.9069619080722276e+01 3.0916649400163596e+01 2.3124629397743764e+01 0 0 -1
360 2 1.8503940651232210e+01 2.2307539433505053e+01 2.4426769854350823e+01 0 0 0
196 1 1.6347242730678403e+01 2.7850464059108482e+01 1.2752878290753330e+01 0 -1 0
777 2 1.2035066805291516e+01 2.3962611605722415e+01 4.6066729863964460e+00 0 0 0
308 2 2.5740178122694452e+01 3.1805475699120709e+01 2.1329577854061814e+01 0 0 -1
309 2 2.5171156458175396e+01 3.2851780559289573e+01 2.0291676167619467e+01 0 0 -1
3003 2 1.3264516740840607e+01 4.5527355284202304e+00 4.2771939020593814e+00 0 1 0
1809 2 2.0273899591096331e+01 1.1649119872096486e+01 1.4104428881072055e+01 0 0 0
880 1 1.6455541543478237e+01 2.1149473816049809e+01 2.2538354536589519e+01 0 0 0
315 2 1.0543481010741237e+01 1.6408861364704524e+01 1.5030693489520516e+01 0 0 -1
283 1 2.8144819270996159e+01 3.2315415279145888e+01 1.8766553722010897e+01 0 0 -1
386 2 2.2697443872525159e+01 1.8200480786655092e+01 2.6748023716376004e+01 0 0 -1
2376 2 5.8324499712751772e+00 2.9385187199690836e+00 6.8430691001539872e+00 0 1 1
726 2 5.9506825946921005e+00 5.8775512397881657e+00 3.5914365288712120e+00 0 0 1
1059 2 1.2861196417468983e+01 2.7541550655804411e+01 1.4183094231217033e-01 0 0 0