LAMMPS data file via write_data, version 15 Apr 2020, timestep = 5540000

6144 atoms
2 atom types

6.8504187326226429e-02 5.9899784943840984e+01 xlo xhi
0.0000000000000000e+00 2.8042186737556506e+01 ylo yhi
0.0000000000000000e+00 2.7101945984549424e+01 zlo zhi
1.0160474236922994e+01 1.0185393730097587e+01 7.1130749633839656e+00 xy xz yz

Masses

1 16
2 2

Atoms # atomic

2585 2 6.2798447633220675e+00 9.3581765892853035e+00 8.3545914641444394e+00 0 1 1
1604 2 8.6089287190345711e+00 1.0752694948092781e+01 2.6871331184390135e-01 0 0 1
555 2 2.1612834686431960e+01 2.1376237235984071e+01 2.0334249867175252e+01 0 0 -1
797 2 4.4474208359042979e+00 5.7728936018493293e+00 5.1445915188603406e+00 0 1 0
225 2 2.1977624264794343e+01 2.4440388489281720e+01 8.4770602256583416e+00 0 -1 0
52 1 2.0066102315747898e+01 2.9157575479350974e+01 1.4662950780465478e+01 0 -2 0
25 1 1.1963726214469499e+01 1.6359074546460874e+01 1.1932640488634625e+01 0 0 -1
813 2 2.3797580274187510e+01 1.6039653828844894e+01 1.2512818796803392e+01 0 1 -1
2464 1 1.2860045586139018e+01 9.9513427548583770e+00 4.5317380461841799e+00 0 1 0
886 1 1.5092484247369507e+01 1.8927889642543921e+01 1.5366728681386981e+01 0 1 -1
2385 2 2.0170331997395810e+01 1.6842876485992612e+01 1.2175995988058382e+01 0 0 0
849 2 2.5888625298923223e+01 2.2039834099353687e+01 1.9331635825938530e+01 0 0 -2
2443 1 9.7865668358413451e+00 1.2381643263709034e+01 9.7453039943154582e+00 0 1 0
1129 1 1.3555906512804421e+01 1.7255913253575205e+01 2.1301534777235521e+01 0 0 -1
2466 2 1.2179163248896323e+01 9.9068172241389014e+00 3.8534690217700671e+00 0 1 0
1634 2 1.7914877792386502e+01 2.7379850465113105e+01 1.6129796923442381e+01 0 0 0
2769 2 2.8797732716626129e+01 3.2098489000347172e+01 1.6034900055114683e+01 0 0 -1
755 2 2.0974687031364557e+01 1.9410113493260859e+01 1.8700943914603378e+01 0 0 0
447 2 2.4265414458786115e+01 1.4288325898584587e+01 1.9497262648426375e+01 0 0 0
150 2 1.1410412671905132e+01 2.6195502197488182e+01 3.3617199175022000e-01 0 -1 0
2264 2 2.5285059603615551e+01 2.5653274099027652e+01 1.8823556193046578e+01 0 1 0
1916 2 2.2193346484189345e+01 2.7952117414828578e+01 1.8933367937772555e+01 0 0 0
2609 2 2.1962711688539780e+01 2.2852012768381208e+01 6.1110759684278335e+00 0 0 0
1849 1 2.0124822847345424e+01 3.0187201322794635e+01 2.3364394003356917e+01 0 -1 -1
487 1 1.9644918652679380e+01 2.4519801068246966e+01 2.4558501788996448e+01 0 0 -1
53 2 2.0721059309706973e+01 2.9563772928944061e+01 1.4096358260566703e+01 0 -2 0
781 1 1.5499568300103903e+01 2.9297775772891963e+01 1.4903027205066872e+01 0 0 0
1378 1 2.5334665552710092e+01 2.6300726528194016e+01 2.2428248086663700e+01 0 0 0
1652 2 6.3231982414877006e+00 1.5549027290418453e+01 4.1882720421335679e-01 0 0 1
2564 2 1.4329395319516340e+01 5.5986674922097457e+00 1.3596922545334129e+01 0 1 0
2655 2 2.0240113630810587e+01 2.9409536812686795e+01 1.8521527443093756e+01 0 1 -1
1726 1 1.7802253220623442e+01 2.5860313114220649e+01 1.5235907208469637e+01 0 -1 0
32 2 1.1926913528652776e+01 2.6300865880594607e+01 5.5897232763903224e+00 0 0 0
1275 2 2.2078212423345697e+01 1.8909287141535785e+01 2.4352348127398852e+01 0 0 -1
2390 2 2.1545934810961946e+01 3.0547707521965112e+01 1.2527281222942193e+01 0 0 0
2450 2 2.1116272080881391e+01 2.5066481652077083e+01 2.3646996913898693e+01 0 0 0
59 2 1.7561905500942352e+01 2.6362860077085237e+01 2.3404207347722263e+01 0 0 -1
27 2 1.2805713939574920e+01 1.6837391009691238e+01 1.1844553618245801e+01 0 0 -1
1684 1 1.7571470239597087e+01 2.3626208350493350e+01 2.6676099252145534e+01 0 -1 0
99 2 1.0097124260258763e+01 1.5247714607401280e+01 5.8120039084815103e+00 0 0 0
2667 2 1.0927448472391962e+01 1.8944716726587185e+01 1.0590819391437702e+01 0 0 0
1901 2 1.5156962094797098e+01 1.5743301502107130e+01 1.4058165212744987e+01 0 0 0
174 2 6.8221775206945718e+00 6.2674345813208063e+00 4.9420499185429412e+00 0 0 0
1017 2 9.2784663327836938e+00 7.5706242006391786e+00 1.1526520232829274e+01 0 1 -1
2533 1 2.3937608606994850e+01 1.1916129943980518e+01 2.0289171355568829e+01 0 1 -1
1522 1 1.9927406854806787e+01 2.5402397337366189e+01 6.3099839359728209e+00 0 0 0
224 2 2.1780215654773023e+01 2.5914546749891276e+01 8.7182943311599530e+00 0 -1 0
2438 2 7.6809750406507771e+00 1.3867095797508586e+01 3.2636499085826078e+00 0 1 0
838 1 1.0378735304379870e+01 2.7150446385389899e+00 3.7449185623745684e+00 0 1 0
1689 2 1.5383549606433643e+01 2.2876827652067806e+01 2.5766122257370592e+00 0 -1 1
2740 1 2.3561419112889720e+01 2.7366737607333590e+01 2.6899088520513075e+01 0 0 0
322 1 1.0993409865987971e+01 2.0448263963786097e+01 7.8670499571557277e+00 0 0 0
812 2 2.2991703783530209e+01 1.7228697371311696e+01 1.3045769776523457e+01 0 1 -1
65 2 1.4970202275491678e+01 1.9440066700851592e+01 1.6111058005814831e+00 0 -1 0
264 2 1.9285618704875475e+01 1.0453557590734437e+01 1.9050995564017953e+01 0 1 -1
2640 2 1.1360805278316061e+01 1.8945853436126086e+01 3.8659680635592268e+00 0 1 0
2360 2 1.2507269412004462e+01 1.3222395652626524e+01 1.1506592445338267e+01 0 0 0
2638 1 1.2141990148080128e+01 1.9419661405498864e+01 4.1348016608019007e+00 0 1 0
1112 2 1.5458817354494093e+01 2.5599991651066546e+01 9.9283603112329182e+00 0 0 0
1140 2 1.6904333221924222e+01 5.7851808190688363e+00 7.1943832633759914e+00 0 1 -1
1650 2 9.2500510598306089e+00 1.6402016850083207e+01 8.1839516910573611e+00 0 0 1
1732 1 3.2847159196956497e+00 5.0141023167367074e+00 1.0116277208782625e+00 0 1 0
34 1 1.7314731350714244e+01 1.2612244331761703e+01 1.0174143364462582e+01 0 -1 0
868 1 1.0469233254659679e+01 1.5495721204721924e+01 8.9835741862007161e+00 0 0 0
1625 2 2.6379644499207323e+01 2.6986312494536648e+01 2.6477200173267057e+01 0 0 -1
2522 2 1.3294066765633540e+01 2.4904733454100089e+01 1.1483894281728814e+01 0 0 0
1659 2 1.4622161508473196e+01 5.9262149232461532e+00 9.1186301966907219e+00 0 0 0
236 2 2.1693317208086487e+01 1.1462831587540695e+01 2.5034302955982458e+01 0 0 -1
866 2 2.7373876981407008e+01 2.8294859974907403e+01 1.5455282442519767e+01 0 0 -1
1274 2 2.0631510737603534e+01 1.8794335668406831e+01 2.4827038357504513e+01 0 0 -1
171 2 2.2014933972115990e+01 1.8442199615020961e+01 1.5696801465049205e+01 0 0 -1
5808 2 1.0652325379706406e+01 7.2716261885957927e+00 2.5111616916215375e+01 1 1 0
204 2 8.5641587142108282e+00 6.9522903030286338e+00 1.7412176576959759e+01 0 1 0
2414 2 1.6109958153990526e+01 9.0757514526433614e+00 8.7795969790181072e+00 0 0 1
304 1 1.0246461576766269e+01 4.7542918700094869e+00 1.5400173106086177e+01 0 0 -1
631 1 1.0591397315827837e+01 1.4967125283149777e+01 1.4353854479360804e+01 0 0 0
846 2 1.6014956105030969e+01 1.5614881428754469e+01 2.5895601621401401e+01 0 0 -1
359 2 2.0809525315217513e+01 3.0062486776584713e+01 2.6541178399250516e+01 0 0 0
1131 2 1.2804226807663859e+01 1.7574563766090904e+01 2.1849176379143429e+01 0 0 -1
2478 2 1.6125424400900364e+01 1.7365350052128392e+01 3.5909080641960012e+00 0 0 1
1551 2 2.0391912018575532e+01 2.4529237724402520e+01 1.1517929776322791e+01 0 0 0
1677 2 1.8614040793439571e+01 2.4519426325363593e+01 7.2024904237141154e+00 0 0 0
887 2 1.4962560866044555e+01 1.9771399864595658e+01 1.5861298417007959e+01 0 1 -1
2465 2 1.3557879209518788e+01 1.0455369630309466e+01 4.0401099582587019e+00 0 1 0
54 2 2.0492611643560174e+01 2.8541414589552716e+01 1.5317923387236721e+01 0 -2 0
433 1 2.1885533445874330e+01 1.4938939858215210e+01 9.6565611072603907e+00 0 0 -1
223 1 2.2416312174509137e+01 2.5214465225883778e+01 8.8322719250647719e+00 0 -1 0
2673 2 7.8472830027185365e+00 6.5794744918097914e+00 1.3850650454197369e+01 0 1 0
1760 2 1.1227716557267131e+01 1.3832071036888056e+01 1.7450896625110573e+01 0 0 0
2407 1 1.3141877900041578e+01 2.2625424519226126e+01 8.4951665374420244e+00 0 0 0
1687 1 1.5413664644377691e+01 2.3709337544643915e+01 3.1122066775380222e+00 0 -1 1
2281 1 1.0904256640700016e+01 2.3705633919004139e+01 7.6654130222730288e+00 0 -1 0
2425 1 1.0950782275010562e+01 1.3526663850734128e+01 2.1242325572287687e+01 0 0 0
1703 2 1.3363212575380729e+01 1.2332044772991537e+01 1.8887300910711385e+01 0 0 0
2508 2 9.7125748213838268e+00 2.0743918809639656e+01 3.5994570561714783e+00 0 0 1
292 1 8.3582131322389994e+00 1.3612962143518850e+01 8.0983378469679241e+00 0 0 0
1002 2 1.3880615748718867e+01 2.1080188964843696e+01 1.7279495491669660e+01 0 0 0
343 1 5.6711910682179401e+00 1.1859299467956884e+01 1.4642277268854920e+00 0 0 0
2494 1 1.9781826371694862e+01 9.0606350211094906e+00 2.3713024672395896e+01 0 1 0
2409 2 1.3834490754066000e+01 2.3326403795076324e+01 8.4660961351020863e+00 0 0 0
845 2 1.6711370047312862e+01 1.4722583250013422e+01 2.4870217722446860e+01 0 0 -1
1599 2 1.4884045819936489e+01 2.4907874430509320e+01 1.5055572589876629e+01 0 0 0
1700 2 4.2256114245733531e+00 9.3578648859196392e+00 3.7937694250353052e-02 0 0 1
2577 2 1.4065615109351690e+01 2.8439612051375459e+01 6.5072405169620158e+00 0 0 0
999 2 1.4886022466685063e+01 1.3764464389946276e+01 2.5740002306009970e+01 0 1 -1
1875 2 1.6067971535953021e+01 2.3565809829325030e+01 9.2031906274533686e+00 0 -1 0
355 1 1.6530711270594278e+01 2.5581181483212877e+01 2.4839610644582233e+01 0 0 -1
1019 2 1.4464289877044646e+01 2.3413999607228703e+01 4.3540543782921377e+00 0 0 0
154 1 1.8151120302814633e+01 4.3638222596520171e+00 9.8477608011385520e+00 0 0 0
2336 2 8.8571128333822244e+00 6.6701357341802305e+00 2.0581961047865381e+01 0 1 0
2764 1 1.7858939813862129e+01 1.3182640711497086e+01 1.7871987588450306e+01 0 0 1
2441 2 1.3894584091821560e+01 2.0611977935335148e+01 1.0782815913758407e+01 0 0 1
847 1 2.6620329221075487e+01 2.1797084246759983e+01 1.9945402711236184e+01 0 0 -2
657 2 2.1489674147354485e+01 1.9934373283920550e+01 3.9442057989181349e+00 0 0 0
1015 1 9.5640177488368927e+00 6.7960077665943395e+00 1.0950678976514451e+01 0 1 -1
466 1 2.6932463888421264e+01 2.9521589627257150e+01 9.8764467212042195e+00 0 -1 0
823 1 1.0062397620951096e+01 7.8387108009083963e+00 1.9792592268178531e+01 0 1 -1
842 2 1.6085344018743221e+01 2.2557250595964859e+01 2.4469461523697248e+01 0 0 -1
249 2 6.1654785613353766e+00 6.3190598638989757e+00 8.7919803109074461e+00 0 0 0
704 2 2.6053642521362509e+01 2.5165346734259558e+01 1.6056943718995672e+01 0 0 -1
1149 2 1.1893332869287450e+01 4.4619624572022634e+00 6.2502353535358068e+00 0 0 0
2672 2 6.8062864098840592e+00 5.5318956601261284e+00 1.3530905506690043e+01 0 1 0
98 2 9.0985251463975363e+00 1.4322636818784119e+01 6.6827799498739857e+00 0 0 0
630 2 2.2218921470393134e+01 2.9183867004507619e+01 5.7121306301668353e+00 0 -1 0
1619 2 9.7401251444625210e+00 1.9275150152427791e+01 5.6850850924659380e+00 0 0 1
1046 2 2.8263242435760873e+01 2.6458693977413930e+01 1.5653171369874624e+01 0 0 0
101 2 8.3351942320185657e+00 9.4563447957873112e+00 9.4431007523378021e+00 0 0 0
2355 2 1.7761569754038227e+01 1.8084398067050575e+01 2.4167827257120805e+01 0 0 0
176 2 2.3942409993196144e+01 2.6803033771398496e+01 2.1264604532401567e+01 0 -1 0
888 2 1.5484207180883590e+01 1.9170878441652096e+01 1.4502598567987352e+01 0 1 -1
323 2 1.1300924601091870e+01 2.0923477062243844e+01 7.0924965502560191e+00 0 0 0
1773 2 2.4696128946100760e+01 2.6439531214903383e+01 2.2724022184480552e+00 0 0 0
2636 2 1.8838134639561211e+01 2.7714060707866164e+01 2.5596078215829589e+01 0 0 0
1577 2 1.5295752747253687e+01 1.6440718569620238e+01 4.8945560689292469e+00 0 -1 1
105 2 1.2318284059657415e+01 1.0174966352212365e+01 1.2390096544699942e+01 0 0 0
777 2 1.8224044552546843e+01 1.1659992004702783e+01 2.4334373380107944e+01 0 1 -1
1515 2 1.9639120693983148e+01 3.1492355200646294e+01 1.8318316751819435e+01 0 0 -1
611 2 1.5098125150445503e+01 1.0242789619733056e+01 2.5457990020700136e+00 0 1 1
1546 1 1.7279610810736600e+01 2.3152385500708945e+01 2.3500174744027490e+01 0 1 0
984 2 1.5188842739138590e+01 1.8913262148021637e+01 1.8895466209479796e+01 0 1 -1
5806 1 1.0260584243099665e+01 8.1832430246141676e+00 2.5025646719818294e+01 1 1 0
772 1 1.4979157239788236e+01 2.7272614231525463e+01 1.3235793217315587e+01 0 0 0
1784 2 4.9976590344364382e+00 5.4982091793130747e+00 7.2201215149347719e+00 0 0 0
2354 2 1.6249985545282474e+01 1.7672891481042971e+01 2.4251199912481365e+01 0 0 0
48 2 1.0712055627281257e+01 2.3143728168784335e+01 5.1348054845918503e+00 0 0 0
998 2 1.3882812866261833e+01 1.2890751641647384e+01 2.6602862185839111e+01 0 1 -1
1273 1 2.1557560284682580e+01 1.8744829938656260e+01 2.5177006561936750e+01 0 0 -1
1569 2 2.2137341983013052e+01 3.3148874345066830e+01 2.5332580850158948e+01 0 0 0
2588 2 1.7584466947378846e+01 6.4446305762450820e+00 1.2039349836005277e+01 0 1 0
898 1 1.6874494026159024e+01 2.1939163277039899e+01 9.5688108896565538e+00 0 0 0
1514 2 2.0274744232801556e+01 3.2868346561112730e+01 1.9056426393248657e+01 0 0 -1
1111 1 1.5141521109061719e+01 2.6528731381250861e+01 9.9966552835544675e+00 0 0 0
352 1 9.1997080244992446e+00 9.0359121783234748e+00 1.2260038696196260e+01 0 0 0
1836 2 8.7634393459525732e+00 5.7307894254603733e+00 7.1103972284217907e+00 0 0 0
885 2 8.3325225736718451e+00 9.9811617490939639e+00 5.3338986868811205e+00 0 1 -1
1235 2 2.1421648159690768e+01 2.7110444343364069e+01 1.2254601126449304e+01 0 0 0
2161 1 1.8372128334451684e+01 1.8352759369244730e+01 1.4691986881747255e+01 0 0 0
975 2 2.2164329434447332e+01 2.8675974092645010e+01 1.1672215179313820e+01 0 0 0
818 2 2.1581530398420938e+01 3.1560624801581088e+01 2.1927851435812872e+01 0 0 -1
976 1 2.5744824014114883e+01 1.8628206071765543e+01 1.4449650083748558e+01 0 -1 0
1603 1 1.8530373823843572e+01 1.7002086111761532e+01 2.6868072651517046e+01 0 0 0
2635 1 1.9491736019682513e+01 2.6997442857474340e+01 2.5808568393702327e+01 0 0 0
1605 2 1.8033006748059751e+01 1.7323138525824746e+01 2.6095307221115139e+01 0 0 0
1878 2 2.3015712243283847e+01 2.0097623185342737e+01 1.3159286718076920e+01 0 -1 0
77 2 1.4663341139445723e+01 1.9853507501288568e+01 8.6376760087934823e+00 0 -1 0
100 1 7.6223887783119615e+00 8.7836865737701793e+00 9.2911190496893994e+00 0 0 0
2685 2 2.1501314587640824e+01 1.1543743874783486e+01 1.0320067275416314e+01 0 0 0
481 1 2.2163050844539285e+01 2.5617877497121611e+01 1.1547082287805559e+00 0 -1 0
2323 1 1.0440541937209142e+01 2.0887363329442149e+01 1.8374190790396923e+00 0 1 1
2384 2 1.8982876735418092e+01 1.6156836081750360e+01 1.3031750914471727e+01 0 0 0
1739 2 1.8323712632997605e+01 8.8773956404383583e+00 2.0205804108421157e+00 0 0 1
1889 2 1.1205455702487745e+01 1.7071049713449145e+01 5.4373701301127912e+00 0 0 0
995 2 8.1062279549527876e+00 7.6343540417647242e+00 2.2180366892181689e+00 0 1 0
97 1 9.2606534440095132e+00 1.4670634989697231e+01 5.7879877270091127e+00 0 0 0
2361 2 1.1967017231624723e+01 1.4681917698320493e+01 1.1383016970207517e+01 0 0 0
1675 1 1.8087151715349520e+01 2.3866492460443364e+01 7.7740569572706040e+00 0 0 0
1513 1 1.9453693636024568e+01 3.2350717806927207e+01 1.8842388191726261e+01 0 0 -1
1078 1 1.2003475365124947e+01 8.3593566269192294e+00 1.4403629742843513e+01 0 1 0
843 2 1.5494324355733607e+01 2.1463782053999516e+01 2.5482074931135465e+01 0 0 -1
1547 2 1.8004522302606201e+01 2.3593020402595769e+01 2.3955412854468335e+01 0 1 0
2353 1 1.7000105840406082e+01 1.7939551264706225e+01 2.4794938959492747e+01 0 0 0
917 2 7.6657024069868527e+00 1.0110611876404189e+01 3.1617862470740170e+00 0 1 0
2597 2 1.3835649018762497e+01 2.0578419718707902e+01 2.0325636893999299e+01 0 0 0
1115 2 2.9579887506634897e+01 2.0929266892605160e+01 2.7046517138676045e+01 0 1 0
1884 2 6.2221189114702877e+00 5.4769795879640224e+00 1.5117592352300189e+00 0 0 0
76 1 1.4370669732767416e+01 2.0316494312645894e+01 7.8109709615414911e+00 0 -1 0
1994 2 2.0166390272635525e+01 2.7582950648750995e+01 2.6597501758622339e+00 0 -1 0
1706 2 1.8038536470395783e+01 2.1828824821438001e+01 1.0662148852777509e+01 0 0 -1
234 2 1.6725335734013019e+01 1.6563192903917553e+01 2.0545710915010648e+01 0 -1 0
229 1 1.8776699937800892e+01 8.1098595196430168e+00 6.5625842353068728e+00 0 0 -1
1789 1 6.5557188756385756e+00 7.7529304359198372e+00 5.7876995103611923e+00 0 0 1
1079 2 1.1599000300332420e+01 7.5029417733212060e+00 1.4084308903610747e+01 0 1 0
883 1 8.8918905355349906e+00 9.2130388301625814e+00 5.3479399173114972e+00 0 1 -1
2663 2 2.0620504944220329e+01 2.3195496677564268e+01 9.5645696004543037e+00 0 1 0
1915 1 2.2798987431218119e+01 2.7504747815364475e+01 1.8234964680747371e+01 0 0 0
2451 2 2.2437539417124874e+01 2.5018089589586481e+01 2.2697649863378743e+01 0 0 0
1578 2 1.4188986919907428e+01 1.7102371192134722e+01 4.0239729541676255e+00 0 -1 1
2389 1 2.1318969731396400e+01 3.1077297078794967e+01 1.3294275375504149e+01 0 0 0
983 2 1.4031925740818767e+01 1.8341164904470482e+01 1.9757459947024998e+01 0 1 -1
2162 2 1.9085316664334858e+01 1.7733083232795050e+01 1.4961636200249931e+01 0 0 0
2572 1 1.3208484047325594e+01 4.6127009135991610e+00 1.4575340082509396e+00 0 0 1
109 1 1.5277980519839726e+01 8.8739970464360525e+00 1.6807896601491730e+00 0 0 0
1155 2 2.3177346299800416e+01 2.5924982625259467e+01 5.9021208349849932e+00 0 0 0
2579 2 7.3184275248615336e+00 3.5440065052448699e+00 2.6208246986866190e+00 0 1 0
1616 2 1.6101685064666924e+01 1.6252894432238040e+01 1.6548846622872926e+01 0 -1 0
2819 2 2.2580500605242371e+01 1.0265757659932362e+01 1.7435374479672848e+01 0 1 0
789 2 1.8645729261143860e+01 1.5138413490462936e+01 1.5073066957649770e+00 0 0 1
2367 2 2.8204205606275423e+01 2.8273690885352437e+01 2.5899984976552613e+01 0 0 -1
2445 2 1.0628961541178020e+01 1.2827891690341986e+01 9.9968335151438374e+00 0 1 0
1133 2 1.2030645298739742e+01 5.4862654212333686e+00 1.2708549272240658e+01 0 1 0
1715 2 1.3886745181645644e+01 8.3762887577456624e+00 4.6772294088064950e+00 0 0 1
1654 1 3.1053380086603930e+01 3.0792454313856634e+01 2.6791057424699282e+01 0 0 1
313 1 1.2872425217335291e+01 1.7109143550339137e+01 1.5237960467545133e+01 0 0 -1
2440 1 1.4667994135297782e+01 2.1030465934983653e+01 1.1183242147067471e+01 0 0 1
2498 2 1.7800084394910630e+01 1.0536806891545604e+01 7.7283770049454752e+00 0 1 0
2613 2 2.1984029581986299e+01 1.9526597651803208e+01 9.3449260569787462e+00 0 0 1
201 2 1.9303858748431857e+01 2.6532063485085800e+01 1.1801458150656524e+01 0 0 -1
1762 1 1.7016886170989750e+01 2.2791566103061591e+01 1.7774882029149609e+01 0 -1 0
2556 2 1.7940720936369146e+01 2.0921659526252419e+01 2.1754631639170608e+01 0 0 0
22 1 1.2346895548543724e+01 2.2617313914065388e+01 1.9168563246522077e+00 0 0 0
2542 1 1.1270268280057982e+01 7.7863038550626227e+00 6.4217869310849798e+00 0 1 0
1662 2 1.3207207483225194e+01 1.3277688200652575e+01 4.0880583879684425e+00 0 -1 1
851 2 1.0377476372363967e+01 1.3311181989293848e+01 1.3389498930836092e+01 0 1 0
1736 2 1.1919524783330729e+01 9.5626543492911900e+00 1.8182772552624439e+01 0 0 0
376 1 1.7001467264943727e+01 2.8173176455870589e+01 1.0976991670490010e+01 0 -1 0
1544 2 1.1274018075443385e+01 1.2010287287379839e+01 1.8579973269732914e+01 0 0 0
63 2 2.4923446487066748e+01 1.9897591206808734e+01 1.7303890551759771e+01 0 -1 -1
333 2 1.9878099754260653e+01 2.3867084931060553e+01 1.7126214252482338e+01 0 0 0
2555 2 1.7584840535688912e+01 2.1617308306765647e+01 2.3179418932179612e+01 0 0 0
91 1 2.3963879136249272e+01 2.5839092966124156e+01 2.4717019030219355e+01 0 -1 -2
2382 2 1.2795539922549430e+01 2.1733587302677208e+01 1.4051694321717074e+01 0 0 0
442 1 1.1718604880190476e+01 1.3361020451238380e+01 3.1468889119738113e+00 0 0 0
2601 2 1.7209186294996428e+01 4.0840105236297397e+00 1.1388838520469795e+01 0 0 0
2600 2 1.7246805330316743e+01 3.7622477393724658e+00 1.2877298098727383e+01 0 0 0
188 2 1.9057688886636168e+01 2.8174108866719138e+01 1.3738513795771686e+01 0 0 0
2444 2 1.0048487727971139e+01 1.1509375834739462e+01 9.3565034491688515e+00 0 1 0
2576 2 1.3819622790011298e+01 2.9442904900968600e+01 5.3936000703850402e+00 0 0 0
1545 2 1.1624504477868479e+01 1.1071056374944511e+01 1.9716571823403299e+01 0 0 0
2307 2 2.6503983920755623e+01 3.4098354915032992e+01 2.6020146152149220e+01 0 -1 -1
2459 2 1.8842246120601907e+01 1.3854358979380148e+01 2.0618611906231180e+01 0 0 0
1088 2 1.1778700987941191e+01 8.7404931722134460e+00 2.4140909788232978e+01 0 1 -1
2365 1 2.9071746762255266e+01 2.8779637333579593e+01 2.5925351035882557e+01 0 0 -1
1061 2 1.2946961882337025e+01 9.0554287182033004e+00 2.6157234174160930e+01 0 1 -1
2306 2 1.5744354961422594e+01 2.6922865875383252e+01 3.8743136304239778e-01 0 -1 0
198 2 2.0921208318542902e+01 1.8546966039737853e+01 5.9177141102085820e+00 0 -1 0
907 1 2.0915108439867144e+01 8.0793817260875613e+00 2.0230216165820536e+01 0 1 -1
2468 2 2.4379139429160674e+01 2.8554238267613776e+01 2.0361663848370348e+01 0 0 0
796 1 4.0664441915401985e+00 6.4969744788338355e+00 4.5143363437337918e+00 0 1 0
681 2 1.3402517181109902e+01 4.5833046104594457e+00 3.9734944005071458e+00 0 0 0
587 2 1.1271745703431110e+01 4.3869160398166862e+00 1.0325486865672055e+01 0 0 0
367 1 2.4442905701490016e+01 1.6848622380060583e+01 1.6587025581427167e+01 0 -1 -1
72 2 9.2480265578873979e+00 1.7548203214473954e+01 3.7439968411853548e+00 0 0 0
2604 2 1.3971935729501864e+01 1.5781717032555783e+01 2.3877788695574775e+01 0 1 0
2070 2 1.8155980199384967e+01 6.6597515127811384e+00 1.6420463342888301e+01 0 0 0
1872 2 1.6509776593532003e+01 1.3335565266298650e+01 8.4990077610905654e+00 0 0 0
2644 1 9.2364890742318870e+00 7.1041522468072582e+00 7.9488151256432822e+00 0 0 1
2567 2 2.1947452687974121e+01 2.7148720770244559e+01 4.8677439962931119e+00 0 0 1
332 2 1.9709038039033068e+01 2.3139274853773770e+01 1.5817948864272811e+01 0 0 0
1735 1 1.2153926570874155e+01 8.7253473137674540e+00 1.7746037905152811e+01 0 0 0
2646 2 8.9228380820492266e+00 7.8002036201145266e+00 8.4884969364784428e+00 0 0 1
1670 2 4.8695511219902254e+00 6.8301978682172102e+00 3.1660331860031188e+00 0 0 0
895 1 2.6507204333780471e+01 3.2826731463398616e+01 2.4649325651808535e+01 0 0 -1
2603 2 1.4304810924779204e+01 1.6550785458829250e+01 2.2578175470524858e+01 0 1 0
2554 1 1.7826908387354194e+01 2.0767996509609429e+01 2.2716383861857484e+01 0 0 0
2629 1 1.1714951712578785e+01 5.8491885891392847e+00 1.8964435853517653e+01 0 0 0
2305 1 2.6279248233143392e+01 3.4630078985371647e+01 2.6825618283929092e+01 0 -1 -1
443 2 1.2212235409562128e+01 1.2939900709262341e+01 2.3598987143775374e+00 0 0 0
1550 2 2.0017546022970652e+01 2.3062376776178816e+01 1.1359605432570268e+01 0 0 0
2375 2 1.6373523698956728e+01 2.9968688114542289e+01 1.3480130729639258e+01 0 0 1
994 1 7.5737024319220474e+00 8.4533273971596028e+00 2.0188271897460024e+00 0 1 0
157 1 1.7530155457895482e+01 8.1467507625231139e+00 2.5045682133323744e+01 0 0 -1
897 2 2.6654735718769842e+01 3.2056585029331913e+01 2.5220012228687814e+01 0 0 -1
112 1 2.0815048606105826e+01 3.2951603503935246e+01 2.2437244016306956e+01 0 -1 0
725 2 1.1718817585780725e+01 1.0785298769747346e+01 5.7971710729647601e+00 0 0 1
2266 1 1.0683839737449778e+01 4.8082114434799896e+00 5.1725293446632543e+00 0 1 1
1672 1 1.5622343058670562e+01 1.8629987495133921e+01 9.7120657208906866e+00 0 -1 0
1617 2 1.6435571438644644e+01 1.7544269082196735e+01 1.5889096441536738e+01 0 -1 0
1117 1 1.8008242095569376e+01 1.8704007132209874e+01 1.1151699525441554e+01 0 0 -1
1737 2 1.2921857954577588e+01 8.8443957401867053e+00 1.7207543575601630e+01 0 0 0
636 2 2.7883861866252680e+01 2.6268281473273156e+01 1.9779270920067276e+01 0 0 0
1682 2 5.7526123732732684e+00 3.6562816056051708e+00 1.1702701661069597e+01 0 0 0
1621 1 2.0496318717865979e+01 1.1902338921630221e+01 1.5773304836604652e+01 0 0 -1
197 2 2.1019762329239612e+01 2.0059195024902028e+01 6.1879369879318515e+00 0 -1 0
775 1 1.9178861950737453e+01 1.1766230692106802e+01 2.4707706348704296e+01 0 1 -1
1154 2 2.3408874251651163e+01 2.5397048410878934e+01 7.2704323323791078e+00 0 0 0
444 2 1.0968553892473157e+01 1.2731422038821247e+01 3.4743782797782239e+00 0 0 0
2513 2 1.6193964413508951e+01 2.0941397260888529e+01 1.9074582665756822e+01 0 0 0
2406 2 1.7686599786121029e+01 2.5660695495868904e+01 1.8652730109608061e+01 0 0 0
347 2 9.5017841632887468e+00 1.4117543168907590e+01 1.1667188235828910e+01 0 0 0
2467 1 2.5045393658866633e+01 2.9136648235517264e+01 1.9904031861161819e+01 0 0 0
2490 2 1.4790624303563229e+01 2.0459349018039791e+01 3.3634128993510997e+00 0 0 1
1727 2 1.8394270295177179e+01 2.5373581342898355e+01 1.5776190556239424e+01 0 -1 0
1680 2 2.8472273853428355e+01 3.0856152851441877e+01 2.3898637053625684e+01 0 0 0
706 1 1.2694665428834472e+01 1.6661135648410870e+01 3.0202679801963290e+00 0 0 0
1691 2 1.2540438005845951e+01 2.2106000413802093e+01 5.5761585525901101e+00 0 -1 1
1685 2 7.8175631289571852e+00 1.7211836382297680e+01 1.6512915276157736e-01 0 -1 1
2612 2 2.3202999817531392e+01 1.8619505530829457e+01 9.6833056890332205e+00 0 0 1
2491 1 1.3762877141932707e+01 1.5301458298078806e+01 6.5879751192480160e+00 0 0 1
1656 2 3.0276104180782504e+01 3.1042723264482515e+01 2.6263343981353625e+01 0 0 1
908 2 2.0260471777205936e+01 8.1809727194421864e+00 1.9517059830675588e+01 0 1 -1
342 2 2.0651620798269644e+01 1.7069274490459527e+01 1.6575917386631321e+01 0 0 -1
2563 1 1.4885883357050737e+01 6.1782428795293480e+00 1.3075317234016209e+01 0 1 0
2630 2 1.2542050377179780e+01 5.4689404241457877e+00 1.9381348704311275e+01 0 0 0
216 2 1.3220031190058844e+01 5.2244111886851954e+00 1.0773771191191363e+01 0 1 0
819 2 2.2705740288917209e+01 3.1500782943318928e+01 2.0811195051274495e+01 0 0 -1
49 1 6.5166910892740599e+00 1.3872653516295543e+01 4.5393850720269118e+00 0 0 0
50 2 6.6631182553617663e+00 1.3109587434714269e+01 5.1012377276584386e+00 0 0 0
2512 1 1.6432339099231363e+01 2.0056143562240507e+01 1.8763763444405509e+01 0 0 0
214 1 1.2640886485781301e+01 4.6327270334653621e+00 1.1190357827145993e+01 0 1 0
1900 1 1.4659484690670649e+01 1.5041280714748568e+01 1.4440565584603837e+01 0 0 0
2495 2 1.9333238484739795e+01 9.4686643631611567e+00 2.2945962563376654e+01 0 1 0
1668 2 9.9014470191289217e+00 9.7099251001479718e+00 3.7739321350480028e+00 0 0 1
2439 2 8.6013433232317933e+00 1.4767280095925123e+01 2.3943411924887630e+00 0 1 0
189 2 1.8097045084980998e+01 2.6956686486477054e+01 1.3754285427804451e+01 0 0 0
844 1 1.6311203507305823e+01 1.4654905910770932e+01 2.5741702536605072e+01 0 0 -1
187 1 1.8405108937184274e+01 2.7694806366044570e+01 1.3164046812341814e+01 0 0 0
1109 2 2.0060022528712132e+01 1.3742563641086285e+01 1.1906913674425070e+01 0 0 0
314 2 1.3649528318945869e+01 1.7609710932013449e+01 1.5239710107080391e+01 0 0 -1
2602 1 1.4674824304556086e+01 1.5929809161282588e+01 2.3280627463681707e+01 0 1 0
1548 2 1.7112755035397093e+01 2.3472422602662121e+01 2.2604030401912510e+01 0 1 0
36 2 1.7516870205836508e+01 1.1831279968905042e+01 9.6927071908461162e+00 0 -1 0
1099 1 2.5099122821144029e+01 2.3935385627564703e+01 2.6652181137159054e+01 0 0 -1
811 1 2.3626948843942028e+01 1.6563035772794400e+01 1.3350401871818923e+01 0 1 -1
2469 2 2.4551143152844190e+01 2.9611095605862765e+01 1.9207620159914100e+01 0 0 0
326 2 2.2978277415225229e+01 1.3757319209409481e+01 1.6374660485799691e+01 0 0 -2
563 2 2.9956976808274881e+01 2.8361949050533724e+01 1.8676521608661393e+01 0 -1 0
751 1 1.2698447691695350e+01 2.0468896790862935e+01 1.8043959494184236e+01 0 0 0
893 2 1.9153817135138091e+01 1.6000755089751411e+01 5.8766991173874068e+00 0 0 0
1062 2 1.1897870087031453e+01 1.0309806339188189e+01 2.5997051977084844e+01 0 1 -1
280 1 2.3824221759324981e+01 2.5192274910114595e+01 1.1547965943541579e+01 0 -1 0
1874 2 1.5655073774328502e+01 2.4640108865042105e+01 8.0846373466455326e+00 0 -1 0
2437 1 7.9338717221566055e+00 1.4073330563290057e+01 2.3653380639948383e+00 0 1 0
1615 1 1.6872566218364391e+01 1.6807000495107296e+01 1.6369785875660597e+01 0 -1 0
2422 1 2.9223013021364824e+01 3.4149008640070043e+01 2.5805571129943203e+01 0 0 0
873 2 1.7003179798591020e+01 1.7528991297470533e+01 1.3846818773016423e+01 0 0 0
919 1 1.9278160603205240e+01 2.3908781075364011e+01 1.3587946028340900e+01 0 0 -1
2366 2 2.9251602832655117e+01 2.8871635724087572e+01 2.4977548670456475e+01 0 0 -1
202 1 7.8713989153592152e+00 6.5611163932871914e+00 1.7956354082344824e+01 0 1 0
117 2 2.1025710281008930e+01 1.9611960802666665e+01 2.2037099335112465e+01 0 0 -1
1539 2 1.1952194266998202e+01 1.4537824671371805e+01 2.0276899197430705e+01 0 0 0
2492 2 1.4621779246558603e+01 1.5605086611171572e+01 6.9741459259778953e+00 0 0 1
698 2 2.0447312911697146e+01 9.0347613504687807e+00 2.6233263358714805e+01 0 0 -1
848 2 2.6856295514734224e+01 2.2673186091158811e+01 2.0351617011966606e+01 0 0 -2
1071 2 2.2839025163212298e+01 1.0095525875125363e+01 2.6005015501227305e+01 0 1 -1
1301 2 1.8867311388120548e+01 1.3773392748753018e+01 8.6964460590129100e+00 0 0 0
1077 2 1.2086161885605222e+01 2.8189950623692887e+01 1.6136736064038715e+00 0 0 0
1087 1 1.2398702820906312e+01 9.0210275521253642e+00 2.3459864323733413e+01 0 1 -1
865 1 2.7013187476670293e+01 2.8932213607128652e+01 1.4831206662132189e+01 0 0 -1
196 1 2.0853123803976175e+01 1.9405237073882574e+01 5.4462609596644054e+00 0 -1 0
336 2 1.4671548778072403e+01 2.2783587216462401e+01 1.8739730229470812e+01 0 0 0
2397 2 1.4864451183649713e+01 2.9547916568865663e+01 9.8328482039327092e+00 0 0 0
2423 2 1.8486632658010741e+01 6.8677953296931626e+00 2.5607032597433761e+01 0 1 0
3003 2 1.0266629415283450e+01 6.3679957977131219e+00 1.6432500218834882e+01 0 1 0
120 2 2.0908843371186340e+01 1.5856243242537447e+01 2.4745952271036614e+01 0 0 0
1226 2 2.8208072591734798e+01 2.4442809014275813e+01 2.5955230714435093e+01 0 0 -1
2578 1 7.7578533610462763e+00 2.8121725571849479e+00 3.0528607106773382e+00 0 1 0
1258 1 1.8754582390336331e+01 5.9417020959764084e+00 1.3518124955503390e+01 0 1 0
963 2 2.7850263755255952e+01 3.0179372388180518e+01 2.6148702341566050e+01 0 0 -1
2376 2 1.7411271191974798e+01 3.0946040479372556e+01 1.2718269208689181e+01 0 0 1
726 2 1.1372219079903511e+01 1.1976434425883969e+01 6.7073456402237257e+00 0 0 1
518 2 1.7122680091648888e+01 1.5456770303054656e+01 5.4054952394875677e+00 0 0 0