LAMMPS data file via write_data, version 15 Apr 2020, timestep = 1155000

1920 atoms
2 atom types

1.8790107512170806e-02 2.4705614892488668e+01 xlo xhi
6.6015008472735559e-02 2.4658389991516117e+01 ylo yhi
-2.2691510830858519e-02 2.2815063510834136e+01 zlo zhi
9.0379967312371093e-02 3.5553173414105889e-02 -4.3076547440829734e-02 xy xz yz

Masses

1 16
2 2

Atoms # atomic

1 1 4.9555344533371724e+00 1.7196880146960283e+00 4.6591397628601730e+00 0 0 0
2 2 5.5771732840027255e+00 1.6725643027045920e+00 3.9136198338935251e+00 0 0 0
3 2 4.8683498328052712e+00 8.5810294254790809e-01 5.1269982192798835e+00 0 0 0
4 1 3.1575538157517906e+00 1.8903208119582537e+00 1.9225678215206916e+00 0 0 0
654 2 8.0398764122031015e+00 1.1706365847229558e+01 6.6148276291173804e+00 0 0 0
6 2 3.5758882120311428e+00 1.9043513545262427e+00 2.7882436606853878e+00 0 0 0
7 1 6.3187050348335427e+00 4.9105007634191962e+00 3.9594073876817206e+00 0 0 0
8 2 5.3880979431665628e+00 4.6761308710380662e+00 3.7048647704209206e+00 0 0 0
9 2 6.7918635011010204e+00 4.0749832523520659e+00 4.2541373734805266e+00 0 0 0
10 1 3.6843491392709158e+00 4.4280342961909529e+00 3.5595894174621003e+00 0 0 0
11 2 3.2115995489977855e+00 3.7661256401611785e+00 4.0427414442090503e+00 0 0 0
12 2 3.3004703974053711e+00 5.2891595491524690e+00 3.8184629894158735e+00 0 0 0
13 1 1.6828263778226831e+00 3.0499907809065268e+00 4.7928764800106167e+00 0 0 0
14 2 1.6358752523516631e+00 2.1052864953987278e+00 5.0095887969289974e+00 0 0 0
15 2 1.7231032424183490e+00 3.5870737951741023e+00 5.6457258527470229e+00 0 0 0
1539 2 4.9754596106134996e-01 3.7349454879088886e+00 2.1023077507987182e+01 0 0 0
17 2 9.1060350758895248e-01 1.6569114843799300e+00 2.3192962714822469e+00 0 0 0
19 1 4.8906419760976370e+00 3.1788729878196409e+00 5.5992940421833626e-01 0 0 0
20 2 4.1862829741840137e+00 2.7237684301236742e+00 1.0941758595108024e+00 0 0 0
21 2 4.9305748297259919e+00 4.1633890173706822e+00 7.3170127318880185e-01 0 0 0
22 1 1.5587027869556274e+00 4.6100783094308886e+00 1.4996134243492574e+00 0 0 0
23 2 2.4435027697428269e+00 4.5072729815388470e+00 1.9619182578875587e+00 0 0 0
24 2 1.5932524247046633e+00 3.8470556790857073e+00 8.0845807127942515e-01 0 0 0
25 1 4.7465378990617637e+00 5.9199618582595539e+00 7.8780906953257634e-01 0 0 0
26 2 4.1070563340008093e+00 6.2725704728349729e+00 1.4513315209691111e+00 0 0 0
27 2 4.5547979875711553e+00 6.3864727871361984e+00 -1.7443270428332790e-02 0 0 1
416 2 1.0964864738322170e+01 2.5789801221072806e-01 2.2704613108613827e+01 0 0 0
31 1 1.0766649957703700e+01 1.8096143798495128e+00 4.2592212962755802e+00 0 0 0
32 2 1.0985139495367250e+01 2.6218866285049018e+00 4.7860650520792181e+00 0 0 0
625 1 4.5710325611268248e+00 1.2094975249716034e+01 6.3649216499271155e+00 0 0 0
34 1 9.1928310611953954e+00 1.6519478637848646e+00 1.9973116597400349e+00 0 0 0
1259 2 8.4393860085786088e+00 1.2214201622916608e+01 1.5865032496771381e+01 0 0 0
36 2 9.4143045627044657e+00 2.3374995979570108e+00 1.3740411716876053e+00 0 0 0
699 2 2.3971085367001321e-01 1.1858417040612760e+01 9.5430733927154456e+00 0 0 0
39 2 1.1279270200442435e+01 4.8040866175037396e+00 3.8410296761262703e+00 0 0 0
40 1 9.5571566342911591e+00 4.8024179639476596e+00 3.7691799126193919e+00 0 0 0
41 2 9.1992216365300621e+00 4.8235350398670933e+00 2.8511657076034953e+00 0 0 0
42 2 9.0441749708490722e+00 4.0509304810170335e+00 4.1773052948367555e+00 0 0 0
43 1 8.0827267004913139e+00 2.9129574702864733e+00 5.0305560196090475e+00 0 0 0
44 2 8.0014928871281086e+00 3.2097922874071756e+00 5.9444681507462116e+00 0 0 0
45 2 7.9413312060294077e+00 1.9437507635157723e+00 4.9292128232449484e+00 0 0 0
46 1 6.4770569470135397e+00 1.5395240572648532e+00 2.1527630853766699e+00 0 0 0
47 2 7.4622713684687767e+00 1.4692750396166532e+00 2.1578681803296744e+00 0 0 0
48 2 6.2565909605760162e+00 2.2449498654826558e+00 1.4962600751746511e+00 0 0 0
49 1 1.1125141657432275e+01 3.3084248944456789e+00 5.3308647638638895e-01 0 0 0
50 2 1.1679440095002329e+01 2.7538534976921691e+00 1.1180102421754166e+00 0 0 0
51 2 1.1072726516962275e+01 2.7294044596894818e+00 2.2552407778748929e+01 0 0 0
52 1 7.9782921736674970e+00 5.0101644267916949e+00 1.4453313928340203e+00 0 0 0
53 2 7.8304689081126853e+00 4.1676655676299799e+00 9.1835207397620944e-01 0 0 0
54 2 7.3111083789422304e+00 5.0783958159062461e+00 2.1444225171757605e+00 0 0 0
55 1 1.0872954399050537e+01 5.9841112544665087e+00 6.9277182306937080e-01 0 0 0
56 2 1.0231719834116941e+01 6.4114675312714526e+00 1.3087893915898445e+00 0 0 0
57 2 1.0665666220308189e+01 5.0524941979189943e+00 4.8544894910972458e-01 0 0 0
1458 2 7.2541787592723034e-02 2.4062800825774322e+00 1.8896084701563055e+01 1 0 0
1577 2 1.0128918038483344e-01 8.2322173012687259e+00 1.9062028466483376e+01 1 0 0
1608 2 7.4423852593594662e+00 7.7597551427401310e+00 1.9257378129790581e+01 0 0 0
531 2 1.0938220512491796e+01 4.4511758021490770e+00 6.4331405434971547e+00 0 0 0
121 1 4.8290032500351829e+00 7.5927565846282601e+00 4.2913375057248029e+00 0 0 0
122 2 5.5917926274035770e+00 7.7001537831353106e+00 3.7371822307874347e+00 0 0 0
123 2 4.0583681372678839e+00 7.7498130525608042e+00 3.6703695448023845e+00 0 0 0
124 1 3.1764823132905815e+00 7.5379188307712068e+00 2.1306097998150784e+00 0 0 0
125 2 3.5124756794745378e+00 8.3345146318621470e+00 1.7358361811529139e+00 0 0 0
126 2 2.1740310116189141e+00 7.5902651303925186e+00 2.1546165316585548e+00 0 0 0
127 1 6.1422588896022550e+00 1.1143593513244515e+01 3.4848184500422783e+00 0 0 0
128 2 6.4858729049457491e+00 1.0353315958948292e+01 4.0182877271971282e+00 0 0 0
1230 2 2.3242183749290382e+00 1.2126234787053333e+01 1.5529250228595215e+01 0 0 0
130 1 3.2655242010127590e+00 1.0488220403367137e+01 3.3496128630199946e+00 0 0 0
131 2 2.6365131403291295e+00 9.8584296287025115e+00 3.8662980642016103e+00 0 0 0
132 2 2.7613489585354634e+00 1.0506346187346763e+01 2.4844940681895946e+00 0 0 0
133 1 1.6040881722977378e+00 8.9993682621188817e+00 4.9777253210940975e+00 0 0 0
134 2 1.7536546458147941e+00 9.4761671844990438e+00 5.8287961268464414e+00 0 0 0
135 2 7.3545846145156912e-01 9.3292016603542294e+00 4.6517680079455372e+00 0 0 0
1597 1 1.2093965747403912e+01 1.0863303843859985e+01 2.0869817397253172e+01 0 0 0
139 1 4.6977341546027267e+00 9.2430234097989850e+00 5.5888033232457790e-01 0 0 0
140 2 4.8000944431411643e+00 1.0211734009432252e+01 4.9950816551237465e-01 0 0 0
141 2 5.5025151003239010e+00 8.8883633740687458e+00 9.9808226872722239e-01 0 0 0
142 1 1.3881396257351657e+00 1.0562443012529553e+01 1.4639737986137502e+00 0 0 0
143 2 1.6201446669657356e+00 9.8188927033495261e+00 8.4671127905988230e-01 0 0 0
144 2 1.4475957759167084e+00 1.1383856299600170e+01 9.4986968089549551e-01 0 0 0
678 2 1.1915346790066662e+01 6.6823937612781474e+00 7.3689108942237453e+00 0 0 0
148 1 1.7962408081661496e+00 6.3399222041004126e+00 4.9806926976775303e+00 0 0 0
219 2 1.4404701995607685e-01 1.1485523250575849e+01 4.0882183711815534e+00 0 0 0
150 2 1.8191917768932968e+00 7.3101808710878329e+00 4.9687702880232472e+00 0 0 0
151 1 1.0800231741480097e+01 7.3668164988461360e+00 4.2155277362922190e+00 0 0 0
129 2 5.1715152280263714e+00 1.1120027442566707e+01 3.3925908820722950e+00 0 0 0
153 2 1.0814021977483605e+01 8.1438962168591296e+00 4.8062209430534937e+00 0 0 0
154 1 9.3360961132183533e+00 8.0159631566121909e+00 2.0050978132942205e+00 0 0 0
155 2 9.8946986935010042e+00 8.5732747538391045e+00 1.4536799520407118e+00 0 0 0
156 2 9.7869559416897047e+00 7.9508446526632293e+00 2.8934485002746184e+00 0 0 0
176 2 9.9443422155966452e+00 1.2053720335573090e+01 1.1321053037597111e+00 0 0 0
158 2 1.1149245968526222e+01 1.0624483278708491e+01 3.5066518242406639e+00 0 0 0
160 1 9.4818711781074345e+00 1.0747292072129659e+01 3.7219559437186200e+00 0 0 0
161 2 8.9082434618596373e+00 1.0608768599152501e+01 2.9639484906634412e+00 0 0 0
1479 2 1.2381018977020958e+01 3.8932071496226950e+00 2.1085426972633101e+01 0 0 0
163 1 7.5681517556806748e+00 9.2070596657394841e+00 5.1220618584770854e+00 0 0 0
164 2 7.3791979995068635e+00 8.2490927639826293e+00 5.1268458084490627e+00 0 0 0
165 2 8.3251552957179822e+00 9.3391355494957899e+00 4.6228733353886744e+00 0 0 0
166 1 6.5155981199473381e+00 7.8654461088247185e+00 1.9482714123003362e+00 0 0 0
167 2 6.1746341827627100e+00 7.0104342843630256e+00 1.5693466206194375e+00 0 0 0
168 2 7.5029481673677410e+00 7.8273854831249912e+00 1.8134423628069383e+00 0 0 0
169 1 1.1323160789665209e+01 9.2862735331959438e+00 5.2131944117254525e-01 0 0 0
170 2 1.1118638080397977e+01 1.0267243956759438e+01 4.9284618359146781e-01 0 0 0
171 2 1.1000781304481734e+01 8.8414463608272236e+00 2.2525250264994817e+01 0 0 0
172 1 7.8178552400885781e+00 1.0753049829405819e+01 1.4939256402744436e+00 0 0 0
557 2 1.2352549651772765e+01 1.7342725975160185e+00 8.7857384899649702e+00 0 0 0
174 2 7.7124506612447048e+00 1.0029687706799770e+01 9.2125095382290034e-01 0 0 0
269 2 2.3255722502490443e+00 1.2087503193037161e+01 4.2541230514292039e+00 0 0 0
178 1 7.6734933170083641e+00 6.5122776557610740e+00 5.4191246384867924e+00 0 0 0
179 2 7.0585203442512032e+00 5.8228613574644852e+00 5.2554059275752403e+00 0 0 0
180 2 8.4468069493663407e+00 6.1412034612213811e+00 4.8881853976661489e+00 0 0 0
1105 1 5.0168183960152390e+00 1.2308047287468508e+01 1.1984135018203506e+01 0 0 0
897 2 1.1453976039003953e+01 6.7168275635361951e-01 7.0807112803875283e+00 0 0 0
1658 2 3.6564003285491198e-01 1.0707945054000891e+01 2.0040960057706073e+01 0 0 0
1589 2 9.6310229890061461e-01 5.8757912826320231e+00 2.1441583222267958e+01 0 0 0
1619 2 7.8640251848209282e+00 6.0493540186562909e+00 1.7991402890108701e-01 0 0 1
495 2 8.1661994335309696e-01 3.4371408227751088e+00 1.0056481041080207e+01 0 0 0
1618 1 7.9005778881186250e+00 6.3133336394058812e+00 2.2054917110216287e+01 0 0 0
1346 2 4.1617204457102739e+00 2.1451353550859248e-01 1.3073023559850267e+01 0 0 0
1018 1 7.9203342135926889e+00 1.3714912125556186e-01 1.6574459949598875e+01 0 0 0
481 1 4.4672389468809763e+00 1.5065712435619663e+00 1.0471685169285010e+01 0 0 0
482 2 4.4953604016577557e+00 9.0016628961304046e-01 1.1213152596238034e+01 0 0 0
483 2 5.1586246330777508e+00 1.3205035460841463e+00 9.8050432729121297e+00 0 0 0
484 1 2.8388841213996412e+00 1.6624582120772067e+00 8.1796755822141201e+00 0 0 0
485 2 3.1226353846262542e+00 1.7149655255728298e+00 9.0726245128230385e+00 0 0 0
486 2 1.8813386881984171e+00 1.4807938778449354e+00 8.2619168205406233e+00 0 0 0
487 1 6.3181999132303241e+00 4.7647647615076822e+00 9.1176712462976202e+00 0 0 0
488 2 5.3591713248084147e+00 4.7308556621143216e+00 8.9172092922678274e+00 0 0 0
489 2 6.4706633021473756e+00 4.0407957281397637e+00 9.7583450175498267e+00 0 0 0
490 1 3.4251260318832704e+00 4.9415159540316909e+00 9.1042265996070650e+00 0 0 0
491 2 3.2723256905929503e+00 3.9857819771572611e+00 9.0156856834951480e+00 0 0 0
492 2 2.7727758799265572e+00 5.1798808465142887e+00 9.7659777954613674e+00 0 0 0
493 1 1.3764845588044443e+00 2.8876242184787486e+00 1.0678242034224130e+01 0 0 0
494 2 1.1156505746637007e+00 3.2771901223157576e+00 1.1508765796494950e+01 0 0 0
1605 2 7.0245307289803494e+00 9.3500633389323138e+00 2.1634000192105376e+01 0 0 0
1613 2 8.1245315619690821e+00 1.1256525897682936e+01 1.7564278769912491e+01 0 0 0
499 1 4.3905501558706375e+00 3.2543362793162811e+00 6.6194346181197092e+00 0 0 0
500 2 3.5596814911851293e+00 2.9324425439161987e+00 7.0179115277967172e+00 0 0 0
501 2 4.6013917701714107e+00 2.7865019075467634e+00 5.7398284338161414e+00 0 0 0
502 1 1.4629377238600523e+00 4.7557361797026880e+00 7.0607128800080492e+00 0 0 0
503 2 2.2619193749210558e+00 4.9006798325883185e+00 7.5979317453851758e+00 0 0 0
504 2 1.5849848198023841e+00 5.5038919512541478e+00 6.3188253510294370e+00 0 0 0
505 1 4.6179074334865087e+00 5.9979186551880543e+00 6.4760072623290101e+00 0 0 0
506 2 4.6383140585198070e+00 4.9656793932439465e+00 6.5649282713424242e+00 0 0 0
507 2 4.7290441519232456e+00 6.1441614559606466e+00 5.5211133771476364e+00 0 0 0
5 2 3.4842936402466216e+00 1.0770194848056083e+00 1.4787783666092260e+00 0 0 0
509 2 1.0526057487769060e+00 9.7187248054256603e-01 1.0687467808629897e+01 0 0 0
511 1 1.1040580777567875e+01 1.5678150458891655e+00 9.8372156482083373e+00 0 0 0
512 2 1.0921142838241186e+01 8.7696006074462518e-01 1.0490752935882973e+01 0 0 0
513 2 1.0290083451754173e+01 1.4816602443036682e+00 9.1860528379266224e+00 0 0 0
514 1 9.2835907922625172e+00 1.6469478889543425e+00 7.7757534490815532e+00 0 0 0
515 2 8.3169705425310347e+00 1.8076434379218098e+00 7.8768880188670609e+00 0 0 0
1571 2 2.6676963852548883e+00 1.1624680999613718e+01 2.1152555670628431e+01 0 0 0
218 2 1.0350844099744462e-01 1.0631663216379843e+01 2.7990020957293291e+00 0 0 0
520 1 9.3232741586930068e+00 4.5201586757675836e+00 9.5374827087660083e+00 0 0 0
521 2 1.0269158439201217e+01 4.2245850697023934e+00 9.4446380783875608e+00 0 0 0
522 2 8.9700754833382117e+00 4.4084361150834637e+00 8.6292499019222682e+00 0 0 0
523 1 7.5690798691703192e+00 2.9409308338274704e+00 1.0678263390563352e+01 0 0 0
524 2 7.6569175395758542e+00 1.9664592590150904e+00 1.0721677357783795e+01 0 0 0
525 2 8.3233472775057482e+00 3.3182169857080965e+00 1.0167014267347348e+01 0 0 0
526 1 6.4548366398859844e+00 1.5884677514072676e+00 8.1359234965720209e+00 0 0 0
527 2 6.2211025802077593e+00 6.7815015183380400e-01 7.9471988845893184e+00 0 0 0
417 2 1.0238005112576193e+01 3.7356636690931749e-01 1.3037369237724459e+00 0 0 0
529 1 1.1224591313941604e+01 3.4830688976182529e+00 6.4204399239581660e+00 0 0 0
530 2 1.0506019756483349e+01 3.0265000247855189e+00 6.9694645696819073e+00 0 0 0
1576 1 3.3963658326737356e-01 7.4494774310668985e+00 1.9626645813149992e+01 0 0 0
532 1 7.8960242781693406e+00 4.2732544844214377e+00 7.1100779091456090e+00 0 0 0
533 2 8.0122732839065591e+00 5.1841968002359202e+00 6.7663111451965818e+00 0 0 0
534 2 7.1933025260369812e+00 4.1817319049021187e+00 7.7365006643263641e+00 0 0 0
535 1 1.0606252069670917e+01 5.9537069533997444e+00 6.5143628434317140e+00 0 0 0
536 2 9.8738726702630206e+00 6.4169584707544649e+00 7.0036718585682367e+00 0 0 0
1118 2 1.2304019797172909e+01 1.0399422639076008e+01 1.4175632906119137e+01 0 0 0
1607 2 6.0712540577194316e+00 7.7823361832480682e+00 2.0131605206472940e+01 0 0 0
614 2 4.0922908718902168e-01 9.6902089732153378e+00 1.0294567568173969e+01 0 0 0
1472 2 1.1628955445513240e+01 1.4865290657005237e+00 2.0440580430240090e+01 0 0 0
136 1 2.6241462853198827e-01 7.5080943855288247e+00 2.1654786430748980e+00 0 0 0
1612 1 7.9903324737654149e+00 1.0740245644530809e+01 1.8358185332399593e+01 0 0 0
601 1 4.8946200869804404e+00 7.5823291609413443e+00 9.9744014947203024e+00 0 0 0
602 2 5.5111313134828075e+00 7.5148969573017297e+00 9.1938095214332147e+00 0 0 0
603 2 5.0617737434974499e+00 8.4051138578590479e+00 1.0508837435206358e+01 0 0 0
604 1 3.0750189389263598e+00 7.8451908786070792e+00 7.9069998015279008e+00 0 0 0
605 2 3.4930194381411916e+00 7.7660731048653027e+00 8.8184223702640860e+00 0 0 0
606 2 3.4317038733711862e+00 7.0689568735516879e+00 7.4834257743655632e+00 0 0 0
607 1 5.9992533344081593e+00 1.0868152119612136e+01 9.3372780149840846e+00 0 0 0
608 2 6.3601158480006150e+00 1.0884776992037885e+01 8.4546688603222790e+00 0 0 0
609 2 6.5198621249654209e+00 1.0211239551039101e+01 9.7685687319431729e+00 0 0 0
610 1 3.3215422488790378e+00 1.0936361142568646e+01 9.3036376940605550e+00 0 0 0
611 2 3.1019405838372669e+00 1.0651632132478817e+01 8.4146882693619176e+00 0 0 0
612 2 4.3573238714436062e+00 1.0844095230996535e+01 9.3216401309303460e+00 0 0 0
613 1 1.1785966473538692e+00 9.2197298235823375e+00 1.0688134190269787e+01 0 0 0
1096 1 3.2300347580747424e-01 7.7666190925271348e+00 1.3510867430066298e+01 0 0 0
615 2 1.9308320054088293e+00 9.5545105405377058e+00 1.0159619044882998e+01 0 0 0
1092 2 2.8969414245863585e+00 1.0839274173620012e+01 1.3759535231479102e+01 0 0 0
618 2 1.3163279768019991e+00 7.8543773631743345e+00 7.6992666947588928e+00 0 0 0
619 1 4.8604023282888598e+00 9.4170954478363118e+00 6.3431670489638448e+00 0 0 0
620 2 4.8389968424833354e+00 8.9688403129969796e+00 5.5052701702104541e+00 0 0 0
621 2 4.0751031249318643e+00 9.0766856114929535e+00 6.8030207253144344e+00 0 0 0
622 1 1.5032340491793159e+00 1.0687628015337562e+01 6.8980486468346003e+00 0 0 0
623 2 8.3952533793266260e-01 1.0795960520253503e+01 7.6257937561856206e+00 0 0 0
624 2 1.5303123426760137e+00 1.1370556631880243e+01 6.2873178568494605e+00 0 0 0
637 1 1.2347777008046922e+01 1.0503508595701609e+01 9.2027309744340293e+00 0 0 0
626 2 4.6868257288724333e+00 1.1146042451895314e+01 6.1624100296860229e+00 0 0 0
628 1 1.2920492835086463e+00 6.3361830776689603e+00 1.0540548294732593e+01 0 0 0
629 2 1.2657109217721136e+00 5.8704067238189417e+00 1.1484780472326987e+01 0 0 0
630 2 1.3028673295303776e+00 7.3159414201751298e+00 1.0627170493428824e+01 0 0 0
631 1 1.0792579986209347e+01 7.7430054642084976e+00 9.9237104138459511e+00 0 0 0
632 2 1.0644892774338665e+01 6.9350840744308275e+00 1.0511453538822654e+01 0 0 0
633 2 1.1463027783665359e+01 7.6050294512636594e+00 9.2153783977117847e+00 0 0 0
634 1 9.1225589904901749e+00 7.6162606060305658e+00 7.8206489307878480e+00 0 0 0
635 2 9.5894253910571869e+00 7.7241651233205282e+00 8.6845353828696634e+00 0 0 0
636 2 8.1060366047673433e+00 7.6616034266274502e+00 7.8582837986356022e+00 0 0 0
1442 2 4.6173349461560127e+00 8.7208867823582348e-01 2.1927617277700527e+01 0 0 0
639 2 1.1329612373511475e+01 1.0298009167777217e+01 9.1104516845322010e+00 0 0 0
640 1 9.4891741327111507e+00 1.0669742438760544e+01 9.1575269027023669e+00 0 0 0
641 2 9.0326317781627434e+00 1.0818404162794605e+01 8.3326950789245515e+00 0 0 0
642 2 9.1269575735537973e+00 9.8896377331755136e+00 9.6264084965846717e+00 0 0 0
643 1 7.8198392464639124e+00 9.1385156175334146e+00 1.0592238628437730e+01 0 0 0
644 2 7.6471640984128468e+00 8.1612244490895911e+00 1.0756632589594290e+01 0 0 0
645 2 7.7133643430726142e+00 9.4953652860581936e+00 1.1499221934579953e+01 0 0 0
646 1 6.4930444069509852e+00 7.4528600232220779e+00 7.7382975399677933e+00 0 0 0
647 2 6.0887813664676598e+00 6.7621306310581533e+00 7.1472721991760997e+00 0 0 0
648 2 6.2725167029043361e+00 8.2448524778296211e+00 7.2123544672095186e+00 0 0 0
649 1 1.0745411375100346e+01 9.2584860808265130e+00 6.2456644153073029e+00 0 0 0
650 2 1.0548269710433251e+01 1.0190738920553942e+01 6.0396701241852675e+00 0 0 0
651 2 9.9915493369043720e+00 8.8949781920461408e+00 6.7232157083551414e+00 0 0 0
652 1 7.6252840249567706e+00 1.1081266292360771e+01 7.2166382565283911e+00 0 0 0
653 2 7.4782295716792229e+00 1.0304398145437288e+01 6.5773851172336029e+00 0 0 0
1477 1 1.2211632686799600e+01 4.7766013618557528e+00 2.0657972120569291e+01 0 0 0
1089 2 5.0882126398953833e+00 1.0434859729900586e+01 1.4668110022346116e+01 0 0 0
658 1 7.7741640485695243e+00 6.4673290673443518e+00 1.1012591876230088e+01 0 0 0
659 2 6.9540014137942627e+00 6.1863830581018373e+00 1.0590897009119306e+01 0 0 0
660 2 8.4933707371706415e+00 6.0574284017093278e+00 1.0476968718845466e+01 0 0 0
1610 2 1.0695246456214132e+01 9.3729931711683836e+00 1.6916980944001793e+01 0 0 0
1604 2 8.5843913626726511e+00 9.5795545854115804e+00 2.1503171780642461e+01 0 0 0
579 2 2.1413633150558939e-01 4.6989758560290866e+00 8.2610724832445044e+00 0 0 0
779 2 8.9098212131963255e+00 1.2249102770934378e+01 1.0322096590748682e+01 0 0 0
1614 2 8.8282624461936443e+00 1.0780667543827654e+01 1.8817144756037848e+01 0 0 0
1611 2 1.1715572541672552e+01 8.8040640652964175e+00 1.7966235977016041e+01 0 0 0
1464 2 1.1732215438610607e+00 4.5593205839378852e+00 1.8902685211106707e+01 0 0 0
1616 2 1.1168202136595156e+01 1.1394640924807739e+01 1.7590305822109080e+01 0 0 0
1133 2 7.6808264292426101e+00 1.1690523537638033e+01 1.2105178842155800e+01 0 0 0
1038 2 1.2290800418891607e+01 1.4635520651641727e+00 1.4646924693508033e+01 0 0 0
961 1 5.0636469326757547e+00 1.4738814603667989e+00 1.5983853289437830e+01 0 0 0
962 2 4.9250591697965449e+00 2.2257301648088781e+00 1.6626985915875373e+01 0 0 0
157 1 1.2147880258781115e+01 1.0552883628656303e+01 3.5806344774869450e+00 0 0 0
964 1 3.0391806868287428e+00 1.6096519980698065e+00 1.3726601074257747e+01 0 0 0
965 2 3.3182931158459659e+00 1.5619404351955621e+00 1.4671511748308873e+01 0 0 0
966 2 3.5402492696508192e+00 2.2826890967019726e+00 1.3256708759215371e+01 0 0 0
967 1 6.0871142523624417e+00 4.4961142452203093e+00 1.5047048681929430e+01 0 0 0
968 2 6.4567234495191457e+00 5.3486963874420228e+00 1.5382072938416515e+01 0 0 0
969 2 6.6250229905984970e+00 4.3463341497031260e+00 1.4255775552022518e+01 0 0 0
970 1 3.4201696977765192e+00 4.3662010810903924e+00 1.4925277839520517e+01 0 0 0
971 2 4.4352666768291353e+00 4.3454537252250036e+00 1.4952781108960945e+01 0 0 0
972 2 3.1518328531059101e+00 5.1187983133475639e+00 1.5524440717018200e+01 0 0 0
973 1 1.6989692030938308e+00 2.7253319589501546e+00 1.6173411746395374e+01 0 0 0
974 2 2.2174549386535438e+00 3.2803091961852400e+00 1.5592908807043724e+01 0 0 0
975 2 1.7625948288849984e+00 3.1589906608957534e+00 1.7051295789383154e+01 0 0 0
867 2 3.8056022065827051e+00 4.6996295229099166e-01 7.4167638359163321e+00 0 0 0
977 2 1.3744114396863008e+00 1.1989033080811269e+00 1.3618499221756107e+01 0 0 0
979 1 4.7733884451066118e+00 3.3249071736210185e+00 1.2246429893825582e+01 0 0 0
980 2 4.7938682532380668e+00 2.7823790246918008e+00 1.1434946848725914e+01 0 0 0
981 2 5.4280671298626357e+00 2.8640371817080985e+00 1.2876526027606419e+01 0 0 0
982 1 1.4201288903847507e+00 4.7975428544799268e+00 1.2797669041804767e+01 0 0 0
983 2 2.3448556536176941e+00 4.5521375303259717e+00 1.3104316633009459e+01 0 0 0
984 2 9.2754322624028740e-01 5.0972787096666208e+00 1.3638091185328987e+01 0 0 0
985 1 4.6728032506376973e+00 5.9875128469875047e+00 1.2248839332257576e+01 0 0 0
986 2 4.8701501687194488e+00 6.3680430503279117e+00 1.1369478596662590e+01 0 0 0
987 2 4.7305748986889045e+00 5.0046313595109675e+00 1.2165351549833197e+01 0 0 0
1857 2 1.1696191758095116e+01 2.8386815076215094e-01 1.8396602256785975e+01 0 0 0
989 2 1.8410948971147205e+00 1.0437935221570864e+00 1.6441932602276474e+01 0 0 0
991 1 1.1060992407516713e+01 1.5431445167306774e+00 1.5918811120908812e+01 0 0 0
992 2 1.1093289537692641e+01 8.6059488139587181e-01 1.6596486306540079e+01 0 0 0
993 2 1.0379319994387803e+01 1.2338537881440972e+00 1.5266993541625030e+01 0 0 0
994 1 9.3033001017120771e+00 1.4680239377486914e+00 1.3847962353067169e+01 0 0 0
995 2 9.4517558468438381e+00 6.6328107727332619e-01 1.3268747220759641e+01 0 0 0
996 2 9.8043719592788445e+00 2.1474231199798233e+00 1.3323188117243557e+01 0 0 0
1376 2 1.1512133434668405e+01 1.9214628905239470e-01 1.2764073360534798e+01 0 0 0
998 2 1.1535583188283693e+01 4.7918486171487826e+00 1.5203230910051388e+01 0 0 0
1000 1 9.7195382616236756e+00 4.4375879437280092e+00 1.5396472634948990e+01 0 0 0
1001 2 9.1125545241453185e+00 3.7336481151813983e+00 1.5709777064722084e+01 0 0 0
1002 2 9.4551460322292993e+00 4.3829880377450969e+00 1.4460535499911019e+01 0 0 0
1003 1 7.8264238043753886e+00 2.8119188435647717e+00 1.6666580250000969e+01 0 0 0
1004 2 7.0217084343245988e+00 3.1690950757939773e+00 1.6168972806052942e+01 0 0 0
1005 2 8.0536457119613516e+00 3.5212308459214805e+00 1.7330859494228982e+01 0 0 0
1006 1 6.3002360861397886e+00 1.7088148900236013e+00 1.3755301449777740e+01 0 0 0
1007 2 5.8985271542509201e+00 1.5763348686088616e+00 1.4611855139491947e+01 0 0 0
1008 2 7.2684912786333324e+00 1.7891927132046748e+00 1.3963363902932286e+01 0 0 0
1009 1 1.1164513750323799e+01 3.2779920877690802e+00 1.2214429647504907e+01 0 0 0
1010 2 1.1816779936297813e+01 2.6883350048798507e+00 1.2654283366864284e+01 0 0 0
1011 2 1.1006585438305295e+01 2.8260382287645172e+00 1.1356751115282346e+01 0 0 0
1012 1 8.0031121261626161e+00 4.3877492831235179e+00 1.2974633256471673e+01 0 0 0
1013 2 8.1759565450733955e+00 3.6580184181544042e+00 1.2395415596638973e+01 0 0 0
1014 2 8.0197773443350311e+00 5.1527706388621768e+00 1.2343710581549932e+01 0 0 0
1015 1 1.0611952177424483e+01 5.9941839211888226e+00 1.2305101805602968e+01 0 0 0
1016 2 1.0790069669912157e+01 5.0223762810658439e+00 1.2370264114933676e+01 0 0 0
1017 2 1.1381505368859122e+01 6.3788124418069501e+00 1.2781586125902290e+01 0 0 0
35 2 9.5788159160525961e+00 1.9421403351258704e+00 2.8610967839080939e+00 0 0 0
1019 2 7.8056817405218233e+00 1.1049916589064968e+00 1.6526952791928338e+01 0 0 0
1109 2 1.2178459670915771e+00 5.8794538325660204e+00 1.5929053483584330e+01 0 0 0
1602 2 9.2032300437651902e+00 1.1579662757645947e+01 2.0986388571898964e+01 0 0 0
1081 1 4.6340672610295179e+00 7.8116960621391653e+00 1.5897454331779931e+01 0 0 0
1082 2 5.3724683797592423e+00 7.6872343575459920e+00 1.5316419173515213e+01 0 0 0
1083 2 4.5162171013540142e+00 6.9791005162891970e+00 1.6466436109879993e+01 0 0 0
1084 1 2.8760374405222802e+00 7.8360834587630377e+00 1.3273670497602122e+01 0 0 0
1085 2 3.1989452504129203e+00 7.8497714168451074e+00 1.4164588740944549e+01 0 0 0
1086 2 3.4516542622302375e+00 7.2136593132605382e+00 1.2768933096090841e+01 0 0 0
1087 1 6.0660261669241713e+00 1.0453523050630505e+01 1.4627903408165590e+01 0 0 0
1088 2 6.4547755850024098e+00 9.8473735383498209e+00 1.5298032992835987e+01 0 0 0
58 1 7.6853339877448583e+00 2.2308660379195899e-01 4.7920606654238425e+00 0 0 0
1090 1 3.1916154646558952e+00 1.0801918099621584e+01 1.4676231369533179e+01 0 0 0
1091 2 2.7032390465196987e+00 1.0120285563556326e+01 1.5186477911446552e+01 0 0 0
896 2 1.0812696366267350e+01 6.7347774200275223e-01 5.6905839419314175e+00 0 0 0
1093 1 1.5545348611008716e+00 9.2195557834999526e+00 1.6428138577616735e+01 0 0 0
1094 2 1.5770043167231194e+00 8.2925264609595573e+00 1.6548416827397823e+01 0 0 0
1095 2 7.8416353427222230e-01 9.4179438308808390e+00 1.5855515818622624e+01 0 0 0
976 1 3.9091816806377772e-01 1.1493267518398729e+00 1.3482015119154580e+01 0 0 0
1097 2 1.3478688981541096e+00 7.6822894468033658e+00 1.3423093919755729e+01 0 0 0
1099 1 4.7333970478333747e+00 9.4971160996229891e+00 1.1816700270145493e+01 0 0 0
1100 2 3.8299744731229706e+00 9.2222934543398019e+00 1.2165267603785695e+01 0 0 0
1101 2 4.8570759520255020e+00 1.0491685231860071e+01 1.1907478593508570e+01 0 0 0
1102 1 1.5043418047518358e+00 1.1292264944881966e+01 1.2553948386728369e+01 0 0 0
1103 2 1.5427635656877734e+00 1.0595768149329842e+01 1.1844388359548253e+01 0 0 0
1104 2 8.7563717476410741e-01 1.0971759765686155e+01 1.3210633191932873e+01 0 0 0
1537 1 1.0605204014620975e-01 4.5208006714232454e+00 2.0594459436731967e+01 1 0 0
1108 1 1.9221692271958344e+00 6.3902601086898336e+00 1.6415491586520687e+01 0 0 0
386 2 5.3438559793895992e+00 2.8151010373876750e-01 9.0407055383577328e-01 0 0 0
1110 2 2.0285511939620529e+00 5.8619218274053040e+00 1.7247133635968950e+01 0 0 0
1111 1 1.0499496642841981e+01 7.4726134730354552e+00 1.5401333477133260e+01 0 0 0
1112 2 1.1304832534954656e+01 7.6763120945515961e+00 1.4939224380153709e+01 0 0 0
1113 2 9.8107064184145347e+00 7.5703843274212828e+00 1.4712999611689042e+01 0 0 0
1114 1 9.0003338153067247e+00 7.8346937522980369e+00 1.3325081796943271e+01 0 0 0
1115 2 9.2692088534892729e+00 7.0864981408686196e+00 1.2745762615213403e+01 0 0 0
1116 2 8.0150289781719692e+00 7.8695301350738545e+00 1.3330071967262604e+01 0 0 0
33 2 1.1449432829674416e+01 1.6873460881798927e+00 3.5988310199261764e+00 0 0 0
1120 1 9.3516360335216362e+00 1.0863604274630612e+01 1.5014893113079369e+01 0 0 0
1121 2 9.0537407112153616e+00 1.1142664544206054e+01 1.4147110091888107e+01 0 0 0
1122 2 1.0268383812996133e+01 1.1208749204306780e+01 1.5066517614923997e+01 0 0 0
1123 1 7.6918122212404327e+00 8.9106014459383669e+00 1.6229152478578754e+01 0 0 0
1124 2 8.4641890726709814e+00 9.3391221900604080e+00 1.5998757844683533e+01 0 0 0
1125 2 7.4809084206690741e+00 9.1289683665925754e+00 1.7135630835704106e+01 0 0 0
1126 1 6.3833183459280276e+00 7.8161395257640915e+00 1.3631034900833551e+01 0 0 0
1127 2 5.9002607773441049e+00 7.1196674818575207e+00 1.3215951758803207e+01 0 0 0
1128 2 5.8827417630342929e+00 8.6935195108269383e+00 1.3537128018555084e+01 0 0 0
1129 1 1.0861810990516759e+01 9.3981903323836704e+00 1.2202107006248749e+01 0 0 0
1130 2 9.9743638202615958e+00 8.9964392560668927e+00 1.2517628306168037e+01 0 0 0
1131 2 1.0884907658532525e+01 8.9521101378442900e+00 1.1362524719828194e+01 0 0 0
1132 1 7.8197901562919387e+00 1.0899215738757389e+01 1.2754408018998317e+01 0 0 0
1260 2 6.9718976612480388e+00 1.2242476042259895e+01 1.5645627663272169e+01 0 0 0
1134 2 6.9830668252875467e+00 1.0832941218497949e+01 1.3283105517081669e+01 0 0 0
516 2 9.4352949349400781e+00 8.7906296089229652e-01 7.1476448137360835e+00 0 0 0
1137 2 1.0963200737859106e+01 1.1267071921865636e+01 1.2271824592890754e+01 0 0 0
1138 1 7.8642082698401277e+00 6.3193734419880130e+00 1.6461674630665932e+01 0 0 0
1139 2 7.9019663113017833e+00 7.2593649528001363e+00 1.6122498636596674e+01 0 0 0
1140 2 8.6855486025881916e+00 5.9151939476987128e+00 1.6059254451772567e+01 0 0 0
1827 2 3.9723703507092649e+00 3.6152996069106313e-01 1.8245366711149337e+01 0 0 0
37 1 1.2235530142361807e+01 4.6146636870222633e+00 3.7051604220464922e+00 0 0 0
616 1 3.1405027870271840e-01 7.9227634605481914e+00 7.6283566619302201e+00 0 0 0
152 2 1.1568182816266756e+01 7.6088877506460522e+00 3.6584735842155713e+00 0 0 0
162 2 9.2491502290737806e+00 1.1493854672047995e+01 4.2512617894847660e+00 0 0 0
1518 2 1.2160268676283303e+01 2.3321870919496170e+00 1.8509548239906444e+01 0 0 0
1606 1 6.4520341179012535e+00 7.8020393423137495e+00 1.9191838529903137e+01 0 0 0
198 2 1.2299862233468545e+01 6.6085972706859888e+00 2.0033042975616087e+00 0 0 0
537 2 1.0666993160300974e+01 6.3401988183329170e+00 5.5919977248562507e+00 0 0 0
1441 1 4.5693903971428034e+00 1.7048911759589958e+00 2.1393176796642841e+01 0 0 0
1158 2 1.1969668831391996e+01 8.3775290685741197e+00 1.2970574378423450e+01 0 0 0
1443 2 4.7232466046215817e+00 2.4309402062228496e+00 2.2016749017166340e+01 0 0 0