LAMMPS data file via write_data, version 8 Apr 2021, timestep = 146862000

576 atoms
2 atom types

0.11424438178598989 17.805756618180396 xlo xhi
-0.0907566182140485 17.600755618182863 ylo yhi
0.25924438178907144 17.95075661818629 zlo zhi

Masses

1 16
2 2

Atoms # atomic

125 2 2.304977373134404 2.7646696218025304 3.192857490058924 5 0 4
124 1 1.8599162920262353 2.6000857935855017 4.0591314359067105 5 0 4
10 1 3.1819894778833406 3.2171505873309445 1.6924795875647578 4 -3 3
12 2 2.5366875685106183 3.689779571365467 1.1556213489301554 4 -3 3
155 2 1.386226547022659 0.669810107274942 3.9409122062148247 1 1 1
11 2 3.984259333672799 3.7782093081797528 1.9513307418510457 4 -3 3
489 2 3.6886251188790666 1.9585160730829314 0.7054057134931254 0 4 1
274 1 7.431379977801324 1.0200848973965393 3.1934883561720646 -2 -3 1
276 2 6.87726086459845 1.1809977927990492 3.975355008321505 -2 -3 1
275 2 6.877313645002416 0.8053875896766974 2.4111182952954313 -2 -3 1
164 2 8.51913802732714 2.3505910429589276 2.8137177873066066 1 2 0
332 2 8.102616355975298 3.674649321399345 1.2412172006493678 2 -2 3
498 2 5.268912732680801 0.18188037237070553 0.7258117945388018 -2 -4 1
572 2 4.785465398614729 0.11178277687359324 4.22243146916211 -2 0 1
163 1 9.246633329080748 2.773871844300867 2.3434446121951718 1 2 0
165 2 9.673650983624889 2.044287869171196 1.8332302937101288 1 2 0
97 1 10.549511650532176 0.7874094034376315 1.0619222248780924 4 2 -1
281 2 13.202042896224057 3.8132581004699344 2.1514472884955946 -2 -1 -1
98 2 10.104445504282532 0.06434439889086706 0.5805497050434525 4 2 -1
341 2 9.981638317513193 4.175166758476357 3.1287459145618186 5 -7 -5
47 2 11.256957066864764 0.1750938134177295 2.634811671246341 -6 0 -4
99 2 11.097458596244579 1.244011849419137 0.37980389925574826 4 2 -1
111 2 17.695853532220063 2.7238527446449847 3.3504296513744958 -4 -2 0
569 2 15.521989818234484 0.8941202534971433 0.7656732930402332 1 -4 -1
568 1 15.720265319132888 1.8486654326843752 0.6460309050956129 1 -4 -1
109 1 16.77040252789114 2.4524518941195006 3.1315580898814477 -4 -2 0
570 2 16.209237022825256 2.0889102993077797 1.4698589520257235 1 -4 -1
110 2 16.263501499004253 2.2364086952698248 3.9334835780218467 -4 -2 0
344 2 16.434455041877662 4.170187676519726 2.944947331466046 -1 2 0
455 2 14.273663084891636 2.6644596215919187 0.48442095509695515 5 2 -3
20 2 14.969362140514246 0.49062417975415124 4.574346213259953 3 0 5
402 2 13.722925568991162 3.865126926149354 4.451656728120462 0 3 -3
454 1 13.52855723610396 3.312651840324886 0.4053000691991467 5 2 -3
53 2 1.2582825671660018 6.885841988307354 1.2183617643898557 -2 -2 1
567 2 1.1810197219202792 7.169961105028231 3.2485894451001744 0 5 2
565 1 1.221088276018383 6.186087899412656 2.9324990352294162 0 5 2
566 2 1.6458288951581583 5.7303258171190254 3.677400892914645 0 5 2
52 1 0.9672626810039506 6.993104178901107 0.29562956851590233 -2 -2 1
135 2 1.7109652105639752 8.572190590672607 4.465830055012161 1 -3 0
133 1 1.0204985633070522 8.550342250145087 3.810282062580031 1 -3 0
210 2 4.033877694864244 8.468749945228472 0.33004024851106706 1 2 2
333 2 6.859344034353133 4.545185660233081 1.0798077991240853 2 -2 3
331 1 7.751078362383177 4.430264450526284 0.7935144120949773 2 -2 3
172 1 5.970602906849167 4.94800185377927 4.6277925954358885 2 0 -1
574 1 5.274247676327404 4.83780117006788 2.0915118869476257 -4 2 2
575 2 5.71276252360528 4.984216400865487 2.975186784879975 -4 2 2
576 2 5.123881749624762 5.711347045291904 1.719927360108457 -4 2 2
118 1 7.61743470793527 8.606579631637738 1.7102260935614826 0 2 0
150 2 7.109066657594851 7.913236050333873 3.2280312235996265 4 -5 2
356 2 6.117280591670064 8.000641695040306 0.9468294245145518 0 1 4
355 1 5.357078852653494 7.478592830758655 0.6542310058526869 0 1 4
148 1 6.860834520108897 7.378842164215078 4.043544826639368 4 -5 2
119 2 8.221295614394025 7.951944129133911 1.441964138088226 0 2 0
149 2 6.260803134436519 8.036475727512224 4.532361164093095 4 -5 2
173 2 6.282735235330901 5.89829886661558 4.522171634425076 2 0 -1
248 2 8.930018400652697 5.630726689315478 0.860122005779073 0 -9 0
280 1 13.118267377475215 4.369729464222874 2.9578525124314674 -2 -1 -1
197 2 11.059228807114527 8.665208741241628 1.927274146160427 -1 4 -1
247 1 9.279016054838806 6.478767351626265 0.41165503152159816 0 -9 0
282 2 12.1410439834146 4.543659496044129 3.1865620125297545 -2 -1 -1
249 2 9.93228769407474 6.7152828740123285 1.0972626284311557 0 -9 0
342 2 9.895034501088952 5.506966326348357 3.7588814079482007 5 -7 -5
340 1 10.57296957134577 4.914971408230786 3.3854444706390603 5 -7 -5
196 1 10.799294005152227 7.796010604953401 2.21369394776075 -1 4 -1
198 2 11.678280187370417 7.288914569199692 2.2629759498772364 -1 4 -1
562 1 13.366950652821666 6.963392725322666 2.3183540329074526 1 0 -1
415 1 14.128061929970977 8.347741071109793 4.4862829625151885 0 2 3
564 2 13.57483568622708 6.006523462973574 2.417810809797389 1 0 -1
563 2 14.038134607672173 7.337250240769002 1.6769594882741137 1 0 -1
217 1 15.68749317441288 7.40571052256633 0.5237105833898715 -1 3 0
345 2 17.36423267048612 5.403780187413868 2.7361476584029694 -1 2 0
416 2 13.768663292115798 7.800720157177095 3.755711820981107 0 2 3
343 1 16.43219997408855 5.1630998131583326 2.8221714245664162 -1 2 0
170 2 15.799654776431325 5.877760935305824 3.9899657810527454 0 -2 5
218 2 16.55329529529036 7.010568267997085 0.7763532661129419 -1 3 0
126 2 2.480510173789834 2.696502608829976 4.80520162609404 5 0 4
100 1 2.6556001059162075 0.12365308433307069 9.102757774726536 -1 -1 2
130 1 3.847845946580969 3.4400213931135095 5.729597634467723 2 -3 -1
131 2 4.129986816716437 3.122027099953896 6.646837515107394 2 -3 -1
556 1 4.288149746133078 2.315449244934548 8.030537485887645 -5 2 0
557 2 3.8066286456305605 1.5479692832413587 8.318049487916793 -5 2 0
255 2 3.618879821030437 3.6733613077081024 8.980365197625476 -1 -4 -1
101 2 1.739129432194097 0.521997990460531 9.049148302834164 -1 -1 2
112 1 6.847874553066431 2.6764764399772285 8.955455372711416 -6 1 1
261 2 7.0618886107542505 4.2345873470441155 8.473713496333021 0 1 1
558 2 5.168629064896112 2.2862687633301273 8.438394462047759 -5 2 0
320 2 7.933570943276795 0.18935151747987733 7.157722410743354 3 4 -1
132 2 4.617143822522043 3.983082779566643 5.354005365563174 2 -3 -1
114 2 7.151927286189419 1.9192265478767003 8.491098123150282 -6 1 1
319 1 7.01070710870182 0.46484097966345733 7.237912871629333 3 4 -1
33 2 6.2243931110669415 1.0126340542601455 5.778341131623958 -1 -3 1
31 1 5.618064008089854 1.2373589372348142 5.0463255884866 -1 -3 1
32 2 4.843234334023009 1.7958493562376923 5.445348180915832 -1 -3 1
86 2 8.01181115915996 4.2842917681409025 6.74905822281369 3 6 3
85 1 7.8907904799077775 3.798078842699334 5.912963103129794 3 6 3
87 2 8.752287813052284 3.347170137582145 5.874505027905878 3 6 3
422 2 8.876502030989005 0.1511011304118351 9.081309548419922 -2 3 -1
421 1 9.60857078530701 0.3520310588615416 8.432149642198526 -2 3 -1
429 2 10.877043322324884 4.038601450840414 5.010025963438615 0 -3 -3
201 2 11.520226204525795 1.9904147439968016 5.528393863983081 -1 -2 1
427 1 10.770356124687266 3.750158613427733 5.959764631973113 0 -3 -3
167 2 13.031515546772543 1.753149000030371 7.216838214810135 0 -1 -2
200 2 12.159105628194704 0.5792908833822894 5.228054125668745 -1 -2 1
199 1 12.321191336817197 1.4949445631866556 5.473621793720103 -1 -2 1
166 1 13.379340012588289 1.8140491925507007 8.088363958473163 0 -1 -2
168 2 12.86374213638065 1.185965041378808 8.6547765902221 0 -1 -2
19 1 15.422629247889523 1.2185151725570207 5.024237175056304 3 0 5
21 2 14.668676689572838 1.8626801671576652 5.11040795023935 3 0 5
182 2 14.932159345704168 0.9515485025149686 7.90358944485037 -2 -2 -2
181 1 15.818585123088257 0.6963372457176702 7.623223346331557 -2 -2 -2
183 2 15.923615372675105 1.2470055048479596 6.755455862397589 -2 -2 -2
434 2 14.067323056980069 3.1342028867514404 8.949706005163607 -2 -1 3
482 2 17.094054007477713 1.219256710465867 8.659328990836256 2 -3 3
401 2 14.987869188670029 4.183038217873791 5.3453645733376955 0 3 -3
400 1 14.188757585307558 3.630620916068165 5.336513257477753 0 3 -3
73 1 0.4899614741294762 8.558569601852174 7.107710105635395 2 0 4
470 2 2.6793036136662245 4.861796748387416 5.689571324574166 2 0 -2
329 2 2.1506942189768528 8.597484301492665 6.275717843808023 6 1 1
469 1 2.151547957926927 5.647805792511774 5.571516443278388 2 0 -2
471 2 1.2754526737767289 5.495368353591097 6.008578711283856 2 0 -2
328 1 2.9628941128446766 8.131013904394152 6.03635561871496 6 1 1
330 2 2.6620221747578277 7.178771487548788 5.97611453451485 6 1 1
80 2 3.876584139089134 8.032246499771453 7.524243492012803 1 -1 3
75 2 0.23046492341347646 7.63329752093673 7.132174666095537 2 0 4
81 2 4.292138931205755 7.763449150795671 8.931639282369902 1 -1 3
174 2 6.793985594053914 4.4829841426308 4.90511906395558 2 0 -1
79 1 4.572242208097945 8.242030355002653 8.17803874106665 1 -1 3
259 1 7.541644162760461 5.126820936303091 8.486414464658582 0 1 1
59 2 7.4327572235430175 6.953236636589491 8.24260437134137 3 4 2
60 2 6.338292943820723 7.979429392389108 7.751969811224634 3 4 2
58 1 7.290462354169246 7.877434404461916 8.063441688449158 3 4 2
426 2 8.300895955999446 6.947392488569492 4.8786666748089305 -1 -2 1
428 2 10.749529037503557 4.599655959118147 6.3616465804997295 0 -3 -3
295 1 13.31020701008406 5.4751444260762705 7.206417739470707 0 0 -2
56 2 10.056280129456086 5.684411020195959 8.35745689139463 -3 2 -2
83 2 11.359215504257609 7.796146396835309 8.2770831443272 4 -1 -2
57 2 11.357487700786061 5.842095697954765 7.715317123608114 -3 2 -2
425 2 9.27569459064594 6.680778960791785 6.062291196118015 -1 -2 1
424 1 9.112269409195688 6.505212719250314 5.167563567111314 -1 -2 1
55 1 10.461176634448906 6.2702505904572785 7.6656036125632925 -3 2 -2
82 1 12.103632056398052 8.278591235821894 8.709919309977309 4 -1 -2
171 2 14.901405232437902 6.847634174313478 5.029780190168703 0 -2 5
169 1 15.477461188777083 6.088921625050923 4.902366037837569 0 -2 5
524 2 15.316278811397243 7.529797428151541 8.816365114396433 -1 8 0
297 2 13.557271245803953 4.978590073787302 8.019106180041113 0 0 -2
296 2 13.571063833645098 4.879961154033174 6.450584062271781 0 0 -2
153 2 16.60402325041619 5.653012259084585 6.015519053134932 2 4 5
288 2 13.591981297490042 8.164464442046176 8.023536074900116 2 -1 1
287 2 14.128282425622594 7.00527429738698 7.281243960605607 2 -1 1
286 1 14.422952300724381 7.878668207316409 7.575287122739501 2 -1 1
151 1 17.427580796134368 5.556811891075658 6.529522971380118 2 4 5
152 2 17.229481204315473 5.17751605191665 7.407733142588912 2 4 5
315 2 4.0271257720044975 2.7473073726873305 12.21428178966862 -2 -2 1
64 1 0.8830394821666532 3.4828825388907863 10.277786228893016 -3 3 -4
6 2 2.2499344847228633 1.1628448716457005 12.684421678114475 1 -1 5
65 2 0.6534941827497582 3.664846902040806 11.222900079163264 -3 3 -4
136 1 0.9660825639237518 3.9466889872075486 12.908145859689977 5 2 6
66 2 1.7179300619266442 3.8909956113742283 10.074718599360157 -3 3 -4
483 2 0.35104652928524605 2.109262938863442 9.638201392701738 3 -3 3
481 1 0.13264394747801558 1.1800369703395213 9.356797954482012 3 -3 3
254 2 3.991557471320384 3.787673001525778 10.4758881858256 -1 -4 -1
253 1 3.3812972978396854 4.104466006325609 9.7855995453976 -1 -4 -1
5 2 2.0592047929680932 2.723244052273531 12.943981267043382 1 -1 5
4 1 2.701240574684081 1.9833105672497824 13.011723842341652 1 -1 5
138 2 0.1436152768384669 3.699112013691915 13.360961270109614 5 2 6
313 1 4.815896325597566 3.0458520738203227 11.695427327854151 -2 -2 1
449 2 7.396149084771486 0.1745195585457353 11.349877413731372 3 -1 0
314 2 5.37815873172017 3.567545778100654 12.275815099084374 -2 -2 1
177 2 5.484653934619291 1.3900839488715837 11.767169579255958 1 -2 1
479 2 8.397132191609554 1.8714646693710342 11.163336259343788 -1 0 -1
480 2 7.792672220345703 3.1231469257844564 11.880920364236015 -1 0 -1
113 2 7.432959455081044 2.7590299093792496 9.804032295255528 -6 1 1
478 1 8.382465757172172 2.849064677973336 11.159643268281055 -1 0 -1
175 1 5.7083758711547 0.4181652777180714 11.82770627824256 1 -2 1
448 1 8.319944738384924 0.18345632822677205 11.011074801462701 3 -1 0
226 1 6.9034775951974785 4.088011126621101 13.042382981146277 -1 1 2
176 2 4.848340892196758 -0.07595886330293695 11.858809448344696 1 -2 1
495 2 9.304040295869248 4.08984694087186 10.671204643570654 -1 0 -1
232 1 12.257008724578494 2.077927688291655 12.04843882643031 2 0 -1
527 2 12.105515313260577 0.7387707638584312 10.526251408070463 -4 0 -1
233 2 12.40096906169392 2.958436253982836 11.699778870890803 2 0 -1
526 1 11.890254270560167 0.2689346997525645 9.721851491204287 -4 0 -1
234 2 11.638479861342045 2.2375215306247838 12.802487256078562 2 0 -1
528 2 11.02664745198612 0.44837684451469434 9.299278946552707 -4 0 -1
435 2 15.287086065284095 4.210528704504367 9.18325384180029 -2 -1 3
432 2 16.03813189437887 0.7458524749801807 11.953710396001442 1 2 -1
251 2 13.88332557176614 1.7620295227987974 12.642095338994466 -1 1 0
431 2 16.99830205886225 0.6924787605670994 10.602134373005994 1 2 -1
250 1 14.786135395911279 1.4353123369316254 12.980336733627205 -1 1 0
252 2 15.296820014135454 2.2141909746601733 13.250781452386013 -1 1 0
430 1 16.600962728498434 0.2091387525081227 11.380365974801398 1 2 -1
433 1 14.282005938377877 4.054330199418563 9.137997678490942 -2 -1 3
279 2 2.0702819365829077 7.197571376400114 9.856725641683886 -2 3 1
207 2 3.596642046928199 7.1812861490104964 11.40461742691461 -5 3 -3
277 1 3.0465586264727174 6.81981431978801 9.95506815396901 -2 3 1
278 2 3.075845632139918 5.8621469172785305 9.813594840918853 -2 3 1
205 1 3.9060410024456815 7.648281565470756 12.250373346127356 -5 3 -3
137 2 1.2880291491846032 4.826278465986747 13.278403426426282 5 2 6
142 1 0.6603962480040577 8.00251582090188 9.831202258658609 1 2 2
144 2 0.9570617103140535 8.620211932700359 9.135109187573734 1 2 2
474 2 2.8370598611256335 6.920566009737648 13.44620663530736 -1 0 0
206 2 4.909995038630152 7.383221513874382 12.275640951612278 -5 3 -3
554 2 7.047276905993991 7.403139616419852 11.682313150771307 -1 2 0
227 2 6.791678447050652 4.98105479656221 12.65836611236765 -1 1 2
553 1 6.4423397359993615 7.079174819022642 12.429304484439305 -1 2 0
186 2 7.868873732586304 8.41988257423102 9.907428211607042 2 0 2
184 1 8.111185900381008 8.39674759035692 10.82438404828698 2 0 2
260 2 8.205197861483407 5.015236730547577 9.182800611070228 0 1 1
555 2 6.825747861080442 7.551014397066264 13.215864432204228 -1 2 0
397 1 12.695917346181727 4.683260060439928 11.14592292742667 4 4 0
195 2 9.682218608926286 7.689937640872885 11.564061352554297 3 0 1
193 1 10.221824413694124 6.940693214042088 11.992639518750495 3 0 1
399 2 11.971684546286536 4.989368246451852 10.6025838412402 4 4 0
493 1 9.62441413011697 4.920828938914385 10.261564710727315 -1 0 -1
494 2 9.666476656008102 5.591953687650175 10.938063215402353 -1 0 -1
194 2 10.799934527851898 7.453261405328278 12.615841606220162 3 0 1
221 2 12.992741329403584 5.688261008536885 12.70300485017931 2 5 -3
542 2 12.940038271709529 8.124611194206313 10.349151571183967 -5 -4 0
220 1 13.29069956163094 6.439107656589041 13.28373985441701 2 5 -3
335 2 9.971969701606689 5.787294642551429 13.435735218638174 -2 4 -1
26 2 16.23040072771097 5.753332285580331 9.362712288740093 0 0 -2
25 1 16.675508239545916 4.90657714937527 9.121192345944742 0 0 -2
143 2 17.454471091647587 7.647597298953312 9.58375094509126 0 2 2
398 2 13.404886042990338 4.596630134461223 10.45279215524825 4 4 0
222 2 13.412545528657619 7.067025505878797 12.565077620042329 2 5 -3
541 1 13.605419838288404 8.162316330748352 11.02021894184274 -5 -4 0
525 2 15.123537411071643 7.448455440076665 10.333540189420056 -1 8 0
27 2 17.272901963857432 4.572104753272643 9.786568039480892 0 0 -2
523 1 15.733919383249335 7.197253425095426 9.6457438958322 -1 8 0
487 1 3.8091521171113594 1.184471717793839 17.816068429774457 0 4 0
78 2 3.44655355945121 2.1876618746505585 14.613358691130237 -6 4 -1
339 2 0.4536224655809005 2.8908179821723414 16.781808151652548 1 1 -3
516 2 0.8157254447090956 0.661704879481684 16.20456860701824 -1 -1 0
351 2 4.065701174861992 4.031829415459822 15.280884138069952 1 5 -3
76 1 4.116029665174657 2.266845172188043 15.329670819132039 -6 4 -1
488 2 3.653235785837797 1.4962994421919458 16.89022479927068 0 4 0
141 2 5.859693878023486 0.22468671484462055 13.82149448452157 -1 1 -2
92 2 8.515238232007041 0.46065282318253825 16.339030387102934 0 2 1
139 1 5.955266713318794 0.24236420089924227 14.79285106062472 -1 1 -2
77 2 4.7917365494913815 1.5761371097470909 15.097972073045504 -6 4 -1
93 2 7.490516593693044 0.5749191685629174 15.131755955592915 0 2 1
91 1 8.411544881747394 0.7583142085231722 15.431369240410477 0 2 1
228 2 7.336673693650432 4.2420669364741315 13.895445216093263 -1 1 2
414 2 9.465040394298416 2.123718608819864 14.667340567873214 -1 -4 -1
412 1 10.319721469380507 2.451932511435743 14.300379898481497 -1 -4 -1
413 2 10.368918475283312 3.397886699167022 14.188311682642812 -1 -4 -1
418 1 11.84574669827132 1.8907848485196577 16.59392379297146 1 3 1
420 2 11.235919425133122 2.1734671303241346 15.869497923789314 1 3 1
419 2 12.58958765577679 1.3472213622094995 16.17931721548443 1 3 1
456 2 12.899318251691197 3.0040508634521035 17.40638673579392 5 2 -4
256 1 13.641735007886234 0.39772692856544184 15.288904978564394 -2 -2 3
337 1 17.606356164240207 2.0782140142942667 16.651098527796567 0 1 -3
380 2 15.843217738359748 4.105265285743001 14.34154685208412 -1 2 -2
338 2 16.855641707831772 2.0903297953037083 17.256471713245013 0 1 -3
381 2 16.516388910298964 2.8215487535785715 15.087349793140943 -1 2 -2
379 1 16.26157114911147 3.24947850665417 14.210688842247702 -1 2 -2
258 2 14.111462354979524 0.7970909134145181 14.50250496249726 -2 -2 3
54 2 1.6932711004931575 7.596663592358989 17.70958743855482 -2 -2 0
208 1 3.145272205757917 8.71075157875606 17.770421376780412 1 2 1
464 2 0.5262356183770778 7.065664873275119 14.452623212132005 2 1 1
94 1 1.7259133438953913 4.425442249322953 17.344989510479547 2 0 4
96 2 2.5070774592240217 4.39607998242659 16.70176048396193 2 0 4
472 1 2.132129223051026 6.320866224102489 13.891457467555226 -1 0 0
473 2 2.8094973193533397 5.710571012400775 14.406915595944815 -1 0 0
349 1 3.705992356764088 4.9279366935521285 15.493937102177734 1 5 -3
350 2 4.382692767990045 5.632437645894189 15.46789878753875 1 5 -3
95 2 1.5623294173780606 5.395533489296492 17.474205099788232 2 0 4
465 2 0.16406517566450762 7.421554121140017 15.835402428269456 2 1 1
357 2 5.608561330783803 7.0958296460390144 17.476104506084308 0 1 3
3 2 7.809842454305605 4.615922540385554 16.691397102341643 3 0 3
1 1 7.778964223652742 4.782958838727686 15.743784059266673 3 0 3
2 2 8.727254883420386 4.970186928877506 15.52700692696613 3 0 3
122 2 8.050215512317966 8.461012747392 15.294205130108598 0 -3 -1
121 1 7.247482668081664 8.487359022629963 14.62257966874094 0 -3 -1
453 2 6.23832426223717 7.278119817232079 15.319010895841522 -1 1 1
452 2 6.689126990711438 5.845895354956202 15.536135791781886 -1 1 1
451 1 5.9368746923318705 6.462955647574899 15.780544993837777 -1 1 1
241 1 11.412241762263793 8.310138243615086 14.217143197188026 0 -1 1
238 1 9.436651700764333 8.518737975824427 16.155888657824008 -2 -4 0
242 2 11.93038087160783 7.510378778173392 14.398516476830872 0 -1 1
334 1 10.017558944845169 5.278050097550449 14.247562181753064 -2 4 -1
240 2 9.403472272073591 7.842050380295406 16.86109807723667 -2 -4 0
391 1 11.510869412101863 5.964292299369229 16.28208613602735 2 2 -4
336 2 10.723833076749612 5.539692878713422 14.846385745503353 -2 4 -1
393 2 12.356579062746865 5.88201767378749 16.710256087768897 2 2 -4
392 2 10.761108603320679 5.8725427131352355 16.958570998194762 2 2 -4
243 2 10.723590066587438 8.277389664475555 14.92506532976633 0 -1 1
463 1 17.48971364031724 7.408893251020764 14.978378470490304 1 1 1
530 2 14.514100466793321 5.541612648063092 16.026517822147706 3 -6 -1
219 2 15.197869571239735 6.6561167911342345 17.752438543883198 -1 3 -1
72 2 14.524516631796743 6.0396572803187745 13.965785137054352 1 -1 0
70 1 15.297554140441704 5.644362638400399 14.467275861687982 1 -1 0
71 2 15.904078922526514 6.420474039309894 14.642193693432183 1 -1 0
529 1 14.3740920738798 5.675184906669467 17.002914547300964 3 -6 -1
531 2 14.138564062351756 4.81331612380092 17.366163471350944 3 -6 -1
270 2 2.668246156621 10.59414119739736 2.3410716547363246 -3 1 6
268 1 1.7842253708828357 10.383390710882313 1.8957056737081326 -3 1 6
50 2 0.25971576473067837 11.111858939980557 1.2303485136492294 4 1 -1
134 2 1.2137164466522268 9.221959415419665 3.166267128835045 1 -3 0
269 2 2.0869826507609908 9.693646899794468 1.2582195967510459 -3 1 6
45 2 4.099954001288969 11.848597810029922 3.0741608856186144 0 0 -1
43 1 4.178703391097448 10.966574304843618 2.633775829635206 0 0 -1
383 2 0.973029252091701 12.746315060489303 1.8011405510622729 -1 3 -3
236 2 0.7693712114472535 12.727628720447894 4.0671655921727075 1 -1 0
311 2 6.582229144132069 11.173507727713439 0.34398555984349516 3 2 5
302 2 4.740907363364539 9.852625312814569 4.111164109201622 2 -3 1
44 2 4.6858221958053585 11.110805829102254 1.8565953800320227 0 0 -1
266 2 8.1330090859735 11.464722212630889 2.2122151416332265 -3 1 -3
265 1 7.997173770421017 11.254839786359407 1.2643393919868258 -3 1 -3
15 2 8.161576306550826 11.673388377360016 4.3953052386556335 4 7 -1
13 1 8.687082689193595 12.074044469935378 3.6515825798643813 4 7 -1
267 2 8.741416219368395 11.22011842547627 0.5887181885839193 -3 1 -3
120 2 8.055323817240897 9.442023352974427 1.703437707415129 0 2 0
38 2 12.757565447453546 10.07608313148072 1.107681270599178 1 -1 -1
14 2 9.660600641422203 11.848913098330685 3.6769516463416623 4 7 -1
39 2 11.680371641336484 10.889465654962981 1.992651183166312 1 -1 -1
37 1 11.793628036398442 10.201651760842106 1.300512169980537 1 -1 -1
502 1 11.29498369803445 12.110569679586966 2.9929595125125164 3 2 3
504 2 12.062030142868068 11.917073762910702 3.5687874360054987 3 2 3
503 2 11.442896281567608 12.981139345100802 2.686811811715749 3 2 3
389 2 10.342526124607108 8.793510983044216 3.8551458321691947 3 1 2
388 1 10.266653665969642 9.600715292940006 4.440639422500297 3 1 2
49 1 17.70587924582197 11.963146122976704 0.8225801970844099 3 1 -1
509 2 14.9046479409476 10.625468839688967 1.6697012269084577 -3 1 2
508 1 14.552592306825074 9.897832247052062 1.0859402916719907 -3 1 2
417 2 14.817364829152567 8.849614539749659 4.00032277650102 0 2 3
215 2 16.9178748232607 9.196148219566311 3.5390778065465613 3 2 -2
16 1 15.308753590038657 12.494963016511067 1.980313323718936 -2 3 3
18 2 15.454875098459148 12.703745133671449 2.9447024786613936 -2 3 3
51 2 16.765869569558763 12.232981238114661 1.1684713240298488 3 1 -1
214 1 16.22920483312694 9.90103622931745 3.408255866336441 3 2 -2
216 2 16.235149071410365 10.4767514451018 4.222206363593379 3 2 -2
510 2 15.038522205344988 9.103977752497212 1.1458363887575278 -3 1 2
244 1 3.8466499868374653 13.282896715067007 3.8563996511702205 2 -3 2
245 2 2.9156383203472194 13.478217684803251 3.4747558731569876 2 -3 2
382 1 1.363757659922176 13.413663118034268 2.4497115033294046 -1 3 -3
490 1 0.6207768828185065 15.92426471004159 1.653553647181804 -1 -2 -2
491 2 0.9720693966585496 16.48088568210887 2.393934072697343 -1 -2 -2
156 2 2.4467520990061096 17.38268727488365 3.7876875729998662 1 0 1
154 1 1.4824995376793222 17.407474629132917 3.6910278786242974 1 0 1
384 2 1.0132763057326748 14.298456168054496 2.1920009813003976 -1 3 -3
492 2 1.3299174732090753 15.977530691675149 1.012943319009327 -1 -2 -2
573 2 4.4645087624995625 16.419725407389723 3.6965079153685116 -2 -1 1
571 1 4.089700693487282 17.295407812383193 3.751995040465661 -2 -1 1
476 2 3.0675365166519577 17.114812330582158 0.42966695976693464 1 -2 -1
348 2 4.998646658386941 14.483121930787426 2.99772180261069 5 1 3
347 2 6.482820418864904 14.73289672832016 2.501727526647825 5 1 3
346 1 5.539702786260337 14.95577892583975 2.360580140308362 5 1 3
497 2 5.769314424018093 16.523522448504266 1.346902306337997 -2 -5 1
442 1 8.201425249166348 14.31907967382792 2.475535347919823 -1 -1 3
69 2 8.241167270812054 17.281737251680976 3.5055520543721013 -2 -4 -1
443 2 8.47955451295465 13.488554746983565 2.980953832173464 -1 -1 3
68 2 8.499863645159317 15.704340769114582 3.412949793933918 -2 -4 -1
67 1 8.782474296130548 16.52927002843012 3.911535791125114 -2 -4 -1
444 2 8.649266720437769 14.347925668282052 1.631467827499157 -1 -1 3
496 1 6.100474793906191 17.367985678524953 0.9883930119918235 -2 -5 1
104 2 5.844939149818658 14.38233465135217 0.5925236056852682 2 -2 4
48 2 10.476485909832347 17.104377137178677 3.6646699254083375 -6 -1 -4
291 2 11.49386780185304 15.589284172839024 2.388695164773052 0 -1 4
289 1 11.661503098360852 14.738147695976908 1.918780719650561 0 -1 4
521 2 10.567330839867996 14.39975136043541 0.7335282317601326 -3 -2 -1
290 2 12.553277173677337 14.746397148543474 1.4872790859814167 0 -1 4
46 1 11.384217955810877 17.22665092416677 3.3353133391739864 -6 -1 -4
116 2 13.206693564676849 17.212460840129328 3.3791302265289223 -3 -3 3
17 2 14.759401228339907 13.274186167414458 1.601410260853239 -2 3 3
535 1 15.678835386790768 16.466538291341625 1.374372244410057 -1 -3 -2
536 2 16.63358169491018 16.474070544043222 1.5556950558805775 -1 -3 -2
537 2 15.218496081830855 16.694517528012142 2.2018379190522674 -1 -3 -2
559 1 14.037525229617682 14.443555996525728 0.7535479675394193 -6 0 4
115 1 14.119861357039671 16.95468582132243 3.605758190000619 -3 -3 3
117 2 14.06930580155014 16.14281545204304 4.097108540230924 -3 -3 3
561 2 14.606793019684401 15.236099824397733 0.8473908007002753 -6 0 4
303 2 4.387234147370156 9.056477451497216 5.321427860445716 2 -3 1
549 2 3.0781950000972524 10.754202910876888 8.972202971211622 1 1 -4
235 1 0.46411138863363555 12.664066368562176 4.9971774165424385 1 -1 0
107 2 2.8853876149058957 11.707233807332802 6.338319867850726 -3 -7 -1
106 1 2.4565865409373924 10.883677020838544 6.123339056662608 -3 -7 -1
108 2 1.728511096660992 11.226545373632078 5.63339843973145 -3 -7 -1
548 2 1.8304456918401277 10.68424096321057 8.085448400682008 1 1 -4
547 1 2.0930884490944677 10.788856882725584 9.022180774206246 1 1 -4
301 1 5.1383005214116535 9.422907051883138 4.8431453075230735 2 -3 1
157 1 4.891545430616397 10.962211641819007 8.752857621575611 -3 1 -2
299 2 6.544498011396227 10.276299080549533 5.324315429266805 1 4 -2
298 1 7.266418998190764 10.877538373978773 5.587511567411875 1 4 -2
300 2 7.925362493206539 10.31175673170834 6.055430249770394 1 4 -2
159 2 5.449655311335715 11.627696079069414 8.251981151040527 -3 1 -2
468 2 6.603185963977497 12.09120977704719 6.4791943925182816 -1 -1 -2
466 1 6.217162245215487 12.83737134498492 6.943530992668262 -1 -1 -2
158 2 5.112347167788421 10.129717014770378 8.323949612665276 -3 1 -2
323 2 8.309876333151337 8.841623970415501 7.30921533538914 -5 -1 -1
322 1 8.978910856170868 9.34284954526943 6.816249832056729 -5 -1 -1
506 2 13.041029254829043 9.760510932738784 5.075028018985916 -2 -3 4
84 2 11.804371069403484 9.174996614538847 8.593372771888323 4 -1 -2
505 1 12.406570399146908 10.42953008872029 5.283655211332327 -2 -3 4
324 2 9.575557314935129 9.818258437580594 7.4621735136175715 -5 -1 -1
405 2 11.536623879892433 11.294286338083724 7.980243281730619 -2 -3 -3
403 1 10.848223986632354 10.695877271745111 8.425782099124712 -2 -3 -3
436 1 12.675600502486516 12.062736669305425 7.255170876543134 5 2 -1
437 2 12.709643945412383 11.62787548961061 6.339118887066942 5 2 -1
507 2 11.523155695066613 10.008369437764042 5.070601902771133 -2 -3 4
390 2 9.59263788222857 9.30334498810421 5.143814766273155 3 1 2
438 2 12.284092423969048 12.949249169639364 7.0999761493266815 5 2 -1
160 1 15.401449226782026 12.794379458348041 4.812609379721291 -2 2 -1
162 2 16.32896563024863 12.806165220614178 5.045257256664401 -2 2 -1
74 2 17.37809968341369 9.084962107240228 6.807485542802839 1 0 4
231 2 15.75149076568342 10.806481260666859 6.865753838678242 2 0 -5
229 1 16.097146570678166 9.980202295672477 6.408142253063629 2 0 -5
203 2 14.246258796827544 12.096510200868355 7.792629505777289 -2 -1 -1
230 2 15.36702984474829 9.279992178148435 6.51982039142555 2 0 -5
202 1 15.125893082988952 11.748634513556905 8.075960345355584 -2 -1 -1
204 2 15.713095636342302 12.447801305596595 8.522894404853993 -2 -1 -1
246 2 3.840726706384025 13.230816247930944 4.859289818964794 2 -3 2
445 1 3.7499285520943864 13.29654713842364 6.448680794812681 2 -1 -1
237 2 0.4261400156503258 13.632849933997951 5.229399348753011 1 -1 0
360 2 2.3627562783667746 14.87362601246987 8.615327774335777 0 0 1
359 2 2.336281603289364 16.31113699296706 8.19211076966728 0 0 1
365 2 0.9586788165304543 15.90297442977656 4.7718898224253765 2 -1 3
364 1 0.7512149284769629 15.272763562718382 5.498812682455497 2 -1 3
366 2 1.2835439225274408 15.581565973736883 6.275426145766474 2 -1 3
358 1 2.4512464820071016 15.404407638732815 7.853704810527668 0 0 1
446 2 3.222990993679486 13.986724355563716 6.873543011587731 2 -1 -1
321 2 6.601333702430056 17.526855991412443 7.8806997677528585 3 3 -1
22 1 5.71870323191191 16.735059952601915 9.066534661950476 0 2 -3
23 2 4.863051458383576 16.866913773427616 8.678369517233563 0 2 -3
447 2 4.675994292299528 13.29163218945823 6.786544820721701 2 -1 -1
467 2 6.880057280310647 13.226880940234373 7.549297089239876 -1 -1 -2
550 1 7.840641547654942 14.741550858404409 8.22556654434516 3 -4 -4
551 2 7.211775636152156 15.386250078343334 8.52707715758679 3 -4 -4
36 2 8.824107701356827 15.617674121819846 7.075746400181903 -1 3 -4
552 2 8.466485061085345 14.561617125363437 8.904692838602369 3 -4 -4
306 2 13.317900714016746 15.025555614672676 6.214106794406481 -2 -2 -1
35 2 9.508268350244169 16.14888810401773 5.673353622067334 -1 3 -4
517 1 12.0345858844969 14.697789574235225 7.108429478163613 2 -5 -2
519 2 11.26589076938764 15.162769710536562 6.6992051672328685 2 -5 -2