LAMMPS data file via write_data, version 3 Mar 2020, timestep = 0

2016 atoms
2 atom types

0.0000000000000000e+00 1.7917635470672625e+01 xlo xhi
-1.1759291590156629e+00 4.6172089135933817e+01 ylo yhi
0.0000000000000000e+00 1.9055957862886117e+01 zlo zhi
4.2129783713819396e-02 -6.6418016813789187e+00 -2.1466743059598059e-02 xy xz yz

Masses

1 16
2 2

Atoms # atomic

579 2 2.0917917474992622e+00 8.0443941724527956e+00 1.7279923016022902e+01 0 0 0
223 1 4.9605171928101974e+00 6.1800283807846617e+00 1.9247875982365210e+00 -2 0 -1
995 2 7.1806683189920930e+00 2.7027842152630246e+00 8.3297754401544868e+00 3 0 1
654 2 1.6465361560507485e+01 9.8632344075103369e+00 2.7084542946952896e+00 -2 0 0
394 1 -1.1894047813197854e+00 8.2159171938759030e+00 1.8430965878632495e+01 -3 0 -4
578 2 2.8461056899567003e+00 7.3575662313088621e+00 1.8290683439144424e+01 0 0 0
929 2 1.4151612991212776e+01 4.7490936931407282e+00 5.9499860976998837e+00 0 0 0
713 2 -3.6526390785200169e-01 -7.6755709215943213e-01 1.1728271646530782e+01 0 0 3
763 1 1.1401322888208259e+01 1.0015627981940483e+01 1.2198192663006317e+01 -4 0 -3
302 2 1.1735617674546589e+01 4.8582151880094946e+00 2.6582757269838395e+00 0 0 0
299 2 1.0524399373114598e+01 6.8799845105214930e-01 1.5676102306294045e+01 -3 0 -2
962 2 1.8560503173323699e+00 7.9803060513355883e-01 1.2628620833185552e+01 -3 0 -1
561 2 9.1296512910648335e+00 -7.6712919025081527e-01 6.6530825877690143e+00 -2 0 1
406 1 3.0881469370724708e+00 4.4451280779282367e+00 5.7284161946847538e+00 -2 0 -2
184 1 -1.2045040222678924e+00 -7.1448147620645219e-02 1.7964301786314188e+01 -4 0 -7
596 2 -6.1618915124078821e-01 5.9820586925309263e+00 9.0877841492025926e+00 3 0 -2
231 2 1.6534964966288177e+00 -3.7520697749534260e-01 6.4586957397667675e+00 0 0 -2
761 2 8.6768004865380277e-01 -5.2464101424080289e-01 1.7913156215208932e+01 -3 0 1
881 2 1.0472649025492213e+01 2.7221840969558402e+00 7.6866474024779050e+00 -3 0 2
319 1 -4.5304905317933146e+00 8.2772876570875820e-01 1.4084679472644012e+01 -3 0 -3
705 2 -3.0842492738971128e+00 8.5349258786276341e+00 1.2889405087920801e+01 -2 0 -1
951 2 -3.7526569939428316e+00 6.0504021860615387e-01 1.7237626360107818e+01 -1 0 1
609 2 -8.8238540728466308e-01 1.3058887362495271e+00 1.8864954088765863e+01 -3 0 -1
1583 2 8.6049692709227497e+00 5.7600539143328948e+00 1.6640287962274293e+01 -1 1 1
122 2 7.6642920003197927e+00 6.9129643411866137e+00 1.8283666816142777e+01 -2 0 -1
295 1 1.3532667785851007e+00 8.0787064024895816e+00 4.2126274226183344e+00 2 0 3
407 2 3.2778605153306866e+00 5.3213946661065821e+00 6.1157122834067117e+00 -2 0 -2
345 2 -5.3029359297359813e+00 -8.6253590807157998e-01 1.6283047573414613e+01 -1 0 1
972 2 -4.3003462818126581e-01 6.2255649558177977e+00 1.9361694039977413e+00 0 0 1
186 2 -1.1962706519347108e+00 -1.8113441559743604e-01 1.7006290719411922e+01 -4 0 -6
244 1 5.9240938927732838e+00 6.1435200845175908e+00 1.4540070576866009e+01 -4 0 -4
714 2 -7.5206363410489585e-01 4.3844088881793897e-01 1.0872463419327840e+01 0 0 3
852 2 1.4920556421575842e+01 9.0487303244312240e+00 8.5758983012870189e+00 0 0 1
977 2 5.2201449323888882e+00 8.2506162027114183e-01 1.7067344672610151e+01 -3 0 -1
843 2 -9.6381082228428472e-01 -2.0561990439699540e-01 1.4833311403118678e+01 -5 0 -5
301 1 1.0783112443057899e+01 4.6736613135811886e+00 2.6708289314690727e+00 0 0 0
161 2 -1.8847846177640277e+00 6.4030875609931890e+00 1.0573902852724263e+01 1 0 -5
762 2 2.3590088221700425e+00 -9.6602163109465211e-01 1.8118629202441792e+01 -3 0 1
560 2 7.7110045495159056e+00 -9.2859978957443134e-01 7.0605469345035763e+00 -2 0 1
872 2 6.4641877309204272e+00 -8.7893606968023863e-01 5.2363567016938131e+00 -2 0 -1
524 2 2.7209814746394283e+00 7.4546531742596791e+00 1.4633861440553266e+01 -2 0 -4
585 2 -2.9709477031578793e+00 4.6963962030412301e+00 1.2143204103772122e+01 -4 0 -4
523 1 1.8097355205572843e+00 7.5996990879281601e+00 1.4421385730914231e+01 -2 0 -4
658 1 9.2916042353899151e+00 3.3562903026753155e+00 1.4458191090504146e+01 -1 0 -2
206 2 3.1437735087926182e+00 1.9788836936918228e+00 1.1490893742389069e+01 3 0 0
96 2 -9.0651821561975621e-01 5.5519552261709579e+00 6.9143827758017187e+00 -1 0 -1
441 2 2.1373461204131150e-01 4.1069226755542720e+00 1.7133863078865151e+01 -2 0 -1
151 1 7.0649961858774413e+00 2.1931492234260745e+00 2.5609086129972294e+00 3 0 0
781 1 8.3739776404231314e-01 5.0093815629259710e+00 4.4332169410015654e+00 -2 0 -2
880 1 1.1266436363526960e+01 2.8491810898972201e+00 7.1242698879934148e+00 -3 0 2
626 2 2.8520571013888647e+00 4.6425750847324423e+00 1.6055941023350577e+01 0 0 -1
667 1 7.2813493942557255e+00 1.0027135594086875e+01 1.5524150485057767e+01 -3 0 -3
703 1 -2.5493901292174530e+00 7.8179293094732873e+00 1.3376065999027647e+01 -2 0 -1
382 1 1.5823527993528902e+01 6.0015078271819426e+00 1.7931937709920081e+00 -2 0 1
457 1 -2.1203537613171319e-01 -9.8618143772983546e-01 2.9959142512375760e+00 -2 0 -2
712 1 -1.0426646098783028e+00 -1.2266561638330398e-02 1.1697104700134691e+01 0 0 3
54 2 1.1315785921427995e+01 4.0698057345851613e-01 4.2069183123261650e-01 2 0 0
844 1 7.6397291503140972e+00 4.0024421452948955e-01 1.2246597364485536e+01 1 0 1
689 2 2.3782812182195010e+00 3.0842889252247669e+00 8.3870980687368295e+00 -2 0 0
336 2 8.5590529351568758e+00 7.9063519963971949e+00 7.5960534014648564e+00 -2 0 -2
1994 2 6.5160948781381545e-01 7.6476372503673993e+00 6.8755860802737412e-01 -2 0 -2
652 1 1.5931889950116711e+01 9.0420682227498137e+00 3.0104197044404595e+00 -2 0 0
52 1 4.8503182184694378e+00 1.1847759461811762e+00 1.8917216934358041e+01 2 0 -1
356 2 1.3077824818528487e+00 6.2195115287308518e+00 1.7374808585055241e+01 -4 0 -3
477 2 9.8102457761159112e+00 1.5514405507978317e+00 9.9666485046128397e+00 -1 0 2
500 2 -1.0747785400032059e+00 8.7000403860827280e-01 1.3054190998873507e+01 1 0 0
921 2 1.1169797468704880e+01 -3.8136529354572513e-01 8.2812231822263147e+00 0 0 -2
924 2 1.9019724580605804e+00 1.0317208722362269e+01 1.6444807181750136e+01 -3 0 -3
789 2 3.0135891833327451e+00 8.1154140417987914e+00 3.5185925044208450e+00 -2 0 0
810 2 5.4220003740684390e+00 5.9476572966872743e+00 6.7745309294476552e+00 -4 0 -1
930 2 1.5632737586367968e+01 4.3749120401865254e+00 6.2080914637845748e+00 0 0 0
702 2 3.5124654365934695e+00 5.7165659274698699e-01 1.4079477322626092e+01 -3 0 -3
501 2 -6.5169826011719678e-01 2.0172976097117381e+00 1.3950246910025781e+01 1 0 0
625 1 2.4232323253354275e+00 4.2537526659257408e+00 1.5284789689763549e+01 0 0 -1
252 2 -2.8546197060159439e-01 1.0048962509710826e+01 1.3351921963375998e+01 -3 0 1
101 2 5.9540585436955427e+00 5.0288054934962085e+00 9.2336195547368369e+00 -1 0 -1
384 2 1.5624201044966995e+01 6.3168765060915852e+00 8.9940572009410102e-01 -2 0 1
245 2 5.2152073194185418e+00 5.6602249187687734e+00 1.4066774095984869e+01 -4 0 -4
622 1 3.9005736649382272e+00 2.8095026410824606e+00 1.6116157096487997e+00 -2 0 -1
624 2 4.6486550675792584e+00 2.7639738956740096e+00 9.4507892139570704e-01 -2 0 -1
179 2 1.2369851604533942e+01 5.2985682415683204e+00 8.7343612121970216e-01 -3 0 0
776 2 1.0692816778887440e+01 5.1389008044202011e-01 2.2039542380377619e+00 -2 0 2
549 2 4.9542428614985576e+00 1.0496853880043560e+01 1.1894719416386364e+01 -3 0 -4
85 1 1.0763633263355421e+01 1.8288835610004783e-01 1.8803856688215724e+01 1 0 -3
275 2 9.1881232940849067e+00 -3.9994458441802361e-01 1.8985548771546188e+01 2 0 -1
600 2 1.1574727152345154e-01 1.8571021044228391e+00 9.2475094883845230e+00 -3 0 1
49 1 -3.0120185139161029e+00 2.2297227009315677e+00 1.0238828874641033e+01 0 0 0
183 2 1.3363931969784488e+01 6.9237438754269984e+00 5.7674108533665462e+00 -1 0 0
645 2 -2.7347172724762729e+00 -9.5749435871466759e-01 8.9598229368859794e+00 -3 0 -3
619 1 1.0208294757117713e+01 9.3474336421721844e+00 1.7370014519403540e+01 -4 0 -1
736 1 1.3048345363087856e+01 1.0615979872429673e+01 6.1116390113121799e+00 -1 0 1
671 2 -4.8367351138443215e-01 1.2676827621074027e-01 7.9478794533534627e+00 -3 0 -1
135 2 2.7291341416616968e+00 6.9785749204528909e+00 1.1002769687502301e+01 1 0 -1
778 1 8.6090801298025106e+00 5.3488980194744773e+00 4.4799276738144362e+00 1 0 0
949 1 -4.3880264717293676e+00 -9.6801360374576539e-02 1.7608692985202531e+01 -1 0 1
598 1 -6.2112870965409961e-01 1.2395564103843166e+00 9.4288099487253163e+00 -3 0 1
120 2 4.6030003855089348e+00 3.4414652745590448e+00 2.9874792413855937e+00 -2 0 -2
745 1 9.3514506465246239e+00 7.8847245937958199e+00 1.5266606626664107e+01 -3 0 0
640 1 -4.6465846757678708e+00 4.7077219072730943e+00 1.4570739824302423e+01 4 0 -1
753 2 8.5274826645568105e+00 6.5812162671202588e+00 1.3672336560148395e+01 -1 0 2
527 2 5.0957059380477325e+00 1.0322863667589273e+00 4.8951379704619349e+00 -2 0 0
119 2 4.1574489847435769e+00 4.2272919753751941e+00 4.3438338736139501e+00 -2 0 -2
525 2 1.1599671749780613e+00 7.3632942729441080e+00 1.5127072026919963e+01 -2 0 -4
495 2 5.6902566737015103e-01 7.1361044690652733e+00 1.3019990756108069e+01 -3 0 -2
971 2 7.1009685788399712e-01 6.8148327401972857e+00 2.8640481208880084e+00 0 0 1
130 1 -5.0446524373260875e+00 1.0575278120358233e+01 1.5292754091297397e+01 0 0 0
212 2 9.9031258791338921e+00 5.1554199540788304e+00 5.3866743240297792e+00 -5 0 -2
701 2 4.8621399478264511e+00 1.0172625320932487e+00 1.4674803705926271e+01 -3 0 -3
5 2 4.5467943232764600e+00 7.8258381824887397e+00 6.5762621935735135e+00 1 0 0
470 2 2.9068413347379962e-01 2.5231056854992429e+00 1.5810282233377981e+00 -6 0 -2
471 2 1.7414131528597036e+01 1.5697593564642260e+00 6.7327358134412385e-01 -6 0 -2
230 2 2.9841136431589654e+00 2.7432377292907151e-01 6.0917612403989416e+00 0 0 -2
131 2 -4.9151252697896375e+00 9.5961339517997573e+00 1.5197297786031266e+01 0 0 0
46 1 9.9495469979445197e+00 6.8638938286547511e+00 7.9859644785753616e+00 -3 0 0
992 2 1.4818365521973934e+01 6.0930246396920973e-01 7.2447445666024697e+00 1 0 1
229 1 2.5179591714143945e+00 -5.9473475632926553e-01 6.1668267119272064e+00 0 0 -2
627 2 2.4875875205466373e+00 3.2834041502062616e+00 1.5410326911139281e+01 0 0 -1
111 2 1.8125187354279877e+00 1.5484359424720586e+00 1.8557586010734276e+01 1 0 -4
869 2 9.4302435511652742e+00 4.9913747693387132e+00 1.0505944330110284e+01 1 0 0
16 1 6.0971208642059027e+00 3.7336383136992390e+00 1.6233975027388414e+01 0 0 1
178 1 1.2034850427669779e+01 5.6928366480922001e+00 8.9013518548967552e-02 -3 0 0
974 2 8.8834624871494210e+00 2.1384998202462984e+00 1.7156177953806406e+01 -4 0 -2
118 1 4.9164861803681763e+00 4.0309631728376969e+00 3.7643133570267269e+00 -2 0 -2
846 2 6.7995228728629966e+00 -1.2464185078458390e-01 1.2241824229310241e+01 1 0 1
623 2 3.2426890082937088e+00 3.5547497398312382e+00 1.3802498488498698e+00 -2 0 -1
1668 2 1.0219191244608041e+01 2.9982184491782915e+00 1.4243089900645369e+01 -1 1 -2
672 2 -1.7894463338818500e-01 6.0697730168160979e-01 6.5593329713003472e+00 -3 0 -1
643 1 1.4626717200961426e+01 -2.6418106980461764e-01 8.5688101673425141e+00 -4 0 -3
83 2 1.1827280302767520e+01 8.4880490678530691e+00 9.0821698577290189e+00 -1 0 -3
239 2 6.9138644363446238e+00 1.8056071470380526e+00 1.3407660571750462e+01 0 0 0
716 2 7.9743234581361255e+00 3.9932163099660967e+00 2.1586744214144202e+00 1 0 2
717 2 9.2200834936299430e+00 4.6896990563631480e+00 1.4969406509236656e+00 1 0 2
240 2 7.7169652335919379e+00 2.8544019101031157e+00 1.4128875438506244e+01 0 0 0
904 1 9.8629252330075445e+00 7.5677929540613569e+00 1.0500002865866425e+00 -3 0 2
17 2 6.0516511403455331e+00 3.2553560606530905e+00 1.5365217004915836e+01 0 0 1
779 2 7.8295779542944928e+00 4.8108104922724868e+00 4.7080519457925689e+00 1 0 0
177 2 5.4084217640137737e+00 3.6259671699280371e+00 1.0991649767772662e+01 -5 0 1
707 2 1.1981941996638062e+01 7.3632289672210831e+00 1.3769684237239865e+01 -2 0 -1
613 1 -3.1464863350051977e+00 2.2070851290667375e+00 1.6192860025972568e+01 -2 0 -1
246 2 6.2630979361251731e+00 5.4857704114080059e+00 1.5192215302450059e+01 -4 0 -4
238 1 6.7718110629194141e+00 2.6416511146796409e+00 1.3911831158685743e+01 0 0 0
522 2 8.1093837522329526e+00 1.4757980187062012e+00 9.1628360195929588e+00 -5 0 -2
715 1 8.2980695573297574e+00 4.3873915896809654e+00 1.3136201535050713e+00 1 0 2
115 1 1.1313368421669871e+01 2.2309526742696248e+00 1.2763792584710218e+01 -5 0 -5
426 2 1.3894101320357343e+01 2.1426241440083644e+00 2.4689048641849953e+00 -2 0 1
494 2 -3.5672486259251235e-01 6.7933235342905132e+00 1.1834545045416387e+01 -3 0 -2
709 1 2.3027679044344440e+00 1.0585424472155434e+01 1.4689474746258041e+01 -3 0 -2
215 2 1.6256591465249958e+01 8.6903152718001504e+00 4.5672400636098294e+00 -1 0 -2
933 2 -5.5071322847295701e+00 3.7759553560630650e+00 1.6009766913973294e+01 -2 0 -1
722 2 -2.6304068370326483e+00 8.9295496562003507e+00 1.8746566044147610e+01 -5 0 -3
868 1 8.8556232888987214e+00 5.0954838119656891e+00 9.7171755125337640e+00 1 0 0
291 2 7.6568518346791121e+00 8.8549013533797449e+00 4.1321211426927356e+00 0 0 3
18 2 6.8590340175561488e+00 3.3897936018918218e+00 1.6799076062647281e+01 0 0 1
845 2 7.8216162852713822e+00 5.2726864217520797e-01 1.1284909133705160e+01 1 0 1
506 2 1.1456707812922900e+01 9.7016486575047534e+00 2.6021223179460202e+00 -4 0 -2
785 2 2.1092317224823685e+00 1.9912252916834206e+00 3.1520136605521847e+00 -3 0 -2
870 2 9.2444578477728978e+00 5.7841788425682905e+00 9.1947143863643959e+00 1 0 0
211 1 1.0665991822437809e+01 5.1752688520315253e+00 6.0587592961780228e+00 -5 0 -2
387 2 7.5419910963268011e-01 2.0211357187683192e+00 5.1842241380466643e+00 0 0 -2
760 1 1.7920583354323814e+00 -1.6039815689757653e-01 1.8070630754843435e+01 -3 0 1
788 2 4.3361729813852268e+00 7.4537359996437100e+00 2.8618286554896941e+00 -2 0 0
746 2 1.0054259333941225e+01 7.7350996308893478e+00 1.4671206415725823e+01 -3 0 0
632 2 4.2177572389032578e+00 -9.8997780647188272e-01 1.5586062781972254e+01 -3 0 -2
289 1 7.2850035570301488e+00 7.8695957685286881e+00 4.3133713447618307e+00 0 0 3
116 2 1.0694968761083308e+01 1.5116075041334813e+00 1.2906606516966503e+01 -5 0 -5
224 2 5.1220400132154618e+00 5.5749057545010592e+00 2.7196477060332831e+00 -2 0 -1
297 2 1.2822614524301326e+00 9.0184308449932384e+00 4.0983528615196478e+00 2 0 3
48 2 1.0102094856450305e+01 6.2329721641532130e+00 7.2549820825090068e+00 -3 0 0
117 2 1.2160032976744610e+01 1.8617896116816297e+00 1.3088866517662906e+01 -5 0 -5
931 1 -5.6908947476908454e+00 3.1807789455451365e+00 1.6768906403507842e+01 -2 0 -1
429 2 -5.4970130115712008e+00 6.9330239868572860e+00 1.7776647878258157e+01 0 0 -1
385 1 1.4831882816437014e-01 2.3124459426083055e+00 5.9550353024757223e+00 0 0 -2
807 2 1.0925691339846869e+01 9.8138757381320616e+00 1.0547660847378687e+01 -4 0 1
961 1 1.7895164622909423e+00 3.6190646069992116e-01 1.3509365417188615e+01 -3 0 -1
42 2 6.7597924883170890e+00 8.0260436269028954e+00 1.0587468160888950e+01 -2 0 3
726 2 1.3683919269669418e+00 4.5813104092379522e+00 1.0743972389162359e+01 2 0 1
1665 2 3.0571659198390826e+00 1.0478577320268725e+01 1.8616377725121918e+01 -3 1 -1
769 1 1.2634354348028539e+01 5.9195855161166397e+00 1.0433688093528078e+01 0 0 -3
1002 2 1.0339315294908470e+01 2.9665522851897395e+00 2.8011783188301806e+00 -1 0 1
4 1 4.8869036916640010e+00 7.3099047368170282e+00 5.8165000622220910e+00 1 0 0
905 2 1.0529819780499233e+01 6.9610500845531877e+00 1.1413850669163981e+00 -3 0 2
41 2 5.9174174518429332e+00 6.6555006322367314e+00 1.0481122918576919e+01 -2 0 3
976 1 5.3660070690414967e+00 3.8443324149176794e-01 1.6174525259501646e+01 -3 0 -1
812 2 1.1035071065308497e+01 4.1494973817569969e+00 1.2484365067114103e+01 -2 0 -1
932 2 -6.0761621323396859e+00 3.6790238952303209e+00 1.7582631923266753e+01 -2 0 -1
320 2 -3.9046208830973574e+00 4.2031569860637497e-01 1.3412641622015880e+01 -3 0 -3
213 2 1.0730636461139504e+01 4.2315637784327373e+00 6.3990464420749644e+00 -5 0 -2
290 2 6.4551016291477161e+00 7.9426107044541361e+00 4.8084723549513271e+00 0 0 3
670 1 -5.2482514394855073e-02 -1.3880631424793810e-01 7.1761217393539409e+00 -3 0 -1
338 2 2.4649361654350694e+00 7.5363243015353660e+00 7.2868740186303427e+00 -1 0 -1
938 2 1.3599409077408799e+01 9.4192473368165821e+00 3.4936187450473257e+00 1 0 1
969 2 -5.5710084664545967e-02 5.0367870507897354e+00 1.3355608015503579e+01 -1 0 1
545 2 1.3972183065590871e+00 1.2477580077410049e+00 1.4773128794186970e+01 2 0 1
386 2 -5.7251639772913010e-01 2.7123473864620600e+00 5.4039637856306877e+00 0 0 -2
937 1 1.2828548071296240e+01 1.0038401274956033e+01 3.5745692996015994e+00 1 0 2
40 1 5.8828477389060545e+00 7.6327419558255905e+00 1.0480940706365674e+01 -2 0 3
786 2 2.0540512023395632e+00 6.2841343394563753e-01 3.7405231473648684e+00 -3 0 -2
723 2 -4.2770309780039621e+00 8.9531696657041380e+00 1.8948523915259234e+01 -5 0 -3
724 1 8.0560876812027082e-01 3.8084204133908584e+00 1.0967059706410071e+01 2 0 1
784 1 1.9006450603641549e+00 1.5455838626273457e+00 4.0123774513292734e+00 -3 0 -2
967 1 -3.6097718324125339e-02 4.1201861935513042e+00 1.3723629525697282e+01 -1 0 1
841 1 -8.9446388668394139e-01 -1.0334309096065006e+00 1.5364308453228372e+01 -5 0 -5
681 2 3.2623089373619738e+00 3.5881735178995973e+00 1.7649890149747396e+01 -3 0 -3
649 1 8.5769283919630279e+00 1.2952697381791469e+00 5.1588135032759270e+00 -4 0 0
650 2 8.3878627975248552e+00 1.0619626494203316e+00 6.0821264998168312e+00 -4 0 0
51 2 1.4215620946552846e+01 2.7915236122208245e+00 9.7610679055298224e+00 -1 0 0
36 2 1.5467129957141765e+01 2.9685342479647767e+00 3.9581476928198818e+00 -2 0 0
945 2 4.5463908507761683e+00 1.9134540414225683e+00 7.0478209081165515e+00 0 0 3
673 1 -2.5974466412784265e+00 5.3220086714916963e+00 1.8197378666938672e+01 0 0 -4
539 2 2.6549525964463982e+00 -1.9836316975207047e-01 1.7865761594468266e+00 -4 0 -3
397 1 1.3994768304299395e+01 8.2622314940216377e+00 6.8697979580006798e+00 2 0 0
127 1 1.3484615665876127e+01 5.1323345313879312e+00 3.0127900563354353e+00 -2 0 -1
128 2 1.3543119490150541e+01 4.0977146302433543e+00 3.2809922776030338e+00 -2 0 -1
1407 2 1.3583466010206738e+01 9.1105366536161565e+00 6.6183240812540687e+00 2 0 0
34 1 1.6403204509324290e+01 3.1395095361955994e+00 3.9133411922490930e+00 -2 0 0
928 1 1.4741317629624978e+01 3.9751585119457618e+00 6.2443820416162454e+00 0 0 0
19 1 8.0267417163961898e+00 1.0345962557510518e+01 3.7936729077935052e+00 -3 0 -3
152 2 6.8863196720962465e+00 2.1212684226253455e+00 1.6145398190583009e+00 3 0 0
439 1 -3.7253845349436254e-01 3.3557511958392112e+00 1.6877784353207993e+01 -2 0 -2
350 2 1.4085888723112975e+01 7.8255126148780296e-01 7.7084345161356504e-01 2 0 4
747 2 9.4111710898672296e+00 7.0131086561202309e+00 1.5749625771567263e+01 -3 0 0
176 2 5.5783423663764857e+00 2.6339950270820145e+00 1.2361421506323811e+01 -5 0 1
783 2 1.0083880183285143e-01 5.2139228999641949e+00 5.0691005609436415e+00 -2 0 -2
434 2 5.1968500590783284e+00 1.0320721325870261e+01 1.8404177301356849e+01 -2 0 0
994 1 8.1521273860094805e+00 2.7395789929160697e+00 8.2320303518624112e+00 3 0 1
725 2 3.7598952875881242e-01 4.0137228510302352e+00 1.1816473686450298e+01 2 0 1
162 2 -1.7291612943306429e+00 7.6802241862842262e+00 9.9293381712542104e+00 1 0 -5
129 2 1.3205896850050362e+01 5.5627212586352757e+00 3.8388988530356523e+00 -2 0 -1
644 2 1.3717703118872773e+01 -6.4270341420396415e-01 8.5109912126560747e+00 -4 0 -3
173 2 1.5342904083960236e+00 5.4070854823555248e+00 1.3405918821031881e+00 0 0 -1
963 2 1.3660302974258487e+00 -4.9365173110143645e-01 1.3361813587373188e+01 -3 0 -1
53 2 4.0037127943286155e+00 1.6936204889700148e+00 1.8806324409997526e+01 2 0 -1
149 2 5.4367760577636215e+00 1.0179907991897988e+01 1.4945682333136638e+01 -4 0 -1
462 2 4.0810846442383335e+00 4.6764761900309511e+00 8.2287355490048082e+00 -4 0 -2
651 2 8.4492577412375809e+00 4.8724132715303714e-01 4.6237013859675562e+00 -5 0 0
996 2 8.3427422270834981e+00 3.5485403892514000e+00 8.7333736621788169e+00 3 0 1
611 2 1.3906759866756170e+01 4.0800200887895279e+00 7.9179692189735924e+00 -1 0 2
335 2 7.9082454886084843e+00 8.1998107721964200e+00 6.2073698658219048e+00 -2 0 -2
750 2 4.1876581346621355e+00 4.0686437451183606e+00 1.2414425871436958e+01 -3 0 1
749 2 3.3585969795200636e+00 4.3917960690485831e+00 1.3783792007235917e+01 -3 0 1
102 2 7.1673352030354831e+00 5.0480074601701093e+00 1.0007331933412829e+01 -1 0 -1
497 2 5.2510467765411324e+00 1.4307391289488374e+00 8.9372753266535110e+00 0 0 1
498 2 4.9642285801869797e+00 2.9679347897170061e+00 9.0796381106571324e+00 0 0 1
395 2 6.0170250126072604e+00 7.7613787511461556e+00 2.1097775396763083e-02 -3 0 -3
896 2 1.4029945444804550e+01 8.9366127512799061e+00 6.3010341299631012e-02 -1 0 0
349 1 1.3831649451834755e+01 1.7217059448853664e+00 9.7049973549779267e-01 2 0 4
679 1 3.9295089420371472e+00 4.3157058398861015e+00 1.7558203922904880e+01 -3 0 -3
398 2 1.3304111752622710e+01 7.9423716859068296e+00 7.5531748765726876e+00 2 0 0
540 2 2.8536325297345622e+00 1.2038732002498835e+00 1.1278720329420377e+00 -4 0 -3
278 2 5.5720911246567599e+00 1.0284864570520288e+01 6.5717206795878944e+00 -4 0 -1
321 2 -4.0288326364044167e+00 1.3787946079719258e+00 1.4739992078003182e+01 -3 0 -3
943 1 4.2550784240942701e+00 1.7404811598830046e+00 6.1211253154752523e+00 0 0 3
923 2 1.2526894363836982e+00 1.0253816423507601e+01 1.7912848745101318e+01 -3 0 -3
87 2 -6.5333471704315764e+00 -5.2786107101834701e-01 1.8942422366109508e+01 2 0 -3
220 1 -6.0139448692592534e-01 7.7226456362880569e+00 1.5893676193719658e+01 -2 0 -3
172 1 1.9314277550570811e+00 4.6318970336936234e+00 9.3630907620085346e-01 0 0 -1
298 1 1.0553187689843078e+01 1.1155819552661872e+00 1.6562343130434279e+01 -3 0 -2
680 2 4.7557127839106990e+00 3.8269558045302983e+00 1.7193720871827789e+01 -3 0 -3
831 2 2.3130227375195518e+00 9.3645023365664617e+00 1.0382339739498043e+01 -3 0 0
538 1 2.1910134240263339e+00 5.1573603758504771e-01 1.3367991884464629e+00 -4 0 -3
944 2 3.6830095020756888e+00 2.5458038303103034e+00 5.9558391424038781e+00 0 0 3
100 1 6.2168986983534342e+00 5.1480834798026125e+00 1.0157710219939991e+01 -1 0 -1
1667 2 9.4310007551233035e+00 4.2063038553297476e+00 1.4966673989561309e+01 -1 1 -2
352 1 8.5649162237694743e+00 8.6377491165727438e+00 1.1349481863336907e+01 -1 0 0
174 2 -4.7759807667929506e+00 4.7005944098992227e+00 1.9011824485920339e+01 0 0 -2
388 1 1.5103360205691763e+01 -4.1510850468838179e-02 3.7954642637293721e+00 -1 0 0
503 2 4.1525527728380425e+00 -4.9635087179186732e-01 9.2514298571913489e+00 0 0 0
84 2 1.2606066471474731e+01 7.1494079341820633e+00 9.4515987576255487e+00 -1 0 -3
460 1 3.4299495270634033e+00 4.3801489293661966e+00 8.9235560704323529e+00 -4 0 -2
607 1 6.0393245444871670e+00 2.1924347097239236e+00 1.6633374271288498e-01 -3 0 0
922 1 1.9397586212633229e+00 9.9125524307356390e+00 1.7365116025226296e+01 -3 0 -3
708 2 1.0886083988950666e+01 6.6763966552741145e+00 1.2908594572188424e+01 -2 0 -1
706 1 1.1082784401025688e+01 7.4873296342359978e+00 1.3388213240259484e+01 -2 0 -1
595 1 -2.9590284887351537e-01 5.3816621088004277e+00 8.3524265592740843e+00 3 0 -2
528 2 5.9670358661688985e+00 1.1144197789880876e+00 3.6193019111937104e+00 -2 0 -1
109 1 2.2156845237615741e+00 2.4278411274291360e+00 1.8398157662781955e+01 1 0 -4
615 2 -3.8787304709053534e+00 2.7002938067506728e+00 1.6620758327540578e+01 -2 0 -1
987 2 1.1317852118592683e+01 8.6359597683297267e+00 1.8527872906126124e+01 -3 0 -3
461 2 3.3218769617757764e+00 5.1162882895839781e+00 9.5586759677752635e+00 -4 0 -2
599 2 -1.4269834730043109e+00 1.7885734387087102e+00 9.5106216599322799e+00 -3 0 1
408 2 2.1644401190773541e+00 4.5813812786045691e+00 5.2633246547131476e+00 -2 0 -2
33 2 3.4619001861984509e+00 1.0371756594276437e+01 1.1897980744716805e+00 -4 0 -4
182 2 1.2152348119461845e+01 5.8741295884558031e+00 5.8085895810505024e+00 -1 0 0
35 2 1.6759162902990386e+01 2.7956588770137620e+00 3.1096140068233789e+00 -2 0 0
697 1 7.3115731570646636e+00 7.6526545685610632e+00 1.5216420521807539e+00 2 0 4
851 2 -2.0962013193749334e+00 9.7181206406119713e+00 9.5531679351757184e+00 1 0 1
475 1 1.0590621585979061e+01 2.0737097442720085e+00 1.0038400225609891e+01 -1 0 2
68 2 3.9413099115471901e+00 7.9537325735432542e+00 1.6218100813010476e+01 -4 0 -3
526 1 5.4984957507937722e+00 4.3621864643640751e-01 4.1865482518557986e+00 -2 0 0
133 1 2.9542389811622396e+00 6.0089547517116930e+00 1.0839873592518703e+01 1 0 -1
610 1 1.3374781510460627e+01 3.9549123209687753e+00 8.7537301889284684e+00 -1 0 2
675 2 -1.7741036697036217e+00 5.5116053759497410e+00 1.7810614528453105e+01 0 0 -4
82 1 1.2306602263510346e+01 7.7496793441957070e+00 8.6271737957568320e+00 -1 0 -2
300 2 1.1197133214594285e+01 1.8842950768517559e+00 1.6458775353694023e+01 -3 0 -2
950 2 -4.3485208467854415e+00 1.2821254087499390e-01 1.8573437516600986e+01 -1 0 1
782 2 4.1047552850066915e-01 4.2875638446207089e+00 3.9024349288925704e+00 -2 0 -2
690 2 1.1642682185125688e+00 2.7204230299185310e+00 7.4392730245916043e+00 -2 0 0
160 1 -1.1999213717291051e+00 6.8933738316703330e+00 1.0139022201272759e+01 1 0 -5
728 2 4.5609237317540572e+00 8.5532415340642629e+00 1.3451156023693223e+01 0 0 1
113 2 8.9574124449637669e+00 5.2892600548133939e-01 1.3277416884969318e+01 -2 0 -1
272 2 1.6092413915597259e+01 -1.1426172159758341e+00 5.1498753636107848e+00 -1 0 -2
216 2 1.5587593465619994e+01 8.2957629287309000e+00 5.9677906777704974e+00 -1 0 -2
978 2 6.3108609518767143e+00 1.6439683723381515e-01 1.6144525408620680e+01 -3 0 -1
777 2 1.1430733432693021e+01 -8.4289506478560061e-01 2.3877917490676910e+00 -2 0 2
67 1 4.3547439354295365e+00 8.1263542769282164e+00 1.5349656454058501e+01 -4 0 -3
727 1 4.3476628801924129e+00 8.7172112720278392e+00 1.2532089418580050e+01 0 0 1
28 1 -9.7153299282076855e-01 1.0301933954992290e+01 1.5244055603478555e+01 -2 0 -4
425 2 1.3063257022177071e+01 2.2692386012942203e+00 3.9049802032680980e+00 -2 0 1
544 1 1.5173728081636693e+00 1.8159218155405497e+00 1.5563917160346156e+01 2 0 1
765 2 1.2349221835557895e+01 1.0168660035453028e+01 1.2316480516337366e+01 -4 0 -3
1001 2 9.7558946904963868e+00 2.0327338694770365e+00 3.9347827698553495e+00 -1 0 1
496 1 5.2823707007247460e+00 2.2748008572556708e+00 8.4529718130656555e+00 0 0 1
699 2 7.2767874174379612e+00 7.7808577855929713e+00 2.4939356927186798e+00 2 0 4
337 1 1.9038633557981188e+00 7.0581892277074658e+00 6.6239045382728960e+00 -1 0 -1
993 2 1.4838799787991086e+01 2.0932284728799888e+00 6.4359722235776635e+00 1 0 1
221 2 -1.1813887079014238e+00 6.9840074932245901e+00 1.5561189295646763e+01 -2 0 -3
889 1 1.1218476056594037e+01 -1.1127551397578896e+00 6.0897170531830609e+00 -1 0 0
583 1 -3.0300473005769222e+00 5.5928418496895356e+00 1.1715450846281072e+01 -4 0 -4
584 2 -3.0868104886517491e+00 6.2665555404076576e+00 1.2456992039890819e+01 -4 0 -4
641 2 -3.8711100989390204e+00 5.1664717943807803e+00 1.4873830568593286e+01 4 0 -1
110 2 8.6575775178731966e+00 2.9399865603854014e+00 1.6913369281974830e-01 1 0 -3
553 1 5.2687638169867208e+00 -7.3981160134618518e-01 1.2462853586230420e+01 -5 0 -2
47 2 1.0845420816587744e+01 7.2555993378150347e+00 8.1052397356913719e+00 -3 0 0
207 2 1.6610010047636070e+00 2.4537781237782190e+00 1.1364518301006944e+01 3 0 0
808 1 5.7075216623240337e+00 5.2271238958573623e+00 7.4082217193448612e+00 -4 0 -1
775 1 1.0682753404097763e+01 -3.9442400075283601e-01 1.9295891208445510e+00 -2 0 2
577 1 2.6765013589285873e+00 7.2810153856916671e+00 1.7348834645761659e+01 0 0 0
616 1 4.2388968029008778e+00 1.0375824180098343e+01 5.2022478096338025e+00 -2 0 -1
1000 1 1.0019870317487433e+01 2.0887844043466464e+00 3.0174181310455226e+00 -1 0 1
294 2 -2.5733558258337164e+00 2.6298872957174142e+00 1.3358456531679046e+01 1 0 -3
390 2 1.5847184393626874e+01 3.1261653922207677e-01 3.2546382388569715e+00 -1 0 0
829 1 2.1355929222823309e+00 8.7121673003867794e+00 1.1178366502054974e+01 -3 0 0
521 2 8.3364446553613796e+00 -3.2409826428102306e-02 9.1676676181474903e+00 -5 0 -2
813 2 9.7515029411242011e+00 4.8759187255061738e+00 1.2604233346214926e+01 -2 0 -1
912 2 1.1733907442962353e+01 1.9875701451300345e+00 5.6474936657977644e+00 -2 0 1
502 1 5.1108690749364776e+00 -2.8735039768942361e-01 9.4279190819513339e+00 0 0 -1
531 2 9.0207502248805387e+00 -6.6733984811353519e-01 2.6558867259786711e+00 -1 0 0
771 2 1.3354999797219083e+01 5.8159605736483515e+00 1.1042101286964018e+01 0 0 -3
917 2 4.1927446096319612e+00 -6.2458943229539343e-01 3.4978853614584740e+00 1 0 3
809 2 6.0242935995017524e+00 4.4668550636683886e+00 6.8122051426086854e+00 -4 0 -1
866 2 -1.9840092322102429e+00 4.9003558883929346e+00 1.5942659452387348e+01 -3 0 -1
94 1 -1.1057118381158628e+00 5.7064779701024975e+00 6.0177726113303533e+00 -1 0 -1
225 2 5.8817656594442056e+00 6.4256586419741524e+00 1.6024744397624773e+00 -2 0 -1
770 2 1.1874742049093058e+01 5.4929724383916811e+00 1.0893235622883363e+01 0 0 -3
123 2 6.7708190566298789e+00 5.6814855770643717e+00 1.8020558872499628e+01 -2 0 -1
440 2 9.7515756442626333e-02 2.7335012784825348e+00 1.6305318300825579e+01 -2 0 -2
383 2 1.5030150095480108e+01 5.7408948852320201e+00 2.2848476653784187e+00 -2 0 1
6 2 4.3905287903986006e+00 7.5902265690879531e+00 5.0451114692613039e+00 1 0 0
499 1 -1.2837328112144024e+00 1.2822455991506998e+00 1.3971227470845571e+01 1 0 1
910 1 1.2241542381355405e+01 1.3332432865645991e+00 5.0392014044457127e+00 -2 0 1
546 2 1.9096751900121127e+00 1.2633197524499762e+00 1.6293684983328749e+01 2 0 1
920 2 1.1475449326961588e+01 7.4170026402631306e-01 9.3276081930476575e+00 0 0 -2
729 2 5.0098691158720046e+00 8.2878011510204654e+00 1.1940353114962582e+01 0 0 1
612 2 1.3135438313713010e+01 4.8557809604148217e+00 9.1363343580066285e+00 -1 0 1
674 2 3.9871674711333216e+00 5.7994911371118869e+00 4.3545966921435114e-02 0 0 -3
121 1 7.5094120065560741e+00 6.1784599070303665e+00 1.7675224979016019e+01 -2 0 -1
911 2 1.3036421099235355e+01 1.1652218289303975e+00 5.6104764292530334e+00 -2 0 1
424 1 1.3778447143666224e+01 2.6949214163005166e+00 3.3678608046987621e+00 -2 0 1
811 1 1.0641244575372156e+01 4.9148755247000748e+00 1.2163501670349120e+01 -2 0 -1