LAMMPS data file via write_data, version 8 Apr 2021, timestep = 1778000

972 atoms
2 atom types

0.13606739959958744 19.854985600415635 xlo xhi
0.06622227597210527 19.924830724045425 ylo yhi
0.3196204178212086 20.48115158216371 zlo zhi
-0.11307194026184181 0.032984330425111466 -0.09748138353727573 xy xz yz

Masses

1 16
2 2

Atoms # atomic

4 1 3.9828733501214737 0.9942876546090189 3.376688274786189 0 0 0
5 2 4.10351195324028 1.9889321484766298 3.4273598044029474 0 0 0
6 2 3.2059545800291236 0.8519152069428718 3.962982754538021 0 0 0
7 1 6.016566747515519 4.67287298355237 5.355438956236993 0 0 0
8 2 6.9212039748640235 4.5576417591493 4.935780944853277 0 0 0
9 2 5.342253053989799 4.388616988593059 4.708262851579272 0 0 0
10 1 1.5494182560247172 3.9577886833775233 3.7397736685215017 0 0 0
12 2 1.336317529458065 4.830014898592842 3.2686741197893916 0 0 0
13 1 4.957219030020712 5.706707612992707 2.0324490379760047 0 0 0
14 2 4.644336931514523 6.399135795084439 2.6158562672119006 0 0 0
16 1 4.130016617926621 3.6570092871230973 3.5652621426566333 0 0 0
17 2 4.253136458804995 4.3794100966008 2.932095470573493 0 0 0
18 2 3.1951567037014095 3.784482989219699 3.8630177451523315 0 0 0
24 2 2.28743103788068 2.0168112316365123 5.7119146801427085 0 0 0
25 1 2.890559060712264 5.568075132496769 6.8127561756048705 0 0 0
26 2 2.6157925361370395 6.198243934146026 6.146247794107801 0 0 0
27 2 3.7189090695797917 5.908443536406366 7.3557751984333155 0 0 0
150 2 9.68666001840208 7.969937149202035 4.086883386975127 0 0 0
35 2 6.321308183211029 2.5104601349788083 1.1239404926560719 0 0 0
46 1 8.389026445167337 4.390325691092319 3.8202650952534274 0 0 0
278 2 9.462497434734212 19.21038707174856 5.979947896090561 0 0 0
48 2 8.277357163482016 5.224007750391188 3.260119756316089 0 0 0
55 1 7.640039508368696 6.2855171959275165 2.098808020470821 0 0 0
56 2 7.774115802528234 7.259739338548853 2.3055174742441005 0 0 0
57 2 6.679104763980263 6.181912688783005 2.0020736550781586 0 0 0
61 1 9.543127257092236 5.809149916785688 6.4100807698772275 0 0 0
63 2 8.813006280477603 5.83017150658 7.074733231346626 0 0 0
67 1 7.927773736384379 2.269818414431456 1.8435302600843453 0 0 0
68 2 7.889648089273773 2.938280881290836 2.5527604845945664 0 0 0
69 2 8.671627364689712 2.680282060536441 1.3436452570893174 0 0 0
112 1 4.104909409507015 7.778568419766009 3.6164059532134365 0 0 0
113 2 4.747601026275558 7.550074973984077 4.335912202726062 0 0 0
468 2 4.171510361586478 9.188854072844011 7.580404764539967 0 0 0
130 1 1.9248116457977553 7.476471049965872 5.132991293723098 0 0 0
131 2 2.479275824439783 7.831945629345494 4.426152200270088 0 0 0
132 2 1.8658096975416103 8.185856787704633 5.78074344423227 0 0 0
136 1 5.728639542436587 7.340506245115523 5.56401666196497 0 0 0
137 2 5.716020883189994 6.396015604442243 5.673673203051022 0 0 0
138 2 6.5863493250306115 7.521137957950912 5.166523345832471 0 0 0
62 2 9.319019744337977 4.932753345723716 6.038979168861314 0 0 0
166 1 8.331312859795897 7.656619854882142 5.125360105455051 0 0 0
168 2 8.847563624397518 6.939670252408643 5.506614376578768 0 0 0
175 1 7.560041219956657 8.813496082466056 2.2574223077296156 0 0 0
325 1 2.659208175544359 2.9943300285175396 7.121446380994317 0 0 0
326 2 2.7946311300999707 3.9684665421599643 7.06459559105355 0 0 0
327 2 3.5378944007437436 2.667739777845496 7.074818684476293 0 0 0
337 1 4.861621858081106 6.030139690783185 8.531801758992748 0 0 0
338 2 4.802279749269383 5.210178082053482 9.027823512976024 0 0 0
339 2 4.575894294762918 6.764995313364243 9.092819943667035 0 0 0
345 2 1.7658661410225098 5.795026459313842 7.895583232551578 0 0 0
357 2 1.864374493306918 2.4403045701634785 8.378346770388424 0 0 0
358 1 5.4954337493811725 2.614811880018939 7.092149944486617 0 0 0
359 2 5.90215613208355 3.303692103121158 6.586455021260863 0 0 0
360 2 5.535018528050625 1.8510861398716991 6.547271816082129 0 0 0
363 2 8.688592961219905 2.3817737654801325 7.838203680892367 0 0 0
379 1 7.60724260810857 5.737967980197018 8.335358236549656 0 0 0
380 2 7.752321510812695 6.6416194685665415 8.649951808007474 0 0 0
381 2 6.6110474860013 5.618186821950278 8.254284968160563 0 0 0
391 1 7.4553796650729565 1.7974681804216845 8.966997535563452 0 0 0
393 2 6.702052100018144 1.96361154702971 8.384898266150675 0 0 0
467 2 5.380522673948909 8.477425829970183 7.063474474877353 0 0 0
499 1 7.368815600052448 8.421500957739985 9.214670972836434 0 0 0
392 2 7.517226627370503 2.626731969014104 9.500977191314718 0 0 0
218 2 3.597600652737365 15.78835497976943 0.8909136894980126 0 0 0
23 2 1.0658467789688935 1.0440849219856394 5.338694286229608 0 0 0
891 2 3.4556720062912314 18.558719340756596 0.3701850073896157 0 0 0
571 1 0.8426888659112379 15.13844632871622 9.199176151585698 0 0 0
114 2 4.194951503865937 8.771444380695863 3.675117777947138 0 0 0
433 1 2.289431485829796 9.324992067541238 6.976784244470834 0 0 0
355 1 1.0627525709993477 2.106580252079767 8.928113602743418 0 0 0
176 2 7.4503867581747585 9.442916956805565 3.021255049162476 0 0 0
111 2 2.348367960328187 9.071108846909649 0.74674162815468 0 0 0
29 2 5.229143492364169 0.5011277943107966 4.525595471101408 0 0 0
927 2 8.20338000824927 18.655509747469246 0.8646532385152726 0 0 0
231 2 4.003418899785653 19.770817201197485 2.2143690111492775 0 -1 0
167 2 8.292656082292355 8.380197002521243 5.784526617671564 0 0 0
177 2 6.735064724147805 8.902087999474483 1.6650345555294304 0 0 0
33 2 1.3049450273634553 2.4200801095954536 2.9238986405559504 0 0 0
129 2 0.7628302680601137 12.413669101702546 2.836908112274155 0 0 0
675 2 2.0924844864085426 5.510195416653442 0.8021051413799349 0 0 0
465 2 0.8762018908926315 7.597587768374975 8.88691356212615 0 0 0
500 2 7.5377497760578756 8.90112071379383 10.07494275058393 0 0 0
15 2 4.299980276796036 5.592399109421589 1.3185584947188322 0 0 0
28 1 5.775573490895879 0.4830467386570869 5.341346789964543 0 0 0
19 1 0.9185030088977857 6.068161416907789 2.105874259975652 0 0 0
328 1 4.059581819221901 0.9341045015977427 10.243705404153523 0 0 0
272 2 7.372430683893862 0.38990879892476515 1.9382578908998536 0 0 0
577 1 9.196417210445377 16.200657147788057 6.812761397801553 0 0 0
171 2 8.796127219605918 13.198582804070323 6.367288589257562 0 0 0
217 1 2.713548838677412 15.765411946159672 0.3996232039240657 0 0 0
501 2 6.415202901060625 8.570905606798675 8.975974927996736 0 0 0
711 2 8.733007358516204 5.817072511072968 0.6358683160133399 0 0 0
59 2 9.224400810416293 1.137220550484113 4.347214355081316 0 0 0
145 1 9.587881360856978 9.4812517751081 0.7206440724762545 0 0 0
119 2 0.8192566938901831 10.962793793965401 4.591208570314562 0 0 0
471 2 8.185670574410826 9.09297626938228 8.169355495671455 0 0 0
344 2 1.2125627500081724 5.461223518763267 9.386263427186687 0 0 0
435 2 1.720226939198876 9.21532525107261 7.761296486231127 0 0 0
609 2 7.623837302391546 16.09756201044906 9.888910913425516 0 0 0
123 2 3.7782731024291465 12.006003035554675 1.1625975334770644 0 0 0
558 2 4.327116452722061 17.746542004292447 9.623213296245625 0 0 0
450 2 3.9654036930719494 10.871879716234364 9.952488075034973 0 0 0
479 2 7.370747414627188 11.396993317726551 10.113073714723022 0 0 0
139 1 1.277857642754044 8.731551565245097 2.1490096403151195 0 0 0
60 2 7.824936743915157 0.5237437379807958 4.79463434129601 0 0 0
443 2 0.7500160940936798 9.75008597939411 10.06400223035169 0 0 0
544 1 3.836060770012653 14.231260430471105 10.307723745373709 0 0 0
248 2 0.7504716999614937 14.312245471614538 2.4068053759901415 0 0 0
22 1 2.0670035159667197 1.299952783022092 5.160364302813347 0 0 0
235 1 0.9485999867695255 19.006880242261513 1.896496690011128 0 0 0
58 1 8.65586654958822 0.8069926793623812 5.078668376806968 0 0 0
466 1 5.12804685679024 9.085679497775384 7.808975684672286 0 0 0
329 2 4.339447537171061 0.5072514264110016 9.442226983050197 0 0 0
596 2 7.923046135038411 0.2598577124085792 8.49770209488731 0 0 0
254 2 8.743887788255543 16.035290477240085 0.8554629246249442 0 0 0
236 2 1.1611351004019137 0.14188586610726217 1.934722456969929 0 0 0
608 2 7.610386373252559 14.54389871925942 9.663512673040326 0 0 0
343 1 1.0139211186623038 5.872316895679203 8.490960586894726 0 0 0
127 1 0.342288102205454 12.676850371502416 1.9962624984346282 0 0 0
273 2 6.1034348287505376 19.259845559213687 2.1642955438768734 0 0 0
356 2 1.1700911948013875 1.148359136791558 8.934234108897293 0 0 0
20 2 1.0538119549310456 7.059462996198054 2.080597607742448 0 0 0
372 2 7.969092948165758 4.568825998302748 9.885794351545464 0 0 0
277 1 9.60104543724806 18.581894580487337 6.717597136378035 0 0 0
30 2 5.7493004681184905 19.369091766290232 5.492781296063446 0 0 0
597 2 7.613334846271723 18.66347746987345 9.18119328894758 0 0 0
362 2 9.002782841562823 2.0706651196348167 6.453749532953226 0 0 0
169 1 8.665958243438576 12.477694627698517 6.971054090563661 0 0 0
578 2 9.150283709933204 17.23125921650804 6.849047468939734 0 0 0
553 1 4.877998575284832 18.965769108966462 8.394631797508405 0 0 0
559 1 0.9384905160484937 19.386487835638068 8.609166389322354 0 0 0
124 1 4.120275251644621 10.495426033906638 3.9638255599027534 0 0 0
434 2 2.1350365712993664 10.27749892379178 6.753215108763085 0 0 0
47 2 9.375808246135247 4.218350240877131 3.793987779186168 0 0 0
595 1 7.72784851022762 19.144141823561668 8.310406045210458 0 0 0
31 1 1.0059153034211152 1.722277601919415 2.2989842842056185 0 0 0
469 1 8.772444845700761 9.183542738784615 7.290810614239566 0 0 0
470 2 8.938531823376804 10.155447222724417 7.125175653438096 0 0 0
573 2 1.0099464851897186 15.899822780653867 9.849759032879913 0 0 0
11 2 1.0867638464511504 4.080201366962076 4.574880190559216 0 0 0
229 1 4.250279484407419 19.02515729899514 1.6098713602166979 0 0 0
561 2 1.0132326671071816 18.811841166610048 9.425625352981056 0 0 0
250 1 5.443770379979253 15.943554585039482 0.7915958167029048 0 0 0
579 2 8.84156129038068 15.886966534465806 7.711255292743228 0 0 0
146 2 9.349097613774155 10.373828840536987 0.38474278930437605 0 0 1
451 1 0.364387830717669 12.626647978780971 8.663057978861476 0 0 0
115 1 6.13459127225825 10.927287581349864 6.141174542240624 0 0 0
116 2 5.911322505890082 11.847364078272344 6.025990511453661 0 0 0
121 1 4.267624113218958 12.13457352290397 2.0144240912312226 0 0 0
122 2 5.25159073689339 12.158771420891211 1.7722570207712325 0 0 0
125 2 4.197821795407244 11.108188524152725 3.2385147632187254 0 0 0
133 1 2.2584718393649044 12.003557819242504 6.715169930127651 0 0 0
134 2 1.4549306504620916 12.233081737581893 7.242474008615616 0 0 0
135 2 2.282031251997434 12.780996088525674 6.089625802688767 0 0 0
252 2 5.815362831423708 16.746373580835165 0.3893927030111444 0 0 1
555 2 4.333317830988383 19.010736998766813 7.614044042317364 0 0 0
271 1 7.0670015376169335 19.345468679753086 2.01231774384978 0 0 0
163 1 7.124920532833696 12.549971607601371 2.0174186806164145 0 0 0
164 2 7.418866320571282 11.958502368959765 2.7668030081087314 0 0 0
165 2 7.637205056812612 12.310909115093645 1.2183430565796538 0 0 0
220 1 3.9957192931905254 14.178637568979601 3.6961622029873413 0 0 0
221 2 3.982338892702287 15.125446958885318 3.408268247996318 0 0 0
222 2 4.030842668464572 13.563348535074356 2.8973226898487145 0 0 0
223 1 6.012229991873066 17.549060990390522 5.642708596820536 0 0 0
224 2 6.933991424817347 17.3010623985003 5.4140556993584035 0 0 0
225 2 5.761625873555285 17.073737364344765 6.474654133685958 0 0 0
226 1 1.46815255433518 17.32133093513263 3.9474945476920458 0 0 0
227 2 1.268143021313644 17.960560677331877 3.28853796026043 0 0 0
228 2 1.2042976780930508 16.474091826837157 3.4377972342327543 0 0 0
232 1 4.144000797918492 17.14064023825426 3.7185019332929374 0 0 0
233 2 3.1296874035934 17.21365104730499 3.8894301449775917 0 0 0
234 2 4.6513070869273125 17.149727837469968 4.566317310422459 0 0 0
238 1 2.065654465800708 14.290904693664922 5.485323062929988 0 0 0
239 2 2.7432338393485773 14.120099673953012 4.708059263952773 0 0 0
240 2 1.1964990644126663 13.997010407251658 5.107077331745003 0 0 0
241 1 2.8300251154542195 18.840534153748074 6.686082156266288 0 0 0
243 2 2.6458612284821967 17.876708280425294 6.496193190851557 0 0 0
244 1 6.163868267921788 13.720762712240541 5.495754778112437 0 0 0
245 2 5.866415569504282 14.340066389954007 6.206095676384486 0 0 0
246 2 5.524032215489238 13.845019214208463 4.763928092235103 0 0 0
361 1 9.199636487294125 2.7557449962286187 7.084322085908301 0 0 0
249 2 1.5692264591622498 15.423857583799567 1.712619615873175 0 0 0
262 1 8.068796766292962 17.194494246055356 3.796576680218174 0 0 0
263 2 9.11883936392038 17.23108686759009 3.8901398661147426 0 0 0
264 2 7.876832174240605 18.06082150792884 3.4180126393306165 0 0 0
274 1 8.644560431986985 14.434088494260683 5.024036894951094 0 0 0
275 2 8.701796771021234 15.128817839309574 5.677481792748817 0 0 0
276 2 7.669704286306666 14.140888703703737 5.027352116542936 0 0 0
279 2 8.898585913674815 18.921264721797346 7.35695056617899 0 0 0
283 1 7.49146707377721 15.184551544381744 2.1163864471414047 0 0 0
284 2 7.699339112938882 15.781322314429888 3.001231273029072 0 0 0
285 2 7.424264059254682 14.272456145422497 2.4243871363304628 0 0 0
607 1 7.631327412550132 15.435299227550749 9.233307616923522 0 0 0
445 1 4.116223682945954 12.25477297954183 8.698401155784376 0 0 0
446 2 3.844956782165568 13.02520299960592 9.265899793854441 0 0 0
447 2 3.4500050778734965 12.247591487184756 7.990056653150834 0 0 0
487 1 6.928719277445828 12.438280473821056 8.996576773921996 0 0 0
488 2 7.414418538969378 12.43418520192719 8.125256888101868 0 0 0
489 2 5.993104464111012 12.480366571471011 8.758076633936719 0 0 0
541 1 2.6977833365684862 16.12722766922386 7.1594934743937255 0 0 0
542 2 2.1221433946847346 15.854359395172747 7.853263714812761 0 0 0
543 2 2.5350589407298587 15.41636942921358 6.532766006056671 0 0 0
574 1 5.702494632249907 15.612131253289254 7.375587648778945 0 0 0
575 2 6.30952035548283 15.45213547269726 8.158469811177188 0 0 0
576 2 4.790751831338894 15.47844054810307 7.695690536862848 0 0 0
251 2 6.135782803083727 15.71837745176664 1.5194493750030846 0 0 0
120 2 2.327101087719747 10.860933492579342 4.324935128402089 0 0 0
140 2 1.3067569746629355 9.282893010951984 2.9737672930728856 0 0 0
560 2 1.5624901805665512 19.081423413052704 7.904365371910793 0 0 0
230 2 4.227337665126628 18.222349964830514 2.2482342055388576 0 0 0
117 2 5.743335506964249 10.549669197773968 6.9666892888802785 0 0 0
126 2 4.757570543604973 10.570113301616434 4.648505853979442 0 0 0
242 2 2.50699244069848 19.330168462807805 5.8969841449563045 0 0 0
154 1 7.909810264998519 10.585873504397698 4.112935031306155 0 0 0
3 2 2.2941222727152653 2.151265583695687 0.9539818761272948 0 0 0
118 1 1.45714916858973 11.052636739198766 3.832337079345512 0 0 0
156 2 8.911225911727385 10.712175082861911 4.1773317194279755 0 0 0
463 1 0.5875593966108641 8.55395158721465 8.909930700292868 0 0 0
818 2 9.590341674354622 12.25898037301074 0.5899704792872054 0 0 0
210 2 0.27612627258990763 7.150112369763038 4.954634472790199 0 0 0
556 1 4.354604986547781 17.142434903995035 10.395329574402675 0 0 0
452 2 0.4330974136780946 13.52846246052335 9.05218204435049 0 0 0
155 2 7.488242029491558 10.694544194507097 4.969214063575583 0 0 0
554 2 5.811603195021075 19.08079637470408 8.163419253339883 0 0 0
237 2 1.5026061023216282 18.758264248799094 1.1192963849258253 0 0 0
128 2 0.7611992888592515 12.124359139931263 1.2909566959203636 0 0 0
444 2 1.1800335689332673 11.240089860740209 9.980913228466806 0 0 0
247 1 1.0361535878620032 15.235736237511372 2.5304156173846875 0 0 0
147 2 8.95159166760276 9.20965201233587 1.4015605958812676 0 0 0
342 2 4.059000750078362 2.7784971926253945 10.313421336366694 0 0 0
34 1 5.46645812858707 2.5249510462892184 0.5743557596411912 0 0 0
335 2 1.1497901086291928 3.5435650325875634 10.174731478945597 0 0 0
141 2 0.4620522589080457 9.09186051103623 1.7153450299842046 0 0 0
557 2 4.0594511210246225 16.210118620411077 10.259571821085725 0 0 0
572 2 0.13845692582613858 15.438860129784098 8.609760065799504 0 0 0
297 2 0.29446168896266545 17.86239656452244 5.199415350814481 1 0 0
170 2 9.541286265880698 12.333268511311688 7.401023751703389 0 0 0
370 1 8.20220545269006 3.75618567431024 10.380344885901128 0 0 0
2 2 3.809522169643601 2.2084573652681914 0.32266566726165985 0 0 0
331 1 6.062505652073544 4.470222098205454 12.169746420764625 0 0 0
332 2 6.869566782539542 4.1365192197406015 11.689690967573295 0 0 0
333 2 5.428107812865606 4.397573298743758 11.483666981855846 0 0 0
348 2 2.3532071837962163 1.3129176920797774 12.568760827520522 0 0 0
349 1 2.466602298825124 5.484074234180061 13.488514538524017 0 0 0
350 2 2.2340703557242905 5.882771338213821 12.633231099116037 0 0 0
351 2 2.4586842415077887 4.5226223335541205 13.400355032364446 0 0 0
387 2 8.211672582846722 5.492288319497811 14.522155295135898 0 0 0
454 1 1.9997194074121618 7.252736252183982 11.675087575883921 0 0 0
455 2 2.5566535726250854 7.266804799520717 10.899331469415573 0 0 0
460 1 6.275298551744795 7.316535104266425 12.254971096699045 0 0 0
461 2 6.023789422836411 6.465934931613771 12.606360947002589 0 0 0
462 2 7.224583662803953 7.1811378256381655 11.890299572742089 0 0 0
490 1 8.80900373627973 7.007084769492899 11.820357459296057 0 0 0
491 2 8.781954456293501 6.3026760768493215 12.482407845453082 0 0 0
492 2 8.89823209712373 7.769645935304974 12.408768578767585 0 0 0
649 1 2.6292892988744527 2.81434025930125 13.392520064814647 0 0 0
650 2 3.5608695676186843 2.759258162903745 13.750324380649486 0 0 0
651 2 2.022566131819158 2.543658213624499 14.163265143765438 0 0 0
652 1 4.0565426956266375 1.0913229642112898 17.014328330382167 0 0 0
653 2 4.174677146181587 2.068620197703221 16.9210493036346 0 0 0
654 2 4.8037018514341785 0.8889035020794189 17.678284178791476 0 0 0
655 1 6.10562109662218 4.444694818941353 18.953499928617045 0 0 0
656 2 6.170271073401891 5.277607335901818 19.43252683998651 0 0 0
657 2 6.915917208579799 4.352248889017522 18.422259921044336 0 0 0
658 1 1.7851542370908238 3.937085082352987 17.432606425559015 0 0 0
659 2 1.5336868194900406 3.0194006484195546 17.039947315838116 0 0 0
660 2 1.557354419980882 4.607110707810506 16.721194462924874 0 0 0
661 1 4.64384973395447 5.7397950427903295 14.865515596721009 0 0 0
662 2 4.640932943524979 4.894359578705693 15.365246398544674 0 0 0
663 2 3.9017861839764096 5.6596817835446585 14.242401257112478 0 0 0
664 1 4.485691369753992 3.9410274118160786 16.94949075671097 0 0 0
665 2 3.529593545247762 3.8856822001183633 17.23379309824626 0 0 0
666 2 5.002635035071052 4.173704385329628 17.787213834027625 0 0 0
669 2 1.6087662973268542 5.719064730597341 14.824522146947565 0 0 0
671 2 2.1986205942673247 1.300564813697227 19.111184964838873 0 0 0
682 1 5.285394164358712 2.486603313471792 14.08506204925867 0 0 0
683 2 5.590562528341497 3.205531824001187 13.490440379433712 0 0 0
684 2 5.563803104295594 1.726602085211914 13.489773232916777 0 0 0
694 1 8.042255676077975 4.018826641283783 17.16663433682758 0 0 0
695 2 9.00368827844646 3.9503015373093784 17.10993000014791 0 0 0
696 2 7.696293398147933 3.1557809495325446 16.791263325609894 0 0 0
703 1 7.235472466269147 6.1369930269707735 15.718069619001652 0 0 0
704 2 7.456485590770756 5.3969380262685736 16.430165923992494 0 0 0
705 2 6.403616020602715 5.942470892212863 15.230756916742957 0 0 0
352 1 5.842232526069957 0.7435770080744616 12.133242747272181 0 0 0
789 2 1.984891669198622 8.371207010388272 15.07034493749441 0 0 0
715 1 7.283196637542029 1.79627413906317 15.754636759511122 0 0 0
716 2 6.426542507984358 2.2085953411906254 15.583381889708157 0 0 0
717 2 7.776970618080753 2.0877071996135865 15.004315720687242 0 0 0
760 1 4.197766422754122 7.449956879100139 17.021169216020002 0 0 0
761 2 4.37409424513433 6.849445468776933 16.321160950787554 0 0 0
762 2 5.096727739272937 7.439987604256122 17.495039048399587 0 0 0
778 1 2.074875155046223 7.181761075688104 18.467451848148638 0 0 0
779 2 2.7916895869796083 7.19512545845609 17.774336605434808 0 0 0
780 2 2.194144606534753 6.282361302905101 18.946603933506196 0 0 0
784 1 6.279595923949409 7.315535135846167 18.795217865047174 0 0 0
786 2 7.148190023356121 7.45994391506221 18.429740034342963 0 0 0
791 2 6.014712486658229 8.453951870711967 13.609651194738301 0 0 0
677 2 5.967678012374064 1.187835422716893 19.591350918305867 0 0 0
814 1 9.022517478959008 7.581556938503697 18.7490067190787 0 0 0
815 2 9.238152746846941 8.176809591414193 19.57162384107441 0 0 0
816 2 9.206675044266305 6.67379120080906 19.114743095779502 0 0 0
823 1 7.880987723088452 8.778439278696702 15.806406066108169 0 0 0
824 2 7.720451659593547 7.81575238751962 15.920308348379272 0 0 0
672 2 2.4435887925793236 0.7531303128655298 17.78848039298594 0 0 0
678 2 6.939299761064962 0.8294606200208494 18.48643798597647 0 0 0
346 1 2.103234338766223 0.44770459756951053 12.134455315923319 0 0 0
385 1 8.943214734892003 5.291609319773851 13.843010283748908 0 0 0
438 2 5.139956444052076 7.726736856888777 11.053551135265153 0 0 0
773 2 4.351901595636461 9.424714020932415 17.231740023628753 0 0 0
142 1 5.635264202353746 9.157893764138604 20.45250503541569 0 0 -1
884 2 1.4700489863265103 19.04979759580547 14.941413898767735 0 0 0
670 1 1.8560397690519137 0.55493996693945 18.55328166123264 0 0 0
790 1 5.655336436909787 9.161995315176886 14.189378806313755 0 0 0
383 2 8.410097756127843 19.76315798331618 12.304559262817675 0 -1 0
673 1 2.820348706360395 5.147929818851103 20.320102953301348 0 0 0
795 2 8.881704045206384 8.830641757045031 14.392382743336222 0 0 0
775 1 0.8423633118165816 12.295623506833456 15.807138495737636 0 0 0
668 2 0.9930739063801808 6.640788385698991 15.857680180417127 0 0 0
707 2 9.373944411620892 0.797415337946866 17.85269506733564 0 0 0
353 2 6.750459033529711 0.7879127004092404 11.77369664720772 0 0 0
426 2 0.27699692564153555 0.7743018390667272 12.268721329926588 0 0 0
587 2 8.787829389451131 17.861159781754257 11.082751615814153 0 0 0
676 1 6.029970867021382 0.6274671390795075 18.811037332285125 0 0 0
793 1 9.241511756941799 8.842509030060649 13.51340174460577 0 0 0
788 2 0.4906408686040922 8.80794069390607 15.050685366388539 1 0 0
39 2 9.541963865858039 2.2021612257979086 19.573680598752947 0 0 0
602 2 9.596205623507231 18.88695784852065 14.334236389100873 0 0 0
436 1 4.3808308080447125 7.935760899501493 10.524066083291103 0 0 0
858 2 0.49934720567742996 7.514880489685339 18.768828908101465 0 0 0
336 2 0.6442190591775154 4.64324587752493 11.204726097423642 0 0 0
765 2 6.844494675389135 11.229651672757603 18.893793339800347 0 0 0
601 1 8.883099674139212 18.550376214849866 13.781351146209952 0 0 0
825 2 7.116742429873076 9.160341762615424 15.34707191422774 0 0 0
533 2 0.41206313331900757 7.3784978678907205 11.924971560969622 0 0 0
902 2 9.13920487997908 16.78841416121518 13.454027954051746 0 0 0
708 2 8.945942558377304 0.13724653291977454 19.33749718347386 0 0 0
334 1 1.4070713421293097 4.370075179686849 10.681932209518381 0 0 0
710 2 9.487321968162698 4.462079418359979 20.106515778829227 0 0 0
679 1 1.353479409906524 2.0428857927655475 15.618667613373153 0 0 0
758 2 3.9471843691755204 8.793661541574851 13.838959811500516 0 0 0
667 1 1.0374284771292994 5.674733510547653 15.635950157679325 0 0 0
920 2 7.048674664304891 0.14721004223590622 15.428453661803635 0 0 0
382 1 8.537669801103767 0.8149111668117903 11.992167930176052 0 0 0
437 2 4.144578396521369 8.839782797151159 10.672504083122396 0 0 0
757 1 2.9552745801981466 8.908805700048664 13.623185077413089 0 0 0
384 2 9.179518070411921 0.9073779633497316 11.25182206213158 0 0 0
347 2 2.7336160259353663 0.4362634622231928 11.31816061170149 0 0 0
792 2 5.706535619078561 9.987295845120663 13.58460196120859 0 0 0
785 2 6.168824168167109 7.988672092135044 19.54374185375572 0 0 0
706 1 8.922433179123843 0.9424272653198777 18.725488675304963 0 0 0
876 2 0.5896250250786342 17.52440864788021 18.395335406956914 0 0 0
551 2 0.7811506464829424 17.51843394115611 11.242432902993665 0 0 0
486 2 9.570165192603143 10.478619626831511 10.588331790510223 0 0 0
885 2 1.0486730891105085 18.72091743760932 16.365649468514352 0 0 0
599 2 9.440548534502504 14.231086620026046 10.764049257259177 0 0 0
495 2 9.018099303059504 12.206762703954313 12.789432594236393 0 0 0
37 1 9.761000066629029 3.0027706923278603 20.084145407407032 0 0 -1
680 2 0.533619024504888 2.470879570034453 15.511699484849034 0 0 0
877 1 4.272564038744501 18.764911158712223 15.467445008896192 0 0 0
563 2 1.0077768940459126 13.799715888136616 11.921323260526789 0 0 0
810 2 9.59923067171713 10.874160420639193 17.515740280063056 0 0 0
110 2 2.599188869972739 8.441415698035621 19.49455672916868 0 0 0
787 1 1.1349804826477878 8.355853879913882 15.635143232357823 0 0 0
493 1 9.207524646370528 11.647964619814285 13.575896489996982 0 0 0
586 1 7.942457529810703 17.6809088058933 10.751725591133722 0 0 0
600 2 9.188883755308753 14.553025558203204 12.24546133616706 0 0 0
687 2 8.706073220215181 2.0387782557714567 13.120192835451933 0 0 0
330 2 4.888117966124728 0.8274765318793901 10.78603338759395 0 0 0
819 2 8.894904523704291 12.489525017525683 19.41686694634577 0 0 0
883 1 0.8567085177136036 19.33861808249012 15.594149450869645 0 0 0
480 2 7.5038158949134575 10.698884017362225 11.514307721771491 0 0 0
764 2 5.406010043525433 11.107882547075981 18.575995311491557 0 0 0
566 2 2.624852532638053 18.898276043578633 12.796569013849286 0 0 0
456 2 2.475271899380598 7.8869463359273615 12.21491703835421 0 0 0
890 2 2.4214578864889957 18.63673032497508 19.336271200456995 0 0 0
893 2 5.594178691088909 14.70038893739729 19.57850243612444 0 0 0
552 2 2.3301657522620625 17.348913146441976 10.954346976806706 0 0 0
478 1 7.799157081775884 10.618627025888786 10.601677537467788 0 0 0
759 2 2.8017965551970625 9.900362516868551 13.574116274279616 0 0 0
879 2 4.122608348206826 19.645855664666467 15.81735667430754 0 -1 0
802 1 8.067858843804013 10.73895675922375 17.584155604600458 0 0 0
901 1 9.483762481720358 15.88434773242987 13.589076695963648 0 0 0
794 2 9.391133027517364 9.797636871015987 13.384983161328321 0 0 0
439 1 5.764300463581885 11.22019930420524 12.552950634773698 0 0 0
440 2 5.8236538831801585 12.189357914442821 12.733630019472319 0 0 0
441 2 5.091824160651804 11.123925211590759 11.861805707624137 0 0 0
872 2 5.910392963396933 18.669137541805664 19.036983133016307 0 0 0
457 1 2.3754695650926934 11.574443341561617 13.68996456718756 0 0 0
458 2 3.1566346245506405 12.033234293558946 14.075656668043539 0 0 0
459 2 1.6348680790985441 11.683074402926108 14.357230160599892 0 0 0
494 2 8.636444191971512 11.919515671697555 14.327648150700746 0 0 0
603 2 8.089892106933682 18.66184232765898 14.347321263789082 0 0 0
547 1 5.714973899740298 17.639777639085334 12.761990151147437 0 0 0
548 2 5.108617342374404 17.472230892633036 12.021711784299429 0 0 0
549 2 5.832825231821971 16.850649764577064 13.307361876536367 0 0 0
562 1 1.9651937349232231 13.661259137665416 11.957041861414126 0 0 0
340 1 4.166976044168688 3.756024172144749 10.528990344310511 0 0 0
564 2 2.1671273401073377 12.7515503335461 12.2928943810741 0 0 0
565 1 2.657282940265076 18.069705131756624 13.378479295815175 0 0 0
568 1 5.974245239370777 13.959255823726997 11.966384870200981 0 0 0
569 2 6.938227370621987 14.054441552277481 11.888784838014098 0 0 0
570 2 5.720546882931013 14.421915802247648 12.84048160629543 0 0 0
588 2 7.288261576263943 17.66800120365475 11.48084507641705 0 0 0
598 1 8.861004857312825 13.918328410307524 11.544881214829664 0 0 0
781 1 2.2488438026046746 11.826684169502087 20.361748416261182 0 0 0
763 1 6.004970873372059 11.551845451639418 19.129473791504207 0 0 0
766 1 1.6288359029004242 10.458323360942789 17.6546959761403 0 0 0
777 2 1.1753456344801638 13.238222156054947 15.876040809169647 0 0 0
768 2 1.4073982245606542 11.149968103758777 17.000214393425594 0 0 0
769 1 4.635784903348525 12.429372503138062 15.048644212343797 0 0 0
770 2 4.402787526354273 12.947518567188787 15.883127211260115 0 0 0
771 2 4.6025076716940525 11.533673002282367 15.30797409039492 0 0 0
783 2 2.0804802296041784 12.368142107163333 19.60626037012324 0 0 0
803 2 7.613216726965957 11.355226554554216 16.98811064149434 0 0 0
811 1 7.379255464102254 12.547740308712887 15.679585434549482 0 0 0
812 2 6.44737040120241 12.456367444896415 15.387235314593458 0 0 0
813 2 7.5318647139690755 13.528567922587326 15.807793437372023 0 0 0
897 2 0.825134755626115 15.525311900003864 16.648727553090254 0 0 0
865 1 2.6351486535540527 15.493692854859246 14.09374419385151 0 0 0
866 2 2.491719315560133 16.45417550204949 13.855049352865747 0 0 0
867 2 2.4078880512383147 14.909183308419903 13.354666894135493 0 0 0
868 1 3.924620709619951 14.358638660717816 16.980175381683676 0 0 0
869 2 4.673536052631639 14.187004697252261 17.62999984167505 0 0 0
870 2 3.033653975620329 14.263695199061614 17.46478191969833 0 0 0
871 1 6.109599393150408 17.735715276973544 19.09526563829773 0 0 0
873 2 6.955996938731905 17.669760042690985 18.56070335705512 0 0 0
874 1 1.0330090235291716 17.30208374956513 17.571706512564894 0 0 0
875 2 1.9333088004844945 17.00309463898242 17.746876163063064 0 0 0
878 2 4.05588399716525 18.2230570783943 16.231208536088076 0 0 0
880 1 3.84985281408941 16.906592813495205 17.73566742417186 0 0 0
881 2 4.018094056527203 15.991602640231456 17.366089094738808 0 0 0
882 2 4.580484856347143 17.149264543477187 18.401819793006208 0 0 0
921 2 5.959814784497971 18.73448946902168 15.29932196324811 0 0 0
886 1 1.7871590707571108 13.946578828670917 18.605029504380276 0 0 0
887 2 2.0183823040214284 14.416146568577243 19.438864878518537 0 0 0
888 2 0.8184656308523593 13.885159709305114 18.595684692342928 0 0 0
892 1 5.799895133080124 14.07848451672726 18.890434319574698 0 0 0
767 2 1.5153353921402497 9.597617681396759 17.20498420396926 0 0 0
894 2 5.756692182819033 13.104325050527473 19.16345733927852 0 0 0
896 2 1.48764063664682 15.341406141945948 15.324279701131829 0 0 0
898 1 5.357436553855787 15.323330756991522 14.281289331719856 0 0 0