LAMMPS data file via write_data, version 8 Apr 2021, timestep = 1655000

3072 atoms
2 atom types

0.07922892629087426 30.060965073705404 xlo xhi
0.1188704331165696 28.221595566879884 ylo yhi
0.09075753196544378 27.320687468025845 zlo zhi
9.996078034511832 10.0072697670352 7.148593039727823 xy xz yz

Masses

1 16
2 2

Atoms # atomic

1 1 7.528900576541918 5.346461951526811 4.124068413664805 0 0 0
2 2 6.765123800660336 4.8079440017186865 3.8176217011216416 0 0 0
3 2 7.301695278257233 6.277180663415316 4.34183269267127 0 0 0
4 1 9.538343732183614 6.9624109752894014 10.85934704814862 0 0 0
5 2 10.236904938417668 6.540036715336689 11.395605710390138 0 0 0
6 2 9.456838192597049 7.847737327969831 11.24351943956024 0 0 0
7 1 9.760834195882861 12.374613087398377 3.96004893436441 0 0 0
8 2 10.204709431166549 11.990183394199699 4.722549012514022 0 0 0
9 2 9.364322389180739 13.196385875354053 4.347588968179165 0 0 0
10 1 12.410791229844909 13.992955809962606 11.143773631815998 0 0 0
11 2 13.209323867443302 14.187970821150408 10.569335001215796 0 0 0
12 2 11.809993455735853 13.413625707455049 10.629310856462174 0 0 0
13 1 14.914399909582349 5.1833696589721745 4.1445225041171065 0 0 0
14 2 15.439965761286704 4.7088971182286326 4.844642598579934 0 0 0
15 2 14.392093980263436 5.856913249780707 4.551583241379244 0 0 0
16 1 17.36385443008368 7.185672587022983 11.06222288759483 0 0 0
17 2 17.735974107950543 6.8388104532404785 11.927293643235108 0 0 0
18 2 18.10121938092209 7.320358583853666 10.45213997538798 0 0 0
19 1 17.500563541837842 12.432645305292395 3.881583081574657 0 0 0
20 2 18.28158915384423 12.55745667945391 3.346735962788319 0 0 0
21 2 17.84028600097662 12.230584006934125 4.809637737846598 0 0 0
22 1 19.995256603932322 14.11511694098134 10.683279075591862 0 0 0
23 2 20.857484712998325 14.269385093620867 10.158745556764506 0 0 0
24 2 19.69501164780857 15.048806944209874 10.842930307767094 0 0 0
25 1 11.516366853473453 8.097283600247216 6.330598253848262 0 0 0
26 2 10.702066028492176 8.608808626391236 6.111121581583791 0 0 0
27 2 11.250429561405946 7.3314281164329556 6.920066594001783 0 0 0
295 1 8.371236539254745 13.999631494211055 1.955337262465231 0 0 0
29 2 14.463380586992509 9.458604688519573 12.2310206777808 0 0 0
81 2 4.595241498552293 7.27834608211718 0.8765954414180754 0 0 0
182 2 17.312441688566064 3.8362843150676413 5.709107214696556 0 0 0
1617 2 9.085779428843173 11.909307502362378 13.484599243455586 0 0 0
32 2 14.157442482121175 14.952331895213433 5.539126170874229 0 0 0
38 2 18.12312119141349 8.870097773351569 5.97706934112136 0 0 0
87 2 8.549443900762196 1.1090722651975722 1.2762459218593443 0 0 0
275 2 14.084236580549005 15.687522948141877 9.144683478945913 0 0 0
172 1 11.235619990233916 6.2245994143114265 12.934926104168017 0 0 0
49 1 5.311170874543749 3.806793309986496 3.056419404025224 0 0 0
50 2 5.5121650284787425 2.9033031503858244 2.6628043562129577 0 0 0
51 2 4.641889002623171 3.597538406739877 3.754592963322415 0 0 0
52 1 7.705765519224947 5.225868429405679 9.647185313724217 0 0 0
53 2 7.363829856994507 5.747982540294488 8.853147041237088 0 0 0
54 2 8.335913285824814 5.879452498428988 10.079531041709933 0 0 0
55 1 7.761750570774518 10.878262468734954 2.983854770954999 0 0 0
56 2 8.034852904223273 10.003181349960279 2.717488033080102 0 0 0
57 2 8.526468463749994 11.338030070337329 3.358840008253115 0 0 0
58 1 10.35542022801292 12.573701341401094 9.883607293294473 0 0 0
59 2 9.981357008260114 13.11813259415744 9.175149366840632 0 0 0
60 2 10.656193881487658 11.728550958014935 9.569478298376852 0 0 0
61 1 12.762779761922893 3.4025118620290122 3.1670992185829694 0 0 0
62 2 13.39504416544844 4.075948428111111 3.50587331582743 0 0 0
63 2 12.436626441884831 3.7412946224096704 2.3106533854346023 0 0 0
64 1 15.186099471484338 5.506140173775866 9.848905125378288 0 0 0
65 2 16.02336388554631 5.871367793366139 10.08696311455065 0 0 0
66 2 15.387489216020187 4.630258898269581 9.530468666597605 0 0 0
67 1 14.981724308295933 10.770971427630922 2.821437834079063 0 0 0
68 2 15.718992964138241 11.323096212351384 3.061376427311892 0 0 0
69 2 15.3557161441172 9.916342313692013 2.549086409178601 0 0 0
70 1 17.630631420695114 12.645839605217253 9.59393279966293 0 0 0
71 2 17.190671807789602 13.113930964604453 8.90472128834367 0 0 0
72 2 18.513425224494455 12.985407375687997 9.798871363064189 0 0 0
121 1 3.195631636860647 2.777648768761643 4.549909185416141 0 0 0
229 1 13.533472684858431 0.9220122252989419 2.0431725512569123 0 0 0
84 2 7.031899245895643 9.105887013566957 7.929114952163184 0 0 0
338 2 4.6147602539979955 5.468658117523585 4.41384943516233 0 0 0
310 1 18.040230227258483 15.693860341109563 8.752698601487632 0 0 0
90 2 11.590012221838563 2.9781894101651027 6.752340313192145 0 0 0
94 1 13.53482879120261 9.542616176108274 7.687232860167801 0 0 0
95 2 14.395012552871854 9.050478306868287 7.928560732164198 0 0 0
96 2 12.958070028956174 9.018755111153549 7.142967399136341 0 0 0
97 1 5.500644150990325 3.9918937374210497 6.037138597624655 0 0 0
98 2 5.9190484976974265 4.75860996752818 6.455828416198394 0 0 0
158 2 15.229981142883885 2.0402761691189317 5.8609583486001915 0 0 0
101 2 7.472792455307097 6.987171479770523 12.090946897982148 0 0 0
102 2 8.249942880509815 5.7178626522780265 12.290676069199455 0 0 0
103 1 8.025987342036169 11.333891341169743 6.2726017422974305 0 0 0
104 2 7.6199932775360075 11.812772974892749 5.469376124122535 0 0 0
105 2 7.321726597354543 10.735642188360316 6.633382624033914 0 0 0
108 2 10.55587098925268 12.289742527854312 12.389145268546509 0 0 0
109 1 12.881771853015508 4.312475681013289 6.337523997202389 0 0 0
110 2 13.539062593145989 3.8173429946780923 5.813190560465792 0 0 0
111 2 12.522563343437922 4.981581392183747 5.70803074210503 0 0 0
318 2 5.594241788539328 6.842155650390708 7.831993869584192 0 0 0
115 1 14.893181730316455 11.290427943338912 6.216675498712771 0 0 0
116 2 14.121500452902382 10.767867684369238 6.633108203346983 0 0 0
117 2 15.198965416223274 11.888267801503872 6.921319638807567 0 0 0
118 1 17.50553507789784 13.403906737512097 13.102722131847566 0 0 0
120 2 17.138966003898698 13.881691454699622 12.34782900094631 0 0 0
367 1 9.617260915774805 14.750430551046762 5.166999854196665 0 0 0
124 1 5.516006951851571 4.4092398839127345 11.050901169826476 0 0 0
125 2 6.200729294791165 4.953929306532592 10.560688138141394 0 0 0
208 1 18.530194037990633 4.472067103115976 9.367462225718555 0 0 0
31 1 13.838054398941024 15.37654527339663 6.360696531502459 0 0 0
129 2 6.437169619677062 10.514949410287123 3.7768674027598435 0 0 0
132 2 8.847714679973652 11.807937168717832 10.903963318266584 0 0 0
133 1 10.66163460878757 2.6316647431794915 4.274556816511228 0 0 0
135 2 11.515979832950737 3.012634926624168 3.945355296701952 0 0 0
136 1 13.038696065506711 4.516360993948272 11.258184328902386 0 0 0
137 2 13.7325096208931 5.101671823539967 10.908089834726383 0 0 0
138 2 12.637798710372598 5.005073479707027 12.025913154521085 0 0 0
139 1 12.852416301809228 9.765474422622606 4.361900862301288 0 0 0
140 2 13.59915757039725 10.126232964582863 3.8946385055381265 0 0 0
141 2 13.216971021818539 8.907161851804824 4.62946813598977 0 0 0
142 1 15.68275167265165 11.773522348169504 11.100211284372698 0 0 0
143 2 16.458302220340265 12.127122876262941 10.618207263524061 0 0 0
144 2 16.05289239066902 11.082807950567638 11.667048767452023 0 0 0
147 2 6.60651717244716 2.6272986696599165 5.462708344092004 0 0 0
379 1 16.892754141185836 14.936266110129994 5.247674246214065 0 0 0
149 2 9.706046681608623 3.850063189581163 11.012236185683982 0 0 0
151 1 9.325288002468222 9.217023964205488 5.157697580679378 0 0 0
152 2 8.910790775805847 10.013293592750117 5.4716073365126965 0 0 0
153 2 9.699811245793068 9.38235924903849 4.246757440204642 0 0 0
154 1 11.689234256460896 10.81806106620615 11.997637116215763 0 0 0
155 2 11.022755188850784 10.088400995076322 12.129715326676378 0 0 0
156 2 11.95021842092658 10.77129830861489 11.039662232271539 0 0 0
157 1 14.453326195933437 2.3459442179399295 5.321615515433111 0 0 0
123 2 3.4345378234844532 1.9324936190307793 4.955772234278911 0 0 0
159 2 14.789017268149209 2.2983210664743816 4.38090880980296 0 0 0
160 1 17.041225300821267 3.9252603783725686 12.064060750816399 0 0 0
161 2 16.63152523555088 4.782342218505805 12.259651093581413 0 0 0
163 1 16.603990189986707 9.491222197671876 5.3059866114619005 0 0 0
164 2 16.071766991084058 10.193873688573618 5.712300607896841 0 0 0
165 2 17.024999574935112 9.799973876602754 4.509438619248481 0 0 0
166 1 19.2254484176166 11.552891275596957 12.18511632888779 0 0 0
167 2 18.85726342244446 12.335499947593377 12.440482585642021 0 0 0
168 2 19.705537067648145 11.75755076992026 11.41146029144353 0 0 0
169 1 9.001530251144821 4.093113336167248 5.970616016685459 0 0 0
170 2 9.551053670233488 3.535227810717126 5.33591555247838 0 0 0
171 2 8.45512782950723 4.601297490571531 5.284177312551148 0 0 0
127 1 5.699326814155531 9.940080784403081 4.1860978619634945 0 0 0
175 1 11.080264598368935 11.374683975262524 6.08994443639144 0 0 0
176 2 11.730870623901005 10.87181904317422 5.594354872510597 0 0 0
177 2 11.61694526966804 11.96342599061194 6.620170471371554 0 0 0
178 1 14.088068222252616 13.118630719164344 12.993917909964654 0 0 0
179 2 13.367644070996608 13.330784596348545 12.369206609037981 0 0 0
180 2 14.795737087346735 12.858152175111277 12.366339524851442 0 0 0
181 1 16.633551385749605 4.361050303145346 6.126612180340419 0 0 0
131 2 7.249174511685907 11.381602630357458 10.672013286804711 0 0 0
183 2 17.10642639348146 5.0962605001964585 6.540025774549102 0 0 0
184 1 18.936102964083226 6.326738518862103 13.0198696543919 0 0 0
187 1 18.79648001378256 11.584520508091105 6.146100333288154 0 0 0
188 2 18.27660615132983 11.11355551801679 6.824928830795552 0 0 0
189 2 19.08159137863769 12.414301910780637 6.560899763166093 0 0 0
241 1 7.772012118889239 4.378684415968123 0.985120852876653 0 0 0
192 2 20.794313710771448 13.781130972533226 12.128072794379932 0 0 0
193 1 8.435879063460455 2.167845824772686 2.748263125871901 0 0 0
194 2 7.782689118781623 2.118312816376025 3.4885578882684745 0 0 0
195 2 9.35310161621817 2.3311918582069366 3.1546376338696542 0 0 0
196 1 10.813783560325005 4.290576846375046 9.502894401704392 0 0 0
197 2 10.76946841395114 3.5802920934158524 8.862679187493645 0 0 0
198 2 11.788089862477424 4.315286605348341 9.83333169094877 0 0 0
199 1 10.765955638115756 9.70628302262189 2.8174827221839593 0 0 0
200 2 10.883379290986706 8.946750369730552 2.226486288831279 0 0 0
201 2 11.652443721747867 9.738625778171018 3.315062731456928 0 0 0
202 1 13.286581321402634 11.42093958155036 9.625122587640648 0 0 0
203 2 14.146546613437518 11.475481039767569 10.093883976743568 0 0 0
204 2 13.237153033895416 10.650773306181183 8.968631468399844 0 0 0
205 1 15.717393477692431 2.2035306862269004 3.010299030227746 0 0 0
209 2 18.040908705025096 4.248861633748926 10.179781706697145 0 0 0
722 2 18.60057246966173 6.232583233247442 4.111157825165531 0 0 0
213 2 18.012698802385113 10.443530979852195 2.4305270975152666 0 0 0
214 1 20.65170401240731 11.732566639377824 9.507535616501267 0 0 0
122 2 2.9170092515282255 3.2585671994345717 5.327252453883165 0 0 0
30 2 13.506856765820874 10.557717463348734 12.693766576202732 0 0 0
319 1 6.304236859015158 11.751496756695742 0.9475483961088405 0 0 0
221 2 8.137976961745295 3.73435863998152 8.977925312464414 0 0 0
222 2 8.323298893220826 3.148234206535867 7.5169344638245335 0 0 0
223 1 8.036156762120926 8.535691969454595 1.8911779852139585 0 0 0
224 2 8.693874212737915 7.959896063627835 2.286569875928914 0 0 0
225 2 8.36457194086392 8.689001751218424 0.9779147103852929 0 0 0
226 1 10.615322579209533 10.245784085797768 8.66151710009062 0 0 0
227 2 11.206059307833304 9.547104106949924 8.97128966127358 0 0 0
228 2 10.89001567184013 10.41750599001828 7.7351217722859635 0 0 0
231 2 13.219933946028634 1.648104233228462 2.5757457062818405 0 0 0
234 2 16.09950476025949 3.538304297605991 7.685298397688288 0 0 0
235 1 15.413689722059464 8.565251793686796 1.8899109147989601 0 0 0
237 2 16.010546694933065 7.851807115870238 2.0976114114469104 0 0 0
238 1 17.67502195225355 10.184012626170116 8.685180300540488 0 0 0
239 2 18.45125993756929 9.69658688825612 8.850818340199003 0 0 0
240 2 17.725172033405535 10.999402177099086 9.210924463546379 0 0 0
242 2 7.951118999495824 3.7681880809194697 1.6670574357157526 0 0 0
243 2 7.109278407989285 5.0197864778888235 1.2968956471127413 0 0 0
244 1 9.999936955140022 6.119302312213421 7.589018637338898 0 0 0
245 2 10.35786384838768 5.575784094809971 8.28545651306408 0 0 0
246 2 9.56302929748089 5.510378473636344 6.968815094572429 0 0 0
247 1 9.970838682419723 11.555465629327024 1.1543769477280348 0 0 0
248 2 9.490485708908992 12.338703549495802 1.348706946588588 0 0 0
249 2 10.249547293416882 11.171059063054253 1.9769825908056147 0 0 0
250 1 12.370007430624392 13.362272258226394 7.589027000136173 0 0 0
251 2 12.759173114189913 12.948204433807062 8.386026390860136 0 0 0
252 2 13.020809432040627 13.92596439774955 7.187961621750331 0 0 0
253 1 14.74885925533423 4.607085584885389 1.03024503129426 0 0 0
254 2 14.985429789989379 3.958456292601036 1.7061171357682947 0 0 0
255 2 14.023430004000144 5.194209825498603 1.4063242724309686 0 0 0
256 1 17.742522230605328 6.387316807880994 7.529911404727682 0 0 0
257 2 18.075551781752782 6.017936115963945 8.360922327756358 0 0 0
258 2 17.071374557000617 7.02803266347657 7.769162978903153 0 0 0
1532 2 26.144868144930044 1.4579339778891978 4.84405443438321 0 1 0
260 2 16.83496320873712 12.318563869526576 1.2806785166493433 0 0 0
262 1 19.9208824767604 13.56598423565646 7.503637472059691 0 0 0
263 2 20.350531729970786 12.995139546390295 8.128064160673027 0 0 0
264 2 20.605257319693862 14.17703257746957 7.150161786730918 0 0 0
265 1 9.714191010563953 6.315730801500975 2.7003080872376746 0 0 0
266 2 8.944000279820731 5.898075836034531 3.09079193932289 0 0 0
267 2 10.027774540320653 5.7369327883850945 2.0138939875683333 0 0 0
268 1 11.90726278783069 7.922293262332576 9.61727421272509 0 0 0
269 2 12.2874799417551 7.288931104729213 8.97766255554558 0 0 0
270 2 11.023930029874252 7.593561021985658 9.954803153690717 0 0 0
271 1 12.11750830253111 13.159760605314075 2.915257221167864 0 0 0
272 2 12.839022651553561 13.182033792273463 3.5943915694898974 0 0 0
273 2 11.24580977350479 12.85961275855069 3.1993484091152746 0 0 0
274 1 14.410002553918837 14.887944748436233 9.56843418169786 0 0 0
99 2 4.810308799519606 3.6362965147138913 6.6057641132811105 0 0 0
276 2 15.077070863497292 15.203646522915536 10.19363744924559 0 0 0
278 2 16.40219513411443 5.983169828363545 3.006685691718155 0 0 0
280 1 19.666316340187237 7.884687832126928 9.377119269740268 0 0 0
283 1 19.95120675023466 13.257489630967173 2.806695708461513 0 0 0
289 1 6.079061761760972 6.4134708099797795 1.4899844543274257 0 0 0
290 2 5.740277141666769 6.200148679086042 2.3723962915913326 0 0 0
291 2 6.767593288823432 7.074555176406377 1.7460503820050581 0 0 0
292 1 8.526926027771191 8.410171975178082 8.710452434328229 0 0 0
293 2 9.102242650976125 7.639224571327215 8.493252227433107 0 0 0
294 2 9.190976712368952 9.16630426667743 8.765937702060764 0 0 0
185 2 19.433019418478878 7.028459052734745 13.568511968061179 0 0 0
296 2 8.090596052152902 13.770497788498162 2.8410148997775853 0 0 0
298 1 10.896889069799514 15.798210533605952 8.913328118086875 0 0 0
299 2 11.270066324616392 15.054062832508905 8.372710987535203 0 0 0
301 1 12.993927528330104 6.725508220337525 1.840271622900569 0 0 0
302 2 12.655203788412054 6.678543776309208 2.782082455189276 0 0 0
303 2 13.699622570333286 7.443223815351953 1.943200561257373 0 0 0
304 1 15.771106667896895 8.339679117981273 8.667005456507923 0 0 0
305 2 15.371646268827059 8.159442108009364 9.604943884819516 0 0 0
306 2 16.45054006703783 9.044207116524907 8.724634220121624 0 0 0
307 1 15.873315586867452 13.753742396215394 2.102388743640645 0 0 0
93 2 11.748831367956363 7.392255612280329 0.8224670516254367 0 0 0
134 2 10.952934155218415 1.8202876242058332 4.690251500187752 0 0 0
311 2 18.471925219662026 15.051917631124683 8.186729848672853 0 0 0
315 2 4.261326795426104 4.232352535536383 1.6531706314243504 0 0 0
316 1 6.287104665265848 6.389469793611038 7.323710079806207 0 0 0
317 2 6.572966437209167 7.054763748834922 6.642469127739868 0 0 0
321 2 7.034894585551456 11.556562237650919 1.550259375947471 0 0 0
322 1 8.783362021460299 13.63272756068552 7.758867768685993 0 0 0
323 2 8.110202929669283 14.051629944505208 8.344874034067637 0 0 0
324 2 8.379196311786698 12.854708710193725 7.339122838720406 0 0 0
325 1 11.251646032509012 4.690326766305396 1.0485820523937346 0 0 0
328 1 13.552500354296821 6.426681725377328 7.774342636810641 0 0 0
329 2 13.350176965147083 5.551239439801078 7.365470625032687 0 0 0
330 2 14.270415484041743 6.2190507533726285 8.405653273553604 0 0 0
314 2 3.2162328376618676 3.8863598687845546 0.6821594626411766 0 0 0
332 2 12.781359470786576 12.202881889675135 1.634246164266563 0 0 0
333 2 14.203139305276384 11.55423443015886 1.5173772309321496 0 0 0
334 1 15.965688781422058 13.395373145928756 7.445522490530751 0 0 0
335 2 15.868641349538763 13.85875563648111 6.600598254194715 0 0 0
336 2 15.428914876730289 13.958171873676326 8.059539126142678 0 0 0
340 1 6.685333668880963 7.990917128279997 10.62146829420288 0 0 0
342 2 7.433718212667509 8.333395805846763 10.07967759323985 0 0 0
343 1 7.120187987098228 13.298265190485887 4.554736452715156 0 0 0
337 1 4.434409505223858 6.357832974188416 4.080706216808224 0 0 0
346 1 9.316525092073999 15.134342009476061 10.973614481894595 0 0 0
347 2 10.06155875914745 15.346868531790484 10.37109214242365 0 0 0
348 2 9.674286551475706 14.361138721702913 11.505820488146753 0 0 0
349 1 11.964237836608676 6.12424833836157 4.448769719208429 0 0 0
350 2 11.897923102097879 6.9034925950391255 5.0643912797158395 0 0 0
351 2 11.06038555753006 6.191102325032769 4.010930492835599 0 0 0
352 1 14.510268729354936 8.12054916893022 10.887919017284155 0 0 0
353 2 14.769253661563708 7.401547509308558 11.570602998422844 0 0 0
354 2 13.596826491613795 7.960491781829222 10.657589125453296 0 0 0
355 1 14.282683837563475 13.49916218568466 4.4478423678963726 0 0 0
356 2 14.591050023591558 12.572077538946619 4.7431751224944865 0 0 0
357 2 14.823701451803833 13.673255754025798 3.672247390534142 0 0 0
358 1 16.655841433658843 15.266172631363624 11.147001566316433 0 0 0
359 2 16.652965940036765 15.897160270639388 11.932084781242613 0 0 0
360 2 17.292801753739024 15.67442721782204 10.476703525384975 0 0 0
361 1 7.188058858315573 7.714241714284527 5.1686391266783565 0 0 0
362 2 6.52827695770599 8.370016799021128 4.7755574990288725 0 0 0
363 2 7.977024186854544 8.31694485371078 5.2429112222751035 0 0 0
364 1 9.331374814328228 9.205609796601633 12.231723566620479 0 0 0
365 2 8.835978464175344 9.97637062833906 11.942429937631434 0 0 0
366 2 9.090937248749553 8.899780463000484 13.106111643856842 0 0 0
211 1 18.23106981947215 9.692636961562771 3.0491857053674503 0 0 0
369 2 9.395312046510867 14.45048962425983 6.095972750546917 0 0 0
215 2 21.535991578766886 11.891622311660473 9.931224644152966 0 0 0
126 2 6.118161235958636 3.7461892869163367 11.473209674270377 0 0 0
372 2 11.988218316554693 15.505497169197456 11.60116332425273 0 0 0
373 1 14.562531008374238 7.548293386982413 5.490651021880322 0 0 0
374 2 15.271259494591972 8.244215793449198 5.546224007916019 0 0 0
375 2 14.386992807502619 7.366340737857785 6.4570714978184665 0 0 0
376 1 17.088262302539988 9.565393404577316 12.44455172494458 0 0 0
377 2 17.84097379947191 10.14809088353314 12.36006557192645 0 0 0
378 2 17.24471381144502 8.858147354036639 11.767063379729283 0 0 0
130 1 8.080149766622784 11.324726897784117 11.256328912731464 0 0 0
381 2 17.050752971636715 14.223032954763315 4.647161173749175 0 0 0
382 1 19.632192659542174 16.343467109860107 12.142138382119743 0 0 0
148 1 9.138794892872946 3.882409287100286 11.841729298185314 0 0 0
297 2 7.542722874800905 14.322809573834165 1.5051506511954869 0 0 0
614 2 28.609983573766467 0.8338932050971053 2.4180033278912654 0 0 0
220 1 8.272721230372431 2.8923225022901287 8.485256665927789 0 0 0
112 1 15.336820365373116 6.418174767843215 12.757094285374203 0 0 0
1857 2 11.249146992688148 15.278054616940246 13.378595504359794 0 0 0
232 1 15.817616103296281 3.247964360142192 8.542922990532485 0 0 0
212 2 18.26347255819621 8.944578395597498 2.4242458717270896 0 0 0
286 1 22.2392930724989 14.956533610596278 9.225890215977135 0 0 0
219 2 5.832190857013221 1.1680201523666787 0.9178398727591532 0 0 0
78 2 33.336932078665185 3.28707185041459 8.300448213588066 -1 0 0
313 1 3.710706276404775 4.628750073833472 1.0121922726262387 0 0 0
370 1 11.861020747244105 16.353587724582102 12.140853534354786 0 0 0
285 2 20.69690895047685 13.377072979176807 3.4509243338349487 0 0 0
710 2 26.494039449988453 5.492107773899254 0.2814267364815275 0 0 0
672 2 36.75436570682206 15.822060247329421 9.208477010003154 0 0 0
384 2 19.50936898780059 15.983595663247737 13.04078685404377 0 0 0
217 1 5.84343235189121 1.1921548405887867 1.9016257409990853 0 0 0
1722 2 13.998874722980915 1.8519994318357553 0.1518730798449842 0 0 1
218 2 5.033484926407761 0.6982383697785349 2.1686773257481478 0 0 0
85 1 8.940451305728326 0.5906216704487858 0.47676381417483465 0 0 0
426 2 35.958712674160495 8.910777092604402 13.623499097578948 0 0 0
128 2 5.032842139953618 9.772690352666036 3.519110771462833 0 0 0
429 2 37.20629239504233 15.609602800954235 6.818695428265891 0 0 0
73 1 1.2499433420957524 0.7737183714292698 0.7925231836135277 0 0 0
751 1 24.654692051211292 14.761134935234885 5.071855212994105 0 0 0
80 2 3.197506032785659 7.493750712952132 0.3118316821150577 0 0 0
531 2 21.17789842232465 1.6342640001499018 5.213486454673162 0 0 0
206 2 16.577550820587756 2.6288765443259217 3.2400864381281984 0 0 0
461 2 18.78034778036599 3.1043322333560766 8.19413993293141 0 0 0
145 1 6.907399582326173 1.719307517174807 5.178729033218018 0 0 0
1188 2 25.654751167362402 3.6772571386741055 12.666167852019043 0 1 0
681 2 24.401458539932985 14.31881178141887 1.5830759614197953 0 0 0
341 2 6.562434219443489 8.755598490152352 11.260354018235207 0 0 0
288 2 21.799892942945633 15.801978502155741 9.174692423146825 0 0 0
309 2 16.56586608153134 14.361681065263419 1.8111642477521697 0 0 0
627 2 23.00993359459833 5.369581518202433 0.3515390827066963 0 0 0
371 2 12.683641839010757 16.85581749359163 12.140015758448577 0 0 0
683 2 25.153168620820967 15.972723055979055 8.32232348200605 0 0 0
472 1 25.95582311438395 2.568954510120059 7.432870621648369 0 0 0
432 2 9.249205067074243 16.210006634450263 12.445182551670934 1 0 0
503 2 32.0375241391693 12.835799282140425 13.263264611543162 0 0 0
469 1 23.27241239985449 1.1038210544837037 0.6808034038788228 0 0 0
88 1 11.289900679234005 2.3927579193117925 7.448190476233346 0 0 0
605 2 22.16751060061795 2.582838643091105 8.539373891633753 0 0 0
542 2 29.97210938587168 2.039942385218222 5.67023670855428 0 0 0
498 2 30.266493034075523 7.100103624106403 13.331128366490258 0 0 0
569 2 34.57728941118054 5.685404818515151 12.047309667569142 0 0 0
466 1 21.00577264392904 9.818039886166737 7.570658936309202 0 0 0
106 1 9.865128698390606 12.924234405729784 12.6657529987765 0 0 0
76 1 3.640278204068726 2.573737147023908 7.633310004400783 0 0 0
216 2 20.73103419878928 10.856267462257888 9.119039564295738 0 0 0
339 2 3.567340408858215 6.37011542096036 3.656355681698976 0 0 0
37 1 18.97120913049041 8.545255577892144 6.388642881496128 0 0 0
277 1 17.135640069546415 6.554919016747302 2.7331523471633914 0 0 0
236 2 15.556269885747243 8.935647649662132 0.9749442539629497 0 0 0
471 2 24.045826218441142 0.5267173310692437 1.0605693489354744 0 0 0
1584 2 18.677245594834822 12.730140090549106 0.19991600257879152 0 0 1
287 2 22.994497727491197 15.15354887624116 9.836464506077471 0 0 0
191 2 21.430431578711836 12.87472509677419 13.396482420492248 0 0 0
150 2 9.800078685819805 3.72404869373154 12.55438140104787 0 0 0
91 1 11.041089033256094 7.940819857612638 0.4839886846390592 0 0 0
259 1 17.546557150618252 11.699340062163005 0.9831014164098071 0 0 0
2234 2 23.765495823603157 8.769836130803258 13.70481539991367 0 0 0
39 2 18.68878032203627 7.736900946108349 6.839439714202763 0 0 0
82 1 6.266630465028686 9.60514579107529 7.543463550762252 0 0 0
190 1 21.589098500380423 13.587763345525104 12.73723149371404 0 0 0
705 2 20.95584678614647 11.139814219808224 0.4121407990937011 0 0 0
207 2 15.840133590147436 1.4585416457188394 2.3774874499450966 0 0 0
383 2 20.40232711837726 16.90819445235742 12.113288975313683 0 0 0
43 1 21.778555108556773 15.339137520911159 6.278426691643697 0 0 0
344 2 7.128528064204074 14.007834949979134 5.196819966796211 0 0 0
692 2 30.028972201751323 13.975538001308577 1.3107371887446453 0 0 0
419 2 30.84662293560038 16.26502252653301 13.67013953081713 0 0 0
345 2 6.32093982564866 13.266505064233009 3.9738463059637112 0 0 0
282 2 20.366528550925562 8.187699654530693 10.012500970647475 0 0 0
492 2 24.423614956194417 12.780097187401797 13.553626051241052 0 0 0
279 2 17.572685416363345 6.167283621735332 1.9560222982302937 0 0 0
512 2 20.16986126290534 10.861724955804979 4.839619807770945 0 0 0
100 1 7.546367241648836 6.237281406900488 12.6748220634693 0 0 0
320 2 5.988966975931311 10.90059300411384 0.5048229548992926 0 0 0
312 2 17.26548245606784 16.01210098300118 8.241134201321723 0 0 0
703 1 21.39540194095146 12.005322063844353 0.7203508093941782 0 0 0
45 2 22.05819708352622 14.763405252405052 5.507456716909951 0 0 0
597 2 33.35208597338524 9.063476470785922 2.1134863442907528 0 0 0
594 2 4.2491750457657 4.093002604481513 9.935528657036821 1 0 0
618 2 29.66697625069247 2.6439104670369544 8.622574338617127 0 0 0
34 1 16.584222614432054 16.994856567198298 13.137301502756081 0 0 0
570 2 34.38146453157153 6.7534231223223635 13.200088322806483 0 0 0
308 2 15.05746132548591 14.00154313658963 1.5890546805074544 0 0 0
460 1 18.974362990578182 2.5504926500710114 7.4399755355338995 0 0 0
723 2 19.283908129920288 7.198636593196331 5.011981558959322 0 0 0
42 2 20.62209204814232 10.557557527539316 13.07458815471901 0 0 0
417 2 29.961258784814177 15.400346724391214 6.623330079585872 0 0 0
327 2 10.679561999293336 4.042441342243762 0.621243229744319 0 0 0
754 1 26.759253071670354 16.405119443695682 11.704189940928773 0 0 0
855 2 12.805596807907671 14.196942341558866 0.7705883294576307 0 0 0
41 2 21.541214487207885 9.58248649658568 12.364457364841664 0 0 0
530 2 22.54083884749825 2.2560263769555724 5.687781635985348 0 0 0
412 1 29.060728004104607 9.953829508190898 13.02075880940522 0 0 0
418 1 31.27200744082321 16.887088530170487 13.03227441422264 0 0 0
669 2 5.344007370007837 12.72904470685713 2.1263497559328304 1 0 0
638 2 29.734627284806237 5.13743110060255 1.3211034954593024 0 0 0
671 2 37.838714228483944 15.077402108658243 10.1774936365628 0 0 0
430 1 39.04417918895446 16.718682244529006 13.289317063818935 0 0 0
763 1 32.22125615765413 14.739090049280957 5.042719139578317 0 0 0
385 1 22.47010786826065 5.522252007654888 4.194580583694306 0 0 0
386 2 21.84359104380692 4.9498626079700605 3.7376810061762407 0 0 0
387 2 22.876538338619703 5.015264644486777 4.9435637903149745 0 0 0
388 1 24.933238127941937 7.226991886105082 10.752391932512479 0 0 0
389 2 25.258962831793806 6.716744310410176 11.509472053189514 0 0 0
390 2 24.131410938303098 6.7600925476652876 10.473791356124458 0 0 0
391 1 25.209078911931794 12.406122914400584 3.8997197400218897 0 0 0
392 2 24.402715403557753 11.920352178026533 3.5481570539675342 0 0 0
393 2 25.893405134183464 12.60839125174774 3.1859058432192704 0 0 0
394 1 27.327315843428252 13.984127125466516 10.654642667999692 0 0 0
395 2 27.070376636857922 14.889271462326136 10.870450901681291 0 0 0
396 2 26.57333817930291 13.595793009630583 10.165870942365327 0 0 0
397 1 30.11635348815623 5.2524198471519306 4.291776658965214 0 0 0
398 2 29.5584786744112 4.6797013751283565 3.678570277991728 0 0 0
399 2 30.883824774721326 5.531778550650321 3.7488446412950682 0 0 0
400 1 32.17232472364291 7.026403948255589 10.795510203559518 0 0 0
401 2 31.842064247703433 7.91431670779081 10.998208604534431 0 0 0
402 2 32.65504514407506 6.6617556044973245 11.584245441377567 0 0 0
403 1 32.6948382499258 12.128937654123613 3.8242207113300015 0 0 0
404 2 32.840621339883185 11.921159072381444 4.74471441290033 0 0 0
405 2 33.51946384615107 12.51957515754627 3.461493578124461 0 0 0
406 1 34.97687939411042 14.122007650392542 10.615198432088476 0 0 0
407 2 35.28823767158514 13.82070181505046 11.453146796329793 0 0 0
408 2 35.68594777215604 14.432018389819737 10.032412023021005 0 0 0
409 1 26.46132473277302 8.227876297241295 6.193229208833629 0 0 0
410 2 25.9997847325992 7.728676763387387 6.923855873874897 0 0 0
411 2 27.093607333882357 8.867568075694052 6.569076679371477 0 0 0
413 2 29.161411782138686 9.400700916037424 12.165767146181192 0 0 0
284 2 20.302730144814557 12.705556326935906 2.122353131230439 0 0 0
416 2 28.745762035031824 14.429227280346703 6.897001922498668 0 0 0
420 2 31.752639864065866 16.27903442448483 12.451813298993878 0 0 0
422 2 4.4081706566318095 7.582110766795882 5.377817816719058 1 0 0
425 2 35.75464913410169 10.172757314229344 12.696731715418347 0 0 0
730 1 24.246508312752148 15.20865213665297 11.027813704523771 0 0 0
79 1 3.9444816294099754 7.962921392539798 0.7549830630438723 0 0 0
433 1 20.428543967105423 4.225303941303229 2.7648470024675493 0 0 0
434 2 19.823641155413586 4.5443169916386115 2.0089752488745574 0 0 0
435 2 20.602888872716214 3.328377597292894 2.40370715750857 0 0 0
436 1 22.50129353238044 5.8018841940404915 9.613757905415271 0 0 0
437 2 22.597812937524495 4.797915692561092 9.4820330066459 0 0 0
438 2 21.937510077586765 6.143440790129261 8.821454799176472 0 0 0
439 1 23.016860630756643 11.049436783171467 2.7707845465842857 0 0 0
440 2 23.314279485894172 10.172038910652097 2.4066743934319197 0 0 0