LAMMPS data file via write_data, version 15 Apr 2020, timestep = 200000

972 atoms
2 atom types

2.0457650631366242e-01 1.9786476493686884e+01 xlo xhi
1.3201777297955353e-01 1.9859035227021913e+01 ylo yhi
1.5632015157923362e-01 2.0644451848420658e+01 zlo zhi
3.4701569825065021e-01 -6.6717678612713285e-02 2.3088200545198220e-01 xy xz yz

Masses

1 16
2 2

Atoms # atomic

4 1 3.6896846470210765e+00 1.3361777497854028e+00 2.8961695607200779e+00 0 0 0
5 2 3.8105705206805731e+00 2.3086588493955373e+00 3.0409451869196169e+00 0 0 0
6 2 2.9446017420037673e+00 1.0627024144036414e+00 3.4923461192317506e+00 0 0 0
7 1 5.7580212464464839e+00 4.3964147774093725e+00 5.2320644576675441e+00 0 0 0
8 2 6.6802303639478167e+00 4.3068749255038954e+00 4.8339564841171141e+00 0 0 0
9 2 5.1601296458571584e+00 3.9932994991860067e+00 4.5645619615359898e+00 0 0 0
10 1 1.6614711197281027e+00 4.4255209490656284e+00 3.7262214894314658e+00 0 0 0
891 2 4.1047013922055164e+00 1.8816780262186889e+01 4.2359034449539801e-01 0 0 0
12 2 1.4811845198091675e+00 5.2840907392994039e+00 3.3001997234983751e+00 0 0 0
13 1 4.6812972861914792e+00 6.0289187783282410e+00 1.6188231789388721e+00 0 0 0
14 2 4.5944246281033818e+00 6.7843339217199841e+00 2.2560501837348408e+00 0 0 0
15 2 3.9834189913820288e+00 6.0399688523098947e+00 8.8661410812794050e-01 0 0 0
16 1 4.0125661002796313e+00 3.9400395316710526e+00 3.3727409120215786e+00 0 0 0
17 2 4.2634448316399398e+00 4.5798984203106130e+00 2.6669327379279455e+00 0 0 0
18 2 3.0870376841823544e+00 4.2143689116040850e+00 3.6981093475185105e+00 0 0 0
19 1 9.2873964405587284e-01 6.1647326161859723e+00 1.8653613779320724e+00 0 0 0
20 2 1.0241144494651899e+00 7.0224355540060426e+00 2.2790696436289775e+00 0 0 0
22 1 2.2221515780121290e+00 8.4581149955844803e-01 5.0287155435312458e+00 0 0 0
23 2 1.2388813437345578e+00 9.1476833046858352e-01 5.1240196528270658e+00 0 0 0
24 2 2.4515651814819597e+00 1.5079250295970448e+00 5.7173361579213484e+00 0 0 0
25 1 2.8773865608450340e+00 5.5146505747709780e+00 6.9683551896455320e+00 0 0 0
26 2 2.9067288636104327e+00 5.9760118881066875e+00 6.0706375206972973e+00 0 0 0
27 2 3.7590869275376431e+00 5.8305811653340376e+00 7.3287023039760273e+00 0 0 0
28 1 5.8103933487819743e+00 6.5593274649641720e-01 5.1895766657568378e+00 0 0 0
29 2 5.1145915069524106e+00 4.9545480855725049e-01 4.4858509720823063e+00 0 0 0
30 2 6.2699725872555874e+00 1.9464471838123160e+01 5.5006363294443830e+00 0 0 0
31 1 7.4385983558515434e-01 2.1346583187515877e+00 2.3642222745608330e+00 0 0 0
210 2 5.7395661695456646e-01 7.9400629149966502e+00 4.7641638178193020e+00 0 0 0
33 2 8.8344325445849992e-01 2.8545268852739176e+00 3.0032131277805054e+00 0 0 0
111 2 1.9808309655651177e+00 9.0172780181157837e+00 1.0727664391906733e+00 0 0 0
35 2 6.1183990940134212e+00 2.6840062214913019e+00 1.3076550070117907e+00 0 0 0
46 1 8.1611916226616614e+00 4.4617985961362709e+00 4.1065930602776675e+00 0 0 0
47 2 9.1123440213022757e+00 4.3902643048908372e+00 4.2340962527923178e+00 0 0 0
48 2 7.9908677900461003e+00 5.1502110876897360e+00 3.4205508594083871e+00 0 0 0
55 1 7.4073290611888769e+00 6.1767292472296731e+00 2.2209383860692227e+00 0 0 0
56 2 7.4269661209334901e+00 7.1694469704578365e+00 2.2701316013162112e+00 0 0 0
57 2 6.5423577730327702e+00 5.9505774197233636e+00 1.8018182094820936e+00 0 0 0
58 1 8.4955995853722950e+00 1.3338106081705725e+00 4.9911416957261645e+00 0 0 0
258 2 1.0033746955465080e+01 1.4171479784471567e+01 3.3149690896172475e+00 0 0 0
60 2 7.6032331661239594e+00 1.1097142631614050e+00 4.7898589780276177e+00 0 0 0
61 1 9.3943415536038977e+00 5.5090286188139475e+00 7.2302193598206497e+00 0 0 0
571 1 1.0726188818606230e+00 1.5643527406405218e+01 8.7746339421908033e+00 0 0 0
63 2 8.7575640588801829e+00 5.7822892201909752e+00 7.9221278843521539e+00 0 0 0
67 1 7.5625391046559720e+00 2.3916034468431597e+00 2.2705715978961356e+00 0 0 0
68 2 7.7992261288785203e+00 3.0167190651313480e+00 3.0271011988168981e+00 0 0 0
69 2 8.3232885092876696e+00 2.6165500418645857e+00 1.6616898502338338e+00 0 0 0
372 2 8.1346050626940194e+00 5.0996785512434535e+00 1.0267132098769732e+01 0 0 0
218 2 4.1500253143970038e+00 1.5790632350834310e+01 3.0092049629710993e-01 0 0 0
927 2 8.9155331911679063e+00 1.9021161110077813e+01 6.9211521771265749e-01 0 0 0
112 1 4.7010626586437754e+00 8.0736379919118839e+00 3.2067187926690259e+00 0 0 0
113 2 5.2607080064769418e+00 7.6965665474198266e+00 3.8711481558222891e+00 0 0 0
114 2 4.6682803998760285e+00 9.0261405439094240e+00 3.4554295597081666e+00 0 0 0
115 1 5.8502210503898580e+00 1.1244629911919645e+01 5.4873613066833311e+00 0 0 0
116 2 5.8121837395183782e+00 1.2259995584978205e+01 5.5423827211285719e+00 0 0 0
117 2 5.4983886987426480e+00 1.0826857261404154e+01 6.2661285828794906e+00 0 0 0
118 1 1.6756006037714060e+00 1.1075217019546193e+01 3.9662827847021735e+00 0 0 0
145 1 9.5998839150972568e+00 9.3150625387547468e+00 2.0597010504792881e-01 0 0 0
120 2 2.6872466359560545e+00 1.0900736983890880e+01 4.1662969339753788e+00 0 0 0
121 1 5.1456859940757971e+00 1.2609798547640018e+01 1.4756877200181424e+00 0 0 0
122 2 6.1581784067015466e+00 1.2615401697398553e+01 1.3940130649169722e+00 0 0 0
123 2 4.6981331106711863e+00 1.2687190042525495e+01 6.1395697015091266e-01 0 0 0
124 1 4.2250975312909116e+00 1.0863651011880311e+01 3.7198583808751913e+00 0 0 0
125 2 4.4467320833958368e+00 1.1315998811083638e+01 2.8929413403195614e+00 0 0 0
126 2 4.9643617662694286e+00 1.0992601042984056e+01 4.4029655138722124e+00 0 0 0
127 1 1.2791989052815724e+00 1.2883409315057380e+01 1.9456456989256858e+00 0 0 0
128 2 1.8683094228050572e+00 1.2571855783095556e+01 1.1852511195842266e+00 0 0 0
129 2 1.4702713931933058e+00 1.2332976231864055e+01 2.7004645553128315e+00 0 0 0
130 1 2.8450105856933083e+00 7.2628188627016730e+00 5.0123439512209256e+00 0 0 0
131 2 3.4298674512555483e+00 7.5796495757714473e+00 4.3489193982200556e+00 0 0 0
132 2 2.6791064785963647e+00 8.0709985423910595e+00 5.5331627548277638e+00 0 0 0
133 1 3.0054272467004419e+00 1.1983626877085523e+01 6.7942331519244599e+00 0 0 0
134 2 2.3988094532767019e+00 1.2171083982119539e+01 7.5490195425857900e+00 0 0 0
135 2 2.7804027874370281e+00 1.2668905455502873e+01 6.1328600561829782e+00 0 0 0
136 1 6.0948138053966732e+00 7.2539605552205648e+00 5.4806868542938325e+00 0 0 0
137 2 5.8212570927470155e+00 6.3037910798060981e+00 5.5057929061848210e+00 0 0 0
138 2 7.0375779566589074e+00 7.3340323663674560e+00 5.4289723358062432e+00 0 0 0
711 2 8.8959372261085061e+00 5.8800657007891841e+00 8.0034915524754446e-01 0 0 0
142 1 5.4588107496629412e+00 9.2376032006766202e+00 5.2730459070529423e-01 0 0 0
37 1 9.4052595962785617e+00 2.8797557669308960e+00 4.5512747175068752e-01 0 0 0
34 1 5.5877240535166983e+00 2.7119860903680237e+00 4.9391786604443089e-01 0 0 0
3 2 2.1718583051593221e+00 2.4424034411133366e+00 9.1785803838483504e-01 0 0 0
154 1 8.1254666687802413e+00 1.1064060584907793e+01 3.7062424949978467e+00 0 0 0
155 2 7.5031947728410540e+00 1.1184267285718844e+01 4.4749119888210274e+00 0 0 0
156 2 9.0611191874290267e+00 1.0983130422899974e+01 3.9729351671336555e+00 0 0 0
163 1 7.9098082092677533e+00 1.2892826185130446e+01 1.8973574678655272e+00 0 0 0
164 2 7.9883305389028445e+00 1.2109945584021808e+01 2.4376160795077064e+00 0 0 0
165 2 8.4185002654657879e+00 1.2801214786871720e+01 1.0097708161848424e+00 0 0 0
166 1 8.6510410119937458e+00 7.3552450013644819e+00 5.4213137986508046e+00 0 0 0
167 2 8.7636868900983114e+00 8.1424434954418548e+00 6.0083339984705146e+00 0 0 0
168 2 8.9307525623319499e+00 6.5353511005440765e+00 5.8737905043875349e+00 0 0 0
169 1 9.4142867193112814e+00 1.2158435490278631e+01 6.4276823623508763e+00 0 0 0
171 2 9.4935119706624640e+00 1.2813197955912274e+01 5.6609413378111633e+00 0 0 0
175 1 7.6365193226401242e+00 8.7067070099683139e+00 2.1502001673916453e+00 0 0 0
176 2 7.7513208355373644e+00 9.3630381358982824e+00 2.9084220850892457e+00 0 0 0
177 2 6.9191592671417519e+00 8.9939892889993498e+00 1.5353233830453046e+00 0 0 0
450 2 4.6205741636667224e+00 1.1093626631487338e+01 9.9375443194019724e+00 0 0 0
62 2 9.3312851004139485e+00 4.5195900855926263e+00 7.1078859851074396e+00 0 0 0
59 2 9.0004023118953977e+00 1.2403555728678561e+00 4.1658288442343938e+00 0 0 0
675 2 1.9729254630686852e+00 5.6802490701842956e+00 7.0921164083761279e-01 0 0 0
443 2 1.6055489809966528e+00 9.8551057287129193e+00 1.0199999487403886e+01 0 0 0
220 1 3.9917361055308827e+00 1.4156480112934080e+01 3.3462944017893190e+00 0 0 0
221 2 3.9023586474759253e+00 1.5125742011598083e+01 3.1986848790780686e+00 0 0 0
222 2 4.4480466935923664e+00 1.3716261865211846e+01 2.6090617671664620e+00 0 0 0
223 1 6.1531235189733726e+00 1.7806576916758573e+01 5.6052304852614645e+00 0 0 0
224 2 7.0980081105010804e+00 1.7517493552276221e+01 5.3562516372138189e+00 0 0 0
225 2 5.8792696301384000e+00 1.7014668675388897e+01 6.1160993969062858e+00 0 0 0
226 1 2.1173224910762882e+00 1.7683702355919209e+01 4.0427809382094679e+00 0 0 0
227 2 1.8524893719229913e+00 1.8446284807523661e+01 3.4695639585583948e+00 0 0 0
228 2 1.8574784732258738e+00 1.6929198802751941e+01 3.4524279052547837e+00 0 0 0
229 1 5.3834811916525238e+00 1.9206690566274204e+01 1.5792627500662018e+00 0 0 0
230 2 5.0580119689272784e+00 1.8394150979712471e+01 2.0588024020619993e+00 0 0 0
231 2 4.5757635323731156e+00 1.6942686779276933e-01 2.0360955702635088e+00 0 0 0
232 1 4.6373674391122126e+00 1.7203805516383568e+01 3.2173990738169262e+00 0 0 0
233 2 3.9188956672093305e+00 1.7572688125001456e+01 3.7010198681867807e+00 0 0 0
234 2 5.2928221918493819e+00 1.7347039830506304e+01 3.9313559599266577e+00 0 0 0
235 1 1.0437214806200950e+00 1.9329143971631368e+01 2.2807619435822990e+00 0 0 0
236 2 7.3722305498492879e-01 6.0271548392122909e-01 2.3449261639833852e+00 0 0 0
237 2 1.5171838518993428e+00 1.9137198233347775e+01 1.4953209138922774e+00 0 0 0
238 1 2.3837928780855213e+00 1.3953552738014729e+01 5.2774683728289915e+00 0 0 0
239 2 2.9378345532189356e+00 1.3801498039100506e+01 4.4732846154751416e+00 0 0 0
240 2 1.4391334847687398e+00 1.4027665028995990e+01 5.1077806022738121e+00 0 0 0
241 1 2.9126179734291711e+00 1.8735089004030570e+01 7.1490583310186171e+00 0 0 0
242 2 2.9770125542557935e+00 1.9068097566375918e+01 6.1858716532195439e+00 0 0 0
243 2 2.9125987641849482e+00 1.7775730307301025e+01 6.9147914091763889e+00 0 0 0
244 1 6.0778661107565108e+00 1.3889656876741105e+01 5.3038151985562756e+00 0 0 0
245 2 5.8047375161803059e+00 1.4628749389864165e+01 5.9153553757090860e+00 0 0 0
246 2 5.3803178400469704e+00 1.4010696584667908e+01 4.5798693169866098e+00 0 0 0
247 1 1.3993796588242116e+00 1.5555767555700648e+01 2.4906367052621126e+00 0 0 0
248 2 1.4352253260141592e+00 1.4549361079954226e+01 2.4927025898094741e+00 0 0 0
249 2 1.9899403849002422e+00 1.5733157000975886e+01 1.7663740630923295e+00 0 0 0
251 2 6.1571796674943773e+00 1.6037793578790534e+01 1.3087817882416892e+00 0 0 0
470 2 9.0755578573818063e+00 1.0399281908925971e+01 6.8302964350682922e+00 0 0 0
262 1 8.4524350650564557e+00 1.7689129857662437e+01 3.9856892582150674e+00 0 0 0
263 2 9.3416055599607244e+00 1.7365039240335548e+01 3.8289324974217749e+00 0 0 0
264 2 8.3137780946433999e+00 1.8336381226941093e+01 3.1825281892849926e+00 0 0 0
271 1 7.9372636249053974e+00 1.9492313741672277e+01 1.8792569946328148e+00 0 0 0
272 2 7.6495905434902252e+00 6.8875395571246090e-01 2.2892545008496099e+00 0 0 0
273 2 6.9356215058060275e+00 1.9394425182834794e+01 1.7785379336197655e+00 0 0 0
274 1 8.8670378252928206e+00 1.4266043913914970e+01 4.5279354917640218e+00 0 0 0
275 2 9.0571673540827824e+00 1.4860376560104303e+01 5.2770351459778491e+00 0 0 0
276 2 7.9008558431168279e+00 1.4096823239854865e+01 4.6174232705677589e+00 0 0 0
277 1 9.1282406304309234e+00 1.8432957288853203e+01 6.6872568809897928e+00 0 0 0
278 2 9.0468063950686002e+00 1.9053008359703220e+01 5.8994549609691731e+00 0 0 0
279 2 8.5119950039773915e+00 1.8794664706468488e+01 7.3786411319088154e+00 0 0 0
283 1 7.3934548102650366e+00 1.5622948645150345e+01 2.3124116968148969e+00 0 0 0
284 2 7.7418882893261394e+00 1.6215343571811424e+01 3.0174497503890803e+00 0 0 0
285 2 7.8456745700696366e+00 1.4756408245426407e+01 2.3460140640911016e+00 0 0 0
109 1 2.6966626401041092e+00 9.1742896695025387e+00 3.9744542781805348e-01 0 0 0
325 1 2.7388821396182288e+00 2.7114874563627356e+00 7.1803165272536402e+00 0 0 0
326 2 2.5635520406965000e+00 3.6424972695545947e+00 6.9398028286204338e+00 0 0 0
327 2 3.6727336043143719e+00 2.6687242632458785e+00 7.3416873740975310e+00 0 0 0
329 2 4.3901593367691332e+00 9.6039284724158669e-01 9.7157071307357015e+00 0 0 0
337 1 5.1318919823598410e+00 5.7921403037718724e+00 8.3409347334061401e+00 0 0 0
338 2 4.7866372546233524e+00 4.9900393256896072e+00 8.8996809965624415e+00 0 0 0
339 2 4.7978193159191438e+00 6.5663366219971468e+00 8.8514926078874616e+00 0 0 0
250 1 5.6621308221907700e+00 1.6118144248680217e+01 4.7956662343220224e-01 0 0 0
344 2 1.0877960876849291e+00 5.0743591576854516e+00 9.7183017522738382e+00 0 0 0
345 2 1.8537862772269782e+00 5.4460275164061178e+00 8.3258931600272970e+00 0 0 0
355 1 1.0030029806689238e+00 2.3766782365211943e+00 9.3872518255598134e+00 0 0 0
356 2 8.7952660131469840e-01 1.4149297598642980e+00 9.4053785369239904e+00 0 0 0
357 2 1.7315198021530405e+00 2.4594260682949241e+00 8.6913284135057864e+00 0 0 0
358 1 5.7190551711722240e+00 2.6379422365417056e+00 7.2162594868384664e+00 0 0 0
359 2 5.8175647683683342e+00 3.3691393925466988e+00 6.5434657815758390e+00 0 0 0
360 2 5.7868628443530339e+00 1.8700757348925403e+00 6.6399023845986669e+00 0 0 0
361 1 9.4308739443328591e+00 2.9100112760590306e+00 7.0860672462687546e+00 0 0 0
362 2 9.2003397625627521e+00 2.4125188968797286e+00 6.3175093739737571e+00 0 0 0
363 2 8.7718075562108329e+00 2.6517228136145135e+00 7.7595205601439394e+00 0 0 0
254 2 8.9224602261802382e+00 1.6223618787155473e+01 9.1304854227945598e-01 0 0 0
379 1 7.6102475064123158e+00 6.3482000621904584e+00 9.2974060136931289e+00 0 0 0
380 2 7.5805983684092526e+00 7.3357206318283508e+00 9.3382812226972867e+00 0 0 0
381 2 6.7325867995989830e+00 5.9837114672347234e+00 8.9786271732846519e+00 0 0 0
391 1 7.6677811056388956e+00 2.3580052992389442e+00 8.8492400735376719e+00 0 0 0
392 2 7.6376949542719732e+00 2.8470679557401670e+00 9.6501155919876584e+00 0 0 0
393 2 6.8153686945602328e+00 2.4756339010337602e+00 8.3459501081532572e+00 0 0 0
147 2 9.0847647682996584e+00 9.0220043205075999e+00 9.6977521282222579e-01 0 0 0
433 1 2.7332126878544316e+00 9.3155441892118791e+00 6.8084131135868242e+00 0 0 0
434 2 2.8273586241012199e+00 1.0303181878155131e+01 6.7732170636003302e+00 0 0 0
435 2 2.3035728971571285e+00 9.0821206338293958e+00 7.6440949430227647e+00 0 0 0
150 2 9.9410702431174176e+00 7.4184900400593445e+00 4.2422931059162750e+00 0 0 0
445 1 4.9995440294893267e+00 1.2165752092678074e+01 8.7795080205982501e+00 0 0 0
446 2 4.7097953308412048e+00 1.2994436323000929e+01 9.2065263028346838e+00 0 0 0
447 2 4.4375973751868374e+00 1.2157007855598957e+01 7.9694862945026488e+00 0 0 0
11 2 1.3222912053926175e+00 4.5492133830582597e+00 4.6686255365332343e+00 0 0 0
451 1 1.1645555033951087e+00 1.2665332306811587e+01 8.8231626666859277e+00 0 0 0
452 2 1.3825425105950679e+00 1.3620055641152327e+01 8.8152298470692756e+00 0 0 0
463 1 1.1846363462550100e+00 8.4058046059385809e+00 8.9511545336827805e+00 0 0 0
465 2 1.2171774329710621e+00 7.3979241193923730e+00 8.8590753968284250e+00 0 0 0
466 1 5.3867089603580975e+00 9.2133060720894608e+00 7.2488588424067508e+00 0 0 0
467 2 5.8159545320398518e+00 8.4529121341999396e+00 6.7728726933494627e+00 0 0 0
468 2 4.4596991115399183e+00 9.0558521854624168e+00 7.2706030314150221e+00 0 0 0
119 2 1.2077808569379520e+00 1.1013309347982492e+01 4.8309036301658788e+00 0 0 0
140 2 1.0280356287022168e+00 9.7814622588002695e+00 2.9862931112890476e+00 0 0 0
471 2 8.5845340845928000e+00 9.2520211706009974e+00 7.7104729333623192e+00 0 0 0
557 2 4.2288784933731254e+00 1.6245671968895465e+01 1.0375376496480756e+01 0 0 0
487 1 7.6811639817469644e+00 1.2626205059128274e+01 8.4781671031035657e+00 0 0 0
488 2 8.1508258332525756e+00 1.2638753061010130e+01 7.6221168604484406e+00 0 0 0
489 2 6.7565498909965225e+00 1.2399256043276793e+01 8.3524418164999030e+00 0 0 0
499 1 7.4746564145164989e+00 9.0528756376914270e+00 9.0148486306513878e+00 0 0 0
444 2 1.5356445730094204e+00 1.1417847832674569e+01 1.0164293789422102e+01 0 0 0
501 2 6.5689647609936301e+00 9.2272630471313288e+00 8.6113873714728406e+00 0 0 0
139 1 7.5516128009644956e-01 8.9603707076880070e+00 2.4510392542425432e+00 0 0 0
609 2 7.4666397373445896e+00 1.5772765720190170e+01 9.5583585957072081e+00 0 0 0
541 1 2.8500180067358536e+00 1.6104724921652046e+01 6.9282683375430381e+00 0 0 0
542 2 2.1718682693064899e+00 1.5993982933177326e+01 7.6400984624838806e+00 0 0 0
543 2 2.6426298895532576e+00 1.5404432093517556e+01 6.2082422310599279e+00 0 0 0
553 1 4.9462803127715027e+00 1.9183430826403225e+01 8.7597279114292199e+00 0 0 0
554 2 5.8724683158780708e+00 1.8944282299535644e+01 8.4932687597526595e+00 0 0 0
555 2 4.5108339612402064e+00 1.9204188710017341e+01 7.8944925090516644e+00 0 0 0
469 1 9.3079383302963628e+00 9.4734424719936001e+00 7.0620960903014316e+00 0 0 0
559 1 9.8357201856544341e-01 1.9363764511939124e+01 8.8353261234635951e+00 0 0 0
560 2 1.6923958491383684e+00 1.9091942746747911e+01 8.1731833839818826e+00 0 0 0
561 2 1.0688021739527467e+00 1.8746557745355204e+01 9.5612244438354299e+00 0 0 0
573 2 1.0966869811393911e+00 1.6279547391393159e+01 9.5689228773006825e+00 0 0 0
574 1 5.4209416787455194e+00 1.5718768788055465e+01 7.0275976050495448e+00 0 0 0
575 2 6.0352334541531425e+00 1.5546860808339282e+01 7.7521154969011361e+00 0 0 0
576 2 4.5145591810919159e+00 1.5796271813049879e+01 7.2565029052127308e+00 0 0 0
577 1 9.2973607895517532e+00 1.5740321793017600e+01 6.5909638207962518e+00 0 0 0
578 2 9.0962773078128851e+00 1.6668628568694622e+01 6.4527653509052358e+00 0 0 0
579 2 8.8822014625403689e+00 1.5546687322815114e+01 7.4421380945051547e+00 0 0 0
143 2 4.4674893868192056e+00 9.0883111558002163e+00 6.0567517903562074e-01 0 0 0
595 1 7.5999082445766835e+00 1.9084923411690667e+01 8.6332927826071906e+00 0 0 0
596 2 7.4033850138216959e+00 2.6639176962187405e-01 8.8089152619440814e+00 0 0 0
597 2 7.8449477844992250e+00 1.8609895650526241e+01 9.4386723251992635e+00 0 0 0
607 1 7.3683658952442075e+00 1.5441612332331971e+01 8.6495521908660571e+00 0 0 0
608 2 7.4902896312785296e+00 1.4469442956712312e+01 8.7893351579118644e+00 0 0 0
558 2 4.3527979452002414e+00 1.7727250777100970e+01 9.8270338104949460e+00 0 0 0
500 2 7.6782845724030926e+00 9.5669519683596747e+00 9.8240575447786220e+00 0 0 0
437 2 4.5254914849047854e+00 8.8175664920673906e+00 9.6844430849425720e+00 0 0 0
479 2 7.7667444058314867e+00 1.1794026337115179e+01 1.0097016147390503e+01 0 0 0
1 1 2.7720982549810174e+00 2.7601635104396260e+00 2.3997969273440145e-01 0 0 0
544 1 4.2395123459769497e+00 1.4523717274513917e+01 1.0313915784334641e+01 0 0 0
343 1 9.9245687861514420e-01 5.5096815575276032e+00 8.8549813917608606e+00 0 0 0
2 2 3.7047970304349618e+00 2.6017715172227471e+00 5.2737278451805469e-01 0 0 0
436 1 4.4634857927104097e+00 7.8874201585915262e+00 9.9786777768302652e+00 0 0 0
342 2 4.2041984830825978e+00 3.2705843500305285e+00 1.0219691661229147e+01 0 0 0
144 2 5.4793779984802340e+00 1.0162316155887209e+01 1.6435406258024721e-01 0 0 1
673 1 2.6157288083650929e+00 5.7364749198992175e+00 2.0490893378775468e+01 0 0 0
876 2 9.0571858538807559e-01 1.7537775607027960e+01 1.8170718425697721e+01 0 0 0
925 1 9.5506772617008568e+00 1.9025051662261291e+01 2.0538859983643338e+01 0 0 0
438 2 5.0976442450792181e+00 7.8035195288948644e+00 1.0713325243634765e+01 0 0 0
39 2 9.0388773873715813e+00 2.5053359987517472e+00 2.0213755609181622e+01 0 0 0
775 1 8.9362260351932221e-01 1.2490368590879404e+01 1.5750348066734279e+01 0 0 0
331 1 6.1897197459567694e+00 4.7188226305988490e+00 1.2343650460977981e+01 0 0 0
332 2 7.0768709027156929e+00 4.5858712553736947e+00 1.1946015472420505e+01 0 0 0
333 2 5.4746413660049784e+00 4.6759292168826043e+00 1.1648448588825737e+01 0 0 0
371 2 9.3225289155442059e+00 4.0801114904785631e+00 1.0788092232752755e+01 0 0 0
550 1 1.4749862874962323e+00 1.7465469764419929e+01 1.0756179734800547e+01 0 0 0
889 1 3.1859164742836028e+00 1.8840715522293138e+01 2.0489106367598573e+01 0 0 0
346 1 2.3049520519970148e+00 7.6861308557152996e-01 1.1924526032194445e+01 0 0 0
347 2 2.7629500679236214e+00 1.0908638300081677e+00 1.1171932763513228e+01 0 0 0
348 2 2.5212938319334564e+00 1.3655305859103446e+00 1.2677146507208644e+01 0 0 0
349 1 3.0814353390152545e+00 5.4296908363753946e+00 1.3633676463196432e+01 0 0 0
350 2 2.6724459893875552e+00 6.0978541813035987e+00 1.3036824764563935e+01 0 0 0
351 2 3.0119323554073212e+00 4.4592839037886787e+00 1.3347019168042017e+01 0 0 0
352 1 5.9064492782164120e+00 9.4608563584962113e-01 1.2289920623579206e+01 0 0 0
353 2 6.8846566447862818e+00 1.0342251419331303e+00 1.1973367116808722e+01 0 0 0
354 2 6.1350523644853894e+00 1.9675355244383155e+01 1.2353396542839768e+01 0 0 0
330 2 4.8532534399601639e+00 1.4323829181606653e+00 1.1247551957625989e+01 0 0 0
382 1 8.6300837715051273e+00 1.0066677297198656e+00 1.1942323972535062e+01 0 0 0
383 2 9.1072838420580258e+00 1.9860005234952432e+01 1.2335689441762707e+01 0 -1 0
384 2 9.3923349351914620e+00 1.0756503650621392e+00 1.1325970271347128e+01 0 0 0
385 1 9.3519151544345238e+00 5.7584579310648856e+00 1.3644277169317252e+01 0 0 0
386 2 9.3430629529087721e+00 4.8456826254427723e+00 1.3298947550366989e+01 0 0 0
387 2 8.5826293399967177e+00 5.8917834512907774e+00 1.4198818478086411e+01 0 0 0
587 2 9.1484364924951755e+00 1.7209255441859057e+01 1.0679824533828461e+01 0 0 0
426 2 4.4059391653811442e-01 6.8606641075455888e-01 1.2179575044577271e+01 0 0 0
439 1 6.0257340313978744e+00 1.1511416144784256e+01 1.2657972006389178e+01 0 0 0
440 2 5.8299710067105845e+00 1.2477508470825857e+01 1.2728444882412067e+01 0 0 0
441 2 5.4040574080763841e+00 1.1296026050272207e+01 1.1907789721391403e+01 0 0 0
219 2 2.9734729201288892e+00 1.7057457921680651e+01 2.0551353312377895e+01 0 0 -1
454 1 2.4390653970352743e+00 7.5436059420833228e+00 1.1952218071385587e+01 0 0 0
455 2 2.9593789086206144e+00 7.6592869952586726e+00 1.1071055230808243e+01 0 0 0
456 2 2.8338395711943858e+00 8.1762433245480981e+00 1.2582460576988058e+01 0 0 0
457 1 2.7074292300748106e+00 1.2254506906576173e+01 1.3769278734737957e+01 0 0 0
458 2 3.4046828980344297e+00 1.2658594069950912e+01 1.4357974354508547e+01 0 0 0
459 2 1.9084481187412234e+00 1.2208967233517210e+01 1.4391341571066205e+01 0 0 0
460 1 6.0806378595472150e+00 7.6565965662203812e+00 1.2107210512088196e+01 0 0 0
461 2 5.8275796546699210e+00 6.7461165490749186e+00 1.2273322490308134e+01 0 0 0
462 2 7.0351794305331774e+00 7.7246227211851570e+00 1.2128374063999255e+01 0 0 0
926 2 9.4461928635905892e+00 1.8098813199276613e+01 2.0447455464022312e+01 0 0 0
480 2 7.3719536147165012e+00 1.1405476900163086e+01 1.1579122832681133e+01 0 0 0
679 1 1.1497448662795162e+00 2.2844270306164427e+00 1.5762393681877617e+01 0 0 0
490 1 8.6441490446963183e+00 7.8737259027022670e+00 1.2142681903200611e+01 0 0 0
491 2 8.9299942230096434e+00 7.1125628938671213e+00 1.2617842301618456e+01 0 0 0
492 2 8.8890160305138899e+00 8.6053692090483409e+00 1.2770992729410125e+01 0 0 0
493 1 9.2004714493600677e+00 1.2466077655488993e+01 1.3743769374356194e+01 0 0 0
494 2 8.3859447238314058e+00 1.2360123676444561e+01 1.4287599894506725e+01 0 0 0
495 2 9.0204365873130179e+00 1.3123044120730201e+01 1.2981547579886064e+01 0 0 0
668 2 1.1805126986761232e+00 7.1443164418784724e+00 1.5756485876060312e+01 0 0 0
781 1 2.9522184816640324e+00 1.2460839903970227e+01 2.0283373452861504e+01 0 0 0
749 2 4.9564462604937298e-01 1.2158618082377357e+00 1.8829350375793087e+01 0 0 0
901 1 9.1254305772175996e+00 1.6043619530388085e+01 1.3794297261829271e+01 0 0 0
932 2 7.7906955461414782e+00 1.5915917099685053e+01 1.6484889691653656e+01 0 0 0
931 1 7.6674693724303209e+00 1.5176057518821136e+01 1.5891037833221088e+01 0 0 0
547 1 6.1991502937962819e+00 1.8217617694834843e+01 1.2037311521293868e+01 0 0 0
548 2 5.3551087188182063e+00 1.7914108143415973e+01 1.1530679542326624e+01 0 0 0
549 2 6.1931760207668294e+00 1.7651737418779490e+01 1.2866006203453177e+01 0 0 0
551 2 8.5229242976657937e-01 1.7398033626652705e+01 1.1457109890467494e+01 0 0 0
562 1 2.4295811473195630e+00 1.4210144344926297e+01 1.2061696202088569e+01 0 0 0
563 2 1.5105286512017506e+00 1.4347404331801224e+01 1.1870184418985939e+01 0 0 0
564 2 2.4886581076091798e+00 1.3360532995068406e+01 1.2604710068995876e+01 0 0 0
565 1 2.8453760552224789e+00 1.8525839410228556e+01 1.3584891270926596e+01 0 0 0
566 2 2.7508333256540811e+00 1.9027733939625222e+01 1.2756475375162161e+01 0 0 0
567 2 3.7171173254578522e+00 1.8809399362122377e+01 1.3945668369251022e+01 0 0 0
568 1 6.2465324300380747e+00 1.4200729072576960e+01 1.2343473313059684e+01 0 0 0
569 2 7.1328473835987909e+00 1.4280049805850233e+01 1.2011806521723246e+01 0 0 0
570 2 6.1602319094335076e+00 1.4990759661378378e+01 1.2916478099154999e+01 0 0 0
442 1 1.6384479558632132e+00 1.0633000500546467e+01 1.0814896532624076e+01 0 0 0
707 2 9.4990403871820561e+00 1.4809611182706841e+00 1.8068317628150488e+01 0 0 0
588 2 7.8134672365272859e+00 1.7740431161431566e+01 1.1364579504491056e+01 0 0 0
598 1 8.8747256873399163e+00 1.4287247482391006e+01 1.1614246127576864e+01 0 0 0
599 2 9.7228764476547109e+00 1.4192260617893048e+01 1.1017203391163637e+01 0 0 0
600 2 9.0233640781750992e+00 1.5088184413365006e+01 1.2135593420580136e+01 0 0 0
601 1 9.3884176175949783e+00 1.8850293176114803e+01 1.3691488355022615e+01 0 0 0
603 2 8.6425588832160010e+00 1.9155842612706913e+01 1.4295506786223660e+01 0 0 0
546 2 5.0043717474206959e+00 1.4298185459594976e+01 1.0885870840337317e+01 0 0 0
110 2 2.4275069518381343e+00 8.8260055851326769e+00 2.0130818342935488e+01 0 0 0
649 1 2.7260322786907065e+00 2.7924499491145678e+00 1.3777961570864930e+01 0 0 0
650 2 3.7333581298377196e+00 2.7960260893609981e+00 1.3954453548992877e+01 0 0 0
651 2 2.3006302573609774e+00 2.7059668295012420e+00 1.4639979896264251e+01 0 0 0
652 1 4.1767273945243168e+00 2.1691042602215473e+00 1.7107815290378518e+01 0 0 0
653 2 4.2930018314072704e+00 3.1415796462082888e+00 1.7138482530551869e+01 0 0 0
654 2 4.8907008259011917e+00 1.7965635523696935e+00 1.7607217986137410e+01 0 0 0
655 1 5.9796290750054748e+00 5.0153825556357052e+00 1.9395638807488059e+01 0 0 0
656 2 6.0928142468256512e+00 5.9560373963093074e+00 1.9541929429171208e+01 0 0 0
657 2 6.6144561416643564e+00 4.8428682603833639e+00 1.8720632052440457e+01 0 0 0
658 1 1.2284774613077478e+00 4.2454369198139803e+00 1.7782992737876228e+01 0 0 0
659 2 1.2337517823260413e+00 3.3419150590626616e+00 1.7382722522105194e+01 0 0 0
660 2 9.6651025760104237e-01 4.8183506358040562e+00 1.7047851361901781e+01 0 0 0
661 1 4.8554295488239809e+00 6.3742841604884468e+00 1.5531888231905210e+01 0 0 0
662 2 4.3342570248483687e+00 5.8127445407816092e+00 1.6167398448077392e+01 0 0 0
663 2 4.3813702329079183e+00 6.2226412553933184e+00 1.4696301123569228e+01 0 0 0
664 1 3.9513291598647524e+00 5.0212966315761918e+00 1.7791312503616115e+01 0 0 0
665 2 2.9969082762730404e+00 4.8264676220036096e+00 1.8008828825723906e+01 0 0 0
666 2 4.6726027771304688e+00 5.0499220096320778e+00 1.8514891606733634e+01 0 0 0
36 2 5.6185417523016943e+00 3.7565010565950758e+00 2.0476037354006479e+01 0 0 0
924 2 8.2417309220613699e+00 1.4458435067250077e+01 1.8717933350915594e+01 0 0 0
669 2 1.6605464172122570e+00 5.7491167070521563e+00 1.5067223793240171e+01 0 0 0
670 1 2.2499056301626053e+00 1.1844266612439072e+00 1.8705631703043515e+01 0 0 0
671 2 2.4536144450581618e+00 1.8084387554956696e+00 1.9480514594726596e+01 0 0 0
672 2 2.8590793502276948e+00 1.5553585796558536e+00 1.8022988354351206e+01 0 0 0
676 1 6.1631537190321177e+00 1.0824291208160375e+00 1.9072794016709253e+01 0 0 0
677 2 5.9832370236077432e+00 1.7252761080128598e+00 1.9815348336802508e+01 0 0 0
678 2 7.1249429416383059e+00 9.9963968800037695e-01 1.8992961888232216e+01 0 0 0
336 2 1.0720542843728458e+00 4.5851978341756112e+00 1.1966212922648435e+01 0 0 0
370 1 8.3217147613218376e+00 4.2911569486960079e+00 1.0849117389838579e+01 0 0 0
681 2 1.1316612426183084e+00 1.3444219625727518e+00 1.5441723310834202e+01 0 0 0
682 1 5.4307122583077030e+00 2.9186781692614820e+00 1.4011272553406664e+01 0 0 0
683 2 5.7465741819309342e+00 3.6996542885046972e+00 1.3465424223804957e+01 0 0 0
684 2 5.6856887210293170e+00 2.2173851286151036e+00 1.3411680426665985e+01 0 0 0
685 1 9.1598144734503215e+00 3.0439824791665542e+00 1.3801543969723694e+01 0 0 0
687 2 8.9268420104605308e+00 2.3095613489468461e+00 1.3129621119534384e+01 0 0 0
694 1 8.0228243318833741e+00 4.7098639009551224e+00 1.7743626666999152e+01 0 0 0
695 2 9.0011903593610914e+00 4.5843141862178074e+00 1.7887894393963563e+01 0 0 0
696 2 7.7580512623947682e+00 3.9661157157066658e+00 1.7188821466136300e+01 0 0 0
703 1 7.4894333352066216e+00 6.0807201688328343e+00 1.5525713184852261e+01 0 0 0
704 2 7.6899474254959062e+00 5.5541900781343863e+00 1.6301649850276767e+01 0 0 0
705 2 6.5222535530537993e+00 6.0320148850547692e+00 1.5439337957941065e+01 0 0 0
706 1 8.8994378722046168e+00 1.3937173425332330e+00 1.8852429964115512e+01 0 0 0
777 2 1.1374124985223140e+00 1.3454832167035327e+01 1.5879886465978220e+01 0 0 0
708 2 9.0897481416349457e+00 5.0664028235035630e-01 1.9180002288134943e+01 0 0 0
715 1 7.4176563064326997e+00 2.8907575413686586e+00 1.5875932793926848e+01 0 0 0
716 2 6.7637222486192883e+00 3.0416192347671607e+00 1.5221220486568406e+01 0 0 0
717 2 8.1943447923302006e+00 2.6995165064733886e+00 1.5317959679224233e+01 0 0 0
903 2 1.0049616808162526e+01 1.5791550072430455e+01 1.3939544265682407e+01 0 0 0
667 1 1.1479019199862126e+00 6.1288559020531039e+00 1.5812779377936854e+01 0 0 0