LAMMPS data file via write_data, version 15 Apr 2020, timestep = 0

1944 atoms
2 atom types

-1.4178108664509637e-01 4.0123886086643594e+01 xlo xhi
0.0000000000000000e+00 1.9754913470551404e+01 ylo yhi
0.0000000000000000e+00 2.0436588286672979e+01 zlo zhi
-1.8582739207857912e-02 -1.0367684804940325e-02 2.6164695250926684e-02 xy xz yz

Masses

1 16
2 2

Atoms # atomic

491 2 4.0060578521360242e+00 3.0510701344275311e+00 6.8108947884712139e+00 0 1 0
1160 2 5.0437955469572771e+00 1.8438981121724982e+01 5.4782062398477285e+00 0 0 0
90 2 1.5726112349612180e+01 1.1793972568162342e+01 4.2586292218909092e+00 0 0 0
535 1 1.7892390566262488e+01 1.9167466644790629e+01 1.2635501544232746e+00 0 0 0
655 1 1.1283597358819222e+01 1.4908136438683931e+01 3.8124113004769353e+00 0 0 0
667 1 3.3172976185908514e+00 1.6294537706373934e+01 2.2653291493174446e+00 0 0 0
1321 1 3.1935396070307809e-01 1.6756826461155594e+01 3.9813197209040641e+00 0 0 1
1325 2 1.5530462751050148e+01 4.6232225448143769e+00 8.6413925168837675e+00 0 0 0
1528 1 1.3990183685323226e-01 2.9206455969786607e+00 1.0031215109142970e+01 0 0 0
225 2 8.7319047148070723e+00 1.6886363673949496e+01 3.4573214944085979e+00 0 0 0
1316 2 6.7945036801456704e-01 1.5849959499966902e+01 9.8796305100927277e+00 0 -1 0
487 1 1.6541969475016732e+01 1.1146693130392194e+01 7.0350077417060835e+00 0 1 -1
741 2 7.1899643889257998e+00 8.5751270205530350e+00 3.8689696999755672e+00 0 0 1
883 1 1.3478100442551169e+01 5.9732474088391969e+00 6.7440994084689310e+00 0 0 0
481 1 1.1116869146117976e+01 1.5429302837816923e+01 7.1517802006150824e+00 0 0 0
1385 2 6.7216119542137411e+00 3.7189638449301947e+00 1.3138722826013993e+00 0 0 1
269 2 1.8808414073505922e+01 1.3986359958550075e+01 5.1046340115089359e+00 0 0 0
1375 1 1.9903165804289764e+00 1.0409038253863816e+01 1.1607276738037340e+00 0 1 1
877 1 3.8654318156256720e+00 1.1116489041698541e+01 4.0188449526513139e+00 0 1 1
866 2 4.8242122528299287e+00 1.8455335894645799e+01 9.2629708510312074e+00 0 -1 0
1748 2 2.6793994019064704e+00 1.5788954526481710e+01 5.9469184444846324e+00 0 -1 1
262 1 1.4728128294287432e+01 1.4770127673033137e+01 1.6229964253482934e+00 0 0 0
20 2 7.6272457565523061e-02 7.3291210926201869e+00 5.4309906977174407e+00 1 0 0
237 2 5.5363426327236782e+00 9.3794968556308422e+00 9.6222267865846278e-01 0 0 0
235 1 6.2075322197468070e+00 8.8262529715521474e+00 5.2972418168729285e-01 0 0 0
1760 2 6.0458381000248282e+00 9.2238806863461900e+00 5.3999410097915952e+00 0 0 1
1758 2 1.1737708598519529e+01 1.5271438997537512e+01 9.1864460642999379e-01 0 0 1
696 2 1.3903887270749237e+01 1.3977872741895073e+01 8.8202349379252212e+00 0 -1 0
215 2 4.2346516753774088e-01 1.1201854904207498e+00 2.3546023017919739e+00 1 0 1
749 2 1.7257751217179468e+01 2.5504446603940600e+00 3.5466644651139876e+00 0 0 1
1615 1 4.5633856475653607e+00 6.7138717006634234e+00 5.9240274300525710e+00 0 1 0
926 2 7.3603903864518339e+00 1.2861893241254480e+01 9.5663144950823031e-01 0 0 1
509 2 1.3417806840454539e+01 9.3713998011411448e+00 7.3319245144019556e+00 0 2 -1
21 2 1.4612214059801512e+00 8.0515663541561082e+00 5.7809871596769051e+00 0 0 0
1581 2 5.2278263736250541e-01 1.9703675829742835e+01 9.7206895945643232e+00 0 -1 0
43 1 1.5290615521171485e+01 1.4954984648123181e+01 8.2334134714638232e+00 0 -1 0
954 2 8.2559062474146483e+00 1.0524124601504235e+01 3.8349112091561262e+00 0 0 1
689 2 1.6145476327889757e+01 1.5954572032556140e+01 2.0084725918799555e+00 0 -1 0
26 2 9.7282480996079403e+00 9.1357716640735163e+00 9.6659681013773060e+00 0 0 0
1179 2 5.8459073019186496e+00 1.8024527846948015e+01 3.1709265696376527e+00 0 0 1
1098 2 1.1928309520166691e+00 9.6233294365035000e+00 7.6566843202841746e+00 0 1 0
300 2 1.7519995073603823e+01 1.8511900116375948e+01 8.7018382161853864e+00 0 -1 0
1395 2 1.5564805721091538e+01 7.0818830090078047e+00 7.1026214077994065e-01 0 0 0
1302 2 9.7027462898033601e-03 1.3842963905520564e+01 7.9073044607004155e+00 0 0 0
468 2 8.2743625603617605e+00 4.5736876487690079e+00 1.5304469161080902e-01 0 1 1
227 2 1.4788247165616595e+00 1.3634210351450696e+01 1.5546797834140211e+00 0 0 0
1384 1 7.2743650397730271e+00 3.1802822869503662e+00 6.5730804201506621e-01 0 0 1
726 2 1.9106501911582285e+01 2.0816083780877190e+00 6.5533779456437582e+00 0 0 0
47 2 4.4677777464433763e+00 1.3747914984587283e+01 8.8913244539496912e+00 0 -1 0
1811 2 1.7085177015944407e+01 7.3782555634773344e+00 3.0358487577431550e+00 0 0 1
489 2 1.7165068744375734e+01 1.0948902593443430e+01 7.7892117610104643e+00 0 1 -1
12 2 3.2140010318820944e-01 1.7795966231137054e+01 2.4854502235793872e+00 0 -1 0
1584 2 1.3231571588363659e+01 1.6553827185967531e+01 4.9016499729079062e+00 0 0 0
1564 1 4.2632046366215786e+00 1.0499604062512538e+00 1.0632205077870638e+00 0 1 0
257 2 1.0448786389900636e+01 7.1687363625842693e+00 2.5388278960463366e+00 0 0 1
683 2 7.2617211939604163e+00 1.2309229568954839e-01 3.8588747553266991e+00 0 0 0
1391 2 1.5092366919651393e+01 1.9308269405055260e+01 1.0046233672345139e+01 0 0 0
1561 1 4.7307370017567685e+00 5.5683252050441459e+00 8.9507856295945807e+00 0 1 0
226 1 2.1686769720850041e+00 1.3068471368120573e+01 1.1409360321184483e+00 0 0 0
1111 1 7.1652230680722777e+00 1.2790869486993907e+01 7.6202326021457782e+00 0 0 0
2 2 3.0594227621397625e+00 1.8222733223272652e+01 8.0440908353982525e+00 0 -1 0
747 2 1.6004028061918397e+01 1.0870557449736612e+01 9.5730787348645174e-01 0 0 1
709 1 1.8821090691976512e+01 4.6451847001207254e+00 5.4652058151339933e+00 0 0 0
102 2 1.9647617189022586e+01 1.9690154089701217e+01 5.6061099017883391e+00 0 0 0
1081 1 1.1176533781102963e+01 2.4908670120647236e+00 7.0247735964531417e+00 0 1 0
668 2 2.9304185488201853e+00 1.6268360036131142e+01 3.1687580307851184e+00 0 0 0
711 2 1.8138771226840486e+01 4.3566553496885856e+00 4.8333520800227987e+00 0 0 0
1803 2 1.1537021140537378e+01 1.1909303998062986e+01 5.2716162566955989e+00 0 1 1
1124 2 1.7217372735434058e+01 5.7786803490837291e-01 5.2717400580317806e+00 0 1 0
878 2 4.4824054670611524e+00 1.0818687767985887e+01 4.7566803360782473e+00 0 1 1
1831 1 2.8040806548021409e+00 1.6149478060959460e+01 7.4075808042190152e+00 0 -1 0
1788 2 2.3844160099713889e+00 1.2305924480584775e+01 7.4525627909247287e+00 0 0 1
907 1 2.1838501041183003e+00 5.5332470154934484e-02 2.5859816713860222e+00 0 1 0
1759 1 5.1761729019045664e+00 9.4923176195694552e+00 5.7416817977419168e+00 0 0 1
1376 2 2.9288643148692870e+00 1.0269614378864423e+01 1.4070745601289296e+00 0 1 1
1084 1 7.2657764054666751e+00 1.3702612596922030e+01 4.1222597116576862e+00 0 0 0
1362 2 1.0601229246443943e+01 1.1783980700876091e+01 9.1780164671675326e+00 0 -1 0
1527 2 8.0948436583766252e+00 1.5710080192955369e+01 6.4349092849483007e+00 0 0 1
1334 2 1.9619952151036301e+01 9.6025176631470526e+00 1.6928363441626422e+00 0 -1 1
752 2 8.7869088824736998e+00 6.6726062725250763e+00 7.0874944218057390e-01 0 1 0
750 2 1.7386128567271598e+01 4.0105012793092083e+00 2.8421527570068119e+00 0 0 1
1174 1 8.0323741393318180e+00 1.9254143109037461e+01 2.9303873157637600e-01 0 0 0
88 1 1.4807652286383597e+01 1.2010261268939127e+01 4.5155315623973822e+00 0 0 0
736 1 1.6063495681720195e+01 8.1263609409987669e+00 8.0067993317569126e+00 0 0 0
16 1 3.8488431922101123e+00 6.6390503892889097e+00 1.1294589839333440e+00 0 0 0
1817 2 8.9990975536617732e+00 1.3673938182326117e+00 4.9439732574139894e+00 0 2 1
1324 1 1.4616831425378093e+01 4.3412724748564830e+00 8.4061788150318719e+00 0 0 0
1610 2 5.1805612981880040e+00 1.5498935571540002e+01 5.4672945621753604e+00 0 0 1
304 1 1.7051537097756590e+01 1.7450382257627247e+01 4.5298761697154335e+00 0 0 1
918 2 1.3100162194028613e+01 1.0221621092555019e+01 2.8383112778885806e+00 0 0 1
934 1 1.3763408162105797e+01 1.1282615710033577e+01 7.3219643196111361e+00 0 1 1
1093 1 1.1373917389518688e+01 8.1894337356149709e+00 1.4475027685443483e-02 0 2 0
1404 2 6.7861627786362089e+00 1.7060615252574323e+01 8.1747973082276406e+00 0 -1 0
492 2 5.4449052557727455e+00 3.3795269953649583e+00 6.2024723233196388e+00 0 1 0
1543 1 1.4567974647013813e+00 1.3117868234668700e+01 8.9120392127825774e+00 0 0 0
680 2 7.7979369529490428e-01 1.0119064519439389e+01 9.9551773594421888e+00 0 0 0
516 2 1.3581034255023287e+01 5.4811355712481360e+00 2.3585061588902660e+00 0 1 -1
1185 2 1.5217114387783587e+01 2.4136061062695280e+00 9.1581902370628043e-01 0 0 0
270 2 1.8895856898072491e+01 1.3445290900188395e+01 3.6987511584804742e+00 0 0 0
1106 2 5.6691493307917913e+00 5.7080648756779961e-01 1.8718675221049110e+00 0 1 1
1807 1 1.6117078160157956e+01 1.2739008510561678e+01 6.3118958872804776e-01 0 0 1
294 2 1.9170768971775548e+01 8.7066921114805282e+00 8.1644687219728951e+00 0 -1 -1
941 2 1.7449894020683271e+01 3.7340661474679343e-01 2.8184812148732341e+00 0 1 1
301 1 1.4549257966981061e+01 7.0938908321379901e-01 8.4212326758443030e+00 0 0 -1
707 2 4.7331650959443952e+00 1.5430894768614579e+01 1.0109085894634175e+01 0 -1 0
440 2 5.9015991951667486e+00 7.8147482480244221e+00 2.0007650089940818e+00 0 1 0
17 2 3.5957786952704613e+00 7.5984151704804272e+00 1.2083919286168019e+00 0 0 0
472 1 3.2217080344165252e+00 8.5519442718099086e+00 3.5935619155147758e+00 0 1 0
106 1 1.7922576676010117e+01 1.1485128730323616e+01 9.2423032077846372e+00 0 0 0
1792 1 9.1597104353959544e+00 7.3091196949547168e+00 5.8481341996892926e+00 0 0 1
10 1 2.5115898463490660e-01 1.8333924486695430e+01 1.6528166601406635e+00 0 -1 0
1101 2 1.2681818251679145e+01 1.6377435481467257e+00 5.8723798681139749e+00 0 1 0
964 1 7.8725858477291144e+00 4.3776111323492231e+00 8.4604799255214633e+00 0 1 0
1544 2 9.9606929458884608e-01 1.2296329531428709e+01 9.1740047708334096e+00 0 0 0
292 1 1.8623045139952172e+01 8.7639675562593276e+00 7.3647760115210552e+00 0 -1 -1
1562 2 4.9797696788801309e+00 4.7713233780231530e+00 9.4850031779918922e+00 0 1 0
970 1 1.0242013759532989e+01 8.5684748357825757e+00 7.9253060230190000e+00 0 0 0
651 2 7.1414721127298488e+00 1.7816228990293602e+01 1.0124851141235609e+01 0 -1 0
83 2 1.0973045033490481e+01 1.7166061579634061e+01 9.8637262172203872e+00 0 0 -1
963 2 1.1401247287714698e+01 1.1951539971725325e+01 2.0674318786313672e+00 0 0 1
3 2 2.9167392262139202e+00 1.8994500387126589e+01 6.7052685854147445e+00 0 -1 0
224 2 8.7688107842634011e+00 1.6709129135316690e+01 4.9679653689286214e+00 0 0 0
701 2 6.1627593059972279e+00 6.4664433921739830e+00 6.1409508300477675e+00 0 0 -1
444 2 3.2672476024918113e+00 9.6915270321885298e+00 9.9948970372215946e+00 0 1 0
682 1 7.7131101725946687e+00 3.1645200506904905e-02 4.6938530587036658e+00 0 0 0
263 2 1.4653791471995529e+01 1.5149161632538346e+01 7.2136938899220815e-01 0 0 0
64 1 1.7925250326475549e+01 1.3723908624179904e+01 6.6008780063248267e+00 0 0 -1
1757 2 1.1402852010328777e+01 1.5965976168198551e+01 2.2984986980847459e+00 0 0 1
1311 2 1.9003651306509568e+01 1.0194216993665801e+01 6.3965348080233593e+00 0 0 0
875 2 6.4575099415040311e+00 6.7675879992394252e+00 8.8603000061546364e+00 0 0 0
925 1 7.2892797464526069e+00 1.1947199772336095e+01 1.3304257940830297e+00 0 0 1
1618 1 9.4997680758798655e+00 1.9261113663332114e+01 7.7095694066753468e+00 0 -1 0
515 2 1.3807238749779831e+01 7.0227914073330160e+00 2.5466399869976626e+00 0 1 -1
1312 1 6.7089427353349673e-01 4.4611573447185844e+00 4.0834911844107413e+00 0 0 1
1730 2 5.4514203881191818e+00 1.1413692469865786e+01 1.1516324882113009e+00 0 1 0
1082 2 1.1225819234016692e+01 1.9668848892045347e+00 7.8670274091927377e+00 0 1 0
1764 2 3.9637014087424294e-01 5.8315480259456871e+00 1.3503814633824984e+00 0 1 0
936 2 1.3450244018938768e+01 1.1978455235628353e+01 6.7458635342686168e+00 0 1 1
679 1 2.7946953459461860e-01 1.0683711733507481e+01 9.3201714430048579e+00 0 0 0
84 2 1.0813834585697538e+01 1.8382749254379437e+01 9.0043337208585168e+00 0 0 -1
1305 2 8.0977305337620873e+00 1.5190501813446357e+01 1.3337917231392915e+00 0 -1 1
1125 2 1.7308940114549227e+01 3.4517733553008850e-01 6.8182155671846818e+00 0 1 0
705 2 4.0321512417356136e+00 7.3899140430709620e+00 9.0806350817922610e+00 0 1 -1
1096 1 1.7215525195397561e+00 9.3641789769412380e+00 6.8968149410080484e+00 0 1 0
955 1 1.5448298689259383e+01 3.0061406333765777e+00 6.2795653736087873e+00 0 0 0
1812 2 1.6438560312067530e+01 8.1545141600854496e+00 4.2106868992733286e+00 0 0 1
1317 2 6.3574430850350594e-01 1.7407751658868399e+01 9.4026708296616253e+00 0 -1 0
1583 2 1.4094403635199795e+01 1.7512182361472238e+01 4.0956662703837861e+00 0 0 0
80 2 7.3551913270380060e+00 1.1470404563307739e+00 7.8540575943708824e+00 0 1 -1
1166 2 1.3377222588583676e+01 1.7497494577983172e+01 9.2121971956450128e+00 0 1 0
748 1 1.7159048316984677e+01 3.5040577735011929e+00 3.6488090163629865e+00 0 0 1
656 2 1.0824428829942265e+01 1.5670386492291291e+01 4.1706507223444920e+00 0 0 0
1313 2 4.3502206765518314e-01 5.0970017544156940e+00 3.3488353729160720e+00 0 0 1
917 2 1.3621197614426729e+01 1.1679145423865901e+01 3.1741986561727673e+00 0 0 1
1794 2 8.2623474726244748e+00 6.8166330948354714e+00 5.9484949651572130e+00 0 0 1
44 2 1.5956384324485320e+01 1.4590180866770496e+01 8.8610914314269689e+00 0 -1 0
1545 2 1.2565216208716374e+00 1.3669846143566465e+01 9.7473164576265621e+00 1 0 0
258 2 1.1588081268702192e+01 6.5095333985607926e+00 3.4209626625911724e+00 0 0 1
906 2 1.8554007910619955e+01 6.0635975989225246e+00 2.0354447844316916e+00 0 0 0
38 2 1.2159212778270357e+01 9.7589719124116989e+00 4.5143645180576488e+00 0 -1 -1
1309 1 1.9292290519629848e+01 1.0905723404005814e+01 5.7876893657157664e+00 0 0 0
704 2 3.4518630777569737e+00 8.5852448877043344e+00 8.1254280724929462e+00 0 1 -1
479 2 1.2949141909458016e+01 1.7743057136335572e+01 1.4335659024956964e+00 0 0 -1
473 2 2.3955244199301258e+00 8.0891131108295742e+00 3.8076441976354021e+00 0 1 0
67 1 3.1444083055945695e+00 1.8643660200585558e+01 5.1169830058624264e+00 0 -1 0
514 1 1.3474728400286534e+01 6.2206510231501282e+00 3.0097819385873810e+00 0 1 -1
661 1 3.8698399012754969e-01 3.8625517019269315e+00 6.6425948686701131e-01 0 0 1
1608 2 1.4658177880632673e+01 5.6924244765456171e+00 3.9706266893974851e+00 0 -1 0
1159 1 5.5339384913239060e+00 1.7607492040826035e+01 5.2572637855238948e+00 0 0 0
510 2 1.3149858062598335e+01 7.7756049715322169e+00 7.3554373619145377e+00 0 2 -1
1314 2 5.5231841311086616e-01 3.5839227917921539e+00 3.6781043048424182e+00 0 0 1
940 1 1.7638890509799278e+01 9.7384050567744040e-01 3.5501918838133433e+00 0 1 1
74 2 1.7118529815765648e+01 5.7163804912694829e+00 9.5701436731983183e+00 0 0 0
965 2 8.4520252510920066e+00 4.8627535675090012e+00 9.0994554300663744e+00 0 1 0
1579 1 2.3575718103094750e-01 1.9223415009104169e+01 8.8939900401412277e+00 0 -1 0
721 1 1.2022394295884856e+01 3.6290773433697963e+00 3.3066706915385602e+00 0 1 0
1620 2 9.7651273966227041e+00 1.9387927099656739e+01 6.8035341639284317e+00 0 -1 0
73 1 1.7175385970935519e+01 5.6503486341367202e+00 8.5963017985499075e+00 0 0 0
739 1 7.5616313229167966e+00 9.1321995658445569e+00 4.5874950508310919e+00 0 0 1
662 2 1.1684472740611966e+00 3.3090196166025345e+00 5.4585690700844158e-01 0 0 1
1526 2 8.2059548385536676e+00 1.4674335905981861e+01 5.1968036557399966e+00 0 0 1
1398 2 1.8492477963744669e+01 7.6061331957914700e+00 4.1992756305705754e+00 0 -1 1
60 2 5.4424689283544947e-01 6.5012081298120314e+00 9.8613118227375320e+00 0 0 -1
919 1 1.2751142412020020e+00 1.8081979062652298e+00 4.9526381108274524e+00 0 1 0
920 2 3.8521062232712755e-01 1.4118040605577391e+00 5.2108024006797589e+00 0 1 0
672 2 1.0386674048227396e+01 1.5878856242988588e+00 1.7790724984752251e+00 0 0 0
1754 2 2.0254551171790531e+00 4.6874768822853730e+00 7.0063071161032493e+00 0 1 0
320 2 5.2519566524933383e+00 1.0426565718142648e+01 7.3141633252865317e+00 0 -1 1
100 1 1.9724527804807600e+01 8.8022492912561168e-01 5.2349572104381092e+00 0 0 0
958 1 1.4536683405086315e+01 3.5424188439753515e+00 2.3481721857686861e+00 0 1 0
1616 2 3.9559215455919290e+00 6.4375943702217597e+00 6.6266413803180662e+00 0 1 0
1378 1 1.8998092390403741e+01 1.5891082402222137e+01 3.6367484799431687e-01 0 0 1
1085 2 7.4714286969316754e+00 1.4341048563598790e+01 3.3992466144906333e+00 0 0 0
1310 2 1.9419190536821247e+01 1.1730500699132749e+01 6.3154865225617387e+00 0 0 0
478 1 1.3494745157375652e+01 1.8507969197789141e+01 1.5425742708966257e+00 0 0 -1
972 2 1.1193045511392068e+01 8.5437196964517312e+00 7.9014495466834687e+00 0 0 0
513 2 6.5330411722122292e+00 3.7830557713187383e+00 3.9364670876082801e+00 0 0 0
1750 1 1.0326021690062300e+01 1.7977075515596741e+01 1.7275558871957700e-01 0 1 1
893 2 2.3820784279978149e+00 5.1727852796893599e+00 3.3704817275725190e+00 0 0 0
1083 2 1.0347658450992480e+01 2.3347755726798267e+00 6.4738491963942355e+00 0 1 0
19 1 1.0887826601696979e+00 7.3028797108191297e+00 5.3245919671267803e+00 0 0 0
1548 2 1.4353984436807924e+01 9.0209659745886253e+00 4.8841737750718641e+00 0 0 1
1810 1 1.7000286435987537e+01 8.3005075398327488e+00 3.4089792810407729e+00 0 0 1
1529 2 4.4259068561124204e-01 3.8330897542813460e+00 9.9883949098283633e+00 0 0 0
1086 2 7.7219767590190624e+00 1.2819038192444667e+01 3.8559234925819306e+00 0 0 0
744 2 1.2802272075678291e+01 4.7087213663825613e+00 9.9724586215491726e+00 0 -1 0
45 2 1.5095622659400389e+01 1.5873049922982842e+01 8.5197422190312420e+00 0 -1 0
39 2 1.2010337231804460e+01 8.4855248890402812e+00 3.6880113885129511e+00 0 -1 -1
684 2 8.0530448697986348e+00 1.8852755224434251e+01 4.6240262557069078e+00 0 -1 0
1537 1 2.1419412350145017e-01 1.4529291263492320e+01 2.4001427609076447e+00 0 0 1
40 1 4.6425897376031964e+00 1.4060240942699137e+01 2.2692599040008803e+00 0 -1 0
1804 1 1.8159680434140952e+01 1.2715650759415809e+01 2.2810583837789111e+00 0 0 1
1568 2 9.6428483556503668e+00 1.0136398098167481e+01 7.7104317607446333e+00 0 -1 1
1547 2 1.5387668927835261e+01 1.0041759110730222e+01 5.4514336914261747e+00 0 0 1
1816 1 9.2307886821542677e+00 2.2963016258997855e+00 4.9906119230946748e+00 0 2 1
1541 2 2.5412135669129960e+00 1.6872918025874561e+01 7.7737877942549016e-01 0 -1 1
221 2 1.0971192631503754e+01 1.3402968338773114e+01 3.8007074418963810e-01 0 1 0
302 2 1.4351384862949669e+01 6.1705376617353469e-01 7.4531572352788276e+00 0 0 -1
1177 1 5.9774134226404509e+00 1.7561716046649742e+01 2.3140579913690620e+00 0 0 1
315 2 1.1670276154173342e+01 2.5203675189084613e+00 4.5438118049782747e-02 0 1 0
298 1 1.7793459853266619e+01 1.9350754310223621e+01 8.2111982799234120e+00 0 -1 0
8 2 9.1144660811391844e+00 1.6160343215907290e+01 9.7059224146914964e+00 0 -1 0
903 2 1.2028920229855986e+01 1.4012856004956738e+01 6.4941563576037753e+00 0 1 0
723 2 1.1367519051625580e+01 3.6184066683980514e+00 2.5948018149755665e+00 0 1 0
1806 2 1.9054626192811867e+01 1.2428329443186554e+01 1.9289168657500391e+00 0 0 1
738 2 1.5603515433067640e+01 8.3058723925868936e+00 7.1751098918423990e+00 0 0 0
715 1 1.8831231348893500e+01 2.3379785063447924e+00 3.2452789033502971e-01 0 0 1
1756 1 1.1597346864961139e+01 1.6140472996477751e+01 1.3736716873671868e+00 0 0 1
1403 2 8.0115269854056734e+00 1.7854199932339732e+01 7.5176043325868473e+00 0 -1 0
69 2 2.9438032082516239e+00 1.7697079204952033e+01 4.9877856553151094e+00 0 -1 0
1809 2 1.5677519027736126e+01 1.3323061858269121e+01 1.2780662094180939e+00 0 0 1
1360 1 1.1023756244490066e+01 1.2156556926629158e+01 9.9632732178949208e+00 0 -1 0
737 2 1.5325208714329921e+01 8.2110102920588801e+00 8.6052964562247389e+00 0 0 0
753 2 8.1424101452760453e+00 8.1632609124649349e+00 1.0902576229512386e+00 0 1 0
901 1 1.2411668771460125e+01 1.3251517568911625e+01 5.9732699140943017e+00 0 1 0
1107 2 6.9551615094190069e+00 1.4484846384121783e+00 2.1150148623388891e+00 0 1 1
1155 2 1.8402078022722971e+01 1.6028318009970878e+01 8.5758991450571624e+00 0 1 0
1340 2 8.5551847071726979e+00 8.2247943504935317e-01 9.8737058138335456e+00 0 1 1
727 1 1.5684438341732459e+01 1.4756464137245786e+01 5.4895192081247588e+00 0 -1 1
1793 2 9.8549124381881921e+00 6.9079541688963468e+00 5.3054750007040115e+00 0 0 1
9 2 1.0168817116910063e+01 1.5099269487896573e+01 1.0190697030626882e+01 0 -1 0
1786 1 2.8492950965608594e+00 1.1733348563795102e+01 6.7655012465911932e+00 0 0 1
141 2 1.9866646525766754e+01 2.0785778664478527e+00 1.5370137588336406e+00 0 0 0
935 2 1.4749046227809437e+01 1.1411329884307165e+01 7.3604270158515934e+00 0 1 1
716 2 1.7851472369335919e+01 2.4186560680157894e+00 3.9784503637622914e-01 0 0 1
1393 1 1.6199053975726809e+01 6.5770542393369045e+00 2.0854420098706727e-01 0 0 0
1182 2 1.5895922882549797e+01 1.4290744833862890e+00 8.8582270133785173e+00 0 1 0
1567 1 9.6825516762064421e+00 1.1150586724034943e+01 7.6392429818744265e+00 0 -1 1
1782 2 1.0220897138189828e+01 1.8475718080235609e+01 4.8602226555847183e+00 0 0 0
931 1 1.5452668185305601e+01 1.7693786417709401e+01 6.8968030956382069e+00 0 0 0
1176 2 8.8201636753309760e+00 1.8709857859183352e+01 4.3991572067469187e-01 0 0 0
1100 2 1.4093616338592025e+01 2.0148361922439655e+00 5.7083032725497862e+00 0 0 0
59 2 1.0029472456491528e+00 5.7338538566719404e+00 8.5953545835677136e+00 0 0 -1
905 2 1.6999699368395348e+01 5.7123041528130720e+00 1.5926521521488695e+00 0 0 0
694 1 1.3389087692486584e+01 1.3235040438216885e+01 9.1804031062576623e+00 0 -1 0
921 2 1.9505760347909740e+00 1.1305966108598811e+00 5.0487200539360719e+00 0 1 0
1304 2 6.9085582648346699e+00 1.5845218132144881e+01 2.0956214075190012e+00 0 -1 1
1161 2 6.2711951217823918e+00 1.7648435526742293e+01 5.8917313106264535e+00 0 0 0
700 1 6.9877628058191679e+00 6.0288847800554572e+00 6.3268988851644865e+00 0 0 -1
690 2 1.6885191472723836e+01 1.6812008428664054e+01 3.0579971462905529e+00 0 -1 0
959 2 1.3661747114675554e+01 3.4751442479375640e+00 2.8027779404537276e+00 0 1 0
1805 2 1.7775417483196716e+01 1.1984690562275752e+01 2.8161673722325538e+00 0 0 1
41 2 5.1596270124574533e+00 1.4056451536379175e+01 1.4210907738942924e+00 0 -1 0
724 1 1.8744422193085089e+01 2.5495932074458367e+00 7.3212411242024906e+00 0 0 0
1525 1 8.6710693058508443e+00 1.5349003424858799e+01 5.7624996055704694e+00 0 0 1
1326 2 1.4828882314350771e+01 3.7620279628864677e+00 7.6868690726163758e+00 0 1 0
282 2 4.7910304733794842e+00 4.1451300901985961e+00 2.7905314798527452e+00 0 0 0
1778 2 6.2831934168711827e+00 3.2339520383619180e+00 9.9198297465954965e+00 0 0 0
228 2 3.0334070804705244e+00 1.3182052575671081e+01 1.6781217086573852e+00 0 0 0
688 1 1.6857444866762858e+01 1.6653165515537463e+01 2.0697483299472852e+00 0 -1 0
933 2 1.4564680621460406e+01 1.7686381014500178e+01 6.4879903430770103e+00 0 0 0
1095 2 1.0538761173740017e+01 7.9486783072109510e+00 4.4264834143671644e-01 0 2 0
496 1 1.1460903521184598e+01 1.5447270912436826e+00 9.5775584220224683e+00 0 0 -1
474 2 3.1647771820637103e+00 9.4361238934293237e+00 3.9942494213932509e+00 0 1 0
932 2 1.5935895879687468e+01 1.8511546117320513e+01 6.6242007219525396e+00 0 0 0
1535 2 1.2016818845810997e+01 1.6968569474514922e+01 6.8571642098521268e+00 0 -1 0
686 2 5.7091477610689001e+00 1.2482597605296348e+00 6.8493305502536268e+00 0 1 0
703 1 3.9157113684616744e+00 8.3395180177417352e+00 8.9365216281598343e+00 0 1 -1
1787 2 3.7547473864889689e+00 1.1668841744672495e+01 7.1817000266836821e+00 0 0 1
671 2 9.2803197092936660e+00 2.5262267448014888e+00 1.2371910597537494e+00 0 0 0
1181 2 1.7096027721746676e+01 2.4558871088267993e+00 8.4948045354406680e+00 0 1 0
92 2 1.4536319503490594e+01 3.2520003437824192e+00 9.8809952760986057e+00 0 1 -1
678 2 1.6902782882720307e-01 7.9350952435565931e+00 2.6626013999664297e+00 0 0 0
677 2 9.1894374123835321e-01 9.2665140541301643e+00 2.1399826409899085e+00 0 0 0
1780 1 1.0793177005301287e+01 1.9188325432070432e+01 5.2137031374191078e+00 0 0 0
223 1 9.1286537197302628e+00 1.7301948226309221e+01 4.2488702618115441e+00 0 0 0
441 2 5.0253779233115639e+00 7.5296710706898038e+00 3.2642084735563746e+00 0 1 0
1536 2 1.1933134711890862e+01 1.8434902555077418e+01 6.2626691202823332e+00 0 -1 0
1379 2 1.8196144254117108e+01 1.5890910993030531e+01 9.2049161815225555e-01 0 0 1
1165 1 1.4296237352369856e+01 1.7173496867707495e+01 9.3593252984027711e+00 0 1 0
490 1 5.0050464779275838e+00 2.8335053297882551e+00 6.8569823868944173e+00 0 1 0
669 2 3.8124209047212840e+00 1.5472053675001245e+01 2.1291953660556291e+00 0 0 0
18 2 3.4816976806262212e+00 6.3303606069940859e+00 2.7396606656997408e-01 0 0 0
293 2 1.7649995191963281e+01 8.6349265831313851e+00 7.5595851354987822e+00 0 -1 -1
438 2 1.7017814728414773e+01 1.0039496192685741e+01 3.4823877379730592e+00 0 0 0
1322 2 1.0455310801358408e+00 1.6282052316990594e+01 4.4520470703117550e+00 0 0 1
1546 1 1.5165462932924827e+01 9.1177284421076958e+00 5.4967536298662640e+00 0 0 1
894 2 3.3756070283676762e+00 5.9220126305866394e+00 2.4956725196460030e+00 0 0 0
957 2 1.5708516658335238e+01 3.6166427838340183e+00 5.5871174152935126e+00 0 0 0
1377 2 1.8624498431173531e+00 1.1405663833199077e+01 1.2902977121384174e+00 0 1 1
1595 2 1.4673426530064109e+01 8.8496737883645764e+00 1.1030715164013076e+00 0 1 1
1538 2 1.0863374374040013e-01 1.3862678868019577e+01 3.0777042222163589e+00 0 0 0
1333 1 1.9089837372015001e+01 9.7816210499820695e+00 9.0269291431570464e-01 0 -1 1
1343 2 2.7964850627949467e+00 1.4304387498354729e+00 1.0043017809615499e+01 0 0 0
58 1 3.2281310221926618e-01 5.7411317542874034e+00 9.2909650703680757e+00 0 0 -1
1113 2 8.0379307972393068e+00 1.2362828923458606e+01 7.3768320824408455e+00 0 0 0
676 1 1.7616980013321448e-01 8.9093414629431553e+00 2.7153042393707958e+00 0 0 0
281 2 5.6122808752310887e+00 5.2886944965270448e+00 2.3411987347422309e+00 0 0 0
30 2 6.3459295103963109e+00 1.0604431351805244e+01 9.6710885177621559e+00 0 -1 0
1539 2 9.2424620149565706e-02 1.5323989377594701e+01 2.8819517470774105e+00 0 0 0
66 2 1.8146393516339611e+01 1.4627458541490313e+01 6.9864643976654266e+00 0 0 -1
952 1 8.7679909704495955e+00 1.1346412198343486e+01 3.7925072048051089e+00 0 0 1
1594 1 1.4120794512262197e+01 8.0436730737073301e+00 1.2592680677526025e+00 0 1 1
695 2 1.3509699756962259e+01 1.2476051118990963e+01 8.5745766836516779e+00 0 -1 0
264 2 1.3916008017476917e+01 1.4960851993557638e+01 2.1294120531005931e+00 0 0 0
904 1 1.7629176629768601e+01 5.9130536966354157e+00 2.3188795739955399e+00 0 0 0
1606 1 1.5275591580431529e+01 5.4427342204010030e+00 4.7575465131866679e+00 0 -1 0
956 2 1.6069575207253987e+01 2.2557209560251716e+00 6.2769367936413785e+00 0 0 0
1762 1 -1.8102088627489424e-02 6.3647625444463563e+00 2.0516201634652429e+00 0 1 0
670 1 1.0249685096734346e+01 2.4744074671729539e+00 1.4552139527986707e+00 0 0 0
1566 2 3.8941690248578364e+00 9.4313000497372135e-01 1.6225092312236275e-01 0 1 0
48 2 5.0314964934473068e+00 1.4483243845071469e+01 7.6498130318823536e+00 0 -1 0
488 2 1.6938322620546391e+01 1.1964913462261427e+01 6.6970076663788545e+00 0 1 -1
508 1 1.2970648549719055e+01 8.6209728062506699e+00 7.7984246287681680e+00 0 2 -1
1752 2 1.0872967478268981e+01 1.7207937695399732e+01 6.3005413020234524e-01 0 1 1
942 2 1.8605094137983741e+01 9.8248882727766185e-01 3.8108265990762100e+00 0 1 1
885 2 1.3917384092710440e+01 5.5537173577405854e+00 7.4920609020292401e+00 1 0 0
46 1 4.5599096069747045e+00 1.4608840844813249e+01 8.4764113059838575e+00 0 -1 0
89 2 1.4909801977899335e+01 1.2881145709465972e+01 4.8462605128129770e+00 0 0 0
1123 1 1.6739208460385907e+01 5.5863768444398287e-01 6.0980196195314162e+00 0 1 0
1 1 2.7113096892308080e+00 1.9031302068069234e+01 7.6265608964818545e+00 0 -1 -1
909 2 1.5943758802114787e+00 1.9094463387472203e+01 2.1270700360778370e+00 0 0 0
1154 2 1.9796798952651312e+01 1.5540952042499104e+01 8.1084806289750837e+00 0 1 0
1534 1 1.2554721380725635e+01 1.7744626424831090e+01 6.5899097101885991e+00 0 -1 0
944 2 1.5666690184609958e+01 1.8880015463231310e+01 4.3689310067721712e+00 0 0 1
916 1 1.3185207393323047e+01 1.1119737023320397e+01 2.4250747163053767e+00 0 0 1
1832 2 3.4015110700959199e+00 1.5541735237040614e+01 7.8653150602510458e+00 0 -1 0
1729 1 4.7070365857261631e+00 1.0798915337142855e+01 1.4447146481061488e+00 0 1 0
962 2 1.0273858795740598e+01 1.1621515074392795e+01 1.1119678909004937e+00 0 0 1
1833 2 2.0572397209036883e+00 1.6252147517711336e+01 8.0008793827715330e+00 0 -1 0
1180 1 1.6731044985428053e+01 1.8513895972323344e+00 9.1669867301285617e+00 0 1 0
874 1 6.7833623032278529e+00 7.3274524493590327e+00 9.6369144924001713e+00 0 0 0
436 1 1.7092409159315896e+01 1.0983741198307879e+01 3.7435290669938217e+00 0 0 0
913 1 1.9326185151232725e+01 1.7895565294804456e+01 5.8602597477756069e+00 0 0 0
79 1 8.0813011707463218e+00 1.6019494040811275e+00 8.3290683203534019e+00 0 1 -1
1755 2 1.6279672293832390e+00 6.2073114708903594e+00 6.6173897245201809e+00 0 1 -1
728 2 1.5217260672542514e+01 1.5384304446431537e+01 4.9267720787214087e+00 0 -1 1
306 2 1.7856562629281370e+01 1.7629615974591012e+01 5.0184993648341836e+00 0 0 1
1396 1 1.9149159023089485e+01 7.3721903643930107e+00 4.8698166208065263e+00 0 -1 1
536 2 1.7327056444338222e+01 1.8310980214903328e+01 1.3268734220962395e+00 0 0 0
65 2 1.7140511929157885e+01 1.3974987843326893e+01 6.0707254258902763e+00 0 0 -1
687 2 6.8093921511215765e+00 1.3151708309233526e-01 6.1247348804368151e+00 0 1 0
725 2 1.8718271506601997e+01 3.4654592759607681e+00 6.9411843398865267e+00 0 0 0
1519 1 1.1658340969933446e+01 6.2265384044706373e-01 2.8924714424376683e+00 0 0 1
439 1 5.9254741961051911e+00 7.4095281228453445e+00 2.8865384723873877e+00 0 1 0
437 2 1.7790805691867718e+01 1.0832653823757727e+01 4.3994444298180397e+00 0 0 0
1361 2 1.1693794092209238e+01 1.2747035219007174e+01 9.5699563149633438e+00 0 -1 0
1563 2 4.2891109063535504e+00 5.2027356228620834e+00 8.1885536235376559e+00 0 1 0
1175 2 7.5245385050301214e+00 1.9484036121566252e+01 1.1267497111466283e+00 0 0 0
685 1 6.2101571567478100e+00 3.5952549017822483e-01 6.8778471385293898e+00 0 1 0
319 1 5.1295562380343540e+00 1.1124794806183964e+01 7.9456479621997200e+00 0 -1 1
11 2 5.7650045611178724e-01 1.7701241767170366e+01 1.0115029384895757e+00 0 -1 0
1753 1 2.2422641432238009e+00 5.6455038588464976e+00 7.1844140888895316e+00 0 1 0