LAMMPS data file via write_data, version 8 Apr 2021, timestep = 4644000

972 atoms
2 atom types

0.1486726855640882 19.842380314415934 xlo xhi
0.034288461921334196 19.956764538089065 ylo yhi
0.1565746232300444 20.644197376799124 zlo zhi
0.3489242239124114 -0.4475992611310826 0.2477651927500025 xy xz yz

Masses

1 16
2 2

Atoms # atomic

4 1 4.46386118222501 1.4880979439378885 3.19832373327476 0 0 0
5 2 4.458166269042587 2.505073143953725 3.130220089912438 0 0 0
473 2 10.970240506513242 7.773747211737401 9.634412268739098 0 0 0
7 1 5.845605969618682 4.994904335084609 5.616930258962828 0 0 0
8 2 6.707758054562135 4.62594253383978 5.25537107853018 0 0 0
9 2 5.179496940848376 4.681652686985765 4.956593312306466 0 0 0
10 1 1.6227165095427396 4.55105291844099 3.8476727536322 0 0 0
12 2 1.3804877822106554 5.215869543944367 3.223060841237069 0 0 0
13 1 4.6115258099053245 6.107006602044674 1.7520740355757833 0 0 0
14 2 4.557997737930482 7.017969583396393 2.196571510502074 0 0 0
16 1 4.1603029571032994 4.222031725125167 3.638565181362623 0 0 0
17 2 4.315230994025537 4.924813552802671 2.9791013658747505 0 0 0
18 2 3.1701847217505756 4.240164244167004 3.912895048732351 0 0 0
24 2 2.3722113300490943 1.4037019837069646 5.471183667792433 0 0 0
25 1 2.567117245910766 5.173950203016814 6.802573476565072 0 0 0
26 2 2.5205093874896605 5.972755863789255 6.283773446489918 0 0 0
27 2 3.4539413854126155 5.353942904880385 7.325177822927994 0 0 0
35 2 6.407917637303369 2.4951971319818393 0.7254873918190387 0 0 0
46 1 8.044592697732794 4.414241334560815 4.137451395248592 0 0 0
48 2 7.799592382222558 5.256510001079081 3.747149582727562 0 0 0
55 1 7.36839400745415 6.447148085263909 1.8811413715356462 0 0 0
56 2 7.3308026482657995 7.352423725757889 2.2014285831451708 0 0 0
57 2 6.369451653144861 6.244656763957307 1.6785372327079806 0 0 0
63 2 8.47319627524682 5.98764040687987 7.3843842368794785 0 0 0
67 1 7.580902205507554 2.108900153569176 2.0655325595182936 0 0 0
68 2 7.591885021050845 2.799833895233314 2.732761773449092 0 0 0
69 2 8.422639432969401 2.2998129154925673 1.600614340984942 0 0 0
112 1 4.109324921956232 8.161397238124202 3.3365252415995403 0 0 0
113 2 4.836985927247492 7.936618957769315 3.9514363633736083 0 0 0
114 2 4.240904660330872 9.164249034652155 3.2196574203014445 0 0 0
130 1 2.3152662026442545 7.664227159126981 5.3703464942308425 0 0 0
131 2 2.7621307472731913 8.097149492450285 4.619662685321801 0 0 0
132 2 2.4011861827127534 8.282278984443947 6.142582170628216 0 0 0
136 1 6.072249880167769 7.594965328801751 5.150113999521193 0 0 0
137 2 6.124150909561872 6.674039030062658 5.364277961987826 0 0 0
138 2 6.980475775532552 7.727005645566937 4.82233749599423 0 0 0
166 1 8.934917163681057 7.675323345968705 4.958205409236272 0 0 0
167 2 9.029407010248871 8.42639980261193 5.536265232144129 0 0 0
175 1 7.64504935888799 9.252526404417244 2.0588583946468186 0 0 0
710 2 8.259617521354865 5.61789339389704 0.20180557741051997 0 0 1
6 2 3.5798762158472743 1.37108975213446 3.676681585586451 0 0 0
325 1 2.5772801120084736 2.44867228342807 6.998740244199325 0 0 0
326 2 2.3857533291238506 3.3641662282995672 6.696829907473991 0 0 0
327 2 3.5341974509575698 2.3989125920805994 7.273143046763212 0 0 0
337 1 4.513826545407423 5.73518140139058 8.51401640460013 0 0 0
338 2 4.173550641116472 5.096360132014664 9.216123538066944 0 0 0
339 2 4.207541646903298 6.649981545415729 8.735506387292691 0 0 0
500 2 7.888106341319684 9.36021324490517 9.603777096758618 0 0 0
392 2 7.634192686343513 2.5663788834686145 9.671586906963874 0 0 0
345 2 1.7199142678009651 5.732588652250791 8.356765104546158 0 0 0
357 2 1.3714521123458017 2.181957831184507 8.353930271540001 0 0 0
358 1 5.32967039477685 2.6110219679372895 7.246081320131064 0 0 0
359 2 5.618479477288354 3.4618069039571133 6.7867799133455335 0 0 0
360 2 5.666763909243125 1.9724684629808336 6.632992613032724 0 0 0
363 2 8.711624516051451 2.687607756344878 7.735389201137233 0 0 0
379 1 7.265584908261909 5.9900383269179525 8.801293712949526 0 0 0
380 2 7.39861531424608 6.946334651054926 9.030915172287365 0 0 0
381 2 6.364296690227678 5.9330596778285685 8.534581644729444 0 0 0
391 1 7.5938119367051815 2.2179291500333895 8.732430928777204 0 0 0
393 2 6.726593568755356 2.5568766018875104 8.450891745400885 0 0 0
467 2 5.75900387011885 8.45522598790453 6.505856942581809 0 0 0
499 1 7.5990462630303455 8.548671627550723 9.116548044472566 0 0 0
400 1 16.89882480683568 1.2263145970339728 9.993478751559161 0 0 0
139 1 1.1884813493330855 9.007408915601076 2.0203790566069655 0 0 0
58 1 8.969592006850396 1.0751459318404628 4.999603649414432 0 0 0
15 2 3.958041605770334 6.051177682427107 1.047313567793244 0 0 0
433 1 2.891428252706732 9.488503045729855 7.345458772997356 0 0 0
236 2 0.9440930789446969 0.4129571731319265 2.362130801627091 0 0 0
147 2 8.97762925486133 9.461304466092495 1.054138186437429 0 0 0
47 2 8.97959750474965 4.387821156472514 3.933258461960426 0 0 0
340 1 3.9273846087826363 3.8893466437220825 10.293940870852513 0 0 0
23 2 1.3069510068742978 0.8002180300312762 4.616751766135663 0 0 0
436 1 4.062404521353628 8.071853169211348 10.058128601654271 0 0 0
62 2 8.978540820782278 4.800272317658536 6.645571773941081 0 0 0
344 2 1.2196594559450928 5.227400523003577 9.85080173473575 0 0 0
501 2 6.753603907636516 8.809619861296598 8.639327467429904 0 0 0
61 1 9.182322885033177 5.764242962298035 6.759641823890486 0 0 0
372 2 7.618244441531731 4.922502385811871 10.240461544312927 0 0 0
540 2 17.73255056708286 9.305884221642758 7.565742269843988 0 0 0
168 2 9.044108273349552 6.938592729367751 5.636315207633987 0 0 0
504 2 12.8336749848319 8.975633056334612 7.893293109200801 0 0 0
19 1 0.8037151985129142 6.324746477191697 1.7381919591455455 0 0 0
374 2 10.863387555808778 6.124927577725205 7.790355010757521 0 0 0
20 2 0.6723019244265955 7.255039644809394 1.8311775439449705 0 0 0
148 1 10.977404616358655 8.263454915798269 3.6012159902891696 0 0 0
210 2 0.5686766542637625 7.32356730126332 5.363479434385169 0 0 0
502 1 12.408448458185633 9.17392796552121 7.035843662537177 0 0 0
77 2 17.7890915750269 0.30476835404013236 2.8176586848346403 0 0 0
177 2 6.880946115064728 9.421194282547056 1.4053420937894818 0 0 0
356 2 0.7368338208745524 0.9645678468487218 9.184053495727424 0 0 0
94 1 15.441904608806395 0.8286650241744344 5.023559425563622 0 0 0
355 1 0.6759228565669624 1.885082765820883 8.926367971626245 0 0 0
342 2 4.055391808378891 2.9447940395567205 10.023878290618793 0 0 0
3 2 2.682502044774984 2.8292533275524723 1.1313260006705672 0 0 0
466 1 5.531577322694911 9.007619356841463 7.316567198092842 0 0 0
463 1 0.9803929739579067 8.654460719611134 9.20466525176124 0 0 0
176 2 7.741189536365717 10.012190983114339 2.7290999059590697 0 0 0
343 1 1.2353349876352335 5.9525146462841345 9.1786798785869 0 0 0
31 1 0.9980929109329151 2.2874128178959325 2.2779800418684326 0 0 0
272 2 7.538842981306995 0.5067312592979651 1.8501969344367373 0 0 0
231 2 4.745123427088785 0.21675291013005205 1.8849706917570879 0 0 0
362 2 9.208753049576547 2.3292768463528812 6.266763291307461 0 0 0
328 1 3.868327151279327 1.1923210379918943 10.13780250144372 0 0 0
361 1 9.403238412915078 2.9024230887508224 7.034490370706924 0 0 0
11 2 0.9132194076276543 4.485259187318318 4.5287956793331405 0 0 0
465 2 1.144749377223119 7.703450129609759 9.247155800697866 0 0 0
2 2 4.074569258999563 2.558901480076274 0.479013081359915 0 0 0
33 2 1.0127956048778 3.0567471643943054 2.920369748177359 0 0 0
37 1 9.361718816110582 2.762748154358952 0.27558460929180645 0 0 0
111 2 2.5956150227565065 9.039317434904016 0.8905625319670906 0 0 0
59 2 9.438549303490415 1.1204044934788724 4.149591748456783 0 0 0
1 1 3.1394362143461243 2.9251391571942187 0.29435053450532034 0 0 0
378 2 10.978267252313461 4.954289905857841 9.920441668462601 0 0 0
150 2 10.147999749453657 7.872189380976186 4.012298103851432 0 0 0
28 1 6.102748026293283 0.6294464831281124 5.275055805270953 0 0 0
335 2 0.7948367107874613 3.0640928528064992 10.201589324224562 0 0 0
102 2 18.328395758088725 0.8513526475090429 4.551368259001347 0 0 0
509 2 17.454666849475256 7.2465520803287955 9.823050146382823 0 0 0
596 2 7.600463762709697 0.4893098903286459 8.712756845331825 0 0 0
464 2 0.2972697904424526 8.715504333744661 8.52189581478314 0 0 0
86 2 17.222921167398905 5.605540779955948 1.0717555612335699 0 0 0
109 1 3.2874284674921443 9.153322903016093 0.1863137579036935 0 0 0
38 2 10.315998740691528 2.617382837787638 0.4483443543629238 0 0 0
42 2 10.620323778277417 0.6035753521212628 2.383018801503432 0 0 0
30 2 5.462178288169228 1.046592145063099 4.662708135819475 0 1 0
41 2 11.49399994342112 1.1614879236155482 3.6055552905950776 0 0 0
471 2 8.937839353856562 9.152842150751614 7.847171649924973 0 0 0
140 2 1.3553346121956165 9.707633829702198 2.6954222881481007 0 0 0
180 2 11.430563510807241 9.19658682720684 0.5000747709572417 0 0 0
503 2 11.442162518799375 9.274373018348658 7.082244490952778 0 0 0
505 1 16.013221648600947 9.762400536603737 7.422838074842305 0 0 0
149 2 11.13391715744874 7.714165703976578 2.7592143202012425 0 0 0
96 2 16.256435765817848 0.8629096317551822 4.5347092680176315 0 0 0
145 1 9.733833468417627 9.736911982586529 0.5031515792850713 0 0 0
366 2 10.832077936843515 2.5313875347140478 10.293511161680827 0 0 0
365 2 10.890812286793086 0.9751064046257554 9.774100983906612 0 0 0
536 2 14.858757112755947 9.260088849150682 8.659411463388572 0 0 0
75 2 15.11157340182495 2.4043286525969463 1.109291526214251 0 0 0
675 2 1.8335254572685948 5.921169701978017 0.5826565448563896 0 0 0
40 1 10.78209198083321 1.4080256123937378 2.999456389027201 0 0 0
212 2 14.803471386032546 8.770020841506586 1.8256700697549342 0 0 0
21 2 19.62051501954355 5.986829873857813 1.5869065631816515 0 0 0
22 1 2.215980443009559 0.8921073314360668 4.73427100477516 0 0 0
211 1 13.948356981170035 8.59858989677021 2.2779718604584454 0 0 0
81 2 19.140372120321867 5.38062978642409 5.623137191401634 0 0 0
60 2 8.006482250759621 1.0892302158771323 4.95213358228931 0 0 0
32 2 0.1951548486801662 2.3182878992143663 1.7120532332299543 0 0 0
73 1 15.638532427574347 2.6044597450407205 0.35281441025942534 0 0 0
329 2 4.148539144857529 0.5404483536973699 9.479459423251496 0 0 0
435 2 2.2033970259425137 9.136269097612931 7.9726096129340105 0 0 0
79 1 19.207909925070318 4.380992828452548 5.421741475577255 0 0 0
535 1 14.01635937164081 8.965865959910861 9.121046943591525 0 0 0
431 2 19.04701794491473 3.3236992907346368 6.692222522563858 0 0 0
537 2 14.314565654444941 8.035331694088308 9.244113200073633 0 0 0
51 2 10.428667181419613 5.9453907727481985 0.9861010642021597 0 0 0
506 2 15.813287510771588 9.286899854457465 6.559291351926857 0 0 0
43 1 12.43058380235282 4.543001382155538 5.073096306331565 0 0 0
44 2 12.383064467608133 5.484504756990993 5.152976962993865 0 0 0
45 2 12.37148486069793 4.032842418780929 5.918861439280052 0 0 0
49 1 11.138422191847116 5.986936516275104 1.6624248847038952 0 0 0
50 2 10.85935289215349 5.295030099450611 2.3275022213641496 0 0 0
53 2 11.208290180151701 4.083413936659333 3.9768658069444434 0 0 0
64 1 12.515694942507205 0.5570666393825163 5.028500047360868 0 0 0
71 2 12.614460905037225 2.554085192864298 1.1188444616350002 0 0 0
539 2 18.825603748669508 8.37369163042268 7.006893841913569 0 0 0
76 1 17.446442584194017 1.0357733736759298 3.4095362034085928 0 0 0
78 2 17.684064312710408 1.8837539720870482 3.0009566613914775 0 0 0
80 2 18.503425426080163 4.224301069335529 4.735385397613398 0 0 0
82 1 14.59225833153753 4.230416698228211 3.657063942010727 0 0 0
83 2 13.937737769835953 4.281679998370907 4.339487304992948 0 0 0
84 2 14.281946006457723 4.854885834846143 2.936972299471767 0 0 0
85 1 17.759686700041907 5.7292892264737985 1.9355877721336465 0 0 0
87 2 17.49639691808022 6.5439186582716315 2.4576953155389596 0 0 0
88 1 17.389839884764942 3.6649528169409633 3.5963584500972643 0 0 0
89 2 17.508969500199555 4.466554470034384 3.0306566300839943 0 0 0
90 2 16.433054743080074 3.766268733723091 3.9076226065381623 0 0 0
91 1 13.787081451898937 5.983926473459001 1.7047499540381374 0 0 0
92 2 13.756867540566216 6.929597399990674 1.9280275784576046 0 0 0
93 2 12.841985752361568 5.980798847097858 1.4736809859601985 0 0 0
97 1 16.288519402378395 5.623641921598772 6.872895033949137 0 0 0
98 2 17.14243424474443 5.6725648998344855 7.37085790158208 0 0 0
99 2 16.04556181316447 4.690343537755875 6.655880028006634 0 0 0
103 1 13.821220063861674 1.9961768205220494 2.2390369572985898 0 0 0
104 2 14.000974799239515 2.5204428941777124 3.0847140202297543 0 0 0
105 2 13.824005285423613 1.0325256086476153 2.554479792030458 0 0 0
172 1 12.892508115891408 7.353708429479581 5.312249843967159 0 0 0
173 2 12.736911056405855 7.999294440437492 6.029837069036874 0 0 0
174 2 12.375739680203774 7.625528347462127 4.5721762452390635 0 0 0
184 1 17.52204383383992 8.032156667262777 3.6996787287688493 0 0 0
185 2 17.756793196551357 8.988942935539901 3.5068455135956573 0 0 0
186 2 16.70021137344985 8.010614911964987 4.2493646017142765 0 0 0
202 1 15.568684893122228 7.812548589476387 5.464339140566619 0 0 0
203 2 14.746865777096483 7.671094449536852 4.942404584131843 0 0 0
204 2 15.782118414889712 6.936404822040673 5.917385499704073 0 0 0
209 2 18.83844433135925 7.460184312548351 4.746992090399552 0 0 0
213 2 13.2417720654464 8.854614259343823 1.6650576513897635 0 0 0
373 1 11.40881496694415 6.156478453564497 8.57549057157227 0 0 0
375 2 12.301697129812966 6.290169650026094 8.29039878931528 0 0 0
394 1 11.972594352244544 2.693159600767783 6.824634558964571 0 0 0
106 1 18.40229328087059 2.4471244196375777 0.7335362551849801 0 0 0
396 2 12.117277114028237 1.8927497451789803 6.226992522763772 0 0 0
397 1 15.869438254480785 2.836806510715048 6.800028742689271 0 0 0
398 2 16.838856022516246 2.7200233472215505 7.039796533158413 0 0 0
399 2 15.679289967113963 2.100916795651861 6.193625644314548 0 0 0
538 1 18.706298712339077 9.184352841125207 7.559741410395422 0 0 0
409 1 18.236757725440928 5.882872683736789 8.645130170626933 0 0 0
410 2 18.050189490651658 5.026022063599516 9.149997030911099 0 0 0
411 2 19.232964848517337 5.81039667381509 8.56042213434164 0 0 0
415 1 14.064553283021274 6.331168774369326 8.558207439526054 0 0 0
416 2 14.612043934350119 5.900396852791809 7.859670910046274 0 0 0
427 1 13.923540113994783 2.702539507028436 8.716615015390973 0 0 0
428 2 13.138350904140884 2.6359980391513247 8.178735800986134 0 0 0
429 2 14.638840170136941 2.656654193054938 7.957668303460472 0 0 0
430 1 18.60424643622128 2.6532289032614287 7.224965783207328 0 0 0
417 2 14.186442330769603 5.712348796079498 9.280488664163949 0 0 0
208 1 19.32101830482713 7.023036583941148 5.464090801163656 0 0 0
101 2 18.99612135978224 1.4119392146306116 5.953968416507144 0 0 0
100 1 18.980132527749213 0.7012883659575898 5.31223040857317 0 0 0
443 2 1.1193385119778578 9.98041969070601 10.2604536043254 0 0 0
52 1 10.52232994815554 3.9978299164182474 3.2770871695158768 0 0 0
54 2 10.481760556802186 3.0631350139053457 3.0765460417162775 0 0 0
395 2 11.028146314193432 2.651432632866461 7.067688665013362 0 0 0
432 2 19.188534838722585 2.3956379486580004 8.030771442383706 0 0 0
469 1 9.445270645667398 9.446384676292464 7.018720175247412 0 0 0
66 2 13.500599395608859 0.6768277181933338 5.12036324435941 0 0 0
141 2 0.3322429322374618 9.05012844944642 1.5237356073635175 0 0 0
468 2 4.59796062975625 9.192445340463442 7.307828595501851 0 0 0
747 2 15.295602846877575 5.530413727725783 0.4197606514601377 0 0 0
401 2 16.997340946357117 0.47845175903858495 9.397792107129277 0 0 0
181 1 15.978486779946511 9.288270722261826 0.632485504875205 0 0 0
412 1 17.162966197948805 3.926747005803767 10.070929869792648 0 0 0
178 1 12.348583974793911 9.26423078108268 0.28075218008649777 0 0 0
408 2 14.304136636100512 3.628392633631364 9.893313115925293 0 0 0
437 2 4.027539028380731 9.015634098677584 9.890350573095903 0 0 0
70 1 12.029133062342437 2.627937527872366 0.3565785882547471 0 0 0
633 2 13.848412758611966 0.37024151133128524 8.77145621044992 0 0 0
214 1 18.666796451073036 8.846288130458975 0.4498102243090361 0 0 0
143 2 5.021343325884191 9.298332028054007 0.15917257816520297 0 0 0
74 2 16.61046718558282 2.650391584641288 0.6394237120775015 0 0 0
413 2 17.07041096399513 2.903952794126421 10.010321387345506 0 0 0
485 2 10.734993013579988 9.91363780555241 10.393574793271055 0 0 0
182 2 16.854788951051095 9.004864479902075 0.7652995502947518 0 0 0
162 2 10.88465173287343 9.892089560711094 3.7037538653352517 0 0 0
107 2 18.71476541371126 3.216350627050265 0.17167434809276008 0 0 1
414 2 16.246570517771808 4.198792638283832 10.361509038447354 0 0 0
331 1 5.328353673935271 4.844257901496318 12.427406386187407 0 0 0
332 2 6.27502630729044 4.633519455192238 12.224132049899643 0 0 0
333 2 4.920167804686249 4.544406728021137 11.582080916251856 0 0 0
348 2 2.1080832713678275 1.19658815792942 12.681074373411498 0 0 0
349 1 1.9979576632204936 5.405982925819149 13.699492279032203 0 0 0
350 2 2.1732289475736004 6.10217829283159 13.01182532120206 0 0 0
351 2 1.9665710342325369 4.51712874574703 13.341542609351833 0 0 0
656 2 5.685389141557482 6.009400399647294 19.228134399975858 0 0 0
387 2 7.965313071406726 6.063851783017176 14.315423839271837 0 0 0
454 1 2.1337547586102796 7.5690924425615425 12.223619135704942 0 0 0
456 2 2.413143694718263 8.280080489383712 12.869882525882957 0 0 0
460 1 5.999835843224385 7.686088745918494 11.920230866020209 0 0 0
461 2 5.638277610172899 6.792834332355901 12.009694413663578 0 0 0
462 2 6.89238425275192 7.605306796594916 11.534408487202201 0 0 0
490 1 8.699188407277969 7.773345702485061 11.685376550628353 0 0 0
491 2 8.807730584426608 7.0255009809054725 12.28813839982239 0 0 0
649 1 2.2577120924538985 2.343475234820883 13.860850666931263 0 0 0
650 2 3.2132046617918397 2.4045977515797254 14.096382065193096 0 0 0
651 2 1.6121217611635545 2.41287933049671 14.645096712058779 0 0 0
652 1 3.7459564579076634 1.2478090076599841 16.868374348637673 0 0 0
653 2 3.6321262261511453 2.214947083248959 16.904970246314328 0 0 0
654 2 4.448060686120941 1.058592067598834 17.493963363680358 0 0 0
655 1 5.494034121986898 5.044472553679535 19.006588341719112 0 0 0
657 2 6.241554964431368 4.750792556450136 18.47797566515081 0 0 0
658 1 0.7183004708330802 4.384435489321 17.669245124900538 0 0 0
659 2 0.4015050091445858 3.6478005947738437 17.115691285754515 0 0 0
660 2 0.6043424866083991 5.140472715917445 16.999813010891376 0 0 0
661 1 4.375334105147327 5.833476505997744 15.333875494466199 0 0 0
662 2 4.166218783219319 5.077145368600783 15.937898413508806 0 0 0
663 2 3.7848720049946087 5.643753183139341 14.53979198776592 0 0 0
664 1 3.5369952781051723 4.075878173199053 17.089916931275283 0 0 0
665 2 2.568352691335338 4.232938031862502 17.219635511008104 0 0 0
666 2 3.9034425908841417 4.5170559003234265 17.906346693875665 0 0 0
669 2 1.1465446218761794 5.885655865691482 14.904332383037985 0 0 0
671 2 2.197888557337487 2.0459905197245023 19.383305477809092 0 0 0
682 1 4.904905414508186 2.5824859057201865 14.015686408150566 0 0 0
683 2 5.1559709339247215 3.39217354184683 13.537254780028768 0 0 0
684 2 5.091022207763696 1.8488461451459404 13.371385641991848 0 0 0
694 1 7.379665573823838 3.9102665383159145 17.242271435146215 0 0 0
695 2 8.302057057321509 4.065562992095031 17.537504464114686 0 0 0
696 2 7.336560288808968 2.9474578434481487 17.244924958720244 0 0 0
703 1 6.929588481113768 6.269623226002807 15.710341785049485 0 0 0
704 2 7.1598167608183205 5.4943352724455075 16.31352848364466 0 0 0
705 2 6.019818568423057 6.164981449239383 15.316026168047411 0 0 0
715 1 7.081439072844484 1.8716366418147643 15.514062994577959 0 0 0
716 2 6.205722879889469 2.10105134731251 15.301928355857934 0 0 0
717 2 7.650691809607714 2.354479560601336 14.866853068023323 0 0 0
760 1 4.354900347359734 8.047297161539785 17.067954677117996 0 0 0
761 2 4.253983652110959 7.4075030651346285 16.37073973794989 0 0 0
762 2 5.001183847851095 7.668208511314429 17.751800476443076 0 0 0
778 1 1.9864422274101194 7.753475655264876 18.590395160602753 0 0 0
779 2 2.675604494962393 7.747024107928812 17.92113106869804 0 0 0
780 2 2.1909315075753764 7.062784074922689 19.266729518996986 0 0 0
784 1 6.259921206518625 7.645869325457464 18.916260141721096 0 0 0
786 2 7.261058150737133 7.728033525307016 18.894821053828633 0 0 0
791 2 5.6518172204102 8.731866412021837 13.234466364736237 0 0 0
825 2 6.772115632085306 9.199308067338007 15.01387332317307 0 0 0
814 1 8.950317041914843 7.993278515731201 19.092443389231246 0 0 0
815 2 9.143667704931604 8.663954709999164 19.783871489360585 0 0 0
816 2 9.065193430338004 7.1618198297978655 19.639604675877575 0 0 0
823 1 7.644752323747607 8.935381990850502 15.431217421437989 0 0 0
824 2 7.464484015642936 7.949956220903399 15.685550818355871 0 0 0
341 2 3.044894034604573 3.896192648703729 10.720204495650059 0 0 0
39 2 8.81368740001793 2.498076376799953 19.920970499722856 0 0 0
389 2 13.07416358188248 0.7354511615403281 12.186758926360515 0 0 0
377 2 11.277450025346626 4.283147507658856 11.232328094050978 0 0 0
745 1 15.524984080831796 5.588540695176043 20.223996878561408 0 0 0
183 2 15.291365337588807 9.281272542312452 20.27517926343557 0 0 0
492 2 8.697840614551469 8.555719927140133 12.290995933629254 0 0 0
474 2 9.940847422824662 8.059574013492659 10.76670627086759 0 0 0
789 2 1.6245537154864529 9.01434330949355 15.474414676471005 0 0 0
364 1 10.664479405210546 1.5403038936763904 10.509826033739445 0 0 0
390 2 11.616028551412288 1.049967794767994 11.894853299246225 0 0 0
858 2 0.29693495179456897 7.36787556678176 18.742653693752036 0 0 0
758 2 3.6764751678739525 9.339109945483479 14.0159446585066 0 0 0
353 2 6.530062560607965 1.0559855774805238 11.995847743711002 0 0 0
795 2 8.841519721954596 9.779836301980732 14.181942708805353 0 0 0
706 1 8.393008592710427 1.341864199123774 18.7878493006875 0 0 0
336 2 0.16669143562765074 4.082959443012283 11.320802404144205 0 0 0
685 1 8.76283523123188 3.1082827986279127 13.788403947635606 0 0 0
681 2 0.4816789745448587 1.3268694689324694 16.032144842799944 0 0 0
533 2 0.3632669681162952 7.571829957874116 12.486206113797305 0 0 0
707 2 9.133020635199731 1.317080301920578 18.15023530668505 0 0 0
455 2 2.6437284701463923 7.6760756609736855 11.410462023325056 0 0 0
679 1 0.4476088491272598 2.2848688279814056 15.85308868016948 0 0 0
746 2 15.3293282157212 4.712608278720599 19.978956379952148 0 0 0
687 2 8.74548484828661 2.4819682704610195 12.977261411616261 0 0 0
438 2 4.789777493960346 8.092354460322598 10.698011109594885 0 0 0
376 1 10.7286427722155 4.135955243067965 10.404341858208708 0 0 0
826 1 11.988785622470099 9.268530106032575 14.293108603965358 0 0 0
347 2 2.4603434100866632 0.6322593079426487 11.26324065715507 0 0 0
757 1 2.657169773238649 9.419387189024814 14.084137699489164 0 0 0
385 1 8.671619483339033 5.93103164208954 13.632237574384721 0 0 0
522 2 17.15582905566856 9.790590955268657 10.440690236650278 0 0 0
712 1 12.39518833262295 0.6471692632020123 19.293791864109878 0 0 0
406 1 14.511218081107138 4.411331066759738 10.492962676855662 0 0 0
388 1 12.187924789735868 0.7895397094350407 12.677994731242396 0 0 0
673 1 2.1107682862125485 5.899369093249935 20.437182739036437 0 0 0
790 1 5.405740168874464 9.477411958097857 13.946186429677532 0 0 0
674 2 2.2096003004961795 4.945149872045289 20.53264236473277 0 0 0
386 2 8.662909510829683 4.9732577232525195 13.469201121618855 0 0 0
384 2 9.115385890624056 1.29994548201628 11.314263817109595 0 0 0
728 2 19.239801259908905 4.553391754519859 18.99585191760889 -1 0 0
677 2 5.3547287265042005 1.4203862796573095 19.40636287811121 0 0 0
714 2 13.397281280828482 0.7868454764285804 19.15111117980083 0 0 0
785 2 5.973389200632254 8.371346506975527 19.535165134220318 0 0 0
668 2 1.0255491454348518 7.054782750864807 15.861136375890798 0 0 0
827 2 11.022889125761093 9.415279612112702 14.22190170971133 0 0 0
787 1 1.0130751010202066 8.765304623159512 16.22142678887621 0 0 0
863 2 18.63534311743147 8.575007784212909 14.146920048337748 0 0 0
667 1 0.6372499182599505 6.2200176213006575 15.700801074240086 0 0 0
382 1 8.317520566044527 1.2089142936857142 11.91449571317801 0 0 0
690 2 10.762136138857388 0.7358934650116091 16.64255181648394 0 0 0
744 2 15.925371165656331 1.183817569343554 18.19470262860317 0 0 0
798 2 10.172887435204807 8.182302392501558 17.671421498167987 0 0 0
749 2 0.03428638757503988 0.985611409748298 19.181128574764102 0 0 0
670 1 1.6145775568732308 1.3994959488004506 18.878940750447 0 0 0
700 1 10.12815575525612 4.03128762447541 17.403696347881766 0 0 0
788 2 0.1991495190669152 9.067612677748263 15.814005864724336 1 0 0
383 2 8.656508148947943 0.6065706360780014 12.639666505531723 0 0 0
920 2 6.86195129458271 0.3376493259718768 15.548644080258784 0 0 0
680 2 19.26594177104892 2.374693406743134 15.38420592298252 -1 0 0
424 1 18.927029152618033 0.6216733033850645 12.126338659148132 0 0 0
371 2 8.873514666441839 4.224725491664264 10.855599243926196 0 0 0
404 2 18.5055071658049 4.14277715945441 12.987100446061788 0 0 0
748 1 18.775941932715984 0.6999691985678619 19.204972721289014 0 0 0
352 1 5.591428966648659 0.8562453734931158 12.182677381454969 0 0 0
830 2 16.695586049699443 9.734109981273697 14.255373165466393 0 0 0
861 2 14.464194687340001 9.381942174447921 15.451225680461437 0 0 0
701 2 10.369490324182829 4.594022296763289 16.589102398608244 0 0 0
822 2 12.322586085481383 8.343634901169045 19.82556314204258 0 0 0
672 2 2.242578362594558 1.1335708709849555 18.14664080938488 0 0 0
678 2 6.653557186687843 1.1113009311597832 18.618982203360563 0 0 0
713 2 12.09067816394025 1.3457910083314475 19.90082397040836 0 0 0
692 2 12.143756727893198 5.75027128169833 19.245164333714676 0 0 0
508 1 17.313445661588034 7.922527502301837 10.526984393068593 0 0 0
699 2 10.194692600099339 6.098633895979127 14.720998870874872 0 0 0
702 2 10.509474333875087 3.1250253024665895 17.195152163614793 0 0 0
110 2 2.533557138191981 8.842457586754184 19.935651526744923 0 0 0
829 1 15.755198597266595 9.761189937626659 14.061968598172445 0 0 0
726 2 17.324939042587584 0.9605564456192681 16.384068400250655 0 0 0
534 2 18.908948350851688 6.540722796095108 12.747370937544137 0 0 0
215 2 18.391953211226078 9.832418100805747 20.29574732351897 0 0 0
498 2 12.354238685151667 7.700684441664832 11.464166499685536 0 0 0
370 1 7.905585203461395 4.232712454603901 10.91055477772451 0 0 0
689 2 11.402260764006732 1.267821234382758 17.89710008953883 0 0 0
742 1 15.354828108865028 0.8768820818632819 18.915676297413864 0 0 0
859 1 13.93418976933223 9.000349932233107 16.17625008493428 0 0 0
860 2 13.047948374227397 9.085532371438811 15.725007816481295 0 0 0
796 1 10.83600641835747 8.330656014815618 16.94979737564249 0 0 0
797 2 10.837163751656426 9.328178240993475 16.867209724844017 0 0 0
403 1 18.676642779050137 4.84322803765343 12.317474335992095 0 0 0
753 2 13.953906156754218 0.9106529612715388 15.401834781178879 0 0 0
832 1 17.163838466068796 8.228882157915956 17.368159224184645 0 0 0
367 1 12.514304696288386 4.796052805865656 12.408795655310307 0 0 0
368 2 12.335075335856942 5.752786097219531 12.583061551319966 0 0 0
369 2 12.191491460267448 4.296810333915757 13.146880125357072 0 0 0
850 1 14.983703280391953 8.074839974449757 18.855586751307577 0 0 0
831 2 15.61991000589715 9.050158563244755 13.374777548543298 0 0 0
828 2 12.175838807831939 8.466225938074329 13.756403080937377 0 0 0
407 2 13.827783237456595 4.380674190760589 11.138602323586161 0 0 0
405 2 18.120129859663805 4.521855317453087 11.561781842427896 0 0 0
852 2 15.332880561143725 7.268653836598311 19.282953535143303 0 0 0
420 2 14.921683183433974 1.712861778157796 12.343076022844379 0 0 0
421 1 15.528897769517018 5.5827968785134505 14.133342235741063 0 0 0
422 2 16.333824715409616 5.894580704616071 14.639114139350127 0 0 0
423 2 14.747287885223638 5.743633673768956 14.709201037393958 0 0 0
727 1 18.461282418601265 4.616258640878567 19.64952126606452 0 0 0
496 1 12.753324661119573 7.403246302860502 12.261195176926766 0 0 0
497 2 13.692591520587793 7.264319997334035 12.185527639112813 0 0 0
346 1 1.8186192432475106 0.5464874829136951 11.962039981581754 0 0 0
526 1 15.433061556959178 7.635501332167633 12.423844331464212 0 0 0
527 2 15.485907704601773 6.793767806508874 12.957495962289645 0 0 0
834 2 16.340789391202286 8.258829268955434 17.861796552050148 0 0 0
851 2 13.979287712515328 7.97068662101942 18.87621257911901 0 0 0
691 1 12.03950451307268 4.778550174303772 19.047159736006105 0 0 0
693 2 11.231406839344755 4.59717547817506 18.572853061833875 0 0 0
697 1 10.696193102360525 6.1128577912484126 15.572642423931436 0 0 0
528 2 16.06468760713702 7.655484861676953 11.673043991807667 0 0 0
862 1 18.448982933131106 9.441284850453608 14.626579997386955 0 0 0
718 1 11.442427708974277 2.9285227400660494 14.341767356613458 0 0 0
719 2 12.014123087065359 2.8780018175721165 15.148322744411754 0 0 0
720 2 11.60633023344422 2.043287921048572 13.948441733731176 0 0 0
721 1 15.518318767000844 2.8773320077467957 13.649542220452048 0 0 0
722 2 15.610224723895769 3.81592214258091 13.691306610936605 0 0 0
723 2 14.786588616321191 2.5717259038666413 14.255019298991 0 0 0
724 1 17.34197028931034 1.5111328564775892 17.184887337630652 0 0 0
725 2 17.135928995023693 2.4389469295114057 17.05903895391086 0 0 0
729 2 17.724118868805554 4.708358406416539 19.03351341756514 0 0 0
730 1 13.946825477305454 3.7749890374379316 17.492431810049766 0 0 0
731 2 13.37928586060759 3.768571708797481 18.322497298868544 0 0 0
732 2 13.544632739017544 4.508217699452223 17.02908274573982 0 0 0
733 1 17.69607591722942 6.074627705213615 15.613127590552992 0 0 0
734 2 18.722301492528484 6.1866782316841 15.405867309694427 0 0 0
735 2 17.5583262596418 6.890160044927931 16.101319255547956 0 0 0
736 1 16.58219624918928 4.201558579374775 17.42134175342918 0 0 0
737 2 15.600516859983037 4.095001716481356 17.35138752876044 0 0 0