LAMMPS data file via write_data, version 15 Apr 2020, timestep = 200000

972 atoms
2 atom types

1.4521485776836229e-01 1.9845838142231976e+01 xlo xhi
1.9281164076736701e-01 1.9798241359233288e+01 ylo yhi
1.6619212609295353e-01 2.0634579873907775e+01 zlo zhi
7.0396646793063600e-01 -1.5277452174252112e-01 2.2988483075112645e-01 xy xz yz

Masses

1 16
2 2

Atoms # atomic

4 1 3.6595129068340562e+00 1.4041707935910039e+00 3.2219854382669739e+00 0 0 0
5 2 3.8319226372036486e+00 2.3739222463586849e+00 3.3153025080893217e+00 0 0 0
6 2 2.8254846319651103e+00 1.3113631992836612e+00 3.7141384008128480e+00 0 0 0
7 1 5.6876250135479030e+00 4.8291621269568337e+00 5.7296643233715638e+00 0 0 0
8 2 6.4945694868042168e+00 4.4796579345177721e+00 5.2603013587071867e+00 0 0 0
9 2 4.9040849638314636e+00 4.5713553032102210e+00 5.1346384073882163e+00 0 0 0
10 1 1.1911780912803243e+00 4.2517515109559509e+00 3.9267340998949232e+00 0 0 0
127 1 1.2629660336521309e+00 1.2268280305966563e+01 1.4027205210148266e+00 0 0 0
12 2 8.3958792732350385e-01 4.8875306564921743e+00 3.2700198175398554e+00 0 0 0
13 1 4.6260376058366850e+00 6.1457359277777170e+00 1.9586486643895835e+00 0 0 0
14 2 4.5566553326970478e+00 7.0395636113384175e+00 2.3850548085051968e+00 0 0 0
15 2 3.8808581990269353e+00 5.9941901240927038e+00 1.2979304810760546e+00 0 0 0
16 1 3.9482616122930336e+00 4.1080442912143926e+00 3.8412940273686424e+00 0 0 0
17 2 4.2309981534890557e+00 4.7578117944200002e+00 3.1565984451287168e+00 0 0 0
18 2 3.0206430414523511e+00 4.3361249478515109e+00 3.9618859546765375e+00 0 0 0
19 1 7.2730746580478423e-01 5.9200200219060806e+00 1.9375395891077258e+00 0 0 0
20 2 8.4836838220326982e-01 6.8589025525002469e+00 2.1688226146144474e+00 0 0 0
22 1 1.7190662440046800e+00 1.2277835931690237e+00 5.0169763678828598e+00 0 0 0
23 2 7.6654607890626869e-01 1.4014422037154657e+00 4.8827572784030400e+00 0 0 0
24 2 1.9698688269206868e+00 1.7150848240428576e+00 5.7933213074083492e+00 0 0 0
25 1 2.5060092203557121e+00 5.5036849068268534e+00 7.0040743649627997e+00 0 0 0
26 2 2.4117556873750106e+00 6.0356997261480831e+00 6.1608791766182680e+00 0 0 0
27 2 3.4671430243695083e+00 5.6473683443254465e+00 7.4384003628921418e+00 0 0 0
28 1 5.7310124549948682e+00 9.4601129359186098e-01 5.1004938601954359e+00 0 0 0
29 2 5.1120469773000261e+00 8.9384695500940226e-01 4.3368383637272254e+00 0 0 0
30 2 6.2234174457414353e+00 1.9692324954926431e+01 5.5119880533738579e+00 0 0 0
61 1 9.6170234555049632e+00 5.6645601381646635e+00 7.2231437583668994e+00 0 0 0
500 2 7.6973666503989824e+00 1.0476635858775602e+01 9.9062518480401867e+00 0 0 0
33 2 1.0562548592575673e+00 3.0754230020446807e+00 2.7278886867501746e+00 0 0 0
675 2 1.8647805631770473e+00 5.8582382452069606e+00 5.9144236304532982e-01 0 0 0
35 2 6.0281138044967264e+00 2.5167587629800132e+00 1.2486893445118463e+00 0 0 0
46 1 8.0753440185071490e+00 4.3214901863945636e+00 4.2334405226868448e+00 0 0 0
47 2 9.0601083099464308e+00 4.2891824301966457e+00 4.2320040044502365e+00 0 0 0
48 2 7.7584905713698662e+00 4.9405111884826240e+00 3.4968781705031722e+00 0 0 0
55 1 7.1999602117398611e+00 5.9181098083950650e+00 2.2849630010975739e+00 0 0 0
56 2 7.3271693386294956e+00 6.9183825017570753e+00 2.4189797061016929e+00 0 0 0
57 2 6.2154868262032066e+00 5.9533337034598999e+00 2.2605439156018452e+00 0 0 0
58 1 8.5089619895200368e+00 1.2778531283106751e+00 5.1361919655285631e+00 0 0 0
111 2 2.4902239128509782e+00 9.0840922016390984e+00 1.2647469571540331e+00 0 0 0
60 2 7.5035821426943157e+00 1.1631181149245395e+00 4.9370864345572976e+00 0 0 0
143 2 4.6554099237406428e+00 9.0228888091862167e+00 5.0665965759062725e-01 0 0 0
469 1 9.4471954959074935e+00 9.4159277013518743e+00 7.4339857973234489e+00 0 0 0
63 2 8.7693215248540000e+00 5.9262554725541623e+00 7.7472822435028705e+00 0 0 0
67 1 7.5132045288637910e+00 2.2812017341082429e+00 2.5019652965391299e+00 0 0 0
68 2 7.7491502106683186e+00 2.9919146523907183e+00 3.1191719836684055e+00 0 0 0
69 2 8.1536375175511093e+00 2.5193231634125279e+00 1.8044722466007559e+00 0 0 0
59 2 8.9080863474606282e+00 1.6269280465805420e+00 4.2789523615098508e+00 0 0 0
609 2 8.1684932016444343e+00 1.5700491939190627e+01 9.7039902724684222e+00 0 0 0
927 2 9.4281882841153202e+00 1.8794434798498756e+01 7.1546235322621965e-01 0 0 0
112 1 4.5405212031467528e+00 8.4273004072509092e+00 3.4118302494109756e+00 0 0 0
113 2 5.3291219445244637e+00 8.2315058051012251e+00 3.9742306485214081e+00 0 0 0
114 2 4.4880252599383823e+00 9.4656286099185394e+00 3.3190124858234094e+00 0 0 0
115 1 5.6214231606673257e+00 1.1365481585603799e+01 5.5145199418816899e+00 0 0 0
116 2 5.7704682704538497e+00 1.2307011360366543e+01 5.5428507506126259e+00 0 0 0
117 2 5.6027822305444559e+00 1.0948363750561864e+01 6.4410134271410131e+00 0 0 0
118 1 1.5479299544579648e+00 1.0841025402939549e+01 3.6258712084148259e+00 0 0 0
479 2 7.8123240223775898e+00 1.2185082999710426e+01 1.0019521326674859e+01 0 0 0
120 2 2.5170109399378413e+00 1.0885646378207214e+01 3.9139557537120182e+00 0 0 0
121 1 4.9121581250732973e+00 1.2748646719369093e+01 1.5969595890632142e+00 0 0 0
122 2 5.8079348451433708e+00 1.2710587280977835e+01 1.3256401499052157e+00 0 0 0
123 2 4.4702605423527757e+00 1.2362041484851018e+01 7.7285308514117412e-01 0 0 0
124 1 4.1800334348756261e+00 1.0982857171107218e+01 3.3451380691992596e+00 0 0 0
125 2 4.5359859501732602e+00 1.1678963506376114e+01 2.7024844998684765e+00 0 0 0
126 2 4.7177861936418388e+00 1.1234296571654669e+01 4.1492977969932374e+00 0 0 0
31 1 1.0037729712684536e+00 2.3281129430381156e+00 2.1264542718305046e+00 0 0 0
128 2 1.7574377109365622e+00 1.2094392784117499e+01 5.8841215275555658e-01 0 0 0
129 2 1.5316453589627599e+00 1.1601221254176524e+01 2.0616099370909922e+00 0 0 0
130 1 2.6515623560918788e+00 7.8172075674208035e+00 5.3360028724405630e+00 0 0 0
131 2 3.4131491100358589e+00 7.9578929667651526e+00 4.6330726905957267e+00 0 0 0
132 2 2.8555586893228244e+00 8.5367431889840120e+00 6.0236480615192765e+00 0 0 0
133 1 2.8818746850606600e+00 1.2202273557375310e+01 6.6444019163944521e+00 0 0 0
134 2 2.1646795191163459e+00 1.2372457376826940e+01 7.4402728538600869e+00 0 0 0
135 2 2.7583894148465808e+00 1.3008345616635722e+01 6.0738863166130361e+00 0 0 0
136 1 6.3286999345606763e+00 7.9622942031245980e+00 5.4642539047848224e+00 0 0 0
137 2 6.0420442769981726e+00 7.0292862972304873e+00 5.5836848579370777e+00 0 0 0
138 2 7.2902402351083024e+00 7.8055495836758473e+00 5.3595386270383498e+00 0 0 0
328 1 4.0116923041277364e+00 1.6099577110744752e+00 1.0364340984232308e+01 0 0 0
140 2 1.1640449551620218e+00 8.9833208582083621e+00 3.1941652324588361e+00 0 0 0
150 2 1.0105242649514318e+01 7.8052768091333835e+00 4.4163325256878645e+00 0 0 0
147 2 9.3594233042943173e+00 8.7334761969249577e+00 1.2673124742472248e+00 0 0 0
169 1 9.7777901678412107e+00 1.1984165838818743e+01 6.8078079284003072e+00 0 0 0
154 1 8.0070770590353568e+00 1.0966441960489384e+01 3.5147490546371047e+00 0 0 0
155 2 7.5485793882390126e+00 1.0984276214174603e+01 4.3922859279738606e+00 0 0 0
156 2 8.9966100269032641e+00 1.1034867039419535e+01 3.5701367585744994e+00 0 0 0
163 1 7.7540070733226694e+00 1.2905573267833013e+01 1.7519479195556433e+00 0 0 0
164 2 7.7583755220522068e+00 1.2226683984842698e+01 2.3924731482288530e+00 0 0 0
165 2 8.3572113812508046e+00 1.2578389390577128e+01 1.0116916048644109e+00 0 0 0
166 1 9.0200776932952511e+00 7.6996181640393786e+00 5.5324386312401774e+00 0 0 0
167 2 9.1813296343794661e+00 8.3676339001193014e+00 6.2782557270201282e+00 0 0 0
168 2 9.0088215213684837e+00 6.8725089236903312e+00 6.0368896516169039e+00 0 0 0
891 2 4.3596394079033693e+00 1.8950494790235510e+01 3.7811709620010958e-01 0 0 0
210 2 7.6067244359433361e-01 7.6207204976177749e+00 5.3226628238916565e+00 0 0 0
175 1 7.7818637497763250e+00 8.5591814480478661e+00 2.2496551440414505e+00 0 0 0
176 2 7.9859802436193137e+00 9.1657206971527803e+00 2.9657825249539131e+00 0 0 0
177 2 6.9968542483197780e+00 8.8660503559499766e+00 1.7447376743513263e+00 0 0 0
450 2 4.5590344355886554e+00 1.1471994074737326e+01 9.6927980663407389e+00 0 0 0
3 2 2.1147867159441214e+00 2.6235084456055748e+00 8.2074211663502206e-01 0 0 0
464 2 5.9411738361396060e-01 8.9614472349619927e+00 8.5837781981807684e+00 0 0 0
235 1 1.7075826340078868e+00 1.9219863724096037e+01 2.0776835286102200e+00 0 0 0
218 2 4.2546578127533632e+00 1.5566289286515321e+01 4.3997935602780375e-01 0 0 0
220 1 4.8477354742887018e+00 1.4646443207125042e+01 3.4444012613104880e+00 0 0 0
221 2 4.7167338302720170e+00 1.5609739555862046e+01 3.1499115059762652e+00 0 0 0
222 2 4.5853466409578205e+00 1.4043514979135971e+01 2.7412106682176480e+00 0 0 0
223 1 5.8557931558971719e+00 1.7847415828109725e+01 5.4644511112679659e+00 0 0 0
224 2 6.6750378814549105e+00 1.7625897762271784e+01 5.0048409364325552e+00 0 0 0
225 2 5.6866354235369903e+00 1.7253853690444718e+01 6.2408742192707924e+00 0 0 0
226 1 1.5932674452029219e+00 1.6913388527238016e+01 3.6604899604534689e+00 0 0 0
227 2 1.5625185118757949e+00 1.7735698031490852e+01 3.0967787236018731e+00 0 0 0
228 2 1.5046396384591512e+00 1.6068708814972073e+01 3.0692869498243049e+00 0 0 0
229 1 5.4459750419807129e+00 1.9057843122368258e+01 1.6933167409485113e+00 0 0 0
230 2 5.1299458698462459e+00 1.8323047501698532e+01 2.2829628216733595e+00 0 0 0
231 2 4.8460308008443391e+00 1.9706130554485146e+01 2.0591997829649924e+00 0 -1 0
232 1 4.4844624851940003e+00 1.7247019242245376e+01 3.3697529974274389e+00 0 0 0
233 2 3.5261112305910025e+00 1.7321806259267497e+01 3.4946723025620017e+00 0 0 0
234 2 4.9595760719213366e+00 1.7423299489865911e+01 4.2696841105763514e+00 0 0 0
465 2 1.4037031085721909e+00 7.8622155786158858e+00 9.3848622762557454e+00 0 0 0
236 2 9.9798650739603623e-01 5.6763992701197974e-01 2.2930618774484834e+00 0 0 0
237 2 2.3128950678386695e+00 1.8990226231904270e+01 1.3418626991514833e+00 0 0 0
238 1 2.5123951627575991e+00 1.4593961877735477e+01 5.3328414030336431e+00 0 0 0
239 2 2.9317774029289505e+00 1.4897999553056422e+01 4.5184274728917515e+00 0 0 0
240 2 1.4937499370409877e+00 1.4641220908611936e+01 5.1405998246501499e+00 0 0 0
241 1 3.5315555913671330e+00 1.8933023033729953e+01 6.5319846627044988e+00 0 0 0
242 2 3.2588576792512365e+00 1.9462706294540219e+01 5.7119295644802088e+00 0 0 0
243 2 3.4253223993024555e+00 1.7985243657538540e+01 6.3590042573461005e+00 0 0 0
244 1 6.6553098939774218e+00 1.3917146116161526e+01 5.0589395331438354e+00 0 0 0
245 2 6.3966588136688651e+00 1.4419311455088842e+01 5.9035695017332026e+00 0 0 0
246 2 6.0545690104718730e+00 1.4309991473950863e+01 4.3682342624502279e+00 0 0 0
247 1 1.5820213674098746e+00 1.4981238474121955e+01 1.9787131417232673e+00 0 0 0
248 2 1.5279175364610151e+00 1.4033852383131645e+01 2.1515241311229656e+00 0 0 0
249 2 2.2517823465602982e+00 1.5252273929975589e+01 1.2300100974951802e+00 0 0 0
251 2 6.4944981016383228e+00 1.5595360871508863e+01 1.2330429522842858e+00 0 0 0
451 1 1.3793146882419705e+00 1.2445145577530115e+01 8.8498591395453161e+00 0 0 0
262 1 8.3126958231327226e+00 1.7106696646494747e+01 3.8593161840781529e+00 0 0 0
263 2 9.1992947262057942e+00 1.6863770947993828e+01 4.0676199280852430e+00 0 0 0
264 2 8.3751996144932175e+00 1.7608216609540037e+01 3.0060145502170164e+00 0 0 0
271 1 8.2907485852127749e+00 1.9178314806189171e+01 1.9257374528562488e+00 0 0 0
272 2 7.7395659010472846e+00 4.7358202921378134e-01 2.3347920344263806e+00 0 0 0
273 2 7.3370508162767321e+00 1.9143309534936183e+01 1.7514988362724233e+00 0 0 0
274 1 9.5724108761231079e+00 1.3911570856005822e+01 5.0524372860066533e+00 0 0 0
275 2 9.6157253105661393e+00 1.4713138056605009e+01 5.6676772817651626e+00 0 0 0
276 2 8.6476639386025891e+00 1.3823784229935017e+01 4.8279842261016128e+00 0 0 0
335 2 1.1230584945469801e+00 3.3473729874246754e+00 1.0316338952413389e+01 0 0 0
342 2 4.3518062336269843e+00 3.2312065289883050e+00 1.0289480284653388e+01 0 0 0
279 2 9.5313715129007299e+00 1.9022235930169803e+01 7.6131770570192172e+00 0 0 0
283 1 7.8668337382718523e+00 1.5418390753889435e+01 2.0971513989730686e+00 0 0 0
284 2 7.8982234822101418e+00 1.5845746779951536e+01 3.0413313259936308e+00 0 0 0
285 2 7.7447449512465703e+00 1.4416959171456545e+01 2.1723669864375617e+00 0 0 0
544 1 4.6097179929406069e+00 1.4545351783646185e+01 1.0118100989186372e+01 0 0 0
325 1 2.6279313124807766e+00 2.8969349343598094e+00 6.8855979844370001e+00 0 0 0
326 2 2.5272892142639902e+00 3.8520813805291159e+00 6.9479144412750360e+00 0 0 0
327 2 3.6000686596184348e+00 2.7663126447143025e+00 7.0399360763841479e+00 0 0 0
329 2 3.9677172969903571e+00 1.0816285427577110e+00 9.5244397369457872e+00 0 0 0
337 1 4.7073691008167904e+00 6.0064843889378388e+00 8.4063543688509199e+00 0 0 0
338 2 4.6547774553015957e+00 5.2370082959048672e+00 9.0155704787860049e+00 0 0 0
339 2 4.3486205486219678e+00 6.8533648712940884e+00 8.7927852059675011e+00 0 0 0
343 1 1.0612189076492982e+00 6.2714765966396575e+00 9.0607258316594770e+00 0 0 0
344 2 1.2098402985738290e+00 5.6358191194239415e+00 9.7781033136534177e+00 0 0 0
345 2 1.4967311525437879e+00 6.0630001734044781e+00 8.2128476431545874e+00 0 0 0
355 1 1.0532336142696961e+00 2.1642970264911270e+00 9.1829413365601038e+00 0 0 0
356 2 1.1655318519345934e+00 1.2072789963841635e+00 9.1905824306052768e+00 0 0 0
357 2 1.6896794151993222e+00 2.5199411970698686e+00 8.4874320728471382e+00 0 0 0
358 1 5.2830264682887984e+00 2.6626703304273911e+00 7.3728462061009843e+00 0 0 0
359 2 5.5939548244505550e+00 3.5646173454548173e+00 6.9246062223768368e+00 0 0 0
360 2 5.5021847840367553e+00 2.0053537840488236e+00 6.7535859897334998e+00 0 0 0
361 1 9.1670809362292829e+00 3.0694765401220390e+00 7.1711684356458782e+00 0 0 0
362 2 8.9633877450784389e+00 2.3782788365772340e+00 6.4268889103616926e+00 0 0 0
363 2 8.6393213270416851e+00 2.8027779900098078e+00 7.9482083690157666e+00 0 0 0
254 2 9.3055698400497935e+00 1.5641056141591623e+01 1.1989129540726451e+00 0 0 0
379 1 7.4609340513410602e+00 6.7117481256819831e+00 8.5023300919417331e+00 0 0 0
380 2 7.6958421205519780e+00 7.6565813869332677e+00 8.7806821130510428e+00 0 0 0
381 2 6.5008207774944653e+00 6.6372158398237131e+00 8.2131539834989784e+00 0 0 0
391 1 7.4613560347485830e+00 2.4125089848933339e+00 9.0481027434383137e+00 0 0 0
392 2 7.5876607462124426e+00 3.1573222107983265e+00 9.6524643740923324e+00 0 0 0
393 2 6.6186595968060038e+00 2.5001716637847080e+00 8.5863315439052030e+00 0 0 0
171 2 9.6206197484547555e+00 1.2573796132797705e+01 5.9883527911914678e+00 0 0 0
433 1 3.2087829451056522e+00 9.5573533062905085e+00 7.3810699922584133e+00 0 0 0
434 2 3.1096037674378341e+00 1.0508742599172377e+01 7.0591013506588016e+00 0 0 0
435 2 2.5879865789083483e+00 9.4064549162560258e+00 8.1971550208323603e+00 0 0 0
437 2 4.5260782725556057e+00 9.2342200979731057e+00 9.6432797497623142e+00 0 0 0
445 1 5.0251878525979166e+00 1.2506395132112031e+01 8.1888213411145436e+00 0 0 0
446 2 4.7373293032057768e+00 1.3343239544524613e+01 8.5941738114086217e+00 0 0 0
447 2 4.3424177963265036e+00 1.2358982733201746e+01 7.4988488308214967e+00 0 0 0
32 2 2.4093445700681471e-01 2.5732246830271532e+00 1.5161670635150237e+00 0 0 0
572 2 6.7281177564861971e-01 1.5006031934328172e+01 8.5613313841097796e+00 0 0 0
452 2 1.6116779711563489e+00 1.3308698983971643e+01 9.2898834307878282e+00 0 0 0
139 1 1.0331992717390628e+00 8.4476092169599770e+00 2.4063675441346879e+00 0 0 0
277 1 1.0132572138445010e+01 1.8799405251158316e+01 6.8675265346193912e+00 0 0 0
466 1 5.6990946498736843e+00 9.6942496280715620e+00 7.5507264963600331e+00 0 0 0
467 2 6.0782569281487930e+00 9.0343070968939401e+00 6.9441532700901316e+00 0 0 0
468 2 4.6993032776612358e+00 9.4498031990011917e+00 7.5762662824102742e+00 0 0 0
278 2 9.9892924071672162e+00 1.9501193379547214e+01 6.2219584865715083e+00 0 0 0
470 2 9.5663858156755559e+00 1.0268984657537937e+01 6.9952458295840900e+00 0 0 0
471 2 9.0419246285847272e+00 9.6218420260876911e+00 8.3087600304455105e+00 0 0 0
573 2 1.4205568433938371e+00 1.5664552638506088e+01 9.8124801819663290e+00 0 0 0
487 1 7.8135469270283631e+00 1.2803450402551123e+01 8.4134869263173382e+00 0 0 0
488 2 8.5953185881260090e+00 1.2313155158776777e+01 7.8443736134755673e+00 0 0 0
489 2 6.9723796123681145e+00 1.2580000917739948e+01 8.0061720610603366e+00 0 0 0
499 1 7.5268893412771840e+00 9.5853416390372264e+00 9.4554626458955369e+00 0 0 0
2 2 3.6530214621653125e+00 2.5541978359578636e+00 3.8625144306034376e-01 0 0 0
501 2 6.7916636025844808e+00 9.7142537069534818e+00 8.8879552410353870e+00 0 0 0
11 2 5.3803280094725947e-01 4.2380208518278977e+00 4.6909153080174431e+00 0 0 0
558 2 4.6605105013662085e+00 1.7469696176533215e+01 9.5563084066183048e+00 0 0 0
541 1 3.2962460931453745e+00 1.6280388005991647e+01 7.2777987224389662e+00 0 0 0
542 2 2.8220135272595011e+00 1.5917284305622422e+01 8.0444319678967275e+00 0 0 0
543 2 3.0794075129276344e+00 1.5661474337009425e+01 6.5216342351372125e+00 0 0 0
553 1 5.4110725869581451e+00 1.9227194875522869e+01 8.8167741120218359e+00 0 0 0
554 2 6.4136095316312600e+00 1.9263245710384471e+01 8.6942705566132510e+00 0 0 0
555 2 4.9996240061062807e+00 1.8985512550576715e+01 7.9822759437633195e+00 0 0 0
62 2 9.3747249289062360e+00 4.7964118487856648e+00 6.7962626365548973e+00 0 0 0
559 1 1.8234872538413718e+00 1.9150750193467211e+01 8.7909077020437909e+00 0 0 0
560 2 2.5561477043334357e+00 1.9044356887027295e+01 8.0765355878371619e+00 0 0 0
561 2 1.7403260591729175e+00 1.8393396251773261e+01 9.3568717949223856e+00 0 0 0
571 1 1.4982883022038147e+00 1.4949993545689123e+01 9.0823338201214803e+00 0 0 0
574 1 5.9021308282199545e+00 1.5766636708748257e+01 7.0765389257068092e+00 0 0 0
575 2 6.4715632696274250e+00 1.5702112599223064e+01 7.9103220373763330e+00 0 0 0
576 2 4.9646041229905187e+00 1.5835332934281492e+01 7.3018029452329491e+00 0 0 0
577 1 9.9420089214678899e+00 1.5958274714504309e+01 6.8490649205208110e+00 0 0 0
578 2 9.9869894163775612e+00 1.6899243685397987e+01 6.7168757898520850e+00 0 0 0
579 2 9.2840732952233544e+00 1.5852049851744125e+01 7.4856793201897540e+00 0 0 0
34 1 5.4662655069401112e+00 2.5888757603351751e+00 4.2653974811230289e-01 0 0 0
595 1 8.1002506901856108e+00 1.9282431716472747e+01 8.7350071388618051e+00 0 0 0
596 2 7.6573031534649321e+00 6.1715920719908790e-01 8.9473403414800305e+00 0 0 0
597 2 8.1224387355032448e+00 1.8833202466507391e+01 9.5741971924302050e+00 0 0 0
607 1 8.0003442922546029e+00 1.5389137392232819e+01 8.8405432338195453e+00 0 0 0
608 2 8.0708712151203876e+00 1.4459181395400233e+01 8.8502457829137509e+00 0 0 0
557 2 4.3237729837791852e+00 1.6108166134395077e+01 1.0285322581284468e+01 0 0 0
711 2 8.4750402694266533e+00 5.4978174750134823e+00 7.7912867855814649e-01 0 0 0
119 2 9.9999661287979724e-01 1.1054687540889315e+01 4.4117448091312772e+00 0 0 0
463 1 1.3356480421455910e+00 8.8074944064425704e+00 9.2452604114793058e+00 0 0 0
142 1 5.6497772825153723e+00 8.9998498787064154e+00 5.6690194391422410e-01 0 0 0
444 2 1.7496443417140608e+00 1.1383686861998255e+01 1.0101134476199856e+01 0 0 0
556 1 4.2451707838422568e+00 1.7135773443499442e+01 1.0393934266500985e+01 0 0 0
37 1 9.2761659350322585e+00 2.6083069981850193e+00 2.9845994523165842e-01 0 0 0
436 1 4.5439020220911921e+00 8.2551515766468704e+00 9.7821252931370708e+00 0 0 0
818 2 1.0213837582088434e+01 1.2288981881275982e+01 5.0701737072240372e-01 0 0 0
250 1 5.8374281852628549e+00 1.5748424841823249e+01 5.1753828767381116e-01 0 0 0
145 1 9.6719624999664049e+00 9.1182238539224105e+00 3.9387413772464008e-01 0 0 0
109 1 2.8918325044930788e+00 9.3758127124777779e+00 4.3934071331768892e-01 0 0 0
372 2 7.6043219674219653e+00 5.1411118596941900e+00 1.0064076592023939e+01 0 0 0
710 2 9.4146385353575237e+00 4.3518773549199299e+00 1.6820709075803530e-01 0 0 1
253 1 9.9027629417127301e+00 1.5867982632976048e+01 4.2197069863143710e-01 0 0 0
709 1 9.2641284823657486e+00 5.3447703203916435e+00 2.0480201509982685e-01 0 0 1
146 2 9.3804580996987461e+00 1.0067393465991124e+01 2.5386677076017744e-01 0 0 1
902 2 9.7657705362004510e+00 1.7134077188978463e+01 1.3694546390799941e+01 0 0 0
602 2 1.0299710417206571e+01 1.9017829692359836e+01 1.4129331397765876e+01 0 0 0
858 2 5.4748455663560225e-01 7.8695279464861159e+00 1.8864457734422636e+01 0 0 0
777 2 1.5420861132723318e+00 1.3146818776318852e+01 1.5796590353619077e+01 0 0 0
546 2 5.4229504837145939e+00 1.4572922664849060e+01 1.0673919899553608e+01 0 0 0
926 2 9.8456704576477918e+00 1.7764550701501868e+01 2.0420195389469399e+01 0 0 0
331 1 5.7481972160710360e+00 4.5529816269626968e+00 1.2389865675027192e+01 0 0 0
332 2 6.6394541374704747e+00 4.3751676665068215e+00 1.1990289512361249e+01 0 0 0
333 2 5.1661956497752870e+00 4.5723805246162073e+00 1.1579821866755326e+01 0 0 0
876 2 8.7958412421967636e-01 1.6998283459230660e+01 1.8276596529070609e+01 0 0 0
810 2 1.0016672360598342e+01 1.1027988634629791e+01 1.7605712155672194e+01 0 0 0
39 2 8.9872431493412499e+00 2.1834483719853619e+00 1.9989917706184237e+01 0 0 0
346 1 1.9787333550605322e+00 1.0771518108964078e+00 1.1838844148652127e+01 0 0 0
347 2 2.5747399040402779e+00 1.0358577358091163e+00 1.1079859640218997e+01 0 0 0
348 2 2.3985148801120002e+00 1.6610836822966382e+00 1.2453046041074819e+01 0 0 0
349 1 2.8604877225010035e+00 5.1752730657269810e+00 1.3631176083741805e+01 0 0 0
350 2 2.6442243093524884e+00 5.5154464765121700e+00 1.2767514662513049e+01 0 0 0
351 2 2.9371816418136611e+00 4.2082921679921643e+00 1.3532592186118011e+01 0 0 0
352 1 6.1215534176753010e+00 9.6455032611350466e-01 1.2478666618719217e+01 0 0 0
353 2 7.0096598400905066e+00 9.7978014704664684e-01 1.2040275927575856e+01 0 0 0
354 2 6.4372034291191893e+00 1.9675674416422495e+01 1.2425947128580235e+01 0 0 0
782 2 2.9839098341971138e+00 1.1178459296287413e+01 2.0094621517403397e+01 0 0 0
382 1 8.8742471997244241e+00 1.2846760799439589e+00 1.1941101654897299e+01 0 0 0
383 2 9.7344751224345103e+00 1.9920109377639605e+01 1.2272465382517376e+01 0 -1 0
551 2 1.0957202774030401e+00 1.7500807094946101e+01 1.1484160527719146e+01 0 0 0
385 1 9.2548835344700713e+00 5.6939718515779933e+00 1.3485128419822519e+01 0 0 0
586 1 8.3008075305057787e+00 1.7626425922323310e+01 1.0813760379532500e+01 0 0 0
387 2 8.6971661165538006e+00 5.8699969021465961e+00 1.4308900570157308e+01 0 0 0
819 2 9.2952256896053473e+00 1.3179098638032340e+01 1.9828585772579736e+01 0 0 0
370 1 7.9592780974125841e+00 4.5214064992090099e+00 1.0719829214569680e+01 0 0 0
439 1 6.2929842616376765e+00 1.1427818917740787e+01 1.2795717483238610e+01 0 0 0
440 2 6.2649438347704098e+00 1.2402058929017267e+01 1.2837460454956116e+01 0 0 0
441 2 5.4870489797562216e+00 1.1298415616085725e+01 1.2215008435234639e+01 0 0 0
442 1 1.7455270408797612e+00 1.0806013947595074e+01 1.0932689605100858e+01 0 0 0
454 1 2.7394753460807117e+00 7.5310433789421154e+00 1.1609902608397281e+01 0 0 0
455 2 3.2985376372502273e+00 7.8810195228266036e+00 1.0873011481360821e+01 0 0 0
456 2 3.0090245166032394e+00 7.9298742811904788e+00 1.2467648536857734e+01 0 0 0
457 1 3.2106510451019554e+00 1.1829125979745490e+01 1.3476558912752170e+01 0 0 0
458 2 4.0759742149336597e+00 1.1946495812541089e+01 1.4020212465651877e+01 0 0 0
459 2 2.5174939459928183e+00 1.2089962439003468e+01 1.4074254677635839e+01 0 0 0
460 1 6.0456003325035264e+00 7.2772720406579001e+00 1.2373978844471004e+01 0 0 0
461 2 6.1144760038202337e+00 6.2766387296412791e+00 1.2514677971715528e+01 0 0 0
462 2 6.9081302688463282e+00 7.3947883624822044e+00 1.1955769876440005e+01 0 0 0
36 2 5.5003240401147959e+00 3.6845874880080136e+00 2.0462745202045312e+01 0 0 0
480 2 7.6534805682221387e+00 1.1666086720172752e+01 1.1489180459159162e+01 0 0 0
533 2 1.0310286344811037e+00 7.6911444472114114e+00 1.1863033243536735e+01 0 0 0
490 1 8.8109877916308736e+00 7.9060750540560836e+00 1.1839180155526869e+01 0 0 0
491 2 9.0211113282323350e+00 7.1160263812424898e+00 1.2395869833829382e+01 0 0 0
492 2 9.0631728210316371e+00 8.5982026110935106e+00 1.2450899446717651e+01 0 0 0
219 2 3.3114663778237658e+00 1.6867629771737398e+01 2.0290476147233385e+01 0 0 -1
494 2 8.8761492805187459e+00 1.2368202607721829e+01 1.4182774303875778e+01 0 0 0
495 2 9.2887767228638580e+00 1.2748101722704485e+01 1.2689670017183650e+01 0 0 0
749 2 1.3745566868698916e-01 1.4383820368097544e+00 1.9083954547023545e+01 0 0 0
587 2 9.2896851976814734e+00 1.7622607515626942e+01 1.0838611522587140e+01 0 0 0
217 1 3.1909168777144163e+00 1.5930773646446013e+01 2.0537919145831665e+01 0 0 -1
438 2 5.1778138626688701e+00 8.0723807139998236e+00 1.0511653580948906e+01 0 0 0
932 2 8.8569117631708032e+00 1.5617430511413913e+01 1.6669567298799102e+01 0 0 0
883 1 1.3573405051936109e+00 1.9077502015430486e+01 1.5540856976648227e+01 0 0 0
547 1 6.0398584342389174e+00 1.7903553505408073e+01 1.2387458420568541e+01 0 0 0
548 2 5.4240786070944704e+00 1.7495571347286631e+01 1.1749082466088637e+01 0 0 0
549 2 6.0305291572917890e+00 1.7243993739119606e+01 1.3136703825360705e+01 0 0 0
794 2 9.4540923083774189e+00 1.0372504813811577e+01 1.3672678356885017e+01 0 0 0
562 1 2.7598665424988891e+00 1.4078755565353230e+01 1.1901337818856465e+01 0 0 0
563 2 1.8391080641867859e+00 1.4139493440353288e+01 1.1542094956023650e+01 0 0 0
564 2 2.8421981552596862e+00 1.3185844201448283e+01 1.2291847367037967e+01 0 0 0
565 1 3.1121207082565228e+00 1.8521084951824573e+01 1.3416259165312232e+01 0 0 0
566 2 2.9088312890041346e+00 1.9112223760627892e+01 1.2629560995637426e+01 0 0 0
567 2 3.9525577602943289e+00 1.8746697444320461e+01 1.3789851903588493e+01 0 0 0
568 1 6.3316608863521768e+00 1.4406589000480906e+01 1.2194833386314265e+01 0 0 0
569 2 7.2166075093242537e+00 1.4585290680048455e+01 1.1897325044254746e+01 0 0 0
570 2 6.1556763193298334e+00 1.4905384595518067e+01 1.2999384000474992e+01 0 0 0
931 1 8.3749820758125217e+00 1.5137183263415228e+01 1.5967923734415942e+01 0 0 0
493 1 9.5833733227696616e+00 1.2243964821664260e+01 1.3476044449375500e+01 0 0 0
588 2 7.9189762643915644e+00 1.7526053100803257e+01 1.1689033153654480e+01 0 0 0
598 1 8.9448987845857726e+00 1.4708673218766990e+01 1.1593064776460176e+01 0 0 0
599 2 9.7574124826516773e+00 1.4548187053265865e+01 1.1076022406696245e+01 0 0 0
600 2 9.3047546305994615e+00 1.5321370610076364e+01 1.2301587437035090e+01 0 0 0
601 1 9.5414293604557763e+00 1.8729553369767103e+01 1.3571996308587353e+01 0 0 0
603 2 8.6873634426300672e+00 1.8782975095996662e+01 1.4180690972233819e+01 0 0 0
478 1 8.2329857546599658e+00 1.1646627275642523e+01 1.0741612046224725e+01 0 0 0
1 1 2.6303371860595250e+00 3.1592528818891243e+00 2.0587829107429975e+01 0 0 -1
649 1 2.7649131997075544e+00 2.5889474113862385e+00 1.3887576145675734e+01 0 0 0
650 2 3.6222417317539186e+00 2.3862316541732564e+00 1.4298929373629978e+01 0 0 0
651 2 2.0940368656993420e+00 2.4165445322321712e+00 1.4543844432955273e+01 0 0 0
652 1 4.2910839864676449e+00 1.4193253443949230e+00 1.6916267382530684e+01 0 0 0
653 2 4.3709995720844779e+00 2.4023774217174543e+00 1.7086115790519493e+01 0 0 0
654 2 4.9885595106604397e+00 1.0682258503668014e+00 1.7507178600602060e+01 0 0 0
655 1 5.5914066577574797e+00 4.8920972271335490e+00 1.9234975023234092e+01 0 0 0
656 2 5.8534098528819474e+00 5.8406131053775603e+00 1.9413914023042352e+01 0 0 0
657 2 6.3156077822339540e+00 4.6042493739680728e+00 1.8601221608275210e+01 0 0 0
658 1 1.3464348619796138e+00 4.3157380351659658e+00 1.7614026781885968e+01 0 0 0
659 2 1.1294681819356323e+00 3.4349809302250014e+00 1.7223065800373718e+01 0 0 0
660 2 1.1569573932762802e+00 4.8825172905003997e+00 1.6867638603448377e+01 0 0 0
661 1 5.1692078935597090e+00 5.6566186047419222e+00 1.5384636281306941e+01 0 0 0
662 2 4.8096452804996801e+00 5.0586754591156593e+00 1.6110310813518637e+01 0 0 0
663 2 4.4619051074870084e+00 5.8228398831053187e+00 1.4745040806584608e+01 0 0 0
664 1 3.9975009434894839e+00 4.0729400516118073e+00 1.7183905557077424e+01 0 0 0
665 2 3.0564354414080075e+00 4.2520250677412399e+00 1.7323372740234419e+01 0 0 0
666 2 4.3770842693414664e+00 4.3037292317138505e+00 1.8051218913493955e+01 0 0 0
667 1 9.0669578205815382e-01 5.9134912027912527e+00 1.5384589948916297e+01 0 0 0
668 2 1.0565018379015514e+00 6.8844096548921554e+00 1.5576363418980774e+01 0 0 0
669 2 1.6064302162517063e+00 5.6453259718576909e+00 1.4734572978692567e+01 0 0 0
670 1 1.8119289237874807e+00 1.5049637124883803e+00 1.8652149007435646e+01 0 0 0
671 2 2.1222742058989104e+00 2.2439846845133928e+00 1.9221171468630594e+01 0 0 0
672 2 2.5198516970486753e+00 1.5391736240768152e+00 1.7971517996230531e+01 0 0 0
676 1 5.9578925240851319e+00 8.7023076424669021e-01 1.8852825107152022e+01 0 0 0
677 2 5.5761940788276974e+00 1.4999903861587434e+00 1.9520181174208801e+01 0 0 0
678 2 6.8952293528973616e+00 1.1757438381347418e+00 1.8789857640219374e+01 0 0 0
679 1 6.9460076939731807e-01 2.3228324112184313e+00 1.5602575182210671e+01 0 0 0
901 1 9.8461323815278465e+00 1.6131388998690888e+01 1.3838822024458494e+01 0 0 0
681 2 5.9449554554303730e-01 1.3729160530820634e+00 1.5753750303729177e+01 0 0 0
682 1 5.6127412253679116e+00 2.6248988027644189e+00 1.4406474129234205e+01 0 0 0
683 2 5.6503728962864637e+00 3.5348008269704385e+00 1.3984546321770296e+01 0 0 0
684 2 5.8603367441619403e+00 1.9909228750485282e+00 1.3708995489851766e+01 0 0 0
384 2 9.3683168310284799e+00 1.2750861141275132e+00 1.1089560981974405e+01 0 0 0
687 2 8.9954190929129307e+00 2.2247587536487470e+00 1.3476925956148236e+01 0 0 0
694 1 7.7325884287917539e+00 3.8955266111121856e+00 1.7695419195269828e+01 0 0 0
695 2 8.4001531757996268e+00 3.6763088747181354e+00 1.8340768613341709e+01 0 0 0
696 2 7.6976730507614528e+00 3.1594131770268246e+00 1.7088635209605499e+01 0 0 0
703 1 7.7438198876224815e+00 5.9745395217298682e+00 1.5679961686000613e+01 0 0 0
704 2 7.9911994832818154e+00 5.2873224289808451e+00 1.6285300481230891e+01 0 0 0
705 2 6.7744675580682419e+00 5.8760539953342006e+00 1.5547883943269458e+01 0 0 0
706 1 8.7984848639502360e+00 1.1086596446802162e+00 1.8847790494676048e+01 0 0 0