LAMMPS data file via write_data, version 15 Apr 2020, timestep = 0

1944 atoms
2 atom types

-1.0620653843247396e-02 3.9992725653842413e+01 xlo xhi
0.0000000000000000e+00 1.9732218839170926e+01 ylo yhi
0.0000000000000000e+00 2.0381236278688508e+01 zlo zhi
-9.8694096871554393e-03 -2.8952056018702876e-02 1.1635188490160431e-02 xy xz yz

Masses

1 16
2 2

Atoms # atomic

491 2 4.6623765478222188e+00 1.9361870244088317e-01 7.8268940331764103e+00 0 1 0
1114 1 1.4380600175045819e+01 4.7407707264932313e+00 4.8124471507705122e+00 0 1 1
537 2 1.8871984390305062e+01 1.6249028962311044e+01 5.8353200068234354e+00 0 0 0
905 2 1.6905544758661030e+01 1.1162799157336782e+00 2.7646210747366844e+00 0 0 0
455 2 5.2007006820244559e+00 2.0717380131170566e+00 8.7897503284551934e+00 0 1 0
1567 1 3.2771914537851830e+00 1.8640729868491444e+01 2.7240883982739161e+00 0 -1 1
1828 1 6.9779626927888927e+00 3.0399340795929358e-01 1.8893044088385291e+00 0 0 1
872 2 1.8435862215065835e+00 9.6766356093530508e+00 1.4617410856197197e+00 0 0 0
656 2 3.8393336034922898e-01 5.3972040739815954e+00 2.3755634278803810e+00 0 1 0
1783 1 1.0380087710117186e+01 4.1357287544757222e+00 4.1855760728163318e+00 0 1 0
1786 1 1.3555097474457067e+00 1.1012479703660055e+01 6.6353248347316622e+00 0 0 1
240 2 1.3378811491101783e+00 1.6299294873431581e+01 2.0097117472306656e+00 0 -1 0
1586 2 1.3114772929518434e+01 1.6631110118279437e+01 1.0147750567043269e+01 0 0 1
1312 1 1.1738360443041842e+00 1.5257842097001479e+01 4.6343788639547876e+00 0 -1 1
1152 2 6.7582232889813720e-01 1.7899958134440300e+01 9.4836845472676803e+00 0 0 0
32 2 2.5398149022571088e+00 1.2689663783902136e+01 4.2858015943907084e+00 1 -1 0
1135 1 2.0653279108590441e+00 1.4723581371417119e+01 6.9531722122701742e+00 0 1 0
96 2 8.0314252665331995e+00 3.7019380073445785e+00 6.3287411404097531e+00 0 1 0
1522 1 1.3531582305462630e+01 1.7222294900510679e+01 4.8158743255684913e+00 0 0 0
268 1 1.7149320976165921e+01 1.8439334687695386e+01 4.1374614816728972e+00 0 0 0
294 2 1.8335893566835122e+01 1.2240449119149920e+01 6.4187698269386058e+00 0 -1 -1
226 1 7.2909637899496991e+00 1.3795193411655838e+01 2.0350081639952902e+00 0 0 0
710 2 1.9072171947488169e+01 6.9249773858292238e+00 5.2824526079337675e+00 0 0 0
1552 1 8.3108738722997213e+00 1.1343152049284205e+01 9.5323052291989789e+00 0 0 1
1607 2 1.3711498683319059e+01 2.0471103287427677e+00 9.0466478624176059e+00 0 0 0
960 2 1.6541396927346298e+01 7.9183872729736579e-02 6.9341331003393902e+00 0 1 0
887 2 1.1415929682376122e+01 4.9079484888656948e+00 2.7384115193620522e+00 0 0 1
653 2 2.7472847396671418e+00 2.7008468395773546e+00 6.5629082450103500e+00 0 0 0
218 2 9.4795519296093893e+00 1.7600646955498995e+01 6.6227978669482992e+00 0 -1 0
45 2 2.3652650403705513e+00 3.4488005892474263e+00 9.8556546413591217e+00 0 0 0
1323 2 7.9059690315195053e-01 1.7515166883267432e+00 7.5196984967101752e+00 0 1 0
691 1 1.1170427209916525e+01 1.7439812121783916e+01 3.6040357415071540e+00 0 0 1
1830 2 6.3840171523272620e+00 4.7584077617064646e-01 2.6404058004119499e+00 0 0 1
274 1 1.5667128208568746e+01 1.1123680866768170e+01 8.8830251662129267e-01 0 0 0
48 2 4.9688578714260183e+00 1.5759470090216395e+01 7.4102409922375667e+00 0 -1 0
1311 2 1.9274925979366433e+01 1.7091654796767148e+01 7.5844172976279465e+00 0 0 0
954 2 1.6028036661945713e+01 1.2169391581532640e+01 3.8661787604047393e+00 0 0 1
299 2 1.5145361487995956e+01 1.1601810942286046e+00 5.9647340100804866e+00 0 0 0
11 2 4.9711788709150975e+00 1.5977795112463697e+01 3.2617963459744090e+00 0 -1 0
1785 2 1.0508359431021987e+01 3.3052644992488216e+00 4.6363806512382588e+00 0 0 0
269 2 1.6962814049085683e+01 1.7489334959956309e+01 3.9451452148792057e+00 0 0 0
1167 2 1.0209744912817301e+01 9.0198464533104232e+00 7.7246659271786999e+00 0 1 0
906 2 1.6936164653855801e+01 1.9290428907885399e+01 2.8275894979649392e+00 0 -1 0
31 1 1.7261843276038400e+00 1.2796385955486706e+01 3.7892963908877131e+00 0 -1 0
724 1 1.5625443097621439e+01 1.6648672352273138e+01 7.6747298291526489e+00 0 0 0
1306 1 1.1475892625950710e+01 5.4889901648183570e-01 7.5729508651966979e+00 0 0 1
1321 1 2.9825073509294558e-01 8.6849062422847567e-01 7.5025801182256417e+00 0 1 1
874 1 8.7187764491395132e+00 8.0184401382372759e+00 5.9656583547739395e+00 0 0 0
47 2 5.2119064415818777e+00 1.5235101438297404e+01 8.8571524208570285e+00 0 -1 0
448 1 1.5199176072476174e+01 1.1947569190858447e+00 3.6974257382230552e-01 0 1 1
956 2 1.1315660149217864e+01 1.0934053707230410e+01 8.9753373114333552e+00 0 0 0
692 2 1.0567007689353927e+01 1.7545517420017237e+01 4.3534457921897713e+00 0 0 1
282 2 1.3304816301635169e+01 6.1502036128058997e+00 2.1933236946600676e+00 0 0 0
943 1 8.5636136814553865e+00 5.9257725448525000e-01 4.8468535760427480e+00 0 1 1
899 2 4.9522009502640540e-01 5.2650576904147508e+00 5.7691501849533546e+00 0 0 0
873 2 2.6026922217807638e+00 8.4363550244124035e+00 1.6080123289951269e+00 0 0 0
265 1 1.1185065844747315e+01 1.4245854333277363e+01 7.5676753204358453e+00 0 0 0
442 1 4.7045184825171980e+00 7.6161314737870152e+00 4.2508578867167488e+00 0 1 0
1610 2 3.5360604231748827e+00 2.4187699494278347e+00 2.3014388557630472e+00 0 1 1
709 1 1.8941169401348063e+01 5.9633274529269755e+00 5.2018160052322600e+00 0 0 0
868 1 7.1482744344161975e-01 8.4778993839340444e+00 4.5219955066945312e+00 0 0 1
74 2 1.6800545654791190e+01 7.3945449940431924e+00 7.3838517943261675e+00 0 0 0
292 1 1.8536850433831077e+01 1.2769773370508453e+01 5.6656805075859857e+00 0 -1 -1
2 2 5.5507462596864716e+00 5.5057293182070421e-01 5.3655996302081670e+00 0 0 0
101 2 1.8037475443428047e+01 2.2694454926339120e+00 4.8817931594562811e+00 0 0 0
505 1 9.9766248743384693e+00 1.9210675069339743e+01 9.7572863897655253e+00 0 -1 0
1768 1 2.6127297644519087e+00 1.5566440022131180e+01 9.5511666485099045e-01 0 0 1
77 2 1.8926795742426961e+01 2.8557115719419868e-01 1.5202807649447408e-01 0 0 0
302 2 1.5831423271561663e+01 2.4797207287400003e+00 4.2692435246199079e+00 0 0 -1
1310 2 1.9172076533413183e+01 1.8209914286385917e+01 6.5352473945246921e+00 0 0 0
1533 2 5.2735959210111059e+00 4.0364833624616274e+00 7.8368108053624441e+00 0 0 0
913 1 1.3065526156899045e+01 1.4887684591805835e+01 5.7716871160872243e+00 0 0 0
84 2 4.1910164247642596e+00 3.9592107843709514e+00 3.7881359162357082e+00 0 0 -1
273 2 1.7045857866294078e+01 5.8893433409631433e+00 2.7737788173367330e+00 0 0 1
100 1 1.8814219992648283e+01 2.0185337947261632e+00 5.4662748654298809e+00 0 0 0
91 1 5.4546576427411564e+00 1.0790755029471139e+01 3.5493992076911640e+00 0 0 0
485 2 9.4218601293846707e+00 5.6690664467781353e+00 5.0544191951671091e-01 0 0 0
1397 2 1.9152257515026527e+01 1.0264381899899156e+01 8.1515406950280234e+00 0 0 1
959 2 1.6415670494121162e+01 1.9099384195107099e+01 5.5584541826290810e+00 0 0 0
1115 2 1.3587606590831189e+01 5.1949210291467534e+00 5.0302026308654542e+00 0 1 1
699 2 3.2877271781587396e+00 6.2456237159232968e+00 9.2206024210221005e-01 0 1 1
1092 2 4.1102818163878654e+00 6.5900291670033555e+00 9.6250942796222798e+00 0 0 0
88 1 5.8138574359680630e+00 3.7673116663571546e+00 4.6022774722930402e+00 0 0 0
869 2 5.4459716546940949e-03 8.6038363899360029e+00 5.2040575732636061e+00 0 0 1
1326 2 1.6003927422167749e+01 1.8983500331156094e+01 9.7375354786997299e+00 0 0 0
1136 2 1.9394333884751160e+00 1.4961305093065919e+01 5.9868771749853256e+00 0 1 0
252 2 1.4382263657740907e+01 1.4955510783650571e+01 1.2362810725640467e+00 0 -1 0
12 2 4.6568407157667124e+00 1.7526077486687754e+01 3.2299061511715439e+00 0 -1 0
909 2 9.0114666977359459e+00 1.8847082655490500e+01 2.3710160402279006e+00 0 0 0
717 2 1.5001736959338057e+01 3.5936570408979938e+00 1.3885136524107813e+00 0 0 1
280 1 1.3847941090932244e+01 6.9927187659232031e+00 2.1806342655796569e+00 0 0 0
493 1 1.1776082782895037e+01 1.4214634041117238e+01 3.4926860401040085e+00 0 0 -1
315 2 1.3432196721005813e+01 1.1963595452386942e+01 3.3669028407293764e+00 0 0 0
492 2 3.5954878979416041e+00 1.1753319944081917e+00 7.8021469316357175e+00 0 1 0
1183 1 1.7713756336259944e+01 1.8083765073152307e+01 9.8133348307002954e+00 0 -1 0
890 2 9.3079398814145016e+00 1.3328233329402114e+01 3.9668051543343824e-01 0 0 0
1360 1 1.5304623853885118e+01 4.1913888184387966e+00 7.3360276106572195e+00 0 0 0
460 1 1.2376348729795513e+01 1.8762756636242257e+00 9.7037132172373681e+00 0 1 0
1314 2 1.2479757378449392e+00 1.4348804068173347e+01 4.2562564457581393e+00 0 -1 1
1288 1 1.7562017663176108e+00 1.9454007196680450e+01 9.4696182283057464e+00 1 0 0
82 1 3.3527136918821552e+00 3.7625671813841639e+00 3.3321075891181406e+00 0 0 -1
665 2 1.3051942745616625e+00 4.0725841214282807e+00 7.0396920454086080e+00 0 0 0
941 2 1.5963646836622186e+01 1.5663348407830512e+01 2.9305442959080650e+00 0 0 1
1821 2 1.3747407131239520e+01 6.7181607594737314e-01 4.2987036270287433e+00 0 0 1
1093 1 1.7461428466045728e+01 1.3189372468005299e+01 1.3779511407896634e+00 0 2 0
403 1 4.9794677324926999e+00 9.9964682625461005e+00 9.0460077336307276e-01 1 0 0
237 2 1.0421127336984318e+01 1.1183627421775901e+01 6.4762109624661139e+00 0 0 0
1833 2 3.3669499999598647e+00 1.3693816444710320e+01 5.8713276508609775e+00 0 -1 0
1089 2 1.2411719115364381e+00 1.0579498644013812e+00 3.4996060691500013e+00 0 1 0
238 1 5.5682513035739656e-01 1.6752192263852915e+01 2.4334660949887592e+00 0 -1 0
1166 2 9.2867497984886676e+00 1.0152431826059159e+01 8.3809230191475379e+00 0 1 0
725 2 1.4968632318508869e+01 1.7294612583848579e+01 7.4315885919084543e+00 0 0 0
666 2 8.2234856000762235e-01 3.7037653073116314e+00 8.4569094933363136e+00 0 0 0
1137 2 2.7770338564373067e+00 1.5223611905873259e+01 7.3254827021807483e+00 0 1 0
1578 2 1.8988196101459035e+01 9.3071930946942132e+00 5.9849895672967426e+00 0 0 1
1771 1 1.0498468804444730e+01 1.2908341423554715e+01 1.4992258658125941e+00 0 0 0
235 1 1.0249083486970367e+01 1.1814282505099602e+01 5.7873298464555729e+00 0 0 0
1317 2 6.9804771033039827e+00 7.1728946423325493e+00 8.2633463011468429e+00 0 -1 0
1566 2 4.0579276689617929e+00 1.0346760253475223e+01 6.2672995825785911e+00 0 0 0
1081 1 1.5118383152229436e+01 6.9294767677439548e+00 7.0651454387988544e+00 0 1 0
1812 2 1.9052614844697075e+01 9.9706032438087533e+00 1.0101168808179706e+00 0 0 1
968 2 8.3342496590953861e+00 1.4451228863846604e+01 3.2702394682968481e+00 0 0 0
75 2 1.8374330762123272e+01 7.4832817391150579e+00 7.8766368661942670e+00 0 0 0
1359 2 4.8074662156826271e+00 2.1657634943965802e+00 3.2130770877544640e-01 0 1 0
1087 1 1.1204526453722525e+00 1.8420374928539385e+00 4.0862298299179312e+00 0 1 0
298 1 1.4486456712606959e+01 1.7467438397577795e+00 5.5629720115833976e+00 0 0 0
64 1 1.7406756488288664e+01 9.1361533741865362e+00 3.5286794750718062e+00 0 0 -1
966 2 8.8598717886914926e+00 1.6050524758159074e+01 7.5768471707657765e+00 0 0 0
879 2 1.3473640786902751e+01 1.7803745875802367e+01 1.5737413757207508e+00 0 1 1
454 1 5.9063532286089337e+00 2.7825658366756789e+00 8.7610410686639337e+00 0 1 0
256 1 7.1567483129747114e+00 4.9745053322844504e+00 2.7060438604452712e+00 0 0 1
1618 1 1.8795745657336745e+01 1.7309737441409542e+01 1.0565155200123308e+00 0 -1 0
1787 2 4.0565737352692888e-01 1.1223188606992709e+01 6.3167823271911470e+00 0 0 1
1090 1 3.6009169905965224e+00 5.8031229713822432e+00 9.6971415244734214e+00 0 0 0
34 1 2.9931514759132209e+00 9.0320415122048381e+00 9.8712045229166225e+00 0 -1 -1
449 2 1.5482586235110013e+01 5.6832492809374491e-01 1.1232115529593787e+00 0 1 1
1829 2 6.4345840407071888e+00 7.7604304727303564e-01 1.2618287954438154e+00 0 0 1
870 2 6.7105363942851570e-01 7.5861534191446083e+00 4.1187225470368709e+00 0 0 1
933 2 1.5878102885460795e+01 1.5028886821855213e+01 6.8813562118986011e+00 0 0 0
685 1 1.2047867439182255e+01 5.2938658664133271e+00 5.9593212228308738e+00 0 1 0
83 2 2.6499671571164929e+00 3.7676446184648280e+00 3.9879649256031984e+00 0 0 -1
964 1 9.5851765135233080e+00 1.6504677793460424e+01 8.0865111953991455e+00 0 0 0
1801 1 1.2126118580633577e+01 1.1020489167241204e+01 3.9850490475756386e+00 0 1 1
1096 1 5.4279189401767569e+00 8.0670069650018323e+00 8.5209251426794825e+00 0 0 0
1398 2 1.7731167845298501e+01 1.0442973230392285e+01 7.5738151455935512e+00 0 -1 1
1729 1 3.0158718288505408e+00 1.2867812837872577e+01 1.3889150045771641e+00 0 0 0
681 2 2.7409423693384494e-01 7.8981973222363768e+00 8.5884087323526952e+00 0 0 0
63 2 1.7109651063429808e+01 1.7677240285530473e+01 7.4749680107106597e-01 0 -1 0
320 2 4.5686182568658413e+00 1.3729950773530966e+01 3.8177586172032338e+00 0 -1 1
89 2 5.9210218518046327e+00 2.8069490804798991e+00 4.7658967744342435e+00 0 0 0
684 2 9.8282740743777861e+00 1.6672859039108744e+01 3.6385797351606786e-01 0 -1 0
293 2 1.8766332827548730e+01 1.3667473181806226e+01 5.9501014267564027e+00 0 -1 -1
675 2 1.4553186878018524e+01 1.3925963509367868e+01 8.1274354957403911e+00 0 -1 0
1316 2 8.2042070852469173e+00 6.7984407749511035e+00 9.0986564255303790e+00 0 -1 0
1351 1 1.1483702394950647e+01 8.4781814101096007e+00 2.8748938823698800e+00 0 0 1
1523 2 1.4226091477217027e+01 1.7155330659782617e+01 4.1076482448789671e+00 0 0 0
80 2 2.0021648699887007e+00 1.8817119009198404e+01 5.5290459485465924e+00 0 0 0
1116 2 1.4772162938780937e+01 4.4645404850239307e+00 5.6659304344854569e+00 0 1 1
945 2 9.4645179475892487e+00 9.9029713673760278e-01 4.5731291133377923e+00 0 1 1
93 2 6.0013301581642748e+00 1.1536465896098964e+01 3.4220468965481587e+00 0 0 0
723 2 6.2021642974514091e+00 9.4450527566393561e+00 9.6824752812355100e-02 0 0 0
1125 2 9.9841635474307484e+00 2.4585426536277812e+00 9.7061418876613583e+00 0 1 0
447 2 1.1203035511449723e+01 7.3947846406108884e+00 9.7568985122995198e+00 0 0 -2
655 1 5.2610038222808775e-01 6.3959324106643978e+00 2.4803863968822202e+00 0 1 0
301 1 1.6694702470074905e+01 2.5559793417766179e+00 3.7542848161231275e+00 0 0 -1
1341 2 1.1180117437068692e+01 5.0014310441014764e+00 7.2142199520651378e+00 0 0 1
303 2 1.6791589966652928e+01 3.5278517375874805e+00 3.5176219793969481e+00 0 0 -1
1740 2 9.8703032387639951e+00 3.5660934738673880e+00 1.2870665342634673e+00 0 0 1
1159 1 7.9450311092110946e+00 1.5078265773866189e+01 6.4543447900183075e+00 0 0 0
1819 1 1.3054173537276320e+01 4.0852942695618927e-01 3.6311115437161443e+00 0 0 1
686 2 1.1502584086055624e+01 4.9973000147101709e+00 5.1864240428596338e+00 0 1 0
940 1 1.6285631952366970e+01 1.6041587217543103e+01 3.7923989708856096e+00 0 0 1
344 2 1.9138809632951425e+01 1.3262411901708921e+01 1.5777556233745329e+00 0 0 0
257 2 6.8915714000122348e+00 4.3563676455529077e+00 3.4497843885635531e+00 0 0 1
932 2 1.6339349086312101e+01 1.3625912537252765e+01 6.3951829686438710e+00 0 0 0
1180 1 1.8231261390924562e+01 4.2654780553605658e+00 7.1145447055138069e+00 0 1 0
1545 2 1.4834193890368497e+00 9.2930498820491128e+00 6.9834218667938064e+00 1 0 0
73 1 1.7447489581654899e+01 7.6174136763867484e+00 8.1115116292866691e+00 0 0 0
1083 2 1.5176381143021739e+01 7.3797265366081506e+00 6.1927225377226032e+00 0 1 0
1383 2 1.7142249436716654e+01 8.6940471503448702e+00 9.3090076180519663e+00 0 0 0
251 2 1.4853486151940956e+01 1.3811182321743740e+01 2.1745872630530969e+00 0 -1 0
102 2 1.9076851884328853e+01 2.8856275617809883e+00 5.8275779999469250e+00 0 1 0
1818 2 8.0821743401489687e+00 1.4128820564591917e+00 6.2937329465096576e+00 0 2 1
285 2 8.2390344567191356e+00 1.6638085377797793e+01 3.4438135377925612e+00 0 -1 1
1570 1 1.9498597546238394e+00 1.2053270022913230e+01 9.0811236668007851e+00 0 -1 0
1372 1 1.3469804210386853e+01 8.7242766107705965e+00 8.2261226627554418e+00 0 0 1
281 2 1.4627607787772964e+01 6.7282603951093298e+00 1.7165637247769283e+00 0 0 0
652 1 3.2047236739663405e+00 1.8676882292957855e+00 6.1927701465246079e+00 0 0 0
487 1 1.4922336764562420e+01 8.2817648089830769e+00 4.1620222568991334e+00 0 1 -1
306 2 1.1552226661999411e+01 1.8023627260840083e+01 7.3504620211353489e-01 0 0 1
900 2 2.0147628101596657e+00 5.4587796842291105e+00 5.6927906774339627e+00 0 0 0
283 1 7.8609601840228027e+00 1.7449379525717490e+01 3.0048408787064820e+00 0 -1 1
1559 2 1.6877687961791409e+01 1.4686971147294040e+01 1.0164400333758213e+01 0 0 1
1091 2 3.8106556025538301e+00 5.2958107940602499e+00 8.8437063054270872e+00 0 0 0
1802 2 1.1412066785790051e+01 1.1386235447707158e+01 4.4435391928858623e+00 0 1 1
519 2 1.9497282651339425e+01 3.8410924800106572e-01 5.2109957721611888e+00 0 1 0
687 2 1.1968296142968555e+01 6.2493347083176074e+00 5.9333419853539686e+00 0 1 0
965 2 9.2061210224362409e+00 1.6911628254736666e+01 8.8675088273867715e+00 0 0 0
1589 2 1.2546685853804240e+01 4.5016617899302949e+00 9.3408625133409126e-02 0 0 1
495 2 1.2190610803056838e+01 1.4306270529187906e+01 4.3590359851426586e+00 0 0 -1
19 1 3.2643245802302645e+00 6.4414491902205544e+00 5.9309549020516057e+00 0 0 0
661 1 6.0311716432474394e-01 1.9709546787417288e+01 1.8993789713716340e+00 0 -1 1
898 1 1.2818924039741804e+00 4.7657348055818192e+00 5.6363889454472327e+00 0 0 0
888 2 1.2713372398324802e+01 4.2503764664508799e+00 2.6105798284663262e+00 0 0 1
657 2 1.4063674756628550e+00 6.5008799655487417e+00 2.1440318963738032e+00 0 1 0
456 2 6.5752273426483603e+00 2.4546423487813316e+00 8.1243132960223772e+00 0 1 0
1082 2 1.4506920828463002e+01 7.5272585921049071e+00 7.6383530437809632e+00 0 1 0
1534 1 7.5647484957888249e+00 7.3628644585139398e+00 3.8220187195798787e+00 0 -1 0
1751 2 1.1845359490989352e+01 4.9929893602235458e+00 9.6621100692050295e+00 0 1 0
663 2 5.1253212233408618e-01 1.8828268744499812e+01 2.2553331463799959e+00 0 -1 1
1564 1 4.7403688478560699e+00 1.0253631480502728e+01 6.9786641275244845e+00 0 0 0
36 2 3.0237831838939462e+00 9.9915784185910184e+00 9.9847117040948934e+00 0 -1 -1
452 2 7.9989731187544411e-01 1.4423565094941196e+01 8.1259791692770396e+00 0 0 -1
1571 2 1.8900380227498412e+00 1.1613174354871543e+01 8.2305683377741552e+00 0 -1 0
1793 2 1.8153967521850564e+01 1.6141763605469497e+00 6.9550519809863571e+00 0 0 1
1568 2 2.5967971887563901e+00 1.8410685120681240e+01 3.3330718183670296e+00 0 -1 1
1324 1 1.5050694911601923e+01 1.9399187434525583e+01 9.5960219606835402e+00 0 -1 0
1770 2 3.4825616348916086e+00 1.5943869839653130e+01 7.9520491462341691e-01 0 0 1
683 2 1.0350696660992645e+01 1.6737347256139952e+01 1.7674022863470447e+00 0 -1 0
536 2 1.8384503338052710e+01 1.5528839346997577e+01 4.5490615279997533e+00 0 0 0
914 2 1.2365227329225263e+01 1.4585872998304845e+01 6.4038880965640086e+00 0 0 0
527 2 1.3283066306820045e+01 1.3572769886092859e+00 6.1681900262318634e-01 0 1 0
535 1 1.9109334696358282e+01 1.5547586861041754e+01 5.1672124832951933e+00 0 0 0
970 1 1.5875542409747712e+01 6.9079655165910658e+00 2.9458342083755917e-02 0 0 0
105 2 1.7179702806441409e+01 7.1019954326817372e+00 9.9255952100732758e-01 0 0 0
698 2 3.1317486737732847e+00 5.5348374239668230e+00 2.2090714277296013e+00 0 1 1
1739 2 8.6223445777797245e+00 3.6493832651343063e+00 2.6067268698111079e-01 0 0 1
405 2 4.0324398473809016e+00 9.9825433642523684e+00 7.5404106116419412e-01 1 0 0
955 1 1.1841684287334447e+01 1.1322589944547483e+01 9.6707248567205912e+00 0 0 0
1815 2 1.7613085170162307e+01 3.9067881953193724e+00 8.9763815912129818e-01 0 1 1
94 1 8.3214460967731458e+00 4.5665148207175283e+00 5.9066244713582359e+00 0 1 0
693 2 1.2041533050844482e+01 1.7405778789941717e+01 4.1336969555028968e+00 0 0 1
78 2 1.7638162871631533e+01 6.5736093923105854e-01 8.3144457512899916e-01 0 0 0
1587 2 1.2980614615128440e+01 1.7325275321081815e+01 8.7460294328714188e+00 0 0 1
718 1 1.7729477650946290e+01 2.6022769530416179e+00 9.9522556730412752e+00 0 0 -1
1088 2 3.2177102529423401e-01 1.6754524094757923e+00 4.6778935793890062e+00 0 1 0
1156 1 1.3806394751711888e+01 9.9335748706022713e+00 5.8269851331262918e+00 0 0 0
1322 2 9.4223110388352205e-01 2.9718044079652034e-01 8.0339185242679605e+00 0 1 1
489 2 1.4274579786344315e+01 7.8444097379753766e+00 3.6052386064488711e+00 0 1 -1
129 2 1.9606943421049291e+01 6.9204341322736207e+00 1.9482039955227797e+00 0 0 0
1738 1 9.1888145483713242e+00 4.1777131129357370e+00 9.3201096669497407e-01 0 0 1
267 2 1.0926351387880430e+01 1.5130023275832293e+01 7.7333340203683099e+00 0 0 0
1803 2 1.1785322913222366e+01 1.0185354817180938e+01 3.5233921238011106e+00 0 1 1
35 2 2.5710760057537332e+00 8.6572534657967513e+00 8.9908475419531086e+00 0 -1 -1
1731 2 2.6916303639892893e+00 1.2415314466488740e+01 5.6073116021099967e-01 0 0 0
726 2 1.6478410812406747e+01 1.7198510002968796e+01 7.6294831647190229e+00 0 0 0
1349 2 4.3601875170240334e-01 3.2448589187912482e+00 3.1330379008351357e+00 0 0 0
1353 2 1.2131324226565964e+01 7.9642265772277865e+00 2.4308884810385591e+00 0 0 1
878 2 1.4936807395210414e+01 1.7766797985440398e+01 2.0437389650233100e+00 0 1 1
967 1 8.8459039188711834e+00 1.5049403697824369e+01 3.9072309655091519e+00 0 0 0
734 2 1.3454392780205403e+01 1.8134025853017231e+01 6.1535074184660976e+00 0 0 0
711 2 1.8208389933232496e+01 5.8866104482228598e+00 4.5377503404288069e+00 0 0 0
733 1 1.3445927143419162e+01 1.8479294370445459e+01 7.0862349353981404e+00 0 0 0
1784 2 9.6246003176403487e+00 4.6190530695132850e+00 4.5837339284140484e+00 0 1 0
1611 2 2.6091543814588567e+00 1.7734593985815110e+00 1.1540316928866583e+00 0 1 0
1832 2 4.6542694350693523e+00 1.2834014991490488e+01 6.0535770312068147e+00 0 -1 0
1521 2 1.7736521727627050e+01 4.2907569613929253e+00 9.6922211187079252e+00 0 0 1
1161 2 7.6337013671388041e+00 1.4195033570431681e+01 6.7023354518306784e+00 0 0 0
1805 2 2.6867052768640862e+00 9.6320938688930244e+00 4.2318607373241051e+00 0 0 1
3 2 4.6103189612256807e+00 4.1575132421374383e-01 4.0905676840069267e+00 0 0 0
446 2 1.0930050553039521e+01 6.7307879766097951e+00 8.3617903552208279e+00 0 0 -2
1176 2 7.5630834170373129e+00 1.4602942983863276e+01 9.6646651451024042e+00 0 0 -1
1544 2 2.2754112626793712e+00 7.9277981134546724e+00 6.8942396003426465e+00 0 0 0
270 2 1.8118271238809296e+01 1.8599591579669831e+01 4.3508499318860796e+00 0 0 0
1313 2 1.0223834223936630e+00 1.5961698075792988e+01 4.0073037039474917e+00 0 -1 1
1756 1 1.2975960558453915e+01 1.5368491442212219e+01 3.2198780421750062e-01 0 0 1
719 2 1.7755928107984342e+01 2.1279878070829157e+00 9.1045962771601125e+00 0 0 -1
1153 1 1.7295586747866793e+01 1.3725891496316505e+01 8.7585536633747854e+00 0 1 0
674 2 1.3950248185963831e+01 1.2735108008487428e+01 8.8692045625373357e+00 0 -1 0
517 1 1.9652873446408105e+01 1.9137314523250076e+01 5.1469070124270004e+00 0 0 0
217 1 9.3998495753894797e+00 1.7743990408974295e+01 5.6203781999535920e+00 0 -1 -1
228 2 6.3540037607709881e+00 1.3765589586227806e+01 2.3834245433077217e+00 0 0 0
750 2 1.3618099600936489e+01 2.3412258305550253e+00 3.3358009785265934e+00 0 0 1
258 2 7.9389155078238165e+00 4.5591273403868708e+00 2.2662974301202010e+00 0 0 1
886 1 1.2245188999644487e+01 5.0177725136557783e+00 2.1849084219057771e+00 0 0 1
1778 2 6.7307719810969235e+00 1.9448317344795186e+01 7.4076470665652350e+00 0 -1 0
1804 1 3.0552994137014458e+00 1.0520187516585469e+01 4.5789530165887466e+00 0 0 1
702 2 1.3270975739072195e+01 1.1204889121593974e+01 9.4872247902816458e+00 0 0 -1
1184 2 1.8283337167364294e+01 1.8138429199257885e+01 9.0273040662165247e+00 0 -1 0
1609 1 3.4457616748850874e+00 1.6846016828744321e+00 1.6351125202960932e+00 0 1 1
42 2 8.9691796599346798e+00 1.1570805474902826e+01 3.9580587456623615e+00 0 -1 0
673 1 1.3880628330709401e+01 1.3736609771267430e+01 8.7286374820594386e+00 0 -1 0
438 2 3.8282676927943560e+00 1.8053591136159707e+01 1.0601548370479097e+00 0 -1 0
255 2 8.6974257000874768e+00 1.0086320105638491e+01 2.3424171489238574e+00 0 0 1
931 1 1.5649557846443869e+01 1.4293875986192546e+01 6.2258149225906099e+00 0 0 0
1572 2 1.3680179751325821e+00 1.2807087950162781e+01 9.0688573706824922e+00 0 -1 0
1761 2 6.8959028355817775e+00 1.2257217490272737e+01 7.6423102423887448e+00 1 0 1
1536 2 8.0155740838026990e+00 7.9827202182557206e+00 3.1604351682011291e+00 0 -1 0
1759 1 6.8213170591577708e+00 1.2723087888051332e+01 6.8172996519160760e+00 0 0 1
1757 2 1.2199826801359347e+01 1.5859608018468425e+01 6.1526061867665716e-01 0 0 1
490 1 4.0854185912575991e+00 6.6380906768246584e-01 8.4938193833084608e+00 0 1 0
486 2 8.9903850727075785e+00 7.2857002349528868e+00 7.3207720930027176e-01 0 0 0
908 2 1.0577192926391961e+01 1.8671179399428574e+01 2.5261268645294868e+00 0 0 0
1158 2 1.3165398146130377e+01 1.0389287847204423e+01 5.2453914458634241e+00 0 0 0
41 2 8.4516177673926762e+00 1.2332881076706714e+01 2.7808715408106015e+00 0 -1 0
321 2 4.1948586316597041e+00 1.3784713640058401e+01 2.3052330444128262e+00 0 -1 1
1794 2 1.8647572569872704e+01 6.7642202149593289e-01 7.9218744547550246e+00 0 0 1
1777 1 5.9792493884963021e+00 1.9286940807228067e+01 6.8117877295288372e+00 0 0 0
1309 1 1.8658121403767534e+01 1.7633092741890117e+01 7.0982470058670621e+00 0 0 0
92 2 6.0569266757418800e+00 1.0096806290368828e+01 4.0093794943180461e+00 0 0 0
61 1 1.6109687860941282e+01 1.7611611961086172e+01 5.3810689756835672e-01 0 -1 0
451 1 3.7483464288597629e-01 1.4273195408950357e+01 8.9817878157289339e+00 0 0 -1
1160 2 8.1462368037372332e+00 1.5060531709236585e+01 5.4512630801969797e+00 0 0 0
1620 2 1.9398168302958979e+01 1.7008786280988467e+01 1.7841637326536801e+00 0 -1 0
1102 1 5.9062886294953936e+00 4.6677443445705853e+00 2.3392124204831558e-01 0 1 1
97 1 7.5076916756092205e+00 1.9449197293183293e+01 9.1583834285932753e+00 0 -1 -1
472 1 1.1391384703228873e+01 7.9091131978826130e+00 5.6743854637723352e+00 0 1 0
15 2 1.1205594154529575e+01 1.3652567881515187e+00 5.9513933326872559e+00 0 0 0
10 1 5.3239850678172402e+00 1.6862907429465420e+01 3.5525518073699587e+00 0 -1 0
33 2 1.2456303694842561e+00 1.1928221409043177e+01 3.5831438259370123e+00 0 -1 0
66 2 1.7269433105092844e+01 1.0124210845387505e+01 3.5223927083386504e+00 0 0 -1
952 1 1.6972675847982618e+01 1.1871071152590574e+01 3.7629166832035099e+00 0 0 1
1531 1 5.1198116902445312e+00 4.8425473678131485e+00 7.2131092346247296e+00 0 0 0
314 2 1.4514991049457832e+01 1.1633862289256717e+01 2.2746307508865073e+00 0 0 0
1103 2 6.1657126335120109e+00 4.7429519486532739e+00 1.1538899865047918e+00 0 1 1
904 1 1.6774677118627377e+01 3.3104481721370610e-01 2.2467818992320514e+00 0 0 0
1339 1 1.0918249233976095e+01 4.9404955783280409e+00 8.2097070864813926e+00 0 0 1
1155 2 1.8278244002542664e+01 1.3867104984415766e+01 8.7609083764565856e+00 0 1 0
1123 1 9.4096613850187953e+00 2.9387913333311144e+00 9.1135339644410873e+00 0 1 0
1308 2 1.2281183224867602e+01 5.8585187767142326e-02 7.4660452575360292e+00 0 0 1
23 2 3.5587083726011981e+00 1.2274212844982085e+01 9.0130981450637364e+00 0 -1 -1
1182 2 1.8444968895782139e+01 4.9837484762623072e+00 6.4483661370737897e+00 0 1 0
1325 2 1.4427821679383674e+01 1.8688537977947341e+01 9.6214618455338758e+00 0 -1 0
1816 1 7.9160295210426952e+00 2.1198389099991610e+00 6.9618505577053043e+00 0 2 1
14 2 1.1673660812052523e+01 1.0190758983382795e+00 4.4886406271534671e+00 0 0 0
942 2 1.6015334561820318e+01 1.5357851970028046e+01 4.4539075263033530e+00 0 0 1
1576 1 1.9221518386183618e+01 8.6864674661257588e+00 5.3346787644353517e+00 0 0 1
746 2 1.5357627161756461e+01 1.0684936087733401e+01 8.2717726367402165e+00 0 0 0
444 2 4.3801030433365646e+00 7.4458090061123956e+00 3.3731848800387545e+00 0 1 0
50 2 7.4646999408303323e+00 9.2469436748276141e+00 5.8087501323073001e+00 0 -1 0
875 2 8.3629975738931162e+00 7.3819743844345336e+00 5.3419331184695489e+00 0 0 0
1174 1 6.6014089713738766e+00 1.4852173253891445e+01 9.8217466304536210e+00 0 0 -1
715 1 1.5663929423601630e+01 3.9423028949386416e+00 7.7444421176682399e-01 0 0 1
745 1 1.5992133260067000e+01 1.0781499436223562e+01 7.4995242925043550e+00 0 0 0
49 1 6.8276740555751072e+00 9.9901502149405825e+00 5.5563105362882208e+00 0 -1 0
450 2 1.5695597541020287e+01 1.9979161292836927e+00 6.6474549178176345e-01 0 1 1
1535 2 7.4130082370332762e+00 6.4807411120931127e+00 3.3458557425696402e+00 0 -1 0
474 2 1.1620092151232482e+01 8.0624778020984813e+00 4.7092630079741058e+00 0 1 0
1157 2 1.3277799115771169e+01 9.5123627901336949e+00 6.5823520632295383e+00 0 0 0
254 2 8.1194166885480019e+00 9.1947783814088453e+00 1.2630025710193953e+00 0 0 1
46 1 4.5614793343796940e+00 1.5112072858193615e+01 8.0762650264528908e+00 0 -1 0
1831 1 4.0558804470608996e+00 1.3139232243392176e+01 5.4058103243681588e+00 0 -1 0
1806 2 3.8437011452684997e+00 1.0661473473682667e+01 3.9982696144844168e+00 0 0 1
1543 1 1.7409162871852109e+00 8.4985670112333001e+00 7.5244338698461313e+00 0 0 0
305 2 1.1997454397418222e+01 1.9455787650127814e+01 2.0072368285045072e-01 0 0 1
484 1 9.3850355471687639e+00 6.6021092134935673e+00 6.6894718117543536e-02 0 0 0
21 2 3.8297699695062546e+00 6.8531507646522547e+00 5.2087709462338214e+00 0 0 0
682 1 1.0645343846049217e+01 1.6673850472165167e+01 8.4907255848143048e-01 0 -1 0
1565 2 4.7266099587371393e+00 1.1026756855522237e+01 7.6415774937822798e+00 0 0 0
284 2 6.9386297815647655e+00 1.7437661056049865e+01 3.1890171912150778e+00 0 -1 1
65 2 1.6558591217466688e+01 8.8216039701029398e+00 3.9573451312505301e+00 0 0 -1
1340 2 1.0250469200227020e+01 4.2418375598357745e+00 8.4671281841600283e+00 0 0 1
1098 2 5.3155446825990129e+00 8.5324635217458304e+00 9.3978192240268896e+00 0 0 0
230 2 6.9362411947553868e+00 1.8572233106201494e+01 7.1858673165137044e-01 0 0 0
1315 1 7.7837309153502305e+00 6.6149574915388181e+00 8.2170375066868395e+00 0 -1 0
1773 2 1.0452952374382850e+01 1.1956861796698872e+01 1.6378107524058774e+00 0 0 0
1178 2 3.6252856878990980e+00 1.6090903769441145e+01 9.6003778853771760e+00 0 0 0
319 1 4.7618587092592861e+00 1.4206699205021616e+01 2.9358056648674724e+00 0 -1 1
404 2 5.2059973022562636e+00 1.0258905392367344e+01 1.8234552451474897e+00 1 0 0
1608 2 1.4930906536998849e+01 1.1102492821156702e+00 8.5971930100559248e+00 0 0 0
236 2 1.0065511743454744e+01 1.2681947868794632e+01 6.1592378426693344e+00 0 0 0
219 2 9.2808033946216906e+00 1.8680829148532197e+01 5.6303567490931306e+00 0 -1 0
90 2 5.7452434433965740e+00 4.1528729446835397e+00 5.5193489987142454e+00 0 0 0