LAMMPS data file via write_data, version 15 Apr 2020, timestep = 3297000

576 atoms
2 atom types

6.0291854711818793e-01 1.7317082452870977e+01 xlo xhi
3.9791754711831295e-01 1.7112081452871102e+01 ylo yhi
7.4791854711827277e-01 1.7462082452870995e+01 zlo zhi

Masses

1 16
2 2

Atoms # atomic

121 1 2.0115523274835896e+00 2.2056012390895812e+00 2.3231153912355378e+00 1 3 1
122 2 2.6272529302048686e+00 2.6397861586057982e+00 2.9586364578810924e+00 1 3 1
123 2 2.0904317406068600e+00 1.1883529054809989e+00 2.4196736928168563e+00 1 3 1
449 2 3.7489918222717047e+00 4.0510654572164171e+00 4.3739368716468352e+00 1 0 0
448 1 3.9023692764212830e+00 3.4816593369535003e+00 3.6290764601821053e+00 1 0 0
284 2 2.6935161875888531e+00 2.3326846100565972e+00 8.3028866780270794e-01 5 -1 -1
450 2 3.8986980115406613e+00 4.0699576155449488e+00 2.8692713395442833e+00 1 0 0
323 2 9.2824402451325294e-01 3.1331758126890397e+00 4.7732540963119217e+00 1 1 0
297 2 4.2902951939260578e+00 4.5065376673568375e-01 4.4105305698734645e+00 0 0 2
389 2 6.9146433690648808e+00 3.3529190568283376e+00 2.1378053726474553e+00 4 -3 0
197 2 7.6748240651520421e+00 1.2314631374000466e+00 3.7946235781832747e+00 -2 0 -1
388 1 6.2851863045551992e+00 3.2899612416988364e+00 1.4479949814074486e+00 4 -3 0
474 2 5.8566797609043713e+00 1.9502312850101331e+00 1.1378895659260926e+00 0 -3 -1
296 2 5.4301654978360574e+00 1.4305708084489888e+00 4.3035594269217325e+00 0 0 2
277 1 6.9259414125209897e+00 2.4753261636859079e+00 4.8621458404627074e+00 -1 2 3
279 2 6.8564514781292791e+00 3.3846902780964951e+00 4.5145490207744299e+00 -1 2 3
472 1 5.4391386137406030e+00 9.6820864689010455e-01 1.2540469393415108e+00 0 -3 -1
295 1 5.1154850871584605e+00 5.5773831822490094e-01 3.9526167039510689e+00 0 0 2
196 1 8.2654637574407559e+00 7.2384189787598952e-01 3.1559464208568446e+00 -2 0 -1
390 2 6.5857744631016564e+00 3.9846262048859553e+00 8.6409501727101568e-01 4 -3 0
473 2 5.4028631377725720e+00 7.6010247050440505e-01 2.1930885402227105e+00 0 -3 -1
555 2 2.7649204242594068e+00 6.5838560542552527e+00 2.1058318598651571e+00 0 4 4
553 1 2.0522711081791924e+00 6.8940736116610255e+00 2.6732740049581798e+00 0 4 4
554 2 1.2987348017925524e+00 7.1040584982742256e+00 2.1121618139138825e+00 0 4 4
557 2 1.2194257811708247e+00 5.3195659073486201e+00 3.6355201182718870e+00 2 -1 -2
556 1 6.7849761246908291e-01 4.7530759635944024e+00 4.3224245306879494e+00 2 -1 -2
348 2 4.5806776192764902e+00 5.2050889801219933e+00 1.0837865230499679e+00 -4 1 2
346 1 3.6872208214132480e+00 4.9328836367162241e+00 1.3743828193557208e+00 -4 1 2
106 1 6.1343578035277337e+00 7.7251583503772174e+00 2.4773415271452062e+00 -2 0 4
107 2 5.2699622739857954e+00 7.9460733139152184e+00 2.0620773008112669e+00 -2 0 4
500 2 6.5922564896452842e+00 5.6803976763202195e+00 3.2833824779839667e+00 1 -1 -1
499 1 7.2868444869226998e+00 5.2665437809081102e+00 3.7855128820248840e+00 1 -1 -1
501 2 7.2047769859446786e+00 5.6109169565789090e+00 4.6752953968446818e+00 1 -1 -1
108 2 6.2265882996407660e+00 8.2440772425343738e+00 3.2626788825614201e+00 -2 0 4
494 2 7.1759716958848356e+00 8.3756530344563345e+00 1.2187175311006935e+00 0 3 2
72 2 8.6119101689780866e+00 8.0405195078739808e+00 3.5836019770359604e+00 2 1 0
568 1 3.0096631069295605e+00 7.5487631545073919e-01 5.4904394125268192e+00 -3 1 -2
322 1 9.7989321502020044e-01 2.2900672913318205e+00 5.2226433644864345e+00 1 1 0
570 2 2.4118238340234761e+00 1.5527331469905956e+00 5.4282427151011925e+00 -3 1 -2
236 2 3.2717811134748440e+00 3.5623915927892065e+00 7.2252480416816658e+00 2 3 2
235 1 2.5158625736921492e+00 4.0984578741423991e+00 7.0566875347386659e+00 2 3 2
237 2 2.1613656075557417e+00 4.3044587968134564e+00 7.9850305267488491e+00 2 3 2
405 2 1.6082789068102945e+00 7.9958161514254900e-01 8.8956155441348290e+00 -1 4 0
393 2 3.1971900230345742e+00 4.7350472527922760e-01 7.2526374389731876e+00 -2 -4 -1
52 1 8.6697158311029003e+00 3.5715216485824457e+00 6.7593463376242982e+00 2 -1 2
82 1 5.4484290325691962e+00 3.2022724153078670e+00 7.4165953804281388e+00 -2 0 0
84 2 5.7712155932098543e+00 2.8939421135697208e+00 6.5899042659475793e+00 -2 0 0
278 2 7.6290316903666264e+00 2.5076162486939180e+00 5.5241785520284568e+00 -1 2 3
83 2 5.9752614260030548e+00 2.7502193551167990e+00 8.1387198470390203e+00 -2 0 0
233 2 7.1957748309101826e+00 8.7257816165157243e-01 8.3103396140454926e+00 2 2 1
232 1 6.6852857794146363e+00 1.1519939359127547e+00 9.0925043174917093e+00 2 2 1
90 2 8.1780083776756243e+00 4.0875519107814142e+00 8.5234640995165183e+00 -2 -1 2
53 2 8.3924185735889480e+00 4.5181804619596280e+00 6.6811260040421470e+00 2 -1 2
136 1 7.9550844774174703e+00 4.8500517885665678e-01 6.8596050562320858e+00 2 -3 0
498 2 4.3631086068082521e+00 6.7766654373805570e+00 5.5927793017562770e+00 -1 1 1
496 1 4.5537734124391758e+00 5.8341700892519324e+00 5.5279311962117612e+00 -1 1 1
497 2 3.9265678768634098e+00 5.2921513922718857e+00 6.0541126174785136e+00 -1 1 1
259 1 2.3491623261693482e+00 7.3401632137833275e+00 7.9102884544980023e+00 1 0 0
260 2 3.0131640702443061e+00 7.5518558272989411e+00 7.1962102889506641e+00 1 0 0
261 2 1.8811306232861518e+00 6.5484275937722876e+00 7.5792045027180386e+00 1 0 0
246 2 4.1563425043354503e+00 6.0445059983251159e+00 8.7353934682029166e+00 -1 -2 -1
7 1 3.9897055503007568e+00 8.4507163488322412e+00 5.9789389535016255e+00 4 4 2
8 2 4.5824109066760430e+00 8.7228879918910689e+00 6.7815047707016607e+00 4 4 2
244 1 5.1062420168047806e+00 5.8363831529681764e+00 8.6320619444487772e+00 -1 -2 -1
245 2 5.1690503889171682e+00 5.0795635213678150e+00 8.0487694165628803e+00 -1 -2 -1
359 2 7.8157488017251460e+00 6.5296088627910684e+00 7.0001812022422554e+00 3 3 0
360 2 6.2898009553707919e+00 6.0461885447896355e+00 6.6624311316146727e+00 3 3 0
358 1 7.2711559391113347e+00 5.9090231564274118e+00 6.4667351883562390e+00 3 3 0
206 2 3.0841433940300265e+00 9.8737649913220282e-01 1.2350015101897874e+01 -4 3 -1
403 1 6.6395134544957957e-01 1.0403099209799556e+00 9.1793283153486076e+00 -1 4 0
563 2 4.5691573742200351e+00 3.0088805774209058e+00 1.0591177175570369e+01 -1 -2 4
205 1 2.2902143938022759e+00 1.3174579935606281e+00 1.1923253158525297e+01 -4 3 -1
562 1 3.6474334878633763e+00 2.8834841450600930e+00 1.0259076306266337e+01 -1 -2 4
564 2 3.2354458619530613e+00 2.3431376405545459e+00 1.0926270146800844e+01 -1 -2 4
21 2 2.7291078236367499e+00 4.1500181829619684e+00 1.0081484942076800e+01 1 2 5
207 2 1.7283282875938777e+00 1.6961304627240890e+00 1.2646607310331628e+01 -4 3 -1
404 2 6.7189715383763882e-01 1.5040705826850325e+00 9.9949490172231386e+00 -1 4 0
88 1 8.2456308278056625e+00 4.3115089561970752e+00 9.4520064710965492e+00 -2 -1 2
234 2 7.3684671266456254e+00 1.3984113714329633e+00 9.7438030919970799e+00 2 2 1
28 1 5.1260691449595042e+00 2.2763495044910518e+00 1.3059648536154283e+01 1 1 -1
418 1 7.3024823562259735e+00 1.7032885788781291e+00 1.1717518326035167e+01 -1 5 0
420 2 7.6610849269135270e+00 2.6377989404799536e+00 1.1987455151235350e+01 -1 5 0
502 1 8.2479615018838572e+00 4.2256562043468051e+00 1.2516619436405932e+01 -1 -1 1
419 2 6.4084404544468914e+00 1.8090059906709794e+00 1.2035693087736954e+01 -1 5 0
89 2 7.3457077664483865e+00 4.1370507526128826e+00 9.7629848653352660e+00 -2 -1 2
85 1 5.7543630606774210e+00 4.3904763707415846e+00 1.0857129161238571e+01 -1 0 -2
427 1 1.0138236634938447e+00 8.4913844411780133e+00 1.1101568671582605e+01 0 -1 -3
19 1 2.1486654133665342e+00 4.9457875221354151e+00 9.9487087318713474e+00 1 2 5
20 2 1.2577647372260043e+00 4.6986378970460052e+00 1.0278862431700841e+01 1 2 5
227 2 3.9521102204631151e+00 8.6196596417830786e+00 1.2251903796769705e+01 1 2 0
291 2 2.2020048787655435e+00 7.5606179377523910e+00 1.1434664744335388e+01 0 -4 -2
290 2 2.7300908746664354e+00 6.1461405289345636e+00 1.1041860036496866e+01 0 -4 -2
426 2 4.0894802159602213e+00 6.5534371764953985e+00 1.2494614348056693e+01 1 -1 3
289 1 2.9493948823929075e+00 6.9225888935567150e+00 1.1572680000063231e+01 0 -4 -2
471 2 6.9938966205778677e+00 8.4076386948791466e+00 1.0154551720388151e+01 -4 0 0
504 2 7.7281419452716511e+00 5.0219063577781231e+00 1.2089985064775812e+01 -1 -1 1
86 2 5.3383985662430957e+00 4.8949497403801949e+00 1.1612892130003896e+01 -1 0 -2
87 2 5.4517170622428814e+00 4.9104467005353163e+00 1.0084611880986541e+01 -1 0 -2
469 1 6.1738416935651603e+00 7.8283092713301610e+00 1.0152431250540424e+01 -4 0 0
470 2 6.3379320513772246e+00 7.0914124566725096e+00 9.5618143702993557e+00 -4 0 0
512 2 6.9395769473219104e+00 7.3616181753262939e+00 1.1654828476026172e+01 0 2 -5
513 2 6.2821726313792876e+00 6.7890856102165360e+00 1.2824342941619937e+01 0 2 -5
511 1 7.2103110636330694e+00 7.1669092618118535e+00 1.2581167540902744e+01 0 2 -5
424 1 4.8234346913779538e+00 6.1995427051335286e+00 1.3055647505956124e+01 1 -1 3
175 1 4.6265436274010634e+00 6.3776086759660955e-01 1.5473583990575678e+01 0 0 0
223 1 1.4148459230729911e+00 1.9422995402844090e+00 1.4565079321973881e+01 1 4 -1
347 2 3.5307017795586830e+00 4.2559861095164546e+00 1.7416119666631850e+01 -4 1 1
224 2 1.8982342654159279e+00 2.4860327754187166e+00 1.5207186939428556e+01 1 4 -1
283 1 3.0253265359469808e+00 2.4926356925048103e+00 1.6608540993759227e+01 5 -1 -2
285 2 3.4990839356686081e+00 1.5983415169860633e+00 1.6452366473392196e+01 5 -1 -2
225 2 1.4818664455738499e+00 1.1039144687170350e+00 1.4980691830392923e+01 1 4 -1
507 2 3.9573499830646406e+00 3.2681076860812222e+00 1.5324294216590161e+01 -3 -1 2
505 1 4.5061946894749312e+00 4.0011897667662861e+00 1.4982566711055266e+01 -3 -1 2
29 2 5.1521202669862181e+00 1.5582215887284352e+00 1.3717949982794151e+01 1 1 -1
503 2 7.7777730882333120e+00 4.1416706945041550e+00 1.3413614017902434e+01 -1 -1 1
30 2 4.9980883948315933e+00 3.0780080305499213e+00 1.3680430113734619e+01 1 1 -1
262 1 7.0448607560803351e+00 3.8614671846627386e+00 1.4912966160483540e+01 -2 2 -1
506 2 5.4366076615570265e+00 3.8113004812799773e+00 1.5232772049513386e+01 -3 -1 2
263 2 7.6447750918160864e+00 3.1998869252506865e+00 1.5372370443252215e+01 -2 2 -1
177 2 4.9861323546530674e+00 4.4915702180766254e-01 1.6341606105499025e+01 0 0 0
45 2 4.3488790939332755e+00 7.2274482221160055e+00 1.4869565618505847e+01 3 -4 1
366 2 2.1662776893375786e+00 6.6071203265594178e+00 1.5090520901740993e+01 0 1 -4
400 1 1.5570163370099590e+00 8.4173777155678184e+00 1.4664498896047334e+01 -1 2 -2
44 2 4.1422837354905750e+00 7.9480686782079619e+00 1.6323492851956587e+01 3 -4 1
183 2 6.7333168065634996e-01 4.7547803834163558e+00 1.5938024989751728e+01 -3 -3 1
43 1 4.6580084327400719e+00 7.2870365756888873e+00 1.5771966996938351e+01 3 -4 1
425 2 4.4452993966130609e+00 5.4719879802085982e+00 1.3574397049411308e+01 1 -1 3
477 2 1.2133329343468349e+00 4.8235377124638639e+00 1.3783369135140456e+01 4 2 -4
364 1 2.4379308998623683e+00 5.6711136380990785e+00 1.4947149393912451e+01 0 1 -4
365 2 3.0182022691636279e+00 5.3758756023277217e+00 1.5664557093940127e+01 0 1 -4
384 2 7.7075523588347421e+00 8.3159111273579089e+00 1.3710153131092037e+01 1 0 -1
74 2 5.9861343164403245e+00 6.4339236720948065e+00 1.6386951680612228e+01 1 -1 -2
73 1 6.5188654342651260e+00 5.6670073474076395e+00 1.6755254547940638e+01 1 -1 -2
493 1 7.8997355506089235e+00 8.5392497351248782e+00 1.7279355852985283e+01 0 3 1
264 2 7.1340780551388656e+00 4.6855893464204099e+00 1.5414811743862524e+01 -2 2 -1
75 2 7.3345629238838175e+00 5.9784327573397116e+00 1.7270678891549551e+01 1 -1 -2
383 2 7.9083777477985455e+00 8.4408360972321486e+00 1.5230994150717075e+01 1 0 -1
299 2 2.1121855991237308e+00 1.1753441980822021e+01 8.8325853714585811e-01 -1 -1 3
485 2 2.2973286898511556e+00 1.0391366529217333e+01 2.7527627144037732e+00 -2 0 1
298 1 2.4930051474236725e+00 1.1741624281918879e+01 1.7885537998148024e+00 -1 -1 3
300 2 3.4926304213993209e+00 1.1823306100993022e+01 1.7177188472651155e+00 -1 -1 3
152 2 1.0150190235562899e+00 9.0497478395239384e+00 4.3302346742683415e+00 3 0 1
484 1 2.4633811570536341e+00 9.7327341024292995e+00 3.4992324877645844e+00 -2 0 1
486 2 2.7908483134061473e+00 8.9195720951830229e+00 3.1070043600689448e+00 -2 0 1
288 2 9.8449722140797014e-01 1.2214466973698995e+01 4.6125299893705627e+00 2 -2 0
318 2 5.2886217989940985e+00 1.0668305039954806e+01 3.6779740847869560e+00 1 -3 4
316 1 5.4514923847808587e+00 1.0269714139292752e+01 4.5538909636328206e+00 1 -3 4
317 2 6.2389861980391599e+00 1.0707445830080346e+01 4.8396280536576519e+00 1 -3 4
457 1 5.1821993976426155e+00 1.1899192433938413e+01 2.2774883283944907e+00 6 1 -2
458 2 5.8136092369564549e+00 1.2611856187427531e+01 2.6852352013003422e+00 6 1 -2
179 2 7.9749878765219764e+00 1.1546590538342784e+01 8.0937122289276431e-01 0 4 2
266 2 8.4998947908015730e+00 1.0532274629290896e+01 4.5216105029500753e+00 -3 1 3
459 2 5.7030156251247757e+00 1.1535220321820606e+01 1.5379983040632488e+00 6 1 -2
371 2 7.8424233086569348e+00 1.2897624284344234e+01 3.1077338660269742e+00 5 0 2
526 1 8.8453959478024444e+00 1.1809110314288320e+01 1.9774508227428769e+00 0 -4 -5
70 1 8.9094604598773408e+00 8.8205045601396304e+00 4.0525189315534531e+00 2 1 0
431 2 2.6879048163692367e+00 1.3057333076403140e+01 2.8425503917211441e+00 -2 -1 0
430 1 3.0137191823238654e+00 1.3801880109282839e+01 3.3547967824417295e+00 -2 -1 0
276 2 2.5411190201573328e+00 1.5349756984188511e+01 2.2192616752374894e+00 -4 -4 0
274 1 2.1420192229469182e+00 1.6142680457598999e+01 1.9317624461544221e+00 -4 -4 0
275 2 1.2408102264192726e+00 1.6121371503968675e+01 2.3831403264317470e+00 -4 -4 0
432 2 3.9993575739445490e+00 1.3663152117060932e+01 3.4115268363094748e+00 -2 -1 0
375 2 2.0659658847804323e+00 1.4525037796853718e+01 4.5369256841712442e+00 1 -1 1
312 2 7.6669370355169386e+00 1.5229812351898984e+01 1.6105045046875628e+00 -3 -2 2
372 2 7.0782024373196997e+00 1.3996201117148928e+01 3.9577902767973892e+00 5 0 2
370 1 7.1299547070732148e+00 1.3577658376166713e+01 3.0535136294639171e+00 5 0 2
24 2 6.1729323495342818e+00 1.6093350199854569e+01 4.6686526835562834e+00 1 -1 -1
310 1 7.2557808186910897e+00 1.5571984911996005e+01 8.3376126593038469e-01 -3 -2 2
311 2 6.7151692368579061e+00 1.6338990618899057e+01 9.5529879952532759e-01 -3 -2 2
198 2 8.3605856415577193e+00 1.6503067306216224e+01 3.4585894152232810e+00 -2 -1 -1
543 2 3.1396117368670113e+00 1.2309319550061096e+01 5.8153245109104148e+00 -2 0 2
542 2 4.4058478162463617e+00 1.1430899459500113e+01 5.7234740210382453e+00 -2 0 2
541 1 4.0571157767481658e+00 1.2245240059602272e+01 6.1341342713342684e+00 -2 0 2
286 1 1.2514670305369999e+00 1.1994266990757007e+01 5.4800965645580746e+00 2 -2 0
315 2 3.4709378793588139e+00 1.2001444274385427e+01 7.8000264253330025e+00 -2 0 3
161 2 2.0534184781291565e+00 1.0400209640972365e+01 8.6878557323700036e+00 3 1 5
313 1 3.3612402998782462e+00 1.1387892867523245e+01 8.5110033621064822e+00 -2 0 3
314 2 3.9975124497523815e+00 1.0685563170266594e+01 8.3675056987696621e+00 -2 0 3
160 1 1.3400057216557699e+00 9.7234228974185815e+00 8.7684702589220134e+00 3 1 5
9 2 4.0017841134719259e+00 9.1166547399639573e+00 5.2494064915369902e+00 4 4 2
162 2 1.8243717037159810e+00 8.9735680387159444e+00 8.5537677185292846e+00 3 1 5
451 1 5.3111086566411467e+00 9.5580999819124006e+00 8.1477215157750837e+00 -1 3 1
265 1 8.0126024966312670e+00 1.1200994426873747e+01 5.0645760688947110e+00 -3 1 3
212 2 8.0708848580971129e+00 1.0171833596200818e+01 6.3652514776004105e+00 1 -3 1
453 2 6.2276270205191926e+00 9.6640526210658351e+00 7.8095776053666057e+00 -1 3 1
211 1 8.0242421607716850e+00 9.6919855447655952e+00 7.2167123386533998e+00 1 -3 1
203 2 7.5557947964159133e+00 1.2026422775708328e+01 8.5338669434380243e+00 -3 0 2
267 2 8.5500499696663326e+00 1.2031117657427085e+01 5.1411474542737379e+00 -3 1 3
213 2 8.2132336629215992e+00 8.7830458536623155e+00 7.0240824391708108e+00 1 -3 1
452 2 5.3887824021175206e+00 8.9738003317423569e+00 8.9291203981508147e+00 -1 3 1
391 1 2.9354404237474578e+00 1.6787339168399399e+01 8.1433493417087668e+00 -2 -5 -1
569 2 2.4477239998409099e+00 1.6672738844075788e+01 5.4270278195141382e+00 -3 0 -2
188 2 1.8258011969088215e+00 1.3625182423096822e+01 8.4007365676885861e+00 2 5 0
373 1 1.6121765836261681e+00 1.5069746971716302e+01 5.2310440554195949e+00 1 -1 1
374 2 1.6874431193296173e+00 1.4600468965425909e+01 6.0694739935510365e+00 1 -1 1
189 2 2.4518153612794462e+00 1.4967502537753655e+01 8.0177085750340140e+00 2 5 0
187 1 2.3212549505737665e+00 1.4068820999324259e+01 7.6667642439794585e+00 2 5 0
392 2 3.6958844747674191e+00 1.6902085480796238e+01 8.7324355302086687e+00 -2 -5 -1
22 1 6.8084978669540845e+00 1.5399861269167765e+01 5.0188390376420111e+00 1 -1 -1
218 2 5.0484821419073986e+00 1.3626203184332162e+01 6.8483452839307821e+00 -1 0 -2
217 1 5.7155673382915868e+00 1.4279437951389195e+01 7.2136994382365724e+00 -1 0 -2
219 2 5.2108722097796827e+00 1.4847212515947966e+01 7.8368306259784646e+00 -1 0 -2
23 2 6.4160005326533671e+00 1.5025744511525513e+01 5.8294730655792639e+00 1 -1 -1
381 2 7.2322204858749686e+00 1.4473382114250928e+01 8.6139807322032471e+00 1 -6 0
379 1 8.0799576794551164e+00 1.4612326455955182e+01 9.0284795251032612e+00 1 -6 0
380 2 8.6609102551697568e+00 1.4017509118337038e+01 8.5468512992015100e+00 1 -6 0
138 2 7.5515344285593882e+00 1.6617732329446234e+01 6.2250021822325481e+00 2 -4 0
137 2 8.8985203882434973e+00 1.7051181054007458e+01 6.7664694091267572e+00 2 -4 0
429 2 1.0906731097336357e+00 9.0087208808028763e+00 1.0268303638791730e+01 0 -1 -3
228 2 3.7774123872019114e+00 1.0082919297195971e+01 1.1982876911795957e+01 1 2 0
550 1 3.6213077976184342e+00 1.1749169871842044e+01 1.1138270950861910e+01 3 -6 0
551 2 3.3018632824266394e+00 1.1846495417481416e+01 1.0183205388343783e+01 3 -6 0
552 2 2.8352746643785056e+00 1.2013200249896894e+01 1.1737216047084218e+01 3 -6 0
226 1 3.8139987994708036e+00 9.4726469909220992e+00 1.2721054771837027e+01 1 2 0
142 1 7.9072377049568221e-01 1.1171820713627120e+01 1.2146949194890729e+01 -1 0 0
144 2 1.0619273544757601e+00 1.0275941668412120e+01 1.1872601503257444e+01 -1 0 0
143 2 7.4261099528805574e-01 1.1728948290630681e+01 1.1357763287258535e+01 -1 0 0
204 2 7.4709015332319639e+00 1.0943255216274943e+01 9.5303980726078521e+00 -3 0 2
202 1 7.2364489713537310e+00 1.1877090923362889e+01 9.4494980309320429e+00 -3 0 2
433 1 8.4134298868552122e+00 9.3132019552322713e+00 1.0529674359286689e+01 0 4 0
435 2 8.2040987658843871e+00 9.7782485479278378e+00 1.1377243042671832e+01 0 4 0
306 2 8.3603202450249370e+00 1.2068155209392589e+01 1.1971261908861894e+01 -1 0 1
304 1 8.0035759122896764e+00 1.1313310660979939e+01 1.2461441021836063e+01 -1 0 1
305 2 7.0850375053191170e+00 1.1515241752691619e+01 1.2785199496352037e+01 -1 0 1
186 2 4.8178047908938151e+00 1.2769955254221495e+01 1.1265831804189384e+01 0 0 1
534 2 1.5050659599829308e+00 1.6100411228431401e+01 1.1457100984915682e+01 2 1 3
532 1 1.5113362457635815e+00 1.5265039720160042e+01 1.0909260685734504e+01 2 1 3
456 2 2.6485064660879898e+00 1.4318044750428502e+01 1.2529992820698542e+01 1 0 -1
547 1 4.1451760355969940e+00 1.5942981833144074e+01 1.2934312299804278e+01 3 5 -1
548 2 4.6237342045162206e+00 1.6070538407640832e+01 1.2116951271867256e+01 3 5 -1
533 2 2.3993580691307317e+00 1.5148143145722560e+01 1.0597772052144316e+01 2 1 3
455 2 1.4534478309916974e+00 1.3644851365600532e+01 1.3210725462646611e+01 1 0 -1
454 1 2.4304430693615311e+00 1.3561427410713142e+01 1.3119964506945369e+01 1 0 -1
399 2 6.2388496625603551e-01 1.3924209116232261e+01 1.0482951631207330e+01 2 1 -1
397 1 6.1586917918528172e-01 1.3005195490749927e+01 1.0197649776041940e+01 2 1 -1
560 2 7.7843036924937987e+00 1.6988341552342156e+01 1.2404533710890197e+01 0 -3 -2
185 2 6.1914876930877414e+00 1.2943627141592803e+01 1.0611521879996634e+01 0 0 1
154 1 4.9509486269978922e+00 1.5694315225082279e+01 1.0018670969750000e+01 -2 -1 0
156 2 5.3637420547803094e+00 1.4883853119904193e+01 1.0452146933854026e+01 -2 -1 0
184 1 5.6390689415093567e+00 1.3407152793425208e+01 1.1307452191606345e+01 0 0 1
462 2 8.4160871876640613e+00 1.4097173367956733e+01 1.0533943069830467e+01 -3 0 -4
559 1 7.9247205083508003e+00 1.6133815455378148e+01 1.2901879517597287e+01 0 -3 -2
461 2 8.5115115678793742e+00 1.4670396286822086e+01 1.1989969454937411e+01 -3 0 -4
155 2 5.6893207956810512e+00 1.6236027352298319e+01 9.7420136266049120e+00 -2 -1 0
460 1 8.8855985075755477e+00 1.3986717474226509e+01 1.1408710433958925e+01 -3 0 -4
352 1 6.4046168730537201e-01 9.7896910610213990e+00 1.7122386708921645e+01 1 2 1
91 1 3.3520926101295845e+00 8.9996503590738772e+00 1.7413529700869724e+01 0 1 -3
93 2 2.3966722419112081e+00 9.1398187098851196e+00 1.7368727740211007e+01 0 1 -3
62 2 1.6918886551257626e+00 1.1293457926373303e+01 1.4065995687439917e+01 1 -2 0
402 2 1.5150403968241126e+00 9.0776877243010929e+00 1.5328164315393739e+01 -1 2 -2
92 2 3.7907643279794940e+00 9.7532106979548168e+00 1.6939798022001646e+01 0 1 -3
61 1 1.7811570444639095e+00 1.1348207983280801e+01 1.5042157339307114e+01 1 -2 0
42 2 3.3086873297793575e+00 1.1183538963947914e+01 1.5582902608903268e+01 -1 -1 1
63 2 1.1820153573355614e+00 1.2020603731335971e+01 1.5373201857479128e+01 1 -2 0
41 2 4.7762200191385569e+00 1.0950027866274816e+01 1.5468488974522657e+01 -1 -1 1
40 1 4.1098376856167018e+00 1.1220283546791498e+01 1.6185818091065979e+01 -1 -1 1
401 2 2.0642156426137732e+00 8.7901232810184027e+00 1.3878309396503568e+01 -1 2 -2
242 2 5.1912203565248056e+00 9.9667819417976524e+00 1.3647233053187415e+01 -2 2 -2
126 2 8.6009936398097686e+00 1.1943595673353958e+01 1.3838441993292721e+01 2 -2 2
241 1 5.8563386361769885e+00 1.0490884703331607e+01 1.4230647260749132e+01 -2 2 -2
170 2 5.7939411453381284e+00 1.2740677850438511e+01 1.6738983410878923e+01 -2 0 -2
178 1 7.3592271768987079e+00 1.1233532942280195e+01 1.6764472606997785e+01 0 4 1
243 2 6.6481946364529803e+00 9.8480768524715003e+00 1.4526727287879933e+01 -2 2 -2
180 2 7.7939349329533814e+00 1.1578673162583776e+01 1.5942183045610490e+01 0 4 1
495 2 7.9771014009961609e+00 9.5233442667674755e+00 1.7053085903944464e+01 0 3 1
124 1 8.8477058753078879e+00 1.2201554435409641e+01 1.4777323122632545e+01 2 -2 2
382 1 8.1652557244758643e+00 8.8899982821340888e+00 1.4373880833854647e+01 1 0 -1
257 2 1.3246874495271874e+00 1.3800558639020370e+01 1.6981154784072459e+01 0 1 -2
256 1 6.4427195869831611e-01 1.3102635862887654e+01 1.7014650621344167e+01 0 1 -2
165 2 1.7079961077179886e+00 1.6283891639589513e+01 1.7003043182566778e+01 4 -1 -2
164 2 1.7639968827285772e+00 1.5592633644714411e+01 1.5729905954842934e+01 4 -1 -2
343 1 3.3945514795116667e+00 1.4559119361386735e+01 1.5531477480376958e+01 4 -2 0
176 2 4.1025943008131653e+00 1.6578528952048536e+01 1.5257512867422394e+01 0 -1 0
345 2 4.1241174497412016e+00 1.4073995087402922e+01 1.5938623077311597e+01 4 -2 0
163 1 1.2441628015426709e+00 1.6272099246381494e+01 1.6182701956680319e+01 4 -1 -2
344 2 3.2516654315597191e+00 1.4182142963873074e+01 1.4619834753189307e+01 4 -2 0
549 2 4.8200356105417885e+00 1.5570711079025626e+01 1.3538462887719728e+01 3 5 -1
545 2 5.7227923167878147e+00 1.3935131900113980e+01 1.3294382353319115e+01 -2 4 2
169 1 5.7860843871014129e+00 1.3580946462985763e+01 1.6299089620307733e+01 -2 0 -2
171 2 6.1944644721945208e+00 1.4277314050717305e+01 1.6850052999987980e+01 -2 0 -2
546 2 6.1016556477786690e+00 1.4046805028067951e+01 1.4773351372942605e+01 -2 4 2
561 2 7.1493709005517685e+00 1.5785242189647105e+01 1.3334941005444700e+01 0 -3 -2
544 1 6.2031895166089628e+00 1.4529211401886869e+01 1.3897197504848258e+01 -2 4 2
120 2 8.3659445615595018e+00 1.5335689769349431e+01 1.6217660657189999e+01 -2 1 -1
125 2 8.6498559221021836e+00 1.3190310204402280e+01 1.4859130129088630e+01 2 -2 2
15 2 1.2239856221191729e+01 1.8614734412701137e+00 3.9315875995079468e+00 -4 1 2
58 1 9.6021961313754058e+00 2.3182630089166447e+00 1.5725718220781220e+00 0 1 0
327 2 1.1469878528166300e+01 2.6439246934563614e+00 1.2452420482581861e+00 1 1 3
60 2 9.3568252311026434e+00 3.1616647778730687e+00 1.8208618015018572e+00 0 1 0
14 2 1.2831711636462240e+01 1.8412135166155794e+00 2.4150961358819574e+00 -4 1 2
395 2 1.0457209820529403e+01 3.3971605735028674e+00 4.8718516539274619e+00 2 0 0
325 1 1.2418642534407782e+01 2.4451161653246150e+00 9.1801426974295153e-01 1 1 3
13 1 1.2944974460134430e+01 1.4483486914717116e+00 3.2993652754833001e+00 -4 1 2
394 1 1.1057225508018728e+01 2.6383425750455607e+00 4.8386315266547593e+00 2 0 0
134 2 1.2501247498583373e+01 4.0833287670009071e+00 4.7429433362773405e+00 0 -1 -1
326 2 1.2884253000645357e+01 3.2847568934416564e+00 8.6676372117709588e-01 1 1 3
59 2 9.0205725327981394e+00 1.7730725388679862e+00 2.1278273483841637e+00 0 1 0
516 2 1.4423542052863318e+01 1.3365315636772315e+00 3.9879988865768743e+00 -2 -1 -1
514 1 1.5172388703115766e+01 1.0343544931790674e+00 4.5230521959717080e+00 -2 -1 -1
105 2 1.5791846741672652e+01 1.6204035240592800e+00 1.2352293969201324e+00 2 0 4
446 2 1.5534948659929000e+01 3.3379307635216406e+00 2.5210970961976091e+00 3 1 5
103 1 1.6211913469224271e+01 2.3582808031237295e+00 1.6523979298875635e+00 2 0 4
447 2 1.4535140893202659e+01 3.6626224898600293e+00 3.6924898015841925e+00 3 1 5
445 1 1.5119012909506496e+01 4.1065380824943052e+00 3.0275992617646237e+00 3 1 5
558 2 1.6605739773935596e+01 4.5305118203810517e+00 3.7849004776873079e+00 1 -1 -2
324 2 1.6991435069078847e+01 1.7657136772337678e+00 4.8057890121844480e+00 0 1 0
104 2 1.7125724028775856e+01 2.1182678821611614e+00 1.9363339338038947e+00 2 0 4
339 2 1.3088711134978723e+01 5.4797725642817312e+00 2.7997235897561072e+00 3 -1 2
488 2 9.1177614998743159e+00 4.9228763071749162e+00 3.9302611328460504e+00 -2 -1 -1
487 1 1.0021767478105682e+01 4.8868101301667517e+00 4.2969772681285860e+00 -2 -1 -1
489 2 1.0689528947140429e+01 5.3525895375167778e+00 3.7802608462207412e+00 -2 -1 -1
253 1 1.0185559855915775e+01 7.6985377337553711e+00 1.4399777690921098e+00 -2 0 -1
337 1 1.2136990313859403e+01 5.6091924118967782e+00 2.7839999867157514e+00 3 -1 2
443 2 9.1692730802222631e+00 5.6702515594384453e+00 1.6374755635580205e+00 -1 -3 -2
255 2 9.3568814459338530e+00 8.0731832397431997e+00 1.0328360863070363e+00 -2 0 -1
442 1 9.0136367424742208e+00 4.9999534472576386e+00 9.8560760698451977e-01 -1 -3 -2
338 2 1.2011097727079367e+01 6.3381992507009768e+00 2.1824220546675690e+00 3 -1 2
71 2 9.7840088073192906e+00 8.5040462516013164e+00 4.4611072494606425e+00 2 1 0
307 1 1.3993610686711124e+01 8.6452072988189173e+00 3.8192161661097197e+00 2 -2 0
308 2 1.4256434056041815e+01 7.9368603776524429e+00 4.5654223242630572e+00 2 -2 0
64 1 1.6610685080915701e+01 7.0743291137773268e+00 8.3569342858614315e-01 0 -2 0
508 1 1.3881473452037223e+01 7.4222595245600811e+00 1.4787247853050047e+00 -1 1 -2
509 2 1.3955366850989659e+01 8.1058648618824733e+00 2.2347136176561877e+00 -1 1 -2
66 2 1.5712560030259327e+01 7.1104802000161058e+00 1.2889468106156636e+00 0 -2 0
396 2 1.0717947311641714e+01 1.9091570334329677e+00 5.4214788201354276e+00 2 0 0
531 2 1.2601918923726394e+01 2.7272441963372804e+00 7.6236615891071162e+00 1 0 4
412 1 1.1090011830901613e+01 3.3982370935342674e+00 8.0512949090401449e+00 2 -2 1
414 2 1.1599857911431062e+01 4.1891689830513155e+00 8.1539562867778521e+00 2 -2 1
413 2 1.0631807984889134e+01 3.2698149937290957e+00 8.9927566600321889e+00 2 -2 1
302 2 1.0937595205473070e+01 7.0939936248350632e-01 7.4537319001914497e+00 -1 -3 4
54 2 9.5822413334388177e+00 3.4772646504274758e+00 7.0033255793910092e+00 2 -1 2
301 1 1.0571879880415226e+01 4.5603226770903155e-01 6.5849119833070899e+00 -1 -3 4
515 2 1.4804745376707247e+01 7.5550234439734032e-01 5.4424976570889774e+00 -2 -1 -1
529 1 1.3415604817999972e+01 2.4325945386076557e+00 7.1397815318266797e+00 1 0 4
135 2 1.3638556736120803e+01 3.6291437388854701e+00 5.6721667828231395e+00 0 -1 -1
294 2 1.6884103799704945e+01 2.8508724682415187e+00 6.8096279897359642e+00 1 3 2
292 1 1.6416285351110965e+01 2.8973294599669774e+00 7.6886762176305892e+00 1 3 2
530 2 1.4239859411547508e+01 2.6383384296094321e+00 7.5941787283981403e+00 1 0 4
216 2 1.3928222301714559e+01 5.6918945164440238e-01 7.2857170231898065e+00 1 -3 1
252 2 1.6370829614278733e+01 4.4395945800663537e+00 8.3225989515937862e+00 -1 0 -1
133 1 1.3407048698022649e+01 4.2927008667235746e+00 4.9803641207463469e+00 0 -1 -1
293 2 1.6772803974087076e+01 2.1600611600528201e+00 8.3272821743247167e+00 1 3 2
76 1 9.2037006540285109e+00 7.3102084624232218e+00 7.5159192698959902e+00 1 1 -1
55 1 1.1238259274067637e+01 6.2118168303693055e+00 6.3706035574261852e+00 -3 0 0
57 2 1.2173519147769618e+01 5.9940651070442996e+00 6.6799298657250317e+00 -3 0 0
56 2 1.0881072700502948e+01 5.5195218784189377e+00 5.7801958892659444e+00 -3 0 0
332 2 1.3019882053584579e+01 6.2559996545740715e+00 8.7062167051203367e+00 -2 -2 -3
128 2 1.1738378558183202e+01 7.9246228617958172e+00 5.4346376240581762e+00 1 -1 4
127 1 1.1380170994683912e+01 8.6856299907049284e+00 5.0130336531577218e+00 1 -1 4
78 2 1.0008794883594923e+01 6.9779286912085317e+00 7.0521286391170177e+00 1 1 -1
77 2 9.3562084447426237e+00 7.2762918178098177e+00 8.4701414722295958e+00 1 1 -1
331 1 1.3390445845732968e+01 5.4475293109875027e+00 8.2422003357814777e+00 -2 -2 -3
12 2 1.3916710591493642e+01 7.9196917987975812e+00 7.1526365371498457e+00 5 -1 0
571 1 1.6961883189365658e+01 6.6489158245972479e+00 6.2926399775750621e+00 -3 1 0
26 2 1.3856675817446568e+01 6.0953310936423879e+00 5.4037998255239907e+00 1 -4 0
27 2 1.5253011416484277e+01 6.5720423012513374e+00 5.8939272166832293e+00 1 -4 0
25 1 1.4303227516683730e+01 6.8551016502120827e+00 5.7173435611561372e+00 1 -4 0
250 1 1.6011051455568481e+01 5.3967409499483727e+00 8.4415885502128276e+00 -1 0 -1
333 2 1.4330540395053871e+01 5.5176209785432881e+00 8.0643313975112818e+00 -2 -2 -3
251 2 1.6462880400777262e+01 5.9784198076467314e+00 7.7877122513821595e+00 -1 0 -1
573 2 1.7156839318846565e+01 7.5389288818889284e+00 5.9224211582136617e+00 -3 1 0
10 1 1.3525687296851455e+01 8.4558880272825032e+00 7.8536853965516409e+00 5 -1 0