LAMMPS data file via write_data, version 15 Apr 2020, timestep = 0

1944 atoms
2 atom types

-1.1120056377023957e-01 4.0093305563772113e+01 xlo xhi
0.0000000000000000e+00 1.9745905922752641e+01 ylo yhi
0.0000000000000000e+00 2.0406429305132281e+01 zlo zhi
-2.8682551367971598e-02 -1.1113087334315708e-02 7.6075712071386192e-03 xy xz yz

Masses

1 16
2 2

Atoms # atomic

1779 2 9.9357101834978279e-01 5.9954642178436535e+00 9.8065710034904707e-01 0 1 0
1367 2 1.4618526324309137e+01 2.3179020510032262e+00 3.5588640760889345e+00 0 1 1
90 2 1.5209016241859471e+01 9.6586159914004490e+00 5.6685259893088871e+00 0 0 0
789 2 1.9857760057679904e+01 1.9583319336400336e+00 7.9348097516339600e+00 0 0 0
665 2 1.8808443979866957e-01 8.1744282272820712e+00 5.1800289461643816e+00 0 0 0
1355 2 9.8465537448924145e+00 1.4614596272186999e+01 3.6169812353224020e+00 0 -1 2
243 2 9.5294215364419586e+00 1.7329273899081144e+01 5.8732691791279441e+00 0 0 0
495 2 3.6443681367833713e+00 3.5748982322073113e+00 9.3249053876690162e+00 0 0 -1
107 2 1.8402314524294901e+01 8.7348484388217909e+00 7.9721436995812622e+00 0 0 1
944 2 1.1201569388377868e+01 1.2931693074400163e+01 6.3592432953524609e+00 0 0 1
1314 2 2.9293826389708140e+00 7.2840063009172775e+00 2.0347126855195481e+00 0 0 1
13 1 7.3193910099155177e+00 1.6379585296646743e-01 3.1051674781992356e+00 0 0 0
1313 2 1.9204012180981107e+00 7.1495465558784463e+00 3.2033894800720768e+00 0 0 1
910 1 1.2721178083195376e+01 4.2856764295646199e+00 5.5819787230764639e+00 0 0 0
481 1 1.1955245721760553e+01 1.1332077267633407e+01 5.6744563368891443e+00 0 0 0
668 2 9.2544557488855195e-01 1.6284913897881594e+01 5.9217553923053563e+00 0 0 0
1135 1 1.7162514525828281e+00 1.4881763690992997e+01 6.3590641481175032e+00 0 1 0
1375 1 8.8549541049770752e+00 6.4483679099333644e+00 4.8586891839055140e+00 0 1 1
1804 1 1.6480267099704601e+01 1.2484433890817749e+01 5.8756515077778335e+00 0 0 1
1749 2 1.3615762820474520e+00 1.1956958911317711e+01 4.2159405081554642e+00 0 0 1
1559 2 9.9696281980150872e+00 7.8359528870202331e+00 6.5922571109647867e+00 0 1 1
888 2 1.3047001274139230e+01 1.7131932129639953e+01 2.6546792761067852e+00 0 0 1
1747 1 4.0924082619399860e-01 1.1769520024651863e+01 4.1084087932833846e+00 0 0 1
467 2 1.4561396546671386e+01 1.3332582382140036e+01 4.6303966126748968e+00 0 0 0
1755 2 1.2139040478161520e+00 4.0415781029415561e+00 9.9993338435643171e+00 0 1 -1
1533 2 9.6331886660425892e-01 4.7015639913468918e+00 2.6270804796481704e+00 0 0 1
710 2 1.9141425429904313e+01 5.3589575501914650e+00 5.5399129964855431e+00 0 0 0
63 2 3.4065772477570149e+00 1.2554877915297594e+01 5.6619126418297610e+00 0 0 0
1577 2 1.8382461974390424e+01 7.1595388965158158e+00 4.7429972175599477e+00 0 0 1
194 2 1.9493940864688990e+00 4.8600733804664481e-01 3.8307660856949175e+00 1 0 0
1085 2 1.3113917759650913e+00 2.3258907342540485e+00 1.1226876611852172e+00 0 0 0
1617 2 7.9654818230792568e+00 8.3661136551020165e-01 6.4473224690900395e+00 0 1 0
876 2 1.2711548612429079e+01 7.9856178197085059e+00 6.1978777491876693e+00 0 0 0
890 2 6.6584541348618409e-01 1.9707785777862593e+01 1.2414413105225341e+00 0 0 0
915 2 1.8548164229165724e+01 1.7055935932463203e+01 5.7274992166259846e+00 0 0 0
1161 2 1.2472476370889300e+01 6.2567617688945987e-01 6.4482355271811356e+00 0 1 0
925 1 1.5418912943422551e+01 1.5878742600966786e+01 5.0278573605996666e+00 0 0 0
258 2 2.4166469331093565e+00 1.4471927787785985e+01 1.1630643054970859e+00 0 0 1
1341 2 7.9356472931305255e+00 1.7672785727234714e+01 9.5162519914220933e+00 0 0 1
1167 2 1.2616708891917504e+01 6.2745829953190642e+00 1.7568207356033212e+00 0 1 1
32 2 3.1994526351217498e+00 1.8898846157549393e-01 1.2555832098223334e+00 1 0 0
924 2 1.2296845099893323e+01 1.3091841637284823e+01 9.9621017763545225e+00 0 -1 0
906 2 1.7028010202228426e+01 1.7935676977340723e+01 2.3284270726904643e+00 0 -1 0
252 2 9.4883101598195694e+00 9.9044840109113608e+00 4.9203605825032639e+00 0 -1 0
264 2 1.2489798242141411e+01 1.1548603442558766e+01 2.2230732899851455e+00 0 0 0
1306 1 4.7890285113304687e+00 1.1306463856001305e+00 9.2887630629209763e+00 0 0 1
1220 2 1.9888737717402943e+01 1.5292720910830631e+01 8.5098582136826124e+00 0 0 0
453 2 9.0777995898715389e+00 1.2526601599384797e+01 6.7013558588737814e+00 0 -1 -1
270 2 1.8954870714488276e+01 1.4304275105360841e+01 3.9761531435919744e+00 0 0 0
1576 1 1.9139997680964573e+01 7.2167319964562626e+00 5.3617401420528195e+00 0 0 1
208 1 2.1641352898819473e+00 3.3029863790923306e+00 6.3162847977495469e+00 1 0 0
507 2 9.6987105345454694e+00 4.2411098918865076e-01 8.0300690779960409e+00 0 0 1
874 1 1.2575093182870766e+01 8.7128524171047470e+00 6.8469958255411187e+00 0 0 0
452 2 9.0578054982622991e+00 1.1400875640859015e+01 7.8575958000750310e+00 0 0 -1
306 2 1.0576394621502910e+01 1.1543739028943660e+01 9.6486983142723322e+00 0 0 1
1772 2 9.5718703132574117e+00 4.4959226450427749e+00 7.6132995610337959e+00 0 0 0
952 1 1.8313564776127564e+01 1.5664168475598322e+01 7.1549935546288319e+00 0 0 1
1397 2 1.7539794366308936e+01 6.6795678935340614e+00 8.5510825241097272e+00 0 0 1
523 1 1.1661748113995761e+01 6.5785409858347696e+00 1.9509644357424821e-01 0 1 1
1531 1 1.1968059313534900e+00 4.2105120447236679e+00 3.5054407386716502e+00 0 0 1
443 2 6.4942508337683593e+00 8.1764386193082537e+00 4.1315345528242222e+00 0 1 0
1322 2 8.8957381955969232e+00 5.8628854793086109e+00 9.7384448013293756e+00 0 0 1
936 2 1.4630789292982964e+01 1.0813947369181790e+01 7.0751591443265005e-01 0 1 1
1181 2 1.7982793702615567e+01 1.7617157999037360e+01 8.5114528294270180e+00 0 0 0
669 2 1.2649565307193227e+00 1.7750269057046811e+01 6.0831370753214857e+00 0 0 0
15 2 7.7424478973468114e+00 1.9371841882134202e+01 2.4863885014655422e+00 0 -1 0
244 1 1.6649641503497986e-01 1.4662602505242015e+01 2.5336607117413470e+00 0 0 0
1332 2 1.0036335190254031e+01 1.7594367401283780e+01 8.5777180134461659e+00 0 -1 0
896 2 1.3857291732940091e+01 2.8909961136561808e+00 8.5160112576834415e+00 0 0 0
734 2 1.7646026541978120e+01 1.5575207198421598e+01 9.9192873495550202e+00 0 0 0
1792 1 1.6086121479334047e+01 4.1702690572143739e+00 6.2258715214075808e+00 0 0 1
1182 2 1.9089020362540285e+01 1.8695531602044383e+01 8.0658051374992947e+00 0 0 0
235 1 1.7251197414608733e+01 7.5918368241273102e+00 2.9559596148138274e+00 0 0 0
1353 2 7.9083829590270209e+00 1.3740098705302589e+01 4.5041020087964050e+00 0 0 1
1376 2 9.0515492111131426e+00 5.9446414482286656e+00 5.6550292634542831e+00 0 1 1
932 2 1.9946517681691354e+01 1.5159521888615481e+01 7.9391189145180374e-01 0 0 0
962 2 2.1831179071878264e+00 1.7136097264642569e+00 9.1176817642489354e+00 0 0 0
1339 1 8.4265565618628084e+00 1.8501961970388685e+01 9.1861705168567322e+00 0 0 1
129 2 1.9806093422497632e+01 5.2279303714766607e+00 1.1146967913663297e+00 0 0 0
228 2 4.8557659113242551e+00 1.1924186212699935e+01 2.8639889371740486e+00 0 0 0
750 2 1.7620562293816015e+01 1.5494904441932329e+00 6.9043083754133177e+00 0 0 1
1137 2 2.3083644210609955e+00 1.4918715628414244e+01 7.1707143626913004e+00 0 1 0
88 1 1.4961293003249567e+01 1.0405850394741277e+01 5.0712711460569437e+00 0 0 0
736 1 1.6990297591819381e+01 4.0022193048548989e+00 3.4442674865293550e+00 0 0 0
1786 1 3.6915352663116212e+00 1.5375243979419137e+01 8.0277110369246252e+00 0 0 1
899 2 4.6211890792828276e+00 8.1003388609580877e+00 5.2061648656591109e+00 0 0 0
927 2 1.5744982051919878e+01 1.5700642113041544e+01 4.1487294411948081e+00 0 0 0
1171 1 1.4012810833368508e+01 2.2052173488760793e-01 9.7655789949360603e+00 0 1 0
518 2 1.6403189665865291e+01 1.4076885926892389e+01 2.8222157994057508e+00 0 0 0
505 1 1.0419209131079587e+01 8.5088457821196806e-01 8.5448154248865933e+00 0 0 0
744 2 1.3945333195648789e+01 9.8840499920550187e+00 9.3271152648678566e+00 0 -1 0
100 1 1.9184676642101202e+01 4.8006540516327473e-01 4.3938120516804240e+00 0 0 0
912 2 1.1832915562768525e+01 3.8479686751846498e+00 5.6080727366603140e+00 0 0 0
508 1 6.5011517444956484e+00 6.4749749976942423e+00 7.2653625289538182e+00 0 2 -1
920 2 4.4680471091804641e+00 4.4124473304291927e+00 4.2654374818350265e+00 0 1 0
480 2 1.0998256815495468e+01 1.8368718737593557e+01 1.7831127118331569e+00 0 0 -1
941 2 1.3206056634157989e+01 1.2366405797929446e-01 2.7048549115854361e+00 0 1 1
719 2 1.0916452278297973e+01 1.0298372466048438e+00 5.1193658560828990e+00 0 0 -1
1557 2 8.4501193617200698e+00 9.1343847961535918e+00 9.4737898715684676e-01 0 0 1
1532 2 2.2210718944138055e+00 4.2599693822159601e+00 3.6473401794384039e+00 0 0 1
1310 2 1.7637565614546190e+01 1.2212445222845181e+01 7.1513878851949668e+00 0 0 0
1140 2 8.5598158108975557e+00 6.6897741152036234e+00 8.1954087359157646e-01 0 0 1
1583 2 5.1076711186312158e+00 1.1743480043312612e+01 1.1616778741919276e+00 0 0 1
1166 2 1.3748648590215252e+01 5.3371099413722307e+00 2.2501867232101471e+00 0 1 1
1093 1 1.8136118704512317e+01 4.8752221834192193e+00 7.9131819808242190e+00 0 2 0
526 1 1.7528250319242456e+01 1.1904364188512032e+01 8.3603883399459700e-01 0 0 0
69 2 2.8621443310851822e+00 1.9729650444541878e+01 6.6726563165515929e+00 0 -1 0
437 2 1.3400937971641511e+01 1.8659328781419752e+01 6.7017270181732336e-01 0 -1 0
1396 1 1.7543532639027958e+01 7.5397460343442413e+00 9.0848490095385355e+00 0 -1 1
957 2 1.4757924734114969e+01 1.8663334020953759e+01 9.9754325545676430e+00 0 0 0
285 2 9.7115056278882737e+00 3.2582737671418398e+00 5.6943256768113146e+00 0 0 0
440 2 1.0586275086475434e+01 6.9835452393574726e-01 2.4851791206992240e+00 0 1 0
446 2 6.0266033615115298e+00 5.8623681437068402e+00 3.0357740901993222e+00 0 0 -1
945 2 1.0294340119315018e+01 1.4162162723103869e+01 5.8768702116674101e+00 0 0 1
1806 2 1.6847490939031502e+01 1.2866130802135382e+01 5.0744175449590632e+00 0 0 1
1811 2 1.5912975198888699e+01 8.9031806504865241e+00 5.6878268144232236e-01 0 0 1
1787 2 4.6196352573172907e+00 1.5284797384567476e+01 7.6683243031054689e+00 0 0 1
961 1 1.9697175609726818e+00 2.6370760260258526e+00 8.9929951416886613e+00 0 0 0
1810 1 1.6654571861263353e+01 8.3033609126778405e+00 2.6227881565964734e-01 0 0 1
1389 2 4.8356767553131448e+00 1.1034977092499089e+01 5.9515806378992613e+00 0 0 0
1308 2 5.3500838364068919e+00 1.5742507662963123e+00 9.9576103872120285e+00 0 0 1
101 2 1.8743154750040226e+01 1.0094400404357193e+00 3.6910536870262454e+00 0 0 0
1560 2 1.0864443077683896e+01 8.9312899715945164e+00 7.1576358652446386e+00 0 1 1
1562 2 1.0410095604501930e+00 2.3450278882884823e+00 5.3392284751823107e+00 0 1 0
1569 2 3.0538672922287233e+00 1.7000384554957698e+01 8.8584352084762283e+00 0 -1 0
304 1 9.8174367248445904e+00 1.0952576605855484e+01 9.3661931808948786e+00 0 0 1
64 1 1.2998530230999737e+01 9.8372411418080965e+00 3.1066062182225034e+00 0 0 -1
209 2 2.1014840103670775e+00 4.1607336211794355e+00 5.8193997876115029e+00 1 0 0
872 2 6.1452806349285751e+00 1.9048251842300015e+01 4.1488907838949816e+00 0 0 0
1300 1 7.5141452430233713e+00 1.3477026255298799e+01 1.7031209503476494e+00 0 0 0
241 1 1.0165821281921799e+01 1.7509794637815169e+01 5.1560824664676721e+00 0 0 0
1618 1 1.5352779485034750e+01 1.8661023622115195e+01 5.5517019058468273e+00 0 -1 0
316 1 1.5749904682658645e+01 6.6139054663192418e+00 5.1114347828567901e+00 0 0 1
1578 2 1.8947028615376510e+01 7.9874997796159981e+00 5.8511944284653943e+00 0 0 1
1548 2 4.2197286753493728e+00 1.7577643012962536e+01 2.3797610347667790e+00 0 0 1
1537 1 1.2433809829255955e+00 1.6991937083793260e+01 3.0889780821604433e+00 0 0 1
473 2 6.6491611501080881e+00 5.7072112420366947e+00 7.8292101421071991e-01 0 1 0
50 2 1.3463972780083950e+00 9.9116770160022405e+00 6.4816514406718726e+00 0 -1 0
1761 2 1.5259866893125064e+01 1.5806504617795351e+01 1.7039944430034799e+00 1 0 1
685 1 6.2430158544040548e+00 1.4858220729421653e+01 7.2371833856233856e+00 0 0 0
939 2 2.9329806022886062e+00 3.4142222436900171e+00 2.5530644491275517e-01 0 0 0
108 2 1.8222173488393626e+01 1.0250511991498124e+01 7.4867258474301286e+00 0 0 1
1825 1 1.7836103855873439e+01 1.9097052457567841e+01 7.7625977021801884e-01 0 0 1
1096 1 3.2705488171447548e+00 8.9613960839909481e+00 8.8449167889770504e+00 0 1 0
465 2 1.1274094839667896e+01 2.5079720245656083e+00 1.5372139691218245e+00 0 0 -1
1604 2 1.2358362460435750e+01 1.1908627274797507e+00 7.7220185255006138e-02 0 1 1
11 2 5.0559586352427104e+00 2.6138053351348276e+00 1.7460576987411307e+00 0 0 0
488 2 1.2243583791943751e+01 3.6337736653719559e+00 9.9373005376026118e+00 0 1 -1
72 2 8.1372818436159666e-01 1.1552726410214538e+01 1.3048418504851869e+00 0 -1 0
914 2 1.8643783753089355e+01 1.8350686710660913e+01 4.8935387739112288e+00 0 0 0
748 1 1.8455195272997905e+01 1.9065728935939830e+00 6.6285365355832413e+00 0 0 1
686 2 6.3381218472298162e+00 1.4474060745681106e+01 6.3430898719470887e+00 0 0 0
98 2 4.0620970828936178e+00 1.8161345332459057e+01 9.9705152897626412e+00 0 -1 -1
225 2 4.6735398327131064e+00 9.5642163671632341e-01 7.4265337723106413e+00 0 1 0
1794 2 1.5444157017727960e+01 3.5976877691089890e+00 6.6888880751776778e+00 0 0 1
430 1 7.6111674290295195e-01 9.8532933563088907e+00 2.1412314451851264e+00 1 0 0
873 2 4.8934135487630916e+00 1.8147691619708542e+01 4.4275214242930252e+00 0 0 0
439 1 9.8204538010611042e+00 1.1885055789291361e+00 2.2069911389203374e+00 0 1 0
442 1 6.8022006784771998e+00 8.9003644258607739e+00 3.5075025269800237e+00 0 1 0
44 2 9.8263451354446829e+00 2.4318616639276729e+00 8.7810308803927999e+00 0 0 0
468 2 1.3094686536884490e+01 1.3934161826978828e+01 4.8523388108518430e+00 0 0 1
193 1 2.8257282521684681e+00 4.4158887607458525e-01 3.4066223545810232e+00 1 0 0
1153 1 1.5902955241143047e+01 1.4658904609628250e+01 7.6103272127563040e+00 0 1 0
236 2 1.7251354159077476e+01 8.5929349927833876e+00 3.0891569966572781e+00 0 0 0
1823 2 1.5123293238706712e+01 1.9209313591467996e+01 2.1963900866019914e+00 0 0 1
1773 2 1.0420418425196351e+01 5.7160630898344271e+00 7.7447783470892793e+00 0 0 0
895 1 1.2893427321197191e+01 2.9370126738008047e+00 8.2880831906878925e+00 0 0 0
1173 2 1.3059240746379125e+01 1.9734035394121381e+01 1.0115009870104705e+01 0 0 0
509 2 6.7322042665652058e+00 5.5225357669248760e+00 7.4054256487199792e+00 0 2 -1
921 2 4.4563801102643890e+00 6.0641316689379909e+00 4.2832841652973954e+00 0 1 0
293 2 1.8643128443421297e+01 1.0562095128800888e+01 4.6125428558118022e+00 0 -1 -1
1814 2 1.6943189899054193e+01 1.0139996902785311e+00 2.7938502092934332e+00 0 1 1
77 2 9.9384041832716559e+00 5.2586566678012439e+00 3.2972553622563852e+00 0 0 0
250 1 8.6384832753864575e+00 1.0334307836941033e+01 4.8850518162939558e+00 0 -1 0
283 1 1.0233309875727402e+01 2.7660400279719406e+00 5.0839728673751559e+00 0 0 0
517 1 1.7042403027099528e+01 1.3434307392485946e+01 3.1181772161668291e+00 0 0 0
1620 2 1.4606171183691934e+01 1.8955042688001484e+01 6.0867115586141090e+00 0 -1 0
940 1 1.2274500658374624e+01 1.9507585401428205e+01 2.8168204350380428e+00 0 0 1
670 1 4.3895716207436992e+00 2.5680837067910378e+00 4.1918282796502995e+00 0 0 0
1113 2 1.5687387062375073e+01 7.7753419180633472e+00 6.5578568380892301e+00 0 0 0
935 2 1.3988553103987382e+01 9.8333978670026756e+00 1.7363092816054457e+00 0 1 1
45 2 9.2538088232040447e+00 3.7518129163904490e+00 9.4204464382199351e+00 0 0 0
1305 2 1.0341391692488687e+01 1.4582032813494648e+01 1.3026974377706833e+00 0 -1 1
1354 1 9.3630145394901803e+00 1.4722472468305261e+01 4.4627671689221033e+00 0 -1 2
510 2 6.9566759440328418e+00 6.9876433364556254e+00 7.9479640284158251e+00 0 2 -1
882 2 8.2658586017861584e+00 1.4421659824559910e+01 4.6722338417844039e-01 0 0 -1
60 2 2.4341982160299418e+00 6.1483698087736354e+00 7.3496817189358223e+00 0 0 -1
320 2 7.3623518933933108e+00 1.6963284126509730e+01 1.4635801974018050e+00 0 -1 1
1735 1 3.9532652505070596e+00 4.0267638470091827e+00 1.3440588092475276e+00 0 1 1
880 1 9.0388889594616124e+00 1.4908420104945220e+01 5.6428157151270864e-02 0 0 -1
1737 2 3.8062011967372604e+00 4.4602810058631324e+00 2.2458328528272271e+00 0 1 1
1180 1 1.8130979725135198e+01 1.8546857269085674e+01 8.1907247562263574e+00 0 0 0
1099 1 1.0276975176106605e+01 8.3693188015716196e+00 3.6212581883896009e+00 0 1 0
519 2 1.7116756154915045e+01 1.2778546517253655e+01 2.3290056275038951e+00 0 0 0
1303 1 1.0799744314486823e+01 1.4395315072412959e+01 2.1045113528219836e+00 0 -1 1
1304 2 1.1469821807542724e+01 1.3780520397696893e+01 1.8912888141754096e+00 0 -1 1
61 1 2.8090566538809991e+00 1.2770568271750953e+01 4.9350482802552884e+00 0 0 0
954 2 1.8513559285866297e+01 1.5031127613130737e+01 6.4619754657962387e+00 0 0 1
712 1 3.6292399799772039e+00 9.3666470361703169e+00 4.5943715004810466e+00 0 0 1
1568 2 2.4691794716532622e+00 1.8467503399841831e+01 8.4217894212059150e+00 0 -1 0
19 1 4.0899228983605829e+00 6.5128609866209404e+00 8.6935824746604489e+00 0 0 0
1301 2 8.0259554800634820e+00 1.2973304101195289e+01 2.3402825293782330e+00 0 0 0
1770 2 5.8215783348054657e+00 1.4876109348106004e+01 1.8983551858517846e+00 0 1 1
1769 2 5.0245748358506903e+00 1.5653261840854301e+01 3.0271185291750755e+00 0 1 1
534 2 1.6472523249257428e+01 1.3630110321942288e+01 1.0046756355308670e+01 0 1 -1
970 1 9.2633919494601624e+00 1.1770319599740382e+01 2.9143311129453444e+00 0 0 0
675 2 6.0417466343517807e+00 3.6599701931871729e+00 8.2708160119072893e+00 0 -1 0
7 1 2.8849664206169012e-01 1.2623611510693003e+01 8.2117695406936786e+00 0 -1 0
1331 2 1.0568790038539472e+01 1.6294435472512550e+01 9.1324703298106620e+00 0 -1 0
1184 2 8.7739682995294856e+00 7.8495927685283569e+00 8.3163093647821427e+00 0 0 0
458 2 1.4332729783144625e+01 5.4289718468839734e+00 8.8048964402740761e+00 0 1 0
68 2 1.3648852989866664e+00 9.2821981101627218e-02 7.0730322939179047e+00 0 0 0
697 1 4.7282753943183620e+00 7.8686978929100349e+00 1.6121704415476676e+00 0 0 1
1302 2 6.6715575722479006e+00 1.2956726160399912e+01 1.4267892308659402e+00 0 0 0
78 2 1.1287185301342996e+01 4.6542996709822546e+00 2.7783955640385098e+00 0 0 0
745 1 1.6937241004445745e+01 6.0522565871470824e-01 9.8805828953541770e+00 0 1 0
673 1 6.8310258252089318e+00 3.8441097225548408e+00 7.7169855943443304e+00 0 -1 0
1523 2 1.0006618895638390e+01 1.1484837236611021e+01 7.7064617238696698e-01 0 0 0
237 2 1.6669286163580573e+01 7.2106309906072452e+00 3.6477064502684624e+00 0 0 0
1516 1 5.8260562094640607e+00 1.7790313535296022e+01 8.2165581552090727e-01 0 0 1
1584 2 6.2396138069868750e+00 1.1110607428750477e+01 3.0989927028328168e-01 0 0 1
223 1 4.3289982091537738e+00 8.9795392755505310e-01 6.5149773256414294e+00 0 1 0
1547 2 2.8754867033810605e+00 1.7093122000421232e+01 2.9966386562152665e+00 0 0 1
1771 1 9.7315091625609735e+00 5.3117659644469146e+00 7.0906496736597813e+00 0 0 0
438 2 1.4752286615018603e+01 1.7929222513836613e+01 4.8661597132886775e-01 0 -1 0
738 2 1.6549396532848064e+01 4.6248600337820989e+00 2.8330831222855144e+00 0 0 0
284 2 1.0149138721366453e+01 3.3383080514634145e+00 4.2283496379406200e+00 0 0 0
506 2 1.0557839044026881e+01 3.5756896066254795e-01 9.3769593282584740e+00 0 0 0
926 2 1.5359823361187487e+01 1.6878375441201403e+01 5.0831981461447269e+00 0 0 0
1108 1 7.5512998412819421e+00 1.7011230520398048e+01 6.1094709918026071e+00 0 0 1
482 2 1.2625079954078068e+01 1.1687773526595436e+01 5.0470004893577434e+00 0 0 0
687 2 6.3085964160453996e+00 1.3993748052749751e+01 7.7278394688508332e+00 0 0 0
737 2 1.7755696970547667e+01 4.4087828732576684e+00 3.9080188927041370e+00 0 0 0
1155 2 1.5139652699193663e+01 1.4455378963914164e+01 8.1517871897008565e+00 0 1 0
1561 1 6.2332296173395729e-01 1.6913154761827487e+00 4.7427183511464444e+00 0 1 0
479 2 9.6860406450238283e+00 1.7465355278894258e+01 1.5101284405971436e+00 0 0 -1
251 2 8.5494406323443126e+00 1.0801922763434391e+01 5.8041131127161609e+00 0 -1 0
919 1 4.1386989347896446e+00 5.2053910455431236e+00 3.8911471902507397e+00 0 1 0
498 2 6.0053720465788221e+00 1.0320189530563718e+01 4.0803546090662497e+00 0 -1 0
993 2 1.9955305790926751e+01 1.2045930560546978e+01 8.3469771725491775e+00 0 0 0
73 1 1.7806849389420812e+01 3.3333203603188388e+00 9.9458735695295992e+00 0 0 0
972 2 1.0047390056616912e+01 1.2255504959565048e+01 3.2826101684997462e+00 0 0 0
1111 1 1.5480202104227608e+01 8.3041044387225558e+00 7.3714124588071783e+00 0 0 0
1352 2 6.5326052581081289e+00 1.4067565922201087e+01 4.2760833207839335e+00 0 0 1
1539 2 8.5304885997280244e-01 1.6103128240451937e+01 2.9371597245795598e+00 0 0 0
963 2 1.8628220172812191e+00 2.7650164439149982e+00 8.0067407342875345e+00 0 0 0
1831 1 6.6116790727435566e+00 1.6575125512598518e+01 9.9970172317300463e+00 0 -1 0
226 1 4.1299903066860386e+00 1.2455570780250358e+01 2.5215074228063390e+00 0 0 0
1615 1 8.2066758090891767e+00 8.0388198957568966e-03 6.8925922353491931e+00 0 1 0
1748 2 3.8335708824837367e-01 1.0990851409684154e+01 3.5383613726813223e+00 0 -1 1
1154 2 1.5504836424626744e+01 1.5169689570568758e+01 6.8470849749621499e+00 0 1 0
43 1 9.2627891307464036e+00 3.2310036993272413e+00 8.6262236427017225e+00 0 0 0
1101 2 1.0053517713003806e+01 8.3852850485229595e+00 2.6923200371500342e+00 0 1 0
699 2 5.0490136159903400e+00 7.1821308065236025e+00 1.0417859124711482e+00 0 0 1
448 1 1.3201988586796043e+01 1.7678397256786756e+01 7.6763660303321037e+00 0 0 0
886 1 1.2728590310988693e+01 1.6325445776020558e+01 3.0768782917855555e+00 0 0 1
478 1 1.0407428260866133e+01 1.7983016122154424e+01 1.1388267097260365e+00 0 0 -1
1538 2 1.1936195149112341e+00 1.7083875116053491e+01 4.0965383900241505e+00 0 0 0
1822 1 1.5393807900316098e+01 1.0291998233482490e-01 2.8631599518947235e+00 0 1 1
666 2 1.4721282658241075e+00 7.6392166186180743e+00 5.7529764920678570e+00 0 0 0
436 1 1.4075979027728845e+01 1.8220291177835691e+01 1.1704583564456605e+00 0 -1 0
713 2 2.7030376063724546e+00 9.1026232140121177e+00 4.5662287878139436e+00 0 0 1
445 1 7.0052005009854508e+00 5.8861631935279819e+00 3.0238620105936977e+00 0 0 -1
466 1 1.3593974552997171e+01 1.3109652361166706e+01 4.5456387438642674e+00 0 0 0
1803 2 7.0706084051965048e+00 2.8913057756374347e+00 2.3958240830040141e+00 0 1 1
457 1 1.3861093965262592e+01 5.8883854508643294e+00 8.1401290283917671e+00 0 1 0
1777 1 5.4725243268035517e-01 5.1321920671377548e+00 1.0309137423946291e+00 0 1 0
900 2 5.7406136565680059e+00 7.0798055924907857e+00 5.9536905046486766e+00 0 0 0
242 2 1.0976250337731551e+01 1.7071389004873371e+01 5.4228855670162588e+00 0 0 0
711 2 1.8989208821414419e+01 3.7881331643645701e+00 5.6036208137355583e+00 0 0 0
12 2 5.7620790774595401e+00 1.6905319576153308e+00 7.2257849129243645e-01 0 0 0
308 2 1.2824072811866824e+01 1.4994679807915457e+01 8.8120921311219576e+00 0 0 0
1558 1 9.9848171925326561e+00 8.5007248719148993e+00 7.3046633283872815e+00 0 1 1
317 2 1.5940804055505545e+01 5.7448574946614244e+00 5.5438814178286933e+00 0 0 1
1778 2 8.0615863975692226e-01 4.6935822325273291e+00 2.1036955368008609e-01 0 0 0
953 2 1.7482439040803044e+01 1.5194029368693286e+01 7.4827409922218280e+00 0 0 1
934 1 1.4415807126797882e+01 9.8958669764508524e+00 8.2272646487036383e-01 0 1 1
718 1 1.1364553116897250e+01 1.6737361518632218e-01 5.2544593042757786e+00 0 0 -1
1833 2 6.6342846966427276e+00 1.6006798602242615e+01 9.2263338626370643e+00 0 -1 0
1165 1 1.2872547539323255e+01 5.6834909292432840e+00 2.5299074614320718e+00 0 1 1
1112 2 1.6303748147135998e+01 8.5347329788803066e+00 7.7897505658865152e+00 0 0 0
1818 2 1.4918449264844856e+01 1.6238521084172177e+00 4.5820963565749900e-01 0 2 1
210 2 3.0963934749457898e+00 3.0501653499138568e+00 6.2040754041814639e+00 1 0 0
21 2 3.6400629799181234e+00 7.3839220442542572e+00 8.7293184529399745e+00 0 0 0
10 1 5.8304485663004924e+00 2.0445851328840798e+00 1.6503779987930300e+00 0 0 0
1398 2 1.8039476748939762e+01 7.4110306366236252e+00 9.8865834707401063e+00 0 -1 1
749 2 1.8914421843408270e+01 1.2456730128464266e+00 6.0764527950700264e+00 0 0 1
898 1 5.3015177276670897e+00 7.3723519525378451e+00 5.0861909489910886e+00 0 0 0
889 1 3.3646036504912064e-01 1.8790661592731265e+01 1.2118582560963078e+00 0 0 0
269 2 1.9208458869764744e+01 1.3048047216642798e+01 4.6929482374434297e+00 0 0 0
1183 1 8.1296892317893352e+00 7.5514256642404289e+00 8.9700790166537328e+00 0 0 0
1815 2 1.7362566122986067e+01 2.4967620089178513e+00 3.0214176210201558e+00 0 1 1
864 2 -1.0021642228376434e-01 5.8160826453577910e+00 9.1488317958981327e+00 1 0 0
1802 2 8.5179011219604917e+00 3.5346600255232610e+00 2.5880470230784627e+00 0 1 1
913 1 1.8673635159830905e+01 1.7443982326881347e+01 4.8223215171257783e+00 0 0 0
221 2 1.4050352477968167e+01 1.3023171654787408e+01 7.9704865996428931e-01 0 1 0
1805 2 1.6102732538537495e+01 1.3199518770188888e+01 6.4193686402565664e+00 0 0 1
714 2 3.8710074080043286e+00 9.9774300646782397e+00 3.8557829696959280e+00 0 1 1
292 1 1.9458270460837710e+01 1.0861065941124124e+01 5.0549956054950345e+00 0 -1 -1
1377 2 8.0346565029400416e+00 6.1344630397587450e+00 4.4679245896931707e+00 0 1 1
1824 2 1.5406891225117480e+01 1.9336208955404029e+01 3.6979890633928258e+00 0 0 1
720 2 1.0685393652822258e+01 1.9237452129654500e+01 5.4516588753515025e+00 0 -1 -1
67 1 2.0507015485998070e+00 1.9242783765474098e+01 6.9800688693224462e+00 0 -1 0
289 1 1.2416972186640525e+01 1.5637816579505868e+01 5.7085789241012126e+00 0 -1 -1
688 1 1.5592494667617265e+01 2.0949939150548840e+00 7.7808139845316138e+00 0 0 0
268 1 1.9349995639766643e+01 1.3999780400202933e+01 4.7944791110732394e+00 0 0 0
1156 1 1.8410531545635259e+01 5.8849638388226007e+00 9.8100331485332160e-01 0 0 0
245 2 2.7235101929928729e-01 1.3752239096945695e+01 2.7279853369687745e+00 0 0 0
1084 1 7.1759554832150241e-01 1.8562161813294409e+00 1.7173483157149061e+00 0 0 0
432 2 1.1992253257362719e+00 8.9766665057945971e+00 2.1869531565413705e+00 1 0 0
66 2 1.3539613001391276e+01 9.7435604135192975e+00 3.9238040568672594e+00 0 0 -1
309 2 1.2190133223249870e+01 1.4273936037921461e+01 7.6450720071896878e+00 0 0 0
1350 2 7.1388621355849189e+00 1.2003720721958723e+01 7.7072814339153384e+00 0 -1 0
314 2 1.7234109990710568e+01 1.0602674093001413e+01 2.3454406785923161e+00 0 0 0
1387 1 4.3260842802816768e+00 1.1350489495934250e+01 6.6939626268880152e+00 0 0 0
904 1 1.6868664293473763e+01 1.7052202422129625e+01 2.6891499426459609e+00 0 -1 0
1188 2 4.4796617280873594e+00 1.5024785859352027e+01 2.7212119049950018e-01 0 0 0
1351 1 7.0363643432808205e+00 1.3511574467608973e+01 4.9078307884691945e+00 0 0 1
1567 1 2.8284771197981855e+00 1.7877265356345916e+01 9.1646195110773512e+00 0 -1 0
671 2 3.8223655309183000e+00 1.7592056636691888e+00 4.0905716368474678e+00 0 0 0
262 1 1.2460895253553840e+01 1.2492258524174781e+01 2.1033187619735232e+00 0 0 0
49 1 1.7989983506676095e+00 1.0475085580864738e+01 7.1446400637578131e+00 0 -1 0
871 1 5.7324898533269204e+00 1.8508278149049701e+01 4.8482895909440051e+00 0 0 0
1136 2 2.1211410925066860e+00 1.4151780571201517e+01 5.8643101122786012e+00 0 1 0
1801 1 7.7264087772020273e+00 3.2470077925017251e+00 3.0407005092133366e+00 0 1 1
693 2 1.6891282270113049e+01 1.0618960975027086e+01 9.7739458557666783e+00 0 0 0
933 2 1.8344681722351812e+01 1.5099806842693923e+01 5.9290481797355765e-01 0 0 0
667 1 7.3294770282274502e-01 1.7142452001926184e+01 5.5608230217343229e+00 0 0 0
89 2 1.5360925874748803e+01 1.1151693459942754e+01 5.5051495176740026e+00 0 0 0
1123 1 1.3072710536834153e+01 6.9135759280722278e+00 4.9323639320506985e+00 0 1 0
450 2 1.3815908141687874e+01 1.7787104795270739e+01 8.3818921893072513e+00 0 0 0
1109 2 6.8410342584221473e+00 1.7413831178667500e+01 5.4873992931873694e+00 0 0 1
942 2 1.2228745227684195e+01 1.9541381601976553e+01 3.7652070321362512e+00 0 0 1
1309 1 1.8018725905293170e+01 1.1942356325971653e+01 8.0249796328004557e+00 0 0 0
689 2 1.4886382167676581e+01 1.4735321516298467e+00 7.5326194514844973e+00 0 0 0
444 2 7.6249838783563080e+00 9.2139146528115976e+00 3.9338152637363089e+00 0 1 0
1830 2 1.1325040762684282e+01 5.4094231124421821e+00 9.5823839708458731e+00 0 0 0
496 1 5.6092718577417804e+00 1.1123637448844329e+01 4.3815627471981236e+00 0 -1 0
696 2 1.5876911669786759e+01 1.3780649325035661e+01 2.2779152096376518e-01 0 -1 1
709 1 1.9031867468350644e+01 4.5481544051879288e+00 4.9839822101233207e+00 0 0 0
897 2 1.2672272553711215e+01 2.0018135675273290e+00 8.0569371075637886e+00 1 0 0
905 2 1.7342194846715731e+01 1.7118907457963804e+01 3.5608376763509448e+00 0 -1 0
1813 1 1.7669083673893425e+01 1.6165784618300851e+00 2.6316174300856154e+00 0 1 1
1186 1 5.4224463472039002e+00 1.5324708242575506e+01 1.8012910597312151e-01 0 0 0
14 2 6.7677568846857961e+00 7.4224929900396930e-01 2.5577856233044542e+00 0 0 0
1556 2 7.9054061662978548e+00 8.3392712816553782e+00 2.1315412194675973e+00 0 0 1
1528 1 6.8674940212371096e+00 2.0350077518231346e+00 5.6170949874051015e+00 0 0 0
971 2 8.9323239185108729e+00 1.1253501053516530e+01 3.6878137319120596e+00 0 0 0
294 2 1.9454384223789074e+01 1.0233026432347652e+01 5.7861272391954417e+00 0 -1 -1
31 1 3.5897541105834496e+00 1.9422741133556837e+01 5.8061204336923655e-01 0 -1 0
65 2 1.2203937032057789e+01 9.3405383947620937e+00 3.3114792934341479e+00 0 0 -1
1159 1 1.3320147076497655e+01 5.6603894738023031e-01 7.0173463540084686e+00 0 1 0
1530 2 7.3284217389409028e+00 2.2731283324855798e+00 4.7781118588231326e+00 0 0 0
1788 2 3.7845062533388174e+00 1.4917201978332645e+01 8.9976782364491257e+00 0 0 1
943 1 1.0461119792270209e+01 1.3572271576662374e+01 6.6625366331905376e+00 0 0 1
1100 2 9.9043300594164165e+00 7.6018164785637676e+00 4.0104378161032619e+00 0 0 0
1139 2 9.8475724159565203e+00 5.8897505306407520e+00 6.9963324646390956e-01 0 0 1
195 2 3.0909706786125160e+00 1.9310738204965464e+01 3.6639413330517558e+00 1 -1 0
315 2 1.6505628730366766e+01 1.0726221739262760e+01 3.7933510546154405e+00 0 0 0
305 2 9.9792536803223104e+00 1.0039732947564239e+01 9.7924708842070523e+00 0 0 1
319 1 8.0635012072020160e+00 1.6761894824188261e+01 2.0938363042672932e+00 0 -1 1
1616 2 7.7178846078841818e+00 1.8971732548384914e+01 6.4521126196607055e+00 0 0 0
1619 2 1.6137872967574538e+01 1.8810655029965702e+01 6.0769255245172369e+00 0 -1 0