LAMMPS data file via write_data, version 15 Apr 2020, timestep = 200000

972 atoms
2 atom types

1.5463920044063428e-01 1.9836413799560681e+01 xlo xhi
1.2400246032918361e-01 1.9867050539673059e+01 ylo yhi
2.2619876578532327e-01 2.0574573234215421e+01 zlo zhi
1.9204765625341699e-01 -1.7631688237558352e-01 -1.3954013990789307e-01 xy xz yz

Masses

1 16
2 2

Atoms # atomic

4 1 4.3492974016587507e+00 1.5846309142057899e+00 3.2715467514145620e+00 0 0 0
5 2 4.5946493362582013e+00 2.5586271054904048e+00 3.2491076852744709e+00 0 0 0
6 2 3.5573375857029208e+00 1.3754450075009017e+00 3.7453839923407757e+00 0 0 0
7 1 6.2413856274739796e+00 4.5318114097713531e+00 5.8356995837871422e+00 0 0 0
8 2 7.0796285667356234e+00 4.5405316812077734e+00 5.3975124014270008e+00 0 0 0
9 2 5.6200720177036665e+00 4.4094198927735357e+00 5.0571224639511660e+00 0 0 0
10 1 1.8180171869963526e+00 4.2827658746935739e+00 3.7755363311127952e+00 0 0 0
119 2 1.3626073762625701e+00 1.1169997654176949e+01 4.5897416424580912e+00 0 0 0
12 2 1.5722775374479987e+00 4.9040297850822805e+00 3.1289642087809999e+00 0 0 0
13 1 4.9386559175202054e+00 5.9949833027968671e+00 1.6315207518395798e+00 0 0 0
14 2 4.3671112458679335e+00 6.6287947849945672e+00 2.1159230980265411e+00 0 0 0
15 2 4.3267086255729472e+00 5.5892510614592679e+00 9.9124725498739419e-01 0 0 0
16 1 4.5062618958010843e+00 4.0781643546444064e+00 3.7374705300519682e+00 0 0 0
17 2 4.7205643135814563e+00 4.5984040939504851e+00 2.9164602837294655e+00 0 0 0
18 2 3.4977239559067677e+00 4.1180771630861823e+00 3.7875456563842085e+00 0 0 0
19 1 7.4466655994232123e-01 6.1025223542825957e+00 1.9793574863715577e+00 0 0 0
20 2 9.4821175129260227e-01 7.0586028943114769e+00 2.1182884123482943e+00 0 0 0
22 1 2.1911018776500417e+00 9.9106343160235977e-01 4.9060769831777407e+00 0 0 0
23 2 1.2573145790685127e+00 6.9266718536707428e-01 5.1110526052768144e+00 0 0 0
24 2 2.2622894972667016e+00 1.6511511018645293e+00 5.6412407267844058e+00 0 0 0
25 1 2.3252587941230654e+00 5.2051438746253300e+00 6.6053526550644301e+00 0 0 0
26 2 2.2585163675218114e+00 5.8420965199573391e+00 5.9002363754764726e+00 0 0 0
27 2 3.1137214557495416e+00 5.4852885722101306e+00 7.1137911624248273e+00 0 0 0
28 1 5.8851370820377094e+00 1.8403888011822617e-01 4.9785674843330252e+00 0 0 0
29 2 5.2728085391832433e+00 6.8575153558400448e-01 4.3867728365114926e+00 0 0 0
30 2 5.8281816438289420e+00 1.8999019348332109e+01 5.1578568409118253e+00 0 0 0
31 1 1.0878780916197464e+00 2.2119629287047893e+00 2.2505891501602404e+00 0 0 0
571 1 1.0754380996346260e+00 1.5151516741035717e+01 9.0386464555869086e+00 0 0 0
33 2 1.4050754719306229e+00 2.8089986833757092e+00 2.9865052807541490e+00 0 0 0
32 2 1.7270052323041268e-01 2.4029639990031231e+00 1.8744091201616548e+00 0 0 0
35 2 6.0457734582658276e+00 2.6027189254237015e+00 1.3321626476789798e+00 0 0 0
46 1 8.1035537585205937e+00 4.6076002624638415e+00 3.9480422491997942e+00 0 0 0
47 2 9.0184610453032565e+00 4.3508242906947832e+00 3.9532713998374778e+00 0 0 0
48 2 8.1145003620424028e+00 5.1298985512328725e+00 3.1211537821380158e+00 0 0 0
55 1 7.5763229243168659e+00 6.0791485392714835e+00 1.7784311857481860e+00 0 0 0
56 2 7.6252817219829341e+00 7.0536537583915822e+00 1.9795482335857133e+00 0 0 0
57 2 6.6109371827987031e+00 5.7852691511200334e+00 1.7248346368228822e+00 0 0 0
58 1 8.4689984207020039e+00 7.9540853451785876e-01 5.0369269004614869e+00 0 0 0
59 2 8.9167853124857057e+00 1.0618699590715241e+00 4.2505670392649515e+00 0 0 0
60 2 7.4521596208380227e+00 5.3943095573434441e-01 4.8785547090222785e+00 0 0 0
61 1 8.9439493041132536e+00 5.3729533966437337e+00 6.8429540751490681e+00 0 0 0
62 2 8.9989311510443102e+00 4.4130966003230814e+00 6.7361578802482871e+00 0 0 0
63 2 8.1280968188120362e+00 5.5461670192947663e+00 7.3781662221809849e+00 0 0 0
67 1 7.3551620371393529e+00 2.3688357465227758e+00 2.2031293405242254e+00 0 0 0
68 2 7.6787600606377886e+00 3.0139780404554095e+00 2.8148550292494492e+00 0 0 0
69 2 8.1136073289721118e+00 2.3265054998257018e+00 1.5979742442317866e+00 0 0 0
452 2 1.1149347779474312e+00 1.3195536559353407e+01 9.0772462163189243e+00 0 0 0
609 2 7.8335029014150450e+00 1.5831439943750080e+01 9.8483266973351711e+00 0 0 0
465 2 5.3731552772942393e-01 7.5187463434284965e+00 8.9266280612453777e+00 0 0 0
112 1 3.7789264591708287e+00 7.7131675518569853e+00 3.2823442102070506e+00 0 0 0
113 2 4.3558727222958762e+00 7.3694200529369436e+00 4.0068711389164395e+00 0 0 0
114 2 3.9170946666668556e+00 8.7016712710181494e+00 3.3539832169367614e+00 0 0 0
115 1 6.2614962577344562e+00 1.0987252523487376e+01 5.2994937637384405e+00 0 0 0
116 2 6.2850544720941590e+00 1.1949469255865369e+01 5.5000094370270540e+00 0 0 0
117 2 5.8684982950261819e+00 1.0595921061937140e+01 6.0979724883166400e+00 0 0 0
118 1 1.7755230382950682e+00 1.0955563801247814e+01 3.7554286099510787e+00 0 0 0
171 2 9.4726344003350587e+00 1.2421853643163711e+01 5.7865204752190964e+00 0 0 0
120 2 2.6499841059860016e+00 1.0503796184961175e+01 3.9516767512271036e+00 0 0 0
121 1 4.9049691032138574e+00 1.2334296419483438e+01 1.9406124192315406e+00 0 0 0
122 2 5.8538850570723291e+00 1.2504736755668620e+01 1.5194257016411632e+00 0 0 0
123 2 4.3285448984820514e+00 1.2286975715483830e+01 1.0954942058732020e+00 0 0 0
124 1 4.2742897122725312e+00 1.0275867885222562e+01 3.6653589562548596e+00 0 0 0
125 2 4.5360787427994840e+00 1.0794967093394128e+01 2.8725233589940027e+00 0 0 0
126 2 4.9908679933649038e+00 1.0550432888405007e+01 4.2985993492144630e+00 0 0 0
127 1 9.4836832732948351e-01 1.2683843601174267e+01 1.9477710500781709e+00 0 0 0
128 2 1.6431569755961832e+00 1.2578712974016469e+01 1.2624729382593525e+00 0 0 0
2 2 3.8611568643821639e+00 2.6517413426080392e+00 5.1704133784918849e-01 0 0 0
130 1 1.7830392664438095e+00 7.4342369252551341e+00 5.0917593220760091e+00 0 0 0
131 2 2.4555853459490571e+00 7.5088844658254983e+00 4.4038344968381882e+00 0 0 0
132 2 1.9666150823711817e+00 8.1720692709988256e+00 5.7786993400574058e+00 0 0 0
133 1 2.4866667642459372e+00 1.1739784257219814e+01 6.7725881219026860e+00 0 0 0
134 2 1.7705944338741937e+00 1.1946263938053674e+01 7.3865275829076023e+00 0 0 0
135 2 2.4920283939934436e+00 1.2484821758065845e+01 6.1700035875981571e+00 0 0 0
136 1 5.6224877617243472e+00 7.0220526452286123e+00 5.2794356702600558e+00 0 0 0
137 2 5.7805814405069942e+00 6.1223688769784177e+00 5.7087873393255189e+00 0 0 0
138 2 6.4586837565758390e+00 7.3621666777281840e+00 4.9541627761201035e+00 0 0 0
297 2 4.5939459534622057e-01 1.7033645238424185e+01 5.6465229343515144e+00 1 0 0
140 2 1.0710494113222677e+00 9.5455899007028435e+00 2.7631696409102684e+00 0 0 0
558 2 4.2628061994580868e+00 1.7669998255060115e+01 1.0170989026696322e+01 0 0 0
147 2 8.3748907212106207e+00 9.6051904633151430e+00 8.6680853553456672e-01 0 0 0
437 2 4.0883112133778337e+00 8.5503156223664991e+00 9.8155402459084016e+00 0 0 0
154 1 8.3073796257630583e+00 1.0851017382896030e+01 3.4295416580151241e+00 0 0 0
155 2 7.8178406548824348e+00 1.0685649875688078e+01 4.2578450516112962e+00 0 0 0
156 2 9.2388945301865419e+00 1.0802172490846150e+01 3.6941413581398943e+00 0 0 0
163 1 7.6310475691393371e+00 1.2764909132340522e+01 1.6173980812981543e+00 0 0 0
164 2 8.0543484189017747e+00 1.2151084501955918e+01 2.3077292669013860e+00 0 0 0
165 2 8.2184569763813720e+00 1.2620836560189559e+01 8.5215593308423132e-01 0 0 0
166 1 8.3298300639258631e+00 7.4380003814864217e+00 4.9511867101852527e+00 0 0 0
167 2 8.5740417385380141e+00 8.0382812182076755e+00 5.6495319690682750e+00 0 0 0
168 2 8.4746839168567494e+00 6.6048364597537379e+00 5.3968777739865033e+00 0 0 0
544 1 4.4419685112746521e+00 1.4132499848670161e+01 1.0046669899076504e+01 0 0 0
169 1 9.4498497105766628e+00 1.1971190901248127e+01 6.6358605104876416e+00 0 0 0
175 1 7.4306821426103307e+00 8.6570169364054177e+00 1.9769590521289606e+00 0 0 0
176 2 7.8377468854588344e+00 9.3391564583910238e+00 2.6055776480735937e+00 0 0 0
177 2 6.5438059996404725e+00 8.8991639811518404e+00 1.5703354894672428e+00 0 0 0
891 2 3.9155801928692311e+00 1.8746250887329097e+01 4.6927639858157943e-01 0 0 0
3 2 2.2432085545425555e+00 2.8051104321263551e+00 8.0830919405773372e-01 0 0 0
372 2 7.5017249311667937e+00 4.6856219238416452e+00 9.8959221441834764e+00 0 0 0
129 2 1.2160096165108696e+00 1.1968071378964725e+01 2.5326318160526902e+00 0 0 0
217 1 2.7684104423645777e+00 1.5933850343147043e+01 3.6448499168015658e-01 0 0 0
220 1 3.8674959502953632e+00 1.4166585816773793e+01 3.6230140845423384e+00 0 0 0
221 2 3.8706250572938901e+00 1.5131955978686692e+01 3.3482690452441202e+00 0 0 0
222 2 4.3898114330770603e+00 1.3640196167632698e+01 2.9319415498415982e+00 0 0 0
223 1 5.7613050622904156e+00 1.7260418335954107e+01 5.2133063547228558e+00 0 0 0
224 2 6.6808386355726244e+00 1.7283015281230604e+01 4.8663500227783452e+00 0 0 0
225 2 5.7599107052715803e+00 1.6585745944823042e+01 5.9424605465822804e+00 0 0 0
226 1 1.2756044004355878e+00 1.7258251187828066e+01 4.0650411285238617e+00 0 0 0
227 2 1.1450736378365778e+00 1.8046159680146939e+01 3.5116411454370375e+00 0 0 0
228 2 1.2434052787810002e+00 1.6430603571962692e+01 3.5590925595318881e+00 0 0 0
229 1 4.9829718960817431e+00 1.8785658480207129e+01 1.6907223410403953e+00 0 0 0
230 2 4.6452234461088846e+00 1.8022742027020055e+01 2.2170639375126706e+00 0 0 0
231 2 4.7759952946379078e+00 1.9655313447405572e+01 2.1480131494465029e+00 0 -1 0
232 1 4.0054219085789349e+00 1.6707826095250521e+01 3.2129790159182958e+00 0 0 0
233 2 3.1221793400589899e+00 1.7092166320444260e+01 3.3698530001075935e+00 0 0 0
234 2 4.6196405720414981e+00 1.6772532164625908e+01 3.9941686395499256e+00 0 0 0
443 2 1.2142647526455275e+00 9.6444462782549429e+00 1.0057517177309425e+01 0 0 0
236 2 1.2879284172758871e+00 5.3283170416093628e-01 2.3460024467952021e+00 0 0 0
237 2 2.0559523350071749e+00 1.9084736609904045e+01 1.4841414548139649e+00 0 0 0
238 1 1.9569120392763708e+00 1.3999200214710045e+01 5.4493611857552535e+00 0 0 0
239 2 2.3245871698225895e+00 1.4126493875387313e+01 4.5264209906757227e+00 0 0 0
240 2 1.0027371298655403e+00 1.3877290578145590e+01 5.4903288706894555e+00 0 0 0
241 1 3.2327117080918000e+00 1.8363548622489336e+01 6.9443222630786385e+00 0 0 0
242 2 3.1123068492433283e+00 1.8805741951248653e+01 6.0842640723274712e+00 0 0 0
243 2 3.1039768688079583e+00 1.7351634066024719e+01 6.9158203761256676e+00 0 0 0
244 1 6.0527446022842790e+00 1.3682113017109097e+01 5.1688264007652158e+00 0 0 0
245 2 5.8553158610844962e+00 1.4190287170020628e+01 6.0161741714921764e+00 0 0 0
246 2 5.1761297643439486e+00 1.3781933813732573e+01 4.6794109578469971e+00 0 0 0
247 1 7.3737949249040113e-01 1.5318464403264956e+01 2.2458926591205088e+00 0 0 0
248 2 8.3864506725802346e-01 1.4363550067816073e+01 2.3167943042577011e+00 0 0 0
249 2 1.4571508017772452e+00 1.5402101391706577e+01 1.5971782498438172e+00 0 0 0
251 2 6.0025558327665625e+00 1.5396914876355094e+01 1.0032065680086726e+00 0 0 0
235 1 1.5282193525642516e+00 1.9313015712509216e+01 2.2569992740537308e+00 0 0 0
262 1 8.0666729141530737e+00 1.7416912645712859e+01 3.8289986178058730e+00 0 0 0
263 2 8.9788251178792322e+00 1.7312884641185551e+01 4.1273931253314498e+00 0 0 0
264 2 7.8879399641004051e+00 1.8340933285607594e+01 3.5624332470468425e+00 0 0 0
271 1 7.5226043452363571e+00 1.9272217831802873e+01 2.2058258084762170e+00 0 0 0
272 2 7.1468434866057269e+00 4.6096069891487806e-01 2.0963612183580578e+00 0 0 0
273 2 6.7150380952151218e+00 1.8864080433302451e+01 1.8814728876631268e+00 0 0 0
274 1 8.8404232290276603e+00 1.3981261555711225e+01 4.7823193574738339e+00 0 0 0
275 2 8.8328701687814686e+00 1.4531215080448655e+01 5.5776988277239976e+00 0 0 0
276 2 7.9226535596827450e+00 1.3601346828216380e+01 4.7563598805661362e+00 0 0 0
277 1 9.4079084449972168e+00 1.8569750105018638e+01 6.9640623034802731e+00 0 0 0
278 2 9.1776471449167651e+00 1.9165786951464085e+01 6.2374802319176874e+00 0 0 0
279 2 8.6983226005967627e+00 1.8674322184501811e+01 7.6715757054309615e+00 0 0 0
283 1 7.7302151578136939e+00 1.5483301687702472e+01 1.9222673746729664e+00 0 0 0
284 2 7.7807541449545266e+00 1.6055247692504764e+01 2.7320607256726808e+00 0 0 0
285 2 7.6274415356516121e+00 1.4582216766472646e+01 2.2195429021089081e+00 0 0 0
218 2 3.7403977600542988e+00 1.5778217554630945e+01 5.2028661195288195e-01 0 0 0
325 1 2.5627071404481860e+00 2.6848817415750585e+00 7.0514426717137049e+00 0 0 0
326 2 2.5643336167302482e+00 3.6658956320923002e+00 6.8741574520236455e+00 0 0 0
327 2 3.5536879560865975e+00 2.4672724806330413e+00 6.9547572377585558e+00 0 0 0
329 2 4.5394111376090684e+00 6.7122093640751979e-01 1.0164149089796473e+01 0 0 0
337 1 4.0879595087295426e+00 5.5002370253694952e+00 8.3543385411309821e+00 0 0 0
338 2 3.9615657259678363e+00 4.8502603675650633e+00 9.1464568290433430e+00 0 0 0
339 2 4.0792344902081119e+00 6.3712258065652856e+00 8.7572572019801544e+00 0 0 0
343 1 6.8169123369860996e-01 5.8518924153179332e+00 8.7637852095001119e+00 0 0 0
344 2 1.1023039417293670e+00 5.2551841558633088e+00 9.4209001922655720e+00 0 0 0
345 2 1.2928544440970144e+00 5.7459172166947514e+00 8.0356937041845278e+00 0 0 0
355 1 9.4893349061653165e-01 2.1422313780615290e+00 9.0838810884261552e+00 0 0 0
356 2 1.0638092142718905e+00 1.1726918888926763e+00 9.2948819613735534e+00 0 0 0
357 2 1.7247399320778343e+00 2.4266102115641637e+00 8.4779576075462089e+00 0 0 0
358 1 5.3968549311194645e+00 2.2184361544763012e+00 7.0463996210489546e+00 0 0 0
359 2 5.7895844674368613e+00 3.1069684595390208e+00 6.9272082511801614e+00 0 0 0
360 2 5.6673983537653632e+00 1.6476796472651831e+00 6.3376728120326247e+00 0 0 0
361 1 9.2530867457016512e+00 2.7359214134163632e+00 6.7261610419983100e+00 0 0 0
362 2 8.8181766342144510e+00 2.0456455141995584e+00 6.1197381641752484e+00 0 0 0
363 2 8.9893361941736778e+00 2.6099184052039712e+00 7.6550681550830859e+00 0 0 0
254 2 8.9401855070908010e+00 1.6167690148405175e+01 9.3208359544617458e-01 0 0 0
379 1 7.0724147558982313e+00 5.9771992873654858e+00 8.5710874128677066e+00 0 0 0
380 2 7.0271255541644058e+00 6.9047597074433744e+00 8.8866961829457054e+00 0 0 0
381 2 6.1430517779828735e+00 5.7252392970859844e+00 8.3072037843140425e+00 0 0 0
391 1 7.6762011515938431e+00 1.9371935360549115e+00 8.8549732622987580e+00 0 0 0
436 1 4.4648864813262259e+00 7.6261729776072782e+00 9.7669829714503891e+00 0 0 0
393 2 6.8130117642359300e+00 2.0730412938779730e+00 8.3897628098400414e+00 0 0 0
675 2 1.7652950418393556e+00 5.6188385822653073e+00 7.3881881744103739e-01 0 0 0
433 1 2.0737857591459194e+00 9.1431459991419946e+00 7.1195190901460146e+00 0 0 0
434 2 1.9631548056145129e+00 1.0097292523110047e+01 6.8521262952178255e+00 0 0 0
435 2 1.3375299419525895e+00 8.8369287041183107e+00 7.7736019571650390e+00 0 0 0
927 2 8.7979945363769385e+00 1.9319173161606908e+01 1.0663888311804632e+00 0 0 0
445 1 4.8098239963313674e+00 1.2056662867551175e+01 8.4710666716954393e+00 0 0 0
446 2 4.7668964601887156e+00 1.2915614950322045e+01 8.9520987715524232e+00 0 0 0
447 2 3.9854187114584518e+00 1.2117464771239755e+01 7.8671908398488117e+00 0 0 0
500 2 7.4219129470006315e+00 9.4314429592694111e+00 9.7480263039971256e+00 0 0 0
479 2 7.9403467018261633e+00 1.1702508442803053e+01 9.8779348471400663e+00 0 0 0
450 2 4.2639786913163888e+00 1.0921818661937136e+01 9.5277435639801737e+00 0 0 0
463 1 3.3986823121364079e-01 8.5132432142144001e+00 9.0413510786474180e+00 0 0 0
139 1 8.8558279573700482e-01 8.9084941328328515e+00 2.0503289118732333e+00 0 0 0
466 1 5.1004077970868975e+00 9.3524657351655058e+00 6.9631418347607053e+00 0 0 0
467 2 5.1856947120356018e+00 8.5647903992685084e+00 6.4008048979083485e+00 0 0 0
468 2 4.1253587088132111e+00 9.4321818719777468e+00 6.9130046844765687e+00 0 0 0
469 1 8.9941146464535606e+00 9.1576793738209261e+00 7.1380085171389798e+00 0 0 0
470 2 9.1011075654541518e+00 1.0107259658689385e+01 6.9110713151502567e+00 0 0 0
471 2 8.2721096669585439e+00 9.1882315531329652e+00 7.8196380012790279e+00 0 0 0
573 2 1.0097758399831402e+00 1.5795133750597190e+01 9.7447434438147056e+00 0 0 0
487 1 7.4758450969271388e+00 1.2445711707192430e+01 8.5697242980309873e+00 0 0 0
488 2 8.0564534847722431e+00 1.2282804105107337e+01 7.8138394974060628e+00 0 0 0
489 2 6.5684682902583535e+00 1.2192720767391314e+01 8.2530857444929691e+00 0 0 0
499 1 7.0991488404854275e+00 8.9338204386578912e+00 9.0021994750683909e+00 0 0 0
253 1 9.5261600538847322e+00 1.6642916387632113e+01 2.6384155493415712e-01 0 0 0
501 2 6.2044221738306380e+00 9.2925111928730235e+00 8.8060604184912226e+00 0 0 0
451 1 8.3850961440459215e-01 1.2298495320757999e+01 8.8504115483197001e+00 0 0 0
392 2 7.5935828653934436e+00 2.4799960556693317e+00 9.6487000025005525e+00 0 0 0
541 1 2.8898973163390327e+00 1.5822739796830470e+01 7.2364248912340701e+00 0 0 0
542 2 2.2626073573891903e+00 1.5691868500622803e+01 8.0091733774850802e+00 0 0 0
543 2 2.5524765164065051e+00 1.5252583997037597e+01 6.5044248926135149e+00 0 0 0
553 1 4.7813591833723441e+00 1.9153080675838069e+01 9.1420833380603934e+00 0 0 0
554 2 5.7276082357692708e+00 1.9143697512223156e+01 8.9401978640063540e+00 0 0 0
555 2 4.3098644950431888e+00 1.9108566493059790e+01 8.2864689789583732e+00 0 0 0
150 2 9.7604953039647633e+00 7.6517157874937505e+00 3.9087978129548944e+00 0 0 0
559 1 1.2975409536427378e+00 1.9155351677406994e+01 9.0793710936911083e+00 0 0 0
560 2 2.0959728947847500e+00 1.9031539294433816e+01 8.6079932067914928e+00 0 0 0
561 2 1.3751224330650598e+00 1.8459145366720417e+01 9.7688240849128523e+00 0 0 0
250 1 5.4887538730143799e+00 1.5776338371526755e+01 2.8130205661979096e-01 0 0 0
574 1 5.5203613081540892e+00 1.5460901003627864e+01 7.1732549998422819e+00 0 0 0
575 2 6.0050678799610004e+00 1.5505503280203442e+01 8.0420033871439216e+00 0 0 0
576 2 4.5535646962485945e+00 1.5359952700271599e+01 7.3816841826408695e+00 0 0 0
11 2 1.2688554968680934e+00 4.3251623357819566e+00 4.5441771434404004e+00 0 0 0
578 2 9.1573330683048866e+00 1.6869278771932507e+01 6.7413263388000031e+00 0 0 0
579 2 8.6713293545303021e+00 1.5713355046932403e+01 7.5842619902266311e+00 0 0 0
577 1 9.1656011323623172e+00 1.5880320929794648e+01 6.7619423960641223e+00 0 0 0
595 1 7.5665604908548048e+00 1.8912940686350211e+01 8.8857740467406057e+00 0 0 0
596 2 7.4122396708511120e+00 1.5334925614365097e-01 8.9697244773553955e+00 0 0 0
597 2 7.6621322438670623e+00 1.8560150678648242e+01 9.8015603019712643e+00 0 0 0
607 1 7.5852724860185896e+00 1.5435679803119688e+01 8.9878317133815617e+00 0 0 0
608 2 7.6081267180716825e+00 1.4494729335053716e+01 9.1374466361690931e+00 0 0 0
111 2 1.8790799609015225e+00 9.3842107331741857e+00 5.2228257904159003e-01 0 0 0
444 2 1.0159539650623985e+00 1.1264858049612393e+01 1.0066916322835080e+01 0 0 0
34 1 5.4727332852511781e+00 2.6269878685375621e+00 5.5077501487674541e-01 0 0 0
711 2 8.6235017362261068e+00 5.4343303494235951e+00 7.0292746951959728e-01 0 0 0
448 1 4.0528914898993218e+00 1.0156903134640208e+01 1.0160045268484271e+01 0 0 0
37 1 9.0914323242403139e+00 2.5086084588232382e+00 4.8074319905677765e-01 0 0 0
335 2 7.6462326777430534e-01 3.4045899348778614e+00 1.0330573521870665e+01 0 0 0
557 2 4.3304365410704415e+00 1.6080303941226060e+01 1.0327107618347151e+01 0 0 0
143 2 4.2122526605283674e+00 9.3531946375159745e+00 3.4756066794402052e-01 0 0 0
38 2 1.0007539414816552e+01 2.2937731863536523e+00 6.6104084613785652e-01 0 0 0
587 2 8.8894240103702664e+00 1.7307605845759870e+01 1.1192308538988165e+01 0 0 0
39 2 8.5943438629509448e+00 2.0503822330320349e+00 1.9917196878594122e+01 0 0 0
895 1 9.6574192595989961e-01 1.5687386159206810e+01 1.5794468329538160e+01 0 0 0
370 1 7.6199368157994671e+00 3.8967896855247566e+00 1.0466673776327616e+01 0 0 0
474 2 9.8943192475556554e+00 8.0083513255999854e+00 1.0880634379727436e+01 0 0 0
336 2 3.2269589835839346e-01 4.3908492059194186e+00 1.1494705850908414e+01 0 0 0
331 1 5.9336443678740034e+00 4.5978306981276882e+00 1.2414905028954617e+01 0 0 0
332 2 6.6322856162488888e+00 4.2251199410777893e+00 1.1866007305575341e+01 0 0 0
333 2 5.1385337390177614e+00 4.5521553949492350e+00 1.1832556706269683e+01 0 0 0
901 1 9.4042225592859054e+00 1.5654035925782706e+01 1.3746068731187869e+01 0 0 0
883 1 1.1142233061734736e+00 1.9140851909296430e+01 1.5812137065539506e+01 0 0 0
552 2 2.7882173014192806e+00 1.6961305784203031e+01 1.1069105515785237e+01 0 0 0
346 1 2.2561853080617049e+00 1.0093579323931494e+00 1.2067085554816190e+01 0 0 0
347 2 3.1209572313247098e+00 1.0655204330781185e+00 1.1622800736978736e+01 0 0 0
348 2 2.2902231954714329e+00 1.7380080659291961e+00 1.2709445863953574e+01 0 0 0
349 1 2.5518130210954744e+00 5.4449287848104628e+00 1.3491161389686035e+01 0 0 0
350 2 2.5195984387566250e+00 5.8466595168685167e+00 1.2597881757675879e+01 0 0 0
351 2 2.5883005332542623e+00 4.4576369689523041e+00 1.3519624255121059e+01 0 0 0
352 1 6.3269453328010865e+00 1.0339539945545191e+00 1.2612064836197506e+01 0 0 0
353 2 7.3022025864176214e+00 1.2383757109067357e+00 1.2561351192309949e+01 0 0 0
354 2 6.1561377175018857e+00 9.5357322949927853e-02 1.2947960271915358e+01 0 1 0
599 2 9.5719923105042000e+00 1.4531871220166659e+01 1.0814075543226625e+01 0 0 0
382 1 9.1175530766313919e+00 1.0844706383493348e+00 1.2200514607805435e+01 0 0 0
383 2 9.1552777045400617e+00 1.7126086617982714e-01 1.2551056358022622e+01 0 0 0
144 2 5.4148656433782314e+00 9.6856547501025485e+00 2.0123138404464996e+01 0 0 0
385 1 9.2804929517557984e+00 5.0940601292656433e+00 1.3379959805303365e+01 0 0 0
386 2 9.2968426353055147e+00 4.0828688761386562e+00 1.3528434137543185e+01 0 0 0
387 2 8.5648226580119733e+00 5.4399287484699199e+00 1.4037464081646393e+01 0 0 0
371 2 8.5656100363954657e+00 4.0388856861420646e+00 1.0691481973988965e+01 0 0 0
876 2 1.0906512655513372e+00 1.7249289392292571e+01 1.8408315511361600e+01 0 0 0
439 1 5.7748286524401484e+00 1.0945229276523662e+01 1.2276059485394224e+01 0 0 0
440 2 5.8458619310437765e+00 1.1883586014693403e+01 1.2204425754200205e+01 0 0 0
441 2 5.1485037896658907e+00 1.0580589550521667e+01 1.1573941722446349e+01 0 0 0
889 1 2.8464468060125312e+00 1.8455670699764312e+01 2.0448882441158805e+01 0 0 0
454 1 2.0486326507258488e+00 7.3318418632117988e+00 1.1625951185854120e+01 0 0 0
455 2 2.6801575055907230e+00 7.4688487091334954e+00 1.0880797153089206e+01 0 0 0
456 2 2.2551614238717077e+00 8.1662988807986974e+00 1.2219714097372071e+01 0 0 0
457 1 2.4284650627873567e+00 1.2162162281658153e+01 1.3715959026821293e+01 0 0 0
458 2 3.3362443666403041e+00 1.2171387647975305e+01 1.4200102380086442e+01 0 0 0
459 2 1.7785118365134021e+00 1.2507158871222849e+01 1.4371731386260056e+01 0 0 0
460 1 5.7278834742313771e+00 7.1897275224117632e+00 1.2243801111261948e+01 0 0 0
461 2 5.8580431576261098e+00 6.2992873235250197e+00 1.2622559141116955e+01 0 0 0
462 2 6.6698001288589337e+00 7.2974797442390145e+00 1.1968374012638259e+01 0 0 0
709 1 9.1767499849313499e+00 5.1196262828639512e+00 2.0360276200470921e+01 0 0 0
480 2 7.4968127720474982e+00 1.1024651164689631e+01 1.1265243143370215e+01 0 0 0
438 2 5.0316466769851775e+00 7.5338532916816749e+00 1.0541183874971408e+01 0 0 0
490 1 8.6539034120018012e+00 7.3059737661015882e+00 1.1905380262310267e+01 0 0 0
491 2 9.0642014830390991e+00 6.5348869936949852e+00 1.2327596859555035e+01 0 0 0
492 2 8.7549307111235422e+00 8.0115931765246096e+00 1.2609994094015871e+01 0 0 0
493 1 9.4920081074530458e+00 1.1847320925289344e+01 1.3329999784397868e+01 0 0 0
494 2 8.7507949758719654e+00 1.2068975804295043e+01 1.3987682946799088e+01 0 0 0
495 2 9.2492811309145324e+00 1.2477423683082696e+01 1.2569972922438371e+01 0 0 0
142 1 5.0038880685186982e+00 8.9429035546213917e+00 2.0525598660455117e+01 0 0 -1
442 1 1.2857446681835722e+00 1.0492872255477115e+01 1.0627990331774470e+01 0 0 0
905 2 9.7805961004462034e+00 1.4367113671650268e+01 1.7715205017813361e+01 0 0 0
674 2 2.3159699482636702e+00 4.3990622190285587e+00 2.0271064349015859e+01 0 0 0
328 1 4.4381704861178521e+00 1.4905258168099356e+00 1.0713796478916398e+01 0 0 0
897 2 1.3854628817988612e+00 1.6234193077296361e+01 1.6509213985089708e+01 0 0 0
547 1 6.0846812832393047e+00 1.7833949317866963e+01 1.2770680831926216e+01 0 0 0
548 2 5.4386647366395762e+00 1.7636303140490497e+01 1.2029281461273802e+01 0 0 0
549 2 5.8686233845004852e+00 1.7140444734715565e+01 1.3376812154155003e+01 0 0 0
932 2 7.6593514911192493e+00 1.5367786475652185e+01 1.6542613452012230e+01 0 0 0
562 1 2.2542819277647679e+00 1.4081576728942640e+01 1.1680537941744692e+01 0 0 0
563 2 1.2910607292866947e+00 1.4010273464928582e+01 1.1456443255848333e+01 0 0 0
564 2 2.4395345031873630e+00 1.3454019725036460e+01 1.2446950761522135e+01 0 0 0
565 1 2.6207354960851772e+00 1.8661755183574407e+01 1.3747218594222161e+01 0 0 0
566 2 2.4759236554623674e+00 1.9296444111917580e+01 1.3030960482395246e+01 0 0 0
567 2 3.4228396936864236e+00 1.9064659709943626e+01 1.4132305971680211e+01 0 0 0
568 1 6.2459423488628696e+00 1.3559760305222254e+01 1.1986646707834737e+01 0 0 0
569 2 7.0867517557884918e+00 1.3895620102406168e+01 1.1613711885230465e+01 0 0 0
570 2 5.8530227062405924e+00 1.4149928751684390e+01 1.2655801545595173e+01 0 0 0
926 2 9.0599650691701079e+00 1.8221181741412938e+01 2.0381067153204125e+01 0 0 0
685 1 9.5970435649459134e+00 2.5490303752830963e+00 1.4226612576383962e+01 0 0 0
588 2 7.5518557292265189e+00 1.7512759169938121e+01 1.1828964812911245e+01 0 0 0
598 1 8.8154297226815075e+00 1.4224785808325970e+01 1.1440266105219948e+01 0 0 0
426 2 5.7763421964830164e-01 5.5430755174917268e-01 1.2152983368697532e+01 0 0 0
600 2 8.9495409293063855e+00 1.4777037422695450e+01 1.2247195672179041e+01 0 0 0
601 1 9.1501038801361236e+00 1.8489312929128335e+01 1.3780188269202975e+01 0 0 0
603 2 8.6330155452406530e+00 1.8946284291720737e+01 1.4463853287734299e+01 0 0 0
334 1 1.0583248039897271e+00 4.2353179979253150e+00 1.0827266324557874e+01 0 0 0
110 2 2.3494184361583330e+00 8.9304508192100620e+00 1.9602810447605542e+01 0 0 0
649 1 2.7392640947084277e+00 2.7405993369573523e+00 1.4141177127984578e+01 0 0 0
650 2 3.6048871553217730e+00 2.9286458931110757e+00 1.4499351447729698e+01 0 0 0
651 2 2.2194282391931273e+00 2.4255959782448531e+00 1.4908606024995544e+01 0 0 0
652 1 4.4719546052499091e+00 1.2025983953984187e+00 1.7187301072618979e+01 0 0 0
653 2 4.3555227749852836e+00 2.1616953698966448e+00 1.7001810193811096e+01 0 0 0
654 2 4.8717200324067580e+00 1.1177049801479555e+00 1.8059027271711265e+01 0 0 0
655 1 5.8104278998175660e+00 4.6247610563122850e+00 1.9283300888550798e+01 0 0 0
656 2 5.7824898162057119e+00 5.6071822733603351e+00 1.9224361160242072e+01 0 0 0
657 2 6.7052246443899808e+00 4.4496828863226376e+00 1.8893434760462018e+01 0 0 0
658 1 1.4403151664827236e+00 4.4458996201365002e+00 1.7362873071006533e+01 0 0 0
659 2 1.2593039914639175e+00 3.5723778417156016e+00 1.6914739946278491e+01 0 0 0
660 2 1.1956325947902549e+00 5.0825461054265917e+00 1.6645436276335719e+01 0 0 0
661 1 4.8989196384002405e+00 5.6988117185585896e+00 1.5024239585832724e+01 0 0 0
662 2 4.7495861917273885e+00 4.8789551778914069e+00 1.5638493941450541e+01 0 0 0
663 2 4.2223901914109785e+00 5.6304571650250042e+00 1.4355522994279527e+01 0 0 0
664 1 4.3378594981326426e+00 4.1409841141065566e+00 1.6970696457279654e+01 0 0 0
665 2 3.3066211770722367e+00 4.2604640809264289e+00 1.7130105866237393e+01 0 0 0
666 2 4.7711626992134590e+00 4.3393211324165293e+00 1.7808993912787102e+01 0 0 0
667 1 8.5800651040618992e-01 6.1759719742453960e+00 1.5450483809298730e+01 0 0 0
668 2 1.2435040378636155e+00 7.0668705781757488e+00 1.5700497334312908e+01 0 0 0
669 2 1.3707917007702444e+00 5.9347039723243959e+00 1.4630444037795765e+01 0 0 0
670 1 2.2367914558690520e+00 7.8299066376270976e-01 1.8714305921780589e+01 0 0 0
671 2 2.3986138174256388e+00 1.6391416733830406e+00 1.9299702171724778e+01 0 0 0
672 2 2.9152032252766511e+00 6.3833795420606743e-01 1.8015592003916183e+01 0 0 0
676 1 5.7102275051733304e+00 5.9833922560945851e-01 1.9135864790307540e+01 0 0 0
677 2 5.3870386193664110e+00 1.1100742016929677e+00 1.9913115106883534e+01 0 0 0
678 2 6.6490189853847230e+00 8.7255741077733973e-01 1.8956319815018979e+01 0 0 0
782 2 2.4899218172904796e+00 1.1439172986736800e+01 2.0092137388852606e+01 0 0 0
36 2 5.5109993276708371e+00 3.2808310526797086e+00 2.0396144930295662e+01 0 0 0
681 2 9.3153169640302380e-01 1.3025777670218750e+00 1.6332053622603507e+01 0 0 0
682 1 5.3909610400738925e+00 2.8724701339689913e+00 1.4475029596833259e+01 0 0 0
683 2 5.7503068636660348e+00 3.5971188692625762e+00 1.3934437613968527e+01 0 0 0
684 2 5.5740871466834845e+00 2.0381305570748305e+00 1.3906844807879390e+01 0 0 0
810 2 9.7920484122523508e+00 1.0861432917543709e+01 1.7374220783859219e+01 0 0 0
687 2 9.5920014882658631e+00 1.8395828299506127e+00 1.3560436788536004e+01 0 0 0
694 1 8.0643500354244662e+00 4.1738638426617545e+00 1.7423846286338208e+01 0 0 0
695 2 9.0427567891559910e+00 4.0154967493118985e+00 1.7569747395972271e+01 0 0 0
696 2 7.7451781780501801e+00 3.3514797931434783e+00 1.7035441169956695e+01 0 0 0
703 1 7.5126704081164917e+00 5.8856962355049625e+00 1.5484268745526551e+01 0 0 0
704 2 7.6761846987435218e+00 5.4322129932204373e+00 1.6342947804387578e+01 0 0 0
705 2 6.5746955294269798e+00 5.7373260017248491e+00 1.5140406626618240e+01 0 0 0
706 1 8.3462984585468512e+00 9.0092128779324077e-01 1.8576929221278814e+01 0 0 0
707 2 9.0744742984800340e+00 1.0232604191486387e+00 1.7926608573383948e+01 0 0 0
708 2 8.6580536696073622e+00 1.6424999570565349e-01 1.9172283068003647e+01 0 0 0
715 1 7.6746335033088551e+00 2.0756495377191904e+00 1.5977885889234102e+01 0 0 0
716 2 7.0305052274757429e+00 2.4335450211252168e+00 1.5354306709530070e+01 0 0 0
717 2 8.5387607784338098e+00 2.2253369764498476e+00 1.5572397536304019e+01 0 0 0
749 2 3.4375831899058923e-01 7.0965000073455942e-01 1.8816450503202294e+01 0 0 0
330 2 5.2603754642164615e+00 1.4767573003633994e+00 1.1217622003955688e+01 0 0 0
757 1 2.3825491596662363e+00 9.4637690624333271e+00 1.3350022109442680e+01 0 0 0