LAMMPS data file via write_data, version 15 Apr 2020, timestep = 0

1944 atoms
2 atom types

-1.8161555416750375e-01 4.0163720554166410e+01 xlo xhi
0.0000000000000000e+00 1.9724989566003266e+01 ylo yhi
0.0000000000000000e+00 2.0368099289115698e+01 zlo zhi
-2.5540779864527963e-02 -1.0418523509869715e-02 2.2069993569520108e-02 xy xz yz

Masses

1 16
2 2

Atoms # atomic

284 2 1.1385253918630580e+01 8.0636414025069847e+00 4.9365527212570512e+00 0 0 0
1828 1 1.4938042325201584e+01 1.3314438693415703e+01 8.9510203456247179e+00 0 0 0
917 2 7.8070410754539434e+00 3.9760627174354233e+00 6.4898228521603460e+00 0 0 1
905 2 1.4921273242785352e+01 2.1692923535893940e-01 6.8595604246012813e+00 0 0 0
497 2 7.7996247857556664e+00 2.5829946340653237e-01 4.2454038148585882e-01 0 0 0
750 2 1.8914869686474081e+01 7.2340095721281727e+00 2.4263186251092770e+00 0 0 1
1359 2 1.4579057617228610e+01 1.3185888949153421e+01 2.5600379218205895e+00 0 0 0
728 2 1.2529057671373646e+01 1.8754358933191249e+01 4.7924970596950240e+00 0 -1 0
1616 2 2.4550712908798622e+00 1.7212243674994376e+00 9.9781874450630443e+00 0 1 0
1783 1 2.2237865639472689e+00 2.2412806346766079e+00 6.3918422436458755e+00 0 1 0
672 2 2.7997512474859754e+00 1.3874151538671660e+01 7.8067985679558447e+00 0 -1 0
535 1 1.3874496270244229e+01 1.6647081073387870e+01 3.5012519521617218e+00 0 0 0
1591 1 6.0141221469748229e+00 3.8775304002787725e+00 2.3259536558158462e+00 0 0 1
98 2 5.4266075983411899e-01 1.8801793872446996e+01 9.8307441245565048e+00 0 -1 -1
1804 1 4.5760299067016366e+00 1.8568300140695552e+01 5.6280320096046283e+00 0 0 1
1160 2 1.5633236783131082e+01 4.2022229900961283e-01 8.1835694360448319e-01 0 1 0
1135 1 1.6346193337938406e+01 8.2997472298751696e+00 6.5843593383183805e+00 0 1 0
63 2 1.5773820694413010e+00 7.1951439967756352e+00 4.3114636190862896e+00 0 0 0
1593 2 6.7324113140887718e+00 4.5123798951781389e+00 2.4315165837914474e+00 0 0 1
254 2 4.5183587740513964e+00 1.5889684940443246e+01 4.2738976623569185e+00 0 0 1
944 2 1.6210305270259695e+01 8.3614034034939113e+00 4.5229478431832542e+00 0 0 1
1606 1 9.5584207173276337e+00 4.3843057749457275e+00 1.1568256738940623e+00 0 -1 0
573 2 1.9626447131629146e+01 1.6755609930453112e+01 2.7837906868328042e+00 0 0 0
1088 2 1.1720624838082216e+00 1.0019638625273345e+01 8.4764429773260002e+00 0 1 0
5 2 1.8941886789445492e+00 1.1629785210906100e+01 8.8135495473140979e-01 0 0 0
1173 2 1.4343469431497246e+01 2.7723773345227474e+00 6.5372700756209934e+00 0 1 0
1112 2 6.4236555215172864e-01 1.7601076301363001e+01 3.7099509007500999e+00 0 0 0
97 1 3.2788962410250666e-01 1.9313237163378425e+01 8.9959993712692246e+00 0 -1 -1
939 2 4.5660514089998818e+00 8.2332517162499865e+00 4.8750931253189052e+00 0 0 0
749 2 1.7661160873444533e+01 7.0223669497798520e+00 1.4751870717418567e+00 0 0 1
489 2 7.6626475323142280e+00 1.4146898654231752e+01 8.5881897210900657e+00 0 0 -1
245 2 1.0461551656023456e+01 1.3115030400848626e+01 5.2368929290000903e+00 0 0 0
1082 2 1.2613882071175118e+01 1.6512145755164315e+01 6.6605111475850647e+00 0 0 0
20 2 4.5125870606262397e-01 4.4628387703838044e+00 2.3763764966044953e+00 1 0 0
1111 1 1.1957332466847621e+00 1.8295574082097460e+01 4.1464431440035376e+00 0 0 0
58 1 5.5177041184549935e-01 7.2185048097469906e+00 9.4635911030203381e+00 0 0 -1
1370 2 7.7975509274007573e+00 1.6236142900220997e+01 5.1422146931161883e-01 0 0 1
1353 2 7.5053361481207652e+00 6.5578828668535936e+00 3.6235146727834198e+00 0 0 1
1187 2 5.1005033889749312e+00 1.4885467580305063e+01 5.7893103608740555e+00 0 0 0
912 2 3.6749745968420822e+00 1.5375319230168612e+01 9.4425691474211426e+00 0 0 0
686 2 1.0373952282727934e+01 1.0228387189072366e+01 5.6952425387650116e+00 0 0 0
907 1 1.5595737076456913e+01 1.6121662326641083e+01 1.4997598615324190e+00 0 0 0
906 2 1.5460954170197661e+01 1.8561229294601180e+01 7.3278670541620565e+00 0 -1 0
324 2 1.1550301451266831e+01 1.5527612868972666e+01 2.3814854879026557e+00 0 0 0
92 2 1.2451908636982898e+01 8.4428994892640166e+00 6.8247756439540774e+00 0 0 -1
1306 1 1.1337137032847323e+01 1.7789501159278827e+00 9.4748796144070404e+00 0 0 1
1155 2 1.0783258678694168e+01 1.1815548083700076e+01 1.5343451056336772e+00 0 1 0
1742 2 7.5699920495928756e+00 1.3736697203273204e+01 5.5002537109220970e+00 0 -1 0
1403 2 1.1215241545756054e+01 1.0056996096635389e+01 8.6218130116798690e+00 0 -1 0
719 2 4.7105511554933841e+00 5.0355326091879569e+00 4.7631315051334546e+00 0 0 -1
1803 2 9.4358102720087604e+00 1.7489422087153027e+01 6.5021408402043059e+00 0 0 1
1101 2 1.1876403403612555e+01 5.8010399449141543e+00 9.0219668482122124e+00 0 1 0
898 1 2.1532014497105911e+00 1.4527941724203529e+01 1.5393551293206305e+00 0 -1 0
711 2 1.8212286962351111e+01 5.7625712829052791e+00 6.2440201002934348e+00 0 0 0
1818 2 1.4175860091975927e+01 5.0119092086406214e-01 4.4049623748994504e+00 0 2 1
1583 2 1.2724521474977259e+01 4.7855597353113239e+00 3.8056602306858700e+00 0 0 0
1764 2 4.1152873972711648e+00 6.7402770299219590e+00 3.2994461006283031e+00 0 1 0
1561 1 1.3581365518363044e+00 9.5066773019474269e+00 6.8207176039879336e+00 0 1 0
1832 2 1.6132268392815625e+01 1.5016699984783649e+01 5.3893251230282528e+00 0 -1 0
496 1 8.5767912217524351e+00 4.3834410469631618e-01 1.0425295918577944e+00 0 0 0
1329 2 2.6267931987323041e+00 5.3197345563580010e+00 5.9021858720731279e-01 0 0 1
70 1 5.8260297149572065e+00 1.8738297571708584e+00 5.6232107470154604e+00 0 -1 0
676 1 1.2665484249119691e-01 7.4257406213602790e+00 2.7933327222070075e+00 0 0 0
1183 1 9.7807094175269782e+00 1.7332454076849704e+01 9.5546564082493930e+00 0 -1 0
1581 2 2.0071334894782824e+00 6.8749694306362423e+00 6.2866648804314966e+00 0 0 0
9 2 5.2255670279723765e-01 1.2994194422629697e+01 8.3016999657660975e+00 0 -1 0
1740 2 6.4209606327735367e+00 8.1028022460507838e+00 8.7758802491253984e+00 0 0 0
1383 2 1.8028628436241529e+01 4.4321815453735551e+00 8.6947367389486594e+00 0 0 0
1815 2 1.8517429883528933e+01 1.3151364954832035e+01 3.2881423769724405e-01 0 1 1
292 1 1.8727005680304732e+01 1.3010247072320867e+01 5.5160511167705293e+00 0 -1 -1
1209 2 1.8835176394077092e+01 1.6987715722039280e+01 6.4334402409789684e+00 0 0 0
1732 1 1.6766195437119443e+01 4.7749169422134932e+00 5.6135473033473460e+00 0 1 0
83 2 9.1954059921733933e+00 1.3634979268829586e+01 7.2473768972424626e+00 0 0 0
273 2 1.7453905875096218e+01 1.8750684987086984e+01 5.0979639975575930e+00 0 -1 1
1566 2 6.6228111610065721e+00 5.8312802052938730e+00 1.7952916165001587e-01 0 1 1
30 2 4.7522754326429792e+00 1.1250298111674061e+01 9.4666075068482343e+00 0 -1 0
1831 1 1.5764603582843401e+01 1.5897231663122657e+01 5.1078852755212214e+00 0 -1 0
890 2 5.2441066848498599e+00 1.1432089358832314e+01 6.8682239489165458e+00 0 0 0
1303 1 3.7610668590268879e+00 8.9517646049348549e+00 7.8544762185635930e+00 0 -1 1
473 2 5.8506758085323858e+00 1.7569155371978908e+01 8.9416492276388606e+00 0 0 0
1137 2 1.5803767893312459e+01 9.0809390276855950e+00 6.8711279283895497e+00 0 1 0
1305 2 4.1333743771675104e+00 9.9554797428997297e+00 8.0375896491212426e+00 0 -1 1
27 2 8.2368124202107733e+00 1.5560280014429841e+01 4.2345146732644228e+00 0 0 0
1771 1 8.1669807428707095e+00 1.4558342604768994e+01 7.7727694325925589e-01 0 0 0
932 2 1.9156611617867046e+01 7.8747448612513722e+00 5.8111356996834553e+00 0 0 0
1757 2 8.0727095895190857e+00 8.1073831779206473e-01 5.8248658325104685e+00 0 1 1
482 2 1.2810843752927862e+01 1.4643933578254474e+01 8.4412358510052676e-01 0 0 0
226 1 2.6062876723226636e-01 1.2934577667970386e+01 3.0599421388386849e+00 0 0 0
38 2 7.3643916293949099e+00 1.2586588128401330e+00 3.7684709183644829e+00 0 0 -1
1816 1 1.4956677739626741e+01 1.0932460220407596e+00 4.2809970442394558e+00 0 2 1
14 2 1.3230968474101715e+01 1.0377695666092700e+01 3.2022792218090417e+00 0 0 0
959 2 1.7252229052714082e+01 8.0403703759794425e+00 8.1440038386602946e+00 0 1 0
1086 2 1.3177575461781634e+01 1.8914198468690845e+01 9.6713205427842253e-01 0 0 0
1805 2 4.1358722132616075e+00 1.9318429988937254e+01 5.2258869729826563e+00 0 0 1
1579 1 1.6996739647000763e+00 6.3266516624231830e+00 7.0218050544942798e+00 0 0 0
537 2 1.3025115160114193e+01 1.6210750962671430e+01 3.6397890641526924e+00 0 0 0
1186 1 5.6588688292629996e+00 1.4214837730703573e+01 6.1835523770908463e+00 0 0 0
657 2 1.2591447691801758e+01 1.3545385642991279e+01 5.2778158471492622e+00 0 0 -1
219 2 1.5781522828633550e+01 1.3558862668344588e+01 7.4546517120723745e+00 0 0 0
931 1 1.9225742734877198e+01 8.6384568778734305e+00 5.1853365215941967e+00 0 0 0
957 2 1.6037790376375959e+01 1.1541820772423684e+01 3.2392238101672457e+00 0 0 0
1402 1 1.0519787783241807e+01 9.3411669732031264e+00 8.8331105096920961e+00 0 -1 0
345 2 1.9932152537119766e+01 1.3202930684303592e+01 3.1431047939386878e+00 0 0 0
241 1 3.2692942850961435e+00 1.8628100634949870e+01 1.9641186781844850e+00 0 0 -1
1735 1 8.2437152561712441e+00 1.1276133171229311e+01 3.1720158900725831e-01 0 0 1
1539 2 2.1905596535410918e+00 9.2101115415145873e+00 1.3671289101499609e+00 0 0 0
683 2 8.4367952394660488e+00 7.9033072856009099e+00 7.2127549694483459e+00 0 -1 0
1739 2 5.9324000765031508e+00 6.8914993580297885e+00 9.5492905174091014e+00 0 0 0
713 2 5.5416710217689173e+00 2.0812281660168632e+00 1.2983937971444688e+00 0 0 1
1311 2 1.8265526562778831e+01 1.7283334441452034e+01 9.1419112043282897e+00 0 0 0
1813 1 1.8154214176086590e+01 1.4004561572987805e+01 5.9011372967723918e-01 0 1 1
1367 2 1.7194793705366923e+01 1.6651922312310379e+01 2.0801347308096685e+00 0 0 1
1814 2 1.8078436408174614e+01 1.3909070465917843e+01 1.5690845985732611e+00 0 1 1
662 2 7.3089087530325809e+00 9.7908550843254609e+00 4.2399089776550811e+00 0 0 1
666 2 4.4693948609758021e+00 1.6651875901160345e+01 6.1714797548512812e-01 0 -1 0
228 2 6.9664381985126234e-01 1.3658116779491175e+01 2.5236451796064867e+00 0 0 0
704 2 1.7394908070395998e+00 1.8369030284534198e+01 5.8755226625029193e+00 0 0 -1
735 2 1.6705458374971595e+01 1.0689013296936407e+01 5.8379513854765159e+00 0 0 0
1563 2 4.9567414525556441e-01 9.0118215610964896e+00 6.6879968117701907e+00 0 1 0
908 2 1.4915772248566013e+01 1.6411334490416166e+01 2.1822443869674513e+00 0 0 0
1749 2 8.6145862778329221e+00 4.8663486457819083e+00 8.8745496568952298e+00 0 0 1
1404 2 9.6465472235401712e+00 9.7639311659548600e+00 8.7620340891428334e+00 0 -1 0
293 2 1.8319110709524324e+01 1.2079957712825118e+01 5.4950681531052918e+00 0 -1 -1
1562 2 1.3362172689159482e+00 1.0318559364809719e+01 6.3964972139223697e+00 0 1 0
1366 1 1.7818489010753783e+01 1.7094953438129842e+01 2.6865406156366909e+00 0 0 1
1513 1 4.2501352137873782e+00 5.6254991132413963e+00 9.4357718258903773e+00 0 0 -1
1782 2 1.6608019249587478e+01 1.5813678440577185e+01 1.0108492377451492e+01 0 0 0
900 2 2.1859455043347125e+00 1.3950649207339119e+01 7.2492961857976335e-01 0 -1 0
1569 2 1.3988791657777924e+01 5.1344208121379760e+00 8.8908407462310564e+00 0 0 1
1207 1 1.8570602178185066e+01 1.7907152951999407e+01 6.2926417163310964e+00 0 0 0
25 1 8.1003099740525215e+00 1.6283623539933860e+01 3.6223091916567247e+00 0 0 0
1618 1 1.7616829015157133e+01 1.4347573273219014e+01 3.4186275825756112e+00 0 -1 0
881 2 1.8415378919718686e+00 1.5868256578541153e+01 8.0252753366279119e+00 0 0 -1
62 2 2.4083796397569417e+00 8.4635126260248796e+00 4.6305538299042004e+00 0 0 0
729 2 1.3763127520171961e+01 1.8044743649017899e+01 4.2605844282617307e+00 0 -1 0
285 2 1.2468593756740097e+01 9.1943450905927939e+00 4.7492544224632844e+00 0 0 0
493 1 4.6554600103331820e+00 2.3093000154601202e+00 7.8956195218404206e+00 0 0 -1
871 1 5.9554573243620030e+00 7.2991064404249553e+00 4.6134661398968002e-01 0 0 0
287 2 1.8117197072795857e+01 1.1249138345087319e+01 2.8018011789488515e+00 0 0 1
685 1 9.6595125105412798e+00 1.0799228881247167e+01 5.9814644717344168e+00 0 0 0
951 2 3.0135632755262964e+00 1.4931544783517228e+00 4.9674894688553071e+00 0 0 0
1615 1 1.8351054036019137e+00 1.6981324630161825e+00 9.1540563719519810e+00 0 1 0
250 1 6.5774212269641010e+00 1.7340265160398765e+00 1.0089242882758112e+01 0 -1 0
448 1 1.5006071821955812e+01 9.7406554915584298e+00 4.6036464264884158e-01 0 1 0
246 2 1.0641631528559431e+01 1.2623639054505633e+01 3.8189508731354951e+00 0 0 0
866 2 1.1187395493997979e+01 3.8963083216255412e-01 4.1203464186226855e+00 0 0 0
1087 1 6.6122715538206422e-01 1.0007225353290808e+01 9.3088375707722761e+00 0 1 0
684 2 9.7306665245071180e+00 7.2244982419495969e+00 7.8793910014961348e+00 0 -1 0
945 2 1.6878236807942617e+01 7.8242510206229694e+00 3.1948510850503951e+00 0 0 1
243 2 2.5526061851945610e+00 1.8552952720539921e+01 2.5807462653599864e+00 0 0 -1
748 1 1.7975539119957858e+01 6.9254428344387247e+00 2.4116313595954817e+00 0 0 1
1344 2 7.4121152639725612e+00 1.2434300002327964e+01 1.7772715591326584e+00 0 -1 1
667 1 3.1735078320596244e-01 1.6013631583202852e+01 2.8188548585900302e+00 0 0 0
1159 1 1.6520991154713133e+01 5.0256174681823473e-01 4.8860263091432116e-01 0 1 0
217 1 1.6232477231197542e+01 1.3542880324429509e+01 6.6202235262385489e+00 0 0 -1
1119 2 2.2708932508390731e+00 1.1621659267756327e+01 4.9802223952957192e+00 0 0 -1
1731 2 4.9425048406737169e+00 1.8383892284448756e+01 2.2196026785716425e+00 0 0 0
703 1 1.6865521550371039e+00 1.8169175083230265e+01 6.8654528393716383e+00 0 0 -1
471 2 5.8520654535914121e+00 1.6441543699946134e+01 2.4611244462362252e+00 0 0 -1
3 2 9.2234581855082309e-01 1.5155820928601747e+01 5.3835708346161324e+00 0 -1 0
943 1 1.6098158630096606e+01 8.3807191856365346e+00 3.5751042099503341e+00 0 0 1
958 1 1.7612120252016489e+01 7.8523519179075381e+00 9.0193531032422545e+00 0 1 0
1531 1 1.0986070391745722e+01 1.8468324725493936e+00 6.7538616456949263e-01 0 0 1
888 2 9.6241122134135786e+00 3.9965466691532523e+00 4.5383257233342036e+00 0 1 0
709 1 1.9111513891896404e+01 6.0672185838459622e+00 6.5661265113645353e+00 0 0 0
690 2 6.0738305864354301e+00 8.2128381907554040e+00 3.2935265830720155e+00 0 -1 0
710 2 1.9190826685853963e+01 5.5059814397522713e+00 7.4309243228111024e+00 0 0 0
96 2 1.5801073092461809e+01 5.8847105779586663e-02 9.2928289488921809e+00 0 1 0
669 2 8.3800056395312228e-01 1.5460406058401411e+01 3.3805687986324386e+00 0 0 0
1772 2 9.0204379118392275e+00 1.4400053273106401e+01 2.7666416851420861e-01 0 0 0
91 1 1.2962314492280704e+01 8.0007876594218423e+00 7.5128102922681892e+00 0 0 -1
671 2 2.3435733844522861e+00 1.2557368452855700e+01 7.0009429930977491e+00 0 -1 0
286 1 1.9045703305460080e+01 1.1466265165111237e+01 2.5553220066479843e+00 0 0 0
533 2 1.8289914542693296e+01 1.4373110433543748e+00 7.0041415814347276e+00 0 2 -1
1381 1 1.8859470573405002e+01 4.8822638423194906e+00 8.7725857325328711e+00 0 0 0
61 1 2.1265087402133434e+00 7.6266425871167929e+00 4.9732164704454958e+00 0 0 0
1620 2 1.6608137709027407e+01 1.4083099755102220e+01 3.3191513597313733e+00 0 -1 0
1776 2 4.9204772456795212e+00 6.3858077372198832e+00 6.5766015564268834e+00 0 0 1
469 1 5.4119589888409854e+00 1.5630859994538582e+01 2.7310061842978524e+00 0 0 -1
689 2 7.4346334091441442e+00 8.4663674988726747e+00 2.5579646719590343e+00 0 -1 0
1833 2 1.6400080340816260e+01 1.6500527183390830e+01 5.5965986777542627e+00 0 -1 0
107 2 1.6380506879224082e+01 1.6585482134684714e+01 8.2085277722175132e+00 0 -1 1
967 1 1.1501331724046270e+01 1.5101282988181213e+01 9.2157415271823897e+00 0 0 0
1149 2 9.5205106811230689e+00 2.6044056269301397e+00 6.4467286948401776e+00 0 0 -1
526 1 7.1600462746280789e+00 8.9204963987970736e+00 7.3064816744528756e+00 0 0 0
668 2 8.8769864392591624e-01 1.6031595175261444e+01 1.9914344176759717e+00 0 0 0
1312 1 4.4314622034923312e-01 7.5468997258687054e-01 2.8374782551242985e+00 0 0 1
1124 2 1.4136910214970998e+01 1.8769486661497520e+01 9.9209356418635082e+00 0 0 0
1313 2 1.8188204172175193e-01 1.4899225528854003e+00 3.3718262286001295e+00 0 0 1
232 1 1.4964774147701723e+01 1.0919173015571774e+01 5.8807355281976390e+00 0 0 -1
933 2 1.8738168345179773e+01 8.2848231882536130e+00 4.3652302644030359e+00 0 0 0
734 2 1.8169580484137796e+01 9.9088169077113157e+00 5.6310220840269336e+00 0 0 0
691 1 1.8361209203387531e+01 1.1142341941774099e+01 8.2904777454462621e+00 0 0 0
1310 2 1.8354363509495400e+01 1.8664915579220899e+01 8.3965851408352119e+00 0 0 0
913 1 1.3879282420668602e+01 1.3435775547237171e+01 1.1970407870618989e+00 0 0 0
255 2 4.1603204163950327e+00 1.7002667442137504e+01 5.2302157018304358e+00 0 0 1
1743 2 8.1914265747444439e+00 1.3348936164371217e+01 4.2831232884225345e+00 0 0 0
661 1 7.3938730828316510e+00 1.0690671906304333e+01 4.6038390518588121e+00 0 0 1
893 2 1.7951250658748567e+01 3.7607321085597758e+00 2.8099546832638587e+00 0 0 0
1537 1 2.5707070579354281e+00 8.2939238350701476e+00 1.3595334371341987e+00 0 0 1
13 1 1.3016960873636480e+01 1.0768980395518700e+01 4.0640668458726292e+00 0 0 0
466 1 1.3995732997471958e+01 2.3247969032046822e+00 2.1066842438767295e+00 0 1 0
288 2 1.9108500594929758e+01 1.1343931665287226e+01 1.5950869217736561e+00 0 0 0
494 2 4.3042589311069657e+00 3.1709549947264852e+00 8.0800458599819613e+00 0 0 -1
452 2 3.3539389151811658e+00 1.0724925609060451e+01 3.3136302136906610e+00 0 0 -1
692 2 1.7906065666056787e+01 1.0992418948078186e+01 7.3962910796227570e+00 0 0 0
918 2 6.3670765122006348e+00 4.7072611575628764e+00 6.2799348534625272e+00 0 0 1
1830 2 1.5499320972560156e+01 1.2604560684613238e+01 9.2400901342310764e+00 0 0 0
955 1 1.6349446601979867e+01 1.0801692232237713e+01 2.6169793588077588e+00 0 0 0
481 1 1.2072866314750234e+01 1.5283044694640642e+01 8.2205897115524795e-01 0 0 0
305 2 -1.5487288918438469e-01 9.3050834395131510e+00 3.4403046684894356e+00 0 0 1
1397 2 1.8500260938348831e+01 1.2559552357721053e+01 9.2338559818957027e+00 0 0 1
926 2 7.3906082451094237e+00 1.6010294236550877e+01 9.9807526252684333e+00 0 0 0
323 2 1.1168450619386835e+01 1.4700189470356614e+01 3.5963088045305023e+00 0 0 -1
1806 2 4.5389021987933189e+00 1.8751374388518094e+01 6.6050644937416729e+00 0 0 1
1390 1 1.2615985833445377e+01 1.1117848193321398e+01 9.3892723993034022e-01 0 0 1
1608 2 1.0248016980417479e+01 3.6988998879843678e+00 9.8758626231337476e-01 0 -1 0
48 2 1.1425199476423650e+01 1.9452528613609726e+01 7.2312874969018415e+00 0 -1 0
244 1 1.1103133946028299e+01 1.2992609122947838e+01 4.5826761484074670e+00 0 0 0
536 2 1.4477580698292281e+01 1.6260959336396681e+01 4.1671377332433126e+00 0 0 0
1304 2 2.8742267550275882e+00 8.9334105803869175e+00 7.5465466625310365e+00 0 -1 1
234 2 1.5195788785643128e+01 1.1863582929984004e+01 5.9962683979403746e+00 0 0 -1
1573 1 1.0606919326974468e+01 6.9570485775156037e+00 1.6595346740581878e+00 0 0 2
738 2 1.4154788253703909e+01 7.9865978565480145e+00 2.9474064183555426e+00 0 0 0
1793 2 7.8337255947804714e+00 1.1835149649213978e+01 8.5234553967138886e+00 0 0 1
270 2 1.9350972728017652e+01 1.4625429872407569e+01 6.1817547873098357e+00 0 0 0
682 1 8.9924844556852221e+00 7.0780619385817536e+00 7.2666362115693737e+00 0 -1 0
777 2 1.9755932559694894e+01 6.7692265615787619e+00 9.4579233203099982e+00 0 0 0
1519 1 1.8221069154568909e+01 9.5480079924418726e-01 2.6697213516261664e+00 0 1 1
1747 1 7.6878593490420046e+00 4.9190411567672250e+00 8.9457326578468574e+00 0 0 1
889 1 5.3619883488509945e+00 1.1563769107973739e+01 5.9138465469739492e+00 0 0 0
687 2 9.5578169722295474e+00 1.0834454481800687e+01 6.9391901194994690e+00 0 0 0
700 1 1.1898056751108406e+01 1.8040279319517172e+01 6.6105525300447687e-01 0 0 -1
1398 2 1.9125171150618801e+01 1.3829189626176770e+01 9.8872313508858127e+00 0 -1 1
495 2 5.0682153509591110e+00 2.2340885556398140e+00 7.0571428337226756e+00 0 0 -1
1315 1 3.2721577069248198e-01 1.5891910440147129e+01 9.1051719050958670e+00 0 -1 0
1371 2 7.1288031444649205e+00 1.7701048183836548e+01 9.3497159970324839e-01 0 0 1
1748 2 7.4997524775672098e+00 5.6817368662991896e+00 8.2930657237094429e+00 0 -1 1
969 2 1.1071623006253198e+01 1.5928521919736513e+01 9.4706360113905923e+00 0 0 0
1547 2 9.5056011854923970e+00 6.3082769180649301e+00 4.3839574212083905e+00 0 0 1
1807 1 1.9394450002787782e+01 1.9275722301906644e+01 3.2345645477390400e-01 0 0 1
272 2 1.6126257056022780e+01 1.9448045631356528e+01 4.4001283707843557e+00 0 -1 1
736 1 1.3277307866757539e+01 8.1432043753123065e+00 2.5184393722892318e+00 0 0 0
1785 2 2.1757408101376363e+00 2.0427332507727538e+00 7.3502241609328154e+00 0 0 0
1352 2 7.4998298611723690e+00 5.1462882992159962e+00 4.3741133494636459e+00 0 0 1
867 2 1.0504247056283553e+01 1.8716612768046065e+01 4.0513383929632978e+00 0 -1 0
1355 2 2.3826402201207837e+00 3.5290458615854963e+00 1.7147694963035189e+00 0 0 2
968 2 1.0873558225591776e+01 1.4662155775450056e+01 8.6266933457812058e+00 0 0 0
1756 1 8.9700626904586436e+00 8.7723803335939410e-01 6.2115039752241472e+00 0 1 1
1574 2 9.8648372257188210e+00 7.6399726168396693e+00 1.6993161387809370e+00 0 0 1
882 2 3.1356797176016897e+00 1.6173316868187165e+01 7.1926524611360971e+00 0 0 -1
1123 1 1.3359894052171638e+01 1.8132587134984931e+01 9.9471924055276606e+00 0 0 0
1565 2 7.8453566844681557e+00 5.0223456961735078e+00 5.8818989496325103e-01 0 1 1
1369 1 7.3992745142402727e+00 1.7065528096360911e+01 1.8077556123264579e-01 0 0 1
15 2 1.2524246401176891e+01 1.1569952333378978e+01 3.8737024028773721e+00 0 0 0
1351 1 7.8482078880207489e+00 5.6190456763074188e+00 3.5783345475053774e+00 0 0 1
1309 1 1.8742377550576684e+01 1.8176579160576530e+01 9.1217316638538808e+00 0 0 0
37 1 7.4686729553690725e+00 1.9151128364493513e+00 3.1116107144757437e+00 0 0 -1
956 2 1.6364691266398772e+01 9.9249204993549789e+00 3.0353007660228206e+00 0 0 0
1185 2 9.6561419519719518e+00 1.7798983424282564e+01 8.7171257544853109e+00 0 -1 0
1113 2 9.4412179132262275e-01 1.9148649019364164e+01 3.6906451424151081e+00 0 0 0
1302 2 4.2634434703275801e+00 5.4779453243208753e-01 8.2655133330891157e+00 0 1 0
470 2 6.0153325666898718e+00 1.4940519323572062e+01 2.7382666302866849e+00 0 0 -1
12 2 3.2463836125298076e+00 1.4515534143019257e+00 1.2361610382607040e+00 0 0 0
896 2 1.0324593969914295e+01 1.5405190314402599e+01 6.2814778083395515e+00 0 0 0
1182 2 1.7232062866896225e+01 2.2118859050847357e+00 8.8213544918556988e+00 0 1 0
718 1 4.3416837121334844e+00 4.9947453130670585e+00 3.8485781475551506e+00 0 0 -1
1099 1 1.1304059962214637e+01 6.6021462657766223e+00 9.1504801994881824e+00 0 1 0
887 2 9.7238551575473284e+00 4.0365578765917318e+00 2.9681224840139122e+00 0 1 0
1081 1 1.3096522107690063e+01 1.5881221906312909e+01 7.2150464990037069e+00 0 0 0
727 1 1.3491789177261714e+01 1.8784556982744242e+01 4.8250992318394070e+00 0 -1 0
1184 2 9.0049095437222100e+00 1.6728008773005133e+01 9.5279700356908119e+00 0 -1 0
257 2 1.2106197727643487e+01 1.2122453587836713e+01 8.9326030529118281e+00 0 0 1
1301 2 3.9689780347221291e+00 1.8862816500444094e+01 9.1351165083701069e+00 0 0 0
1575 2 1.1338752413864810e+01 7.3184470574640814e+00 2.2377531284568271e+00 0 0 1
59 2 9.8022018056734139e-01 6.9724868424814099e+00 8.6179193554958076e+00 0 0 -1
1357 1 1.5176857609010501e+01 1.3109675499154415e+01 3.4057336314542859e+00 0 0 0
256 1 1.1908297989137484e+01 1.1563967424009812e+01 8.1722756651563060e+00 0 0 1
1125 2 1.2775045323596661e+01 1.8480743955598957e+01 9.2412994064769300e+00 0 0 0
2 2 2.4055861431618539e+00 1.5581268866101849e+01 4.9849619324156595e+00 0 -1 0
1084 1 1.3968754860153142e+01 1.9421548775751159e+01 1.2849031811337042e+00 0 0 0
253 1 4.0336032647975957e+00 1.6024289662660347e+01 5.1091586718980810e+00 0 0 0
1810 1 1.4452039682512744e+01 6.2831173614684888e+00 6.3713689001349065e+00 0 0 1
46 1 1.1374380905723498e+01 1.9102358058108489e+01 8.1347721467880412e+00 0 -1 0
488 2 6.7264952497323858e+00 1.3681825085815431e+01 7.4062993903998517e+00 0 0 -1
714 2 5.3442169106966109e+00 4.8709333731737292e-01 1.5747291148116003e+00 0 1 1
39 2 8.2374947979472477e+00 2.4179735430338645e+00 3.3780059804401832e+00 0 0 -1
446 2 9.4667654724720727e+00 1.8900443053946596e+01 2.0107774094487350e+00 0 -1 -1
1734 2 1.6060805955719900e+01 5.4020271496719090e+00 5.7734408306440423e+00 0 1 0
705 2 2.5654153644195388e+00 1.8518183090844968e+01 7.2078709343832452e+00 0 0 -1
100 1 1.9133817867418536e+01 2.4680785819042441e+00 5.7482138360496702e+00 0 0 0
886 1 9.8154850981629078e+00 3.4671829103934613e+00 3.7328232496214317e+00 0 1 0
880 1 2.7415589159642235e+00 1.5596080545730176e+01 7.9211115202187106e+00 0 0 -1
688 1 7.0447393902667246e+00 8.1679619395820460e+00 3.3906227710133221e+00 0 -1 0
1171 1 1.5286342834681417e+01 2.5809693656676131e+00 6.5714684952963482e+00 0 1 0
655 1 1.3535856858942349e+01 1.3724882733647615e+01 5.5168217236547230e+00 0 0 -1
66 2 1.2355034981744783e+01 3.8366178067461081e+00 6.0919753442737772e+00 0 0 -1
894 2 1.7346164039956697e+01 2.4909953438993200e+00 3.1936351636779134e+00 0 0 0
1339 1 7.2793881665293689e+00 1.8998403185886211e+01 4.1616647735143983e+00 0 0 1
102 2 1.8740956937847365e+01 3.2425071533471619e+00 6.0968896907808121e+00 0 1 0
467 2 1.4644812821853915e+01 2.0238759037939724e+00 2.8559924750958388e+00 0 1 0
1208 2 1.9467690883457472e+01 1.8335889072566108e+01 6.1368122641989178e+00 0 0 0
1153 1 1.0258449192073906e+01 1.2144104066389641e+01 2.2496176526795599e+00 0 1 0
1801 1 8.6304399003450243e+00 1.7898074106942541e+01 6.9138292702648316e+00 0 0 1
1580 2 2.4880643350089580e+00 6.0285085273022432e+00 7.4621350948966745e+00 0 0 0
1391 2 1.3200412959603318e+01 1.0388818394614100e+01 7.4013363798546328e-01 0 1 1
949 1 3.6381120627699906e+00 1.0202940931410405e+00 4.3935020025791740e+00 0 0 0
1085 2 1.3826515136256800e+01 6.5776484780530242e-01 1.4156345064425770e+00 0 1 0
65 2 1.2935145453282002e+01 3.8035839440728783e+00 7.5009977621374686e+00 0 0 -1
1775 2 4.7730820094995750e+00 5.4369905935531007e+00 7.6950214756725428e+00 0 0 1
1154 2 9.4095276374261942e+00 1.1694972558572335e+01 2.0773236352012270e+00 0 1 0
737 2 1.3510183048608432e+01 8.2588597874492624e+00 1.5881550674646439e+00 0 0 0
1368 2 1.7233498985538869e+01 1.7732611774174078e+01 3.2225635675626760e+00 0 0 1
218 2 1.7131531245155273e+01 1.3297322604202741e+01 6.7353900208555562e+00 0 0 0
891 2 6.1619724625183956e+00 1.1133236357698676e+01 5.5617410655007609e+00 0 0 0
904 1 1.5500458264739631e+01 1.9554566332939725e+01 7.5021468590684330e+00 0 -1 0
897 2 1.0929593225452585e+01 1.6069902838068565e+01 4.9399918595196857e+00 1 0 0
1163 2 1.5037810791837675e+01 3.3911934409475770e+00 1.0594959791977669e+00 0 1 1
1396 1 1.8287012181055495e+01 1.3458294904146015e+01 9.5796214468409868e+00 0 -1 1
1741 1 8.3678538172196841e+00 1.3945604330830115e+01 5.0171637602451291e+00 0 0 0
1758 2 9.6008169833104038e+00 4.0130139331369935e-01 5.5993884919471206e+00 0 1 1
108 2 1.5047711961533272e+01 1.6471913989062998e+01 7.3088619197876916e+00 0 -1 1
1100 2 1.1785394651493005e+01 7.1691008374357512e+00 8.5218631642230029e+00 0 0 0
1780 1 1.7496913633028971e+01 1.5996823835014791e+01 9.6803813582964331e+00 0 0 0
1578 2 1.5970955503609055e+01 8.3702479890546524e+00 1.9761371465589722e-01 0 0 1
1595 2 1.2144400939206015e+01 5.5956155909859708e+00 1.7054145515173462e+00 0 1 1
1617 2 1.2511166189522174e+00 9.2773555135116081e-01 9.2015227184519723e+00 0 1 0
1729 1 5.8748227293216759e+00 1.8582011485943333e+01 2.0059263171679622e+00 0 0 0
1172 2 1.5713300922903652e+01 3.2991802926558735e+00 6.1276876323813481e+00 0 0 0
1520 2 1.7868811733010869e+01 7.6352415787831884e-01 1.7914758461174927e+00 0 1 1
84 2 1.0654837094637401e+01 1.2983090906410576e+01 7.4073830151750126e+00 0 0 0
1 1 1.7135212843229941e+00 1.4900694562793248e+01 4.8810301406579359e+00 0 -1 -1
1774 1 4.7192513003243404e+00 5.4512160123529343e+00 6.6964378086261682e+00 0 0 1
1300 1 4.0871381492144927e+00 1.9341755369597404e+01 8.2447059959276654e+00 0 0 0
1730 2 6.4153554897609038e+00 1.8706059154100068e+01 2.8164964845232863e+00 0 0 0
28 1 4.5485687991051513e+00 1.1321210132202770e+01 8.4888628540279623e+00 0 -1 0
650 2 1.5731857458118531e+01 5.6342121988904887e+00 1.6808720732945615e+00 0 0 0
447 2 1.0823123471359711e+01 1.8043139223734453e+01 2.0714337232796720e+00 0 -1 -1
1148 2 1.0547203385734422e+01 3.8001262286800199e+00 6.9692274224705946e+00 0 0 -1
93 2 1.3458019283927229e+01 8.5177518193723483e+00 8.1704247373735388e+00 0 0 -1
872 2 5.2586742110645712e+00 7.2854338828981806e+00 1.0978103429019759e+00 0 0 0
1147 1 9.7064239279817262e+00 3.5853347624912089e+00 6.5173235460670229e+00 0 0 -1
670 1 2.5794172903580859e+00 1.2882497439497277e+01 7.9423892982892292e+00 0 -1 0
938 2 4.4899106526360963e+00 8.5711467903744936e+00 6.4641825924333922e+00 0 0 0
1521 2 1.7630044840621363e+01 4.1598141075500533e-01 3.2180181116277882e+00 0 1 1
1358 2 1.4695945759637986e+01 1.3423112632945893e+01 4.1729258490951278e+00 0 0 -1
82 1 1.0143504027810764e+01 1.3792198080606262e+01 7.2978541278396234e+00 0 0 0
1340 2 6.8010264170869155e+00 1.8858648318817238e+01 5.0083062876609796e+00 0 0 1
966 2 1.1401837968908382e+01 1.7185895502411235e+00 2.3072683261659646e+00 0 0 0
47 2 1.1202078935185128e+01 2.3379875848081638e-01 8.5965188674550532e+00 0 0 0
1343 2 6.8075374490530818e+00 1.2040803116278996e+01 3.1087739075495162e+00 0 -1 1
472 1 6.7808665911610717e+00 1.7231578764147358e+01 9.0355457608392609e+00 0 0 0
527 2 6.6823678798449020e+00 8.8451160935919599e+00 6.5139693515140085e+00 0 0 0
916 1 7.1280221622309821e+00 4.2101459720781271e+00 5.8788668793875924e+00 0 0 1
964 1 1.1687326941435490e+01 1.8219116130715869e+00 3.2457793932647108e+00 0 0 0
188 2 1.3165952742254905e-01 5.9593349692463864e+00 6.4512978306965856e+00 0 0 0
1341 2 7.6235779794829908e+00 1.8083246139076980e+01 4.0606052131555614e+00 0 0 1
914 2 1.3362731557597952e+01 1.2548644667540875e+01 1.1602315746924101e+00 0 0 0
4 1 1.9546516650501635e+00 1.1141911943225558e+01 1.7071674062520474e+00 0 0 0
1538 2 2.4530060504772404e+00 7.9222881248102963e+00 4.9062977435699329e-01 0 0 0
242 2 2.8983727943542599e+00 1.8489916031077641e+01 1.1122481635687715e+00 0 0 -1
1584 2 1.1706387308480387e+01 5.4667620098138778e+00 4.6977963694070128e+00 0 0 0