LAMMPS data file via write_data, version 15 Apr 2020, timestep = 200000

972 atoms
2 atom types

1.3095224312217013e-01 1.9860100756879579e+01 xlo xhi
8.3523765402764738e-02 1.9907529234597611e+01 ylo yhi
3.4127226734104532e-01 2.0459499732658951e+01 zlo zhi
6.8748657561832030e-02 1.0929450774946267e-01 3.8119645544173048e-02 xy xz yz

Masses

1 16
2 2

Atoms # atomic

4 1 4.1532936810675904e+00 1.4199694834523562e+00 3.2514538511184190e+00 0 0 0
5 2 4.0947130001359646e+00 2.4180775454259451e+00 3.3295684379120694e+00 0 0 0
6 2 3.4137677265814617e+00 1.1629388249329951e+00 3.8732290313805007e+00 0 0 0
7 1 5.9666485605228798e+00 4.9359987024951293e+00 5.9451673890250696e+00 0 0 0
8 2 6.7882690220213204e+00 4.7362357252699310e+00 5.3787602937259518e+00 0 0 0
9 2 5.2732042057925019e+00 4.7598822513352674e+00 5.3015209968633368e+00 0 0 0
10 1 1.4926221887061293e+00 3.9348148756456673e+00 4.0846513415117940e+00 0 0 0
248 2 1.2439613769575966e+00 1.4042767648136607e+01 2.2770455358275639e+00 0 0 0
12 2 1.2540795577336386e+00 4.5144565805882522e+00 3.2702319428796596e+00 0 0 0
13 1 4.5141573784377966e+00 5.9481591152444171e+00 1.9109267817746591e+00 0 0 0
14 2 4.2695027731210287e+00 6.7838368545431598e+00 2.4376227593093147e+00 0 0 0
15 2 3.8222489360740859e+00 5.7861808390177423e+00 1.2813960959376778e+00 0 0 0
16 1 4.1552981339616082e+00 3.9920106788305620e+00 4.0629877329550297e+00 0 0 0
17 2 4.3375355436379310e+00 4.5973504421547391e+00 3.3531428266210099e+00 0 0 0
18 2 3.1674724005074064e+00 3.8736254156588203e+00 4.1983409607437867e+00 0 0 0
711 2 8.2485672425589946e+00 5.3696930191517218e+00 5.0445449302910594e-01 0 0 0
20 2 9.7133448758518282e-01 6.5715407286998113e+00 2.2637800225013249e+00 0 0 0
22 1 2.4088608221105412e+00 9.2162399454157007e-01 5.1275963182260043e+00 0 0 0
23 2 1.4924632928150763e+00 9.9645891354392990e-01 4.8699788157932646e+00 0 0 0
24 2 2.6669776454182323e+00 1.6760909209287329e+00 5.7554426585588212e+00 0 0 0
25 1 2.8509811207729849e+00 5.7383463975119398e+00 7.0920700139991704e+00 0 0 0
26 2 2.6430650728280463e+00 6.2542601865104634e+00 6.2813469171607510e+00 0 0 0
27 2 3.6385382024395834e+00 6.0289847184211283e+00 7.5852987614735374e+00 0 0 0
28 1 5.8063624761455639e+00 3.7373932324954678e-01 5.0117267171787612e+00 0 0 0
29 2 5.4250137188000398e+00 7.3866519160741584e-01 4.1529389765526226e+00 0 0 0
30 2 6.0387861189123084e+00 1.9232415779249088e+01 4.8685540675377945e+00 0 0 0
147 2 8.6277252820163870e+00 8.9689021581991177e+00 1.3144955016001081e+00 0 0 0
34 1 5.4070664505810377e+00 2.3416317155938096e+00 5.9403406714447526e-01 0 0 0
33 2 1.1734060117376242e+00 2.5663648223521922e+00 2.8623849319117838e+00 0 0 0
145 1 9.3817857136155620e+00 9.1222404657735421e+00 6.8678457707737883e-01 0 0 0
35 2 5.8754988204744780e+00 2.2968323439291125e+00 1.4350349318480624e+00 0 0 0
46 1 7.7550404741563685e+00 4.3249222730080303e+00 4.1317103035366740e+00 0 0 0
47 2 8.7480480778608403e+00 4.3923394408154426e+00 4.1367843218387010e+00 0 0 0
48 2 7.5761425883744922e+00 4.9392172690088616e+00 3.3996114441265282e+00 0 0 0
55 1 7.3642390152441637e+00 5.7819173834800068e+00 2.0221327486456895e+00 0 0 0
56 2 7.5956442922766483e+00 6.6893700719456772e+00 2.0886125872032815e+00 0 0 0
57 2 6.3822997665118661e+00 5.8683497517073215e+00 2.0128832276562241e+00 0 0 0
58 1 8.5148807660467210e+00 7.2644018846435865e-01 5.1261049292704888e+00 0 0 0
59 2 9.1772526972485640e+00 6.9753023292015615e-01 4.4038843003969914e+00 0 0 0
60 2 7.6271907599633293e+00 9.1876912414449008e-01 4.7307868756622584e+00 0 0 0
573 2 1.1703478035886501e+00 1.5594508135509713e+01 9.5353420417607424e+00 0 0 0
250 1 5.5016628937123384e+00 1.5504391928311168e+01 6.3517640359584226e-01 0 0 0
63 2 8.6936843259287979e+00 5.6480983968675789e+00 7.4001849876729988e+00 0 0 0
67 1 7.1832164048120735e+00 2.0594188641683644e+00 2.8149074219334893e+00 0 0 0
68 2 7.3895396048560436e+00 2.7840958901572028e+00 3.4917040160293937e+00 0 0 0
69 2 7.9699614979320250e+00 2.1440743889118656e+00 2.2209113924827610e+00 0 0 0
11 2 8.6804409237934421e-01 4.2534133148898574e+00 4.7896772164570667e+00 0 0 0
609 2 7.4901660860086752e+00 1.5660091557508411e+01 9.7229372427223204e+00 0 0 0
328 1 4.2067199484637507e+00 1.5572921451529460e+00 1.0376734505511651e+01 0 0 0
112 1 4.4483962547413380e+00 8.0562268754516957e+00 3.3983137025667358e+00 0 0 0
113 2 5.1131689180399649e+00 8.0136733926376351e+00 4.1114258282554585e+00 0 0 0
114 2 4.1742442054899715e+00 8.9838389486377537e+00 3.3019240697781029e+00 0 0 0
115 1 5.7491241556963848e+00 1.1154514832576975e+01 5.8487215251506326e+00 0 0 0
116 2 5.7916572577273611e+00 1.2094324912183733e+01 5.9993023675538293e+00 0 0 0
117 2 5.3904076727120538e+00 1.0764759206091824e+01 6.7025074931999198e+00 0 0 0
118 1 1.2834328951757432e+00 1.0320914883536005e+01 3.7527340461740901e+00 0 0 0
61 1 9.5189565679697523e+00 5.6528507307948495e+00 6.8448056253529108e+00 0 0 0
120 2 2.2335875323382783e+00 1.0459004619273227e+01 3.9566249256319459e+00 0 0 0
121 1 4.5994146500560236e+00 1.2440387933689339e+01 1.8489924267181963e+00 0 0 0
122 2 5.5873324299132490e+00 1.2510479943306335e+01 1.8077607703170846e+00 0 0 0
123 2 4.2255292701499823e+00 1.2186539576633027e+01 1.0125679658515425e+00 0 0 0
124 1 3.9013032635059304e+00 1.0849599302716287e+01 3.8202134995903130e+00 0 0 0
125 2 4.0043371789577549e+00 1.1463984464800868e+01 3.0132894510160395e+00 0 0 0
126 2 4.5074137807592169e+00 1.1133533770903250e+01 4.5490081669828015e+00 0 0 0
443 2 1.1736449559137676e+00 1.0043551684767539e+01 1.0131560380044636e+01 0 0 0
128 2 1.7912702549836865e+00 1.2353931239551121e+01 9.6456691926538152e-01 0 0 0
129 2 1.4328220523348378e+00 1.1602851610859103e+01 2.2632321419076371e+00 0 0 0
130 1 2.3889835952146674e+00 7.5395904971408054e+00 4.9568054345017627e+00 0 0 0
131 2 2.9790860273242732e+00 7.4820857389844315e+00 4.1896751513228772e+00 0 0 0
132 2 2.6054241483254867e+00 8.2003962590146386e+00 5.6927292011878947e+00 0 0 0
133 1 2.8720354626403295e+00 1.1952816737612363e+01 7.2231220831601659e+00 0 0 0
134 2 2.0259909599617001e+00 1.2132026962032814e+01 7.7379114715528310e+00 0 0 0
135 2 2.9510671569776967e+00 1.2707624658740212e+01 6.6140802321870362e+00 0 0 0
136 1 6.1744298739407588e+00 7.7371947215342747e+00 5.4488396887478086e+00 0 0 0
137 2 6.0707698735266558e+00 6.7704195069848616e+00 5.6894837379035437e+00 0 0 0
138 2 7.1343358924157885e+00 7.7613425162778675e+00 5.1994185457093858e+00 0 0 0
139 1 1.1693743644150505e+00 8.2662532421679309e+00 2.2298086911809243e+00 0 0 0
140 2 1.2545905463746201e+00 8.9494511377846351e+00 2.9652103604616142e+00 0 0 0
31 1 9.8302115897208375e-01 1.8427062230003712e+00 2.1653858934823669e+00 0 0 0
361 1 9.2476374697564196e+00 2.5604984999378706e+00 7.1357866656798921e+00 0 0 0
2 2 3.7483613855216609e+00 1.8995464067294863e+00 4.2205063159690653e-01 0 0 0
154 1 7.7901377977471853e+00 1.0399504091732860e+01 4.0392991685350310e+00 0 0 0
155 2 7.2885839329666897e+00 1.0421573317950779e+01 4.9131231099895967e+00 0 0 0
156 2 8.7279258429424882e+00 1.0595683435203497e+01 4.2332553679887441e+00 0 0 0
163 1 7.2215973714279711e+00 1.2315960260659102e+01 2.1995462051415693e+00 0 0 0
164 2 7.4470401394818557e+00 1.1538620696559100e+01 2.8249741175872876e+00 0 0 0
165 2 7.8004374886489609e+00 1.2259463631105211e+01 1.4355193316488954e+00 0 0 0
166 1 8.7847952713306743e+00 7.5868734486417742e+00 5.1560127103069551e+00 0 0 0
167 2 8.8720423938406388e+00 8.3993923077443213e+00 5.7823144564085638e+00 0 0 0
168 2 9.0053931683414188e+00 6.9102836130930578e+00 5.7801718749089961e+00 0 0 0
297 2 2.8782383201215589e-01 1.7369710510447355e+01 5.0922032113945734e+00 1 0 0
171 2 9.3366011281833785e+00 1.2784711096908225e+01 5.9937480688979932e+00 0 0 0
175 1 7.3939622769182050e+00 8.4882187396147355e+00 2.1798844231585042e+00 0 0 0
176 2 7.5204889976781786e+00 9.0256577568682168e+00 2.9931023213803805e+00 0 0 0
177 2 6.5024619253471680e+00 8.6990143004988383e+00 1.8840283812826644e+00 0 0 0
343 1 9.4313420743457443e-01 6.2018765389415629e+00 8.7961548460431125e+00 0 0 0
572 2 2.4008167215692564e-01 1.5528922920229734e+01 8.2916836558812470e+00 0 0 0
675 2 1.6861722074538348e+00 5.2132933817098595e+00 7.5569158576051243e-01 0 0 0
356 2 1.2414956788948841e+00 1.4607399783442283e+00 8.9613173916180777e+00 0 0 0
3 2 2.3310097300078771e+00 1.8598067840831012e+00 9.1038375011984263e-01 0 0 0
220 1 4.4732997957001821e+00 1.4508593343781698e+01 3.3679343825076842e+00 0 0 0
221 2 4.3645249122170959e+00 1.5425063405896752e+01 3.1682897816209947e+00 0 0 0
222 2 4.3251435127595999e+00 1.3917060327039911e+01 2.5569924180935892e+00 0 0 0
223 1 6.1705323284188021e+00 1.7626342096311795e+01 5.5162564768891036e+00 0 0 0
224 2 7.0194661292636535e+00 1.7469270154611209e+01 4.9985637520687138e+00 0 0 0
225 2 6.2043462193751067e+00 1.7014720976212523e+01 6.2670242870789536e+00 0 0 0
226 1 1.7151177632594519e+00 1.7239380784786960e+01 4.1197760711908158e+00 0 0 0
227 2 1.4665415698729980e+00 1.7914921203595135e+01 3.5039246078614354e+00 0 0 0
228 2 1.5740821460165768e+00 1.6444616420373684e+01 3.6129237511012766e+00 0 0 0
229 1 4.5278607259300978e+00 1.8991651864112548e+01 1.5485172381399799e+00 0 0 0
230 2 4.3123966075499487e+00 1.8539168663071010e+01 2.4328661152435362e+00 0 0 0
231 2 4.2610456123039837e+00 1.1730253168880603e-01 1.6244780208359382e+00 0 0 0
232 1 4.3872743708634134e+00 1.7331367648260439e+01 3.5039277459225153e+00 0 0 0
233 2 3.4896125025552172e+00 1.7164409439442572e+01 3.8704526361791345e+00 0 0 0
234 2 4.9847728040650319e+00 1.7330472407522265e+01 4.2518502615681362e+00 0 0 0
235 1 9.3165062004090760e-01 1.9034002649067489e+01 2.2450261565033829e+00 0 0 0
236 2 1.1416363598752215e+00 1.5593887794678546e-01 2.2571773889594891e+00 0 0 0
237 2 1.4358697026270140e+00 1.8633341755986500e+01 1.4539534427248459e+00 0 0 0
238 1 2.6460276757421846e+00 1.3876388180182749e+01 5.3841166179882691e+00 0 0 0
239 2 3.0367409745238660e+00 1.4152726284476644e+01 4.5149588933539393e+00 0 0 0
240 2 1.6676599670591630e+00 1.3912267285782109e+01 5.2743910363769269e+00 0 0 0
241 1 2.5386380510297859e+00 1.8645430488849790e+01 6.8498775728475572e+00 0 0 0
242 2 2.7119932777674087e+00 1.9317764643011074e+01 6.1381153535323181e+00 0 0 0
243 2 2.6039078745461768e+00 1.7727893877498936e+01 6.5086817344835728e+00 0 0 0
244 1 6.2592943213491230e+00 1.3704264353213565e+01 5.5435021287398305e+00 0 0 0
245 2 6.1167507990496794e+00 1.4393115205339033e+01 6.2695868170154876e+00 0 0 0
246 2 5.7524686284996349e+00 1.4014249658458311e+01 4.7487507941373845e+00 0 0 0
247 1 1.1419607949636386e+00 1.5048399138255714e+01 2.2301666428506230e+00 0 0 0
127 1 1.0607402042180238e+00 1.2255796323980688e+01 1.6438919518635731e+00 0 0 0
249 2 1.8753116707215551e+00 1.5287909870916934e+01 1.5725122792874007e+00 0 0 0
251 2 5.9433674302669246e+00 1.5457351468428969e+01 1.5015289926069053e+00 0 0 0
111 2 1.9974961944701313e+00 9.2985046496440038e+00 6.9410132979192518e-01 0 0 0
262 1 8.1045045929262329e+00 1.7294161129773485e+01 3.8036943041877458e+00 0 0 0
263 2 9.1055277536878112e+00 1.7239556513173120e+01 3.9228758662146963e+00 0 0 0
264 2 8.0235867871043638e+00 1.7956568049685629e+01 3.0968908607621848e+00 0 0 0
271 1 7.3313461423096120e+00 1.8942335832128649e+01 1.8220816274161959e+00 0 0 0
272 2 7.2649850772591344e+00 8.8037752587954626e-02 1.9940181972443416e+00 0 0 0
273 2 6.4169135803284378e+00 1.8764910593759041e+01 1.6369650537312530e+00 0 0 0
274 1 8.8799569544097334e+00 1.4178383562020827e+01 4.9135941257479860e+00 0 0 0
275 2 8.9985549456515805e+00 1.4852650026546744e+01 5.6156496942523724e+00 0 0 0
276 2 8.0003146018263607e+00 1.3811563836908833e+01 4.9223977091900952e+00 0 0 0
277 1 9.3503050969135426e+00 1.8534196641267592e+01 6.6769043299237474e+00 0 0 0
278 2 9.0249343861069757e+00 1.9000230059928249e+01 5.8782238940409108e+00 0 0 0
279 2 8.7734506790662046e+00 1.8827900743315190e+01 7.4047029797178263e+00 0 0 0
283 1 7.6186715755725949e+00 1.5049204700358892e+01 2.2564483585886408e+00 0 0 0
284 2 7.9049169015873222e+00 1.5441053684067786e+01 3.0459205911678220e+00 0 0 0
285 2 7.7302006650646877e+00 1.4071819441728993e+01 2.3027948328804344e+00 0 0 0
444 2 1.2273578160914176e+00 1.1592000570641325e+01 1.0077696379675709e+01 0 0 0
325 1 3.1283771335785944e+00 2.9842518790188115e+00 7.0772478804317993e+00 0 0 0
326 2 3.0350401764015280e+00 3.9761873170246558e+00 6.9157460753373821e+00 0 0 0
327 2 4.0848574780704503e+00 2.8788992834524874e+00 7.1498349476822201e+00 0 0 0
329 2 4.1255851899661042e+00 1.1425907736632128e+00 9.5063235448320018e+00 0 0 0
337 1 4.8893573375765476e+00 6.1074354770974804e+00 8.7436758580218701e+00 0 0 0
338 2 4.7350227834632319e+00 5.3708410627510563e+00 9.4338570262397852e+00 0 0 0
339 2 4.7059898259737176e+00 6.9137905274402085e+00 9.2633210955546943e+00 0 0 0
372 2 8.0235864053141484e+00 4.8882330644214047e+00 9.9579021408683772e+00 0 0 0
344 2 1.3142753760777630e+00 5.5788344308050535e+00 9.4464430359548857e+00 0 0 0
345 2 1.6449150728840207e+00 5.9875780554823477e+00 8.1257605753434774e+00 0 0 0
927 2 8.4388518864150690e+00 1.8621665877534518e+01 5.1035703047372549e-01 0 0 0
169 1 9.3344545096990199e+00 1.2152821337939669e+01 6.7026328290268662e+00 0 0 0
357 2 1.8440695616440101e+00 2.5816756770912588e+00 8.1051970156308570e+00 0 0 0
358 1 5.8188088294255476e+00 2.4804733804502233e+00 7.1163407049431529e+00 0 0 0
359 2 6.0607024698212673e+00 3.3814294551999633e+00 6.6850410840010088e+00 0 0 0
360 2 5.8403731928566538e+00 1.9120655001813656e+00 6.3450615519635942e+00 0 0 0
150 2 9.9248323826148024e+00 8.0132962989583092e+00 4.0055586800974012e+00 0 0 0
362 2 9.0065071607040412e+00 1.9056281334428931e+00 6.4002305369020887e+00 0 0 0
363 2 8.7363923384256292e+00 2.2763993892394203e+00 7.9321989034002183e+00 0 0 0
254 2 8.9945747165194856e+00 1.5430393332765149e+01 1.0050145886668505e+00 0 0 0
379 1 7.6104164244633408e+00 5.9853229265993830e+00 8.6366377009622912e+00 0 0 0
380 2 7.7470460263140408e+00 6.8817724218386873e+00 8.8650479223909056e+00 0 0 0
381 2 6.6615126758819834e+00 5.9259605068914487e+00 8.4689385660443826e+00 0 0 0
391 1 7.5491741872113138e+00 1.9631967570220601e+00 9.0677037264131322e+00 0 0 0
392 2 7.7968807747564268e+00 2.7116549248676205e+00 9.6680810410034219e+00 0 0 0
393 2 6.9261198219195172e+00 2.3156743214799209e+00 8.4022099685836782e+00 0 0 0
119 2 7.9308376245443513e-01 1.0712865467450735e+01 4.4764270054270376e+00 0 0 0
433 1 2.5439936396622924e+00 9.3717134685242556e+00 6.9101633907740174e+00 0 0 0
434 2 2.6467101455551152e+00 1.0342428994242450e+01 6.8117626549316093e+00 0 0 0
435 2 1.8186916361099414e+00 9.2206862512972556e+00 7.5705324750799106e+00 0 0 0
450 2 4.5945553561868273e+00 1.1144939466309193e+01 1.0024581115704143e+01 0 0 0
445 1 5.0695439767515396e+00 1.2339285560999704e+01 8.8130530645974208e+00 0 0 0
446 2 4.9943411028633999e+00 1.3223777958924602e+01 9.2992409848114672e+00 0 0 0
447 2 4.3251159176772394e+00 1.2236626800324910e+01 8.1855414960775050e+00 0 0 0
62 2 9.7110802787063584e+00 4.7462917363150519e+00 6.6452620040465016e+00 0 0 0
451 1 6.4674154177824983e-01 1.2450445237852000e+01 8.8096687764542114e+00 0 0 0
452 2 6.5123294309068513e-01 1.3447962606501585e+01 8.9178024275339816e+00 0 0 0
463 1 7.4665159370442169e-01 8.8088624698947946e+00 8.8265477549532996e+00 0 0 0
465 2 7.3883199550710710e-01 7.8124198210444034e+00 8.9625579327924427e+00 0 0 0
466 1 5.1356664504921596e+00 9.2511399546287052e+00 7.7363309532323186e+00 0 0 0
467 2 5.5292879125889858e+00 8.8309566336368608e+00 6.9548773066926701e+00 0 0 0
468 2 4.1852861083913107e+00 9.1256793978278221e+00 7.5450493359697663e+00 0 0 0
469 1 9.1769818851514930e+00 9.4806191933322541e+00 6.8614409274042334e+00 0 0 0
470 2 9.1483817080330212e+00 1.0431427333635963e+01 6.6446571081875634e+00 0 0 0
471 2 8.5458050530950800e+00 9.3350326895578171e+00 7.6149384489276137e+00 0 0 0
210 2 8.0444104626703417e-01 7.3544403573939805e+00 4.9103098666619536e+00 0 0 0
487 1 7.6152207072512832e+00 1.2545387349837869e+01 8.6488897917670418e+00 0 0 0
488 2 8.0795071162606327e+00 1.2372078370063518e+01 7.8009959855334650e+00 0 0 0
489 2 6.6286454937091230e+00 1.2315698182405512e+01 8.4650926451456741e+00 0 0 0
499 1 7.5371841256279373e+00 8.9205072965373962e+00 8.9169701400414354e+00 0 0 0
500 2 7.5714621059072122e+00 9.1936239161646576e+00 9.8157217165016633e+00 0 0 0
501 2 6.5938040522249306e+00 9.0288022969496229e+00 8.6425724357791260e+00 0 0 0
143 2 4.4997604591435367e+00 8.9029055799459780e+00 4.5856763083944208e-01 0 0 0
355 1 1.1987223551729900e+00 2.4138076852392163e+00 8.8398164516359721e+00 0 0 0
541 1 2.8399965048823907e+00 1.6012171502246751e+01 6.9662046018062682e+00 0 0 0
542 2 2.3341944385397198e+00 1.5647493043965557e+01 7.7528202902840029e+00 0 0 0
543 2 3.0849946637226475e+00 1.5262710930317795e+01 6.4112258554445711e+00 0 0 0
553 1 4.5315356118973806e+00 1.9362590937529419e+01 8.6732976477141186e+00 0 0 0
554 2 5.4229694607213421e+00 1.9203413185329524e+01 8.2957136525877075e+00 0 0 0
555 2 3.9333417224130058e+00 1.9160951269347471e+01 7.9003526911179813e+00 0 0 0
19 1 7.3952952906339608e-01 5.6343386439984542e+00 2.0925013263370418e+00 0 0 0
559 1 8.9457100589923055e-01 1.9321684160424006e+01 8.8153092944127192e+00 0 0 0
560 2 1.3057436882378948e+00 1.9224709100587944e+01 7.9103712914320905e+00 0 0 0
561 2 1.3781498733288695e+00 1.8624588922159447e+01 9.3668358989356513e+00 0 0 0
170 2 1.0071050045981940e+01 1.2397787371848040e+01 7.3152573305387598e+00 0 0 0
574 1 5.5186770028736136e+00 1.5704406244931535e+01 7.2828077456423923e+00 0 0 0
575 2 6.0704949013074216e+00 1.5296024338539215e+01 7.9936785686405925e+00 0 0 0
576 2 4.6080329281195285e+00 1.5929936609951749e+01 7.4591720552891347e+00 0 0 0
577 1 9.3687224045471140e+00 1.5897437038401652e+01 6.9238980768312128e+00 0 0 0
578 2 9.2128124554223856e+00 1.6817383540477358e+01 6.6887364928807793e+00 0 0 0
579 2 8.7874229154874222e+00 1.5836043516017407e+01 7.7601001580106654e+00 0 0 0
558 2 4.5143095724682327e+00 1.8269929148470716e+01 9.8911107712734854e+00 0 0 0
595 1 7.3792826581253692e+00 1.9098185693805192e+01 8.4765237484891696e+00 0 0 0
596 2 7.5928020174180384e+00 1.2616150655945846e-01 8.8459289162981172e+00 0 0 0
597 2 7.5944289421411240e+00 1.8497776921432362e+01 9.2024571952989440e+00 0 0 0
607 1 7.8210798647393611e+00 1.5139544312920357e+01 8.9735977611193469e+00 0 0 0
608 2 7.7206942285507347e+00 1.4163998379121338e+01 9.1475396114694458e+00 0 0 0
38 2 9.8818496695039943e+00 2.3198937188630500e+00 6.8660335618305213e-01 0 0 0
218 2 3.8540222065451717e+00 1.5390724079969766e+01 4.3163071931456970e-01 0 0 0
571 1 1.0749435293429896e+00 1.5101418729629840e+01 8.6701379420146871e+00 0 0 0
557 2 4.6500113382824102e+00 1.6746958358511293e+01 1.0209826769720298e+01 0 0 0
479 2 7.9314698473697591e+00 1.1727704362167559e+01 1.0084611345985701e+01 0 0 0
141 2 3.1096746489342503e-01 8.4787684367813512e+00 1.7463897388257004e+00 0 0 0
818 2 9.9323596546941424e+00 1.2279285203224223e+01 3.4658147463802624e-01 0 0 0
335 2 1.5486465089319004e+00 3.5238915396611934e+00 1.0008647897199753e+01 0 0 0
37 1 8.9025860187518102e+00 2.4063410238903336e+00 5.2693923643399521e-01 0 0 0
544 1 4.7401490771815178e+00 1.4537111212991745e+01 1.0264813146334019e+01 0 0 0
32 2 2.7971272343637832e-01 2.1656769877167079e+00 1.5522513471441703e+00 0 0 0
146 2 9.3079907152634007e+00 1.0097111138324493e+01 3.9987972490635659e-01 0 0 1
342 2 4.3241816611754205e+00 3.3426315605171926e+00 1.0232850501754681e+01 0 0 0
883 1 9.5636881026599052e-01 1.9008870729057740e+01 1.5611329377123948e+01 0 0 0
673 1 2.6485922665159722e+00 5.0578940561009631e+00 2.0398162264027484e+01 0 0 0
668 2 1.3044353225039196e+00 7.0301805811643732e+00 1.5940050043320699e+01 0 0 0
109 1 2.7354432470817036e+00 9.3493788436022793e+00 2.0070643368688529e+01 0 0 -1
782 2 2.8606023066172273e+00 1.0990551613396722e+01 1.9731946769382738e+01 0 0 0
478 1 8.1013596479448324e+00 1.1110183202237879e+01 1.0911966285103928e+01 0 0 0
331 1 5.9947091985231262e+00 4.8255457521166552e+00 1.2696322893500749e+01 0 0 0
332 2 6.8085711164938552e+00 4.4591298988407777e+00 1.2285134136823530e+01 0 0 0
333 2 5.2828153829216404e+00 4.5810955946822931e+00 1.2001529514617149e+01 0 0 0
110 2 2.5509055606472546e+00 8.5171981121786224e+00 1.9526121878376259e+01 0 0 0
217 1 2.9685174824914942e+00 1.5573072537484649e+01 2.0420902660695006e+01 0 0 -1
679 1 9.7060064432577742e-01 2.0585652453306489e+00 1.6016329666880871e+01 0 0 0
346 1 2.0778306136944273e+00 6.1537911924746780e-01 1.2100384579793714e+01 0 0 0
347 2 2.6883575683370871e+00 9.8010454983636086e-01 1.1412444728511772e+01 0 0 0
348 2 2.1470320028900929e+00 1.3035220341317404e+00 1.2768063862132360e+01 0 0 0
349 1 2.8074039957448855e+00 5.1992206186607683e+00 1.3833682200649736e+01 0 0 0
350 2 2.8087882576878118e+00 5.6587630420873776e+00 1.2976985756654383e+01 0 0 0
351 2 2.6305715793930284e+00 4.2369040152737982e+00 1.3796318147400148e+01 0 0 0
352 1 6.0171407443452392e+00 1.2259582504818105e+00 1.2272790968440537e+01 0 0 0
353 2 7.0492153580780066e+00 1.2550445394337721e+00 1.2121893774316833e+01 0 0 0
354 2 5.8546483089013481e+00 2.8151315437200086e-01 1.2526103182818312e+01 0 1 0
442 1 1.5609270245690394e+00 1.0807526250481136e+01 1.0633812306981735e+01 0 0 0
382 1 9.0920625854028838e+00 1.1143855914269287e+00 1.1921595352992437e+01 0 0 0
383 2 9.2899808763282614e+00 2.7717945101281627e-01 1.2430062099546069e+01 0 0 0
370 1 8.1755138169670509e+00 4.1665771623895536e+00 1.0645237960999454e+01 0 0 0
385 1 9.5760819162221757e+00 5.8238098500217950e+00 1.3865715268695983e+01 0 0 0
386 2 9.4703504192038181e+00 4.9453675296313975e+00 1.3556282095832845e+01 0 0 0
387 2 8.8075627839717665e+00 5.8112976851763785e+00 1.4527177258124155e+01 0 0 0
551 2 1.1061432826035555e+00 1.7423589761624946e+01 1.1245403301406977e+01 0 0 0
384 2 9.8207444755841706e+00 1.2167671712464632e+00 1.1247421665542815e+01 0 0 0
439 1 6.1129071090967599e+00 1.1271955796118467e+01 1.2853152560648466e+01 0 0 0
440 2 6.1420845796903709e+00 1.2253488766453286e+01 1.2942026936827908e+01 0 0 0
441 2 5.2286653935223040e+00 1.1130809621278816e+01 1.2443011044794078e+01 0 0 0
552 2 2.5876214526219399e+00 1.7278237992963945e+01 1.0775329329776833e+01 0 0 0
454 1 2.4554484221740749e+00 7.3560639881270111e+00 1.2290652700540441e+01 0 0 0
455 2 3.0742654693317419e+00 7.3549404939364900e+00 1.1504208076762303e+01 0 0 0
456 2 2.6660017287591633e+00 8.2177786455970310e+00 1.2747853755018676e+01 0 0 0
457 1 2.9331677689265372e+00 1.2386524952731357e+01 1.3394035507466318e+01 0 0 0
458 2 3.6327662410677370e+00 1.2502118026215724e+01 1.4019090392712865e+01 0 0 0
459 2 2.0754688025171490e+00 1.2413144451933956e+01 1.3891827734303380e+01 0 0 0
460 1 6.1933078399127526e+00 7.4778250279173744e+00 1.2525192130418397e+01 0 0 0
461 2 6.1137280635591464e+00 6.5354402308734754e+00 1.2795352690846881e+01 0 0 0
462 2 7.1265122062096795e+00 7.4794651909110765e+00 1.2149297310960444e+01 0 0 0
39 2 8.9377450521999258e+00 2.0545256347501590e+00 1.9737651213341294e+01 0 0 0
480 2 7.4921806544812259e+00 1.1404028329683303e+01 1.1610986518381500e+01 0 0 0
876 2 1.2515580563383111e+00 1.7430534946715667e+01 1.8248768899406485e+01 0 0 0
490 1 9.0253058152452450e+00 7.7695959947825646e+00 1.2097463831235125e+01 0 0 0
491 2 9.2183536137265261e+00 6.9100730714147600e+00 1.2615609622095054e+01 0 0 0
492 2 8.9295784656410309e+00 8.4414147938861230e+00 1.2813020468723746e+01 0 0 0
493 1 9.3934353762886875e+00 1.2392370859024325e+01 1.3712008693340174e+01 0 0 0
494 2 8.6667217502560767e+00 1.2775805494091534e+01 1.4290424722797386e+01 0 0 0
495 2 9.3317839652248971e+00 1.2956147893698994e+01 1.2912929436621237e+01 0 0 0
895 1 9.8532758853830194e-01 1.5365648344010953e+01 1.5610515554561808e+01 0 0 0
1 1 2.9097301592145679e+00 2.1185119066845322e+00 2.0231158709948588e+01 0 0 -1
336 2 8.5750343371457127e-01 4.2723689736221893e+00 1.1166854025999351e+01 0 0 0
707 2 9.3878144671036878e+00 8.1334979282627717e-01 1.7820185706096922e+01 0 0 0
599 2 9.7351629179126267e+00 1.4341797790808183e+01 1.1334147215859458e+01 0 0 0
436 1 4.3728589301989302e+00 7.8931234151157730e+00 1.0488319592551507e+01 0 0 0
547 1 5.9414716897817748e+00 1.8337391779451579e+01 1.2556656234981910e+01 0 0 0
548 2 5.3701007274263262e+00 1.8200304852628797e+01 1.1782691702306655e+01 0 0 0
549 2 5.8116069879464032e+00 1.7570733042233698e+01 1.3143865847092613e+01 0 0 0
901 1 9.5957470574156236e+00 1.6112772714934096e+01 1.3892687676317131e+01 0 0 0
562 1 2.4267552469011910e+00 1.3863581105203695e+01 1.1285048984948046e+01 0 0 0
563 2 1.4799360080682458e+00 1.3891725497861641e+01 1.1232072259932599e+01 0 0 0
564 2 2.7237801324559894e+00 1.3346753891481550e+01 1.2083179825297641e+01 0 0 0
565 1 3.0057366302594666e+00 1.8258398246709319e+01 1.3863400839471073e+01 0 0 0
566 2 2.8899141030563191e+00 1.8903378552979056e+01 1.3170310008695253e+01 0 0 0
567 2 3.8377784029144846e+00 1.8527570156120561e+01 1.4288608953916226e+01 0 0 0
568 1 6.4673542042295971e+00 1.4053672133906478e+01 1.2275362565552369e+01 0 0 0
569 2 7.4392285410570977e+00 1.4207336626948749e+01 1.2090114428731662e+01 0 0 0
570 2 6.1494582555829949e+00 1.4711660050687234e+01 1.2907128246021125e+01 0 0 0
371 2 9.1636813036719769e+00 4.2024910215684823e+00 1.0646378211341833e+01 0 0 0
438 2 5.1508385517985316e+00 7.8591740365873530e+00 1.1120350880270676e+01 0 0 0
588 2 7.8329570298467193e+00 1.7726344655338956e+01 1.1617975270464843e+01 0 0 0
598 1 9.0076351252548328e+00 1.4397943346624919e+01 1.2027775445420161e+01 0 0 0
253 1 9.5866465187108467e+00 1.5696489317957379e+01 2.0296890781305336e+01 0 0 -1
600 2 9.0845504435341837e+00 1.5257851957875420e+01 1.2562300847362287e+01 0 0 0
601 1 9.6200457298058666e+00 1.8829613860407022e+01 1.3472676943670015e+01 0 0 0
603 2 8.9159183055972751e+00 1.8994754284428751e+01 1.4143379531126971e+01 0 0 0
533 2 5.6519331512099846e-01 7.1277443368681981e+00 1.2122631194270310e+01 0 0 0
545 2 3.9311695807837599e+00 1.4212764601592633e+01 1.0635627281450210e+01 0 0 0
649 1 2.5625022095605465e+00 2.6756982463928560e+00 1.4044406415262626e+01 0 0 0
650 2 3.5112394243657516e+00 2.7330883485580824e+00 1.4286319984922669e+01 0 0 0
651 2 2.0220363746521333e+00 2.4415065640818128e+00 1.4805779925882620e+01 0 0 0
652 1 4.1119812452029461e+00 1.2840083360344399e+00 1.7054270133175230e+01 0 0 0
653 2 4.2322968632784086e+00 2.2883544426414613e+00 1.7016497565232044e+01 0 0 0
654 2 4.7483848439570808e+00 1.0506196344506844e+00 1.7767323387014571e+01 0 0 0
655 1 6.0887376439050289e+00 4.5605073664268234e+00 1.9411397656284535e+01 0 0 0
656 2 6.0581685612632707e+00 5.5212308803748433e+00 1.9329329680179157e+01 0 0 0
657 2 6.8546630548848748e+00 4.3759028805823670e+00 1.8874790499024357e+01 0 0 0
658 1 1.6195497105773025e+00 4.0830320789087438e+00 1.7562190238093265e+01 0 0 0
659 2 1.5047905192775404e+00 3.1860693796395569e+00 1.7102867093523280e+01 0 0 0
660 2 1.3367765719472249e+00 4.7862508840028823e+00 1.6968765194903710e+01 0 0 0
661 1 4.8750534287507108e+00 6.0106001313688218e+00 1.5322282275254567e+01 0 0 0
662 2 4.7040914256432691e+00 5.3536830381885903e+00 1.6017053512018805e+01 0 0 0
663 2 4.1818471949758731e+00 5.7134780495934008e+00 1.4608322333079192e+01 0 0 0
664 1 4.2878784310813565e+00 4.0356219539649025e+00 1.7458800612773736e+01 0 0 0
665 2 3.3062583332182864e+00 4.1174810896732872e+00 1.7722541539905926e+01 0 0 0
666 2 4.7708407606648828e+00 4.0768446641174538e+00 1.8235228914390767e+01 0 0 0
330 2 5.0769570651836622e+00 1.3132151835881980e+00 1.0742996518311029e+01 0 0 0
667 1 1.1193481485116066e+00 6.1515858937966597e+00 1.5615700800828767e+01 0 0 0
669 2 1.7236095042711348e+00 5.9611382071366066e+00 1.4916903884244945e+01 0 0 0
670 1 1.9714021284799901e+00 5.1554752440500051e-01 1.8328223746796091e+01 0 0 0
671 2 2.3508821485746978e+00 1.0329708665849933e+00 1.9048794887465654e+01 0 0 0
672 2 2.6028110399199815e+00 6.0440892393248569e-01 1.7633026404629916e+01 0 0 0
676 1 5.9353898075415943e+00 5.4300248064875500e-01 1.8827500934489549e+01 0 0 0
677 2 5.7449254373890000e+00 1.1796410586436110e+00 1.9517600465775232e+01 0 0 0
678 2 6.9163610624697824e+00 6.7808676273033086e-01 1.8561934100547624e+01 0 0 0
219 2 2.9919003293413309e+00 1.6405791653414944e+01 1.9894771825829757e+01 0 0 -1
546 2 5.4765376457428472e+00 1.4257238965700362e+01 1.0889164135134447e+01 0 0 0
681 2 1.1614010104020860e+00 1.1278398227465583e+00 1.6113248173996496e+01 0 0 0
682 1 5.3227179369604860e+00 2.7145005488015879e+00 1.4385679860922814e+01 0 0 0
683 2 5.7136589899720560e+00 3.6068487830227403e+00 1.4105394313362483e+01 0 0 0
684 2 5.6090587566286274e+00 2.1698164626045062e+00 1.3684972553163965e+01 0 0 0
685 1 9.3843560491416742e+00 3.0760446069185714e+00 1.3744569865884877e+01 0 0 0
687 2 9.3127958393195396e+00 2.4101280326009378e+00 1.3008554881999297e+01 0 0 0
694 1 8.0745514000615479e+00 4.1681938371976184e+00 1.7496625852686805e+01 0 0 0
695 2 9.0261306735560520e+00 4.2367342503847842e+00 1.7691342109717496e+01 0 0 0
696 2 7.8653128693783074e+00 3.4288680054811018e+00 1.6817377505287482e+01 0 0 0
703 1 7.7298441066379597e+00 6.2108143080586338e+00 1.5761770219215350e+01 0 0 0
704 2 7.8355190116360811e+00 5.5975098589162071e+00 1.6507012566853277e+01 0 0 0
705 2 6.7665244987744684e+00 6.2188672269226082e+00 1.5627590667591303e+01 0 0 0
706 1 8.6087248556518912e+00 6.3631678154476823e-01 1.8384945388488099e+01 0 0 0
931 1 7.4198257274683836e+00 1.5518142108266499e+01 1.5734160306729992e+01 0 0 0
708 2 8.9271342024344591e+00 1.9619559390305909e+01 1.8800879778335855e+01 0 -1 0
715 1 7.7325058814768184e+00 2.1586740504334312e+00 1.5711057195124525e+01 0 0 0
716 2 6.7715180395384467e+00 2.4529334175081208e+00 1.5449129510887518e+01 0 0 0
717 2 8.2959121561489972e+00 2.4396404504100291e+00 1.4958883075585472e+01 0 0 0