LAMMPS data file via write_data, version 3 Mar 2020, timestep = 1040000

1008 atoms
2 atom types

2.4185922813133764e-01 1.8157695771863750e+01 xlo xhi
6.7307943616894406e-02 2.2503081056376558e+01 ylo yhi
2.2780065001050076e-01 1.9277915349984340e+01 zlo zhi
4.8038933620716595e-02 -6.6489254136817806e+00 4.2955541286769580e-03 xy xz yz

Masses

1 16
2 2

Atoms # atomic

1 1 6.6311328180749083e+00 1.3654836387568077e+00 5.1351989363885844e+00 0 0 0
753 2 3.6658491801415121e+00 9.8405014672835946e+00 8.9593489846079173e+00 0 0 0
3 2 6.3991336147410882e+00 1.7588548678392097e+00 4.2549321481902647e+00 0 0 0
4 1 3.9001482187063159e+00 1.3175902360116583e+00 5.2950535784406076e+00 0 0 0
151 1 6.6139044170003780e+00 5.0019390788449369e-01 8.7500751286510532e+00 0 0 0
6 2 3.8468453218329333e+00 1.7328220446852014e+00 6.2138895743632654e+00 0 0 0
7 1 -2.2711030235667939e-01 6.4385484571059290e+00 5.2077904015999019e+00 0 0 0
8 2 -3.4439068325915323e-01 6.1049489781441721e+00 6.1454849886261069e+00 0 0 0
9 2 -8.0598184539137696e-01 7.2164782205408207e+00 5.0434863914416601e+00 0 0 0
10 1 2.1108358109162948e+00 6.3612831684463425e+00 4.3568064883385134e+00 0 0 0
11 2 1.2889856791010981e+00 6.6181431358645044e+00 4.8714501921363613e+00 0 0 0
12 2 2.8443422031866232e+00 6.9483794830902479e+00 4.6177131385721610e+00 0 0 0
219 2 6.2911737339355049e+00 1.0821208556740741e+01 6.7131631005678738e+00 0 0 0
584 2 3.1935141895481158e+00 9.7847955059656955e-01 9.3360732564627735e+00 0 0 0
248 2 7.7110457957655179e+00 8.2481991486369193e+00 7.3836456494349945e-01 0 0 0
237 2 1.4997677617286039e+01 7.3556783751336097e+00 7.8339392720372549e+00 0 0 0
18 2 5.6373238812352335e+00 5.1521996491249276e+00 9.1677895561410916e-01 0 0 0
154 1 1.2903685848108086e+01 4.4906588866819486e-01 1.6530213835447647e+00 0 0 0
604 1 1.0859183999153897e+01 4.7561693799559883e+00 9.7071359329716458e+00 0 0 0
21 2 1.0917849081914615e+00 2.4405763880759355e+00 9.2123680772978556e-01 0 0 0
209 2 3.6750408807329769e+00 1.1241844408246692e+01 7.0481426821470192e+00 0 0 0
222 2 3.2089739805303985e+00 1.0974878188488844e+01 3.4300761334301968e+00 0 0 0
587 2 -1.5673845751359090e+00 6.6132328835037679e+00 9.4521251347612818e+00 0 0 0
25 1 4.8330749477698838e+00 6.2926714733197899e+00 7.4515239303010654e+00 0 0 0
26 2 5.2125643498570433e+00 7.1709579169213686e+00 7.4373607235422163e+00 0 0 0
27 2 3.8619788505370622e+00 6.4555665949060907e+00 7.5614129211412831e+00 0 0 0
28 1 5.6285912199702244e+00 6.1724066594038955e+00 2.2494419580128597e+00 0 0 0
29 2 5.7438126522699973e+00 6.0241151233025771e+00 3.2241556693490581e+00 0 0 0
30 2 4.9463738434744426e+00 6.8863591067439236e+00 2.2306259539389859e+00 0 0 0
31 1 1.3803702970206131e+00 1.1063023427257108e+00 2.2923061170469716e+00 0 0 0
32 2 2.3572675741392990e+00 8.0002057911951008e-01 2.1726586407343222e+00 0 0 0
33 2 1.2670759674338115e+00 1.4373971178803346e+00 3.1987285286977305e+00 0 0 0
34 1 4.3449078351203196e-01 1.1540675959608033e+00 7.2369261785260299e+00 0 0 0
86 2 1.6329681234404845e+01 2.3450957621789820e-01 4.9073205437546896e+00 0 0 0
36 2 6.8287616300911846e-01 1.8437475178042042e+00 7.9186739492280394e+00 0 0 0
37 1 6.3876804313109758e+00 2.2943839973563680e+00 2.4889192024790017e+00 0 0 0
38 2 5.4820326736872760e+00 2.5956076079657753e+00 2.6484713428980631e+00 0 0 0
39 2 6.9924463351710271e+00 3.0346113172195985e+00 2.6094913322289170e+00 0 0 0
40 1 4.4106139678452356e+00 2.7748104544631929e+00 7.5855508172717148e+00 0 0 0
41 2 5.3867056835801526e+00 2.8728684789431269e+00 7.2434725743285986e+00 0 0 0
42 2 3.9459764136159565e+00 3.5393896615622031e+00 7.2180005930730387e+00 0 0 0
43 1 2.1692478051256181e-03 5.0346499677116707e+00 7.3942165910949136e+00 0 0 0
44 2 -5.4940166735677187e-01 4.3035174794176445e+00 7.1722771888339336e+00 0 0 0
45 2 -2.6874894204693645e-01 5.1990532473511673e+00 8.3303646941038902e+00 0 0 0
46 1 1.8000261564519555e+00 4.5988464327440877e+00 2.4023942431604306e+00 0 0 0
47 2 9.1139737208045990e-01 4.3244136452685362e+00 2.5180500928603986e+00 0 0 0
48 2 1.9247394219298979e+00 5.0872378736278128e+00 3.2978223062032574e+00 0 0 0
49 1 6.8867889495269790e+00 3.2914059542496514e+00 6.7489068779485244e+00 0 0 0
50 2 6.6937042108229177e+00 4.1112785904597828e+00 6.3107166086048938e+00 0 0 0
51 2 6.9914512684426349e+00 2.6394331980707140e+00 6.0454170001070917e+00 0 0 0
52 1 4.0311497184980052e+00 3.1148635480537106e+00 3.5397603045866810e+00 0 0 0
53 2 3.1902790481632595e+00 3.3287818785016436e+00 3.1095496133022786e+00 0 0 0
54 2 3.7367156968283033e+00 2.4326429056301073e+00 4.2430900231777002e+00 0 0 0
55 1 -7.3323300110592493e-01 4.1041309867430487e+00 3.8223481865118596e+00 0 0 0
56 2 -8.8930226254146771e-01 4.8983497376565355e+00 4.3472149181461752e+00 0 0 0
57 2 -1.0432992919746220e-01 3.5296939766088236e+00 4.2410345203540034e+00 0 0 0
58 1 2.6912616410249446e+00 4.2570224074193881e+00 6.0578195223326077e+00 0 0 0
59 2 2.6653884149643119e+00 5.0683839127681196e+00 5.4961487567290357e+00 0 0 0
60 2 1.9215113127162065e+00 4.3562854517007068e+00 6.6329402013140690e+00 0 0 0
61 1 8.4052676864205083e+00 6.7435181140895013e+00 1.6606900214231319e+00 0 0 0
62 2 7.5692361874155809e+00 6.4470887851355849e+00 2.0832874269648345e+00 0 0 0
63 2 8.6104469180026921e+00 6.0123156785399612e+00 1.0032657256659925e+00 0 0 0
64 1 2.2127813342066527e+00 7.0262537599100403e+00 8.5533488797903399e+00 0 0 0
65 2 1.5685677407024432e+00 7.5655562237186373e+00 7.9666901170603177e+00 0 0 0
66 2 2.5953676744552765e+00 7.7590132657283917e+00 9.0558601369898444e+00 0 0 0
836 2 1.2919953599046162e+01 9.1559252147324806e+00 8.9940725141462003e+00 0 0 0
68 2 -2.2982577095730554e+00 1.4835568527489089e+00 8.9616388323229650e+00 0 0 0
303 2 1.5196062357457802e+01 1.1037722548189816e+01 5.9988118996000113e+00 0 0 0
72 2 3.9039832436557620e+00 1.2399905996994598e+00 9.8512232826360446e-01 0 0 0
73 1 5.6086449582585365e+00 4.9771988917347372e+00 4.9618922671937957e+00 0 0 0
74 2 5.3816795209345178e+00 5.6499978217756643e+00 5.6327281183662476e+00 0 0 0
75 2 4.7333276288994428e+00 4.5533821315957601e+00 4.7219903783858825e+00 0 0 0
76 1 9.8016946714512687e-01 2.4509328072665757e+00 4.8508148946145502e+00 0 0 0
77 2 8.4014974648617446e-01 1.8245250525136192e+00 5.5968170630695990e+00 0 0 0
78 2 1.7939949012455181e+00 2.8892965727608719e+00 5.1297882163317423e+00 0 0 0
302 2 1.5272309500764557e+01 9.8569051554811153e+00 7.0625887330960255e+00 0 0 0
293 2 1.2675567324494009e+01 1.0390520775842399e+01 7.3102375404914062e+00 0 0 0
311 2 1.0936641888529927e+01 1.0773300711574985e+01 5.8609850817909326e+00 0 0 0
85 1 1.5535744614016846e+01 9.2722613942440824e-01 4.8490539798903605e+00 0 0 0
87 2 1.5586862867219054e+01 1.3520533640121710e+00 3.9683862452817680e+00 0 0 0
88 1 1.2713736711919234e+01 1.1041937586114086e+00 5.0737588495067616e+00 0 0 0
89 2 1.2824329460233015e+01 1.8454113228218787e+00 4.4040754299073441e+00 0 0 0
273 2 1.1051096994996490e+01 1.0426311754143860e+01 3.2880287735559793e-01 0 0 1
91 1 8.2008515927886450e+00 6.0244958408618965e+00 5.1155298012320669e+00 0 0 0
92 2 7.9771667533658519e+00 5.3969874325531615e+00 4.3986830068956335e+00 0 0 0
93 2 9.1706621723708714e+00 6.2283779156958436e+00 5.0050022568928991e+00 0 0 0
94 1 1.0931661003048928e+01 6.4785969604298961e+00 4.9070352738446950e+00 0 0 0
95 2 1.1677044898002812e+01 7.0568721886626147e+00 5.0609732150849274e+00 0 0 0
96 2 1.1152545735193369e+01 5.8305590727001837e+00 5.5886425881122719e+00 0 0 0
486 2 1.1460220522580775e+01 1.9040151787918497e-01 8.9130546983563352e+00 0 0 0
304 1 1.2741960905981211e+01 1.0654102748194575e+01 3.5286752519846369e+00 0 0 0
165 2 1.6679278778289856e+01 9.0815911689735196e-01 3.4975668674335342e-01 0 0 0
101 2 1.4598746848647238e+01 5.0451660616365803e+00 1.1321056832051657e+00 0 0 0
146 2 1.7349473044162977e+01 6.4007393548427043e+00 1.3017031532941743e+00 0 0 0
217 1 6.9840001038356014e+00 1.0995106274536044e+01 6.0594273598003543e+00 0 0 0
274 1 9.5181856401130815e+00 1.0543230172696058e+01 9.5635299401032263e+00 0 0 0
152 2 7.4563524795703557e+00 7.8539847130639184e-01 8.2804547087799012e+00 0 0 0
109 1 1.3782033031274928e+01 6.4018400528495247e+00 7.4466012980385319e+00 0 0 0
110 2 1.3926463375453165e+01 5.6626941623852671e+00 8.0866622560537298e+00 0 0 0
111 2 1.2925750551010454e+01 6.8048318234562926e+00 7.5890206352055669e+00 0 0 0
112 1 1.4707081092735965e+01 5.9918398583913577e+00 2.6351771169141847e+00 0 0 0
113 2 1.4047827515490161e+01 6.6154482716845235e+00 2.2809239671465589e+00 0 0 0
114 2 1.5570827999306347e+01 6.2852535769659346e+00 2.3560885899360962e+00 0 0 0
115 1 1.0540036889275374e+01 1.4478514725802709e+00 2.6176139723343232e+00 0 0 0
116 2 1.0450288834476931e+01 2.0351995734663415e+00 1.8623971674004038e+00 0 0 0
167 2 1.1141279445417684e+01 5.5329972951732991e+00 1.1013181843361282e+00 0 0 0
118 1 9.1041827574311096e+00 1.1719841217110563e+00 7.4941611365846574e+00 0 0 0
119 2 9.1878502375736044e+00 2.0148037312381808e+00 8.0068078261607276e+00 0 0 0
120 2 9.0031900281919715e+00 1.3430369464502561e+00 6.5537448712370514e+00 0 0 0
121 1 1.5286501990248707e+01 2.7003830313495580e+00 2.7446358693692194e+00 0 0 0
122 2 1.5993388532407202e+01 3.2956275999801523e+00 3.1494630714750902e+00 0 0 0
123 2 1.5520815465189248e+01 2.6493697095337123e+00 1.8157322973051448e+00 0 0 0
124 1 1.3063114851441794e+01 2.4189849785667183e+00 7.4311904464988130e+00 0 0 0
125 2 1.3970921434865673e+01 2.7421305738315596e+00 7.3475768150160370e+00 0 0 0
126 2 1.2949953205160684e+01 1.7607023266887565e+00 6.6751172767053992e+00 0 0 0
127 1 8.9561392213961462e+00 4.7639944676474766e+00 7.5141843232622545e+00 0 0 0
128 2 8.2701383840237845e+00 4.0896466861473106e+00 7.4644921547897445e+00 0 0 0
129 2 8.6307078457375290e+00 5.3897691613624890e+00 6.8595780592711586e+00 0 0 0
130 1 1.1056188297325159e+01 4.7971386267033234e+00 2.4453343017033244e+00 0 0 0
131 2 1.1793252224513244e+01 4.1818554758734292e+00 2.6213427086572469e+00 0 0 0
132 2 1.1063679121274538e+01 5.3152135818794974e+00 3.2848217300199503e+00 0 0 0
134 2 1.5250686593562095e+01 3.7843923532877977e+00 6.1120160658471168e+00 0 0 0
136 1 1.2869247645224441e+01 3.2487231769764722e+00 3.6199108448954385e+00 0 0 0
137 2 1.3101275198281488e+01 3.9902230824413971e+00 4.2582513909461683e+00 0 0 0
138 2 1.3687438719085419e+01 3.1306380012832120e+00 3.1114272504449683e+00 0 0 0
139 1 8.3491571507594369e+00 3.9657149765867126e+00 3.2131101601164609e+00 0 0 0
140 2 9.1032539006529039e+00 4.1817219088582345e+00 2.6202973765511994e+00 0 0 0
141 2 8.8099908293064875e+00 3.4995698011906318e+00 3.9986522870961254e+00 0 0 0
142 1 1.1505776001632469e+01 4.2518085143443685e+00 6.5759659874849428e+00 0 0 0
143 2 1.2209698705702991e+01 3.6279980154899762e+00 6.9896040663999148e+00 0 0 0
144 2 1.0705455392114459e+01 4.1410186052409976e+00 7.1274307411469708e+00 0 0 0
147 2 1.6862345030149470e+01 7.9431514509654688e+00 1.1500425539353545e+00 0 0 0
148 1 1.1343127879797519e+01 7.1696685938315339e+00 8.2893407153656486e+00 0 0 0
149 2 1.1128292803572128e+01 6.3000840978857493e+00 8.6961142454205795e+00 0 0 0
150 2 1.1800883814284653e+01 7.5768968734983622e+00 9.0242982063041808e+00 0 0 0
305 2 1.2205318299382039e+01 1.1207289950751523e+01 2.9617531574643827e+00 0 0 0
2 2 7.2510741528687319e+00 6.3059054487887201e-01 4.9622182137120410e+00 0 0 0
153 2 6.2738432485729749e+00 1.3162039250012973e+00 9.0392982707098621e+00 0 0 0
35 2 -4.7455961752936271e-01 1.1266061190870793e+00 7.3206844670948756e+00 0 0 0
155 2 1.3257548688311784e+01 1.1725033741232125e+00 1.0739784062648390e+00 0 0 0
84 2 3.1510626135235995e+00 6.6094658416813852e+00 3.5244470559976099e-01 0 0 0
157 1 1.4350043174355918e+01 4.9389994150178245e+00 5.3310225425799231e+00 0 0 0
158 2 1.4754806099855346e+01 5.3244256814501538e+00 4.5324831612822312e+00 0 0 0
159 2 1.3923008118280118e+01 5.6113990433104197e+00 5.8891327816897823e+00 0 0 0
160 1 9.7418979748969736e+00 2.4826617582048072e+00 4.9659955183603941e+00 0 0 0
161 2 1.0371170002418047e+01 3.1668239102686409e+00 5.2232599048653885e+00 0 0 0
162 2 1.0099982907919259e+01 1.9531617265327670e+00 4.2540688543963014e+00 0 0 0
301 1 1.5788650764040346e+01 1.0386676061898644e+01 6.4174943600956293e+00 0 0 0
67 1 -2.0114695334373893e+00 5.9197023898691403e-01 8.5588238798706939e+00 0 0 0
778 1 1.2698715786063982e+01 1.0284483204643189e+01 4.6763163129825835e-01 0 0 1
169 1 6.6092381773623883e+00 8.5267625990848757e+00 4.6677225089730374e+00 0 0 0
170 2 7.0483293672213048e+00 7.7053290706085136e+00 4.9185521548346758e+00 0 0 0
171 2 7.0303858913087867e+00 9.1900606427141067e+00 5.3051954071625644e+00 0 0 0
172 1 3.9525397351216767e+00 8.1064804697696253e+00 5.2634979196472464e+00 0 0 0
173 2 3.8401291957683501e+00 9.0109140429163403e+00 4.8807163760875625e+00 0 0 0
174 2 4.8890154829675510e+00 8.0605256212278000e+00 5.1189718907194175e+00 0 0 0
670 1 7.9151449095959814e+00 6.4033415202498523e+00 9.5882853623337052e+00 0 0 0
271 1 1.0081146274892980e+01 1.0242559681125835e+01 3.4340645480767373e-01 0 0 0
585 2 3.7641671429251118e+00 2.3259084288929364e+00 9.1240419198064515e+00 0 0 0
192 2 3.5044782668598140e-01 1.0012071618129095e+01 8.6381105678384156e+00 0 0 0
199 1 1.3000350686905078e+00 8.6965210913978890e+00 2.4464072870825357e+00 0 0 0
200 2 9.5537464799651295e-01 9.3522739918836759e+00 1.7602528995658295e+00 0 0 0
201 2 7.4837493499444763e-01 7.9086396253369600e+00 2.3081478580583483e+00 0 0 0
202 1 2.1841959944832379e-01 8.3762176425580464e+00 7.2602767781413249e+00 0 0 0
203 2 -6.9334278286860629e-01 8.2990502473936036e+00 7.4830836734481077e+00 0 0 0
204 2 3.7087990756753531e-01 8.4275980320457453e+00 6.3060442597779005e+00 0 0 0
205 1 6.4826259989315345e+00 1.0441581644527941e+01 2.2705463178595777e+00 0 0 0
206 2 6.7232190416401982e+00 9.7125449196526876e+00 2.8686877090960321e+00 0 0 0
207 2 6.7422627581250785e+00 1.0193031614200990e+01 1.3965594609543821e+00 0 0 0
208 1 4.5030740296953802e+00 1.0728193161968763e+01 7.3600483935696897e+00 0 0 0
69 2 1.5124955222615927e+01 1.7104869030560388e-01 8.0406661869402996e+00 0 0 0
210 2 4.2137441864446608e+00 9.8218723776696795e+00 7.1305553888184336e+00 0 0 0
521 2 2.0589393923900534e+00 5.4221858842941204e+00 9.5797312993648767e+00 0 0 0
14 2 4.9615493366823227e+00 5.6810641309388457e+00 9.0603795559493552e+00 0 0 0
83 2 2.2407207898657733e+00 5.3863331629988132e+00 9.4472817618805305e-01 0 0 0
5 2 4.8399783746308902e+00 9.9311875361068758e-01 5.3482913806191492e+00 0 0 0
106 1 9.1964827094424439e+00 2.7394533277390769e+00 9.7520083159521196e+00 0 0 0
235 1 -2.2786818182445954e+00 8.1513418351860434e+00 8.0151023033101687e+00 0 0 0
236 2 -2.6137820276962054e+00 8.6038563148671958e+00 8.8159538016260175e+00 0 0 0
238 1 3.8292499592771034e+00 7.9752068443261317e+00 1.6408980143759648e+00 0 0 0
239 2 2.9382198261423214e+00 8.3427542992685755e+00 1.9709265635901236e+00 0 0 0
240 2 4.1925659288537380e+00 8.7025313856456155e+00 1.0900191828927772e+00 0 0 0
244 1 7.2693024659744232e-01 1.0003866189099694e+01 4.9518658858638105e+00 0 0 0
245 2 1.0448965760568862e+00 9.6880450662010986e+00 4.0306454797377995e+00 0 0 0
246 2 1.3866685465723574e+00 1.0617377432453631e+01 5.3368349167626628e+00 0 0 0
145 1 1.7041809345010236e+01 7.2057653486289341e+00 1.7655703989458240e+00 0 0 0
166 1 1.1591695708113827e+01 6.0819968457362945e+00 3.1568723276111238e-01 0 0 1
253 1 1.5621017590002289e+01 8.2088676796061257e+00 4.9091748865284446e+00 0 0 0
255 2 1.5514959297009339e+01 8.3856851806328532e+00 3.9580856312837929e+00 0 0 0
256 1 1.2712159073620754e+01 8.3093951108169808e+00 5.1980727960416147e+00 0 0 0
257 2 1.3674742705543016e+01 8.1251394139833160e+00 4.9308513813061223e+00 0 0 0
258 2 1.2494122119344420e+01 9.0357293000635543e+00 4.5926238742949925e+00 0 0 0
70 1 3.9615093431385033e+00 3.8083100831292516e-01 1.4131609029714438e+00 0 0 0
272 2 9.9695051534565806e+00 9.6744264971803506e+00 1.1438124331904176e+00 0 0 0
254 2 1.5615862232969938e+01 9.0654254923010971e+00 5.3799213406964572e+00 0 0 0
276 2 9.7222572012735231e+00 1.0208564348511182e+01 8.7069655932301586e+00 0 0 0
283 1 9.9823469092769326e+00 8.7525961113762687e+00 2.5225184143181929e+00 0 0 0
284 2 9.8651789788428648e+00 8.8854287562684995e+00 3.4570403351262118e+00 0 0 0
285 2 9.4051538702873572e+00 8.0021209409644349e+00 2.3392146699851808e+00 0 0 0
286 1 9.3382933273445339e+00 8.8053864725477258e+00 7.3884024011676335e+00 0 0 0
287 2 9.9686113616554994e+00 8.0911789505944594e+00 7.6744125122598579e+00 0 0 0
288 2 8.3871970238952791e+00 8.4785586397681172e+00 7.5543344992445451e+00 0 0 0
289 1 1.5173316420846627e+01 9.9157344008872617e+00 2.7287436719880422e+00 0 0 0
290 2 1.5896470112550931e+01 1.0523929377653090e+01 2.8483364183310305e+00 0 0 0
291 2 1.5361488866797915e+01 9.5734815814978269e+00 1.8324698230660239e+00 0 0 0
292 1 1.3186628179951997e+01 9.6707486109879852e+00 7.5250232550317717e+00 0 0 0
23 2 1.4191604398997981e+00 3.4490315702611247e+00 9.7073358233180507e+00 0 0 0
294 2 1.3049346785916759e+01 9.0448034913873911e+00 6.7374649324527898e+00 0 0 0
80 2 6.6304725227149737e+00 1.5356854373876687e+00 9.8890717485425261e-01 0 0 0
224 2 -3.5947347822947129e-01 1.1218797154048463e+01 4.1587740560391762e+00 0 0 0
306 2 1.3528774562520312e+01 1.0493208987408115e+01 2.9936363918248681e+00 0 0 0
671 2 8.4062319986592708e+00 5.8721097515992371e+00 8.9358719896590344e+00 0 0 0
319 1 6.6289285505208166e+00 8.3473608836457895e+00 8.1468561828010380e+00 0 0 0
320 2 6.6102572033991702e+00 9.1752567926272146e+00 8.6786014579775284e+00 0 0 0
321 2 7.0074466032959357e+00 7.6562776427295560e+00 8.6494282999330494e+00 0 0 0
322 1 1.2685436245455113e+01 8.0251028464839926e+00 1.9895854308628944e+00 0 0 0
323 2 1.1845573727219335e+01 8.3995281674296560e+00 2.3566621340571268e+00 0 0 0
324 2 1.2268991390829957e+01 7.4151117365146924e+00 1.2919850160294657e+00 0 0 0
328 1 9.9671493465877692e+00 9.7657695238881459e+00 5.0242564099087890e+00 0 0 0
329 2 9.5384349665751262e+00 9.3189920189217563e+00 5.7669301621222484e+00 0 0 0
330 2 9.4090802301149896e+00 1.0470758557134504e+01 4.6655062352933436e+00 0 0 0
220 1 3.9800409839760968e+00 1.0688799539496795e+01 3.9456136441606868e+00 0 0 0
24 2 -6.4895605234683185e-02 2.9014682950841131e+00 9.6127611693931190e+00 0 0 0
247 1 7.1295982537352254e+00 8.8341565689351071e+00 2.3933633486823369e-01 0 0 0
90 2 1.3625512720466306e+01 6.7591009727284601e-01 5.0403377775107465e+00 0 0 0
133 1 1.5799961542109289e+01 3.1886531929279709e+00 6.6799630349020669e+00 0 0 0
221 2 4.6894546472513365e+00 1.0505211135680320e+01 3.2279989714331574e+00 0 0 0
156 2 1.2044918872456662e+01 8.5971326871028453e-01 1.9902947340707287e+00 0 0 0
97 1 1.3557196430260214e+01 4.6433314366148206e+00 9.5308792349603166e+00 0 0 0
135 2 1.5852590052514024e+01 2.4042935739332933e+00 6.0961892703790515e+00 0 0 0
751 1 3.5295499320404757e+00 9.2814449329690554e+00 9.7230206456637518e+00 0 0 0
331 1 1.6018125700027504e+01 9.1964729980195852e+00 3.2173861596660069e-01 0 0 0
668 2 1.2989105883098901e+01 1.9102523546369774e+00 9.1408078577964282e+00 0 0 0
190 1 2.1456455282971287e-01 1.0417826510682271e+01 9.4630361637182290e+00 0 0 0
586 1 -7.8406057546050478e-01 6.0678515746096959e+00 9.6705949216620510e+00 0 0 0
22 1 8.7879836058778382e-01 2.6228878865712155e+00 9.5259989008614578e+00 0 0 0
399 2 8.2350245105479836e+00 7.4705766436270415e-02 1.0731799372689861e+00 0 0 0
103 1 1.0446456085060312e+01 2.7495886254310671e+00 2.3239078297600507e-01 0 0 0
117 2 9.8043818376518725e+00 8.0930264595546542e-01 2.4635417814764065e+00 0 0 0
780 2 1.2701519115313854e+01 9.5163680246340547e+00 1.0603226300029309e+00 0 0 0
99 2 1.2600014251408208e+01 4.5505037466386327e+00 9.6157945650388736e+00 0 0 0
524 2 -2.9431476775720289e+00 3.3804538018343067e+00 9.5867770692478604e+00 0 0 0
187 1 9.9380884349585941e-01 1.0195192706293508e+01 2.6252688649022027e-01 0 0 0
309 2 7.9101321499971000e+00 1.1264379382233814e+01 3.1618138101716724e+00 0 0 0
776 2 7.7703858995299795e+00 1.0684626763331147e+01 9.7400968361042182e+00 0 0 0
583 1 3.6078164592023017e+00 1.6726595246577742e+00 9.8763159218779393e+00 0 0 0
749 2 -1.5978599677242245e+00 1.0394991553860660e+01 1.5028367425336027e+01 0 0 0
714 2 1.8583756980061175e+00 1.0359042948156599e+01 1.6661519080644496e+01 0 0 0
249 2 8.7839793722358550e-01 9.2761493654421834e+00 1.8518220301283598e+01 0 0 0
728 2 -3.4122439309742898e+00 1.0901000235392564e+01 1.3772244327834949e+01 0 0 0
816 2 7.5755803165281002e+00 1.1066648962104054e+01 1.5454012679817314e+01 0 0 0
667 1 1.2754969200077669e+01 1.3744073723761252e+00 9.9076008879334037e+00 0 0 0
188 2 -5.6417896918107528e+00 9.4413739447866298e+00 1.8683398054217957e+01 0 0 0
191 2 4.1665636399710593e-01 9.7012317052106614e+00 1.0071748996946795e+01 0 0 0
658 1 9.3812259897530961e+00 2.9229982028562418e-01 1.1299377133347033e+01 0 0 0
655 1 3.1221442870166403e+00 5.7601951465494916e-01 1.7913258977023247e+01 0 0 0
798 2 1.0029560661235553e+01 9.3907841195948176e+00 1.6316662720188884e+01 0 0 0
588 2 -9.5775513746732965e-01 5.7328084217080653e+00 1.0640957590992279e+01 0 0 0
775 1 6.8052011945646784e+00 1.0556551450933965e+01 9.9771460548912039e+00 0 0 0
517 1 2.0545290464460804e+00 4.7751538637232933e+00 1.8730676153486616e+01 0 0 0
509 2 1.0706819486019281e-01 3.6616886136646609e-01 1.4594121055155934e+01 0 0 0
986 2 1.3636075769506286e+01 4.3033405138511927e-01 1.0989279965303572e+01 0 0 0
752 2 3.2443133111633564e+00 9.8153998128321547e+00 1.0556734350659781e+01 0 0 0
505 1 3.3728838432458526e+00 1.2908708768843602e+00 1.4121108392346336e+01 0 0 0
506 2 3.5504315070466284e+00 1.8479307033730459e+00 1.4933564452503170e+01 0 0 0
164 2 8.5314142614523014e+00 9.5877752668779359e-01 1.8868519161076424e+01 0 0 0
508 1 7.1772988465219445e-01 1.1641751758030454e+00 1.4614708349867364e+01 0 0 0
903 2 4.4074758391607567e+00 4.5334938553225806e-01 1.0997683979123678e+01 0 0 0
510 2 1.6044242364096375e+00 9.4656218300177797e-01 1.4317606481822724e+01 0 0 0
511 1 -4.1342482233897337e+00 6.5842790516588234e+00 1.4569115799608221e+01 0 0 0
512 2 -4.1960885219528761e+00 5.8664724537302400e+00 1.3907882200690905e+01 0 0 0
513 2 -4.0180161225491897e+00 6.0044491981458830e+00 1.5342536100024217e+01 0 0 0
514 1 -1.3434449996430455e+00 6.9073043995747456e+00 1.4620572783530736e+01 0 0 0
515 2 -1.1841083227626736e+00 6.0686974208931286e+00 1.5084125424205551e+01 0 0 0
516 2 -2.3073848647175272e+00 7.0527090237343959e+00 1.4499930948973491e+01 0 0 0
608 2 6.0949039631416762e+00 3.8160086309059662e+00 9.9457981567328808e+00 0 0 0
519 2 2.1794821839719587e+00 5.2831560912470632e+00 1.7929605779956308e+01 0 0 0
526 1 -2.7024241480454516e+00 2.6138331694340651e+00 1.8958463457261477e+01 0 0 0
522 2 2.1087150731831010e+00 4.9948290815107192e+00 1.1075452068387218e+01 0 0 0
523 1 -2.1438412579942567e+00 2.8714606860506722e+00 9.8907640060205502e+00 0 0 0
826 1 9.4528228235382681e+00 8.1463448098210840e+00 1.0875782496072452e+01 0 0 0
525 2 -2.2949979538014604e+00 2.4632696481013858e+00 1.0768276858366143e+01 0 0 0
815 2 8.9338272723273064e+00 1.1053079268890484e+01 1.6253098184043669e+01 0 0 0
590 2 1.1243225867924059e+01 8.7993313826153263e-01 1.4507972775942193e+01 0 0 0
529 1 1.0962167846431408e+00 6.4543487726736108e+00 1.6675878039539079e+01 0 0 0
530 2 1.0860950727037144e+00 5.8040248991544221e+00 1.5937604887429346e+01 0 0 0
531 2 1.9529326869142327e-01 6.4856702250106135e+00 1.6984573325824872e+01 0 0 0
532 1 2.3268731283912176e+00 6.4520803227645347e+00 1.2327452657085306e+01 0 0 0
533 2 3.1297362558089974e+00 7.0360401942994582e+00 1.2388579435449515e+01 0 0 0
534 2 2.1248034840721948e+00 6.1166716177099358e+00 1.3222414488602341e+01 0 0 0
535 1 -2.0297512682476366e+00 1.1814906107534322e+00 1.2350580316646978e+01 0 0 0
805 1 1.2654133457263077e+01 1.0581295557606184e+01 1.5909700142435474e+01 0 0 0
537 2 -1.0399049134336429e+00 1.0295609136475392e+00 1.2190853778047908e+01 0 0 0
538 1 -2.8353585432191850e+00 1.4064121485467007e+00 1.6692485239696460e+01 0 0 0
539 2 -3.7696279936391814e+00 1.0615947346518895e+00 1.6965958749547525e+01 0 0 0
540 2 -2.8793230382832724e+00 1.8282591668873400e+00 1.5792559493190570e+01 0 0 0
541 1 2.8086792287572191e+00 2.7685772387485788e+00 1.2129969749788645e+01 0 0 0
542 2 3.0749009941174759e+00 2.0748376976721481e+00 1.2742963668253880e+01 0 0 0
543 2 2.8519625314069539e+00 2.4306128118567072e+00 1.1166304795932321e+01 0 0 0
544 1 6.8778648435259004e-01 2.6845467290830523e+00 1.6949300808231406e+01 0 0 0
545 2 4.5426347159931879e-01 2.2941402353842166e+00 1.7823192895492898e+01 0 0 0
546 2 6.2617842266966317e-01 2.0069259252675522e+00 1.6237740487864162e+01 0 0 0
547 1 -3.5390634785127277e+00 5.0297383075013613e+00 1.6871362761192398e+01 0 0 0
548 2 -4.2145634149234104e+00 4.4096475734665308e+00 1.6511667631706505e+01 0 0 0
549 2 -3.8651906444278836e+00 5.3493598871108796e+00 1.7762183451544814e+01 0 0 0
550 1 -1.4794581035067398e+00 5.3415735497009251e+00 1.2220114698431301e+01 0 0 0
551 2 -9.3008221482668629e-01 4.6286985261917737e+00 1.2511706836856765e+01 0 0 0
552 2 -1.3701442068657488e+00 6.0320609314147449e+00 1.2942570404395653e+01 0 0 0
553 1 3.1629761210002139e+00 3.3398750351125694e+00 1.6139933126739720e+01 0 0 0
554 2 2.4382807827849344e+00 2.9338044189450132e+00 1.6617304506523613e+01 0 0 0
555 2 3.9372870805612257e+00 3.6419185320397061e+00 1.6640270114054395e+01 0 0 0
556 1 1.7313116534862960e-01 3.1850416934912795e+00 1.2991243630797543e+01 0 0 0
557 2 1.0568495635031523e+00 3.0089802300926167e+00 1.2492549699583865e+01 0 0 0
558 2 2.4224678151055201e-01 2.5012510615984236e+00 1.3669313111796734e+01 0 0 0
559 1 -3.9248347781935227e+00 4.4337382633178297e+00 1.3097517696744342e+01 0 0 0
560 2 -3.2596490609960451e+00 4.7399245353612844e+00 1.2464667933059017e+01 0 0 0
561 2 -3.4468893487738548e+00 3.8508521577629944e+00 1.3690620070950594e+01 0 0 0
562 1 -1.0728677627541057e+00 4.5612808587502505e+00 1.5751299271720598e+01 0 0 0
563 2 -4.8298363774437369e-01 3.8740094589314134e+00 1.6173612650203907e+01 0 0 0
564 2 -1.7797260395463139e+00 4.7350168581164400e+00 1.6413597120514542e+01 0 0 0
565 1 4.8544663968695563e+00 7.5257119154275101e+00 1.1630018532979214e+01 0 0 0
566 2 4.4599317341972888e+00 8.1982176322285216e+00 1.1028305407062591e+01 0 0 0
567 2 5.0183518674010879e+00 6.7567117425864280e+00 1.1016786699770755e+01 0 0 0
568 1 -1.3560931699144332e+00 7.1097882730391690e+00 1.8015067202810805e+01 0 0 0
569 2 -1.2239122997714613e+00 6.2069844779162784e+00 1.8312887835379971e+01 0 0 0
570 2 -6.9102655565858040e-01 7.6591111694224336e+00 1.8425127371715618e+01 0 0 0
518 2 1.0655821495989537e+00 4.6735813172446603e+00 1.8795623901135954e+01 0 0 -1
572 2 -5.6307663416819977e+00 1.3286914917783301e+00 1.8119679860786036e+01 0 0 0
794 2 1.2830031851725606e+01 1.0671378804719648e+01 1.2331983128773505e+01 0 0 0
834 2 5.8888827515424360e+00 1.0778376778266283e+01 1.4250586069762671e+01 0 0 0
576 2 7.7710912985556480e-01 1.3308440334448819e+00 1.0777867027003213e+01 0 0 0
577 1 1.8050691245277948e+00 4.9154326086877100e+00 1.4667547845442236e+01 0 0 0
578 2 1.1573361847857155e+00 4.3291169079102625e+00 1.4240817416538102e+01 0 0 0
579 2 2.5165872389604456e+00 4.3548756047586004e+00 1.5061788665841805e+01 0 0 0
580 1 -2.5333410307440598e+00 2.6083952523756744e+00 1.4473515210673163e+01 0 0 0
581 2 -2.3235079238838381e+00 2.0621342826018707e+00 1.3653502403058397e+01 0 0 0
582 2 -1.8539353343657523e+00 3.3001379405204165e+00 1.4655057522918550e+01 0 0 0
832 1 6.4830745163951606e+00 1.0181182257076317e+01 1.4793509230724769e+01 0 0 0
105 2 3.3445102956051134e+00 2.0747850660167355e+00 1.8787172715140304e+01 0 0 0
589 1 1.2205375391013154e+01 1.0084294297721152e+00 1.4392386506239335e+01 0 0 0
333 2 8.8294909941188333e+00 8.5896894989287063e+00 1.8864359372676414e+01 0 0 0
591 2 1.2264332688568624e+01 1.8586112705288940e+00 1.4950013583267530e+01 0 0 0
592 1 9.5287320353673497e+00 1.5200964541906452e+00 1.4681873219370191e+01 0 0 0
810 2 9.1372840575571121e+00 1.1029503043774938e+01 1.2429870284569258e+01 0 0 0
594 2 9.2200447419676141e+00 2.2466068451190115e+00 1.4112121262691465e+01 0 0 0
595 1 4.6789883088226967e+00 6.3945415325057970e+00 1.4780457728439806e+01 0 0 0
596 2 4.7968907554344860e+00 5.8019719069786895e+00 1.5550172736256137e+01 0 0 0
597 2 4.7893248359175420e+00 5.8276229921020981e+00 1.3979807323875782e+01 0 0 0
598 1 7.8384705256251426e+00 6.5821510932016647e+00 1.4692866004190382e+01 0 0 0
599 2 7.0184278488012746e+00 7.1679553122823947e+00 1.4607142099996087e+01 0 0 0
600 2 7.8538278235958554e+00 6.1293249553270739e+00 1.3792830274182688e+01 0 0 0
827 2 1.0166295396580161e+01 7.6409042570290966e+00 1.1287478213464588e+01 0 0 0
603 2 1.1009377505563291e+01 5.4743855482821075e+00 1.8289276257503616e+01 0 0 0
163 1 9.3747688561102454e+00 1.5329845076710007e+00 1.9073387269797411e+01 0 0 -1
605 2 1.0955684652047706e+01 5.1893576292858432e+00 1.0592570854167324e+01 0 0 0
797 2 1.1248244843524560e+01 1.0239968822664618e+01 1.6756262083429593e+01 0 0 0
809 2 1.0714337121283799e+01 1.0646125788289316e+01 1.2447640677276404e+01 0 0 0
98 2 1.3814761060127262e+01 5.2173717654384122e+00 1.0282203515125715e+01 0 0 0
609 2 6.4048953188452362e+00 2.6195834530685498e+00 1.0966811858124331e+01 0 0 0
536 2 -2.5099598284260631e+00 4.0288114315301582e-01 1.2056102771991716e+01 0 0 0
611 2 6.5145138099090847e+00 2.4131020763185576e+00 1.8225178241824853e+01 0 0 0
613 1 1.0740890322603414e+01 6.3073083050781520e+00 1.6635564635263179e+01 0 0 0
614 2 1.1299907081901997e+01 7.0391672915880248e+00 1.6903211071569519e+01 0 0 0
615 2 9.8728368738591534e+00 6.6934250649590856e+00 1.6912935122589566e+01 0 0 0
616 1 1.1483254091908654e+01 6.3816749101530528e+00 1.1888643023546116e+01 0 0 0
617 2 1.1388695175486182e+01 6.0098568932185605e+00 1.2761155817873664e+01 0 0 0