ITEM: TIMESTEP
1000000
ITEM: NUMBER OF ATOMS
1008
ITEM: BOX BOUNDS xy xz yz pp pp pp
-6.4146411211713721e+00 1.8186634996403495e+01 2.3053834461895847e-02
8.9055718323342248e-02 2.2483650404542885e+01 -6.6506149592247157e+00
2.1586605055376928e-01 1.9289849949441475e+01 2.3171228718992473e-03
ITEM: ATOMS id type x y z 
1 1 6.67979 1.16125 4.56664 
2 2 7.34629 0.457284 4.74907 
3 2 6.75775 1.29426 3.63304 
4 1 3.86614 0.987069 5.06676 
5 2 4.80936 0.693581 4.96585 
6 2 3.833 1.33262 5.95938 
7 1 -0.482184 6.56594 4.89179 
8 2 -0.599616 6.36452 5.84524 
9 2 -0.913947 7.42696 4.78437 
10 1 2.179 6.36489 4.75473 
11 2 1.26228 6.6857 4.78885 
12 2 2.85729 7.04666 4.59919 
13 1 4.98972 5.13004 9.5413 
14 2 4.90118 5.74315 8.79351 
15 2 4.06226 4.81023 9.6491 
16 1 -0.782103 4.63588 19.1194 
17 2 -1.50036 3.98041 19.0354 
18 2 5.85194 4.93274 0.913666 
19 1 -5.58231 3.01554 19.0145 
20 2 -5.96916 3.9629 18.9957 
21 2 0.701664 2.76228 0.795536 
22 1 0.664137 2.49488 9.37525 
23 2 1.16844 3.33819 9.38638 
24 2 -0.267574 2.73581 9.60681 
25 1 4.53673 6.32434 7.23135 
26 2 5.18581 7.01834 7.19302 
27 2 3.70749 6.65824 7.53011 
28 1 5.92039 6.17527 2.53523 
29 2 5.87837 5.90889 3.49186 
30 2 5.3513 6.87655 2.41698 
31 1 1.18501 1.16059 2.60067 
32 2 2.10612 0.942889 2.35116 
33 2 1.1686 1.43635 3.51714 
34 1 0.237426 1.16433 7.29946 
35 2 -0.607147 0.678903 7.41188 
36 2 0.431628 1.6087 8.16179 
37 1 6.25959 2.6213 2.317 
38 2 5.46711 2.72975 2.91081 
39 2 6.90411 3.29235 2.69509 
40 1 4.24688 2.77999 7.18402 
41 2 5.16009 2.9821 7.04319 
42 2 3.74068 3.56848 7.04093 
43 1 -0.275779 5.15554 7.45891 
44 2 -0.937684 4.47751 7.22869 
45 2 -0.546027 5.52825 8.35225 
46 1 2.04118 4.74433 2.64789 
47 2 1.15643 4.40656 2.9666 
48 2 2.35621 5.17722 3.46904 
49 1 6.88745 3.37308 6.30888 
50 2 6.26164 3.98228 5.82032 
51 2 6.88136 2.59165 5.7848 
52 1 4.01198 3.09255 3.6352 
53 2 3.1924 3.30145 3.09397 
54 2 3.91304 2.18124 4.02215 
55 1 -0.494107 3.99245 3.43527 
56 2 -0.738462 4.87118 3.80593 
57 2 -0.191257 3.37786 4.18593 
58 1 2.08361 4.27669 6.55717 
59 2 2.23323 5.05639 6.06891 
60 2 1.22232 4.50569 6.97366 
61 1 8.30403 6.88893 1.5971 
62 2 7.37679 6.68202 2.05447 
63 2 8.65091 6.12858 0.997933 
64 1 2.22005 6.89049 8.34832 
65 2 1.56485 7.42432 7.80602 
66 2 2.70224 7.61624 8.866 
67 1 -2.2353 0.501169 8.50213 
68 2 -2.50684 1.32741 8.92084 
69 2 14.9023 0.0966249 7.97725 
70 1 3.80596 0.737042 1.70385 
71 2 3.46366 0.125171 0.971509 
72 2 4.14066 1.56883 1.21052 
73 1 5.21047 5.20721 4.9337 
74 2 4.74831 5.66051 5.69788 
75 2 4.67148 4.50193 4.49586 
76 1 0.91139 2.38755 5.06091 
77 2 0.499706 1.79849 5.75147 
78 2 1.42381 3.01134 5.62998 
79 1 0.56194 1.55398 19.0162 
80 2 6.79967 2.09516 0.589372 
81 2 -0.163497 0.877266 18.7432 
82 1 2.71459 6.03173 0.256071 
83 2 2.4436 5.63118 1.12501 
84 2 3.14094 6.85081 0.570543 
85 1 15.5436 1.1244 4.82229 
86 2 15.9165 0.189838 4.85474 
87 2 15.5685 1.3508 3.86882 
88 1 12.6502 1.37388 5.27323 
89 2 12.3535 2.08593 4.5977 
90 2 13.6311 1.2217 5.08461 
91 1 8.3571 6.5318 4.89095 
92 2 8.11004 5.67036 4.54287 
93 2 9.32518 6.75088 4.66322 
94 1 11.0165 6.70428 4.51143 
95 2 11.5553 7.41119 4.81635 
96 2 11.203 5.98173 5.12838 
97 1 14.1729 5.10154 9.57057 
98 2 14.3804 5.81411 10.1802 
99 2 13.1793 4.9449 9.76754 
100 1 14.5735 4.98361 0.342922 
101 2 14.534 5.37787 1.20801 
102 2 14.1666 4.111 0.39985 
103 1 10.2338 2.33749 0.764438 
104 2 9.50393 3.01479 0.802412 
105 2 3.32538 1.78844 19.0636 
106 1 9.61774 2.93992 9.8682 
107 2 9.67291 2.06065 10.3784 
108 2 8.6788 3.12427 9.87459 
109 1 13.8005 6.398 7.32517 
110 2 14.2619 5.80429 8.03563 
111 2 13.0438 6.69305 7.79023 
112 1 14.947 6.43923 2.5503 
113 2 14.3751 7.25204 2.68779 
114 2 15.8671 6.74261 2.53376 
115 1 10.4352 0.919796 2.83769 
116 2 10.1021 1.54148 2.12016 
117 2 9.63299 0.370602 2.8237 
118 1 9.30164 1.65222 7.36903 
119 2 9.37371 2.23479 8.14193 
120 2 9.37577 2.10559 6.49891 
121 1 14.9586 2.781 2.7878 
122 2 15.6479 3.37239 3.02733 
123 2 15.1663 2.47989 1.88529 
124 1 13.1043 2.92126 7.66531 
125 2 14.0237 3.16903 7.3817 
126 2 12.8103 2.30999 6.92502 
127 1 8.40211 5.17674 7.41341 
128 2 7.90855 4.48141 6.98054 
129 2 8.3795 5.84162 6.68681 
130 1 10.6676 5.12336 2.07083 
131 2 11.1816 4.43562 2.54042 
132 2 10.8056 5.91014 2.67442 
133 1 15.5797 3.59414 6.3336 
134 2 15.0733 3.88139 5.55804 
135 2 15.7463 2.66524 6.06117 
136 1 12.3745 3.36608 3.37742 
137 2 12.7156 3.93729 4.06328 
138 2 13.1685 3.02683 2.91278 
139 1 8.12102 4.29048 3.25417 
140 2 8.70291 4.76321 2.64687 
141 2 8.64186 3.75473 3.90533 
142 1 11.1517 4.3798 6.53206 
143 2 11.9005 4.10804 7.08963 
144 2 10.4511 4.64549 7.17608 
145 1 17.3916 7.43906 2.01177 
146 2 17.4635 6.74614 1.39173 
147 2 17.1129 8.1374 1.41615 
148 1 11.2173 7.09556 8.20809 
149 2 10.9603 6.44625 8.87853 
150 2 11.5479 7.89331 8.62781 
151 1 6.87975 0.675584 8.07321 
152 2 7.6764 0.990628 7.63929 
153 2 6.63786 1.35462 8.7181 
154 1 12.9847 0.405444 1.99078 
155 2 13.2312 1.25054 1.50831 
156 2 12.1289 0.486896 2.43814 
157 1 14.0043 5.18875 4.86623 
158 2 14.4474 5.66421 4.11479 
159 2 14.0172 5.77901 5.59696 
160 1 9.88381 2.81359 4.88012 
161 2 10.5716 3.4132 5.32058 
162 2 10.1991 2.28647 4.10862 
163 1 16.0072 1.62101 0.548459 
164 2 8.72377 1.03523 19.0553 
165 2 16.5373 0.859086 0.893344 
166 1 4.98446 6.1921 18.9761 
167 2 11.124 5.71671 0.670424 
168 2 4.34228 6.86279 18.5742 
169 1 6.74517 8.67044 4.74776 
170 2 7.4072 7.94215 4.97775 
171 2 6.79801 9.24599 5.52893 
172 1 3.98653 8.44663 5.23036 
173 2 3.67912 9.16691 4.68391 
174 2 4.89913 8.30237 4.94501 
175 1 -0.429435 14.1071 5.05628 
176 2 -0.431305 13.6888 5.94896 
177 2 -1.11799 14.808 4.94945 
178 1 2.22865 14.0144 5.09209 
179 2 1.32775 14.3542 5.06274 
180 2 2.81499 14.7637 5.18942 
181 1 5.24911 12.2814 9.46138 
182 2 5.13178 12.8278 8.63908 
183 2 5.36964 12.9632 10.1396 
184 1 5.77074 12.4111 0.364811 
185 2 6.74355 12.3758 0.334671 
186 2 -1.12259 13.0589 18.7875 
187 1 1.26359 10.4385 0.682935 
188 2 1.02237 9.6179 0.243355 
189 2 2.26463 10.4682 0.506112 
190 1 0.710971 10.2913 9.2222 
191 2 0.683277 9.60592 9.89274 
192 2 0.697923 9.75717 8.39757 
193 1 4.84481 13.909 7.34419 
194 2 4.8253 13.4979 6.40546 
195 2 3.94865 14.2216 7.55872 
196 1 6.28276 13.9672 2.35927 
197 2 5.86403 13.6813 3.22063 
198 2 5.99375 13.1893 1.78086 
199 1 1.60475 8.51642 3.13768 
200 2 1.56006 9.36596 2.67317 
201 2 0.80403 8.08122 2.69617 
202 1 0.260477 8.32729 7.23226 
203 2 -0.607631 8.33075 7.65003 
204 2 0.196731 9.01412 6.5013 
205 1 5.85324 10.2764 2.6158 
206 2 5.90215 9.55947 3.28881 
207 2 6.18315 9.94756 1.77141 
208 1 4.10533 10.3551 7.30712 
209 2 3.34851 10.9629 7.15393 
210 2 3.97841 9.57624 6.66712 
211 1 -0.108791 12.7809 7.37149 
212 2 -0.33757 12.9745 8.33106 
213 2 -0.553227 11.9436 7.06245 
214 1 1.8195 12.818 2.49443 
215 2 1.99566 13.4186 3.28017 
216 2 0.93322 12.4339 2.55627 
217 1 6.69541 10.7943 6.4919 
218 2 7.3573 11.2811 6.99253 
219 2 5.84181 10.6556 6.98875 
220 1 3.38061 10.7783 3.31717 
221 2 4.14351 10.5507 2.73907 
222 2 2.83439 11.3759 2.81059 
223 1 -0.538661 11.5927 3.48797 
224 2 -0.16808 10.9736 4.14761 
225 2 -0.650148 12.4285 3.95928 
226 1 2.1501 11.7939 6.5153 
227 2 2.28308 12.56 5.90612 
228 2 1.31228 11.9466 7.02927 
229 1 8.89923 14.8722 1.55178 
230 2 9.62687 15.1091 2.16785 
231 2 8.13786 14.6389 2.0361 
232 1 2.64363 14.5961 8.54851 
233 2 3.00453 15.3227 9.07662 
234 2 2.48747 13.8738 9.22158 
235 1 -2.21668 7.98192 8.1087 
236 2 -2.52652 8.76279 8.565 
237 2 14.9301 7.56405 7.57655 
238 1 3.77679 8.12093 1.47212 
239 2 3.06843 8.23725 2.12167 
240 2 3.8112 8.97624 1.04007 
241 1 5.13244 12.6117 4.826 
242 2 5.83054 11.9329 4.86036 
243 2 4.31461 12.1073 4.52681 
244 1 0.608972 9.83235 5.2548 
245 2 1.01658 9.35297 4.45868 
246 2 1.34499 10.4428 5.57671 
247 1 6.87282 9.00932 0.551259 
248 2 7.53843 8.28692 0.746402 
249 2 0.616448 9.61364 19.0017 
250 1 -3.49615 13.7939 19.1682 
251 2 2.6471 13.5561 0.949756 
252 2 3.71487 14.5541 0.294891 
253 1 15.7971 8.70465 5.03417 
254 2 15.9199 9.42302 5.67603 
255 2 15.8601 9.17258 4.15598 
256 1 12.9259 8.6002 5.45286 
257 2 13.8016 8.36884 5.18897 
258 2 12.6615 9.25345 4.81289 
259 1 8.68589 13.871 5.16359 
260 2 8.58435 13.3952 6.01646 
261 2 7.86902 14.386 5.06575 
262 1 11.1848 13.7551 4.72828 
263 2 10.277 14.0769 4.90881 
264 2 11.8247 14.5431 4.73049 
265 1 14.2427 12.5414 9.67031 
266 2 14.1185 12.9073 8.77575 
267 2 13.3252 12.1597 9.7877 
268 1 8.17547 12.2517 19.1118 
269 2 8.05438 12.8936 18.3309 
270 2 7.38233 11.6816 19.2388 
271 1 3.39917 10.2999 19.1511 
272 2 10.1773 9.89537 0.968146 
273 2 4.29982 10.586 18.8602 
274 1 9.6365 10.0926 9.6396 
275 2 9.86403 9.23661 10.2078 
276 2 9.73951 9.73389 8.75488 
277 1 13.6184 13.8564 7.05348 
278 2 13.9613 13.5814 6.22255 
279 2 14.3125 14.4455 7.46504 
280 1 15.2399 13.9067 2.20495 
281 2 15.1825 13.1461 1.51073 
282 2 16.1473 14.2752 2.00731 
283 1 10.1213 8.85255 2.46191 
284 2 10.0486 9.10988 3.39153 
285 2 9.52012 8.06856 2.262 
286 1 9.06038 8.2489 7.10112 
287 2 9.79406 7.72412 7.52601 
288 2 8.29709 7.79347 7.4091 
289 1 15.2059 10.0006 2.66509 
290 2 15.7655 10.8244 2.72845 
291 2 15.312 9.66103 1.7797 
292 1 13.3397 10.5863 7.37174 
293 2 12.6011 11.122 6.95854 
294 2 13.4977 9.94348 6.64351 
295 1 8.60429 12.4647 7.33808 
296 2 8.43365 12.8382 8.24337 
297 2 9.50746 12.1772 7.24234 
298 1 10.8187 12.1484 2.50421 
299 2 10.9616 12.8861 3.13681 
300 2 10.0213 11.7993 2.8696 
301 1 15.7617 11.1331 6.34497 
302 2 15.0494 11.0728 7.03008 
303 2 15.4638 11.774 5.64733 
304 1 12.8679 10.6385 3.51855 
305 2 12.2149 10.9478 2.90895 
306 2 13.6338 10.3195 2.93152 
307 1 8.25767 11.5276 3.84885 
308 2 8.19292 12.2131 4.53268 
309 2 7.47283 11.5201 3.30342 
310 1 11.4507 11.692 6.19473 
311 2 10.9701 11.0231 5.70755 
312 2 11.5263 12.507 5.65914 
313 1 17.6933 14.5846 1.19311 
314 2 17.8492 13.7287 0.657558 
315 2 0.504962 14.7751 1.75722 
316 1 11.101 14.1215 8.12935 
317 2 10.3996 14.6498 7.65345 
318 2 11.7883 13.9575 7.46399 
319 1 6.45202 7.83539 8.34732 
320 2 6.49212 8.75328 8.60405 
321 2 6.88779 7.37503 9.06485 
322 1 12.5685 7.98445 1.75041 
323 2 11.6081 8.07843 2.06179 
324 2 12.5451 7.29842 1.08279 
325 1 14.1964 12.7717 4.48588 
326 2 13.4886 12.1945 4.15636 
327 2 14.5617 13.0739 3.61829 
328 1 9.86935 9.7359 4.95632 
329 2 9.51962 9.17096 5.66812 
330 2 9.10814 10.3433 4.70999 
331 1 9.24079 8.75366 19.2806 
332 2 9.50849 9.37112 18.5719 
333 2 8.65326 8.06021 18.7966 
334 1 4.83181 13.6466 19.2109 
335 2 11.2632 13.0982 0.919847 
336 2 12.0459 14.3624 0.435198 
337 1 6.86048 15.9614 4.72837 
338 2 5.9182 15.7157 4.76222 
339 2 6.83443 16.4122 3.87552 
340 1 3.82846 16.0481 5.15148 
341 2 3.95655 16.8233 4.53236 
342 2 3.80299 16.3546 6.06245 
343 1 -0.637675 21.6184 5.26203 
344 2 0.307103 21.7944 5.01806 
345 2 -0.622712 21.0472 6.06011 
346 1 2.27005 21.3168 4.80395 
347 2 2.81832 22.1301 4.94406 
348 2 2.34847 20.9554 3.90976 
349 1 5.097 19.9433 9.59145 
350 2 5.81967 19.2671 9.4823 
351 2 4.25101 19.4492 9.79208 
352 1 5.37489 19.9896 0.325094 
353 2 -1.34761 20.7756 18.7876 
354 2 -0.362671 19.6199 19.2633 
355 1 0.841231 17.5976 0.649155 
356 2 -5.88151 16.8899 19.0872 
357 2 1.7159 17.9254 0.46465 
358 1 0.43762 17.4644 9.68463 
359 2 1.20138 18.1026 9.56393 
360 2 0.822205 16.7642 10.2744 
361 1 5.08856 21.3024 7.31912 
362 2 5.68829 22.0641 7.40344 
363 2 5.20308 20.6971 8.10645 
364 1 5.63885 21.2727 2.76677 
365 2 5.55862 20.6765 2.02485 
366 2 5.04061 22.0513 2.59197 
367 1 1.56061 16.2056 2.70657 
368 2 2.55425 16.0366 2.56252 
369 2 1.30755 16.799 1.99129 
370 1 0.26515 15.7705 7.39142 
371 2 0.314018 16.5036 8.0735 
372 2 0.861583 15.0978 7.81277 
373 1 6.50095 17.5453 2.34375 
374 2 7.11613 18.2288 2.71238 
375 2 5.5574 17.7963 2.54622 
376 1 4.09966 17.5185 7.8378 
377 2 3.34254 18.0683 7.6007 
378 2 4.94303 17.8348 7.50616 
379 1 -0.660375 19.768 7.36787 
380 2 0.318167 19.5854 7.2605 
381 2 -0.811873 20.1458 8.32944 
382 1 2.0249 19.8166 2.46828 
383 2 1.08621 19.5982 2.66428 
384 2 2.05154 20.6236 1.89787 
385 1 6.61675 18.0976 6.59418 
386 2 6.41371 18.7346 5.8262 
387 2 6.82212 17.3214 6.07935 
388 1 4.28572 18.2938 3.63483 
389 2 4.40696 19.084 4.23577 
390 2 3.49817 18.5176 3.08645 
391 1 -0.531827 19.1322 3.72176 
392 2 -0.521832 20.0056 4.13545 
393 2 -0.205441 18.5162 4.36657 
394 1 1.98996 19.0836 6.65076 
395 2 2.30697 19.7922 6.06144 
396 2 1.64115 18.4022 6.04323 
397 1 8.16995 21.8977 1.77169 
398 2 7.1811 21.7914 2.02977 
399 2 8.06876 0.151321 1.0326 
400 1 2.17963 21.7313 8.25704 
401 2 1.50909 22.2735 7.84945 
402 2 2.71323 21.3671 7.51717 
403 1 -2.32932 15.3612 8.39223 
404 2 -1.52713 15.2441 7.83687 
405 2 -2.22977 16.3128 8.72796 
406 1 4.18511 15.8494 1.75793 
407 2 4.99174 15.3548 1.86871 
408 2 4.23251 16.4907 1.06241 
409 1 5.61437 20.0077 5.00996 
410 2 5.70184 20.5362 4.24023 
411 2 5.54037 20.5321 5.82186 
412 1 0.891056 17.3479 5.10132 
413 2 1.20994 16.9244 4.27818 
414 2 0.76173 16.6267 5.78608 
415 1 0.372918 16.4628 19.2039 
416 2 7.8124 15.8447 0.280163 
417 2 6.73362 16.939 1.01847 
418 1 -4.19961 21.3137 19.2339 
419 2 -4.79996 21.7514 18.6886 
420 2 -3.72298 20.6747 18.5774 
421 1 15.5375 15.9396 4.79573 
422 2 14.6343 15.7577 5.01094 
423 2 15.5002 16.1522 3.8567 
424 1 12.736 16.0324 5.03696 
425 2 12.5728 16.2451 6.00274 
426 2 12.7111 16.891 4.55907 
427 1 8.31256 21.616 5.02833 
428 2 8.14533 21.1326 5.88048 
429 2 9.26455 21.5937 4.85731 
430 1 10.8968 21.5604 4.99173 
431 2 11.1776 20.953 5.80057 
432 2 11.4384 22.3621 5.06906 
433 1 13.8821 19.7097 9.37165 
434 2 14.4965 18.9553 9.50691 
435 2 12.9729 19.4912 9.62498 
436 1 14.3404 19.7411 0.67419 
437 2 14.3819 20.0271 1.61835 
438 2 15.3425 19.707 0.411628 
439 1 9.92263 18.0866 0.645675 
440 2 10.7319 18.541 0.415615 
441 2 3.23329 17.2731 19.0967 
442 1 9.58603 17.5029 9.88531 
443 2 9.66564 16.6518 10.4206 
444 2 10.1465 18.1782 10.2671 
445 1 13.6254 21.6199 7.43131 
446 2 12.7787 22.0262 7.64697 
447 2 13.7208 20.7823 7.98326 
448 1 15.0124 21.2306 2.88593 
449 2 14.5547 20.9015 3.71081 
450 2 14.4373 21.8924 2.46458 
451 1 10.7616 16.7255 2.90443 
452 2 10.5682 17.0537 2.0129 
453 2 11.5324 16.1949 2.81173 
454 1 9.12385 15.8916 7.45743 
455 2 9.24711 16.511 6.71996 
456 2 9.2684 16.4089 8.26649 
457 1 15.438 17.3408 2.53938 
458 2 14.5714 17.8102 2.5882 
459 2 16.0908 17.9429 2.89205 
460 1 12.7539 17.5169 7.60273 
461 2 12.1592 18.3491 7.57668 
462 2 13.5835 17.8824 7.33228 
463 1 8.47734 19.9619 7.30607 
464 2 8.15853 20.3548 8.10995 
465 2 7.91472 19.1576 7.18961 
466 1 10.813 19.973 2.80788 
467 2 10.6262 20.4988 2.00236 
468 2 10.986 20.6404 3.49447 
469 1 15.3459 18.2321 6.43478 
470 2 -1.7964 18.6834 6.82206 
471 2 15.6511 17.3331 6.3149 
472 1 13.0672 18.1946 3.56487 
473 2 12.3058 18.574 3.13103 
474 2 13.2971 18.8229 4.27502 
475 1 8.30385 19.0317 3.80903 
476 2 7.8411 19.7446 4.20994 
477 2 9.05988 19.4474 3.29765 
478 1 11.1702 19.5359 6.871 
479 2 10.8027 18.8315 6.39465 
480 2 10.5271 19.8113 7.48924 
481 1 17.2399 21.962 1.68718 
482 2 -0.0761901 0.208139 2.15977 
483 2 16.5471 21.7029 2.33253 
484 1 11.2221 22.3639 8.55816 
485 2 10.5963 0.541029 8.0907 
486 2 11.7018 0.671151 9.14801 
487 1 6.55888 15.5563 8.52276 
488 2 6.04762 14.8682 8.03248 
489 2 7.35455 15.6705 7.96599 
490 1 13.1645 15.5868 1.55255 
491 2 13.3421 16.4624 1.14752 
492 2 14.0131 15.2126 1.7778 
493 1 14.1265 20.2895 5.32009 
494 2 13.7327 20.8971 5.95538 
495 2 14.6408 19.6259 5.82689 
496 1 10.0497 17.5595 5.45159 
497 2 9.29653 17.9322 4.96227 
498 2 10.4518 17.0088 4.77093 
499 1 9.41866 16.4636 19.2127 
500 2 16.779 15.7964 0.462106 
501 2 15.8494 16.9176 1.01244 
502 1 11.5043 21.1683 0.308866 
503 2 5.29462 20.755 18.5935 
504 2 12.1695 21.6642 0.796554 
505 1 3.11162 1.21949 14.1187 
506 2 3.09348 2.10795 14.4878 
507 2 3.81222 0.7752 14.5822 
508 1 0.613727 1.25456 14.4739 
509 2 0.102309 0.450877 14.5634 
510 2 1.56824 1.02149 14.3755 
511 1 -3.91601 6.46244 14.5964 
512 2 -4.04232 5.66982 14.01 
513 2 -3.82047 6.07901 15.5082 
514 1 -1.26386 6.49021 14.0791 
515 2 -1.05932 5.74427 14.6732 
516 2 -2.17036 6.68927 14.3522 
517 1 1.93781 4.68738 18.8218 
518 2 1.04141 4.30261 18.9765 
519 2 1.81158 5.22816 18.0587 
520 1 2.20043 4.63283 9.78169 
521 2 2.01014 5.43131 9.23385 
522 2 2.10585 4.9895 10.7554 
523 1 -2.31719 2.67947 10.0298 
524 2 -2.77624 3.49111 10.1472 
525 2 -2.15316 2.32763 10.9285 
526 1 -2.92106 2.83544 19.1708 
527 2 -2.81636 2.39239 18.3072 
528 2 -3.83656 3.1227 19.2116 
529 1 1.49546 6.51229 16.8344 
530 2 1.55249 6.10318 15.9363 
531 2 0.53132 6.50136 17.0448 
532 1 2.54252 6.2306 12.039 
533 2 3.5164 6.20021 12.0387 
534 2 2.37148 5.84573 12.9325 
535 1 -1.99876 1.15211 12.2089 
536 2 -2.71074 0.463401 12.0355 
537 2 -1.12165 0.70404 12.0241 
538 1 -3.01211 1.31685 16.8711 
539 2 -4.01348 1.11576 16.8265 
540 2 -2.8413 1.87965 16.0847 
541 1 3.18544 2.69541 11.6491 
542 2 3.18543 1.9066 12.1511 
543 2 3.25213 2.4264 10.719 
544 1 0.741268 2.68492 16.5687 
545 2 0.644326 2.31486 17.4396 
546 2 0.576066 1.92396 15.8827 
547 1 -3.50044 4.82911 16.8548 
548 2 -4.33542 4.40157 16.593 
549 2 -3.5862 5.09975 17.8218 
550 1 -1.46721 5.00034 11.9836 
551 2 -0.775485 4.30902 12.1574 
552 2 -1.45956 5.67282 12.743 
553 1 3.22451 3.40763 15.742 
554 2 2.64927 3.07136 16.4216 
555 2 4.06633 3.77342 16.1654 
556 1 0.648322 3.34808 12.5881 
557 2 1.3855 3.14074 11.9907 
558 2 0.573743 2.53239 13.1204 
559 1 -3.91443 4.3398 13.1239 
560 2 -3.28818 4.53722 12.3824 
561 2 -3.46384 3.49479 13.55 
562 1 -0.991242 4.41861 15.7173 
563 2 -0.345855 3.87284 16.2525 
564 2 -1.75518 4.53276 16.3308 
565 1 5.08097 7.06707 11.3447 
566 2 4.79372 7.87993 10.8837 
567 2 5.1981 6.29853 10.6889 
568 1 -1.08597 7.20991 17.7819 
569 2 -1.40722 6.47347 18.2877 
570 2 -0.904007 7.95397 18.4209 
571 1 -5.53332 0.553055 17.4033 
572 2 -5.9092 1.18482 18.0182 
573 2 11.5873 22.4661 17.0592 
574 1 0.538119 0.364318 11.2615 
575 2 0.115109 22.0374 10.7341 
576 2 0.697087 1.08067 10.6126 
577 1 1.7875 5.33457 14.4024 
578 2 1.12353 4.76301 13.9279 
579 2 2.38909 4.61209 14.7841 
580 1 -2.54037 2.55084 14.482 
581 2 -2.34867 1.915 13.7768 
582 2 -1.63997 2.84005 14.7281 
583 1 3.60652 1.43025 9.33896 
584 2 2.95674 0.75868 8.99036 
585 2 3.82648 1.99391 8.49223 
586 1 -0.895021 6.20864 9.74214 
587 2 -1.58364 6.64048 9.27174 
588 2 -1.2668 5.70548 10.5445 
589 1 12.0092 0.882134 14.4125 
590 2 11.033 0.833781 14.5034 
591 2 12.3225 1.56093 15.0665 
592 1 9.15423 1.3318 15.031 
593 2 8.69402 0.448687 14.9015 
594 2 8.93099 1.92915 14.2779 
595 1 5.27972 6.42777 14.4692 
596 2 5.24651 5.99347 15.3533 
597 2 5.14882 5.70298 13.8558 
598 1 7.94197 6.35162 14.1772 
599 2 6.97293 6.58016 14.2811 
600 2 8.0437 6.04356 13.2296 
601 1 10.72 5.4904 19.2714 
602 2 16.587 5.08654 0.540284 
603 2 10.5935 5.61118 18.2883 
604 1 11.455 5.07447 10.0945 
605 2 11.3595 5.38979 11.0394 
606 2 10.8934 4.26334 10.121 
607 1 6.72518 2.70335 9.86642 
608 2 6.10923 3.43119 9.61521 
609 2 6.54737 2.49297 10.7738 
610 1 13.0215 2.58623 0.406555 
611 2 6.37277 2.14398 18.6115 
612 2 12.1085 2.90207 0.572518 
613 1 10.4868 6.49005 16.7976 
614 2 11.0478 7.1944 17.2062 
615 2 9.57077 6.73557 17.0149 
616 1 11.4895 6.42649 12.26 
617 2 11.3654 6.01226 13.1602 
618 2 12.4682 6.5913 12.2249 
619 1 6.78596 1.26944 12.3411 
620 2 6.17145 0.478613 12.0067 
621 2 7.70788 1.15442 12.0025 
622 1 6.09947 1.17908 17.2286 
623 2 5.14236 0.861715 17.3329 
624 2 6.08734 1.80769 16.5091 
625 1 11.9797 2.72491 12.4462 
626 2 12.0969 1.99521 13.0697 
627 2 12.4598 3.50206 12.808 
628 1 9.9258 2.8415 16.9487 
629 2 9.95332 2.42715 17.8347 
630 2 9.70099 2.15334 16.2318 
631 1 5.15962 4.78927 16.7543 
632 2 5.12085 5.24316 17.6471 
633 2 6.08151 4.42349 16.6929 
634 1 7.54608 4.72511 11.8978 
635 2 6.58344 4.62009 12.0795 
636 2 7.6644 5.25465 11.1209 
637 1 12.3756 3.19905 15.8346 
638 2 11.8009 3.85379 15.3542 
639 2 11.8149 3.0897 16.6385 
640 1 9.43638 3.68689 13.3789 
641 2 8.76807 4.02165 12.6629 
642 2 10.1297 3.27077 12.8413 
643 1 4.9683 4.17778 13.0213 
644 2 4.26607 3.65274 12.4789 
645 2 5.43305 3.523 13.6275 
646 1 7.74072 4.15467 15.8737 
647 2 8.53798 4.02394 16.4671 
648 2 7.94845 4.89524 15.2336 
649 1 14.1089 7.09599 11.2762 
650 2 13.6613 7.76327 10.7243 
651 2 -3.13453 7.63524 11.7885 
652 1 7.88154 7.15337 17.7286 
653 2 7.1882 7.67864 17.2499 
654 2 7.61361 6.34635 18.1468 
655 1 3.4449 0.515444 17.9642 
656 2 2.72735 22.4271 17.435 
657 2 3.91921 22.263 18.5354 
658 1 9.50872 0.754671 11.4022 
659 2 10.3438 0.402098 11.6941 
660 2 9.24792 22.3972 10.8372 
661 1 11.0548 5.24352 14.5675 
662 2 10.7059 5.62081 15.4257 
663 2 10.2733 4.65973 14.2096 
664 1 6.27354 2.4094 14.7166 
665 2 7.12371 2.88867 14.9386 
666 2 6.4658 1.7242 14.0551 
667 1 12.6204 1.85047 10.0195 
668 2 12.7551 2.32765 9.10718 
669 2 12.4116 2.45447 10.8044 
670 1 8.05014 6.156 9.73506 
671 2 8.24368 5.76547 8.86435 
672 2 8.76297 6.69345 10.1373 
673 1 3.46482 8.37123 14.3621 
674 2 4.20168 7.69921 14.4739 
675 2 3.58269 9.20682 14.882 
676 1 0.655552 8.50342 14.8432 
677 2 1.60407 8.38195 14.6351 
678 2 0.103625 7.73482 14.5464 
679 1 -4.12285 13.7695 14.6018 
680 2 -3.20297 14.0468 14.3013 
681 2 -3.94986 13.3996 15.5134 
682 1 -1.14536 14.0215 14.3975 
683 2 -0.625177 14.8683 14.3917 
684 2 -0.717806 13.5231 15.1435 
685 1 1.8397 12.5879 19.2632 
686 2 2.50642 11.7892 19.2006 
687 2 8.82911 13.2486 0.86398 
688 1 2.55 12.4058 10.0667 
689 2 1.89133 11.6977 9.90409 
690 2 3.41737 12.0769 9.82698 
691 1 -2.12838 10.1933 9.53354 
692 2 -2.69289 10.9832 9.73879 
693 2 -1.19525 10.4224 9.46074 
694 1 -2.72921 10.5841 19.1935 
695 2 -2.82103 10.1277 18.3412 
696 2 -1.98352 11.2553 19.1638 
697 1 1.64407 13.7542 16.9719 
698 2 1.83446 13.3065 17.8467 
699 2 2.25826 14.5092 17.053 
700 1 2.72678 13.8928 12.3396 
701 2 2.48795 13.5112 13.2506 
702 2 2.68908 13.2525 11.6128 
703 1 -1.71428 8.78346 12.0504 
704 2 -1.86948 9.2635 11.1888 
705 2 -0.90787 8.32827 11.8208 
706 1 -3.3011 8.66997 17.1513 
707 2 -3.13133 8.88392 16.2092 
708 2 -2.5058 8.13328 17.3783 
709 1 3.21123 9.78857 12.0721 
710 2 3.46437 9.08014 12.759 
711 2 2.37238 10.1028 12.466 
712 1 1.00957 10.3101 17.1284 
713 2 0.837113 9.55774 16.5231 
714 2 1.9374 10.4298 16.9187 
715 1 -3.46637 12.3329 16.7883 
716 2 -3.47776 12.7257 17.7474 
717 2 -4.29622 11.7652 16.6631 
718 1 -1.55532 12.3023 12.3546 
719 2 -2.46621 11.9379 12.4421 
720 2 -1.39489 12.9386 13.1054 
721 1 3.702 10.7156 15.9957 
722 2 3.21659 11.3007 15.3674 
723 2 4.3705 11.3471 16.4216 
724 1 0.753853 10.95 13.2153 
725 2 -0.0458823 10.9983 12.6405 
726 2 0.540256 10.214 13.848 
727 1 -4.00197 11.4537 13.2133 
728 2 -3.46168 10.8176 13.7472 
729 2 -4.28902 12.1253 13.8199 
730 1 -0.782791 11.8924 15.8401 
731 2 -1.6072 12.2346 16.2828 
732 2 -0.183463 11.596 16.5331 
733 1 5.2818 14.451 11.2415 
734 2 4.79739 14.1694 12.0345 
735 2 5.98592 15.0651 11.5748 
736 1 -0.99203 14.7 17.5068 
737 2 -0.83647 15.492 18.1459 
738 2 -0.0994774 14.606 17.1125 
739 1 -5.66072 8.09448 18.3413 
740 2 -5.48936 7.22462 18.8076 
741 2 -4.82019 8.26081 17.8488 
742 1 0.659883 8.1691 11.0307 
743 2 0.175935 7.44776 10.5576 
744 2 1.43615 7.66137 11.3652 
745 1 2.12991 12.5899 14.6799 
746 2 1.82633 12.9719 15.5468 
747 2 1.48948 11.9381 14.4175 
748 1 -2.38466 9.78776 14.7476 
749 2 -1.62902 10.4455 14.8639 
750 2 -2.13185 9.3743 13.8579 
751 1 3.82135 8.93193 9.74948 
752 2 3.47871 9.38923 10.5012 
753 2 3.99914 9.56446 9.08967 
754 1 -1.09556 13.4014 9.95389 
755 2 -1.39069 13.1118 10.9251 
756 2 -1.68018 14.0879 9.56488 
757 1 12.1811 8.60555 14.4414 
758 2 12.6299 7.73515 14.4872 
759 2 11.2442 8.3785 14.6282 
760 1 9.44593 8.49191 14.6788 
761 2 9.26473 9.23946 14.0964 
762 2 8.91275 7.66928 14.5325 
763 1 5.31817 14.05 14.3454 
764 2 5.32085 13.6485 15.2086 
765 2 6.30311 14.2385 14.2409 
766 1 7.9578 13.9271 14.0948 
767 2 8.61819 14.6235 14.1617 
768 2 8.08277 13.5015 14.9772 
769 1 11.0678 12.2771 18.9988 
770 2 -6.20641 11.5583 19.2057 
771 2 10.163 12.049 19.2404 
772 1 11.4338 11.9496 9.93915 
773 2 10.6214 11.3174 10.04 
774 2 11.0702 12.7343 9.50679 
775 1 7.01455 9.99143 9.68396 
776 2 7.95699 10.1924 9.6418 
777 2 6.58257 10.8655 9.56187 
778 1 12.8012 10.3117 0.220988 
779 2 6.07595 10.0064 18.4064 
780 2 12.6716 9.46524 0.757231 
781 1 10.4006 13.9044 16.9555 
782 2 10.6779 13.4418 16.1427 
783 2 10.6854 13.3212 17.6093 
784 1 11.4883 13.5818 12.1764 
785 2 11.524 12.844 11.5435 
786 2 12.3039 14.0641 12.1253 
787 1 7.33156 8.59383 12.0161 
788 2 6.64648 7.89072 11.8043 
789 2 7.19496 9.28622 11.3138 
790 1 5.85485 8.81881 17.0573 
791 2 4.90678 8.67531 17.0972 
792 2 5.95641 9.05339 16.1193 
793 1 11.9424 9.75438 11.7181 
794 2 12.5892 10.4271 11.9962 
795 2 12.0606 9.19659 12.544 
796 1 9.86284 10.2977 16.8357 
797 2 10.845 10.4541 16.6457 
798 2 9.61847 9.63153 16.1297 
799 1 5.35649 12.5598 16.9186 
800 2 5.48552 12.9141 17.8472 
801 2 6.23033 12.4213 16.5879 
802 1 7.57238 12.2341 11.9741 
803 2 6.69313 11.8177 12.3218 
804 2 7.84886 12.8432 12.6787 
805 1 12.3723 10.5811 16.0597 
806 2 11.9572 11.1491 15.3732 
807 2 12.4404 9.6652 15.6134 
808 1 9.57724 10.645 12.9748 
809 2 10.2859 10.3386 12.3425 
810 2 8.86039 10.8943 12.3787 
811 1 5.07677 11.5772 12.9625 
812 2 4.3369 11.0618 12.5358 
813 2 4.78526 12.3855 13.3469 
814 1 7.95446 11.6167 15.7005 
815 2 8.76175 11.3367 16.1867 
816 2 7.57398 10.7106 15.3666 
817 1 -3.66013 14.6319 11.4348 
818 2 13.7411 15.2506 10.8741 
819 2 14.3043 13.7614 10.955 
820 1 7.81289 14.5922 17.6884 
821 2 8.11871 15.1311 18.4486 
822 2 8.64377 14.4443 17.169 
823 1 3.51582 7.89665 17.6627 
824 2 2.70208 7.42821 17.293 
825 2 3.28089 8.66823 18.248 
826 1 9.60747 7.99998 11.1107 
827 2 10.3135 7.59359 11.6412 
828 2 8.76143 8.15133 11.603 
829 1 10.9224 12.528 14.5662 
830 2 11.2186 13.105 13.8518 
831 2 10.1735 12.0239 14.2626 
832 1 6.35039 9.70927 14.3841 
833 2 6.62957 9.25546 13.5825 
834 2 5.8155 10.4285 14.0156 
835 1 12.9693 8.86987 9.28819 
836 2 13.0231 9.64662 8.64795 
837 2 12.5468 9.21426 10.0781 
838 1 8.02042 13.564 9.64791 
839 2 7.76762 13.1327 10.4806 
840 2 7.32228 14.2875 9.44863 
841 1 3.27198 15.7161 14.5983 
842 2 4.19897 15.3951 14.4961 
843 2 3.20634 16.2519 13.8009 
844 1 0.626635 16.0423 14.6757 
845 2 1.56864 15.6758 14.6289 
846 2 0.697348 16.9384 14.2544 
847 1 -3.90303 21.3681 14.4953 
848 2 -4.62618 21.9931 14.4694 
849 2 -4.1645 20.6095 13.9966 
850 1 -0.887212 21.6216 14.5238 
851 2 -1.78404 21.9671 14.7555 
852 2 -0.724329 20.7277 14.9709 
853 1 1.34949 19.7131 19.142 
854 2 8.62629 19.0218 0.370071 
855 2 8.23437 20.5291 0.57988 
856 1 2.51683 19.3056 9.80098 
857 2 2.3036 20.1017 9.29162 
858 2 2.13914 19.4827 10.7659 
859 1 -2.12379 17.6488 9.89531 
860 2 -1.24251 17.9809 9.74113 
861 2 -2.01397 17.2573 10.759 
862 1 -2.89219 17.7504 19.0652 
863 2 -2.45534 18.6382 19.0669 
864 2 -2.96387 17.5293 18.1057 
865 1 1.36026 21.2548 16.7787 
866 2 1.35521 20.5467 17.445 
867 2 1.51286 20.9206 15.8681 
868 1 2.45926 21.2544 12.1912 
869 2 3.25013 21.8043 12.3751 
870 2 1.84734 21.976 11.8357 
871 1 -1.86852 16.4048 12.3594 
872 2 -0.977691 15.9714 12.2102 
873 2 -2.53544 15.7096 12.1493 
874 1 -3.23005 16.4072 16.6972 
875 2 -2.79521 15.5592 16.8879 
876 2 -4.16876 16.2442 16.8464 
877 1 2.80937 17.6486 12.4311 
878 2 1.84493 17.7605 12.5379 
879 2 2.91882 17.2416 11.6018 
880 1 0.57397 17.7041 16.9576 
881 2 0.779117 17.3282 17.8475 
882 2 0.352589 16.9202 16.3949 
883 1 -3.51818 20.1238 16.9005 
884 2 -3.84046 20.6804 16.1812 
885 2 -2.54574 19.8982 16.6927 
886 1 -1.52939 20.0393 12.1709 
887 2 -2.44987 19.6608 12.3469 
888 2 -1.34649 20.6416 12.9434 
889 1 3.19333 18.2113 15.8057 
890 2 2.36597 18.0497 16.2895 
891 2 3.46714 17.3111 15.549 
892 1 0.364949 18.3912 13.3166 
893 2 0.723199 19.1376 13.7705 
894 2 -0.418204 18.6946 12.8091 
895 1 -4.04186 19.1655 12.9287 
896 2 13.2635 18.6203 12.4565 
897 2 -3.67649 18.5756 13.597 
898 1 -1.1008 19.5475 15.9621 
899 2 -1.43923 18.8253 15.3811 
900 2 -0.492286 18.9916 16.469 
901 1 4.96025 22.1817 11.1718 
902 2 5.07726 21.3531 10.6463 
903 2 4.6675 0.446091 10.539 
904 1 -0.893995 22.3174 17.6691 
905 2 -0.335402 21.8551 17.0297 
906 2 -1.78344 0.199205 17.2063 
907 1 -5.53168 15.448 17.804 
908 2 11.6688 15.0748 17.3297 
909 2 -4.91588 14.7357 17.902 
910 1 0.626055 15.3073 11.4713 
911 2 0.316488 14.6043 10.8905 
912 2 1.53217 14.9261 11.8142 
913 1 1.78576 20.2371 14.4611 
914 2 2.43491 19.4527 14.5984 
915 2 2.11173 20.6931 13.6281 
916 1 -2.39261 17.5245 14.5565 
917 2 -2.65267 16.9427 15.342 
918 2 -1.91122 16.9207 13.9374 
919 1 3.76678 16.4085 10.249 
920 2 4.34758 15.7002 10.6287 
921 2 4.21567 16.8802 9.5344 
922 1 -0.767928 21.0803 9.69189 
923 2 -1.37487 21.8109 9.35243 
924 2 -1.14171 20.6046 10.4963 
925 1 12.1142 15.9435 14.5151 
926 2 12.4027 16.7517 15.0288 
927 2 12.7529 15.2821 14.1609 
928 1 9.48801 16.1663 14.6239 
929 2 10.4569 15.9711 14.6181 
930 2 9.44352 16.5166 15.55 
931 1 4.88775 21.7611 14.7022 
932 2 5.86219 21.8691 14.668 
933 2 4.79102 21.039 14.0235 
934 1 7.68821 21.4365 14.7639 
935 2 7.8633 20.821 15.4684 
936 2 7.62637 20.8705 13.9446 
937 1 10.2174 19.798 19.1297 
938 2 17.1256 20.6293 0.491437 
939 2 17.5708 19.1669 0.34174 
940 1 11.3085 19.7865 10.2443 
941 2 11.0607 20.4951 9.65703 
942 2 11.3089 20.3033 11.0428 
943 1 6.8527 17.9038 9.91656 
944 2 6.54828 17.2114 9.2758 
945 2 7.80078 18.0324 9.77225 
946 1 12.4876 18.0325 0.259858 
947 2 5.89549 17.6123 18.5107 
948 2 13.2272 18.6529 0.454564 
949 1 10.292 21.3415 16.9541 
950 2 9.47399 21.6599 17.3818 
951 2 10.3676 20.4819 17.3294 
952 1 11.5651 21.6429 12.1414 
953 2 11.3136 21.3976 13.0752 
954 2 12.5256 21.8565 12.0896 
955 1 7.0827 16.1664 12.0635 
956 2 7.96704 15.7906 11.9203 
957 2 6.95883 16.8196 11.265 
958 1 5.57706 16.1188 16.9347 