ITEM: TIMESTEP
1030000
ITEM: NUMBER OF ATOMS
1008
ITEM: BOX BOUNDS xy xz yz pp pp pp
-6.4304948243947759e+00 1.8159991784490479e+01 -4.2169800650441640e-03
-1.3442577234691319e-02 2.2508428122147421e+01 -6.6658410598342215e+00
2.1896490127558899e-01 1.9286751098719311e+01 -7.5403455080671242e-02
ITEM: ATOMS id type x y z 
1 1 6.64921 1.33021 4.96935 
2 2 7.52094 0.821218 5.0531 
3 2 6.60998 1.63789 4.01222 
4 1 4.05213 0.729251 5.24839 
5 2 5.04633 0.722662 5.24085 
6 2 3.86175 1.22384 6.07302 
7 1 -0.564022 6.69512 5.13334 
8 2 -0.394834 6.36715 6.08091 
9 2 -1.21884 7.42662 5.07528 
10 1 2.08668 6.46126 4.61349 
11 2 1.15514 6.74583 4.67144 
12 2 2.66796 7.21555 4.89033 
13 1 5.06612 4.39589 9.7189 
14 2 5.00166 4.71815 8.81756 
15 2 4.11495 4.40389 10.0267 
16 1 5.58576 5.00135 0.412415 
17 2 4.96417 4.23165 0.3398 
18 2 5.56491 5.42084 1.33889 
19 1 1.1643 2.8097 0.514248 
20 2 0.652431 3.66641 0.431903 
21 2 1.12272 2.47742 1.43596 
22 1 0.630341 2.36901 9.53626 
23 2 1.3069 3.05344 9.66612 
24 2 -0.216573 2.87901 9.51514 
25 1 4.39823 6.11096 7.61172 
26 2 5.02641 6.87625 7.47127 
27 2 3.4514 6.44397 7.74281 
28 1 5.83497 6.67333 2.61135 
29 2 5.79581 6.21317 3.4803 
30 2 4.98834 7.19918 2.41474 
31 1 1.29856 1.07378 2.64998 
32 2 2.26139 0.854916 2.67478 
33 2 1.10122 1.34522 3.60255 
34 1 0.39709 0.952657 7.32554 
35 2 -0.520147 0.657522 7.42859 
36 2 0.568731 1.63072 7.98049 
37 1 6.29977 2.65859 2.42417 
38 2 5.39076 2.95734 2.68037 
39 2 6.90999 3.42124 2.60327 
40 1 3.80493 2.7335 7.20588 
41 2 4.65093 3.17004 7.12624 
42 2 3.14336 3.22874 6.74691 
43 1 -0.342591 5.02075 7.49379 
44 2 -1.17316 4.46106 7.35551 
45 2 -0.547985 5.55541 8.29565 
46 1 1.82992 5.01277 2.32559 
47 2 0.958149 4.65887 2.64493 
48 2 1.86931 5.72475 3.02985 
49 1 6.50726 3.27717 6.57202 
50 2 6.22425 3.9801 5.91168 
51 2 6.51167 2.45773 6.00163 
52 1 3.81313 3.19099 3.42008 
53 2 3.0965 3.54651 2.89171 
54 2 3.45526 2.40495 3.919 
55 1 -0.420253 4.2625 3.48401 
56 2 -0.446484 5.03919 4.01005 
57 2 -0.0901026 3.58814 4.11672 
58 1 1.89569 4.29982 6.34567 
59 2 2.16733 5.17408 6.03122 
60 2 1.0944 4.40841 6.92313 
61 1 8.30105 7.01523 1.75635 
62 2 7.3938 6.89717 2.22771 
63 2 8.39421 6.2096 1.24946 
64 1 2.01874 6.672 8.49303 
65 2 1.24758 7.11132 8.07604 
66 2 2.40772 7.36283 9.00305 
67 1 -2.23375 0.504084 8.19563 
68 2 -2.34534 1.36896 8.56393 
69 2 14.9713 0.284699 7.57311 
70 1 3.84769 0.59091 2.03025 
71 2 3.5725 22.3322 1.39817 
72 2 4.00465 1.37904 1.37109 
73 1 5.08307 5.21133 5.12865 
74 2 4.5684 5.43697 5.96201 
75 2 4.52441 4.61256 4.62433 
76 1 0.659369 2.29979 5.04347 
77 2 0.62847 1.75114 5.9132 
78 2 1.00371 3.12813 5.4455 
79 1 0.408477 1.47381 19.276 
80 2 6.64932 2.00252 1.05786 
81 2 -0.275384 0.852744 18.8966 
82 1 -4.25795 6.13138 19.0149 
83 2 2.09342 5.70352 0.66869 
84 2 3.09149 6.77164 0.317651 
85 1 15.4822 0.893333 5.07816 
86 2 16.2249 0.269986 5.10733 
87 2 15.5774 1.25445 4.20046 
88 1 12.7058 1.22804 5.35948 
89 2 12.7134 2.0142 4.77006 
90 2 13.6535 1.00128 5.33276 
91 1 8.47173 6.52367 5.25151 
92 2 8.34872 5.80344 4.58788 
93 2 9.42482 6.55992 5.23813 
94 1 11.4151 6.57738 4.83069 
95 2 12.0673 7.29148 4.85939 
96 2 11.6687 5.94695 5.5293 
97 1 13.931 4.91678 9.43701 
98 2 14.0159 5.63848 10.0731 
99 2 12.9689 4.72287 9.39159 
100 1 14.7034 4.95251 0.610783 
101 2 14.6947 5.54229 1.36912 
102 2 14.3822 4.08232 0.859247 
103 1 10.1776 2.88543 0.418489 
104 2 9.48775 3.57635 0.349965 
105 2 3.21586 2.09951 18.9006 
106 1 9.66894 2.49331 9.41879 
107 2 10.0555 1.95416 10.1222 
108 2 8.6954 2.4637 9.65277 
109 1 13.5152 6.56158 7.39189 
110 2 13.7707 5.94792 8.16853 
111 2 12.588 6.73697 7.55655 
112 1 14.818 6.43071 2.82386 
113 2 14.3162 7.27028 2.60522 
114 2 15.7418 6.63293 2.6272 
115 1 10.3772 1.47817 2.73969 
116 2 10.1545 2.24347 2.1372 
117 2 9.79283 0.754524 2.49838 
118 1 9.07086 0.994874 7.19979 
119 2 9.30169 1.57377 7.93786 
120 2 9.16925 1.58293 6.41804 
121 1 15.2024 2.64978 2.84918 
122 2 15.9459 3.30353 2.97302 
123 2 15.3899 2.27376 1.94409 
124 1 13.2924 3.01977 7.61059 
125 2 14.2384 3.30775 7.41271 
126 2 13.1586 2.3948 6.86805 
127 1 8.40232 4.83135 7.50922 
128 2 7.75222 4.13855 7.19054 
129 2 8.33541 5.52064 6.78059 
130 1 10.9314 5.02114 2.71257 
131 2 11.5453 4.27678 2.83369 
132 2 11.2988 5.72243 3.29482 
133 1 15.6622 3.51365 6.41025 
134 2 15.357 4.15627 5.77071 
135 2 15.5467 2.64305 5.93612 
136 1 12.9181 3.40203 3.68941 
137 2 13.2743 4.19919 4.14987 
138 2 13.7501 3.10962 3.23731 
139 1 8.29098 4.35391 3.35168 
140 2 9.18188 4.64832 3.06365 
141 2 8.51897 3.75133 4.07924 
142 1 10.8416 3.69524 6.82832 
143 2 11.4985 3.55343 7.53447 
144 2 10.1121 4.2242 7.21749 
145 1 17.3042 7.12406 1.85299 
146 2 17.7439 6.3418 1.40154 
147 2 17.0227 7.75543 1.15131 
148 1 10.6222 6.94415 8.20806 
149 2 10.7014 6.05841 8.63496 
150 2 11.1715 7.54361 8.77255 
151 1 6.53354 0.773047 8.15152 
152 2 7.45962 0.764005 7.86023 
153 2 6.59694 1.39839 8.90958 
154 1 12.7937 0.896529 1.98461 
155 2 12.8316 1.66342 1.35587 
156 2 12.001 1.15746 2.50716 
157 1 14.3582 5.24349 5.11125 
158 2 14.7551 5.6163 4.29609 
159 2 14.2274 5.94937 5.79469 
160 1 9.42688 2.53581 5.03449 
161 2 10.1488 3.06189 5.49366 
162 2 9.85518 2.03961 4.25017 
163 1 15.8501 1.55776 0.537572 
164 2 8.56032 0.850734 19.0405 
165 2 16.58 0.935887 0.756959 
166 1 4.58141 6.03258 19.1142 
167 2 10.813 5.60485 0.786673 
168 2 4.00336 6.59778 18.5917 
169 1 6.87869 8.63827 4.78126 
170 2 7.37541 7.75091 5.00517 
171 2 7.06594 9.17745 5.5843 
172 1 4.06154 8.47916 5.0484 
173 2 4.00058 9.19192 4.33719 
174 2 4.9541 8.13087 5.10099 
175 1 -0.487196 13.9059 5.24455 
176 2 -0.656121 13.5616 6.15968 
177 2 -1.14249 14.5919 5.08941 
178 1 2.42333 13.9795 4.81415 
179 2 1.47425 14.2163 4.7751 
180 2 3.02113 14.7335 5.09703 
181 1 5.09828 12.1932 9.37619 
182 2 5.24268 12.7177 8.52147 
183 2 5.2376 12.9061 10.0394 
184 1 -1.14533 12.0308 19.229 
185 2 -0.181042 11.9593 19.1778 
186 2 -1.35838 12.8391 18.781 
187 1 -5.59622 10.2921 19.2644 
188 2 -5.78194 9.53139 18.6554 
189 2 2.11065 10.3522 0.33677 
190 1 0.620143 10.2998 9.68947 
191 2 0.717243 9.69255 10.418 
192 2 0.422889 9.70054 8.88295 
193 1 4.84457 13.6514 7.30824 
194 2 4.78771 13.2409 6.42823 
195 2 4.00636 14.19 7.48573 
196 1 5.95179 13.7118 2.71913 
197 2 5.73569 13.2012 3.55363 
198 2 5.90874 13.0646 1.99698 
199 1 1.64257 8.8481 2.71933 
200 2 1.38379 9.42998 1.95244 
201 2 0.966877 8.13033 2.73949 
202 1 0.208956 8.25614 7.43556 
203 2 -0.733256 8.25659 7.72298 
204 2 0.380444 8.67341 6.57454 
205 1 6.41261 10.226 2.48192 
206 2 6.49052 9.44886 3.08153 
207 2 6.62497 9.80685 1.58033 
208 1 3.86152 9.71192 7.45414 
209 2 3.45172 10.5674 7.31197 
210 2 4.00861 9.33136 6.58939 
211 1 -0.48933 12.4346 7.46773 
212 2 -0.582039 12.5754 8.42965 
213 2 -1.16277 11.69 7.33023 
214 1 1.98292 12.2258 2.62403 
215 2 2.29925 12.8852 3.29764 
216 2 1.05661 12.0631 2.83201 
217 1 6.65678 10.8922 6.50492 
218 2 7.38345 11.5253 6.7337 
219 2 5.93837 11.0051 7.12271 
220 1 3.92598 10.6671 3.38078 
221 2 4.64191 10.5936 2.65631 
222 2 3.08495 11.1079 3.02962 
223 1 -0.572748 11.5868 3.89565 
224 2 -0.115917 10.91 4.43348 
225 2 -0.607 12.4489 4.3099 
226 1 2.1446 11.8569 6.61739 
227 2 2.35206 12.6585 6.10619 
228 2 1.31717 12.0615 7.10081 
229 1 8.39972 14.3572 1.57587 
230 2 9.0392 14.8326 2.09297 
231 2 7.65022 14.1591 2.14993 
232 1 2.25063 14.5031 8.09673 
233 2 2.63932 15.1297 8.75123 
234 2 1.99249 13.7976 8.70718 
235 1 -2.42494 8.01905 8.76703 
236 2 -2.54402 8.84996 9.23208 
237 2 14.6925 7.86035 8.18276 
238 1 3.80933 7.76625 1.55625 
239 2 2.97789 7.99957 2.04675 
240 2 4.09452 8.66306 1.25228 
241 1 5.07897 12.4614 4.98005 
242 2 5.64505 11.7321 5.38647 
243 2 4.3731 11.9803 4.46872 
244 1 0.997116 9.60008 5.1934 
245 2 1.44129 9.27641 4.40364 
246 2 1.64585 10.1756 5.63247 
247 1 0.528352 9.00218 19.2649 
248 2 7.87234 8.51238 0.619547 
249 2 0.87647 9.60318 18.5865 
250 1 2.38429 13.733 0.380949 
251 2 2.2007 13.1498 1.16359 
252 2 3.18166 14.2946 0.675556 
253 1 15.8041 8.81412 4.71925 
254 2 16.1523 9.45233 5.375 
255 2 15.5925 9.25281 3.88826 
256 1 13.0731 8.84994 4.96001 
257 2 14.0342 8.88668 4.9279 
258 2 12.7659 9.48686 4.34221 
259 1 8.64844 14.1922 4.74778 
260 2 8.37372 13.7428 5.5377 
261 2 7.88119 14.8029 4.70095 
262 1 11.2899 13.8898 4.69336 
263 2 10.3991 14.3277 4.75247 
264 2 11.9359 14.6434 4.82372 
265 1 13.9785 12.4201 9.63269 
266 2 13.9285 12.7277 8.68277 
267 2 13.0124 12.361 9.88722 
268 1 14.8015 12.3765 0.427028 
269 2 7.76646 12.9126 18.8015 
270 2 14.2655 11.5814 0.367457 
271 1 10.1547 10.2908 0.226375 
272 2 10.1507 9.97485 1.16128 
273 2 4.44076 10.3164 19.0758 
274 1 9.43304 10.347 9.70111 
275 2 9.43612 9.55788 10.2804 
276 2 9.41931 10.0342 8.73162 
277 1 13.3352 14.0884 7.45181 
278 2 13.6809 13.6984 6.63834 
279 2 13.9696 14.7911 7.72311 
280 1 15.1004 13.7498 2.6501 
281 2 14.9441 12.957 2.01587 
282 2 16.0231 13.9539 2.57458 
283 1 10.2198 8.67724 2.51977 
284 2 9.90755 9.19637 3.27185 
285 2 9.54047 8.01683 2.33662 
286 1 9.172 8.95182 7.44387 
287 2 9.75755 8.14174 7.57492 
288 2 8.26452 8.66689 7.55814 
289 1 15.4105 10.235 2.65545 
290 2 16.0721 10.9503 2.95097 
291 2 15.4476 10.0192 1.73918 
292 1 13.1446 10.0378 7.48394 
293 2 12.6012 10.7649 7.14874 
294 2 13.0296 9.4731 6.68388 
295 1 8.59979 12.6791 7.16577 
296 2 8.55066 12.8823 8.11701 
297 2 9.49317 12.2656 7.09543 
298 1 11.0238 12.6607 2.44066 
299 2 11.3246 13.1822 3.33857 
300 2 10.2044 12.2061 2.78774 
301 1 15.5888 10.7547 6.64962 
302 2 14.8176 10.6051 7.21066 
303 2 15.2795 11.462 6.04044 
304 1 13.025 11.0806 3.47006 
305 2 12.4738 11.5151 2.76966 
306 2 13.8505 10.7025 3.07503 
307 1 8.37968 11.6114 3.45264 
308 2 8.32981 12.5534 3.7389 
309 2 7.50951 11.4197 3.09784 
310 1 11.1562 11.6885 6.55414 
311 2 10.7169 10.981 6.04985 
312 2 11.4089 12.4071 5.9176 
313 1 17.5741 14.3453 1.81096 
314 2 17.7155 13.7212 1.04782 
315 2 0.434367 14.7578 2.17615 
316 1 10.9661 14.4649 8.34925 
317 2 10.2765 14.8287 7.80735 
318 2 11.7846 14.327 7.83322 
319 1 6.51855 7.90607 7.89484 
320 2 6.29338 8.65486 8.52506 
321 2 6.68411 7.15732 8.4966 
322 1 12.8141 7.73906 1.82791 
323 2 11.9848 8.13951 2.12459 
324 2 12.4254 7.01047 1.27181 
325 1 14.2329 12.7899 5.0736 
326 2 13.5732 12.3113 4.56424 
327 2 14.7839 13.295 4.47322 
328 1 9.78815 9.89006 4.92604 
329 2 9.41263 9.41399 5.71777 
330 2 9.05633 10.4518 4.59647 
331 1 9.54567 8.81647 19.2814 
332 2 10.0397 9.33753 18.6265 
333 2 8.863 8.27645 18.7616 
334 1 4.91569 13.6936 19.161 
335 2 11.1819 13.2749 0.847553 
336 2 12.0855 14.3681 0.748232 
337 1 6.63086 15.8997 4.77967 
338 2 5.66367 15.9685 4.94225 
339 2 6.68248 16.102 3.8552 
340 1 4.06207 16.0369 5.39329 
341 2 3.70439 16.7986 4.86051 
342 2 4.15562 16.4722 6.26416 
343 1 -0.493977 21.4625 4.91407 
344 2 0.438852 21.5505 4.89812 
345 2 -0.652635 21.2622 5.84818 
346 1 2.21928 21.3492 4.81307 
347 2 2.95521 22.0707 4.81574 
348 2 2.22967 20.892 3.92575 
349 1 5.03598 19.9355 9.99928 
350 2 5.73465 19.2233 10.0521 
351 2 4.20199 19.4952 10.2114 
352 1 5.55387 19.9603 0.664559 
353 2 -1.33238 20.5498 19.0722 
354 2 6.54187 19.6796 0.535963 
355 1 0.935771 17.4076 0.775384 
356 2 -5.79408 16.7095 19.1203 
357 2 1.85479 17.7974 0.60338 
358 1 0.365251 17.7351 9.729 
359 2 1.05722 18.4468 9.76103 
360 2 0.707526 16.9927 10.2569 
361 1 4.92982 21.1567 7.42187 
362 2 5.49275 21.8095 7.87419 
363 2 4.8755 20.4163 8.09315 
364 1 5.80042 21.4677 2.8101 
365 2 5.68817 20.8201 2.04644 
366 2 5.27391 22.3383 2.60352 
367 1 1.50485 15.8194 2.87058 
368 2 2.46254 15.6046 2.78188 
369 2 1.3507 16.5091 2.21651 
370 1 0.0310127 16.0982 7.42409 
371 2 0.213563 16.7869 8.04389 
372 2 0.758903 15.4239 7.64701 
373 1 6.42945 17.461 2.25226 
374 2 7.01217 18.1742 2.56784 
375 2 5.51178 17.6898 2.46502 
376 1 4.36972 17.5453 7.46479 
377 2 3.66147 18.2277 7.21695 
378 2 5.26319 17.9452 7.25369 
379 1 -0.173188 19.9561 7.37493 
380 2 0.772652 19.824 7.13816 
381 2 -0.238907 20.2414 8.33695 
382 1 1.96548 19.7294 2.44466 
383 2 1.04176 19.6227 2.31416 
384 2 2.2193 20.1538 1.56489 
385 1 6.64968 18.2514 6.28505 
386 2 6.14108 18.9334 5.84797 
387 2 6.85694 17.4766 5.71798 
388 1 3.85903 18.1104 3.34514 
389 2 4.39419 18.8135 3.77469 
390 2 3.11458 18.5762 2.93679 
391 1 -0.624358 19.1888 3.33045 
392 2 -0.814652 20.0266 3.72841 
393 2 0.00178848 18.8005 3.93927 
394 1 2.29848 19.0804 6.32366 
395 2 2.34918 19.8845 5.71384 
396 2 1.89312 18.3485 5.83002 
397 1 8.33424 21.9216 1.65214 
398 2 7.6192 21.8199 2.3533 
399 2 7.97624 0.301789 1.16082 
400 1 2.50473 21.6448 8.32753 
401 2 1.83128 22.1485 7.79585 
402 2 3.34961 21.5727 7.84523 
403 1 -2.44574 15.4006 8.24033 
404 2 -1.56852 15.6566 7.87139 
405 2 15.2111 16.3037 8.61259 
406 1 4.03486 15.2613 1.66184 
407 2 4.86368 14.942 2.07881 
408 2 4.15434 16.1936 1.37835 
409 1 5.21737 20.035 4.86644 
410 2 5.45414 20.7277 4.15673 
411 2 4.71783 20.5788 5.52759 
412 1 1.22114 17.19 5.12673 
413 2 1.31574 16.5918 4.26895 
414 2 0.892558 16.6876 5.92493 
415 1 0.506466 16.249 18.9931 
416 2 7.68618 15.5842 0.293419 
417 2 6.94227 16.8936 0.711788 
418 1 -3.9904 21.2289 19.26 
419 2 -4.62281 21.9747 18.9564 
420 2 -3.89265 20.7105 18.4 
421 1 15.4695 16.0689 4.81689 
422 2 14.5476 15.8595 4.97206 
423 2 15.5084 16.4236 3.96164 
424 1 12.8255 16.1281 4.85883 
425 2 12.6894 16.5672 5.74665 
426 2 12.8297 16.9054 4.24717 
427 1 8.3395 21.5413 4.96104 
428 2 8.10248 21.1767 5.88746 
429 2 9.28738 21.5818 4.93803 
430 1 11.2394 21.537 4.61669 
431 2 11.4978 20.8832 5.28871 
432 2 11.7815 22.3649 4.69079 
433 1 13.9132 19.8414 9.16267 
434 2 14.4321 18.9952 9.25793 
435 2 12.9592 19.6159 9.40465 
436 1 14.3769 19.868 0.423109 
437 2 14.6596 20.3775 1.22491 
438 2 8.56775 19.3708 19.2294 
439 1 9.82423 17.5589 0.356285 
440 2 10.7514 17.931 0.392352 
441 2 3.26758 16.7345 18.8116 
442 1 9.39106 17.6811 9.57481 
443 2 9.7366 16.8856 10.0433 
444 2 10.0255 18.3907 9.33707 
445 1 13.6036 21.6121 7.07322 
446 2 12.705 21.8805 7.19309 
447 2 13.6798 20.8899 7.79948 
448 1 14.8561 21.6165 2.36574 
449 2 14.7444 21.1951 3.23199 
450 2 14.1264 22.272 2.23648 
451 1 10.1653 16.069 2.63373 
452 2 9.94427 16.6531 1.90473 
453 2 11.0797 15.7224 2.48835 
454 1 9.05532 16.2125 7.15224 
455 2 9.21818 16.6704 6.28967 
456 2 9.29139 16.8614 7.84278 
457 1 15.4361 17.4156 2.30915 
458 2 14.5594 17.7687 2.52642 
459 2 16.062 18.1083 2.62575 
460 1 13.0333 17.4486 7.14762 
461 2 12.3531 18.1482 7.05601 
462 2 13.9012 17.8784 7.04272 
463 1 8.43207 20.0021 7.21159 
464 2 8.26613 20.4346 8.03756 
465 2 7.68266 19.3155 7.0517 
466 1 10.6566 19.8453 2.43201 
467 2 10.8197 20.2871 1.59915 
468 2 10.9276 20.4489 3.19384 
469 1 15.5448 18.4928 6.19586 
470 2 -1.65907 18.6166 6.80862 
471 2 15.6921 17.6007 5.68286 
472 1 12.7758 18.5659 3.57776 
473 2 12.057 18.9633 3.07845 
474 2 13.1811 19.2255 4.09516 
475 1 8.24277 19.1908 3.54709 
476 2 8.01328 20.0215 4.09028 
477 2 9.09855 19.4353 3.03635 
478 1 11.2177 19.2505 6.40095 
479 2 11.0064 18.514 5.70938 
480 2 10.3652 19.5061 6.73345 
481 1 17.4416 21.8871 1.54117 
482 2 0.238757 22.4048 1.99064 
483 2 16.7385 21.8166 2.14808 
484 1 11.0745 21.9766 8.24949 
485 2 10.4175 22.3313 7.66543 
486 2 11.4762 0.263035 8.71456 
487 1 6.65311 15.5221 8.30162 
488 2 6.13192 14.8418 7.8494 
489 2 7.45013 15.6958 7.66913 
490 1 12.8942 15.2855 1.87778 
491 2 12.9554 16.1391 1.48317 
492 2 13.7963 14.9985 2.13517 
493 1 14.3975 20.3681 4.79582 
494 2 14.0276 20.9124 5.5544 
495 2 14.8817 19.6673 5.3204 
496 1 9.73914 17.4977 4.9829 
497 2 9.01201 18.0097 4.52839 
498 2 9.98576 16.861 4.27112 
499 1 9.42335 15.839 19.276 
500 2 16.777 15.3664 0.559686 
501 2 15.7842 16.4256 0.982145 
502 1 11.5331 21.5563 0.484084 
503 2 5.2594 20.9938 18.7702 
504 2 12.1866 22.1991 0.967675 
505 1 3.39658 0.980221 14.2124 
506 2 3.50744 1.62174 14.9315 
507 2 4.14994 0.316233 14.3954 
508 1 0.582093 0.994036 14.547 
509 2 0.0882161 0.144607 14.3734 
510 2 1.45495 0.640753 14.4377 
511 1 -4.01069 6.42964 14.818 
512 2 -4.28002 5.78708 14.1247 
513 2 -4.09367 6.05915 15.7337 
514 1 -1.3587 6.65773 14.3045 
515 2 -1.17156 6.03677 14.9953 
516 2 -2.28212 6.91776 14.5166 
517 1 1.69193 4.8068 19.2447 
518 2 7.39082 4.77954 0.252699 
519 2 1.77843 5.22187 18.321 
520 1 2.36316 4.4394 10.0092 
521 2 2.08488 5.17357 9.44313 
522 2 2.13046 4.69824 10.9254 
523 1 -2.18713 2.88439 9.71424 
524 2 -2.71845 3.70794 9.72289 
525 2 -2.23047 2.48047 10.6272 
526 1 3.88263 2.68164 0.225387 
527 2 -2.77712 2.31078 18.3766 
528 2 3.00012 3.11483 0.401921 
529 1 1.53808 6.39548 16.819 
530 2 1.63268 6.16594 15.9019 
531 2 0.619599 6.55708 17.0977 
532 1 2.63555 6.20275 12.2417 
533 2 3.49213 6.52903 11.9724 
534 2 2.61282 5.78802 13.1055 
535 1 -2.1382 1.53224 11.9833 
536 2 -2.74436 0.770177 11.8861 
537 2 -1.22876 1.16443 11.8202 
538 1 -2.9857 1.33623 16.7698 
539 2 -3.86062 1.10736 17.1457 
540 2 -3.11736 1.61088 15.8474 
541 1 3.09928 2.6759 12.0169 
542 2 3.27359 1.93382 12.7045 
543 2 3.15424 2.25815 11.1314 
544 1 0.774854 2.57518 16.9212 
545 2 0.673421 2.29315 17.8749 
546 2 0.652276 1.84116 16.2825 
547 1 -3.55185 4.68792 16.8475 
548 2 -4.29694 4.09582 16.7264 
549 2 -3.83309 5.18428 17.5985 
550 1 -1.64728 4.82615 12.3523 
551 2 -0.932762 4.12813 12.5245 
552 2 -1.46765 5.56038 13.0078 
553 1 3.37192 3.14841 15.7735 
554 2 2.72437 2.86577 16.4256 
555 2 4.11942 3.66916 16.2065 
556 1 0.415748 3.26019 12.9829 
557 2 1.26819 3.10716 12.4944 
558 2 0.323876 2.49802 13.6166 
559 1 13.6221 4.35406 12.9923 
560 2 -3.53113 4.59066 12.4721 
561 2 -3.95403 3.79083 13.7434 
562 1 -1.07627 4.29429 15.9254 
563 2 -0.372287 3.80428 16.3305 
564 2 -1.79641 4.45328 16.5823 
565 1 5.03127 6.77709 10.945 
566 2 4.78726 7.45166 10.2602 
567 2 5.35913 5.92986 10.5196 
568 1 -0.911053 7.09164 17.7181 
569 2 -0.974037 6.34995 18.3501 
570 2 -0.478886 7.80378 18.2743 
571 1 -5.43722 0.772279 17.6875 
572 2 -5.79101 1.42649 18.3361 
573 2 11.8252 0.126713 17.3623 
574 1 0.474035 0.164736 11.388 
575 2 0.133398 21.9718 10.6921 
576 2 0.963255 0.797774 10.8419 
577 1 1.67966 5.03462 14.6353 
578 2 1.00539 4.69523 14.0687 
579 2 2.23049 4.24934 14.9465 
580 1 -2.89489 2.7359 14.5697 
581 2 -2.52107 2.22132 13.8537 
582 2 -2.12526 3.1372 15.061 
583 1 3.44391 1.44012 9.67774 
584 2 3.03972 0.612577 9.36777 
585 2 3.64717 1.96901 8.87115 
586 1 -1.21952 6.10983 10.0651 
587 2 -1.79323 6.86543 9.76395 
588 2 -1.55568 5.66988 10.8614 
589 1 12.4072 0.977558 14.481 
590 2 11.48 0.797748 14.38 
591 2 12.4391 1.80049 15.0725 
592 1 9.64529 1.21729 14.6402 
593 2 9.04713 0.481543 14.3619 
594 2 9.43202 2.046 14.0579 
595 1 5.1041 6.66602 14.5068 
596 2 4.91655 6.07794 15.2877 
597 2 5.08031 6.04 13.7959 
598 1 7.87855 6.64838 14.3658 
599 2 6.9366 6.92748 14.5592 
600 2 7.83718 6.12543 13.5081 
601 1 10.7501 4.84671 19.1575 
602 2 16.4379 4.89475 0.267621 
603 2 10.7949 5.43681 18.3813 
604 1 11.0644 4.76954 9.69558 
605 2 10.9021 5.15574 10.5809 
606 2 10.4925 4.00035 9.57628 
607 1 6.891 2.59198 10.1383 
608 2 6.12272 3.19418 10.044 
609 2 6.78623 2.19805 10.9937 
610 1 6.14503 2.64894 19.0268 
611 2 6.18742 2.17501 18.1987 
612 2 5.22916 3.02169 19.0094 
613 1 10.381 6.44876 16.9366 
614 2 11.0141 7.21436 16.9556 
615 2 9.45907 6.76912 17.1573 
616 1 11.1781 6.02241 12.0277 
617 2 11.0468 5.83455 12.9696 
618 2 12.1589 6.18678 11.8989 
619 1 7.01478 1.17158 12.4342 
620 2 6.40369 0.433065 12.268 
621 2 7.9177 0.938614 12.1275 
622 1 6.0317 1.09741 16.6649 
623 2 5.13387 0.743797 16.6764 
624 2 6.09235 1.65463 15.8411 
625 1 11.781 2.69414 12.1003 
626 2 12.0252 1.93143 12.6522 
627 2 12.5852 3.31843 12.2441 
628 1 9.78644 2.60606 16.8219 
629 2 9.6465 2.14598 17.6701 
630 2 9.63526 1.9569 16.0984 
631 1 5.20943 4.76298 16.6792 
632 2 5.10257 4.98887 17.5762 
633 2 6.14083 4.63821 16.4689 
634 1 7.33488 5.0047 12.2156 
635 2 6.44345 4.71769 12.1924 
636 2 7.57356 5.36453 11.3619 
637 1 12.2118 3.30232 15.8429 
638 2 11.8601 3.98512 15.2197 
639 2 11.4696 3.06423 16.4607 
640 1 9.42985 3.35671 13.1527 
641 2 8.69464 3.51412 12.5902 
642 2 10.2168 3.08157 12.6407 
643 1 4.91011 4.38177 13.1735 
644 2 4.26148 3.82354 12.6991 
645 2 5.47792 3.77335 13.6236 
646 1 7.82407 4.51356 16.1832 
647 2 8.59442 3.97663 16.3618 
648 2 7.99383 5.20831 15.5887 
649 1 13.7902 7.02559 11.4285 
650 2 13.453 7.71814 10.8036 
651 2 -3.58821 7.52445 12.0494 
652 1 7.76122 7.09691 17.9973 
653 2 7.09676 7.5614 17.4553 
654 2 7.5075 6.20354 18.1974 
655 1 3.45301 0.717514 17.7583 
656 2 2.71106 0.170106 17.5381 
657 2 3.86214 0.288039 18.5155 
658 1 9.49722 0.663391 11.4032 
659 2 10.2185 0.133181 11.8044 
660 2 8.88979 0.0833751 10.8977 
661 1 10.9191 5.09552 14.5104 
662 2 10.5788 5.63107 15.2445 
663 2 10.2422 4.48023 14.2209 
664 1 6.56859 2.50692 14.6858 
665 2 7.2845 3.15249 14.917 
666 2 6.84374 1.98607 13.8651 
667 1 12.4072 1.33064 9.69154 
668 2 12.9311 1.91418 9.152 
669 2 12.0471 1.90079 10.4167 
670 1 7.64267 6.19412 9.71667 
671 2 8.10559 5.73145 8.93841 
672 2 8.39143 6.77953 10.0416 
673 1 3.12177 8.78812 14.4203 
674 2 3.70794 8.02578 14.3015 
675 2 3.46757 9.29023 15.1441 
676 1 0.432603 8.85032 14.5819 
677 2 1.37443 8.51305 14.5163 
678 2 -0.221633 8.12662 14.3791 
679 1 -3.88095 13.8936 14.7382 
680 2 -2.9904 14.2485 14.5556 
681 2 -3.83072 13.4227 15.6509 
682 1 -0.87102 13.788 14.3374 
683 2 -0.176928 14.4551 14.397 
684 2 -0.759737 13.073 14.9404 
685 1 1.74109 12.2294 18.868 
686 2 2.4193 11.5421 19.0599 
687 2 8.62777 13.0261 0.43142 
688 1 2.23901 12.4228 9.91271 
689 2 1.56438 11.6876 9.85924 
690 2 3.07713 11.9606 9.69616 
691 1 -2.33441 10.3286 10.0162 
692 2 -2.93836 11.0332 9.68102 
693 2 -1.42021 10.605 9.87887 
694 1 3.67696 10.1186 0.279951 
695 2 -2.81234 9.58627 18.3949 
696 2 4.4095 10.7825 0.369028 
697 1 1.65188 13.5962 16.6862 
698 2 1.64549 13.1931 17.6197 
699 2 2.25421 14.3362 16.829 
700 1 2.64638 13.9261 12.1997 
701 2 2.44474 13.5681 13.0959 
702 2 2.46543 13.2491 11.5176 
703 1 -1.82693 8.87874 12.0583 
704 2 -2.12183 9.52166 11.3591 
705 2 -0.93605 8.59734 11.8774 
706 1 -2.88698 8.83804 16.9651 
707 2 -2.65826 9.39467 16.2491 
708 2 -2.35834 8.03546 16.9927 
709 1 3.35427 10.1884 12.0594 
710 2 3.44425 9.60419 12.8258 
711 2 2.43462 10.4329 12.0587 
712 1 0.887373 10.2662 16.9028 
713 2 0.622889 9.69401 16.1797 
714 2 1.86416 10.4715 16.847 
715 1 -3.57778 12.4394 17.0099 
716 2 -3.80769 12.8135 17.9172 
717 2 -4.15232 11.7297 16.6589 
718 1 -1.33705 12.5414 12.0927 
719 2 -2.22353 12.2206 12.3511 
720 2 -0.984104 12.9887 12.8501 
721 1 3.41956 10.7437 16.0754 
722 2 3.02588 11.324 15.3865 
723 2 4.18138 11.3104 16.4206 
724 1 0.726264 10.9277 12.7987 
725 2 -0.105686 11.1854 12.3247 
726 2 0.521444 10.1611 13.3192 
727 1 -3.76497 11.6509 13.0814 
728 2 -3.39908 11.0372 13.7287 
729 2 -3.96074 12.4131 13.6163 
730 1 -1.0212 11.8676 15.9538 
731 2 -1.93135 12.0153 16.3733 
732 2 -0.424719 11.4765 16.6473 
733 1 4.71284 14.5901 11.0728 
734 2 4.04178 14.3454 11.7842 
735 2 5.47097 15.0356 11.487 
736 1 -0.904381 14.5882 17.4751 
737 2 -0.6313 15.1926 18.1833 
738 2 -0.102983 14.4826 16.9998 
739 1 -5.48568 8.11142 17.684 
740 2 -4.96001 7.44366 18.1893 
741 2 -4.81004 8.45295 17.0204 
742 1 0.715321 7.7401 11.4045 
743 2 0.151933 7.09699 10.8667 
744 2 1.29288 7.0986 11.7903 
745 1 2.23535 12.5613 14.368 
746 2 1.8358 12.9326 15.2039 
747 2 1.49476 12.0166 13.9438 
748 1 -2.31165 9.92921 14.4405 
749 2 -1.61281 10.4904 14.7915 
750 2 -1.91219 9.65786 13.5345 
751 1 3.61599 8.54848 9.70293 
752 2 3.45766 9.18848 10.3711 
753 2 3.87847 9.03667 8.87473 
754 1 -0.918194 13.6874 9.83501 
755 2 -1.241 13.4074 10.7424 
756 2 -1.62823 14.2052 9.36799 
757 1 12.2859 8.4351 14.1929 
758 2 12.7664 7.66898 14.4369 
759 2 11.2727 8.37428 14.1915 
760 1 9.69887 8.57251 14.4707 
761 2 9.21088 9.20485 13.9387 
762 2 9.13886 7.7674 14.4358 
763 1 5.12519 13.9205 14.6988 
764 2 5.49826 13.5228 15.5342 
765 2 6.03653 14.1791 14.3171 
766 1 7.93151 13.6593 14.1144 
767 2 8.64684 14.2866 14.317 
768 2 8.02338 12.861 14.6425 
769 1 10.7277 12.3696 18.9656 
770 2 11.2768 11.5548 19.1159 
771 2 9.78723 12.1644 19.1413 
772 1 11.2921 12.3091 10.0036 
773 2 10.8211 11.5554 9.58264 
774 2 11.1084 13.0373 9.35435 
775 1 6.76969 10.0982 9.88541 
776 2 7.65571 10.5262 9.71506 
777 2 6.18192 10.8386 9.63779 
778 1 6.45917 10.1665 19.2563 
779 2 6.28303 9.89319 18.3615 
780 2 13.0169 9.34323 0.638556 
781 1 10.3334 13.7662 16.8365 
782 2 10.6084 13.12 16.1662 
783 2 10.5029 13.2402 17.6619 
784 1 11.4222 13.7763 12.0679 
785 2 11.3688 13.0476 11.3664 
786 2 12.3456 14.1114 12.0288 
787 1 7.0423 8.46966 11.986 
788 2 6.33695 7.79347 11.7878 
789 2 6.67795 9.08836 11.3476 
790 1 6.07917 8.93958 16.8665 
791 2 5.15675 8.43832 17.0151 
792 2 6.07244 9.24296 15.9183 
793 1 12.2242 10.1016 11.8473 
794 2 12.877 10.6959 12.2181 
795 2 12.2696 9.38593 12.4793 
796 1 9.97362 9.90247 16.796 
797 2 10.911 10.2454 16.6128 
798 2 9.82983 9.41018 15.967 
799 1 5.38375 12.4634 16.9372 
800 2 5.5229 13.0066 17.7432 
801 2 6.21729 11.969 16.8061 
802 1 7.56705 12.3449 11.8026 
803 2 6.62236 12.0821 12.0385 
804 2 7.85125 12.899 12.5081 
805 1 12.5549 10.7271 15.9586 
806 2 12.003 11.3086 15.3182 
807 2 12.6867 9.90744 15.4296 
808 1 9.74788 10.9035 12.7967 
809 2 10.5616 10.5435 12.3612 
810 2 9.16457 11.3678 12.1288 
811 1 5.2405 11.7725 12.7197 
812 2 4.512 11.0585 12.4245 
813 2 4.89614 12.462 13.3711 
814 1 7.84943 11.5361 15.8833 
815 2 8.57911 11.0942 16.3215 
816 2 7.55689 10.7939 15.2898 
817 1 14.2363 14.5188 11.3422 
818 2 13.7542 14.9406 10.6351 
819 2 -3.49143 13.6515 10.9445 
820 1 7.82139 14.3727 17.6991 
821 2 8.32345 14.8007 18.4465 
822 2 8.59507 14.082 17.1491 
823 1 3.57118 7.88476 17.5759 
824 2 2.85115 7.39558 17.1098 
825 2 3.1297 8.63402 18.038 
826 1 9.56993 7.95544 11.0012 
827 2 10.1325 7.33503 11.4737 
828 2 8.74917 8.07476 11.5508 
829 1 11.1178 12.5598 14.4996 
830 2 11.578 13.3183 14.0766 
831 2 10.54 12.1666 13.8817 
832 1 6.45298 9.87249 14.3453 
833 2 6.56774 9.18802 13.6661 
834 2 5.97968 10.6479 13.9108 
835 1 12.3361 8.57506 9.6724 
836 2 12.7408 9.15515 8.95492 
837 2 12.1455 9.20032 10.3871 
838 1 8.17952 13.5806 9.70679 
839 2 7.85845 13.106 10.5727 
840 2 7.33307 14.0304 9.49788 
841 1 3.35701 15.8339 14.219 
842 2 3.91788 15.006 14.3241 
843 2 3.40406 16.1982 13.3804 
844 1 0.8554 15.831 14.6891 
845 2 1.86586 15.8984 14.6599 
846 2 0.573888 16.5371 14.0644 
847 1 -3.66407 21.1973 14.7103 
848 2 -4.26972 22.0297 14.6626 
849 2 -4.00742 20.4253 14.191 
850 1 -0.991816 21.1402 14.5001 
851 2 -1.9406 21.3373 14.6921 
852 2 -0.845151 20.36 15.0688 
853 1 1.45082 19.7343 19.0793 
854 2 1.84692 18.8379 19.1148 
855 2 8.42867 20.4467 0.757536 
856 1 2.24097 19.7571 10.1977 
857 2 2.22101 20.476 9.51445 
858 2 2.35489 20.2565 11.0621 
859 1 -2.44173 17.5829 9.42386 
860 2 -1.47976 17.7785 9.43781 
861 2 -2.60607 17.1887 10.2855 
862 1 -2.91522 17.7051 19.2522 
863 2 -2.26403 18.4874 19.0945 
864 2 -2.98731 17.157 18.3799 
865 1 1.24924 21.5882 17.1351 
866 2 1.48737 20.7813 17.714 
867 2 1.25511 21.2333 16.2892 
868 1 2.55925 21.228 12.4626 
869 2 3.40192 21.6965 12.1761 
870 2 1.75166 21.8403 12.2677 
871 1 -1.91036 16.5043 12.0163 
872 2 -1.0029 16.3017 11.736 
873 2 -2.40968 15.6314 11.7983 
874 1 -3.2396 16.1657 17.0681 
875 2 -2.44506 15.5684 17.1383 
876 2 -3.96126 15.6592 17.4578 
877 1 3.13006 17.434 12.0416 
878 2 2.28374 17.7684 12.2939 
879 2 3.04915 17.138 11.1115 
880 1 1.14647 17.8191 16.8142 
881 2 0.885939 17.3365 17.6383 
882 2 1.00251 17.1598 16.0989 
883 1 -3.60336 19.8801 17.1044 
884 2 -3.64389 20.602 16.4548 
885 2 -2.74575 19.4265 16.9525 
886 1 -1.70936 19.7583 12.1326 
887 2 -2.53259 19.6465 12.5572 
888 2 -1.25018 20.3993 12.7636 
889 1 3.67577 18.1851 15.9513 
890 2 3.05815 17.9108 16.6632 
891 2 3.91725 17.3556 15.4789 
892 1 0.739836 18.3796 13.262 
893 2 1.19506 19.0142 13.83 
894 2 0.0825412 18.7483 12.6981 
895 1 -4.23054 18.9457 13.3495 
896 2 13.0891 18.4307 12.7739 
897 2 -3.6352 18.2337 13.7862 
898 1 -1.24311 18.9535 16.3945 
899 2 -1.54549 18.1854 15.8441 
900 2 -0.313393 18.7452 16.6751 
901 1 4.93436 22.1996 11.408 
902 2 5.17415 21.3787 10.9644 
903 2 4.54897 0.262639 10.6773 
904 1 -1.28896 21.9674 18.0778 
905 2 -0.511765 21.6416 17.5752 
906 2 -1.77547 0.114164 17.4094 
907 1 -5.71271 15.4036 18.0019 
908 2 11.5265 15.0008 17.4449 
909 2 -5.44223 14.656 18.5945 
910 1 0.474309 15.3904 11.2205 
911 2 0.278483 14.587 10.6783 
912 2 1.3173 15.2044 11.7059 
913 1 1.84266 20.0667 14.9051 
914 2 2.65133 19.4575 15.1226 
915 2 2.11299 20.5604 14.1304 
916 1 -2.44996 17.1181 14.6187 
917 2 -2.65759 16.3563 15.1942 
918 2 -1.96124 16.8607 13.7295 
919 1 3.34329 16.3965 9.60323 
920 2 4.06398 15.8961 10.0738 
921 2 3.81484 16.9909 9.02053 
922 1 -0.910917 20.9802 9.72687 
923 2 -1.51756 21.6864 9.34529 
924 2 -1.25859 20.6428 10.5796 
925 1 12.405 16.0233 14.5913 
926 2 12.365 16.8565 15.1125 
927 2 -4.72783 15.4744 14.8669 
928 1 9.65146 15.5764 14.6482 
929 2 10.6324 15.5079 14.6525 
930 2 9.47823 15.9603 15.5326 
931 1 5.03396 21.359 14.5248 
932 2 6.02886 21.3333 14.4561 
933 2 4.73042 20.4631 14.1261 
934 1 7.68835 21.1434 14.5314 
935 2 7.81026 20.4716 15.2452 
936 2 7.89113 20.7431 13.6788 
937 1 10.2945 19.5496 19.0413 
938 2 17.1936 20.1587 0.721013 
939 2 10.6773 18.7371 19.2093 
940 1 11.1022 19.8431 9.89751 
941 2 11.0884 20.7499 9.44498 
942 2 11.1496 20.0686 10.8353 
943 1 6.79375 17.7171 9.95621 
944 2 6.55425 16.9966 9.27896 
945 2 7.71834 18.0218 9.83764 
946 1 12.6492 17.7505 0.315242 
947 2 6.07419 17.1957 18.4633 
948 2 13.2144 18.6101 0.361677 
949 1 10.4211 21.5211 16.7741 
950 2 9.56592 21.83 17.0993 
951 2 10.6312 20.8333 17.5344 
952 1 11.4688 21.7883 12.5808 
953 2 11.3833 21.1031 13.2784 
954 2 12.28 21.7165 12.0026 
955 1 6.84332 16.037 12.1461 
956 2 7.62953 15.4976 12.0473 
957 2 6.84411 16.6706 11.3706 