ITEM: TIMESTEP
1010000
ITEM: NUMBER OF ATOMS
1008
ITEM: BOX BOUNDS xy xz yz pp pp pp
-6.4147069515985624e+00 1.8196019462000184e+01 3.6358647586867861e-02
5.6681477118768683e-03 2.2505808568641296e+01 -6.6546011371800162e+00
2.1947802845152076e-01 1.9286237971543926e+01 -5.8912283640811226e-02
ITEM: ATOMS id type x y z 
1 1 6.48261 1.26262 4.89794 
2 2 7.17771 0.514393 4.98817 
3 2 6.67632 1.59623 3.99628 
4 1 3.7994 1.05395 5.03722 
5 2 4.80759 1.07656 5.07442 
6 2 3.50944 1.43305 5.90213 
7 1 -0.559751 6.28359 4.97379 
8 2 -0.568352 5.97325 5.86174 
9 2 -1.15355 7.02034 4.88426 
10 1 2.21557 6.18315 4.80441 
11 2 1.29226 6.50855 4.75645 
12 2 2.84446 6.88449 4.97028 
13 1 4.88263 4.38603 9.65049 
14 2 4.9273 4.88624 8.82339 
15 2 3.92002 4.28352 9.75008 
16 1 -0.835411 4.85218 19.206 
17 2 -1.62035 4.2804 19.2157 
18 2 5.75387 5.30948 1.04878 
19 1 0.920025 2.71512 0.665093 
20 2 0.447715 3.56276 0.635038 
21 2 0.903113 2.31355 1.55803 
22 1 0.39615 2.37604 9.64979 
23 2 1.07208 3.04099 9.77189 
24 2 -0.538964 2.70496 9.84013 
25 1 4.68508 6.12427 7.09903 
26 2 5.36973 6.77013 7.46807 
27 2 3.78553 6.44991 7.31597 
28 1 5.69179 6.21937 2.47585 
29 2 5.53748 5.8404 3.3274 
30 2 5.09917 6.96507 2.41859 
31 1 1.14094 1.20468 2.899 
32 2 2.04493 0.788867 2.8746 
33 2 1.0996 1.68177 3.75719 
34 1 -0.0486357 1.0967 7.29964 
35 2 -0.994014 0.875073 7.52499 
36 2 0.230845 1.71126 7.95311 
37 1 6.32657 2.76699 2.4447 
38 2 5.40153 3.07806 2.41366 
39 2 6.93822 3.49799 2.75335 
40 1 3.87753 2.37419 7.40877 
41 2 4.81531 2.71591 7.21704 
42 2 3.30692 3.20148 7.27788 
43 1 -0.325906 4.95761 7.23595 
44 2 -1.09469 4.36533 6.92604 
45 2 -0.565539 5.1092 8.1871 
46 1 1.53991 4.80848 2.48512 
47 2 0.614745 4.48343 2.69653 
48 2 1.68122 5.5059 3.14956 
49 1 6.41277 3.42905 6.44082 
50 2 6.13095 4.12017 5.70813 
51 2 6.53591 2.5798 6.01252 
52 1 3.61196 3.31643 3.52862 
53 2 2.78655 3.6239 3.12291 
54 2 3.47031 2.3955 3.8951 
55 1 -0.707213 4.05813 3.67542 
56 2 -0.812384 4.94113 4.18374 
57 2 -0.313239 3.33806 4.29974 
58 1 2.10957 4.1176 6.59052 
59 2 2.27924 4.74664 5.88309 
60 2 1.24255 4.3928 6.99628 
61 1 8.36392 7.10541 1.62775 
62 2 7.66866 6.7113 2.20631 
63 2 8.6971 6.39255 1.02781 
64 1 2.3216 6.90506 8.36788 
65 2 1.7672 7.53406 7.77737 
66 2 2.81083 7.48652 9.018 
67 1 -2.30851 0.545498 8.54365 
68 2 -2.5881 1.3099 9.08849 
69 2 14.8348 0.0940517 8.10096 
70 1 3.66728 0.661895 2.09178 
71 2 3.495 22.4779 1.37528 
72 2 3.7215 1.45549 1.56517 
73 1 5.1351 5.19105 4.81512 
74 2 4.88103 5.47083 5.74368 
75 2 4.51904 4.47142 4.59854 
76 1 0.737479 2.32411 5.15645 
77 2 0.356208 1.75856 5.87917 
78 2 1.27827 2.97519 5.66355 
79 1 7.10856 1.51012 0.276486 
80 2 6.74433 1.96654 1.12041 
81 2 -0.199049 0.813725 19.0219 
82 1 2.50071 5.93509 0.253535 
83 2 2.17243 5.36401 1.04067 
84 2 3.09765 6.60905 0.627641 
85 1 15.6428 0.898637 4.86171 
86 2 16.4385 0.357842 4.88964 
87 2 15.7038 1.40801 3.97431 
88 1 12.9573 0.947846 5.20738 
89 2 12.7527 1.64807 4.59086 
90 2 13.9144 0.845523 4.95779 
91 1 8.39301 6.27326 5.35227 
92 2 8.19316 5.53204 4.78884 
93 2 9.37336 6.53909 5.05414 
94 1 11.0059 6.63683 4.74878 
95 2 11.6055 7.38406 4.9045 
96 2 11.3189 5.92631 5.35501 
97 1 14.3094 4.94364 9.73202 
98 2 14.2278 5.65027 10.4032 
99 2 13.3786 4.64471 9.68547 
100 1 14.4318 4.58279 0.494897 
101 2 14.3764 4.72436 1.46675 
102 2 13.9965 3.739 0.338906 
103 1 10.3306 2.53897 0.280683 
104 2 3.03171 3.21441 19.2577 
105 2 3.35374 1.7343 18.8472 
106 1 9.74513 2.75568 9.61809 
107 2 10.0523 1.94277 10.068 
108 2 8.77888 2.7674 9.75145 
109 1 13.8224 6.47423 7.34421 
110 2 14.1363 5.91279 8.13083 
111 2 12.8801 6.70119 7.50864 
112 1 14.9576 6.05496 2.73478 
113 2 14.3956 6.87792 2.70148 
114 2 15.8373 6.42051 2.59289 
115 1 10.7433 1.41194 2.77525 
116 2 10.5332 1.92092 1.96812 
117 2 10.3248 0.571423 2.68397 
118 1 9.15174 1.22549 7.43747 
119 2 9.28011 2.02124 8.03166 
120 2 9.31046 1.60365 6.55255 
121 1 15.4085 2.32017 2.66341 
122 2 15.9631 3.10778 2.78125 
123 2 15.5918 1.8948 1.80133 
124 1 13.3973 2.78741 7.58215 
125 2 14.3226 2.91359 7.22257 
126 2 13.0527 2.01589 7.07815 
127 1 8.75591 4.75328 7.57341 
128 2 8.00472 4.1835 7.24152 
129 2 8.71511 5.52366 6.96866 
130 1 11.1232 4.84477 2.39344 
131 2 11.8678 4.23928 2.54826 
132 2 11.1827 5.68209 2.97287 
133 1 15.596 3.32278 6.31606 
134 2 15.2887 3.97433 5.56556 
135 2 15.6455 2.50127 5.82761 
136 1 12.8706 3.14981 3.62859 
137 2 13.2078 3.84884 4.24214 
138 2 13.6239 2.73461 3.22926 
139 1 8.31897 4.1615 3.21989 
140 2 8.98919 4.70156 2.74773 
141 2 8.89624 3.48655 3.71309 
142 1 11.2468 4.51135 6.45629 
143 2 11.8897 4.07353 7.05941 
144 2 10.3974 4.48759 6.98121 
145 1 17.4722 7.20406 1.89205 
146 2 -0.148571 6.41133 1.43408 
147 2 16.8131 7.7024 1.24622 
148 1 11.2525 7.31677 8.08442 
149 2 10.9463 6.55918 8.64991 
150 2 11.656 7.97321 8.66381 
151 1 6.72122 0.58273 8.25642 
152 2 7.63824 0.70365 7.95622 
153 2 6.56608 1.38526 8.75552 
154 1 13.0493 0.338053 1.9723 
155 2 13.4339 0.963087 1.37791 
156 2 12.3343 0.865071 2.31256 
157 1 14.2814 5.08696 5.12052 
158 2 14.6736 5.55264 4.35498 
159 2 14.0193 5.67253 5.83166 
160 1 9.79812 2.43596 4.89997 
161 2 10.4016 3.08434 5.34365 
162 2 10.2172 1.84125 4.28832 
163 1 9.41168 1.29491 19.2563 
164 2 8.7993 0.657604 18.8609 
165 2 16.7415 0.691012 0.451975 
166 1 5.15162 6.27439 19.2561 
167 2 11.4501 5.77567 0.932508 
168 2 4.51701 6.79788 18.7513 
169 1 6.661 8.53775 4.84635 
170 2 7.16699 7.73813 5.16074 
171 2 6.93882 9.31226 5.37561 
172 1 3.90682 8.54084 5.28021 
173 2 3.72294 9.29456 4.67926 
174 2 4.83343 8.29651 5.03124 
175 1 -0.278661 14.4294 5.10248 
176 2 -0.311294 14.0512 5.95373 
177 2 -1.04072 15.0954 5.06365 
178 1 2.34309 13.6973 4.42452 
179 2 1.52877 14.2178 4.48201 
180 2 3.02444 14.3712 4.38235 
181 1 5.09903 12.2528 9.76176 
182 2 5.4243 12.507 8.83906 
183 2 5.23474 13.1327 10.2508 
184 1 -1.21312 12.1257 19.2776 
185 2 -0.271717 11.8699 19.1434 
186 2 -1.16265 12.996 18.798 
187 1 -5.75765 9.98809 19.2816 
188 2 -6.02001 9.17593 18.8928 
189 2 -4.81119 10.0434 19.1059 
190 1 0.805677 10.2068 9.46395 
191 2 0.940113 9.5818 10.2145 
192 2 0.800847 9.66885 8.64775 
193 1 4.88702 13.6779 7.24278 
194 2 5.04144 13.5201 6.27953 
195 2 3.93303 13.9721 7.36486 
196 1 5.94162 13.942 2.24355 
197 2 5.85464 13.604 3.13886 
198 2 5.76522 13.1658 1.67293 
199 1 1.40334 9.03377 2.73528 
200 2 1.1486 9.55172 1.939 
201 2 0.770714 8.33635 2.60072 
202 1 0.59926 8.45016 7.12472 
203 2 -0.322112 8.23544 7.31754 
204 2 0.674778 9.12088 6.3984 
205 1 6.59459 9.99217 2.63823 
206 2 6.6842 9.18899 3.21017 
207 2 6.53645 9.79729 1.69448 
208 1 4.28194 10.2106 7.68312 
209 2 3.63753 10.9382 7.60741 
210 2 3.94039 9.53809 7.02434 
211 1 -0.346443 12.6598 7.34116 
212 2 -0.585312 13.1214 8.17774 
213 2 -1.01592 12.0197 7.09861 
214 1 1.8238 12.1373 2.09176 
215 2 1.98292 12.6113 2.95912 
216 2 0.864814 11.8485 2.26679 
217 1 6.71192 10.7461 6.09531 
218 2 7.4491 11.1273 6.5442 
219 2 5.96659 10.7547 6.77941 
220 1 3.95676 10.8729 3.42884 
221 2 4.74128 10.567 2.95833 
222 2 3.17991 11.0389 2.80867 
223 1 -0.408833 12.0721 3.54252 
224 2 -0.0999651 11.4431 4.19486 
225 2 -0.211531 12.9434 3.82109 
226 1 2.16213 12.0581 6.67959 
227 2 2.30208 12.694 5.96609 
228 2 1.2074 12.2851 6.93781 
229 1 8.22305 14.5273 1.10992 
230 2 8.89164 14.9045 1.73385 
231 2 7.3546 14.4275 1.66388 
232 1 2.24216 14.8413 8.11957 
233 2 2.89439 15.4959 8.4861 
234 2 1.98719 14.1903 8.80695 
235 1 -1.97327 7.85168 8.16751 
236 2 -2.15426 8.6485 8.74207 
237 2 15.1024 7.54128 7.78988 
238 1 3.64158 8.03799 1.5276 
239 2 3.0097 8.53106 2.08256 
240 2 3.99458 8.68689 0.929029 
241 1 5.52592 12.6996 4.60684 
242 2 5.97625 12.0825 5.2197 
243 2 4.69588 12.1804 4.36311 
244 1 0.80056 10.1411 5.25081 
245 2 1.19346 9.71041 4.4747 
246 2 1.51109 10.8122 5.54248 
247 1 -0.0664979 8.84036 19.0439 
248 2 7.35857 8.33398 0.364402 
249 2 0.382609 9.31735 18.3266 
250 1 -4.14345 13.605 19.0677 
251 2 2.14762 13.0542 0.64334 
252 2 3.08119 14.3008 0.478441 
253 1 15.6624 8.22478 4.83924 
254 2 16.0023 8.90044 5.43468 
255 2 15.7345 8.75051 4.03749 
256 1 12.7441 8.68379 5.18481 
257 2 13.6387 8.34426 5.04646 
258 2 12.6011 9.34313 4.52802 
259 1 8.59767 14.1073 5.08236 
260 2 8.69145 13.4754 5.82472 
261 2 7.87812 14.6633 5.41308 
262 1 11.1531 14.178 4.94284 
263 2 10.215 14.3283 4.92105 
264 2 11.6289 15.0845 5.10613 
265 1 14.2657 12.3732 9.61647 
266 2 14.2356 12.8378 8.78234 
267 2 13.3731 12.0968 9.72526 
268 1 8.21513 11.9545 19.2768 
269 2 7.80159 12.6375 18.7409 
270 2 7.58999 11.2299 19.2324 
271 1 10.282 10.318 0.462017 
272 2 10.2292 9.81906 1.3161 
273 2 11.2122 10.5443 0.368246 
274 1 9.7029 10.4721 9.6163 
275 2 9.59479 9.70046 10.197 
276 2 9.55959 10.0878 8.73444 
277 1 13.9452 13.8529 7.33717 
278 2 14.2645 13.5137 6.46936 
279 2 14.5716 14.528 7.6199 
280 1 15.0022 13.5684 2.58403 
281 2 14.9532 13.0665 1.68871 
282 2 15.8263 14.1126 2.54861 
283 1 10.5241 8.72629 2.59556 
284 2 10.4769 9.07221 3.49531 
285 2 9.93907 7.95853 2.55554 
286 1 9.20176 8.93637 7.37286 
287 2 9.83921 8.23713 7.58438 
288 2 8.34803 8.42937 7.38002 
289 1 15.5084 9.91155 2.55049 
290 2 16.2542 10.524 2.57781 
291 2 15.4108 9.64712 1.62218 
292 1 13.5869 9.90568 7.4517 
293 2 13.0272 10.7057 7.31054 
294 2 13.0861 9.24204 6.91449 
295 1 8.78782 12.4175 7.22355 
296 2 8.76455 12.6336 8.20221 
297 2 9.72094 12.2885 7.16033 
298 1 11.064 12.3778 2.89573 
299 2 11.1028 13.064 3.60708 
300 2 10.0833 12.1352 2.89932 
301 1 -1.8336 10.5709 6.29893 
302 2 15.412 10.2871 6.95438 
303 2 15.6286 11.2193 5.72427 
304 1 13.2123 10.7348 3.63965 
305 2 12.5748 11.3575 3.27606 
306 2 13.9127 10.4532 2.97842 
307 1 8.48909 11.7092 3.519 
308 2 8.10541 12.5624 3.78267 
309 2 7.72986 11.1812 3.13779 
310 1 11.6869 11.9497 6.44707 
311 2 11.1487 11.3617 5.85372 
312 2 11.6453 12.8485 5.95723 
313 1 17.336 14.5131 1.26195 
314 2 17.5986 13.666 0.803932 
315 2 0.155162 14.8608 1.90494 
316 1 11.2696 14.6291 8.3056 
317 2 10.6771 15.1236 7.75298 
318 2 12.078 14.3112 7.79544 
319 1 6.58454 7.67349 8.43727 
320 2 6.59077 8.51849 8.93367 
321 2 7.05581 7.13854 9.13013 
322 1 13.1273 7.84709 2.02587 
323 2 12.1788 8.16752 2.28664 
324 2 12.8983 7.16112 1.32176 
325 1 14.6658 12.5679 4.8769 
326 2 13.9892 11.9139 4.68699 
327 2 14.9009 13.0021 4.00321 
328 1 9.84166 9.83065 4.90079 
329 2 9.49942 9.47054 5.69701 
330 2 9.22304 10.3992 4.45391 
331 1 15.7275 8.44403 0.325007 
332 2 9.44617 8.99457 18.7379 
333 2 8.72856 7.65837 18.8762 
334 1 11.2052 13.6181 0.555858 
335 2 11.0394 13.0877 1.42149 
336 2 11.795 14.3193 0.926408 
337 1 6.7041 16.3738 4.99475 
338 2 5.75652 16.145 5.08816 
339 2 6.70588 16.5189 4.02158 
340 1 3.83853 15.9655 5.09277 
341 2 3.67865 16.8803 4.64565 
342 2 3.66015 16.0851 6.03156 
343 1 -0.488728 21.222 4.73897 
344 2 0.495308 21.2943 4.5982 
345 2 -0.572521 20.8917 5.69221 
346 1 2.31324 21.3215 4.57205 
347 2 2.9917 22.0486 4.58966 
348 2 2.37159 20.8233 3.75732 
349 1 4.79358 19.7379 9.45779 
350 2 5.21306 18.8821 9.47314 
351 2 3.81956 19.5514 9.50135 
352 1 5.58331 19.9678 0.288271 
353 2 -1.08377 20.6431 18.6303 
354 2 -0.109884 19.708 19.2832 
355 1 1.20401 17.4402 0.332883 
356 2 -5.61206 16.6488 18.7495 
357 2 2.17198 17.6208 0.437041 
358 1 0.0551907 17.9075 9.75064 
359 2 0.802406 18.5253 9.71699 
360 2 0.174395 17.3128 10.4684 
361 1 5.0597 21.3055 7.34946 
362 2 5.57497 22.1224 7.5194 
363 2 5.21408 20.7548 8.14449 
364 1 5.98616 21.5037 2.65078 
365 2 5.60899 20.8918 1.96526 
366 2 5.41704 22.2871 2.56646 
367 1 1.38837 15.6583 2.55731 
368 2 2.35585 15.5393 2.41997 
369 2 1.24318 16.3767 1.90344 
370 1 0.250663 16.5068 7.37514 
371 2 0.0454241 17.176 8.07157 
372 2 0.789495 15.8482 7.89062 
373 1 6.33246 17.4931 2.46566 
374 2 6.98813 18.1581 2.76133 
375 2 5.40543 17.6888 2.67544 
376 1 4.36807 17.5366 7.35257 
377 2 3.83724 18.3873 7.32425 
378 2 5.20573 17.8934 7.01607 
379 1 -0.196109 19.9999 7.23422 
380 2 0.79208 19.8708 7.07452 
381 2 -0.451893 20.3418 8.14076 
382 1 2.24908 19.6989 2.39301 
383 2 1.39726 19.1729 2.41414 
384 2 2.23657 20.2859 1.56416 
385 1 6.77349 18.4446 6.61374 
386 2 6.3694 19.1753 6.13434 
387 2 6.89831 17.7328 6.00748 
388 1 3.90579 18.1716 3.72698 
389 2 4.41807 18.843 4.27831 
390 2 3.2778 18.8036 3.22449 
391 1 -0.558043 19.1317 3.18428 
392 2 -0.595128 19.8482 3.80437 
393 2 -0.0125192 18.506 3.68854 
394 1 2.31417 19.369 6.43069 
395 2 2.54213 20.0018 5.72941 
396 2 1.92375 18.6169 5.97815 
397 1 8.49747 21.8645 1.71259 
398 2 7.73536 21.6995 2.29353 
399 2 8.23608 0.198763 1.14383 
400 1 2.23494 21.8671 8.123 
401 2 1.43385 22.2504 7.77253 
402 2 2.94652 22.0749 7.42261 
403 1 -2.38168 15.835 8.28319 
404 2 -1.58036 15.9968 7.7275 
405 2 -2.38794 16.6301 8.86672 
406 1 3.97207 15.422 1.68937 
407 2 4.83212 14.9084 1.99297 
408 2 4.1858 16.2465 1.19765 
409 1 5.48567 20.2777 4.93333 
410 2 5.72472 20.8955 4.19946 
411 2 5.36148 20.8476 5.73681 
412 1 0.948442 17.5246 4.83469 
413 2 1.1731 16.7919 4.2389 
414 2 0.520857 17.079 5.61304 
415 1 0.389431 16.4522 19.0105 
416 2 7.53623 15.6694 0.288285 
417 2 6.72843 16.9368 0.73417 
418 1 2.60902 21.3782 0.378643 
419 2 -4.6985 21.8752 18.9035 
420 2 -3.67944 20.7604 18.6672 
421 1 15.5356 16.2764 4.91273 
422 2 14.626 15.9351 5.14647 
423 2 15.3803 16.6734 3.97781 
424 1 12.6877 16.2339 5.4749 
425 2 12.7411 16.6457 6.34325 
426 2 12.5961 17.02 4.855 
427 1 8.20096 21.7589 5.12256 
428 2 8.24752 21.2177 5.93822 
429 2 9.11986 21.9211 4.86891 
430 1 11.1871 21.4487 4.6123 
431 2 11.0967 20.6631 5.11785 
432 2 11.8902 22.0581 4.94011 
433 1 13.8732 20.1477 9.7161 
434 2 14.4081 19.3558 9.85834 
435 2 12.9595 19.8427 9.82339 
436 1 14.5994 19.6705 0.25319 
437 2 14.8405 19.9308 1.1748 
438 2 8.71815 19.2146 18.9351 
439 1 10.0355 17.7687 0.285107 
440 2 11.0036 17.7057 0.437171 
441 2 3.22564 16.9681 18.7176 
442 1 9.45034 17.7325 9.54354 
443 2 9.65036 17.0084 10.2083 
444 2 10.1325 18.3653 9.82317 
445 1 13.5916 21.4386 7.56959 
446 2 12.6048 21.5976 7.69697 
447 2 13.7971 20.7549 8.23398 
448 1 15.0035 21.152 2.5128 
449 2 14.9161 20.9414 3.47569 
450 2 14.3729 21.8816 2.35116 
451 1 10.1506 16.2117 2.49265 
452 2 10.0802 16.9205 1.82698 
453 2 11.0757 15.9103 2.5769 
454 1 8.93538 16.1773 7.37637 
455 2 9.23586 16.4832 6.48815 
456 2 9.28879 16.8069 8.01569 
457 1 15.302 17.4706 2.5067 
458 2 14.4849 18.0116 2.66701 
459 2 15.9697 18.163 2.65508 
460 1 13.1661 17.7651 7.61305 
461 2 12.5058 18.368 7.22959 
462 2 14.0799 17.9929 7.3248 
463 1 8.71147 20.2721 7.35606 
464 2 8.41509 20.5253 8.29564 
465 2 8.19391 19.5009 7.12057 
466 1 10.6013 19.5758 2.33602 
467 2 11.2262 19.9027 1.64303 
468 2 10.5648 20.3487 2.94875 
469 1 15.5951 18.3084 6.65972 
470 2 -1.42909 18.7519 6.6948 
471 2 15.708 17.5216 6.10217 
472 1 12.9159 18.4317 3.79149 
473 2 12.1518 18.8495 3.42672 
474 2 13.214 19.1223 4.43772 
475 1 8.27781 19.1956 3.49231 
476 2 8.03313 19.9552 4.01195 
477 2 9.03812 19.3907 2.90694 
478 1 11.1406 19.404 6.35169 
479 2 10.8121 18.6819 5.72777 
480 2 10.4091 19.5265 6.93373 
481 1 17.5907 21.7765 1.46252 
482 2 0.295412 22.3075 1.93666 
483 2 16.7666 21.8687 2.04351 
484 1 11.044 21.9273 8.1648 
485 2 10.1062 22.1928 7.97437 
486 2 11.3536 0.249513 8.67065 
487 1 6.7594 15.1957 8.49216 
488 2 6.1581 14.7627 7.89615 
489 2 7.52968 15.5458 7.99656 
490 1 12.8095 15.3262 1.69715 
491 2 13.0707 16.2113 1.33161 
492 2 13.6398 14.9033 2.00929 
493 1 14.2652 20.2386 5.26611 
494 2 13.9759 20.8866 5.99184 
495 2 14.8372 19.5648 5.79813 
496 1 9.79103 17.5707 4.92933 
497 2 9.14647 18.1869 4.51117 
498 2 10.0832 17.0488 4.13989 
499 1 9.07211 16.2061 19.1593 
500 2 16.2809 15.5809 0.500471 
501 2 15.4385 16.787 0.888615 
502 1 11.9128 20.7939 0.413167 
503 2 5.66396 20.5425 18.6005 
504 2 12.5196 21.4791 0.829163 
505 1 3.39061 1.03075 14.1691 
506 2 3.76806 1.54899 14.9032 
507 2 3.9067 0.190787 14.2459 
508 1 0.852131 1.38705 14.6618 
509 2 0.180914 0.613018 14.6858 
510 2 1.74985 1.03391 14.4656 
511 1 -3.80339 6.67543 14.5756 
512 2 -3.90077 6.11741 13.8075 
513 2 -3.74163 6.09761 15.3701 
514 1 -1.11171 7.05969 14.4251 
515 2 -0.744093 6.30512 15.0077 
516 2 -2.12769 7.05071 14.5173 
517 1 2.09138 4.61866 19.131 
518 2 1.13222 4.38337 19.1844 
519 2 2.17128 4.99692 18.2283 
520 1 2.13281 4.4724 9.7786 
521 2 1.90462 5.18703 9.13285 
522 2 2.18627 4.86222 10.6463 
523 1 -2.30439 2.70773 10.1829 
524 2 -2.89633 3.50749 10.0797 
525 2 -2.38497 2.32306 11.0768 
526 1 3.64048 2.69734 0.506267 
527 2 -2.783 2.34157 18.7005 
528 2 2.68803 2.9114 0.424421 
529 1 1.53075 6.3124 17.0959 
530 2 1.57775 5.80207 16.2181 
531 2 0.693565 6.80386 17.2402 
532 1 2.24406 6.12984 12.2398 
533 2 3.12294 6.55038 12.1307 
534 2 2.37078 5.62397 13.0348 
535 1 -2.02135 1.18208 12.6041 
536 2 -2.76825 0.506084 12.4124 
537 2 -1.22541 0.730795 12.2942 
538 1 -3.01761 1.5235 17.0597 
539 2 -3.93384 1.17396 17.1459 
540 2 -2.93011 1.67183 16.0862 
541 1 3.01841 2.54784 12.0004 
542 2 3.21861 1.94406 12.716 
543 2 3.07711 2.06368 11.1549 
544 1 1.05486 2.90342 17.076 
545 2 0.809755 2.45921 17.9312 
546 2 0.863835 2.11656 16.5857 
547 1 -3.25079 5.07756 16.9175 
548 2 -3.97543 4.49095 16.6001 
549 2 -3.48191 5.33347 17.8477 
550 1 -1.369 5.23118 12.164 
551 2 -0.750225 4.47135 12.3478 
552 2 -1.17022 5.84651 12.8908 
553 1 3.53734 2.74096 16.0609 
554 2 2.79504 2.83352 16.6929 
555 2 4.30973 3.19731 16.4135 
556 1 0.400361 3.29356 12.5808 
557 2 1.2899 3.14702 12.2359 
558 2 0.257641 2.47456 13.1773 
559 1 -3.92579 4.56005 13.0544 
560 2 -3.22082 4.92097 12.4635 
561 2 -3.5347 3.96906 13.7251 
562 1 -0.811191 4.40732 15.5164 
563 2 -0.218621 4.02867 16.2143 
564 2 -1.54177 4.71635 16.0377 
565 1 5.07445 6.91152 11.3839 
566 2 4.74161 7.54935 10.7365 
567 2 4.94247 6.01916 10.9172 
568 1 -1.2618 6.98071 17.6623 
569 2 -1.29356 6.19543 18.1652 
570 2 -1.06933 7.75868 18.242 
571 1 -5.49849 0.516708 17.6951 
572 2 -5.90367 1.37802 18.0816 
573 2 11.6942 0.147999 17.1164 
574 1 0.393884 0.173987 11.2257 
575 2 -0.036874 22.0039 10.5511 
576 2 0.479504 1.03613 10.7757 
577 1 1.95531 4.60964 14.792 
578 2 1.24952 4.15449 14.4126 
579 2 2.65489 3.97903 14.9368 
580 1 -2.61336 2.58455 14.5558 
581 2 -2.23855 1.9568 13.8642 
582 2 -1.9141 3.21516 14.8269 
583 1 3.31335 1.2858 9.69727 
584 2 2.69019 0.655134 9.25672 
585 2 3.66337 1.72603 8.88921 
586 1 -0.496769 6.16083 9.77783 
587 2 -1.18325 6.66152 9.30939 
588 2 -0.880773 5.66224 10.5779 
589 1 12.2215 1.31012 14.4383 
590 2 11.2564 1.22327 14.4528 
591 2 12.5006 2.06234 14.8975 
592 1 9.51599 1.026 14.8602 
593 2 8.9039 0.226952 14.6434 
594 2 9.24066 1.75315 14.3281 
595 1 5.11387 6.46347 14.7581 
596 2 4.98436 5.93127 15.6232 
597 2 5.02254 5.82566 14.0352 
598 1 8.03437 6.49242 14.3857 
599 2 7.10672 6.65911 14.5589 
600 2 7.97124 6.12223 13.4773 
601 1 17.2592 4.76484 0.26262 
602 2 16.3601 4.57552 0.424531 
603 2 10.6035 4.86292 18.371 
604 1 11.4213 5.05901 9.76668 
605 2 11.3307 5.43852 10.6987 
606 2 10.7352 4.41385 9.70847 
607 1 6.91777 2.64772 9.91039 
608 2 6.30183 3.36668 9.65607 
609 2 6.52977 2.32369 10.7492 
610 1 6.30182 2.31715 18.98 
611 2 6.4737 1.72349 18.2208 
612 2 5.34917 2.45009 18.8901 
613 1 10.3074 6.01995 16.8955 
614 2 10.996 6.59613 17.3561 
615 2 9.38143 6.37804 17.2128 
616 1 11.4846 6.56744 12.1009 
617 2 11.3626 6.1873 13.0267 
618 2 12.4432 6.71116 11.9886 
619 1 6.62701 1.14926 12.4404 
620 2 6.00917 0.420973 12.0778 
621 2 7.52792 1.00699 12.1152 
622 1 5.87803 0.712603 16.7009 
623 2 5.06678 0.535194 17.1895 
624 2 5.85842 1.20807 15.824 
625 1 12.1627 2.75425 11.9632 
626 2 12.1055 2.27727 12.8287 
627 2 12.8951 3.34697 12.2223 
628 1 9.94411 2.92949 17.0753 
629 2 9.81256 2.6324 18.0297 
630 2 9.66756 2.15227 16.5197 
631 1 5.47574 4.92128 16.9975 
632 2 5.31806 5.23135 17.9487 
633 2 6.38164 4.54635 16.9858 
634 1 7.5116 4.64104 12.2141 
635 2 6.52864 4.5153 12.3947 
636 2 7.60693 5.17197 11.4261 
637 1 12.459 3.73838 15.936 
638 2 12.0286 4.37358 15.3095 
639 2 11.6962 3.48496 16.5118 
640 1 9.70982 3.41056 13.2218 
641 2 8.88594 3.67248 12.8234 
642 2 10.2707 3.10858 12.4643 
643 1 5.03764 4.2693 12.9814 
644 2 4.54956 3.70772 12.3598 
645 2 5.3502 3.54973 13.5997 
646 1 7.91632 4.09153 15.7994 
647 2 8.66621 3.74796 16.3421 
648 2 8.13863 4.87795 15.3196 
649 1 14.1172 7.00689 11.5364 
650 2 13.6779 7.67211 11.0315 
651 2 -3.0775 7.50896 11.883 
652 1 7.79256 6.83008 17.7006 
653 2 7.1115 7.36836 17.3006 
654 2 7.4033 6.08193 18.1644 
655 1 3.60851 22.4201 18.0939 
656 2 2.8755 21.993 17.6012 
657 2 3.82248 21.7262 18.7767 
658 1 9.41333 0.730154 11.3695 
659 2 10.1439 0.363133 11.868 
660 2 8.95805 22.4662 10.925 
661 1 10.9423 5.43276 14.4276 
662 2 10.8282 5.87064 15.3174 
663 2 10.2131 4.75136 14.249 
664 1 6.20279 2.36182 14.6404 
665 2 6.97657 2.92183 14.9656 
666 2 6.54619 1.79083 13.8807 
667 1 12.7382 1.25728 9.8771 
668 2 12.9268 1.90021 9.22691 
669 2 12.3457 1.79181 10.5905 
670 1 7.92732 5.93387 9.85677 
671 2 8.19188 5.41873 9.03554 
672 2 8.65319 6.59555 10.0027 
673 1 3.29472 8.46629 14.2538 
674 2 4.01578 7.81084 14.4749 
675 2 3.38701 9.26605 14.8411 
676 1 0.721143 8.80698 14.2854 
677 2 1.641 8.43966 14.2191 
678 2 -0.0205676 8.03993 14.291 
679 1 -4.11778 13.9196 14.5545 
680 2 -3.19298 14.1734 14.3086 
681 2 -3.99439 13.634 15.4724 
682 1 -1.30449 14.1768 14.3336 
683 2 -0.611187 14.8389 14.3421 
684 2 -1.00891 13.4215 14.8644 
685 1 1.71124 12.0834 18.9913 
686 2 2.43561 11.425 19.1564 
687 2 8.61873 12.8317 0.531546 
688 1 2.19136 12.5908 9.86038 
689 2 1.68091 11.7356 9.67944 
690 2 3.14627 12.3374 9.91867 
691 1 -1.93994 10.1826 9.76852 
692 2 -2.52376 10.9709 9.7353 
693 2 -1.02922 10.3662 9.74092 
694 1 -2.98885 10.0965 18.8845 
695 2 -2.90168 9.56211 18.1047 
696 2 -2.24486 10.7224 18.9978 
697 1 1.24894 13.7269 17.0075 
698 2 1.6456 13.159 17.7175 
699 2 1.78148 14.5018 17.0102 
700 1 2.61804 14.2095 12.0888 
701 2 2.28602 13.8344 12.8999 
702 2 2.40257 13.5709 11.3606 
703 1 -2.03216 8.7772 12.158 
704 2 -2.0781 9.27457 11.3041 
705 2 -1.07529 8.52263 12.0449 
706 1 -3.22802 8.38466 16.6961 
707 2 -2.99246 9.02066 15.9747 
708 2 -2.61356 7.64277 16.9068 
709 1 3.05521 10.0942 12.0857 
710 2 3.23437 9.43526 12.7888 
711 2 2.17878 10.3817 12.2067 
712 1 0.736884 10.2176 16.7776 
713 2 0.631793 9.68737 15.9268 
714 2 1.7075 10.5038 16.7369 
715 1 -3.49981 12.315 16.9237 
716 2 -3.70938 12.7464 17.7676 
717 2 -4.07751 11.5367 16.7017 
718 1 -1.67882 12.8096 12.0185 
719 2 -2.4942 12.2494 12.199 
720 2 -1.55723 13.2839 12.9068 
721 1 3.26402 10.9006 15.6208 
722 2 3.01828 11.7595 15.1507 
723 2 3.91082 11.0999 16.3017 
724 1 0.530727 11.0916 12.7871 
725 2 -0.174815 11.6062 12.2965 
726 2 0.208597 10.3738 13.3453 
727 1 -4.0288 11.6949 13.028 
728 2 -3.57716 10.9692 13.6224 
729 2 -4.10844 12.4387 13.6564 
730 1 -1.05375 11.9151 15.9025 
731 2 -1.83292 12.2674 16.485 
732 2 -0.406555 11.4156 16.4543 
733 1 5.07958 14.5347 11.2836 
734 2 4.3424 14.3642 11.9058 
735 2 5.92317 14.6944 11.7217 
736 1 -1.10898 14.361 17.9223 
737 2 -0.687439 15.245 18.0947 
738 2 -0.399036 13.9916 17.3195 
739 1 -5.59061 7.59713 17.7326 
740 2 -5.19836 6.96775 18.3848 
741 2 -4.81986 7.81583 17.114 
742 1 0.413872 8.23801 11.3213 
743 2 0.0987515 7.48428 10.7856 
744 2 1.11384 7.94299 11.9026 
745 1 1.89272 12.9099 14.5647 
746 2 1.39792 13.2061 15.3329 
747 2 1.38093 12.1787 14.0821 
748 1 -2.50898 10.1642 14.6249 
749 2 -2.10128 10.8975 15.0819 
750 2 -1.92892 9.73396 13.9308 
751 1 3.63491 8.79933 9.89289 
752 2 3.42309 9.33035 10.7339 
753 2 3.82151 9.46969 9.19587 
754 1 -0.776005 13.9205 9.73127 
755 2 -1.30377 13.4539 10.4483 
756 2 -1.46056 14.407 9.28328 
757 1 12.3611 8.61232 14.4174 
758 2 12.868 7.84767 14.7174 
759 2 11.3657 8.48179 14.5237 
760 1 9.73517 8.62217 14.8362 
761 2 9.53033 9.35012 14.2285 
762 2 9.14501 7.90034 14.5628 
763 1 4.8503 14.0629 14.5768 
764 2 4.66467 13.6274 15.4774 
765 2 5.80693 14.1815 14.5952 
766 1 7.69096 13.8119 14.4314 
767 2 8.35048 14.5293 14.5849 
768 2 7.99159 12.9918 14.8616 
769 1 10.846 12.154 19.0436 
770 2 11.3752 11.3473 19.1311 
771 2 9.92958 11.9332 19.2269 
772 1 11.457 12.467 10.1737 
773 2 10.7782 11.7496 10.145 
774 2 11.2307 13.1937 9.56373 
775 1 6.89187 9.97195 10.0247 
776 2 7.77527 10.2739 9.70894 
777 2 6.39551 10.8503 9.96132 
778 1 6.36313 10.053 19.1737 
779 2 6.10679 9.68992 18.3205 
780 2 13.2202 9.52415 0.795467 
781 1 10.4398 13.678 16.8718 
782 2 10.3903 13.0601 16.049 
783 2 10.6535 13.0515 17.6085 
784 1 11.5749 13.8147 12.6015 
785 2 11.416 13.1887 11.873 
786 2 12.434 14.1689 12.5177 
787 1 6.90501 8.76899 12.3695 
788 2 6.27163 8.08033 12.339 
789 2 6.76407 9.23375 11.476 
790 1 6.14222 8.59453 16.7865 
791 2 5.25407 8.20353 16.9485 
792 2 6.13252 9.01715 15.8848 
793 1 12.1854 9.95351 12.1765 
794 2 12.9502 10.6108 12.2213 
795 2 12.517 9.30174 12.8586 
796 1 9.94294 9.7974 17.2804 
797 2 10.8703 10.1786 17.0905 
798 2 9.96027 9.13354 16.5575 
799 1 5.15628 12.4128 17.1034 
800 2 4.92497 12.7691 17.988 
801 2 6.10071 12.1836 17.1178 
802 1 7.93136 12.5001 12.0646 
803 2 7.04032 11.9154 12.0983 
804 2 7.80385 13.215 12.7177 
805 1 12.2175 10.7006 16.2153 
806 2 11.7413 11.351 15.5903 
807 2 12.4345 9.90548 15.6893 
808 1 9.71507 10.595 13.2341 
809 2 10.5274 10.3996 12.7042 
810 2 9.23364 11.236 12.6747 
811 1 5.29554 11.8011 12.5326 
812 2 4.58298 11.3895 12.035 
813 2 4.89284 12.3964 13.1367 
814 1 7.95473 11.4691 16.2782 
815 2 8.62001 10.8274 16.6869 
816 2 7.44987 10.895 15.69 
817 1 13.8827 14.9118 11.5919 
818 2 13.4275 15.3332 10.8511 
819 2 14.2776 14.0731 11.2281 
820 1 7.82493 14.2379 17.6629 
821 2 8.05546 15.0743 18.1063 
822 2 8.7203 13.9421 17.3114 
823 1 3.61524 7.78957 17.8603 
824 2 2.80768 7.41941 17.4492 
825 2 3.30972 8.59747 18.2299 
826 1 9.40307 8.18435 11.0733 
827 2 10.1048 7.71564 11.6061 
828 2 8.63956 8.35886 11.6406 
829 1 10.7373 12.2898 14.795 
830 2 11.1698 12.8556 14.107 
831 2 10.2427 11.6101 14.2141 
832 1 6.278 9.96666 14.6443 
833 2 6.57051 9.6573 13.7725 
834 2 5.52624 10.4901 14.3179 
835 1 12.6591 8.82483 9.9285 
836 2 13.1683 9.48046 9.41753 
837 2 12.4376 9.30468 10.7824 
838 1 8.32954 13.3957 9.59787 
839 2 8.19327 12.9687 10.4492 
840 2 7.63333 13.9727 9.32027 
841 1 3.1389 16.1704 14.1367 
842 2 3.8133 15.4722 14.3161 
843 2 3.24624 16.5102 13.2412 
844 1 0.588271 15.8942 14.6539 
845 2 1.52441 15.8725 14.4902 
846 2 0.321526 16.6176 14.0892 
847 1 -4.15536 21.7055 15.1119 
848 2 -4.83109 0.0539167 15.0317 
849 2 -4.37415 21.1347 14.3643 
850 1 -1.28619 21.678 14.6378 
851 2 -2.22561 21.8341 14.606 
852 2 -1.32737 20.8166 15.1952 
853 1 1.67435 19.8093 19.1275 
854 2 2.23287 18.9928 19.2348 
855 2 8.57882 20.4737 0.790711 
856 1 2.15706 19.6495 9.76648 
857 2 1.9997 20.3605 9.12072 
858 2 2.11421 20.0785 10.6636 
859 1 -2.58671 18.0104 10.1227 
860 2 -1.65247 18.2391 9.92488 
861 2 -2.44061 17.6568 11.0444 
862 1 -2.83062 17.6093 19.1095 
863 2 -2.10759 18.2708 19.2099 
864 2 -2.79555 17.3794 18.1676 
865 1 1.65204 21.3898 16.7974 
866 2 1.47201 20.5678 17.2714 
867 2 1.75511 21.1429 15.8799 
868 1 2.48108 21.0957 12.155 
869 2 3.31102 21.611 12.004 
870 2 1.80408 21.8083 12.119 
871 1 -1.91911 16.5357 12.4386 
872 2 -1.09881 16.4003 11.9464 
873 2 -2.51978 15.8001 12.1687 
874 1 -3.07051 16.0042 16.7995 
875 2 -2.4796 15.2793 17.194 
876 2 -4.03138 15.8251 16.9452 
877 1 2.66884 17.8021 12.0522 
878 2 1.90199 18.041 12.5471 
879 2 2.59794 17.591 11.0686 
880 1 0.996269 17.7088 16.6626 
881 2 0.78846 17.3027 17.5675 
882 2 0.855098 17.0619 15.952 
883 1 -3.66472 20.0551 17.1728 
884 2 -3.88564 20.6261 16.403 
885 2 -2.69561 19.7922 16.9579 
886 1 -1.41881 20.2288 12.26 
887 2 -2.29623 19.8331 12.4711 
888 2 -1.27925 20.8889 12.9926 
889 1 3.71252 18.2304 16.116 
890 2 2.85961 18.0857 16.5545 
891 2 3.8051 17.4773 15.5146 
892 1 0.198925 18.3516 13.3075 
893 2 0.522579 19.0082 13.9214 
894 2 -0.387319 18.758 12.6595 
895 1 -3.94521 19.4583 13.3769 
896 2 13.0507 19.1841 13.1865 
897 2 -3.59001 18.7117 13.8796 
898 1 -1.23607 19.3405 16.1027 
899 2 -1.53006 18.601 15.5545 
900 2 -0.328954 19.0881 16.4025 
901 1 4.78164 22.1005 11.3423 
902 2 5.00867 21.3259 10.7999 
903 2 4.45023 0.348394 10.6809 
904 1 -0.836636 22.3646 17.8789 
905 2 0.0150506 22.205 17.3781 
906 2 -1.47553 0.516294 17.3246 
907 1 -5.59021 15.3778 17.6273 
908 2 11.5413 15.0123 17.144 
909 2 -5.24717 14.6579 18.1828 
910 1 0.368434 15.8502 11.3178 
911 2 0.0416569 15.132 10.7612 
912 2 1.13005 15.5046 11.7731 
913 1 1.94621 19.994 14.4581 
914 2 2.65866 19.3534 14.7263 
915 2 2.13403 20.2889 13.5444 
916 1 -2.6453 17.4685 14.7166 
917 2 -2.86894 16.9328 15.4736 
918 2 -2.17294 16.881 14.1106 
919 1 3.69301 16.5627 9.98822 
920 2 4.33478 15.9973 10.4604 
921 2 4.12633 16.8252 9.18507 
922 1 -1.05513 20.8699 9.70879 
923 2 -1.63852 21.6291 9.45573 
924 2 -1.24575 20.5914 10.6683 
925 1 12.2088 16.1746 14.3552 
926 2 12.5577 16.8599 14.9419 
927 2 12.7717 15.3633 14.5241 
928 1 9.31827 15.9833 14.4532 
929 2 10.1952 15.8741 14.0195 
930 2 9.58437 16.3879 15.3133 
931 1 5.15072 21.3832 14.3969 
932 2 6.09039 21.5309 14.6851 
933 2 5.18631 20.6846 13.6396 
934 1 8.04236 21.3185 14.4496 
935 2 8.13258 20.6034 15.1269 
936 2 7.87011 20.7972 13.6176 
937 1 10.9086 19.5923 18.6685 
938 2 17.6698 20.3062 0.35408 
939 2 11.4922 18.8799 18.9503 
940 1 11.1334 19.7663 10.0492 
941 2 10.8644 20.4792 9.37605 
942 2 11.1936 20.2874 10.9494 
943 1 6.76871 17.4686 9.99477 
944 2 6.66906 16.7675 9.30347 
945 2 7.59217 17.842 9.7288 
946 1 12.7351 17.7096 0.225522 
947 2 6.10102 17.1722 18.3981 
948 2 6.78346 18.3093 19.2673 
949 1 10.5996 21.4551 16.7844 
950 2 9.7 21.7934 16.7957 
951 2 10.6507 20.7999 17.5576 
952 1 11.4409 21.4285 12.097 
953 2 11.3894 20.9232 12.9868 
954 2 12.4255 21.6672 11.8904 
955 1 6.98021 16.3057 12.2635 
956 2 7.80132 15.777 12.2138 
957 2 6.93978 16.8101 11.4032 
958 1 6.05406 15.9349 17.0437 