ITEM: TIMESTEP
1020000
ITEM: NUMBER OF ATOMS
1008
ITEM: BOX BOUNDS xy xz yz pp pp pp
-6.4081609409719853e+00 1.8225230710381595e+01 6.8810304275212869e-02
7.4882770918549113e-02 2.2504169179183062e+01 -6.6512955348606262e+00
2.2633939991925267e-01 1.9279376600075899e+01 8.6629501078302786e-03
ITEM: ATOMS id type x y z 
1 1 6.97831 1.32868 4.50721 
2 2 7.55192 0.539325 4.51836 
3 2 6.92339 1.77007 3.63113 
4 1 4.37855 0.950735 5.19878 
5 2 5.31128 0.896379 5.14482 
6 2 4.29157 1.49254 5.98678 
7 1 -0.570807 6.20644 5.26679 
8 2 -0.538175 5.65359 6.08023 
9 2 -1.399 6.76374 5.20809 
10 1 1.99806 6.55317 4.86117 
11 2 1.12941 6.72989 5.1672 
12 2 2.63718 7.32413 5.01846 
13 1 4.61008 4.85623 9.47022 
14 2 4.64826 5.41252 8.59945 
15 2 3.6506 4.6427 9.47997 
16 1 5.50911 5.06222 0.286665 
17 2 -1.64956 4.2766 19.1992 
18 2 5.75824 5.23498 1.22244 
19 1 1.18402 2.63469 0.30822 
20 2 -6.10466 3.39873 19.1822 
21 2 1.20485 2.30925 1.21839 
22 1 0.376539 2.57881 9.69223 
23 2 0.837256 3.46174 9.76003 
24 2 -0.588477 2.82504 9.7139 
25 1 4.8444 6.45493 7.28239 
26 2 5.46732 7.13583 7.61025 
27 2 3.89268 6.68336 7.50325 
28 1 6.13421 6.20583 2.55443 
29 2 6.06468 6.06425 3.53371 
30 2 5.54642 6.93923 2.29838 
31 1 1.25279 1.24566 2.7904 
32 2 2.09016 0.784745 2.67399 
33 2 1.35678 1.65942 3.70322 
34 1 0.166647 1.32183 7.33041 
35 2 -0.766376 1.04691 7.32113 
36 2 0.29446 1.67635 8.26211 
37 1 6.39825 2.90007 2.42937 
38 2 5.61319 3.2463 2.82723 
39 2 7.02014 3.55319 2.70329 
40 1 4.17167 2.46315 7.34008 
41 2 5.04002 2.87533 7.30854 
42 2 3.54229 3.21286 7.10964 
43 1 -0.0515756 4.82754 7.46208 
44 2 -0.773195 4.18875 7.25199 
45 2 -0.178681 5.34106 8.25886 
46 1 1.93326 4.81259 2.51336 
47 2 1.06936 4.40031 2.55519 
48 2 1.90115 5.49145 3.19254 
49 1 6.9875 3.46065 6.76104 
50 2 6.5465 4.02354 5.98485 
51 2 7.32616 2.74571 6.13191 
52 1 4.00571 3.69621 3.79772 
53 2 3.28218 3.96948 3.17591 
54 2 3.84423 2.83254 4.18813 
55 1 -0.452987 3.90354 3.36932 
56 2 -0.647002 4.764 3.75961 
57 2 -0.0144586 3.33763 4.05927 
58 1 2.46206 4.37404 6.7068 
59 2 2.62917 5.24295 6.28156 
60 2 1.52417 4.50516 7.08515 
61 1 8.56746 7.06567 1.86031 
62 2 7.69153 6.83237 2.24805 
63 2 8.69841 6.31052 1.21857 
64 1 2.21876 6.82234 8.42028 
65 2 1.40608 7.14285 8.03471 
66 2 2.57858 7.5237 8.97861 
67 1 -2.34034 0.759135 8.17998 
68 2 -2.5193 1.44108 8.85736 
69 2 14.7264 0.386418 7.85483 
70 1 3.66216 0.335451 1.97477 
71 2 3.42783 22.1268 1.30938 
72 2 3.98503 1.03532 1.41385 
73 1 5.7758 5.25273 5.21241 
74 2 5.39356 5.80733 5.94117 
75 2 4.97994 4.97474 4.76643 
76 1 1.08091 2.44149 5.11886 
77 2 0.738739 1.85633 5.90204 
78 2 1.65375 3.07954 5.51239 
79 1 0.437969 1.92941 19.005 
80 2 6.54983 2.28081 0.684023 
81 2 -0.0187081 1.15008 18.5307 
82 1 -4.04433 6.31461 19.2645 
83 2 2.3389 5.81134 0.939196 
84 2 3.28455 6.93194 0.538589 
85 1 16.0444 1.30906 4.7941 
86 2 -1.25609 0.537431 4.68093 
87 2 15.843 1.56983 3.89482 
88 1 13.179 1.44109 5.33639 
89 2 12.7384 1.99188 4.66777 
90 2 14.0245 1.12953 5.01586 
91 1 8.35382 6.87702 5.19306 
92 2 8.08318 6.04894 4.72746 
93 2 9.23953 7.01085 4.84359 
94 1 10.9291 6.65065 4.69568 
95 2 11.6224 7.3535 4.65807 
96 2 11.2144 5.96934 5.31028 
97 1 13.9323 5.02062 9.6289 
98 2 14.0839 5.79496 10.2686 
99 2 13.0046 4.76737 9.80245 
100 1 8.12904 4.57851 19.1461 
101 2 14.7425 4.76441 1.03241 
102 2 7.32183 4.08938 18.905 
103 1 10.3025 2.90527 0.491867 
104 2 9.57781 3.56553 0.584388 
105 2 3.4033 2.26527 18.8665 
106 1 9.25046 2.92146 9.73351 
107 2 9.48574 2.13624 10.3012 
108 2 8.27858 3.0183 9.75801 
109 1 13.4959 6.34391 7.24493 
110 2 13.841 5.80503 7.97417 
111 2 12.5978 6.51495 7.54026 
112 1 15.3224 6.68091 2.5655 
113 2 14.6618 7.23512 2.15922 
114 2 16.2394 6.9466 2.25298 
115 1 10.5092 1.18908 2.62886 
116 2 10.4464 1.60031 1.768 
117 2 9.70864 0.678432 2.69476 
118 1 9.09273 1.25515 7.46758 
119 2 9.29439 1.84934 8.20845 
120 2 9.28024 1.78026 6.59789 
121 1 15.2248 2.90588 2.48765 
122 2 15.975 3.37895 2.87837 
123 2 15.456 2.63783 1.59791 
124 1 13.032 3.12739 7.55015 
125 2 13.9655 3.39128 7.81452 
126 2 13.2742 2.59552 6.7583 
127 1 8.77006 5.31399 7.32559 
128 2 8.06076 4.65408 7.18366 
129 2 8.67877 5.87982 6.54954 
130 1 10.9199 5.03166 2.61885 
131 2 11.6129 4.40831 3.00857 
132 2 11.1436 5.74762 3.23826 
133 1 15.8053 3.63628 6.52371 
134 2 15.3322 4.22761 5.93123 
135 2 15.9104 2.78641 6.03614 
136 1 12.7281 3.44749 3.5074 
137 2 13.2572 3.99078 4.14821 
138 2 13.4466 3.05187 2.94303 
139 1 8.44312 4.4315 3.82913 
140 2 9.24962 4.68154 3.30579 
141 2 8.77829 3.62964 4.23042 
142 1 11.1943 4.58474 6.22006 
143 2 11.9259 4.25266 6.71492 
144 2 10.4641 4.74687 6.84129 
145 1 -0.0419023 7.24027 1.50964 
146 2 17.8219 6.41197 0.965299 
147 2 17.403 7.97259 1.05202 
148 1 10.8118 7.22581 8.28362 
149 2 10.7256 6.36142 8.72599 
150 2 11.3786 7.81794 8.84138 
151 1 6.51182 0.394721 8.54633 
152 2 7.31018 0.656416 8.02839 
153 2 6.40876 1.27739 8.95253 
154 1 12.9358 0.291291 1.87216 
155 2 13.0619 1.10435 1.35516 
156 2 12.007 0.378181 2.30699 
157 1 14.1092 5.25285 4.88507 
158 2 14.4004 6.04845 4.34359 
159 2 13.6545 5.66067 5.69321 
160 1 9.89074 2.5191 5.16484 
161 2 10.3884 3.30847 5.43355 
162 2 10.4765 1.99373 4.56307 
163 1 15.9816 1.15283 0.353427 
164 2 8.75565 0.606362 18.8671 
165 2 16.5775 0.578164 0.880375 
166 1 11.5518 6.22698 0.240449 
167 2 11.1585 5.76939 1.00405 
168 2 4.20723 6.78454 18.9279 
169 1 6.48346 8.67314 4.95074 
170 2 7.18038 7.94653 5.0339 
171 2 6.72471 9.39191 5.60354 
172 1 3.83033 8.77349 5.20999 
173 2 3.74645 9.52711 4.50768 
174 2 4.71882 8.40977 5.02949 
175 1 -0.552449 13.7733 5.14996 
176 2 -0.602335 13.2914 5.99775 
177 2 -1.24167 14.5137 5.11797 
178 1 2.27079 13.781 4.87854 
179 2 1.4533 14.2224 5.12812 
180 2 2.93137 14.5144 4.75976 
181 1 5.0688 12.0395 9.7772 
182 2 5.04487 12.5355 8.94879 
183 2 5.42635 12.7522 10.3726 
184 1 -0.846621 12.2204 19.1942 
185 2 -0.0522704 11.7385 18.8436 
186 2 -0.861822 13.0764 18.73 
187 1 -5.09899 10.2057 19.2779 
188 2 -5.43766 9.46295 18.7138 
189 2 -4.07819 10.0833 19.2542 
190 1 0.584698 10.2629 9.70659 
191 2 0.627325 9.47577 10.2891 
192 2 0.882064 9.95713 8.8381 
193 1 4.94841 13.9342 7.48118 
194 2 4.97366 13.7364 6.51775 
195 2 4.00354 14.2652 7.68619 
196 1 5.78435 13.7825 2.32377 
197 2 5.41765 13.5343 3.25139 
198 2 5.49139 13.027 1.79869 
199 1 1.66599 8.8325 2.65831 
200 2 1.67635 9.37389 1.85154 
201 2 0.946832 8.13192 2.40958 
202 1 0.222863 8.47169 7.36003 
203 2 -0.650871 8.09687 7.44879 
204 2 0.451284 8.54909 6.4534 
205 1 6.26249 10.1217 2.90244 
206 2 6.41374 9.4853 3.68728 
207 2 6.50179 9.69633 2.01693 
208 1 4.43761 10.1804 7.57312 
209 2 3.67586 10.7507 7.32544 
210 2 4.49761 9.69042 6.71037 
211 1 -0.197535 12.3822 7.40652 
212 2 -0.485472 12.9375 8.16295 
213 2 -0.651981 11.5084 7.39453 
214 1 2.19135 12.5374 2.50288 
215 2 2.15706 13.0534 3.44523 
216 2 1.24558 12.3462 2.41484 
217 1 6.70491 10.9532 6.48899 
218 2 7.56043 11.3179 6.90453 
219 2 6.03976 10.7263 7.20175 
220 1 3.91446 10.8745 3.66377 
221 2 4.70159 10.6348 3.1313 
222 2 3.32256 11.3821 3.12603 
223 1 -0.412216 11.5674 3.28868 
224 2 -0.0951246 10.7688 3.79406 
225 2 -0.478531 12.3342 3.93954 
226 1 2.29722 11.6915 6.7488 
227 2 2.58602 12.4913 6.21208 
228 2 1.40924 11.9454 7.14198 
229 1 8.30723 14.3355 1.51507 
230 2 8.96341 14.667 2.17341 
231 2 7.55298 14.1249 2.07563 
232 1 2.23547 14.4005 8.01449 
233 2 2.28561 15.2288 8.54726 
234 2 2.20957 13.6145 8.57048 
235 1 -2.16942 7.90582 8.15838 
236 2 -2.2478 8.81082 8.49154 
237 2 14.8904 7.65881 7.73987 
238 1 4.32544 7.90407 1.92165 
239 2 3.50126 8.14985 2.39409 
240 2 4.60224 8.79208 1.61844 
241 1 5.1979 12.8535 5.08645 
242 2 5.88915 12.2318 5.43998 
243 2 4.59494 12.2484 4.63442 
244 1 0.922951 9.89309 4.9125 
245 2 1.38059 9.44915 4.16394 
246 2 1.50922 10.4323 5.48628 
247 1 6.81928 8.68638 0.431549 
248 2 7.51778 8.07774 0.742248 
249 2 0.604855 9.08343 18.7157 
250 1 -4.12848 13.8666 19.2215 
251 2 2.41967 13.3527 0.949546 
252 2 3.11199 14.5777 0.48895 
253 1 15.4953 8.25059 4.98093 
254 2 15.9866 9.12109 5.28001 
255 2 15.6052 8.15218 4.00584 
256 1 12.828 8.48288 5.14317 
257 2 13.7512 8.21233 5.19376 
258 2 13.0309 9.21634 4.4667 
259 1 8.3893 14.1304 4.94977 
260 2 8.10584 13.7141 5.84024 
261 2 7.88178 15.0008 4.84874 
262 1 11.0733 13.8632 5.23105 
263 2 10.1427 14.244 5.33267 
264 2 11.7781 14.5641 5.3472 
265 1 13.9808 12.1941 9.4088 
266 2 14.0306 12.8256 8.6461 
267 2 12.988 12.1058 9.60006 
268 1 8.54669 11.9891 19.2608 
269 2 8.15466 12.8275 18.9248 
270 2 7.8476 11.3461 19.0932 
271 1 10.6193 10.3145 0.297921 
272 2 10.5121 9.97734 1.25266 
273 2 4.90097 10.3922 19.1491 
274 1 9.34444 10.3071 9.92712 
275 2 9.4363 9.41083 10.3642 
276 2 9.62718 10.1167 8.99407 
277 1 13.7514 13.7576 7.36263 
278 2 13.9418 13.3919 6.46294 
279 2 14.2598 14.525 7.55176 
280 1 15.0924 13.7183 2.60315 
281 2 14.9574 13.0185 1.95927 
282 2 15.9171 14.1457 2.37491 
283 1 10.4142 8.83154 2.49323 
284 2 10.1356 9.06864 3.3996 
285 2 9.77431 8.21667 2.10584 
286 1 9.09808 8.93694 7.29065 
287 2 9.65797 8.12679 7.52374 
288 2 8.15644 8.53628 7.45482 
289 1 15.4915 9.7944 2.54721 
290 2 16.2058 10.4695 2.62413 
291 2 15.5182 9.70905 1.59035 
292 1 13.1647 10.0592 7.33286 
293 2 12.4037 10.6657 7.06488 
294 2 12.9919 9.2378 6.81807 
295 1 8.63496 12.6054 7.39639 
296 2 8.4805 13.04 8.2564 
297 2 9.58331 12.4625 7.29975 
298 1 11.1458 12.0843 2.86044 
299 2 11.2855 12.9608 3.22215 
300 2 10.1774 11.8875 2.9251 
301 1 15.8742 10.585 6.48816 
302 2 15.0154 10.3413 6.76156 
303 2 15.7785 11.3663 5.92192 
304 1 13.3161 10.5667 3.61898 
305 2 12.5662 10.8746 3.06527 
306 2 14.1681 10.428 3.07503 
307 1 8.48379 11.5475 3.06495 
308 2 8.35676 12.3487 3.60753 
309 2 7.63925 11.0568 2.94325 
310 1 11.0224 11.5664 6.41379 
311 2 10.7413 10.9544 5.74219 
312 2 11.1049 12.4371 6.0061 
313 1 17.4183 14.4714 1.67393 
314 2 17.8059 13.6771 1.25271 
315 2 0.199353 14.7975 2.34042 
316 1 11.1231 14.0846 8.38382 
317 2 10.5196 14.7428 8.05769 
318 2 11.9912 14.0425 7.85465 
319 1 6.67977 7.99993 8.15798 
320 2 6.5929 8.81902 8.70101 
321 2 7.06836 7.28533 8.78643 
322 1 12.9853 7.96519 1.738 
323 2 12.1455 8.21655 2.25428 
324 2 12.664 7.24457 1.15342 
325 1 14.3188 12.6426 4.99192 
326 2 13.7052 12.0037 4.5385 
327 2 14.9123 12.8492 4.28304 
328 1 9.69376 9.75592 4.85223 
329 2 9.44563 9.33293 5.73808 
330 2 8.91375 10.1957 4.45516 
331 1 9.75172 9.02111 18.9557 
332 2 9.71787 9.69754 18.2918 
333 2 9.2444 8.2756 18.6029 
334 1 11.7817 13.1609 0.559163 
335 2 11.4245 12.4885 1.16826 
336 2 12.0912 13.9244 1.06224 
337 1 6.53687 16.1611 4.60749 
338 2 5.61139 15.8513 4.61375 
339 2 6.6772 16.7188 3.7754 
340 1 3.84261 15.9397 4.77739 
341 2 3.836 16.6939 4.11564 
342 2 3.8003 16.302 5.6328 
343 1 -0.314677 21.5434 4.79012 
344 2 0.651431 21.5729 4.58261 
345 2 -0.323147 21.3093 5.73775 
346 1 2.6072 21.4234 4.7127 
347 2 3.28886 22.1776 4.80727 
348 2 2.53945 21.079 3.76029 
349 1 4.95667 20.0209 9.85216 
350 2 5.50411 19.2253 9.81288 
351 2 4.09544 19.5894 9.90762 
352 1 5.69307 20.1011 0.530719 
353 2 -1.3654 20.5833 18.8433 
354 2 6.61319 19.9759 0.279809 
355 1 1.28611 17.9284 0.249515 
356 2 -5.37789 17.3044 18.5723 
357 2 2.24648 18.1192 0.37412 
358 1 0.447232 17.8141 9.30219 
359 2 0.995052 18.5463 9.62561 
360 2 0.677755 17.0297 9.8449 
361 1 4.66233 21.1955 7.28323 
362 2 5.10825 22.0615 7.52719 
363 2 4.71459 20.5865 8.02545 
364 1 5.95934 21.4666 2.89423 
365 2 5.87483 20.8004 2.12029 
366 2 5.17039 22.0005 2.85304 
367 1 1.36438 16.2762 2.48706 
368 2 2.29853 16.0755 2.50591 
369 2 1.22282 16.9707 1.82357 
370 1 -0.00194674 16.0478 7.16126 
371 2 0.175157 16.8024 7.74362 
372 2 0.718415 15.4239 7.30698 
373 1 6.47622 17.9883 2.53557 
374 2 7.0855 18.6592 2.88749 
375 2 5.5888 18.2901 2.68819 
376 1 4.19232 17.3862 7.41696 
377 2 3.87011 18.2271 7.09626 
378 2 5.12763 17.4103 7.45504 
379 1 -0.108674 19.7881 6.85347 
380 2 0.832652 19.7965 6.66074 
381 2 -0.268873 20.2108 7.70898 
382 1 1.84108 20.055 2.41285 
383 2 0.891449 20.0234 2.61009 
384 2 1.98341 20.3342 1.4834 
385 1 6.68665 18.2088 6.51192 
386 2 6.24674 18.8489 5.9246 
387 2 6.84088 17.451 5.89135 
388 1 3.83633 18.3711 3.62034 
389 2 4.32199 19.0622 4.0725 
390 2 3.30189 18.9586 3.01197 
391 1 16.7937 19.0585 3.84303 
392 2 -1.0531 19.9177 4.32173 
393 2 -0.374826 18.5548 4.26554 
394 1 2.46434 19.215 6.26174 
395 2 2.69722 20.0149 5.72683 
396 2 1.94156 18.6397 5.67041 
397 1 8.28846 22.2317 1.7959 
398 2 7.47545 21.9661 2.30239 
399 2 7.9987 0.466478 1.12539 
400 1 2.10666 22.06 8.44755 
401 2 1.31249 22.2991 8.02548 
402 2 2.96061 21.9634 7.91631 
403 1 -2.47781 15.6834 8.29157 
404 2 -1.80306 15.9225 7.66208 
405 2 -2.55726 16.4728 8.87773 
406 1 3.94247 15.8172 1.51839 
407 2 4.71111 15.2513 1.72335 
408 2 4.27283 16.6207 1.11538 
409 1 5.20019 20.0428 5.12277 
410 2 5.52484 20.6159 4.40546 
411 2 4.9113 20.5267 5.8993 
412 1 0.783265 17.4517 4.86336 
413 2 1.05175 16.802 4.20288 
414 2 0.329839 16.9335 5.60749 
415 1 7.19215 16.4959 0.418566 
416 2 7.65114 15.7781 0.983093 
417 2 6.96076 17.2585 0.939766 
418 1 -4.19081 21.0784 19.101 
419 2 -4.78397 21.742 18.6419 
420 2 -4.11986 20.3849 18.3824 
421 1 15.5517 15.8726 4.82758 
422 2 14.5975 15.6254 5.01822 
423 2 15.6987 16.2337 3.92795 
424 1 12.9037 15.9533 5.54804 
425 2 12.8847 16.2326 6.47635 
426 2 12.9438 16.7768 5.01073 
427 1 8.46959 21.6691 5.30008 
428 2 8.41788 21.2937 6.18113 
429 2 9.42633 21.8198 5.078 
430 1 11.3668 21.7642 4.76811 
431 2 11.4949 21.1194 5.52246 
432 2 11.8744 0.106015 4.91611 
433 1 13.8344 20.1758 9.44262 
434 2 14.3548 19.3706 9.52916 
435 2 12.9174 19.8778 9.6995 
436 1 14.426 19.6214 0.40391 
437 2 14.6929 20.0915 1.25389 
438 2 8.70858 19.5224 19.0635 
439 1 10.0453 17.4753 0.55879 
440 2 10.9586 17.8853 0.474789 
441 2 3.36117 16.8595 18.8659 
442 1 9.4864 17.7534 9.56911 
443 2 9.67517 17.1009 10.188 
444 2 10.1839 18.4763 9.72814 
445 1 13.556 21.6022 7.27966 
446 2 12.6382 21.9376 7.26788 
447 2 13.6581 21.0128 8.09158 
448 1 15.0832 21.0542 2.67514 
449 2 14.9438 20.5099 3.44721 
450 2 14.3362 21.6317 2.42406 
451 1 10.2376 15.9922 2.96191 
452 2 10.2229 16.5648 2.13564 
453 2 11.1775 15.7367 2.99332 
454 1 9.24669 16.1072 7.51826 
455 2 9.34336 16.5455 6.6608 
456 2 9.47544 16.8089 8.20685 
457 1 15.1537 17.5091 2.56684 
458 2 14.2188 17.6475 2.85741 
459 2 15.8309 18.1296 2.93662 
460 1 13.0053 17.6462 7.82436 
461 2 12.3698 18.3477 7.59426 
462 2 13.7942 17.867 7.33065 
463 1 8.5535 19.9711 7.40728 
464 2 8.59929 20.3493 8.32432 
465 2 7.92925 19.192 7.29098 
466 1 10.8906 19.8621 2.8164 
467 2 11.09 20.2146 1.97289 
468 2 11.3307 20.4793 3.46768 
469 1 15.5573 18.1681 6.45661 
470 2 -1.46067 18.5049 6.60684 
471 2 15.576 17.3499 5.93052 
472 1 12.8719 18.0375 3.95173 
473 2 12.0122 18.2838 3.65671 
474 2 13.261 18.7622 4.41178 
475 1 8.34822 19.4673 3.6679 
476 2 8.07715 20.3146 4.12529 
477 2 9.29802 19.7407 3.2522 
478 1 11.3484 19.3625 6.48027 
479 2 10.9113 18.6002 6.04513 
480 2 10.5888 19.6919 6.95032 
481 1 17.4177 21.7795 1.78188 
482 2 0.255615 22.2172 2.28421 
483 2 16.6911 21.5598 2.35094 
484 1 10.9575 22.0085 8.46677 
485 2 10.264 0.0928952 7.91291 
486 2 11.3924 0.229877 8.99624 
487 1 6.71765 15.6449 8.51457 
488 2 6.15324 14.931 7.98592 
489 2 7.58812 15.7998 8.05776 
490 1 12.8532 15.2271 2.04583 
491 2 12.8923 16.0729 1.59931 
492 2 13.7355 14.9707 2.22534 
493 1 14.1067 19.9346 5.15328 
494 2 13.8838 20.6175 5.83147 
495 2 14.7511 19.4379 5.65445 
496 1 9.66034 17.4884 5.08072 
497 2 9.04471 18.1869 4.65982 
498 2 9.86992 16.8686 4.31399 
499 1 16.1805 16.5084 0.351244 
500 2 16.6709 15.8658 0.903299 
501 2 15.6279 17.0129 1.00452 
502 1 11.5776 21.018 0.325287 
503 2 5.20663 20.5458 18.5942 
504 2 12.3212 21.3943 0.867174 
505 1 3.05434 1.04938 13.9762 
506 2 3.22498 1.66654 14.7619 
507 2 3.55817 0.246766 14.1138 
508 1 0.444103 1.26662 14.629 
509 2 -0.173795 0.616536 14.2692 
510 2 1.29396 0.818851 14.4206 
511 1 -4.10473 6.56181 14.4216 
512 2 -4.41303 5.76065 13.9768 
513 2 -3.72676 6.27524 15.3005 
514 1 -1.43323 6.5619 14.0971 
515 2 -1.33327 5.80312 14.7282 
516 2 -2.31015 7.00257 14.1953 
517 1 1.68898 4.99092 19.1723 
518 2 7.43353 4.7795 0.244588 
519 2 1.64491 5.50875 18.3036 
520 1 1.92478 4.6327 9.94912 
521 2 1.93297 5.49654 9.51889 
522 2 2.20943 4.83168 10.8532 
523 1 -2.37773 2.73786 9.99666 
524 2 -2.8573 3.60394 9.92391 
525 2 -2.5905 2.3842 10.8672 
526 1 -2.7691 2.91112 19.2043 
527 2 -2.6803 2.38716 18.3738 
528 2 -3.75386 2.98353 19.2225 
529 1 1.32292 6.44483 16.9304 
530 2 1.57886 6.00404 16.0927 
531 2 0.28757 6.47152 17.0175 
532 1 2.42519 6.15335 12.192 
533 2 3.35 6.53824 12.1888 
534 2 2.28486 5.9245 13.1862 
535 1 -2.11863 1.19523 12.2859 
536 2 -2.68652 0.463785 12.0099 
537 2 -1.22686 0.814077 11.9753 
538 1 -2.91395 1.19117 16.9898 
539 2 -3.82803 0.885959 17.1258 
540 2 -2.84821 1.60302 16.0851 
541 1 3.16443 2.88698 12.0421 
542 2 3.26039 2.12995 12.7042 
543 2 3.15012 2.53356 11.1309 
544 1 0.956127 3.20894 16.7972 
545 2 0.794145 2.74111 17.6575 
546 2 0.846651 2.6114 16.0642 
547 1 -3.4841 5.33541 16.8816 
548 2 -4.03194 4.57808 16.6601 
549 2 -3.69956 5.60255 17.8406 
550 1 -1.51134 4.90307 11.909 
551 2 -0.71878 4.45064 12.2157 
552 2 -1.6294 5.58032 12.6659 
553 1 3.38494 2.8746 15.8391 
554 2 2.65616 2.89796 16.5301 
555 2 4.05002 3.49109 16.2012 
556 1 0.578781 3.39839 13.0141 
557 2 1.40122 3.17373 12.5898 
558 2 0.46666 2.65001 13.6236 
559 1 -3.96014 4.08944 13.0423 
560 2 -3.21213 4.39573 12.5241 
561 2 -3.64052 3.60398 13.8095 
562 1 -1.27018 4.41445 15.7411 
563 2 -0.505496 4.19961 16.3403 
564 2 -1.94138 4.8326 16.3239 
565 1 4.84292 6.95246 11.4103 
566 2 4.40066 7.65443 10.8177 
567 2 4.94994 6.22686 10.6909 
568 1 -1.13309 7.10433 17.7753 
569 2 -1.21226 6.33276 18.3989 
570 2 -0.572968 7.75229 18.2875 
571 1 -5.57829 0.360718 17.7605 
572 2 -5.72047 1.15798 18.3311 
573 2 11.4919 22.3703 17.6083 
574 1 0.322939 0.221342 11.3081 
575 2 0.0727969 22.015 10.6059 
576 2 0.576137 1.02957 10.8997 
577 1 1.91662 5.19201 14.5225 
578 2 1.11497 4.75414 14.127 
579 2 2.4402 4.44965 14.8905 
580 1 -2.56322 2.52671 14.6445 
581 2 -2.32348 2.05107 13.7361 
582 2 -1.7912 3.06412 14.8554 
583 1 3.39235 1.26539 10.0166 
584 2 2.74017 0.691593 9.60948 
585 2 3.75537 1.75201 9.26946 
586 1 -0.766714 6.17081 9.65337 
587 2 -1.47098 6.72158 9.25504 
588 2 -1.06929 5.6143 10.3337 
589 1 12.6079 1.09715 14.3016 
590 2 11.7105 1.06049 14.5205 
591 2 12.9271 1.82511 14.9458 
592 1 9.88402 1.06747 14.5708 
593 2 9.39668 0.275972 14.3748 
594 2 9.57443 1.76211 13.9615 
595 1 5.09359 6.69128 14.5938 
596 2 5.03263 6.35 15.5128 
597 2 4.78216 5.90447 14.0891 
598 1 7.86778 6.40299 14.5372 
599 2 6.9533 6.72013 14.77 
600 2 7.78721 6.14532 13.6116 
601 1 11.1242 5.22446 18.9755 
602 2 10.1787 4.96028 18.9415 
603 2 11.1975 5.58041 18.0597 
604 1 11.2683 4.95855 9.92111 
605 2 11.1679 5.49446 10.7363 
606 2 10.4972 4.34117 9.77503 
607 1 6.33166 2.68439 10.0944 
608 2 5.93154 3.54205 10.066 
609 2 6.23552 2.3561 11.0063 
610 1 12.9287 2.4972 0.343149 
611 2 6.22503 2.05379 18.5004 
612 2 11.9411 2.85524 0.429289 
613 1 10.8497 6.59559 16.2645 
614 2 11.5738 7.15237 16.6483 
615 2 9.9314 6.84495 16.5772 
616 1 11.5902 6.83064 12.0062 
617 2 11.4295 6.24427 12.8205 
618 2 12.5138 7.02226 12.0157 
619 1 6.59846 1.2212 12.4011 
620 2 5.93518 0.531246 12.167 
621 2 7.48044 0.941888 12.0775 
622 1 5.85068 1.11597 16.9086 
623 2 4.8967 0.908808 17.1098 
624 2 6.02567 1.6569 16.0618 
625 1 11.8603 2.78221 12.1653 
626 2 12.1643 2.1838 12.8356 
627 2 12.446 3.64411 12.2214 
628 1 9.84573 2.64051 17.1657 
629 2 9.75077 2.18749 18.0551 
630 2 9.9689 1.87284 16.5213 
631 1 5.30292 5.13466 16.5908 
632 2 5.2978 5.28484 17.5537 
633 2 6.18512 4.75918 16.4348 
634 1 7.39462 4.93211 12.2765 
635 2 6.43796 4.62022 12.5611 
636 2 7.353 5.12466 11.3077 
637 1 12.5413 3.32665 15.9709 
638 2 12.0841 3.81092 15.3095 
639 2 11.7635 3.10235 16.6127 
640 1 9.3412 3.38791 13.3085 
641 2 8.59156 4.01129 13.0269 
642 2 9.94035 3.22097 12.5458 
643 1 5.18074 4.2868 13.1056 
644 2 4.44585 3.84458 12.6038 
645 2 5.38566 3.5612 13.721 
646 1 7.88281 4.17153 16.1946 
647 2 8.64449 3.72116 16.5609 
648 2 8.16932 4.83368 15.5566 
649 1 13.9408 7.23577 10.9856 
650 2 13.5073 7.84031 10.3553 
651 2 -3.17439 7.71571 11.2771 
652 1 8.46088 6.93392 17.5845 
653 2 7.65854 7.34703 17.1884 
654 2 8.20436 6.114 18.0189 
655 1 3.44624 0.650033 18.0282 
656 2 2.90079 0.0850301 17.3952 
657 2 3.83114 22.4094 18.6515 
658 1 9.12292 0.658448 11.3054 
659 2 9.91094 0.243653 11.7487 
660 2 8.92592 22.3829 10.6173 
661 1 11.1672 5.26876 14.0553 
662 2 11.0835 5.86361 14.8234 
663 2 10.3806 4.79582 14.0404 
664 1 6.33654 2.54524 14.6967 
665 2 7.04611 3.06993 15.0643 
666 2 6.62252 1.94903 13.9677 
667 1 12.417 1.56059 9.8595 
668 2 12.5122 2.14097 9.08131 
669 2 12.138 2.09423 10.6434 
670 1 7.88451 6.13892 9.83001 
671 2 8.26551 5.81161 8.99336 
672 2 8.45183 6.68785 10.3894 
673 1 3.08855 8.62007 14.1237 
674 2 3.80005 7.93293 14.173 
675 2 3.4032 9.26429 14.8516 
676 1 0.405004 8.63765 14.4024 
677 2 1.27377 8.24411 14.239 
678 2 -0.21077 7.85603 14.2624 
679 1 -4.04671 14.1364 14.4362 
680 2 -3.08074 14.3773 14.2866 
681 2 -3.95733 13.7561 15.3181 
682 1 -1.34087 14.2223 14.2124 
683 2 -0.601573 14.8113 14.4056 
684 2 -1.09879 13.4915 14.7708 
685 1 2.2169 12.1731 18.8024 
686 2 2.95259 11.5987 18.9429 
687 2 8.7238 12.4816 0.669783 
688 1 2.2556 12.3907 9.89391 
689 2 1.6788 11.6163 9.84902 
690 2 3.12605 11.9357 9.80364 
691 1 -2.05344 10.1492 9.67049 
692 2 -2.57492 10.9342 9.83894 
693 2 -1.0898 10.4052 9.63484 
694 1 -2.46575 9.99787 19.2118 
695 2 -2.4237 9.52753 18.3048 
696 2 -2.03023 10.8216 19.0246 
697 1 1.65576 13.6695 16.744 
698 2 1.79717 13.1286 17.5177 
699 2 2.24541 14.4354 16.8955 
700 1 2.57145 13.6812 12.1358 
701 2 2.23782 13.396 13.0976 
702 2 2.34147 12.9958 11.4921 
703 1 -1.71568 8.54354 11.8413 
704 2 -1.85126 9.04765 10.9807 
705 2 -0.793377 8.1467 11.8824 
706 1 -2.87649 8.65784 16.8239 
707 2 -2.73758 9.27731 16.0452 
708 2 -2.01409 8.13962 17.0687 
709 1 2.75096 10.1008 11.9371 
710 2 2.96902 9.52327 12.695 
711 2 1.87592 10.4985 12.1558 
712 1 0.464487 9.83778 16.7594 
713 2 0.376121 9.31665 15.9233 
714 2 1.37973 10.0991 16.7261 
715 1 -3.12956 12.8585 16.9318 
716 2 -3.06456 13.2146 17.8446 
717 2 -3.84487 12.1918 16.911 
718 1 -1.37418 12.65 12.0162 
719 2 -2.23604 12.2261 12.1978 
720 2 -1.32686 13.3718 12.7393 
721 1 3.3042 10.7638 15.7663 
722 2 2.79335 11.4624 15.2468 
723 2 3.89971 11.2366 16.4008 
724 1 0.35249 10.96 13.0875 
725 2 -0.272407 11.5668 12.6403 
726 2 0.0560958 10.1267 13.3723 
727 1 -3.53823 11.7404 13.0915 
728 2 -3.25796 11.0215 13.7001 
729 2 -3.86534 12.4762 13.7058 
730 1 -1.08695 11.7239 15.6787 
731 2 -1.83097 12.0682 16.2652 
732 2 -0.465367 11.2329 16.2017 
733 1 5.16098 14.5351 11.2792 
734 2 4.2821 14.2835 11.5875 
735 2 5.64637 15.0799 11.9182 
736 1 -0.994865 14.5188 17.7699 
737 2 -0.965564 15.2581 18.378 
738 2 -0.159132 14.3404 17.3151 
739 1 -5.38196 8.00235 17.6898 
740 2 -5.04098 7.45138 18.4315 
741 2 -4.563 8.13639 17.1523 
742 1 0.667837 7.89717 11.0137 
743 2 0.140599 7.3328 10.3726 
744 2 1.4472 7.27077 11.2804 
745 1 1.9161 12.6045 14.4213 
746 2 1.74695 13.0368 15.2377 
747 2 1.20097 12.0065 14.1723 
748 1 -2.3638 9.69495 14.2456 
749 2 -1.70363 10.3235 14.5495 
750 2 -2.25253 9.27349 13.3457 
751 1 3.59944 8.66323 9.71901 
752 2 3.2007 9.15856 10.4935 
753 2 3.92323 9.27242 9.00637 
754 1 -0.885805 13.8442 9.58556 
755 2 -1.28384 13.2801 10.2665 
756 2 -1.52388 14.5497 9.29091 
757 1 12.2538 8.91132 14.5191 
758 2 12.8633 8.18237 14.3351 
759 2 11.3921 8.55898 14.796 
760 1 9.44177 8.68904 14.8913 
761 2 9.25479 9.27175 14.1203 
762 2 8.99631 7.85834 14.6798 
763 1 5.03262 14.0006 14.7189 
764 2 5.05423 13.4696 15.5594 
765 2 5.94867 14.3595 14.7661 
766 1 7.81893 14.2074 14.2387 
767 2 8.5874 14.7894 14.3634 
768 2 7.81155 13.4513 14.8705 
769 1 11.2306 12.4081 19.0387 
770 2 -5.99625 11.7158 18.9872 
771 2 10.3325 12.1264 19.257 
772 1 11.2812 12.0792 10.2252 
773 2 10.5308 11.4767 10.3022 
774 2 11.0056 12.7277 9.51222 
775 1 6.80586 9.96471 9.99941 
776 2 7.68288 10.363 9.84745 
777 2 6.06453 10.5825 9.83693 
778 1 6.88025 9.95261 19.1591 
779 2 6.71302 9.48049 18.2981 
780 2 13.2927 9.21185 0.790174 
781 1 10.6906 13.9939 16.9142 
782 2 10.6871 13.5549 16.0937 
783 2 10.9268 13.3348 17.6183 
784 1 11.7104 13.9863 12.3978 
785 2 11.4704 13.2725 11.8381 
786 2 12.5562 14.2893 12.1966 
787 1 6.94328 8.43122 12.2961 
788 2 6.22421 7.81013 12.2456 
789 2 6.77412 9.04021 11.5628 
790 1 6.20953 8.26862 16.9843 
791 2 5.27114 8.0314 17.1703 
792 2 6.12853 8.85242 16.2271 
793 1 12.1577 10.0511 11.9379 
794 2 12.9168 10.6136 12.2626 
795 2 12.0698 9.37527 12.6804 
796 1 9.8022 10.5321 16.8593 
797 2 10.7061 10.7193 16.5878 
798 2 9.57957 9.78281 16.2347 
799 1 5.33914 12.664 16.9109 
800 2 5.30616 12.9346 17.8614 
801 2 6.21899 12.2545 16.7327 
802 1 7.55677 12.4295 12.1574 
803 2 6.63377 12.0361 12.2032 
804 2 7.57787 13.1193 12.8566 
805 1 -5.31923 10.8614 16.2747 
806 2 12.545 11.5959 15.6411 
807 2 12.5365 10.014 15.7507 
808 1 9.31797 10.8162 13.1919 
809 2 10.1018 10.5952 12.6039 
810 2 8.60645 11.3183 12.7231 
811 1 5.03636 11.6229 12.7864 
812 2 4.46025 11.1345 12.2107 
813 2 4.64967 12.4485 13.0043 
814 1 7.68115 11.9818 15.9483 
815 2 8.41379 11.8118 16.5757 
816 2 7.58811 11.1961 15.3749 
817 1 14.3607 14.3806 11.1188 
818 2 13.8376 15.1621 10.9356 
819 2 14.1528 13.6336 10.5409 
820 1 8.10641 14.3995 18.0013 
821 2 8.45669 15.0532 18.6161 
822 2 8.92644 14.143 17.4647 
823 1 3.5719 7.94593 17.5874 
824 2 2.66556 7.57006 17.369 
825 2 3.42065 8.82473 18.0051 
826 1 9.28962 7.91077 11.2585 
827 2 10.1331 7.59288 11.5458 
828 2 8.63525 8.08545 11.9537 
829 1 10.5031 12.9286 14.4747 
830 2 10.9734 13.4416 13.7708 
831 2 10.1294 12.1556 14.0783 
832 1 6.45634 9.91628 14.7605 
833 2 6.6137 9.31199 14.0053 
834 2 5.70806 10.408 14.4482 
835 1 12.3782 8.93215 9.56701 
836 2 12.6762 9.41523 8.75741 
837 2 12.4504 9.52614 10.378 
838 1 8.19662 13.8498 9.95841 
839 2 7.9141 13.484 10.8061 
840 2 7.55438 14.4793 9.66627 
841 1 3.08491 15.922 14.323 
842 2 3.85074 15.3057 14.4076 
843 2 3.16699 16.279 13.3891 
844 1 0.519229 16.1151 14.7832 
845 2 1.43065 15.9879 14.5595 
846 2 0.252623 16.8414 14.1338 
847 1 -3.78366 21.1343 14.499 
848 2 -4.3907 21.8929 14.3734 
849 2 -4.02181 20.4236 13.8413 
850 1 -1.00028 21.3572 14.0833 
851 2 -1.95793 21.2974 14.2045 
852 2 -0.614978 20.8114 14.7838 
853 1 8.35211 19.6239 0.23305 
854 2 8.82114 18.7602 0.449832 
855 2 8.68584 20.1549 0.958503 
856 1 2.25889 19.7021 9.82592 
857 2 1.94792 20.5026 9.29182 
858 2 2.08816 20.0807 10.7178 
859 1 -2.4719 17.6936 10.0506 
860 2 -1.59484 18.1709 9.7607 
861 2 -2.18466 17.3972 10.9086 
862 1 -2.69548 18.1866 19.042 
863 2 4.65299 18.8591 0.244634 
864 2 -2.51662 17.7994 18.2202 
865 1 1.43976 21.3549 16.7192 
866 2 1.44685 20.7287 17.4283 
867 2 1.59422 20.7675 15.9927 
868 1 2.15908 20.9718 12.2872 
869 2 3.06223 21.3206 12.1854 
870 2 1.54848 21.6981 12.3862 
871 1 -1.54401 16.2084 12.039 
872 2 -0.612278 15.9664 11.8317 
873 2 -2.01927 15.3761 11.8683 
874 1 -2.84961 16.2728 16.8084 
875 2 -2.46598 15.4561 17.1343 
876 2 -3.82389 16.1182 17.0588 
877 1 3.22236 17.4822 12.058 
878 2 2.3585 17.8672 11.945 
879 2 3.41838 16.9614 11.2189 
880 1 0.979509 17.4829 16.967 
881 2 0.932243 17.1929 17.845 
882 2 0.652685 16.7628 16.409 
883 1 -3.65491 19.7802 16.6236 
884 2 -3.75886 20.4503 15.8682 
885 2 -2.70423 19.5211 16.575 
886 1 -1.44139 20.0776 11.6359 
887 2 -2.31737 19.7265 11.8202 
888 2 -1.20713 20.5173 12.5109 
889 1 3.48273 17.9866 16.2461 
890 2 2.68581 17.9822 16.783 
891 2 3.50094 17.1601 15.795 
892 1 0.580845 18.2652 12.8386 
893 2 1.02932 18.7509 13.561 
894 2 -0.172066 18.7613 12.5213 
895 1 -3.78487 19.1569 12.6936 
896 2 13.2715 18.7401 12.38 
897 2 -3.44054 18.418 13.3846 
898 1 -1.04933 19.1442 15.9358 
899 2 -1.53494 18.5524 15.3436 
900 2 -0.291736 18.6257 16.2982 
901 1 4.69099 22.1292 11.7569 
902 2 5.06511 21.4164 11.1863 
903 2 4.23754 0.35135 11.0479 
904 1 -0.723884 22.3207 17.8579 
905 2 -0.104679 22.0455 17.1173 
906 2 -1.60308 0.21899 17.3685 
907 1 -5.22152 15.6649 17.6028 
908 2 11.9501 15.3325 17.0472 
909 2 -5.05829 14.9231 18.233 
910 1 0.832764 15.4482 10.9771 
911 2 0.18619 14.7606 10.643 
912 2 1.42547 14.8278 11.4422 
913 1 1.9178 19.8272 14.5616 
914 2 2.55965 19.2486 15.0404 
915 2 2.23782 20.2451 13.7366 
916 1 -2.39221 17.4765 14.2735 
917 2 -2.77468 16.9124 14.912 
918 2 -1.85539 16.7829 13.6004 
919 1 3.47777 16.2783 9.76882 
920 2 4.17834 15.6744 9.93359 
921 2 3.75681 16.8229 8.95425 
922 1 -0.814685 21.3593 9.1625 
923 2 -1.54469 22.0427 8.93044 
924 2 -1.09929 20.6704 9.79266 
925 1 12.198 16.1277 14.097 
926 2 12.3727 16.8395 14.7466 
927 2 12.8926 15.4533 14.1909 
928 1 9.57836 16.2078 14.7561 
929 2 10.5212 15.9641 14.5129 
930 2 9.65679 16.6747 15.6024 
931 1 5.19455 21.2997 14.4608 
932 2 6.20075 21.5414 14.3438 
933 2 4.9952 20.5814 13.8406 
934 1 8.29947 21.338 14.4361 
935 2 8.01895 20.5805 14.9782 
936 2 8.22244 20.958 13.5357 
937 1 10.518 19.856 19.0034 
938 2 17.4056 20.4431 0.766954 
939 2 11.1844 19.1334 18.9239 
940 1 11.1691 19.7938 9.73812 
941 2 11.0127 20.6216 9.23702 
942 2 11.1227 20.1926 10.6606 
943 1 6.84358 18.0358 10.0646 
944 2 6.5263 17.2358 9.62627 
945 2 7.7546 18.1497 9.75593 
946 1 12.7634 17.7144 0.46119 
947 2 6.30525 17.348 18.6737 
948 2 13.4843 18.4678 0.455957 
949 1 10.222 21.5339 16.9791 
950 2 9.24727 21.7153 16.9461 
951 2 10.3256 20.7581 17.5659 
952 1 11.3597 21.1955 12.0792 
953 2 11.1966 21.1227 13.0292 
954 2 12.2284 21.616 12.0232 
955 1 7.03985 16.5271 12.3787 
956 2 7.97804 16.3397 12.1953 
957 2 6.86667 17.2227 11.7589 
958 1 6.03253 16.2706 16.9932 