ITEM: TIMESTEP
1040000
ITEM: NUMBER OF ATOMS
1008
ITEM: BOX BOUNDS xy xz yz pp pp pp
-6.4070661855504429e+00 1.8205734705484467e+01 4.8038933620716595e-02
6.7307943616894406e-02 2.2507376610505236e+01 -6.6489254136817806e+00
2.2780065001050076e-01 1.9277915349984340e+01 4.2955541286769580e-03
ITEM: ATOMS id type x y z 
1 1 6.63113 1.36548 5.1352 
2 2 7.25107 0.630591 4.96222 
3 2 6.39913 1.75885 4.25493 
4 1 3.90015 1.31759 5.29505 
5 2 4.83998 0.993119 5.34829 
6 2 3.84685 1.73282 6.21389 
7 1 -0.22711 6.43855 5.20779 
8 2 -0.344391 6.10495 6.14548 
9 2 -0.805982 7.21648 5.04349 
10 1 2.11084 6.36128 4.35681 
11 2 1.28899 6.61814 4.87145 
12 2 2.84434 6.94838 4.61771 
13 1 5.00013 5.32854 9.99437 
14 2 4.96155 5.68106 9.06038 
15 2 4.10401 4.95837 10.179 
16 1 -0.77599 4.76126 19.0633 
17 2 -1.40201 4.0128 19.0833 
18 2 5.63732 5.1522 0.916779 
19 1 -5.44047 2.94573 19.1334 
20 2 -6.0449 3.69309 19.245 
21 2 1.09178 2.44058 0.921237 
22 1 0.878798 2.62289 9.526 
23 2 1.41916 3.44903 9.70734 
24 2 -0.0648956 2.90147 9.61276 
25 1 4.83307 6.29267 7.45152 
26 2 5.21256 7.17096 7.43736 
27 2 3.86198 6.45557 7.56141 
28 1 5.62859 6.17241 2.24944 
29 2 5.74381 6.02412 3.22416 
30 2 4.94637 6.88636 2.23063 
31 1 1.38037 1.1063 2.29231 
32 2 2.35727 0.800021 2.17266 
33 2 1.26708 1.4374 3.19873 
34 1 0.434491 1.15407 7.23693 
35 2 -0.47456 1.12661 7.32068 
36 2 0.682876 1.84375 7.91867 
37 1 6.38768 2.29438 2.48892 
38 2 5.48203 2.59561 2.64847 
39 2 6.99245 3.03461 2.60949 
40 1 4.41061 2.77481 7.58555 
41 2 5.38671 2.87287 7.24347 
42 2 3.94598 3.53939 7.218 
43 1 0.00216925 5.03465 7.39422 
44 2 -0.549402 4.30352 7.17228 
45 2 -0.268749 5.19905 8.33036 
46 1 1.80003 4.59885 2.40239 
47 2 0.911397 4.32441 2.51805 
48 2 1.92474 5.08724 3.29782 
49 1 6.88679 3.29141 6.74891 
50 2 6.6937 4.11128 6.31072 
51 2 6.99145 2.63943 6.04542 
52 1 4.03115 3.11486 3.53976 
53 2 3.19028 3.32878 3.10955 
54 2 3.73672 2.43264 4.24309 
55 1 -0.733233 4.10413 3.82235 
56 2 -0.889302 4.89835 4.34721 
57 2 -0.10433 3.52969 4.24103 
58 1 2.69126 4.25702 6.05782 
59 2 2.66539 5.06838 5.49615 
60 2 1.92151 4.35629 6.63294 
61 1 8.40527 6.74352 1.66069 
62 2 7.56924 6.44709 2.08329 
63 2 8.61045 6.01232 1.00327 
64 1 2.21278 7.02625 8.55335 
65 2 1.56857 7.56556 7.96669 
66 2 2.59537 7.75901 9.05586 
67 1 -2.01147 0.59197 8.55882 
68 2 -2.29826 1.48356 8.96164 
69 2 15.125 0.171049 8.04067 
70 1 3.96151 0.380831 1.41316 
71 2 3.54212 22.2212 0.802603 
72 2 3.90398 1.23999 0.985122 
73 1 5.60864 4.9772 4.96189 
74 2 5.38168 5.65 5.63273 
75 2 4.73333 4.55338 4.72199 
76 1 0.980169 2.45093 4.85081 
77 2 0.84015 1.82453 5.59682 
78 2 1.79399 2.8893 5.12979 
79 1 0.375915 1.1733 19.2355 
80 2 6.63047 1.53569 0.988907 
81 2 -0.23295 0.61319 18.6744 
82 1 -4.1096 5.89721 19.2168 
83 2 2.24072 5.38633 0.944728 
84 2 3.15106 6.60947 0.352445 
85 1 15.5357 0.927226 4.84905 
86 2 16.3297 0.23451 4.90732 
87 2 15.5869 1.35205 3.96839 
88 1 12.7137 1.10419 5.07376 
89 2 12.8243 1.84541 4.40408 
90 2 13.6255 0.67591 5.04034 
91 1 8.20085 6.0245 5.11553 
92 2 7.97717 5.39699 4.39868 
93 2 9.17066 6.22838 5.005 
94 1 10.9317 6.4786 4.90704 
95 2 11.677 7.05687 5.06097 
96 2 11.1525 5.83056 5.58864 
97 1 13.5572 4.64333 9.53088 
98 2 13.8148 5.21737 10.2822 
99 2 12.6 4.5505 9.61579 
100 1 8.08598 4.93901 19.2016 
101 2 14.5987 5.04517 1.13211 
102 2 7.51681 4.17502 18.9745 
103 1 10.4465 2.74959 0.232391 
104 2 3.166 3.49053 19.2745 
105 2 3.34451 2.07479 18.7872 
106 1 9.19648 2.73945 9.75201 
107 2 9.30279 1.83307 10.0744 
108 2 8.25554 2.97733 9.8839 
109 1 13.782 6.40184 7.4466 
110 2 13.9265 5.66269 8.08666 
111 2 12.9258 6.80483 7.58902 
112 1 14.7071 5.99184 2.63518 
113 2 14.0478 6.61545 2.28092 
114 2 15.5708 6.28525 2.35609 
115 1 10.54 1.44785 2.61761 
116 2 10.4503 2.0352 1.8624 
117 2 9.80438 0.809303 2.46354 
118 1 9.10418 1.17198 7.49416 
119 2 9.18785 2.0148 8.00681 
120 2 9.00319 1.34304 6.55374 
121 1 15.2865 2.70038 2.74464 
122 2 15.9934 3.29563 3.14946 
123 2 15.5208 2.64937 1.81573 
124 1 13.0631 2.41898 7.43119 
125 2 13.9709 2.74213 7.34758 
126 2 12.95 1.7607 6.67512 
127 1 8.95614 4.76399 7.51418 
128 2 8.27014 4.08965 7.46449 
129 2 8.63071 5.38977 6.85958 
130 1 11.0562 4.79714 2.44533 
131 2 11.7933 4.18186 2.62134 
132 2 11.0637 5.31521 3.28482 
133 1 15.8 3.18865 6.67996 
134 2 15.2507 3.78439 6.11202 
135 2 15.8526 2.40429 6.09619 
136 1 12.8692 3.24872 3.61991 
137 2 13.1013 3.99022 4.25825 
138 2 13.6874 3.13064 3.11143 
139 1 8.34916 3.96571 3.21311 
140 2 9.10325 4.18172 2.6203 
141 2 8.80999 3.49957 3.99865 
142 1 11.5058 4.25181 6.57597 
143 2 12.2097 3.628 6.9896 
144 2 10.7055 4.14102 7.12743 
145 1 17.0418 7.20577 1.76557 
146 2 17.3495 6.40074 1.3017 
147 2 16.8623 7.94315 1.15004 
148 1 11.3431 7.16967 8.28934 
149 2 11.1283 6.30008 8.69611 
150 2 11.8009 7.5769 9.0243 
151 1 6.6139 0.500194 8.75008 
152 2 7.45635 0.785398 8.28045 
153 2 6.27384 1.3162 9.0393 
154 1 12.9037 0.449066 1.65302 
155 2 13.2575 1.1725 1.07398 
156 2 12.0449 0.859713 1.99029 
157 1 14.35 4.939 5.33102 
158 2 14.7548 5.32443 4.53248 
159 2 13.923 5.6114 5.88913 
160 1 9.7419 2.48266 4.966 
161 2 10.3712 3.16682 5.22326 
162 2 10.1 1.95316 4.25407 
163 1 9.37477 1.53298 19.0734 
164 2 8.53141 0.958778 18.8685 
165 2 16.6793 0.908159 0.349757 
166 1 11.5917 6.082 0.315687 
167 2 11.1413 5.533 1.10132 
168 2 4.27321 6.67956 18.989 
169 1 6.60924 8.52676 4.66772 
170 2 7.04833 7.70533 4.91855 
171 2 7.03039 9.19006 5.3052 
172 1 3.95254 8.10648 5.2635 
173 2 3.84013 9.01091 4.88072 
174 2 4.88902 8.06053 5.11897 
175 1 -0.615972 14.0209 5.0208 
176 2 -0.744414 13.3863 5.72969 
177 2 -1.29781 14.7536 5.07086 
178 1 2.19433 13.9894 5.04188 
179 2 1.22838 14.1686 5.03197 
180 2 2.58035 14.8574 5.40415 
181 1 4.74736 12.5349 9.72498 
182 2 4.85673 13.1169 8.96038 
183 2 4.92075 13.1608 10.4873 
184 1 -1.05336 12.1376 18.8863 
185 2 -0.0982759 12.0217 18.9407 
186 2 -1.1198 13.0413 18.5157 
187 1 0.993809 10.1952 0.262527 
188 2 -5.64179 9.44137 18.6834 
189 2 -4.72336 10.4997 19.1953 
190 1 0.214565 10.4178 9.46304 
191 2 0.416656 9.70123 10.0717 
192 2 0.350448 10.0121 8.63811 
193 1 4.81872 14.1454 7.66649 
194 2 4.86641 13.807 6.72928 
195 2 3.89213 14.4326 7.81913 
196 1 5.76958 13.5598 2.65711 
197 2 5.86015 13.5649 3.66403 
198 2 5.5767 12.7371 2.25798 
199 1 1.30004 8.69652 2.44641 
200 2 0.955375 9.35227 1.76025 
201 2 0.748375 7.90864 2.30815 
202 1 0.21842 8.37622 7.26028 
203 2 -0.693343 8.29905 7.48308 
204 2 0.37088 8.4276 6.30604 
205 1 6.48263 10.4416 2.27055 
206 2 6.72322 9.71254 2.86869 
207 2 6.74226 10.193 1.39656 
208 1 4.50307 10.7282 7.36005 
209 2 3.67504 11.2418 7.04814 
210 2 4.21374 9.82187 7.13056 
211 1 -0.55726 12.3633 7.24371 
212 2 -0.738501 12.6343 8.212 
213 2 -1.09918 11.5671 7.01331 
214 1 1.90879 12.3252 2.77778 
215 2 2.00345 13.0104 3.46936 
216 2 0.893948 12.2129 2.84788 
217 1 6.984 10.9951 6.05943 
218 2 7.57487 11.5033 6.59715 
219 2 6.29117 10.8212 6.71316 
220 1 3.98004 10.6888 3.94561 
221 2 4.68945 10.5052 3.228 
222 2 3.20897 10.9749 3.43008 
223 1 -0.785952 11.6087 3.39098 
224 2 -0.359473 11.2188 4.15877 
225 2 16.9082 12.5792 3.46752 
226 1 2.10729 11.846 6.65451 
227 2 2.17843 12.6575 6.09915 
228 2 1.22228 12.019 7.02552 
229 1 8.0918 14.5129 1.54305 
230 2 8.72972 14.8846 2.13986 
231 2 7.23608 14.207 1.94612 
232 1 2.18252 14.74 8.37239 
233 2 2.43893 15.2137 9.18897 
234 2 1.86855 13.8972 8.74224 
235 1 -2.27868 8.15134 8.0151 
236 2 -2.61378 8.60386 8.81595 
237 2 14.9977 7.35568 7.83394 
238 1 3.82925 7.97521 1.6409 
239 2 2.93822 8.34275 1.97093 
240 2 4.19257 8.70253 1.09002 
241 1 5.4171 12.9383 5.26185 
242 2 6.06899 12.239 5.54006 
243 2 4.66503 12.3537 4.93761 
244 1 0.72693 10.0039 4.95187 
245 2 1.0449 9.68805 4.03065 
246 2 1.38667 10.6174 5.33683 
247 1 7.1296 8.83416 0.239336 
248 2 7.71105 8.2482 0.738365 
249 2 0.878398 9.27615 18.5182 
250 1 2.68571 13.4834 0.305231 
251 2 2.28911 12.9295 1.00115 
252 2 3.26779 14.1455 0.81209 
253 1 15.621 8.20887 4.90917 
254 2 15.6159 9.06543 5.37992 
255 2 15.515 8.38569 3.95809 
256 1 12.7122 8.3094 5.19807 
257 2 13.6747 8.12514 4.93085 
258 2 12.4941 9.03573 4.59262 
259 1 8.76573 13.6734 5.02876 
260 2 8.84459 13.4791 6.00538 
261 2 8.08758 14.3346 4.99179 
262 1 11.4484 13.7762 4.60662 
263 2 10.4931 13.9625 4.71448 
264 2 11.9114 14.6245 4.58674 
265 1 13.9513 12.3836 10.0165 
266 2 13.9981 12.7598 9.12648 
267 2 12.9926 12.2205 9.92983 
268 1 14.5869 12.2254 0.525233 
269 2 7.72165 12.8984 18.8888 
270 2 13.9139 11.5633 0.407207 
271 1 10.0811 10.2426 0.343406 
272 2 9.96951 9.67443 1.14381 
273 2 11.0511 10.4263 0.328803 
274 1 9.51819 10.5432 9.56353 
275 2 9.6985 9.67341 10.0514 
276 2 9.72226 10.2086 8.70697 
277 1 13.8001 13.5258 7.47356 
278 2 13.8664 13.0923 6.58702 
279 2 14.3916 14.3069 7.47202 
280 1 14.836 13.5971 2.85888 
281 2 14.6667 13.0701 2.00896 
282 2 15.7177 14.1389 2.71994 
283 1 9.98235 8.7526 2.52252 
284 2 9.86518 8.88543 3.45704 
285 2 9.40515 8.00212 2.33921 
286 1 9.33829 8.80539 7.3884 
287 2 9.96861 8.09118 7.67441 
288 2 8.3872 8.47856 7.55433 
289 1 15.1733 9.91573 2.72874 
290 2 15.8965 10.5239 2.84834 
291 2 15.3615 9.57348 1.83247 
292 1 13.1866 9.67075 7.52502 
293 2 12.6756 10.3905 7.31024 
294 2 13.0493 9.0448 6.73746 
295 1 9.07013 12.3165 7.35443 
296 2 9.17966 12.7815 8.16836 
297 2 9.93965 11.8845 7.13996 
298 1 10.9813 12.458 2.39218 
299 2 11.2672 13.0085 3.16943 
300 2 10.0756 12.1473 2.60355 
301 1 15.7887 10.3867 6.41749 
302 2 15.2723 9.85691 7.06259 
303 2 15.1961 11.0377 5.99881 
304 1 12.742 10.6541 3.52868 
305 2 12.2053 11.2073 2.96175 
306 2 13.5288 10.4932 2.99364 
307 1 8.75036 11.6682 3.45639 
308 2 8.55243 12.3496 4.11066 
309 2 7.91013 11.2644 3.16181 
310 1 11.3145 11.5523 6.35981 
311 2 10.9366 10.7733 5.86099 
312 2 11.5488 12.2792 5.76332 
313 1 17.388 14.8804 1.87893 
314 2 17.7384 14.0565 1.36902 
315 2 0.338901 15.3185 2.02217 
316 1 11.495 14.4323 8.3599 
317 2 10.7289 14.7425 7.88741 
318 2 12.1395 14.0852 7.67656 
319 1 6.62893 8.34736 8.14686 
320 2 6.61026 9.17526 8.6786 
321 2 7.00745 7.65628 8.64943 
322 1 12.6854 8.0251 1.98959 
323 2 11.8456 8.39953 2.35666 
324 2 12.269 7.41511 1.29199 
325 1 14.0653 12.2214 5.17095 
326 2 13.5014 11.6032 4.57566 
327 2 14.3921 12.7707 4.42206 
328 1 9.96715 9.76577 5.02426 
329 2 9.53843 9.31899 5.76693 
330 2 9.40908 10.4708 4.66551 
331 1 16.0181 9.19647 0.321739 
332 2 9.80905 9.82437 18.6901 
333 2 8.82949 8.58969 18.8644 
334 1 4.85103 13.5514 19.2631 
335 2 11.0671 13.1361 0.97342 
336 2 12.056 14.2182 0.61998 
337 1 6.67521 15.9323 4.77569 
338 2 5.72762 15.8783 4.92708 
339 2 6.81777 16.3338 3.91308 
340 1 3.67869 15.9801 5.47513 
341 2 3.44331 16.6526 4.81016 
342 2 3.95777 16.5358 6.22938 
343 1 -0.545081 21.4385 5.08488 
344 2 0.389548 21.6684 5.02239 
345 2 -0.661142 21.2629 6.02696 
346 1 2.11605 21.4887 4.76494 
347 2 2.77452 22.2178 4.77964 
348 2 2.22461 21.046 3.87352 
349 1 4.91504 19.9904 9.94102 
350 2 5.64997 19.2627 10.0244 
351 2 4.02061 19.5986 10.0662 
352 1 5.51263 19.9763 0.470561 
353 2 -1.21479 20.7016 18.9172 
354 2 -0.255477 19.6369 19.2714 
355 1 1.23762 17.8884 0.236183 
356 2 -5.55745 17.0004 18.8297 
357 2 -4.48512 18.0592 19.2208 
358 1 0.21714 18.0587 9.74769 
359 2 0.837105 18.7587 9.97115 
360 2 0.299264 17.3636 10.3776 
361 1 4.84558 21.1564 7.55412 
362 2 5.35075 21.9964 7.8309 
363 2 4.78211 20.698 8.43412 
364 1 5.97807 21.4407 2.72763 
365 2 5.83772 20.8125 1.925 
366 2 5.33709 22.1101 2.63804 
367 1 1.68276 16.2221 2.62671 
368 2 2.57162 15.7821 2.46125 
369 2 1.66207 17.011 2.08097 
370 1 0.389943 16.5117 7.27867 
371 2 0.416354 17.3072 7.87074 
372 2 1.06188 15.8578 7.57421 
373 1 6.5102 17.488 2.61492 
374 2 7.13465 18.2428 2.75569 
375 2 5.62179 17.8893 2.89844 
376 1 4.46388 17.6 7.56245 
377 2 4.11168 18.48 7.36562 
378 2 5.40982 17.687 7.46433 
379 1 0.0028981 19.7938 7.44662 
380 2 0.962489 19.8236 7.42538 
381 2 -0.22965 20.1689 8.32929 
382 1 2.24775 19.7585 2.46379 
383 2 1.40408 19.3385 2.5798 
384 2 2.13334 20.255 1.53243 
385 1 7.04018 18.118 6.4511 
386 2 6.39764 18.631 5.99355 
387 2 7.17356 17.307 5.86946 
388 1 4.04585 18.0364 3.7052 
389 2 4.36027 18.6465 4.38869 
390 2 3.35431 18.5319 3.25788 
391 1 -0.486579 19.2265 3.35996 
392 2 -0.706663 20.0388 3.79861 
393 2 -0.212917 18.5575 4.07251 
394 1 2.76357 19.3842 6.47371 
395 2 2.807 20.3045 6.1226 
396 2 2.15859 18.8477 5.91853 
397 1 8.62702 22.0787 1.90022 
398 2 7.79114 21.7739 2.34365 
399 2 8.23502 0.0747058 1.07318 
400 1 2.41363 21.9979 8.35942 
401 2 1.61106 22.2882 7.91455 
402 2 3.08921 21.705 7.77014 
403 1 -2.12152 15.5207 7.98037 
404 2 -1.24948 15.7031 7.50324 
405 2 -2.26233 16.4281 8.43891 
406 1 3.88138 15.2165 2.02361 
407 2 4.62714 14.7094 2.41016 
408 2 4.3599 15.9606 1.53031 
409 1 5.4393 19.9735 5.17849 
410 2 5.57872 20.698 4.5063 
411 2 5.16935 20.3728 6.04402 
412 1 0.829957 17.3689 4.83452 
413 2 1.15075 16.6944 4.20761 
414 2 0.698877 16.8645 5.66757 
415 1 0.279693 16.6462 19.2643 
416 2 7.51576 15.8712 0.611182 
417 2 6.69524 17.0334 1.09373 
418 1 -4.14813 21.0332 19.1893 
419 2 -4.58965 21.7139 18.5502 
420 2 -3.57605 20.6421 18.4585 
421 1 15.6248 16.1179 4.76096 
422 2 14.6388 16.0174 4.89108 
423 2 15.5494 16.3228 3.82011 
424 1 12.9409 16.3006 4.85908 
425 2 12.9311 16.6326 5.81112 
426 2 12.7189 17.0882 4.32527 
427 1 8.29329 21.6982 5.07951 
428 2 8.16241 21.078 5.79887 
429 2 9.24528 21.6646 4.99745 
430 1 11.0105 21.3445 4.35261 
431 2 11.3214 20.8752 5.14633 
432 2 11.4826 22.2397 4.33448 
433 1 13.7525 20.1242 9.64958 
434 2 14.4034 19.3781 9.67286 
435 2 12.839 19.8747 9.91665 
436 1 7.72236 19.7748 19.2631 
437 2 14.1722 20.0082 1.13689 
438 2 8.76407 19.7319 19.2617 
439 1 10.3418 17.5927 0.27606 
440 2 11.3043 17.5657 0.442832 
441 2 3.56095 16.9158 18.6563 
442 1 9.41071 17.742 9.44956 
443 2 9.76355 17.0692 10.1023 
444 2 10.0391 18.5158 9.43914 
445 1 13.8606 21.6282 7.24823 
446 2 12.9525 21.7488 7.54102 
447 2 14.0648 20.8109 7.78375 
448 1 15.0357 21.4195 2.57924 
449 2 14.8812 21.2567 3.50209 
450 2 14.4273 22.1616 2.34877 
451 1 10.4328 16.2191 2.72811 
452 2 10.2568 16.9149 2.05872 
453 2 11.3037 15.8167 2.54413 
454 1 9.42602 15.8829 7.48366 
455 2 9.72044 16.3065 6.60013 
456 2 9.46523 16.6056 8.14238 
457 1 15.4249 17.7553 2.11553 
458 2 14.5726 18.2307 2.40311 
459 2 16.097 18.3782 2.52042 
460 1 13.3306 17.7076 7.14211 
461 2 12.7469 18.4758 7.03192 
462 2 14.2729 17.9889 7.10192 
463 1 8.70654 20.0745 7.39938 
464 2 8.48722 20.3237 8.30071 
465 2 8.44813 19.1302 7.22425 
466 1 10.6785 19.6758 2.07318 
467 2 10.7596 20.1888 1.2172 
468 2 11.0099 20.3593 2.70441 
469 1 15.6979 18.5764 6.19851 
470 2 -1.32446 18.8587 6.49217 
471 2 15.8836 17.7588 5.69879 
472 1 12.9767 18.4206 3.16483 
473 2 12.251 18.732 2.57267 
474 2 13.2089 19.1851 3.69438 
475 1 8.31102 19.1463 3.54493 
476 2 7.93611 20.0308 3.8057 
477 2 9.15557 19.3072 3.14231 
478 1 11.1979 19.3277 6.36433 
479 2 11.043 18.4579 5.95694 
480 2 10.4313 19.4895 6.89054 
481 1 17.3808 21.6962 1.57639 
482 2 0.105647 22.2953 1.92436 
483 2 16.4425 21.7529 1.9312 
484 1 11.1817 21.9979 8.30261 
485 2 10.374 22.4542 8.00804 
486 2 11.4602 0.190402 8.91305 
487 1 6.9005 15.7016 8.76324 
488 2 6.19315 15.3003 8.24981 
489 2 7.65256 15.6767 8.14064 
490 1 12.8485 15.1584 2.02715 
491 2 13.1411 15.909 1.44828 
492 2 13.5663 14.7043 2.46575 
493 1 14.0909 20.389 4.80023 
494 2 13.9539 20.8604 5.69845 
495 2 14.7254 19.7192 5.07932 
496 1 9.84567 17.1258 5.10298 
497 2 9.16274 17.7265 4.73616 
498 2 10.193 16.6265 4.33605 
499 1 9.13824 16.2102 19.0557 
500 2 16.2988 15.8073 0.760121 
501 2 15.463 17.0201 0.466425 
502 1 4.91408 21.209 19.0565 
503 2 5.35044 20.6969 18.3133 
504 2 12.3094 21.6051 0.548125 
505 1 3.37288 1.29087 14.1211 
506 2 3.55043 1.84793 14.9336 
507 2 3.87392 0.374238 14.1126 
508 1 0.71773 1.16418 14.6147 
509 2 0.107068 0.366169 14.5941 
510 2 1.60442 0.946562 14.3176 
511 1 -4.13425 6.58428 14.5691 
512 2 -4.19609 5.86647 13.9079 
513 2 -4.01802 6.00445 15.3425 
514 1 -1.34344 6.9073 14.6206 
515 2 -1.18411 6.0687 15.0841 
516 2 -2.30738 7.05271 14.4999 
517 1 2.05453 4.77515 18.7307 
518 2 1.06558 4.67358 18.7956 
519 2 2.17948 5.28316 17.9296 
520 1 2.29017 4.6717 10.1579 
521 2 2.05894 5.42219 9.57973 
522 2 2.10872 4.99483 11.0755 
523 1 -2.14384 2.87146 9.89076 
524 2 -2.94315 3.38045 9.58678 
525 2 -2.295 2.46327 10.7683 
526 1 -2.70242 2.61383 18.9585 
527 2 -2.7402 2.2089 18.0061 
528 2 -3.52585 3.15315 18.9773 
529 1 1.09622 6.45435 16.6759 
530 2 1.0861 5.80402 15.9376 
531 2 0.195293 6.48567 16.9846 
532 1 2.32687 6.45208 12.3275 
533 2 3.12974 7.03604 12.3886 
534 2 2.1248 6.11667 13.2224 
535 1 -2.02975 1.18149 12.3506 
536 2 -2.50996 0.402881 12.0561 
537 2 -1.0399 1.02956 12.1909 
538 1 -2.83536 1.40641 16.6925 
539 2 -3.76963 1.06159 16.966 
540 2 -2.87932 1.82826 15.7926 
541 1 2.80868 2.76858 12.13 
542 2 3.0749 2.07484 12.743 
543 2 2.85196 2.43061 11.1663 
544 1 0.687786 2.68455 16.9493 
545 2 0.454263 2.29414 17.8232 
546 2 0.626178 2.00693 16.2377 
547 1 -3.53906 5.02974 16.8714 
548 2 -4.21456 4.40965 16.5117 
549 2 -3.86519 5.34936 17.7622 
550 1 -1.47946 5.34157 12.2201 
551 2 -0.930082 4.6287 12.5117 
552 2 -1.37014 6.03206 12.9426 
553 1 3.16298 3.33988 16.1399 
554 2 2.43828 2.9338 16.6173 
555 2 3.93729 3.64192 16.6403 
556 1 0.173131 3.18504 12.9912 
557 2 1.05685 3.00898 12.4925 
558 2 0.242247 2.50125 13.6693 
559 1 -3.92483 4.43374 13.0975 
560 2 -3.25965 4.73992 12.4647 
561 2 -3.44689 3.85085 13.6906 
562 1 -1.07287 4.56128 15.7513 
563 2 -0.482984 3.87401 16.1736 
564 2 -1.77973 4.73502 16.4136 
565 1 4.85447 7.52571 11.63 
566 2 4.45993 8.19822 11.0283 
567 2 5.01835 6.75671 11.0168 
568 1 -1.35609 7.10979 18.0151 
569 2 -1.22391 6.20698 18.3129 
570 2 -0.691027 7.65911 18.4251 
571 1 -5.32131 0.546856 17.6705 
572 2 -5.63077 1.32869 18.1197 
573 2 11.8268 0.12094 17.3105 
574 1 0.406267 0.600396 11.4253 
575 2 0.175173 22.3361 10.7924 
576 2 0.777109 1.33084 10.7779 
577 1 1.80507 4.91543 14.6675 
578 2 1.15734 4.32912 14.2408 
579 2 2.51659 4.35488 15.0618 
580 1 -2.53334 2.6084 14.4735 
581 2 -2.32351 2.06213 13.6535 
582 2 -1.85394 3.30014 14.6551 
583 1 3.60782 1.67266 9.87632 
584 2 3.19351 0.97848 9.33607 
585 2 3.76417 2.32591 9.12404 
586 1 -0.784061 6.06785 9.67059 
587 2 -1.56738 6.61323 9.45213 
588 2 -0.957755 5.73281 10.641 
589 1 12.2054 1.00843 14.3924 
590 2 11.2432 0.879933 14.508 
591 2 12.2643 1.85861 14.95 
592 1 9.52873 1.5201 14.6819 
593 2 8.96051 0.735773 14.574 
594 2 9.22004 2.24661 14.1121 
595 1 4.67899 6.39454 14.7805 
596 2 4.79689 5.80197 15.5502 
597 2 4.78932 5.82762 13.9798 
598 1 7.83847 6.58215 14.6929 
599 2 7.01843 7.16796 14.6071 
600 2 7.85383 6.12932 13.7928 
601 1 10.871 4.96131 19.1341 
602 2 9.90992 4.76775 19.1067 
603 2 11.0094 5.47439 18.2893 
604 1 10.8592 4.75617 9.70714 
605 2 10.9557 5.18936 10.5926 
606 2 10.1175 4.10316 9.79204 
607 1 6.63718 3.07646 10.104 
608 2 6.0949 3.81601 9.9458 
609 2 6.4049 2.61958 10.9668 
610 1 6.46878 2.80515 19.1447 
611 2 6.51451 2.4131 18.2252 
612 2 5.50067 2.87203 19.2683 
613 1 10.7409 6.30731 16.6356 
614 2 11.2999 7.03917 16.9032 
615 2 9.87284 6.69343 16.9129 
616 1 11.4833 6.38167 11.8886 
617 2 11.3887 6.00986 12.7612 
618 2 12.4255 6.58967 11.8249 
619 1 7.07107 1.26238 12.2422 
620 2 6.36339 0.659668 12.1588 
621 2 7.89068 0.860187 11.8365 
622 1 5.81299 1.31204 16.8176 
623 2 4.89335 1.15598 16.6907 
624 2 6.21698 1.47549 15.9347 
625 1 11.9776 2.46082 12.1156 
626 2 12.0738 1.74022 12.7242 
627 2 12.5858 3.2066 12.2957 
628 1 10.0301 3.04255 16.8373 
629 2 9.97045 2.50758 17.6711 
630 2 9.82858 2.46068 16.1045 
631 1 5.18975 4.95986 16.9899 
632 2 5.24662 5.25335 17.9007 
633 2 6.06267 4.56168 16.7838 
634 1 7.3837 5.3411 12.3009 
635 2 6.48455 4.94477 12.3498 
636 2 7.46937 5.64676 11.3466 
637 1 12.4017 3.49108 15.664 
638 2 12.0178 4.11481 15.0525 
639 2 11.5768 3.37626 16.3257 
640 1 9.37847 3.50178 12.8974 
641 2 8.7421 4.13218 12.5393 
642 2 9.85651 3.0576 12.2294 
643 1 4.99967 4.35226 13.257 
644 2 4.09818 4.13404 12.9975 
645 2 5.30646 3.54829 13.7032 
646 1 7.53213 4.29435 16.1015 
647 2 8.33691 4.0717 16.6716 
648 2 7.8272 5.12502 15.7606 
649 1 14.0611 7.04446 11.3106 
650 2 13.6562 7.70838 10.6502 
651 2 -3.17961 7.56921 11.6945 
652 1 8.27871 7.25705 17.7773 
653 2 7.53065 7.57421 17.1731 
654 2 7.90483 6.61131 18.4208 
655 1 3.12214 0.57602 17.9133 
656 2 2.49966 22.4272 17.4976 
657 2 3.74266 22.4508 18.4144 
658 1 9.38123 0.2923 11.2994 
659 2 10.2634 22.2649 11.6146 
660 2 8.93499 22.1377 10.6978 
661 1 11.0034 5.15593 14.1455 
662 2 10.4941 5.55035 14.8544 
663 2 10.4329 4.47756 13.7491 
664 1 6.4799 2.43845 14.4472 
665 2 6.99597 3.02142 15.0227 
666 2 6.90856 1.98395 13.6292 
667 1 12.755 1.37441 9.9076 
668 2 12.9891 1.91025 9.14081 
669 2 12.35 1.99023 10.5414 
670 1 7.91514 6.40334 9.58829 
671 2 8.40623 5.87211 8.93587 
672 2 8.51976 6.86429 10.1862 
673 1 2.97884 8.4749 14.5279 
674 2 3.63368 7.71473 14.4948 
675 2 3.20169 9.06285 15.2874 
676 1 0.276967 8.80149 14.0795 
677 2 1.23082 8.5627 14.1794 
678 2 -0.195788 8.07315 14.5271 
679 1 -4.08383 14.1553 14.4545 
680 2 -3.12558 14.4006 14.3941 
681 2 -4.17275 13.8414 15.3785 
682 1 -1.29412 13.9648 14.0986 
683 2 -0.622306 14.6313 14.3624 
684 2 -1.07022 13.164 14.6379 
685 1 1.71675 12.2167 18.7878 
686 2 2.39625 11.5494 19.0985 
687 2 8.52778 12.8768 0.416883 
688 1 2.2936 12.3168 10.3299 
689 2 1.62995 11.7896 9.788 
690 2 3.19648 12.0687 10.1022 
691 1 -2.37762 10.1167 10.0985 
692 2 -2.91644 10.9061 10.0517 
693 2 -1.47113 10.4394 9.82516 
694 1 -3.03345 10.247 19.1269 
695 2 -2.85003 9.67654 18.3608 
696 2 -2.34809 10.9615 19.1319 
697 1 1.55276 13.8748 16.5009 
698 2 1.41438 13.1929 17.2574 
699 2 2.23252 14.3889 16.9587 
700 1 2.54462 14.2639 11.9935 
701 2 2.64861 13.854 12.919 
702 2 2.4291 13.5072 11.3558 
703 1 -1.82594 8.6343 12.3464 
704 2 -2.17709 9.2334 11.6096 
705 2 -0.858259 8.66267 12.2224 
706 1 -3.19805 8.66752 16.7135 
707 2 -2.97305 9.13364 15.8559 
708 2 -2.57293 7.93075 16.8481 
709 1 3.05698 10.3884 12.1789 
710 2 3.08341 9.65575 12.8084 
711 2 2.11495 10.6789 12.1451 
712 1 1.1532 9.74375 16.952 
713 2 0.968631 9.08576 16.2845 
714 2 1.85838 10.359 16.6615 
715 1 -3.5442 12.4956 16.6842 
716 2 -3.58901 12.7841 17.5777 
717 2 -4.00481 11.63 16.5706 
718 1 -1.54106 12.5785 11.8535 
719 2 -2.32038 12.1006 12.266 
720 2 -1.34773 13.2448 12.5424 
721 1 3.30126 10.9304 16.0012 
722 2 3.18031 11.553 15.2831 
723 2 4.13901 11.1555 16.4576 
724 1 0.658202 11.2639 13.0919 
725 2 -0.0674364 11.5311 12.5253 
726 2 0.339193 10.6168 13.7427 
727 1 -3.81487 11.6214 13.2233 
728 2 -3.41224 10.901 13.7722 
729 2 -3.97459 12.4626 13.7085 
730 1 -1.01167 11.6343 15.9503 
731 2 -1.89036 11.9076 16.2841 
732 2 -0.408921 11.5198 16.6818 
733 1 5.03896 14.7776 11.4981 
734 2 4.1465 14.5822 11.8136 
735 2 5.64491 15.2352 12.0945 
736 1 -0.961757 14.6334 17.7884 
737 2 -0.602552 15.2952 18.4011 
738 2 -0.19363 14.5142 17.1834 
739 1 -5.43672 7.94254 17.717 
740 2 -5.15272 7.25152 18.3004 
741 2 -4.67758 8.12991 17.1658 
742 1 0.542157 8.09397 11.0545 
743 2 0.175417 7.45277 10.4193 
744 2 1.18782 7.57738 11.5167 
745 1 2.54058 12.827 14.3447 
746 2 2.30355 13.2759 15.2216 
747 2 1.73643 12.4227 13.9629 
748 1 -2.28133 9.87116 14.5039 
749 2 -1.59786 10.395 15.0284 
750 2 -1.99101 9.4844 13.6498 
751 1 3.52955 9.28144 9.72302 
752 2 3.24431 9.8154 10.5567 
753 2 3.66585 9.8405 8.95935 
754 1 -0.903989 13.6242 9.41676 
755 2 -1.45032 13.1075 10.0703 
756 2 -1.5353 14.2435 8.97124 
757 1 12.1787 8.51442 14.2247 
758 2 12.8162 7.76088 14.3081 
759 2 11.3195 8.23875 14.5692 
760 1 9.633 8.66719 14.6708 
761 2 9.41568 9.43309 14.1263 
762 2 8.89011 7.98358 14.6234 
763 1 4.93281 14.0062 14.76 
764 2 4.78222 13.7598 15.6829 
765 2 5.79771 14.3817 14.6438 
766 1 7.60825 14.0716 14.4102 
767 2 8.25206 14.8347 14.3965 
768 2 7.87459 13.4994 15.1399 
769 1 10.7497 12.3575 19.2289 
770 2 11.2451 11.5468 19.1021 
771 2 16.4764 12.1819 0.289681 
772 1 11.4622 12.6268 10.0874 
773 2 10.8058 11.982 9.80966 
774 2 11.2318 13.3191 9.34305 
775 1 6.8052 10.5566 9.97715 
776 2 7.77039 10.6846 9.7401 
777 2 6.35177 11.4543 10.0429 
778 1 12.6987 10.2845 0.467632 
779 2 6.20797 9.93284 18.5877 
780 2 12.7015 9.51637 1.06032 
781 1 10.3355 13.9055 16.7206 
782 2 10.5662 13.2116 15.9824 
783 2 10.4522 13.4639 17.5954 
784 1 11.4311 14.0476 12.4783 
785 2 11.352 13.4371 11.7229 
786 2 12.3629 14.3902 12.3997 
787 1 7.09688 8.68906 12.051 
788 2 6.18657 8.30932 11.8582 
789 2 7.0483 9.37373 11.3964 
790 1 5.75615 8.95371 17.1135 
791 2 4.8169 8.70224 17.3637 
792 2 5.86329 9.41634 16.2422 
793 1 12.2042 9.9321 12.0539 
794 2 12.83 10.6714 12.332 
795 2 12.3617 9.17286 12.6091 
796 1 10.2804 10.12 16.8992 
797 2 11.2482 10.24 16.7563 
798 2 10.0296 9.39078 16.3167 
799 1 5.53065 12.3791 16.9699 
800 2 5.41931 12.6941 17.8694 
801 2 6.48365 12.2497 16.7865 
802 1 7.5115 12.413 12.0886 
803 2 6.63768 11.9823 12.1431 
804 2 7.47669 13.0627 12.8588 
805 1 12.6541 10.5813 15.9097 
806 2 12.1332 11.3008 15.3416 
807 2 12.6232 9.7795 15.3725 
808 1 9.88352 10.8298 13.0106 
809 2 10.7143 10.6461 12.4476 
810 2 9.13728 11.0295 12.4299 
811 1 5.12048 11.5236 13.0444 
812 2 4.30413 11.1509 12.5706 
813 2 4.77435 12.2214 13.7362 
814 1 8.13027 11.6295 16.0522 
815 2 8.93383 11.0531 16.2531 
816 2 7.57558 11.0666 15.454 
817 1 13.8431 14.6831 11.4639 
818 2 13.5772 15.3039 10.7361 
819 2 13.8051 13.8374 10.9167 
820 1 7.81172 14.386 17.8569 
821 2 8.15945 15.2113 18.2272 
822 2 8.52591 14.0255 17.3555 
823 1 3.33769 7.88196 17.9351 
824 2 2.60826 7.48821 17.3397 
825 2 3.0113 8.71579 18.261 
826 1 9.45282 8.14634 10.8758 
827 2 10.1663 7.6409 11.2875 
828 2 8.69175 8.35986 11.4596 
829 1 11.2153 12.3736 14.6838 
830 2 11.5053 13.0183 14.0234 
831 2 10.6815 11.8245 14.1145 
832 1 6.48307 10.1812 14.7935 
833 2 6.90268 9.63888 14.0967 
834 2 5.88888 10.7784 14.2506 
835 1 12.7531 8.67246 9.87671 
836 2 12.92 9.15593 8.99407 
837 2 12.532 9.34129 10.5668 
838 1 8.21343 13.6348 9.64653 
839 2 7.95389 13.157 10.4439 
840 2 7.52975 14.3542 9.57603 
841 1 3.27752 16.1064 14.4352 
842 2 3.97565 15.4157 14.6266 
843 2 3.29637 16.239 13.4597 
844 1 0.572396 16.1006 14.6065 
845 2 1.52519 15.9848 14.5345 
846 2 0.361937 16.8891 14.1723 
847 1 -3.60626 21.6832 14.6523 
848 2 -4.30012 22.375 14.5424 
849 2 -3.68454 20.9599 13.9617 
850 1 -0.977546 21.5603 14.5019 
851 2 -1.85692 21.9324 14.6943 
852 2 -0.85094 20.7439 15.0519 
853 1 8.16367 19.5419 0.281797 
854 2 8.82679 18.7977 0.270449 
855 2 8.54834 20.1976 0.943835 
856 1 2.03418 19.9484 10.0613 
857 2 2.13827 20.6858 9.46382 
858 2 1.94219 20.3642 10.9452 
859 1 -2.48373 17.9564 9.68677 
860 2 -1.4497 18.1217 9.67282 
861 2 -2.69967 17.6195 10.5703 
862 1 4.00279 17.5347 0.602361 
863 2 4.66654 18.2201 0.649673 
864 2 -2.65844 17.1674 18.792 
865 1 1.393 21.0374 17.108 
866 2 1.56912 20.4401 17.8463 
867 2 1.49337 20.551 16.2024 
868 1 2.29816 21.3525 12.5192 
869 2 3.13882 21.8263 12.1919 
870 2 1.51908 21.937 12.2812 
871 1 -2.09126 16.4008 12.1543 
872 2 -1.18694 16.0903 11.8658 
873 2 -2.68101 15.6468 12.0125 
874 1 -3.04757 16.5622 16.9957 
875 2 -2.40193 15.8345 16.9524 
876 2 -3.92645 16.1382 17.0497 
877 1 2.83853 17.5209 12.3051 
878 2 1.94335 17.9881 12.3062 
879 2 2.94216 17.1553 11.3879 
880 1 1.26445 17.6816 17.075 
881 2 0.818414 17.4615 17.9111 
882 2 1.1225 16.8922 16.4827 
883 1 -3.32202 20.1104 16.895 
884 2 -3.58259 20.802 16.2659 
885 2 -2.37406 19.9293 16.8706 
886 1 -1.27328 20.2921 12.1101 
887 2 -2.22118 20.0019 12.2023 
888 2 -1.16214 20.8617 12.8656 
889 1 3.66025 18.1168 16.0527 
890 2 2.77624 17.9332 16.6035 
891 2 3.65607 17.4094 15.3474 
892 1 0.243771 18.413 13.0572 
893 2 0.74501 18.9513 13.6787 
894 2 -0.274974 19.0239 12.5716 
895 1 -3.74375 19.4995 12.8587 
896 2 13.2616 19.1276 12.5807 
897 2 -3.41805 18.7836 13.5307 
898 1 -0.636509 19.2405 15.8701 
899 2 -1.14704 18.536 15.371 
900 2 0.150215 18.7568 16.2717 
901 1 4.67688 22.2185 11.6138 
902 2 4.81823 21.3896 11.1557 
903 2 4.40748 0.453349 10.9977 
904 1 -1.02422 22.1056 17.7045 
905 2 -0.346397 21.8051 17.0881 
906 2 -1.67298 0.283191 17.1743 
907 1 -5.22654 15.2453 17.7782 
908 2 11.9247 14.7221 17.3739 
909 2 -4.86082 14.5703 18.3639 
910 1 0.384399 15.4531 10.8785 
911 2 0.0726438 14.6712 10.3804 
912 2 1.05547 15.1643 11.5179 
913 1 2.06024 19.9937 14.6311 
914 2 2.78239 19.38 14.8419 
915 2 2.29544 20.5193 13.8266 
916 1 -2.31998 17.6195 14.4178 
917 2 -2.68321 17.1683 15.2235 
918 2 -2.15494 16.9944 13.6423 
919 1 3.84588 16.7044 10.168 
920 2 4.41689 15.9587 10.4651 
921 2 4.01272 16.8817 9.19747 
922 1 -0.596551 21.2514 9.7089 
923 2 -1.2139 21.9185 9.21062 
924 2 -1.09086 20.9939 10.5254 
925 1 12.4738 16.4043 13.9519 
926 2 12.6511 17.1222 14.5826 
927 2 12.886 15.5801 14.1523 
928 1 9.59707 15.8344 14.3942 
929 2 10.5435 15.7939 14.1968 
930 2 9.63372 16.1435 15.3326 
931 1 4.93039 21.6413 14.5884 
932 2 5.96126 21.8108 14.568 
933 2 4.75361 20.9726 13.8849 
934 1 7.71299 21.6169 14.7797 
935 2 7.6274 21.0116 15.5154 
936 2 7.77358 21.0147 14.0179 
937 1 10.4984 19.7686 18.8558 
938 2 17.3844 20.427 0.503236 
939 2 11.2771 19.1251 18.8147 
940 1 11.1553 19.7923 9.90882 
941 2 11.1502 20.6035 9.37767 
942 2 11.0938 20.0847 10.8175 
943 1 6.6628 17.9616 10.0083 
944 2 6.54298 17.0794 9.62202 
945 2 7.57514 18.2586 9.8265 
946 1 6.35886 17.1866 19.242 
947 2 6.31071 16.7799 18.347 
948 2 6.81984 18.0068 19.0838 
949 1 10.544 21.4587 16.8627 
950 2 9.60635 21.7944 16.8322 
951 2 10.5987 20.7069 17.5605 
952 1 11.477 21.1044 12.0504 
953 2 11.3898 20.7412 12.9613 
954 2 12.4102 21.5277 11.9694 
955 1 7.07108 16.4356 12.3812 
956 2 7.97852 16.1945 12.0842 
957 2 6.8415 17.0345 11.6792 
958 1 6.03359 16.0182 16.991 
959 2 6.71705 15.3048 16.928 
960 2 6.13341 16.6034 16.1726 