LAMMPS data file via write_data, version 15 Apr 2020, timestep = 1157000

1920 atoms
2 atom types

7.5609204971662791e-02 2.4648795795031493e+01 xlo xhi
-6.6030430384532934e-02 2.4790435430370302e+01 ylo yhi
-4.3049266989283907e-02 2.2835421266994778e+01 zlo zhi
-1.3189145533871843e-01 -9.0390127169299936e-02 1.2303885245950810e-01 xy xz yz

Masses

1 16
2 2

Atoms # atomic

1 1 4.7176491885768543e+00 1.8426068180019133e+00 4.1491507321477572e+00 0 0 0
2 2 5.3818700724272386e+00 1.8711200652364748e+00 3.4697553700194610e+00 0 0 0
3 2 4.9193785855552505e+00 1.1910895895237608e+00 4.8682840169688824e+00 0 0 0
4 1 2.8251465840420567e+00 1.4207768955386961e+00 2.0887333849987164e+00 0 0 0
654 2 7.8987536333683899e+00 1.1729262105203714e+01 6.5592370525315635e+00 0 0 0
6 2 3.4965738823961146e+00 1.5176700617860852e+00 2.7924280954595808e+00 0 0 0
7 1 6.2529901634126421e+00 4.7077979577168767e+00 3.4009954983333150e+00 0 0 0
8 2 5.3464697232495180e+00 4.5321531177594681e+00 3.2312130803784922e+00 0 0 0
9 2 6.6338925600624767e+00 3.9167501691277593e+00 3.8899535569500880e+00 0 0 0
10 1 3.2786336753229746e+00 4.7787786225758335e+00 3.2658283311437857e+00 0 0 0
11 2 3.1066951761068493e+00 3.9661282756792779e+00 3.7746550390557210e+00 0 0 0
12 2 2.7772448669046819e+00 5.3820316509904940e+00 3.8589095589203306e+00 0 0 0
13 1 1.4953302579566330e+00 3.2456329094843710e+00 4.9119783576633917e+00 0 0 0
14 2 1.5579090256460526e+00 2.2941069326217494e+00 4.9574545026704122e+00 0 0 0
15 2 1.4916513372204854e+00 3.7032039673306105e+00 5.7793970712846932e+00 0 0 0
1739 2 7.1180984759779840e+00 1.2032136968354385e+01 2.1683867679091833e+01 0 0 0
1738 1 7.8007506512476228e+00 1.2446045304274723e+01 2.2231906474333186e+01 0 0 0
19 1 4.7590133490934710e+00 3.0701547383603063e+00 7.9647441289998300e-01 0 0 0
20 2 3.9176209596855869e+00 2.7259779090808847e+00 1.1005040591140851e+00 0 0 0
21 2 4.7921222025288337e+00 4.0389173547535933e+00 8.9989939729402191e-01 0 0 0
22 1 1.6323828665681996e+00 4.8584741823262636e+00 1.0699308063076709e+00 0 0 0
23 2 2.3730425749314925e+00 4.7412723469132034e+00 1.6799015404447153e+00 0 0 0
24 2 1.5564446244540098e+00 4.0288088108769600e+00 5.7921666626708346e-01 0 0 0
25 1 4.7429530127749269e+00 5.8183679017098999e+00 1.0297435370536980e+00 0 0 0
26 2 4.0609174887644901e+00 6.2651738981358278e+00 1.5379473250449252e+00 0 0 0
27 2 4.5985050262160501e+00 6.1698455278324849e+00 1.3950024416915671e-01 0 0 1
1856 2 1.0013521098891053e+01 2.8158946248024253e-01 1.8354166964585865e+01 0 0 0
31 1 1.0865912531868892e+01 1.4599466906859868e+00 4.5056173987522889e+00 0 0 0
32 2 1.0933947831067497e+01 2.2485314548822810e+00 5.1173595477056253e+00 0 0 0
517 1 1.2056979701315926e+01 4.9319275220122174e+00 9.2770934914527388e+00 0 0 0
34 1 9.1331099491133525e+00 1.4430256812788842e+00 2.1002206717732546e+00 0 0 0
750 2 2.0788997716719684e+00 1.1979860362029321e+01 1.0102107865085717e+01 0 0 0
36 2 9.4674684840431702e+00 2.0059946988993471e+00 1.3618431235855197e+00 0 0 0
1018 1 7.6734608692888813e+00 5.7006368131371915e-02 1.6493979594662008e+01 0 0 0
39 2 1.1209528919122992e+01 4.5332227664832345e+00 3.5394009149392716e+00 0 0 0
40 1 9.5561735528803275e+00 4.4928077544235512e+00 3.2998728277512015e+00 0 0 0
41 2 9.0509950241800947e+00 4.6090944189521501e+00 2.4795569422704857e+00 0 0 0
42 2 8.9769690293208821e+00 3.8144464021086595e+00 3.7461562807180555e+00 0 0 0
43 1 7.6444275215032382e+00 3.0432308186309611e+00 4.9558761610702762e+00 0 0 0
44 2 7.9475005293886909e+00 3.4936202577419269e+00 5.7429353524627107e+00 0 0 0
45 2 7.7527631078479455e+00 2.0706752809997515e+00 5.0375810819800177e+00 0 0 0
46 1 6.4599564751638852e+00 1.5132775723064187e+00 2.1150031264350031e+00 0 0 0
47 2 7.4223379808078285e+00 1.3721732620971552e+00 2.0808445534780557e+00 0 0 0
48 2 6.1712767499148482e+00 2.2246110675790276e+00 1.4976070181332375e+00 0 0 0
49 1 1.0923818782322558e+01 3.1312308909401128e+00 5.4529983554521655e-01 0 0 0
50 2 1.1464810069603219e+01 2.6999799044535560e+00 1.2516679101650325e+00 0 0 0
51 2 1.0920423614828143e+01 2.7706311053004167e+00 2.2593238934786413e+01 0 0 0
52 1 7.8738138065181795e+00 4.9104030073777452e+00 1.1332107837100680e+00 0 0 0
53 2 7.8414959815090768e+00 4.1049292573568001e+00 5.7336530163419686e-01 0 0 0
54 2 7.2145640619759313e+00 4.8802134268671367e+00 1.8694110727606026e+00 0 0 0
55 1 1.1050683573301669e+01 5.7569351704401655e+00 6.1898062923975306e-01 0 0 0
56 2 1.0163307193062753e+01 5.9867574287928358e+00 9.0931441262969059e-01 0 0 0
57 2 1.1069016813060912e+01 4.8081315024295019e+00 3.7862360985631660e-01 0 0 0
1230 2 2.4592202062843485e+00 1.2420403975773480e+01 1.6258881036727779e+01 0 0 0
1740 2 7.9089288178381461e+00 1.1882452157610150e+01 2.6129891799244642e-01 0 0 0
1608 2 7.3698268537712659e+00 7.7749623809165698e+00 1.9602807222502911e+01 0 0 0
531 2 1.0848783185574073e+01 4.2677414885840861e+00 6.2232320205806015e+00 0 0 0
121 1 4.7136687708745555e+00 7.7610554795487969e+00 4.1558742098864014e+00 0 0 0
122 2 5.4044898219348170e+00 7.8489657577218122e+00 3.4818054389458024e+00 0 0 0
123 2 3.8993680352815785e+00 7.7339794768456613e+00 3.5711640181325350e+00 0 0 0
124 1 3.2033378626231541e+00 7.7564769790614969e+00 2.0098234077015853e+00 0 0 0
125 2 3.4079810617188344e+00 8.4345093056127780e+00 1.3607882828159201e+00 0 0 0
126 2 2.2441487006107703e+00 7.7513393276787133e+00 2.2286458692067290e+00 0 0 0
127 1 5.9336845491515486e+00 1.0914087299291563e+01 3.7331953640224409e+00 0 0 0
128 2 6.3283414952001795e+00 1.0134604761611469e+01 4.2632582031508655e+00 0 0 0
16 1 9.8905939695805661e-02 1.4961834082324406e+00 2.2680054826891038e+00 0 0 0
130 1 3.2888187058188376e+00 1.1310117077819644e+01 3.6379236861419759e+00 0 0 0
131 2 3.1210830956956093e+00 1.0621990564795329e+01 4.2805354157118263e+00 0 0 0
132 2 2.8934671244753063e+00 1.1035474362558393e+01 2.7898927664407163e+00 0 0 0
133 1 1.7908510558626598e+00 9.3550328404460004e+00 5.0287209221194544e+00 0 0 0
134 2 1.5765627322206071e+00 9.5886917490252213e+00 5.9909717157540081e+00 0 0 0
135 2 1.1859786102821153e+00 9.9538281978810641e+00 4.5178615828347661e+00 0 0 0
1827 2 4.0912864677563823e+00 4.0882802212441777e-01 1.8295528346816660e+01 0 0 0
139 1 4.7276323154161872e+00 9.4754210203748581e+00 4.6223014424182163e-01 0 0 0
140 2 4.8963071555614910e+00 1.0454864987471668e+01 4.6406057994126404e-01 0 0 0
141 2 5.3727847023226021e+00 9.0234585940773844e+00 1.0555189063044934e+00 0 0 0
142 1 1.5815464300730540e+00 1.0944376390259878e+01 1.5241368997723288e+00 0 0 0
143 2 1.3468016792047268e+00 1.0126913868407415e+01 1.0541541394762233e+00 0 0 0
144 2 1.6215975719192941e+00 1.1593452388968599e+01 7.9244500844485311e-01 0 0 0
1468 1 1.6715465816503434e+00 1.0146060884562319e-01 2.2284645067356109e+01 0 0 0
148 1 1.6376643644974500e+00 6.4502699218140611e+00 4.9902588758416497e+00 0 0 0
28 1 1.4934434393021523e+00 4.4824064694675692e-01 4.7457264178102569e+00 0 0 0
150 2 1.7645499612440489e+00 7.4263379014156898e+00 5.0086740372216925e+00 0 0 0
151 1 1.0909562964676800e+01 7.5785541519738580e+00 4.0833414429116717e+00 0 0 0
129 2 4.9834244840513637e+00 1.0948813819776008e+01 3.7297145283349606e+00 0 0 0
153 2 1.0805097268826174e+01 8.4242582995409290e+00 4.5134465605677683e+00 0 0 0
154 1 9.0204159167617561e+00 7.6689440452756488e+00 1.6073152914194471e+00 0 0 0
155 2 9.6384519769954853e+00 8.3710199019175811e+00 1.1725270912409984e+00 0 0 0
156 2 9.4002129392600011e+00 7.6702191646241547e+00 2.5121387882971908e+00 0 0 0
58 1 7.7967480645795240e+00 3.4071154560436212e-01 4.8788099951936710e+00 0 0 0
158 2 1.1275047707485438e+01 1.0814694946349977e+01 3.5252970916233348e+00 0 0 0
160 1 9.5244450208491873e+00 1.1131968916249669e+01 3.5566506676310956e+00 0 0 0
161 2 9.0765076565013345e+00 1.1064626990431655e+01 2.6739705487855931e+00 0 0 0
145 1 4.5451587607216313e+00 1.2334582838428306e+01 8.6740575231643180e-01 0 0 0
163 1 7.6574216742203518e+00 9.1377030073657988e+00 5.1709931534179248e+00 0 0 0
164 2 8.0051421351747187e+00 8.2591292565801613e+00 5.3226421728809097e+00 0 0 0
165 2 8.3202045458638167e+00 9.6877122429272262e+00 4.6502860205052450e+00 0 0 0
166 1 6.2751399103513803e+00 7.8103495271015344e+00 1.9351067380440468e+00 0 0 0
167 2 5.8504765280081212e+00 6.9390946637888753e+00 1.6088049888529887e+00 0 0 0
168 2 7.2293573625259659e+00 7.7034063506663175e+00 1.6905773778768087e+00 0 0 0
169 1 1.0934717256818855e+01 9.4877961784004565e+00 8.7673174414659238e-01 0 0 0
170 2 1.0860511966816530e+01 1.0470277797173219e+01 9.5458892101675707e-01 0 0 0
171 2 1.1054130479407315e+01 9.3722365514428034e+00 2.2811554077888488e+01 0 0 0
172 1 7.8525872268052179e+00 1.0390622261474565e+01 1.3336981146638838e+00 0 0 0
579 2 2.9583606718389710e-01 4.7964565329895033e+00 8.2264055351084728e+00 0 0 0
174 2 7.6962724842958101e+00 9.7243800933596862e+00 6.3779223516643446e-01 0 0 0
779 2 8.5086571654774499e+00 1.2247841725803612e+01 1.0495817838056801e+01 0 0 0
178 1 8.0005296114989601e+00 6.3377763289684292e+00 5.0642369616435072e+00 0 0 0
179 2 7.1387060036966723e+00 6.2393692861078121e+00 4.5488401893918713e+00 0 0 0
180 2 8.6349021727698432e+00 5.9167475942479735e+00 4.4614589185726405e+00 0 0 0
218 2 2.5533010554886548e-01 1.1104812273073179e+01 2.8105084385481600e+00 0 0 0
1539 2 4.7658775655959545e-01 4.2773680309472208e+00 2.1259804545891811e+01 0 0 0
136 1 2.7184800599973724e-01 7.8965069899716109e+00 2.2269364265706315e+00 0 0 0
1589 2 9.1498982404280260e-01 6.3582255504646801e+00 2.1431930379525298e+01 0 0 0
1619 2 7.7142653825002698e+00 6.1456579053035876e+00 2.2570728124204280e+01 0 0 0
495 2 8.8344563322440428e-01 3.2692682529152277e+00 1.0027268376771175e+01 0 0 0
1618 1 7.7301914147743807e+00 6.5181832892994720e+00 2.1722777737192715e+01 0 0 0
625 1 4.5974141632869463e+00 1.2214281568277421e+01 6.4862155806620336e+00 0 0 0
219 2 3.4117207223811929e-01 1.1738964925017608e+01 4.1800868978802939e+00 0 0 0
481 1 4.4128807673332533e+00 1.6103649597680263e+00 9.9608010417884696e+00 0 0 0
482 2 4.5733007258477940e+00 9.0626652354634096e-01 1.0615451038479755e+01 0 0 0
483 2 5.1871813453513669e+00 1.7671232061324456e+00 9.4120989931868557e+00 0 0 0
484 1 2.8554595420957214e+00 1.8822575132283919e+00 7.5522723832703287e+00 0 0 0
485 2 3.1399798829753238e+00 1.6373720548693895e+00 8.4519470766877483e+00 0 0 0
486 2 1.9139235659595788e+00 1.7292891246912945e+00 7.6461404626346043e+00 0 0 0
487 1 6.2491370848169172e+00 4.6350494795204886e+00 9.3183749293448095e+00 0 0 0
488 2 5.2893392900378826e+00 4.4240051541056298e+00 9.1874893310567636e+00 0 0 0
489 2 6.5881388117677089e+00 3.8653875332829730e+00 9.7851067266408283e+00 0 0 0
490 1 3.5122776239035738e+00 4.6786628684886553e+00 9.1384993067842899e+00 0 0 0
491 2 3.2675520725376832e+00 3.7903021509993060e+00 9.5306483429558231e+00 0 0 0
492 2 2.9428069613663137e+00 5.3088225913759954e+00 9.6365970679235513e+00 0 0 0
493 1 1.6455525923071432e+00 2.8392828237902399e+00 1.0531098364630598e+01 0 0 0
494 2 1.5264610636752081e+00 3.2662573051513966e+00 1.1425086544901234e+01 0 0 0
1605 2 6.9079038908239152e+00 9.6227172912270156e+00 2.1392151873344709e+01 0 0 0
1613 2 7.7404609349711073e+00 1.1681256716257945e+01 1.7944837771670592e+01 0 0 0
499 1 4.4669186850923879e+00 3.5754855465982258e+00 6.5291410401282475e+00 0 0 0
500 2 3.6666896713858570e+00 3.1682577930456906e+00 7.0014702879778685e+00 0 0 0
501 2 4.4307287639819730e+00 3.1322332055006381e+00 5.6723915477058338e+00 0 0 0
502 1 1.5867278032493126e+00 4.7951846033612311e+00 7.1480890623899347e+00 0 0 0
503 2 2.2553688657686131e+00 4.7669502520680211e+00 7.8798001161967743e+00 0 0 0
504 2 1.7552524063036314e+00 5.5409488208353261e+00 6.5423846664951784e+00 0 0 0
505 1 4.4515383785500138e+00 6.0463944439131598e+00 6.5650907677174430e+00 0 0 0
506 2 4.5002106465480907e+00 5.0496633155025679e+00 6.4621848112114124e+00 0 0 0
507 2 4.7753001272492224e+00 6.3271910890414800e+00 5.6769992565099123e+00 0 0 0
5 2 3.0229712321816082e+00 5.6023448311422008e-01 1.7351457655881395e+00 0 0 0
509 2 1.2230900698125740e+00 1.1666931928579374e+00 1.0753022809413775e+01 0 0 0
511 1 1.0698934137059856e+01 1.5780771189800815e+00 9.9486895335915460e+00 0 0 0
512 2 1.0506581498847451e+01 8.5694569767045126e-01 1.0550582028797090e+01 0 0 0
513 2 1.0003476199758870e+01 1.4754926474391443e+00 9.3025637386342659e+00 0 0 0
514 1 8.9652420446032224e+00 1.6739121372245191e+00 7.8355233339043906e+00 0 0 0
515 2 8.0062041979093799e+00 1.5579497497360160e+00 7.6790260515759217e+00 0 0 0
1571 2 3.0126035994748595e+00 1.1757309386845021e+01 2.1078729455768745e+01 0 0 0
1585 1 4.5919598177941410e+00 1.2248804921263519e+01 1.7919036578405560e+01 0 0 0
520 1 9.3928970277320687e+00 4.7661481055209931e+00 9.3907380818358490e+00 0 0 0
521 2 1.0352883940382576e+01 4.8580865586546755e+00 9.2238431529192049e+00 0 0 0
522 2 9.0549499817064572e+00 4.7452972366849400e+00 8.5089924375166817e+00 0 0 0
523 1 7.9032692563368947e+00 2.9343554344423177e+00 1.0595590131593639e+01 0 0 0
524 2 7.9591636963443335e+00 1.9594675314938779e+00 1.0486247376719851e+01 0 0 0
525 2 8.6288702674045119e+00 3.4057518423558859e+00 1.0087475144427636e+01 0 0 0
526 1 6.1618969138548350e+00 1.6837836623228903e+00 7.6483414194632902e+00 0 0 0
527 2 5.6285782542240197e+00 1.0068830923202292e+00 7.2361043018343763e+00 0 0 0
1576 1 8.7143117778571699e-03 8.0561003946641048e+00 1.9188879168426141e+01 0 0 0
529 1 1.0917054193202329e+01 3.2938120515478859e+00 6.4005846584632016e+00 0 0 0
530 2 1.0146439460730440e+01 3.0250339350423938e+00 6.8940186997996111e+00 0 0 0
416 2 1.0699306283922427e+01 8.4390181491432265e-02 2.2762457392344167e+01 0 0 0
532 1 7.8261913665113871e+00 4.4679971248671722e+00 7.0173447496534411e+00 0 0 0
533 2 7.9191041671817484e+00 5.2910155886714128e+00 6.4799983150291300e+00 0 0 0
534 2 7.0928680477192758e+00 4.5214459950020309e+00 7.6723075085146339e+00 0 0 0
535 1 1.0728903993387366e+01 6.0366620850799340e+00 6.3128183041509693e+00 0 0 0
536 2 1.0000935605531611e+01 6.4549930960004209e+00 6.8161202149127194e+00 0 0 0
1464 2 7.4828920227109608e-01 4.9619000278747416e+00 1.8913204090707040e+01 0 0 0
1607 2 6.0853393998851564e+00 7.5251331124255261e+00 2.0369074151710606e+01 0 0 0
614 2 6.8110697777522167e-01 9.4176735054491800e+00 1.0154333988635836e+01 0 0 0
1472 2 1.1541805882628955e+01 1.2927459984081167e+00 2.0829930521938991e+01 0 0 0
616 1 3.9214488601892844e-01 7.9610170899578101e+00 7.6122017521591774e+00 0 0 0
1612 1 7.7302759964084533e+00 1.0894639528050469e+01 1.8521599054071856e+01 0 0 0
601 1 4.6842339381667015e+00 8.0087848413332665e+00 1.0159676253338258e+01 0 0 0
602 2 5.5269854111769172e+00 8.1418667132864009e+00 9.7475563832239907e+00 0 0 0
603 2 4.5731443553596201e+00 8.7515883464459936e+00 1.0830265877270607e+01 0 0 0
604 1 3.0728245755541339e+00 7.9212876515116664e+00 7.9571350074415239e+00 0 0 0
605 2 3.5128808814779227e+00 8.1004206668972394e+00 8.8365784561735179e+00 0 0 0
606 2 3.4186144844587649e+00 7.0567253529823342e+00 7.6521747085319767e+00 0 0 0
607 1 5.8122404101901939e+00 1.1185177333497784e+01 9.1081723222247053e+00 0 0 0
608 2 6.3820472275684006e+00 1.1178126543179854e+01 8.3335173806598224e+00 0 0 0
609 2 6.2981645327799844e+00 1.0535502035845095e+01 9.6803505309172593e+00 0 0 0
610 1 3.0437468941863668e+00 1.0931485072935375e+01 9.3559607684947839e+00 0 0 0
611 2 2.5749173460700687e+00 1.0911101560440098e+01 8.4884002295462206e+00 0 0 0
612 2 4.0205561589493195e+00 1.1053927454870859e+01 9.1602457334616645e+00 0 0 0
613 1 1.3351551076968198e+00 9.1285362742921894e+00 1.0755564135844539e+01 0 0 0
1260 2 6.6841846866492380e+00 1.2305786683824541e+01 1.6191565416967713e+01 0 0 0
615 2 2.1390950549584371e+00 9.5022229908769305e+00 1.0387283432227727e+01 0 0 0
1092 2 2.8025002266696402e+00 1.0887728310542077e+01 1.4387222987580728e+01 0 0 0
618 2 1.3925294391297312e+00 7.9230595956795744e+00 7.6539996016428891e+00 0 0 0
619 1 4.5913278484922468e+00 9.4793934688528729e+00 6.4183460757779658e+00 0 0 0
620 2 4.4135664217436439e+00 9.0939218850636045e+00 5.5409990219007792e+00 0 0 0
621 2 3.9326958493992650e+00 8.9562765302266580e+00 6.9615759401994088e+00 0 0 0
622 1 1.4239834016246353e+00 1.0970965607171067e+01 7.0994200512070726e+00 0 0 0
623 2 6.1782693540531686e-01 1.0984322682412426e+01 7.6391720607525118e+00 0 0 0
624 2 1.4315404671265859e+00 1.1749036707583265e+01 6.4857361535409019e+00 0 0 0
637 1 1.2006413644525098e+01 1.0942435618677814e+01 9.3792241922734245e+00 0 0 0
626 2 4.5444848626707985e+00 1.1250851329964984e+01 6.3831537901521394e+00 0 0 0
628 1 1.4446885926601540e+00 6.2217322786156783e+00 1.0549832283059580e+01 0 0 0
629 2 1.6509142143991729e+00 5.9951676697985326e+00 1.1490347699892940e+01 0 0 0
630 2 1.3041147235310844e+00 7.1975005990171201e+00 1.0579986496791026e+01 0 0 0
631 1 1.0721883400587123e+01 7.7921631861984295e+00 1.0046259116139087e+01 0 0 0
632 2 1.0939945044037660e+01 7.1166820049745452e+00 1.0725893055913080e+01 0 0 0
633 2 1.1391842358032086e+01 7.8311162610766081e+00 9.3075331448307441e+00 0 0 0
634 1 9.1343610711551690e+00 7.8717665888444035e+00 7.8729578537911209e+00 0 0 0
635 2 9.5378079227094119e+00 7.8591003736436456e+00 8.7795552361179539e+00 0 0 0
636 2 8.2057658209805062e+00 8.1525484547566975e+00 7.8859985114913176e+00 0 0 0
1442 2 4.7049967662912291e+00 6.7053750360316222e-01 2.1878224730490224e+01 0 0 0
639 2 1.0976175426657910e+01 1.1037325926270917e+01 9.4773525152970848e+00 0 0 0
640 1 9.2156176878376233e+00 1.1089261788416424e+01 9.4867601571660884e+00 0 0 0
641 2 8.7569031862825835e+00 1.1255421746856278e+01 8.6204572322763156e+00 0 0 0
642 2 8.8740835108229170e+00 1.0237512171711339e+01 9.7207441084877342e+00 0 0 0
643 1 7.3366864920554793e+00 9.1930626668628275e+00 1.0612342505669403e+01 0 0 0
644 2 7.5851883476673088e+00 8.2740631290405346e+00 1.0588297260411156e+01 0 0 0
645 2 7.3914082177542824e+00 9.4132618494063038e+00 1.1575936730305571e+01 0 0 0
646 1 6.4056116537439811e+00 7.8496455713012612e+00 7.8870920321246984e+00 0 0 0
647 2 6.0291056960275444e+00 6.9638670235951743e+00 7.7882800162059924e+00 0 0 0
648 2 5.8506323449512694e+00 8.3626101696524522e+00 7.2981470426292647e+00 0 0 0
649 1 1.0554196430514269e+01 9.3796889284473615e+00 6.2643390850814891e+00 0 0 0
650 2 1.0543018964146951e+01 1.0336115727969176e+01 6.3726894217103363e+00 0 0 0
651 2 9.8455838390010904e+00 8.9899611131473431e+00 6.8457232232868126e+00 0 0 0
652 1 7.9588322833079799e+00 1.1024593438461357e+01 7.2206873902156872e+00 0 0 0
653 2 7.6514412223288168e+00 1.0248739466867217e+01 6.6645915328357104e+00 0 0 0
175 1 1.0602687613254915e+01 1.2091360228947313e+01 6.9867732938262150e-01 0 0 0
1089 2 5.1047060605130996e+00 1.0558105693995858e+01 1.5476003174517238e+01 0 0 0
658 1 7.8022577771148285e+00 6.4581931323390380e+00 1.0942161233309843e+01 0 0 0
659 2 6.9840696480707090e+00 5.9506697342419503e+00 1.0735748023864847e+01 0 0 0
660 2 8.4805372064683926e+00 6.1607865842753107e+00 1.0366880413976370e+01 0 0 0
1610 2 1.0835104726233675e+01 8.9498096411955803e+00 1.6850879916947811e+01 0 0 0
1604 2 8.4584209321161872e+00 9.6379937042547397e+00 2.1624846444171581e+01 0 0 0
617 2 1.4730630586030585e-01 7.5672932701062816e+00 8.4733889910895890e+00 1 0 0
749 2 1.2841451176860654e+00 1.1982721237320561e+01 1.1437101861703745e+01 0 0 0
1614 2 8.5784331227142037e+00 1.0899954508581478e+01 1.9089928058479892e+01 0 0 0
1611 2 1.1717189976500766e+01 8.9631770745005710e+00 1.8194910408853396e+01 0 0 0
300 2 7.1307965425668804e+00 1.2259477127109346e+01 4.5194946126610844e+00 0 0 0
1616 2 1.1034679335604565e+01 1.1330195730652497e+01 1.7484850639600857e+01 0 0 0
1133 2 7.6074544440369838e+00 1.1310926756841436e+01 1.2509673754895326e+01 0 0 0
496 1 2.8769616933974906e-01 1.4721115135650438e+00 7.9266126887574355e+00 0 0 0
961 1 4.6967936552652345e+00 1.4871132353707408e+00 1.5740085292514395e+01 0 0 0
962 2 4.7211034033093862e+00 2.2749013087420886e+00 1.6304223012026448e+01 0 0 0
386 2 5.4931480395509489e+00 7.8629951648421958e-02 8.0263188943771313e-01 0 0 0
964 1 2.6764385684426286e+00 1.5742921031889030e+00 1.3630869682743620e+01 0 0 0
965 2 3.3197492508006969e+00 1.4311951754981429e+00 1.4370758382834548e+01 0 0 0
966 2 2.9943257682230757e+00 2.3984334414518860e+00 1.3116638913424962e+01 0 0 0
967 1 6.0762778052876918e+00 4.4463242181758789e+00 1.5179039169140054e+01 0 0 0
968 2 6.5638338105984664e+00 5.2096433540216784e+00 1.5543920478237329e+01 0 0 0
969 2 6.5256979453100081e+00 4.3238439255181689e+00 1.4280424205515017e+01 0 0 0
970 1 3.2253369131358385e+00 4.5349276740637325e+00 1.4878411592574853e+01 0 0 0
971 2 4.2081145753002911e+00 4.4420557320625775e+00 1.5072672703269653e+01 0 0 0
972 2 2.8779603825637885e+00 5.3987641925700682e+00 1.5297514432634385e+01 0 0 0
973 1 1.3314391835799761e+00 3.0663494986322859e+00 1.6383564331165609e+01 0 0 0
974 2 2.1774926909185996e+00 3.3640100015751200e+00 1.5979096988651035e+01 0 0 0
975 2 1.3827458876267555e+00 3.4775132711276031e+00 1.7301538089334791e+01 0 0 0
98 2 3.3017471444725016e-01 4.7750067046354667e+00 2.4805280169093340e+00 0 0 0
977 2 9.5015572511731972e-01 1.6393593328080107e+00 1.3729779756401479e+01 0 0 0
979 1 4.4713846938612472e+00 3.2032475765162944e+00 1.2224566668555404e+01 0 0 0
980 2 4.4697190364345829e+00 2.6444671227879351e+00 1.1411622569643272e+01 0 0 0
981 2 5.1083321924368104e+00 2.6795288124408123e+00 1.2751278931570470e+01 0 0 0
982 1 1.4727995326529126e+00 4.8592809068146003e+00 1.2733600101518590e+01 0 0 0
983 2 2.2888272005820305e+00 4.6949723756548218e+00 1.3188483452963874e+01 0 0 0
984 2 7.9122044098601985e-01 4.9748030879980929e+00 1.3440424305562599e+01 0 0 0
985 1 4.5443707782643692e+00 6.0636970570692190e+00 1.2217901017803454e+01 0 0 0
986 2 4.6796624955199233e+00 6.4761044671639478e+00 1.1344626520481697e+01 0 0 0
987 2 4.5425118400957256e+00 5.1426442533249457e+00 1.2112411599766197e+01 0 0 0
17 2 1.0611631704571698e+00 1.3714994041085167e+00 2.2156277336255639e+00 0 0 0
989 2 1.5824601414241128e+00 1.1862169597016459e+00 1.6577568445185207e+01 0 0 0
991 1 1.0777756788453658e+01 1.5662599292199038e+00 1.5586984558144565e+01 0 0 0
992 2 1.0755718904090974e+01 7.8585667987335062e-01 1.6150651822379416e+01 0 0 0
993 2 1.0019746525852312e+01 1.4283625651434881e+00 1.4988862635391957e+01 0 0 0
994 1 8.9220012764182410e+00 1.6719399464590199e+00 1.3462666732517659e+01 0 0 0
995 2 9.4083828445885302e+00 8.9746637695054066e-01 1.2968970908469146e+01 0 0 0
996 2 9.2967107870706798e+00 2.3779303375384249e+00 1.3019616595034034e+01 0 0 0
699 2 1.6633701633853798e-01 1.1319325699305146e+01 9.5373093659203381e+00 0 0 0
998 2 1.1164836550450811e+01 4.6497943178616117e+00 1.4857223744083296e+01 0 0 0
1000 1 9.4116596594406055e+00 4.6931455323145030e+00 1.5084692675964051e+01 0 0 0
1001 2 9.2081451394351994e+00 3.9400860322014548e+00 1.5748444578946220e+01 0 0 0
1002 2 8.9971070855521020e+00 4.4288126403032821e+00 1.4263688311088128e+01 0 0 0
1003 1 7.8453739257756263e+00 2.8806147825227937e+00 1.6465965114476660e+01 0 0 0
1004 2 7.1065974177442177e+00 3.2937353801138043e+00 1.5944968192910894e+01 0 0 0
1005 2 7.9157210966939680e+00 3.4975846795274022e+00 1.7230619887701117e+01 0 0 0
1006 1 6.0354714160717631e+00 1.3821279767204226e+00 1.3519745253513140e+01 0 0 0
1007 2 5.7618505488611262e+00 1.2767895180545064e+00 1.4486351349096118e+01 0 0 0
1008 2 7.0324384620964153e+00 1.4914679969513289e+00 1.3382776060605655e+01 0 0 0
1009 1 1.0716344004972369e+01 3.5261229282148392e+00 1.2077014342246081e+01 0 0 0
1010 2 1.1434678492432290e+01 3.1329120096139955e+00 1.2538429789692129e+01 0 0 0
1011 2 1.0815282902500245e+01 3.1517928872801027e+00 1.1177288322763138e+01 0 0 0
1012 1 7.6012867234527208e+00 4.3949888272205238e+00 1.2830466136147139e+01 0 0 0
1013 2 7.5374682241688609e+00 3.6476242842804298e+00 1.2134897407765733e+01 0 0 0
1014 2 7.8915154887768137e+00 5.1653421267249620e+00 1.2290745659115611e+01 0 0 0
1015 1 1.0501935283754847e+01 6.1534860568970275e+00 1.2244476385193634e+01 0 0 0
1016 2 1.0572397823246380e+01 5.1903523252682779e+00 1.2110709888130975e+01 0 0 0
1017 2 1.1191150789636707e+01 6.4181338032052864e+00 1.2864241564209518e+01 0 0 0
35 2 9.7046585422869089e+00 1.4165830157437702e+00 2.8921362315150096e+00 0 0 0
1019 2 7.3840871253925213e+00 9.7883724531241079e-01 1.6774864476729547e+01 0 0 0
1109 2 8.1515341943830977e-01 6.0975536062328128e+00 1.6087706191307440e+01 0 0 0
1602 2 9.2044174411902109e+00 1.1856613413030287e+01 2.1003628189088616e+01 0 0 0
1081 1 4.5763203991647581e+00 7.6759654864954880e+00 1.5990951515324385e+01 0 0 0
1082 2 5.2335228344192490e+00 7.7384135694458021e+00 1.5271271475956938e+01 0 0 0
1083 2 4.5348191934507920e+00 6.8252546211229186e+00 1.6447896968359473e+01 0 0 0
1084 1 2.7128219663700786e+00 7.8696642818025939e+00 1.3490501316970310e+01 0 0 0
1085 2 3.2391593408068449e+00 7.7174531957049943e+00 1.4327734107608315e+01 0 0 0
1086 2 3.1153360181674774e+00 7.1089759994765851e+00 1.2973647817166336e+01 0 0 0
1087 1 6.0904000288184985e+00 1.0716584058245473e+01 1.5505820368293914e+01 0 0 0
1088 2 6.6111500593323518e+00 1.0010452381231843e+01 1.5922509130968511e+01 0 0 0
1615 1 1.0915993804927867e+01 1.2294650847609548e+01 1.7692020405126897e+01 0 0 0
1090 1 3.2902321375181884e+00 1.0764493228103813e+01 1.5286622344719127e+01 0 0 0
1091 2 2.6004285468398463e+00 1.0194494088694737e+01 1.5744989598462611e+01 0 0 0
77 2 1.1905916086251112e+01 7.0115556601243045e-01 1.5958463553813078e+00 0 0 0
1093 1 1.4815071469853811e+00 9.1825136024065230e+00 1.6189659046254441e+01 0 0 0
1094 2 1.5880351092562024e+00 8.2140663666765867e+00 1.6435295654856347e+01 0 0 0
1095 2 6.7416259752194219e-01 9.3875563423557420e+00 1.5667207631022265e+01 0 0 0
1229 2 1.4132184498972780e+00 1.2281588977756170e+01 1.7386695323999788e+01 0 0 0
1097 2 1.0121459783993394e+00 7.8021532741627686e+00 1.3372018331519099e+01 0 0 0
1099 1 4.7359244157834830e+00 9.4640193790576053e+00 1.2318117006543176e+01 0 0 0
1100 2 3.8956109855533207e+00 9.1214807998406915e+00 1.2656727913570307e+01 0 0 0
1101 2 4.6481983223718171e+00 1.0432818383324911e+01 1.2406454319036936e+01 0 0 0
1102 1 1.3915219628160171e+00 1.1004277626092263e+01 1.2998053621890973e+01 0 0 0
1103 2 1.4096779317535750e+00 1.0194785923043256e+01 1.2435673094292200e+01 0 0 0
1104 2 7.0295488947476825e-01 1.0890476235036228e+01 1.3703990261627697e+01 0 0 0
867 2 3.7003458372566018e+00 4.5702298307141254e-01 6.5267394869135922e+00 0 0 0
1108 1 1.7012559292977238e+00 6.3999677069533032e+00 1.6392552527438426e+01 0 0 0
578 2 4.7869519876463817e-01 5.3189468355156801e+00 9.6627556629306603e+00 0 0 0
1110 2 1.6571511156084502e+00 5.8924202365875864e+00 1.7252447039335451e+01 0 0 0
1111 1 1.0746610124023325e+01 7.7317130715504803e+00 1.5731036352929877e+01 0 0 0
1112 2 1.1542440770715421e+01 7.6388864747074905e+00 1.5144139709372856e+01 0 0 0
1113 2 1.0048494830781056e+01 7.7440597490472642e+00 1.4982458745419514e+01 0 0 0
1114 1 9.1452047167694914e+00 7.9928969003879562e+00 1.3568014264953570e+01 0 0 0
1115 2 9.4331771346499664e+00 7.2534303150925243e+00 1.2996855868629156e+01 0 0 0
1116 2 8.1524114754336274e+00 8.0105623455494150e+00 1.3617858738838313e+01 0 0 0
33 2 1.1489783722678673e+01 1.6512578986090645e+00 3.7662634278993696e+00 0 0 0
1120 1 9.4014687570745110e+00 1.1306702584535454e+01 1.5099777491597569e+01 0 0 0
1121 2 9.0073745931046219e+00 1.0982242084019276e+01 1.4271867109007328e+01 0 0 0
1122 2 1.0342093425550924e+01 1.1420431747418666e+01 1.4916477379544778e+01 0 0 0
1123 1 8.0726154373273662e+00 9.2851690784987611e+00 1.6422966752880676e+01 0 0 0
1124 2 8.7323081270293130e+00 9.8865068110707934e+00 1.6030676609523084e+01 0 0 0
1125 2 7.9079885915812156e+00 9.7831029100817393e+00 1.7302760533122672e+01 0 0 0
1126 1 6.4368422405871728e+00 7.7728514139337799e+00 1.3748742668862084e+01 0 0 0
1127 2 5.9342525991042585e+00 7.1122391875611513e+00 1.3213389712354255e+01 0 0 0
1128 2 6.0116132073928092e+00 8.5401659847888851e+00 1.3472128266912948e+01 0 0 0
1129 1 1.0486869378381662e+01 9.8344279936908503e+00 1.2089161698756087e+01 0 0 0
1130 2 9.7703722372923334e+00 9.4699214116228472e+00 1.2694072609858978e+01 0 0 0
1131 2 1.0516938512441776e+01 9.2257312101087372e+00 1.1347672921126483e+01 0 0 0
1132 1 7.5629212446986749e+00 1.0619708600792229e+01 1.3191864014280386e+01 0 0 0
417 2 1.0093896114618914e+01 -2.6179700803483426e-02 1.3001113708931238e+00 0 0 0
1134 2 6.8882014875871418e+00 1.0950952784624574e+01 1.3861424488352087e+01 0 0 0
1038 2 1.2033498643032633e+01 1.7702829927282073e+00 1.4307161831513922e+01 0 0 0
1137 2 1.0597186703037849e+01 1.1445935954153049e+01 1.1736152793449923e+01 0 0 0
1138 1 7.7081482784245301e+00 6.4489549026214261e+00 1.6149368823364568e+01 0 0 0
1139 2 7.9817965994503544e+00 7.3580763110463856e+00 1.6094009275460948e+01 0 0 0
1140 2 8.4529059350237770e+00 5.9251079915944800e+00 1.5770362173180480e+01 0 0 0
1498 1 7.8338418803524688e+00 1.4502004961769421e-01 2.2098554287976924e+01 0 0 0
677 2 1.1865237952266339e+01 8.5366568351208727e+00 7.3134597274159354e+00 0 0 0
1105 1 4.4939261279657137e+00 1.2133747440152121e+01 1.2324053088032320e+01 0 0 0
99 2 5.4132732462474953e-01 4.1618775925637950e+00 3.9306618474081545e+00 0 0 0
162 2 9.0721091340351840e+00 1.1766744142549536e+01 4.1563267086384599e+00 0 0 0
558 2 1.2221863983615108e+01 2.0926373967293705e+00 7.3005695689288306e+00 0 0 0
1606 1 6.3924268198204279e+00 7.6393209849697161e+00 1.9470519939152076e+01 0 0 0
1456 1 2.5416967791312994e-01 1.3105857835968786e+00 1.9467207284535256e+01 0 0 0
537 2 1.0937823517489250e+01 6.5713572593576579e+00 5.5150665161651764e+00 0 0 0
1441 1 4.7903790789015988e+00 1.5229398975033481e+00 2.1276813620270005e+01 0 0 0
1347 2 5.3344410750449027e+00 2.0925575177190936e-01 1.2596394757089508e+01 0 0 0
1443 2 4.5316579994815402e+00 2.2668986224708991e+00 2.1923799346942232e+01 0 0 0