LAMMPS data file via write_data, version 15 Apr 2020, timestep = 200000

972 atoms
2 atom types

1.9350584707117946e-01 1.9797547152929134e+01 xlo xhi
1.2876301654439537e-01 1.9862289983457849e+01 ylo yhi
1.9820352970196531e-01 2.0602568470297733e+01 zlo zhi
9.0718676345756019e-02 -3.5603992805296553e-02 -8.2028185102175771e-02 xy xz yz

Masses

1 16
2 2

Atoms # atomic

4 1 4.1224940012977056e+00 1.2730402001438170e+00 3.3708916380936218e+00 0 0 0
5 2 4.1169215901238445e+00 2.2442106772673727e+00 3.3317190869236000e+00 0 0 0
6 2 3.2614980084355065e+00 1.0387487270654407e+00 3.7274725235729123e+00 0 0 0
7 1 5.8773120096275928e+00 4.5531639417135921e+00 5.8394587493446446e+00 0 0 0
8 2 6.6677269396150036e+00 4.4036463489349877e+00 5.2302263906890190e+00 0 0 0
9 2 5.1105326243970568e+00 4.3927541441024038e+00 5.2391656025415232e+00 0 0 0
10 1 1.5654537259605070e+00 3.8444466318682391e+00 3.8295990107902145e+00 0 0 0
11 2 9.0829388886372542e-01 3.8798096392672212e+00 4.5418227113169625e+00 0 0 0
12 2 1.3451216798673404e+00 4.4865107834455671e+00 3.1035079584595864e+00 0 0 0
13 1 4.7315893449418702e+00 5.9766643526278616e+00 1.7539532320640943e+00 0 0 0
14 2 4.4427836839892221e+00 6.8393046451191246e+00 2.1808964366009693e+00 0 0 0
15 2 4.3007462033401476e+00 5.9360747570782380e+00 8.7866473510736520e-01 0 0 0
16 1 4.2535218491033824e+00 3.9403732910205216e+00 3.6897609796055937e+00 0 0 0
17 2 4.4616141696529308e+00 4.4665444621457304e+00 2.9084826091088898e+00 0 0 0
18 2 3.2733350448837646e+00 4.0843882038239805e+00 3.8342020018531624e+00 0 0 0
19 1 9.9591804677078111e-01 5.8090492675509608e+00 1.9687868180015875e+00 0 0 0
20 2 1.0371597308266853e+00 6.7609527874667759e+00 2.1737292438198965e+00 0 0 0
22 1 1.8746465709241993e+00 6.6648873993305269e-01 5.1604229044153138e+00 0 0 0
23 2 8.7277722881441178e-01 5.8612771407388131e-01 5.3451704754565394e+00 0 0 0
24 2 2.2261806246960769e+00 1.2471711300885802e+00 5.9159812503484615e+00 0 0 0
25 1 3.0230731200603809e+00 5.3088454453632350e+00 6.6512016837720278e+00 0 0 0
26 2 2.7332889522626140e+00 5.9641092552131765e+00 5.9844802698080120e+00 0 0 0
27 2 3.6278169576714108e+00 5.5898437383040136e+00 7.3769267687519644e+00 0 0 0
28 1 6.0223358009255783e+00 4.8349559509166046e-01 5.0776181755433178e+00 0 0 0
29 2 5.3670230523248268e+00 7.6159975756039111e-01 4.4347695189047434e+00 0 0 0
30 2 5.8070911468136375e+00 1.9400529555108648e+01 5.4000486733405086e+00 0 0 0
2 2 3.9816083771562947e+00 2.8204210640586056e+00 3.5996483873577723e-01 0 0 0
297 2 2.8769939797072586e-01 1.7551281695325706e+01 5.2937712596413027e+00 1 0 0
33 2 1.3207633095113791e+00 2.5953048185812375e+00 2.6509005848538356e+00 0 0 0
479 2 7.6956552344171376e+00 1.1463851099365483e+01 1.0186220044161574e+01 0 0 0
35 2 6.1893081645018890e+00 2.7884261317810721e+00 1.5569273018252703e+00 0 0 0
46 1 7.8386916987774464e+00 4.1792555234655575e+00 4.0105628536899838e+00 0 0 0
47 2 8.7936804251984917e+00 4.2832999954009630e+00 4.1415088548284285e+00 0 0 0
48 2 7.5229996198165585e+00 4.7499505534350011e+00 3.2960441594019603e+00 0 0 0
55 1 7.5006707079235504e+00 5.8041830277675128e+00 1.9522879290213462e+00 0 0 0
56 2 7.5717890206623917e+00 6.7355930837143374e+00 2.1467735992336316e+00 0 0 0
57 2 6.5874905134352213e+00 5.7330659037617133e+00 1.6219515139283243e+00 0 0 0
58 1 8.6444944898738854e+00 8.6065238093781271e-01 4.9502588908815488e+00 0 0 0
37 1 9.5992329433894348e+00 2.8224058779676078e+00 3.0874096796658757e-01 0 0 0
60 2 7.6755102546881115e+00 8.8832883383240979e-01 4.8980386560221332e+00 0 0 0
891 2 3.4994351365666745e+00 1.8992380923099027e+01 4.6983791414457937e-01 0 0 0
62 2 9.1035714230795985e+00 4.7045290378584639e+00 6.7825368589173340e+00 0 0 0
63 2 8.8278937111240392e+00 5.7640495753619581e+00 7.8167522370581972e+00 0 0 0
67 1 7.9964497855758694e+00 2.0925461071703353e+00 2.3500352780116534e+00 0 0 0
68 2 7.9009491045757558e+00 2.8560118632257958e+00 2.9832942385408732e+00 0 0 0
69 2 8.8047771791125964e+00 2.3667700313159110e+00 1.8949845041224975e+00 0 0 0
470 2 9.2989051289576352e+00 1.0312842401162570e+01 6.8632465442197326e+00 0 0 0
609 2 7.8820611848324624e+00 1.5511034488157556e+01 9.4793321437518330e+00 0 0 0
444 2 7.0130682421879109e-01 1.0979356325708709e+01 1.0336536933765379e+01 0 0 0
112 1 4.1887509952576121e+00 8.1075635490140066e+00 3.2079482556651988e+00 0 0 0
113 2 4.8200988381070236e+00 7.9242884432806830e+00 3.9129579798653187e+00 0 0 0
114 2 4.2321400145716490e+00 9.1439967641764763e+00 3.0855272934771709e+00 0 0 0
115 1 5.8717687231482687e+00 1.1225811955624200e+01 5.5418193938405977e+00 0 0 0
116 2 6.2644599618076580e+00 1.2047658855735808e+01 5.8675405090300510e+00 0 0 0
117 2 5.7938443157694897e+00 1.0637571957786468e+01 6.3271159644079251e+00 0 0 0
118 1 1.7455313812249798e+00 1.0668693986460600e+01 3.7418754865033708e+00 0 0 0
119 2 1.4079759751197891e+00 1.0711394588707050e+01 4.6392715035398124e+00 0 0 0
120 2 2.6944686131959199e+00 1.0796938930189606e+01 3.6281041185324416e+00 0 0 0
121 1 4.9431205886144118e+00 1.2559524383070467e+01 1.7337140975320722e+00 0 0 0
122 2 5.9044559616453256e+00 1.2424526774999730e+01 1.6722201597958837e+00 0 0 0
123 2 4.5072162418780337e+00 1.2477762792871856e+01 8.1254409961316909e-01 0 0 0
124 1 4.2198036914937367e+00 1.0732476962169013e+01 3.3278534392873071e+00 0 0 0
125 2 4.4776124263687826e+00 1.1408009008497224e+01 2.6593434221589822e+00 0 0 0
126 2 4.7034812686623111e+00 1.1019482343045922e+01 4.1263061935583725e+00 0 0 0
61 1 9.3600310864843141e+00 5.6126147471081866e+00 6.9915149348411001e+00 0 0 0
128 2 1.5566245064566053e+00 1.2418752640703064e+01 1.3685422838583936e+00 0 0 0
129 2 1.0336549578351746e+00 1.1827294686842128e+01 2.6794061529611892e+00 0 0 0
130 1 2.2188056680294976e+00 7.3706894229260582e+00 5.0614699588976766e+00 0 0 0
131 2 2.9238862318336412e+00 7.5317113718056827e+00 4.3419543601950661e+00 0 0 0
132 2 2.5157976540247646e+00 7.9268346078738636e+00 5.8085976597776900e+00 0 0 0
133 1 2.7771800415340473e+00 1.1629259873101864e+01 6.9263673169016391e+00 0 0 0
134 2 1.9015021268331500e+00 1.1850902342005009e+01 7.4277710143449083e+00 0 0 0
135 2 2.7393496884404831e+00 1.2155981571465260e+01 6.1201676040395032e+00 0 0 0
136 1 6.2680397601914954e+00 7.3290402173030671e+00 5.0196616921894028e+00 0 0 0
137 2 6.1713386842929152e+00 6.4037758261076450e+00 5.2869150230659594e+00 0 0 0
138 2 7.1648413279947452e+00 7.3869595237824557e+00 4.6924833363017679e+00 0 0 0
139 1 9.7308310471990134e-01 8.5311957294358844e+00 2.1300809899453199e+00 0 0 0
140 2 1.2355713938435291e+00 9.2655208015270070e+00 2.7424690358917907e+00 0 0 0
59 2 9.0358611904344297e+00 1.1880730500434520e+00 4.1040916124896487e+00 0 0 0
927 2 8.4306782802612243e+00 1.8933965615632573e+01 8.7304210318521946e-01 0 0 0
469 1 9.2419275475960418e+00 9.3460442392950576e+00 7.0885121576990535e+00 0 0 0
154 1 7.8386638786936667e+00 1.0576075588414799e+01 3.7156537674183130e+00 0 0 0
155 2 7.2842492466276321e+00 1.0579157674993469e+01 4.5042966346968178e+00 0 0 0
156 2 8.8080817597115679e+00 1.0582314015038106e+01 3.9617496501985112e+00 0 0 0
163 1 7.4723925362692789e+00 1.2670591581547313e+01 1.8974041608319594e+00 0 0 0
164 2 7.7674133826638450e+00 1.2266651210576107e+01 2.7457001531486083e+00 0 0 0
165 2 8.2317556097157958e+00 1.2613081867070100e+01 1.2658033512259690e+00 0 0 0
166 1 9.1019462752169531e+00 7.4439081621368155e+00 4.9915472618569883e+00 0 0 0
167 2 9.1873414776364122e+00 8.2478822923094732e+00 5.5768366303434833e+00 0 0 0
168 2 9.0802350559928335e+00 6.8082618085571793e+00 5.7051740031588771e+00 0 0 0
169 1 9.2750500882977391e+00 1.1919041648604530e+01 6.8358617578793037e+00 0 0 0
171 2 9.1878800546319059e+00 1.2511176454172215e+01 6.0034071606429160e+00 0 0 0
175 1 7.4879549618849932e+00 8.5959816044143835e+00 1.8387424189295234e+00 0 0 0
176 2 7.6270242423863079e+00 9.2760662306583725e+00 2.5724106268642353e+00 0 0 0
177 2 6.7088154193632388e+00 8.8792485943828403e+00 1.3392849493468741e+00 0 0 0
558 2 4.2237968410131135e+00 1.7979076435190670e+01 9.7118901092045036e+00 0 0 0
3 2 2.4272352025770920e+00 2.3519819536160798e+00 8.0647106876450281e-01 0 0 0
145 1 9.6198977172532789e+00 9.5382226259778395e+00 4.0821249405750215e-01 0 0 0
142 1 5.3903782943785243e+00 9.1978559712069305e+00 2.5286531157595854e-01 0 0 0
147 2 8.9478012679540040e+00 9.2303860453264903e+00 1.0972494571370204e+00 0 0 0
220 1 4.2299834711111517e+00 1.4394563931095581e+01 3.3699010414634829e+00 0 0 0
221 2 4.1475713732577617e+00 1.5380589919910173e+01 3.1262179597408690e+00 0 0 0
222 2 4.5086561705270016e+00 1.3916902284670725e+01 2.5626289217025677e+00 0 0 0
223 1 5.5710162176668057e+00 1.7466356100073902e+01 5.3669249739517486e+00 0 0 0
224 2 6.5116371549905860e+00 1.7206557486132098e+01 5.1212771031623401e+00 0 0 0
225 2 5.4835581499892774e+00 1.7168665026253656e+01 6.2840017407120188e+00 0 0 0
226 1 1.4124668334829555e+00 1.7234032116676595e+01 3.9728533869984117e+00 0 0 0
227 2 1.0235045562357250e+00 1.7844717796569803e+01 3.2710638059815582e+00 0 0 0
228 2 1.1983084325940876e+00 1.6316869205753804e+01 3.7313608548399295e+00 0 0 0
229 1 4.7982377910149037e+00 1.9061086929467166e+01 1.6188275777548213e+00 0 0 0
230 2 4.5747907057880486e+00 1.8320545383344381e+01 2.2540362466399988e+00 0 0 0
231 2 4.5582803703728745e+00 1.9832035297402967e+01 2.1742743652615992e+00 0 -1 0
232 1 4.1295786082062733e+00 1.7120838894616718e+01 3.1512017457452632e+00 0 0 0
233 2 3.2186332705859799e+00 1.7403076761733104e+01 3.4203020108264965e+00 0 0 0
234 2 4.5884113489683154e+00 1.7174873208440651e+01 4.0530137310604859e+00 0 0 0
235 1 9.6778691512850967e-01 1.8953138640496974e+01 1.9228462625048344e+00 0 0 0
236 2 1.1751414074518869e+00 1.9849529012570784e+01 2.1340561556771833e+00 0 -1 0
237 2 1.4909876417648402e+00 1.8902620812378558e+01 1.0892064418327290e+00 0 0 0
238 1 2.2472867269269958e+00 1.3837733250320278e+01 5.2242480813931973e+00 0 0 0
239 2 2.8219991195178320e+00 1.3835258910555329e+01 4.4657443961886862e+00 0 0 0
240 2 1.3730592377016306e+00 1.3803298439810362e+01 4.8569730152099053e+00 0 0 0
241 1 2.6327490178219208e+00 1.8106758795121053e+01 6.9589297739446794e+00 0 0 0
242 2 2.3453111781004714e+00 1.8627574502738625e+01 6.1510144007509773e+00 0 0 0
243 2 2.6619493026279857e+00 1.7155962114914928e+01 6.7146252419737227e+00 0 0 0
244 1 6.1223431440453844e+00 1.4023661518493141e+01 5.3527105461376312e+00 0 0 0
245 2 5.7597454250908120e+00 1.4667608994184871e+01 6.0492634492727895e+00 0 0 0
246 2 5.6137836274599504e+00 1.4215624458613304e+01 4.5615903855217566e+00 0 0 0
247 1 1.0924695811964340e+00 1.5193980975061802e+01 2.4407069908182306e+00 0 0 0
248 2 9.1088007604227450e-01 1.4197929912668171e+01 2.4173777449041696e+00 0 0 0
249 2 1.8179567927305171e+00 1.5350797589111073e+01 1.8083181484275046e+00 0 0 0
251 2 6.1790681386066328e+00 1.6012841619370597e+01 1.2929390233940159e+00 0 0 0
34 1 5.6116740173728958e+00 2.9779785669513918e+00 8.0394208033894488e-01 0 0 0
262 1 8.0888292444435166e+00 1.7574057795623922e+01 4.0645111040042190e+00 0 0 0
263 2 9.0554560454201276e+00 1.7509260718649301e+01 4.1354901680971974e+00 0 0 0
264 2 7.9944978119473777e+00 1.8196485223993875e+01 3.3063030591769746e+00 0 0 0
271 1 7.3773034337373113e+00 1.9218077333429726e+01 2.2862277796604489e+00 0 0 0
272 2 7.4227137249441411e+00 4.6642321552437976e-01 2.4687885141723136e+00 0 0 0
273 2 6.4517129117095520e+00 1.9189902586684426e+01 1.9964491368240458e+00 0 0 0
274 1 8.9212487480079776e+00 1.3891557936430257e+01 5.0571188795980273e+00 0 0 0
275 2 9.4287215970270726e+00 1.4541913652061838e+01 5.6022553129891106e+00 0 0 0
276 2 7.9419374359100736e+00 1.4030904276750663e+01 5.2044783054364192e+00 0 0 0
277 1 9.2010722229979116e+00 1.8566956927872091e+01 6.6013026748373980e+00 0 0 0
278 2 8.9860674241367455e+00 1.9214567733586989e+01 5.8493167805626847e+00 0 0 0
279 2 8.5863528302715526e+00 1.8894476430685735e+01 7.2422125478277684e+00 0 0 0
283 1 7.5712673141789395e+00 1.5508144162169422e+01 2.2550331241131980e+00 0 0 0
284 2 7.7490055795023860e+00 1.6198803014214398e+01 2.9833088758457924e+00 0 0 0
285 2 7.4254923050484472e+00 1.4642409752559368e+01 2.6054126990356665e+00 0 0 0
451 1 7.5760110438844475e-01 1.2312997291113369e+01 8.5470631006111297e+00 0 0 0
325 1 2.7388998876910522e+00 2.5331798723963490e+00 7.0019953627707432e+00 0 0 0
326 2 2.6848339339771377e+00 3.4741774485868522e+00 6.7684549215454881e+00 0 0 0
327 2 3.6990415752884380e+00 2.3746571069152949e+00 6.8527066376245154e+00 0 0 0
329 2 4.2265758250206993e+00 7.2712476556618777e-01 9.4056176768184905e+00 0 0 0
337 1 4.7390279782205580e+00 5.7838800058123772e+00 8.5341715512581882e+00 0 0 0
338 2 4.7022030076584596e+00 5.1777391285755954e+00 9.3055986390058365e+00 0 0 0
339 2 4.6714416506931355e+00 6.6620931551997549e+00 8.9735975849534313e+00 0 0 0
250 1 5.6130195724313596e+00 1.6202686022937186e+01 5.3012702024993397e-01 0 0 0
344 2 1.2185003200371931e+00 5.1715659681636952e+00 9.6736527172278333e+00 0 0 0
345 2 1.6963953896591617e+00 5.5231705640380238e+00 8.1425482387396180e+00 0 0 0
355 1 1.1929715086667929e+00 2.1049841185340856e+00 9.0700262312075743e+00 0 0 0
356 2 1.2018859578981542e+00 1.1629218466716742e+00 9.1917574119264511e+00 0 0 0
357 2 1.9701182857380783e+00 2.1543933484743323e+00 8.4698663031645758e+00 0 0 0
358 1 5.3844525050270207e+00 2.2483537964747713e+00 7.1283310792968217e+00 0 0 0
359 2 5.6563651746642902e+00 3.1348652801791919e+00 6.7759045350422786e+00 0 0 0
360 2 5.7326342579647616e+00 1.6956739432543233e+00 6.3651443801993457e+00 0 0 0
361 1 9.3445327307767201e+00 2.6464291099204704e+00 7.1445422948045865e+00 0 0 0
362 2 9.1109629359349977e+00 2.1160388284919787e+00 6.3500466299394827e+00 0 0 0
363 2 8.6279845996884266e+00 2.3428759852222090e+00 7.7896172444613887e+00 0 0 0
254 2 8.9078479609028260e+00 1.5671585366485523e+01 1.1190466755721178e+00 0 0 0
379 1 7.4578742647461391e+00 5.8939419284981023e+00 8.9864602617929830e+00 0 0 0
380 2 7.4748714255783852e+00 6.8732502646868312e+00 9.1405567002081956e+00 0 0 0
381 2 6.5264054076104925e+00 5.7692941990769180e+00 8.7396003653145371e+00 0 0 0
391 1 7.2522976865008797e+00 1.9807425561985890e+00 9.1442016774723260e+00 0 0 0
392 2 7.2762508308422307e+00 2.6839402752137609e+00 9.7983587000802199e+00 0 0 0
393 2 6.3821533850760588e+00 1.9674882912381957e+00 8.7632780806564057e+00 0 0 0
328 1 4.2788405863998102e+00 1.3322555802741562e+00 1.0250183137403473e+01 0 0 0
433 1 2.8323968891662217e+00 8.9817725970803810e+00 6.9902759095184992e+00 0 0 0
434 2 2.8549905655022410e+00 9.9424018398410645e+00 7.0122665849517603e+00 0 0 0
435 2 2.1767624692676746e+00 8.8242787204084454e+00 7.7244573006915385e+00 0 0 0
111 2 1.9609894174795899e+00 8.9552685379496868e+00 6.6157162242751455e-01 0 0 0
445 1 4.9010721192813529e+00 1.2778824986877281e+01 8.3673186964777226e+00 0 0 0
446 2 4.4896027486424304e+00 1.3554852794753426e+01 8.7746369497795893e+00 0 0 0
447 2 4.1887939024255356e+00 1.2456152914228117e+01 7.7842229193167620e+00 0 0 0
210 2 5.4753084705113420e-01 7.4312441885186811e+00 5.0411508108831304e+00 0 0 0
450 2 3.9845179635380030e+00 1.1427292855315804e+01 9.8852562384065159e+00 0 0 0
452 2 8.8769144500472341e-01 1.3248711898801810e+01 8.7874613591012896e+00 0 0 0
463 1 9.5912380704588318e-01 8.3863708354664794e+00 9.1894809732846774e+00 0 0 0
465 2 1.0056439701433300e+00 7.3887118112117189e+00 9.2510054008258020e+00 0 0 0
466 1 5.7671351850005346e+00 8.8235621512035696e+00 7.0495748299116112e+00 0 0 0
467 2 5.9886996041550402e+00 8.1923400689582291e+00 6.3624431292432284e+00 0 0 0
468 2 4.7926817848060095e+00 8.8888191370593130e+00 7.1387298617901465e+00 0 0 0
500 2 7.6014281017747614e+00 9.2606907978335080e+00 9.7683598106648635e+00 0 0 0
342 2 4.2213905295329948e+00 2.9691095779552534e+00 1.0263931131182391e+01 0 0 0
471 2 8.8054013191708673e+00 9.1586832255412975e+00 7.9635126477766267e+00 0 0 0
573 2 1.0156362424888052e+00 1.5478500857558071e+01 9.6041910054547568e+00 0 0 0
487 1 7.4411117758339387e+00 1.2100107796790287e+01 8.5977189426023877e+00 0 0 0
488 2 8.0443233942177095e+00 1.2125040950778880e+01 7.8667060994617231e+00 0 0 0
489 2 6.5884689535478680e+00 1.2506529069375171e+01 8.3262589803095519e+00 0 0 0
499 1 7.5039635757447938e+00 8.6365934480976634e+00 9.0598421219958087e+00 0 0 0
253 1 9.4420894388452403e+00 1.6032227860834340e+01 3.6874380169220333e-01 0 0 0
501 2 6.7687361765680194e+00 8.8574244767990287e+00 8.4152436407668887e+00 0 0 0
127 1 7.9730427141033167e-01 1.2512376568389815e+01 2.0519298666983996e+00 0 0 0
675 2 2.1429850980158940e+00 5.5583541486102979e+00 6.7305737787696662e-01 0 0 0
541 1 2.8700905640128642e+00 1.5595849321831281e+01 7.2001403417259793e+00 0 0 0
542 2 2.1501611334327642e+00 1.5414671372132002e+01 7.8442349503213569e+00 0 0 0
543 2 2.6540549582725070e+00 1.4990875603308426e+01 6.5021735222544237e+00 0 0 0
553 1 4.4840288861698863e+00 1.9176676172692780e+01 8.4776068591945837e+00 0 0 0
554 2 5.3884892040866479e+00 1.9019505723510754e+01 8.2581723237541969e+00 0 0 0
555 2 3.8231849973522292e+00 1.8876918761397988e+01 7.8345343777954772e+00 0 0 0
31 1 1.2765512707869957e+00 1.9662161338358690e+00 1.8977275180800477e+00 0 0 0
559 1 1.0158832345413567e+00 1.9078636494727597e+01 8.7603354134223483e+00 0 0 0
560 2 1.5347230735486135e+00 1.8705999409215941e+01 8.0203980040326890e+00 0 0 0
561 2 1.0810402874698488e+00 1.8307404375216109e+01 9.4008869801423565e+00 0 0 0
571 1 8.0427580070201232e-01 1.4869509770710911e+01 8.8967935009979726e+00 0 0 0
574 1 5.7188409829507014e+00 1.5824633019966155e+01 7.4078111613693967e+00 0 0 0
575 2 6.2806101913523928e+00 1.5643715362514721e+01 8.1670098252089982e+00 0 0 0
576 2 4.7640510692721643e+00 1.5747494606330214e+01 7.6251243357367935e+00 0 0 0
577 1 9.7508883969564444e+00 1.6004607308145324e+01 7.1201194050048517e+00 0 0 0
578 2 9.6140370488310474e+00 1.6943558094008857e+01 6.8581435669092281e+00 0 0 0
579 2 8.9671737104883622e+00 1.5782364181160741e+01 7.6223070896283662e+00 0 0 0
711 2 8.7714682557295252e+00 5.6066500379058208e+00 6.3475008864006699e-01 0 0 0
595 1 7.3492081818650998e+00 1.9017510989822753e+01 8.6681310839345151e+00 0 0 0
596 2 7.4437020084946912e+00 1.6339966377588339e-01 9.0190074121643899e+00 0 0 0
597 2 7.5943507339700069e+00 1.8362876104623602e+01 9.3756109062886726e+00 0 0 0
607 1 7.7524648940653433e+00 1.4857168684417251e+01 8.7475666159680916e+00 0 0 0
608 2 7.7300137746461068e+00 1.4008757448782275e+01 9.1654546743058614e+00 0 0 0
443 2 9.4571802768170488e-01 9.4787343639778001e+00 1.0375231351372609e+01 0 0 0
372 2 7.7594970602160673e+00 4.7240547448831949e+00 1.0354419927589390e+01 0 0 0
32 2 3.8425638918955540e-01 2.1361391707523314e+00 1.5464520200482001e+00 0 0 0
557 2 4.3651470747265373e+00 1.6513333419207314e+01 1.0263356171726519e+01 0 0 0
544 1 4.2676817631972614e+00 1.4702675405672315e+01 1.0202371028590928e+01 0 0 0
343 1 9.7352902937059660e-01 5.6466965351058498e+00 8.8020041387325829e+00 0 0 0
436 1 4.3629837424922968e+00 8.3041056524463031e+00 9.8664265902553101e+00 0 0 0
556 1 3.8423399895851955e+00 1.7324231181169402e+01 1.0332212611659063e+01 0 0 0
781 1 2.5762478789638368e+00 1.1998449680812513e+01 2.6517063210968284e-01 0 0 1
925 1 9.2111446853533181e+00 1.8799397553785532e+01 2.8129351052685381e-01 0 0 1
217 1 3.0562642529829325e+00 1.5812658299313190e+01 3.1804158621346967e-01 0 0 0
218 2 4.0898589791523854e+00 1.5960319287893181e+01 4.1559716785169187e-01 0 0 0
437 2 4.0744771925380148e+00 9.2219129132354727e+00 1.0003707630115224e+01 0 0 0
170 2 9.9566554144965593e+00 1.2329351537144984e+01 7.4455895698519665e+00 0 0 0
550 1 1.1415291627408055e+00 1.7013826790572104e+01 1.0373459827381829e+01 0 0 0
340 1 4.1729069707678095e+00 3.9538056912813571e+00 1.0366350123158684e+01 0 0 0
36 2 5.9695306690526797e+00 3.7490918922861485e+00 3.1379536235238836e-01 0 0 1
143 2 4.3962042874199136e+00 9.0981401226143692e+00 2.4140627224626870e-01 0 0 0
810 2 9.6004283009534728e+00 1.0953060045040301e+01 1.7408469827400296e+01 0 0 0
438 2 5.0835615046337788e+00 8.3324405880236867e+00 1.0554253713149080e+01 0 0 0
685 1 9.2721670379640670e+00 2.5837216363595057e+00 1.3508454733758366e+01 0 0 0
109 1 2.4978651325906367e+00 9.2682643215548079e+00 2.0368301969085344e+01 0 0 -1
39 2 9.0293193605072180e+00 2.0771250317588041e+00 2.0184209412230665e+01 0 0 0
144 2 5.5436657919967383e+00 1.0071119625872084e+01 2.0342627397838982e+01 0 0 0
331 1 5.9180107932513399e+00 4.8005745938544626e+00 1.2431942137999851e+01 0 0 0
332 2 6.7501114480550664e+00 4.4467818193465787e+00 1.2110295390159990e+01 0 0 0
333 2 5.2938046308739306e+00 4.4148740910998585e+00 1.1809146511184807e+01 0 0 0
883 1 9.2738604004181224e-01 1.9173180202656418e+01 1.5522027296451553e+01 0 0 0
533 2 5.1161146709050498e-01 7.2921978573133694e+00 1.2324410443104414e+01 0 0 0
674 2 2.6531228262877149e+00 4.2640033081199595e+00 2.0325115107244187e+01 0 0 0
346 1 2.1698576915256549e+00 7.6017111210964639e-01 1.1981588918357787e+01 0 0 0
347 2 2.8886124586783879e+00 8.8649326144993967e-01 1.1401274455976157e+01 0 0 0
348 2 2.1970423934091863e+00 1.5496423683792082e+00 1.2553861950025585e+01 0 0 0
349 1 2.4821199473811304e+00 5.2383006778610568e+00 1.3762727483472158e+01 0 0 0
350 2 2.6431548222866041e+00 5.7705940492719057e+00 1.2951734796124031e+01 0 0 0
351 2 2.3222099176010826e+00 4.2727135217314638e+00 1.3604741568220893e+01 0 0 0
352 1 6.1943125359766258e+00 7.4742781726505370e-01 1.2114288842879921e+01 0 0 0
353 2 7.1511368333193444e+00 9.4354211469346161e-01 1.1903920347671978e+01 0 0 0
354 2 6.1045396811347015e+00 1.9520531622604913e+01 1.2332575808856035e+01 0 0 0
384 2 9.3162633986444785e+00 8.4141266515959934e-01 1.1152302044584751e+01 0 0 0
382 1 8.8340161577114511e+00 6.4752393410887699e-01 1.1958860565827029e+01 0 0 0
383 2 9.2988476070829655e+00 1.9682732910547394e+01 1.2483362124218639e+01 0 -1 0
905 2 9.8808396253054180e+00 1.4209484520294343e+01 1.7817428508716212e+01 0 0 0
385 1 9.1489655604489037e+00 5.3240043707638804e+00 1.3363860862992871e+01 0 0 0
386 2 9.0537681639624434e+00 4.3737564647893956e+00 1.3292707142474832e+01 0 0 0
387 2 8.4631394376804394e+00 5.6484346024738583e+00 1.4003574113479692e+01 0 0 0
334 1 1.5312155513152725e+00 4.2467772335143410e+00 1.0957158353734803e+01 0 0 0
876 2 1.1297485847729383e+00 1.7612004081156087e+01 1.8345167562478807e+01 0 0 0
439 1 5.5772272360742665e+00 1.1531074175987467e+01 1.2806261125293529e+01 0 0 0
440 2 5.8214700948896203e+00 1.2469086977872879e+01 1.2598911726136297e+01 0 0 0
441 2 4.9290200752258331e+00 1.1314559444347362e+01 1.2102353695592319e+01 0 0 0
330 2 5.0418341293481568e+00 9.4624094845893203e-01 1.0746869717329828e+01 0 0 0
454 1 2.5265028131005112e+00 7.3588036430256158e+00 1.2256103476760863e+01 0 0 0
455 2 2.9424488173284025e+00 7.7412504614871160e+00 1.1470310749598591e+01 0 0 0
456 2 2.6418311063241045e+00 8.0111564702646714e+00 1.2990102786876482e+01 0 0 0
457 1 2.2002923708934841e+00 1.1895396067056378e+01 1.3862148044659186e+01 0 0 0
458 2 3.0539581475620943e+00 1.2203460692586438e+01 1.4078360627248342e+01 0 0 0
459 2 1.5892412055422072e+00 1.2220239484046406e+01 1.4602016737295953e+01 0 0 0
460 1 5.8935059677088688e+00 7.7445225813613305e+00 1.2253118557197592e+01 0 0 0
461 2 5.6445236329761919e+00 6.8415677498241454e+00 1.2495671784434990e+01 0 0 0
462 2 6.8575147131803504e+00 7.6952040614036825e+00 1.2050924272057532e+01 0 0 0
486 2 9.4844147856918184e+00 1.0694779783298246e+01 1.0848088010433733e+01 0 0 0
480 2 7.1108466531970889e+00 1.1091682746965580e+01 1.1632793657758706e+01 0 0 0
587 2 8.7345366772743436e+00 1.7327640784208590e+01 1.1083658103251102e+01 0 0 0
490 1 8.6407847982602668e+00 7.4735588432269244e+00 1.1836375614028093e+01 0 0 0
491 2 8.7728360351404362e+00 6.5750634890450090e+00 1.2130181274001389e+01 0 0 0
492 2 9.1325328818318692e+00 8.1129462525404961e+00 1.2374302141878156e+01 0 0 0
493 1 9.4494961279433483e+00 1.1723971978647338e+01 1.3479469690329752e+01 0 0 0
494 2 8.6943348703269194e+00 1.1993102337707928e+01 1.4097496896703355e+01 0 0 0
495 2 9.1488440646072871e+00 1.2068482457686008e+01 1.2632001448983047e+01 0 0 0
749 2 3.8754128897186724e-01 4.0731295428088438e-01 1.8725637774509053e+01 0 0 0
546 2 5.1429972787286120e+00 1.4406903774692680e+01 1.0624363378645258e+01 0 0 0
782 2 2.4582890334576599e+00 1.0942511044964979e+01 2.0534596832639565e+01 0 0 0
341 2 3.2787520342225833e+00 4.0060274280209676e+00 1.0654440389926437e+01 0 0 0
599 2 9.6392292279888778e+00 1.4615968538956569e+01 1.0981297230905087e+01 0 0 0
817 1 9.4889833193141460e+00 1.2068314930112692e+01 2.0568203708373652e+01 0 0 0
547 1 5.9714432011877507e+00 1.7801621667618100e+01 1.2100652307939153e+01 0 0 0
548 2 5.1686512965595197e+00 1.7826064156113354e+01 1.1527506946790108e+01 0 0 0
549 2 5.7404156749965445e+00 1.7328054957131897e+01 1.2906805118014725e+01 0 0 0
673 1 2.6853244675418169e+00 5.2079375635585938e+00 2.0375330634602356e+01 0 0 0
562 1 2.1738312782328069e+00 1.3890778179059177e+01 1.1929291031801096e+01 0 0 0
563 2 1.2146205138377855e+00 1.3992879407472888e+01 1.1731672612368833e+01 0 0 0
564 2 2.1322517103209275e+00 1.3089235494420510e+01 1.2547502524307479e+01 0 0 0
565 1 2.9862349894761011e+00 1.8428482266061998e+01 1.3859402195668414e+01 0 0 0
566 2 2.7795377277672095e+00 1.8982897989667677e+01 1.3073307179749630e+01 0 0 0
567 2 3.7594195114392330e+00 1.8822642894601728e+01 1.4387584687395927e+01 0 0 0
568 1 6.3675692330321754e+00 1.4059757792253590e+01 1.1883687162015995e+01 0 0 0
569 2 7.3779642839165733e+00 1.4168777635989922e+01 1.1906759079607978e+01 0 0 0
570 2 6.0517442188335613e+00 1.4612213827564698e+01 1.2598941772745475e+01 0 0 0
370 1 7.9498648984924873e+00 3.9832447241663163e+00 1.0937685841833428e+01 0 0 0
709 1 9.3822629350663451e+00 5.2807894796920305e+00 2.0364725257047908e+01 0 0 0
588 2 7.1598772144326093e+00 1.7276109073938819e+01 1.1149713816278327e+01 0 0 0
598 1 8.9976726426345834e+00 1.4210882398026236e+01 1.1660167656781375e+01 0 0 0
478 1 7.8655151372118945e+00 1.1014331077490414e+01 1.1006164551097637e+01 0 0 0
600 2 9.2515984843505077e+00 1.4632192385274093e+01 1.2507627844866608e+01 0 0 0
601 1 9.5500107515654911e+00 1.8526589060111434e+01 1.3734417425231007e+01 0 0 0
603 2 8.7611289818067046e+00 1.8910626980108738e+01 1.4220122532271645e+01 0 0 0
680 2 3.5775450034196288e-01 2.3485464134837337e+00 1.5328764679233597e+01 0 0 0
552 2 2.0990134535843534e+00 1.7153902709400548e+01 1.0627910364321879e+01 0 0 0
649 1 2.6701188193575307e+00 2.6654813237615644e+00 1.3467851415402398e+01 0 0 0
650 2 3.5938837680940749e+00 2.8896891338569111e+00 1.3739566058240900e+01 0 0 0
651 2 2.1214558884496597e+00 2.2475992483900753e+00 1.4201521449610231e+01 0 0 0
652 1 4.4437773661041939e+00 1.2642431402423162e+00 1.6934105653973027e+01 0 0 0
653 2 4.3001743020250940e+00 2.2262547283075147e+00 1.6935052877131291e+01 0 0 0
654 2 4.9101219061145942e+00 1.1371655729872836e+00 1.7792551339871792e+01 0 0 0
655 1 6.0421604718379172e+00 4.6600598545695089e+00 1.9244516726660471e+01 0 0 0
656 2 6.1401480764656204e+00 5.6092067442551876e+00 1.9194433502540377e+01 0 0 0
657 2 6.5300552039309574e+00 4.2591399731743431e+00 1.8500956951962515e+01 0 0 0
658 1 1.5105434136814915e+00 4.0317014297320650e+00 1.7557332513321718e+01 0 0 0
659 2 1.3318842660769539e+00 3.1612461528787690e+00 1.7201964244886810e+01 0 0 0
660 2 1.0750803766416497e+00 4.6335665192260906e+00 1.6898961229400747e+01 0 0 0
661 1 4.8440633330507099e+00 5.6215280637022591e+00 1.5107999528969174e+01 0 0 0
662 2 4.5557442190015678e+00 5.1060758117051117e+00 1.5919776850867873e+01 0 0 0
663 2 3.9474487942035767e+00 5.5513584763343511e+00 1.4622848009905905e+01 0 0 0
664 1 4.1759511461999148e+00 3.9807535999447072e+00 1.7290495843730227e+01 0 0 0
665 2 3.2362083247773565e+00 3.9903371954125073e+00 1.7537489452480521e+01 0 0 0
666 2 4.6263858657552603e+00 4.0783783572246399e+00 1.8154509854780621e+01 0 0 0
667 1 4.3319589963113103e-01 5.7813061638341017e+00 1.5654985154272527e+01 0 0 0
668 2 7.1524176322995348e-01 6.7501477260747613e+00 1.5834541020572289e+01 0 0 0
669 2 9.7397449293347038e-01 5.5601280957622308e+00 1.4904761344265044e+01 0 0 0
670 1 2.1318104614274747e+00 1.0164657664487504e+00 1.8487449110609631e+01 0 0 0
671 2 2.5048140144515267e+00 1.6222228850905103e+00 1.9212209417090151e+01 0 0 0
672 2 2.8238077645099646e+00 1.0651075458662262e+00 1.7718950628446144e+01 0 0 0
676 1 5.8414983053458833e+00 1.0936288271145518e+00 1.9295147454764646e+01 0 0 0
677 2 5.7706430740256369e+00 1.6470545973370092e+00 2.0079039819733850e+01 0 0 0
678 2 6.7669202000510795e+00 1.2731967944392533e+00 1.9180591579330851e+01 0 0 0
679 1 1.2816212885773175e+00 2.0505891574407231e+00 1.5534538931720574e+01 0 0 0
586 1 7.9357417715643850e+00 1.7020683084270566e+01 1.0603423675581936e+01 0 0 0
681 2 1.1451094307173342e+00 1.0655858034282604e+00 1.5729887689733408e+01 0 0 0
682 1 5.3277957616560396e+00 2.6773980494914476e+00 1.3811056888123140e+01 0 0 0
683 2 5.6393473024432401e+00 3.5205022370192189e+00 1.3427749725993982e+01 0 0 0
684 2 5.6759306558998714e+00 1.9236918560722294e+00 1.3272633366663515e+01 0 0 0
545 2 3.5475752762242982e+00 1.4403130787390241e+01 1.0785469239082392e+01 0 0 0
687 2 9.0789712657288000e+00 1.7684813031824334e+00 1.3017193694970466e+01 0 0 0
694 1 7.6555554891395676e+00 4.0782398046007131e+00 1.7325646168878727e+01 0 0 0
695 2 8.5995038206947783e+00 4.0434703271820549e+00 1.7532345076745870e+01 0 0 0
696 2 7.4948868232690113e+00 3.2957683995748130e+00 1.6751698204493692e+01 0 0 0
703 1 7.4853914783376521e+00 6.1826558485363092e+00 1.5379331877691460e+01 0 0 0
704 2 7.7372805341608428e+00 5.5115716179744423e+00 1.6101659093048909e+01 0 0 0
705 2 6.5968143906681149e+00 5.8753302355940660e+00 1.5168379637165755e+01 0 0 0
706 1 8.5040845696189393e+00 9.2894634724026681e-01 1.9050201949317263e+01 0 0 0