LAMMPS data file via write_data, version 15 Apr 2020, timestep = 0

1944 atoms
2 atom types

-1.4694918084635589e-01 4.0129054180846168e+01 xlo xhi
0.0000000000000000e+00 1.9763944344062946e+01 ylo yhi
0.0000000000000000e+00 2.0466074664056798e+01 zlo zhi
1.0658239133782388e-02 -1.4696530488755855e-02 2.3518923135590342e-02 xy xz yz

Masses

1 16
2 2

Atoms # atomic

458 2 1.7610921895302724e+01 4.3599246137150933e+00 9.3913629918871333e+00 0 1 0
1160 2 1.2268259980010992e+01 2.8635057808134223e+00 3.5435328292800889e+00 0 1 0
90 2 1.7474490765851126e+01 8.6516367320759588e+00 2.9654285865646757e+00 0 0 0
671 2 9.2127102166411881e+00 1.3679165188198072e+01 3.7612209233946285e+00 0 -1 0
466 1 8.6136020623332747e+00 4.3275809638749889e+00 1.0219309752291936e+01 0 1 0
102 2 9.2522630044276344e+00 1.9578609410433764e+01 4.0908682519898427e+00 0 0 0
876 2 4.9037477815685371e+00 5.9080374391099362e+00 1.4487002143312999e+00 0 0 0
1128 2 1.3980565965054053e+01 1.9629756077391871e+01 6.0704585740026895e-01 0 0 1
1220 2 1.9754894764843456e+01 1.4996653419108000e+01 8.0707765451448257e+00 0 0 0
717 2 1.8446961452239464e+01 4.1570403950321777e-01 2.2202662274739624e+00 0 0 1
672 2 8.2078887315742453e+00 1.3707386281146393e+01 4.9892964778244302e+00 0 -1 0
535 1 1.5652616051659830e+01 1.5593090399532839e+01 7.7987089893353287e+00 0 0 0
940 1 1.4892380111230771e+01 6.6645390192466518e+00 2.8031845178507258e+00 0 1 1
1592 2 1.4795335636091423e+01 1.1489908452218064e+01 1.2228296503060763e+00 0 0 1
32 2 3.8809965223662948e+00 1.9019326000930988e+01 1.3023813883806803e-01 1 -1 0
1600 1 1.3310869851376612e+01 8.5238977540735608e+00 1.2451255244937829e+00 0 1 1
1082 2 6.6939042322467710e+00 1.7399977035993757e+01 1.0226286205681518e+01 0 0 0
669 2 9.7521725728541703e-02 1.7053303729734790e+01 3.8550224919740139e+00 0 0 0
1804 1 8.7878605996878356e+00 1.7281371137797578e+01 4.7031986052950439e+00 0 0 1
1817 2 1.5219222918700000e+01 1.4935061921901549e+00 3.9057364910355599e+00 0 2 1
1383 2 1.3600538016369992e+01 5.9770049705498067e+00 3.9738306803139745e+00 0 0 0
906 2 1.8240176752993861e+01 3.9364168043252790e-01 4.6293308967125126e+00 0 0 0
1527 2 1.2525473783758759e+01 1.3972364965958022e+01 7.5610711688617576e+00 0 0 1
1135 1 7.8732892351265960e-01 1.0392043442951888e+01 3.5122745122256442e+00 0 1 0
8 2 -5.5205944094298132e-03 1.1720710230545562e+01 8.7449881637035620e+00 0 -1 0
1515 2 1.1165371980353267e+01 1.2806918732689304e+01 9.9087027277183590e-02 0 0 0
1323 2 3.2759823525347285e+00 1.5602471598333835e+01 8.1656377369203827e+00 0 0 0
1158 2 1.1798802978833999e+01 4.5100127480561518e+00 1.9311077285368556e+00 0 0 0
743 2 1.4018849801358991e+01 1.1623833227749607e+01 7.7897494989371259e+00 0 -1 0
227 2 7.8369908676639888e-01 1.1239902016830378e+01 2.2955281123840399e+00 0 0 0
1141 1 1.8055983650701155e+01 1.1838891038826242e+01 9.6889165616512896e-01 0 0 0
1181 2 1.7586207641372976e+01 1.8110440506451440e+01 8.8754786822422140e+00 0 0 0
1786 1 2.1955526201190381e+00 1.8318195600388535e+01 7.2842110595878884e+00 0 0 1
506 2 3.4736318501271981e+00 1.8865059475424182e+01 8.6099723865498685e+00 0 -1 0
881 2 8.4228876879236143e+00 9.2905213072782153e+00 9.7620077982571285e+00 0 0 -1
1324 1 1.4651652681366828e+01 1.8937776389719250e+01 8.9921524148499383e+00 0 -1 0
572 2 1.9502639609964287e+01 1.2529118484763705e+01 1.0631808849765265e+00 0 0 0
1814 2 1.5687197313007443e+01 2.8426776309993120e+00 5.7602183639211857e-01 0 1 1
1327 1 1.3044101217152482e+00 6.1393088330929944e+00 9.5682867250089352e+00 0 0 0
59 2 1.0231421458099230e+00 4.9869476546501073e+00 7.0203578400410418e+00 0 0 -1
1098 2 4.8872115531478357e+00 1.2306721480817506e+01 6.6057405237515727e+00 0 1 0
1583 2 9.2857096970848971e+00 1.1489605917716526e+01 8.0942578427974965e+00 0 0 0
905 2 1.8420911568916182e+01 8.7491654487423176e-01 6.1639513652129398e+00 0 0 0
1576 1 1.8982076637181990e+01 7.0499366518236259e+00 5.0401783893772336e+00 0 0 1
949 1 1.0697309698946457e+01 1.3615397184820491e+01 3.1764662934148045e+00 0 0 0
678 2 1.0983350611306681e+00 7.9564732744210751e+00 5.3931713656521474e+00 0 0 0
486 2 1.3845342448770174e+01 1.5162575252077401e+01 1.4481088476762214e+00 0 0 0
29 2 4.3286343810944476e+00 1.0761063417704637e+00 6.2539947739989579e+00 0 1 0
47 2 4.1557158704916102e+00 1.4962817295016750e+01 5.0861880263695429e+00 0 -1 0
1164 2 6.9400570543714588e+00 4.9310922112432403e+00 2.5988867193098697e-01 0 1 1
1803 2 1.2673402942046861e+01 9.6051644903615720e+00 5.4541653574285016e+00 0 1 1
650 2 1.2133334795756932e+01 1.7199938803054653e+01 7.7148119121072174e+00 0 -1 0
898 1 4.4214373327481917e+00 8.3785382005363278e+00 4.9066798321881775e+00 0 0 0
444 2 5.4662701182143358e+00 1.3266848931980908e+01 4.6877785004379033e+00 0 1 0
461 2 4.7445669103655730e+00 4.3043578548419950e+00 7.7300996727797902e+00 0 1 0
290 2 5.9126270741188263e+00 3.4509573776029860e+00 5.8036898207924237e+00 0 0 -1
1328 2 7.7714496219372353e-01 6.8756585375022059e+00 9.1732774585001398e+00 0 0 0
1561 1 2.0125711721698978e+00 3.5551846194171741e+00 7.8321231343427673e+00 0 1 0
1755 2 -1.2274957567403937e-01 2.3529163520238248e+00 9.4613684532130478e+00 0 1 -1
921 2 2.1701145211865929e+00 1.4017386715179365e+00 5.6950666605003848e+00 0 1 0
552 2 1.8910501041209574e+01 1.3792879976765940e+01 4.2268427489187479e+00 0 0 0
1577 2 1.9112196957681210e+01 7.6854662436501986e+00 5.7331493915752780e+00 0 0 1
874 1 4.1578553175927864e+00 6.3153564884830899e+00 1.9245872565107200e+00 0 0 0
1312 1 5.5105899804321623e-01 3.9114057977680190e+00 3.7765766432653667e+00 0 0 1
966 2 1.0102919453820403e+01 1.4035727746936007e-02 7.6421562359708410e+00 0 1 0
465 2 8.2350021101527187e+00 1.9057118093134630e+01 2.2667227875542775e+00 0 -1 -1
1543 1 1.7573875423568024e+00 1.1952496995824706e+01 6.3649161422837484e+00 0 0 0
908 2 1.0558522554444362e+01 1.2315223210236027e+01 9.8763052099566853e+00 0 0 0
1154 2 1.9254384036776347e+01 1.2443165115007201e+01 8.0640107746949887e+00 0 1 0
12 2 1.6311876959749507e+00 3.9999022008763971e-02 4.2730436385221120e+00 0 0 0
1792 1 1.2641701478292646e+01 6.8943685679360938e+00 6.9929018793372872e+00 0 0 1
1753 1 -1.1433260541013150e-01 1.9423508509978407e+00 8.5337594955091536e+00 0 1 0
550 1 1.9401543172347409e+01 1.3630372074791843e+01 5.0707663246323564e+00 0 0 0
742 1 1.4316747952567438e+01 1.0663831213796236e+01 7.8589526933758815e+00 0 -1 0
681 2 4.3584132040044288e-01 8.5562958327362697e+00 7.7445660206743989e+00 0 0 0
479 2 1.1052927622759880e+01 1.8707212097416949e+01 3.1210066079658594e+00 0 0 -1
1606 1 8.6503821950504012e+00 4.6847267079432777e+00 6.5640452889220358e-01 0 -1 0
49 1 8.1165524294345630e+00 1.3904819420295723e+01 6.6542566028234837e+00 0 -1 0
1398 2 1.7541747767448591e+01 8.6530726669568274e+00 9.0839897718114830e+00 0 -1 1
718 1 3.1426457354900692e+00 6.6987817585454836e+00 7.5700690324898066e+00 0 0 -1
442 1 5.4058489402718060e+00 1.2425430207170578e+01 5.1064863058125356e+00 0 1 0
1137 2 1.7187751766599308e+00 1.0351382217452116e+01 3.7484681735466734e+00 0 1 0
88 1 1.7451462715805306e+01 7.6366234303885587e+00 3.0324807062418269e+00 0 0 0
911 2 8.6361956392384833e+00 7.1915981880463580e+00 6.7226011378040100e+00 0 0 0
738 2 1.9510831132568924e+01 1.1906492024152463e+01 5.4740224513427620e+00 0 0 0
971 2 1.6911189464670834e+01 1.3949654926682580e+01 2.6653790027566386e+00 0 0 0
58 1 1.8253015795587224e-01 5.5466657379502164e+00 6.9984781572595107e+00 0 0 -1
1302 2 8.5437655208189831e+00 1.5560525967536021e+01 9.6626919886969524e+00 0 0 0
927 2 1.5939146250181125e+01 1.0419739548288986e+01 8.4366590007099749e+00 0 0 0
662 2 1.4275279574690547e-01 1.2585679890352470e+00 1.7402415113775769e+00 0 0 1
953 2 1.4774243857019256e+01 1.7102808319727728e+01 1.8168629128232276e+00 0 0 1
43 1 9.2784136137409057e+00 1.8037215346650741e+00 1.0785663622421640e+00 0 0 1
1322 2 1.6884790637564446e+00 1.5355203610866599e+01 7.9024585681916468e+00 0 0 1
105 2 1.7921931848747459e+01 1.8147943705873882e+01 1.9205293510466757e+00 0 -1 0
1581 2 6.8756831938606044e-01 1.8745586410265307e+01 8.0089941990446256e+00 0 -1 0
537 2 1.5398274830921201e+01 1.6281194111357429e+01 7.1646466786646572e+00 0 0 0
436 1 4.3167372238679063e+00 8.6819590284471939e+00 7.2042178953762026e-01 0 0 0
21 2 1.6327136412602292e+00 1.0135118924706855e+01 6.7702460210911726e+00 0 0 0
703 1 1.0863494848115561e+01 1.1492433987965294e+01 8.0197929742038223e+00 0 0 -1
897 2 8.1492859119940082e+00 4.9658631319090114e+00 6.7330023783937758e+00 1 0 0
1754 2 1.3543556271739449e-02 9.6457255255495244e-01 8.6678380911626540e+00 0 1 0
665 2 4.6495650454485320e+00 1.0424406719950010e+01 7.4589163642176626e+00 0 0 0
488 2 1.3805621852363361e+01 8.3994230091350310e+00 9.9713827319001282e+00 0 1 -1
1810 1 1.7755672224927636e+01 1.0321687404395522e+01 3.2461753857147269e+00 0 0 1
1551 2 1.6438391073398662e+01 1.4860488759996281e+01 4.3099952415545739e-01 0 0 1
10 1 1.0753338074770531e+00 9.0678286741024725e-02 5.0556291653082255e+00 0 0 0
658 1 4.5431213017023460e+00 1.6095229774553093e+01 1.4262994045302195e+00 0 -1 1
1812 2 1.6909313978088051e+01 1.0531422399084601e+01 3.7158453938696203e+00 0 0 1
251 2 7.3395347492028424e+00 1.0061186829006639e+01 5.1497560310656967e+00 0 -1 0
933 2 1.9400066108768996e+01 1.8346504608016890e+01 5.6936731199943456e+00 0 0 0
268 1 1.7755387032103403e+01 1.6864104197886071e+01 3.4664142574318406e+00 0 0 0
1180 1 1.7780882248761305e+01 1.8807734487160992e+01 8.2068150447296073e+00 0 0 0
1182 2 1.8729296592992007e+01 1.8830166984206148e+01 8.1989796038183265e+00 0 0 0
1395 2 8.7079780526177686e+00 3.9322198234122658e+00 8.5687712246350944e+00 0 0 0
1806 2 8.6996545686580156e+00 1.7055741432015207e+01 3.7439441300087055e+00 0 0 1
93 2 9.0665507567687396e+00 1.7676711988044847e+01 1.0165538971074110e+01 0 0 -1
932 2 1.9229099475642631e+01 1.6830770496598245e+01 6.0747450644011565e+00 0 0 0
100 1 9.4664311892849486e+00 4.3483912170799566e-01 4.8122956172713698e+00 0 0 0
1142 2 1.7944594108224766e+01 1.1418239045984135e+01 1.8258502245841728e+00 0 0 0
129 2 1.9906854378742516e+01 5.8577320243694500e+00 1.6139810642200227e+00 0 0 0
1539 2 2.4812717152632674e-01 1.5519026641626947e+01 2.2607151748621428e+00 0 0 0
264 2 6.3985805981896995e+00 4.4165859109964750e-01 2.3551982747779774e+00 0 1 0
936 2 9.8397594321140716e+00 8.6011878939885431e+00 5.4756269983968664e-01 0 1 1
1562 2 2.2266529364088323e+00 3.0598740832376947e+00 6.9676776420175637e+00 0 1 0
1113 2 1.6854615312022734e+01 1.3794793988660086e+01 5.1728203233709005e+00 0 0 0
1525 1 1.1645717365122824e+01 1.3971430233273537e+01 7.0398184255766889e+00 0 0 1
64 1 1.6427353119671565e+01 8.2510296661786935e+00 6.5594483299682569e+00 0 0 -1
900 2 4.3654535331406477e+00 8.7634007031194585e+00 5.8048470858087491e+00 0 0 0
485 2 1.3756371139763040e+01 1.4068077491282303e+01 2.5594087187409853e+00 0 0 0
1382 2 1.3036169613262945e+01 6.1735486570490226e+00 5.3944146713603676e+00 0 0 0
659 2 5.1570896248405429e+00 1.5448644331610014e+01 9.6874833991555187e-01 0 -1 1
1175 2 8.1545749854533636e+00 1.5276245141482791e+01 1.7117119453818492e+00 0 0 0
701 2 8.8482415570288158e+00 1.1352104614251553e+01 4.4676377704243739e+00 0 0 -1
273 2 1.8072333718665043e+01 4.1130124966780972e+00 2.7816363344365986e+00 0 0 1
895 1 7.8696000550872114e+00 5.7034746685796369e+00 6.1412437982457346e+00 0 0 0
229 1 1.4761719771704256e+00 1.3421048552198069e+01 3.8592573255257330e+00 0 0 0
1155 2 1.7860741802987157e+01 1.2773655865706099e+01 7.1454167283216519e+00 0 1 0
104 2 1.7203615931816653e+01 1.8844606902512673e+01 6.0925475719920530e-01 0 -1 0
71 2 6.8278369444201648e+00 1.0337519412809893e+01 1.6163535038768757e+00 0 -1 1
685 1 3.3394045108834325e+00 3.3928782319227837e+00 3.7625269377838113e+00 0 1 0
270 2 1.6934211062669803e+01 1.7301601113729625e+01 3.6492703368877080e+00 0 0 0
1138 1 1.1436278084133392e+01 3.0097496093725971e+00 6.5154054273412525e+00 0 0 1
1818 2 1.6448384021126760e+01 8.7533834040446312e-01 3.1780913223308072e+00 0 2 1
1096 1 4.5352709254539265e+00 1.2214125615160411e+01 7.5081834822226794e+00 0 1 0
1522 1 6.9814212466123022e+00 1.2257191346234846e+01 1.9144197528787239e+00 0 0 1
944 2 1.5397067427909208e+01 1.8717119807699742e+01 3.6640361820097813e+00 0 0 1
1764 2 5.7481416096227578e-01 5.8067991162120469e+00 1.4939923624596767e+00 0 1 0
1738 1 7.0153275525756176e-01 1.0364407308056732e+01 9.9527129510168191e+00 0 0 0
1313 2 3.9540752247308364e-01 4.7658858699470503e+00 3.3127222881191059e+00 0 0 1
1120 1 1.3015440544474314e+01 1.3969475451766725e+01 4.4942490878175416e+00 0 0 0
749 2 1.9396682878841919e+01 9.0621448070118866e+00 4.0907763768224259e-01 0 0 1
1303 1 2.9343346583122143e+00 1.3914580334317362e+01 4.2159612685734543e-01 0 -1 1
288 2 1.4985632861842117e+01 2.8502530683266518e+00 7.8828511429276142e+00 0 0 0
225 2 3.4169162693257729e+00 9.4699889724120445e-01 3.0803771117591743e+00 0 1 0
1794 2 1.2841034398678657e+01 7.8537184597515708e+00 6.8913780299172309e+00 0 0 1
484 1 1.3602885213592520e+01 1.4263374768084196e+01 1.6035650837513613e+00 0 0 0
1311 2 1.8694822431487339e+01 1.4715933873224968e+01 6.1610009278327906e+00 0 0 0
258 2 7.8804511080005604e+00 8.0157930676991089e+00 3.8949820360381895e+00 0 0 1
75 2 1.2453231743036392e+01 6.9215200120156628e-01 7.1547633761347909e+00 0 0 0
292 1 1.9087424705867431e+01 8.8004170870641492e+00 6.8933162171109554e+00 0 -1 -1
724 1 1.8200148365282512e+01 2.2321084719550344e+00 7.1750870151178514e+00 0 0 0
250 1 7.4739817692174730e+00 1.1019817342563226e+01 5.4449210744603729e+00 0 -1 0
965 2 8.5298975394169680e+00 3.0064944057390131e-02 7.9958115973886059e+00 0 1 0
269 2 1.8390418224589869e+01 1.6999946792426538e+01 4.1974348068547824e+00 0 0 0
271 1 1.7947358223011221e+01 3.5827264712259255e+00 3.5677871813175868e+00 0 0 1
883 1 1.0952471699111134e+01 4.6294854610371106e+00 3.3219817795464928e+00 0 0 0
489 2 1.3661286534499594e+01 9.6014477752043721e+00 9.0356466604117802e+00 0 1 -1
667 1 6.9087541513731221e-01 1.6858551149394025e+01 3.1139396270401249e+00 0 0 0
1159 1 1.2184436688167633e+01 1.9875813225256824e+00 4.0380840662036341e+00 0 1 0
1526 2 1.1363865468281237e+01 1.4881713257696749e+01 7.0523225562169589e+00 0 0 1
686 2 3.3855740340755367e+00 4.3071056417600762e+00 4.0900841181306715e+00 0 1 0
705 2 1.0984923328215581e+01 1.0901061670650147e+01 7.2176991049597570e+00 0 0 -1
1793 2 1.1691375756203698e+01 6.7781155624192717e+00 7.2255023053288161e+00 0 0 1
253 1 4.3107226684111621e+00 1.1814848619197043e+01 1.4634941183081165e+00 0 0 0
1139 2 1.0536059891252213e+01 3.3825801214123117e+00 6.6190709516164112e+00 0 0 1
1593 2 1.3854432296995478e+01 1.0407097185462865e+01 1.5622605229660960e+00 0 0 1
1300 1 8.6971571030038763e+00 1.4638015867941588e+01 1.0001565114538636e+01 0 0 0
736 1 1.9566739705817003e+01 1.0893675210139197e+01 5.3028160785553231e+00 0 0 0
923 2 1.5353246898841542e+01 8.9491535162742739e+00 7.8360649530544790e-01 0 -1 1
920 2 2.9440506795686248e+00 2.5585553098904041e+00 5.0302590373945488e+00 0 1 0
1101 2 1.0609749773433514e+01 1.0435807550222680e+01 5.3681810893491146e+00 0 1 0
464 2 9.1823827347800044e+00 3.2131473925370446e-01 1.7707827429770222e+00 0 0 -1
91 1 8.2659976290060371e+00 1.7388262395629912e+01 9.6712588287009460e+00 0 0 -1
919 1 2.8523850256110284e+00 2.0663580411600320e+00 5.9175414742654988e+00 0 1 0
526 1 1.3942236800452489e+01 1.3293357731146887e+01 8.0092539625800327e+00 0 0 0
261 2 6.3049507934196889e+00 6.5963531532149302e+00 7.8055119668253639e+00 0 0 -1
291 2 6.2222666411135457e+00 4.2957909967741399e+00 4.4131050253809416e+00 0 0 -1
1550 2 1.5350902260384292e+01 1.3911210788205139e+01 1.0127847531531602e+00 0 0 1
230 2 2.1474364277763782e+00 1.4041572834089827e+01 4.1270624333275947e+00 0 0 0
462 2 6.0904575060934576e+00 3.7293514999295891e+00 7.9658434731922902e+00 0 1 0
1776 2 3.4749828269778660e+00 1.6505963384936685e+01 4.0177152419090154e+00 0 0 1
1766 2 1.7295091615163010e+01 2.0041607965510519e+00 9.8606842825632732e+00 0 1 0
294 2 1.9683996749290269e+01 8.6042393776686907e+00 7.6594009835805013e+00 0 -1 -1
914 2 1.6650935664773851e+01 1.8588891906124779e+01 6.7668516187179222e+00 0 0 0
45 2 1.0239871377029198e+01 1.6974121233184081e+00 9.7154747263885710e-01 0 0 1
666 2 5.2621324201837645e+00 8.9181580866880896e+00 7.8250947038216250e+00 0 0 0
263 2 6.0809280944081499e+00 1.9005054200232586e+01 3.3044825322485090e+00 0 0 0
480 2 1.2361043538924413e+01 1.8855225598957752e+01 2.2632652168524512e+00 0 0 -1
893 2 2.1550256220508119e+00 6.1188968808693032e+00 4.8041437769964004e+00 0 0 0
676 1 7.0448384676955644e-01 7.2731821423053296e+00 4.8277141865030853e+00 0 0 0
19 1 1.6281901730759152e+00 9.1136622827402558e+00 6.6352891386647128e+00 0 0 0
242 2 4.0540016189900330e+00 3.0738245758777754e+00 1.7290039612868640e+00 0 1 0
293 2 1.9412338110163308e+01 9.6816340908441596e+00 6.6045648821254463e+00 0 -1 -1
243 2 4.6445306736687657e+00 3.3599130706166589e+00 3.0695923062039510e-01 0 1 0
236 2 1.0256432234663118e+01 1.1000275756325754e+01 1.1463748239292488e+00 0 0 0
1767 2 1.7310069488568029e+01 6.4539920242573989e-01 9.0653850777087577e+00 0 1 0
1371 2 1.7708795653024840e+01 5.5022246597418727e+00 6.7357399967560427e-01 0 0 1
1162 1 6.0214095335008606e+00 4.6578370419947186e+00 7.2723357612474782e-02 0 1 1
1582 1 8.2974435414503454e+00 1.1574044281697660e+01 8.0558289404080980e+00 0 0 0
463 1 9.2200061832693869e+00 1.9186940180186241e+01 2.2181298514768422e+00 0 -1 -1
891 2 6.6212340483250127e+00 1.4840062641387663e+01 3.8413042260263546e+00 0 0 0
507 2 4.7028447478545328e+00 1.8509408353565092e+01 9.5517964159602435e+00 0 -1 1
1176 2 7.5161347303226771e+00 1.6605065792812965e+01 1.5204086579006679e+00 0 0 0
99 2 6.3652997707157883e+00 1.0186448454095676e+00 7.7960384941155825e+00 0 0 -1
76 1 1.3379688665657193e+01 2.8969449769564071e-01 5.7848759673560508e+00 0 0 0
1112 2 1.5979149370193838e+01 1.4136984622545814e+01 6.4994267190634076e+00 0 0 0
478 1 1.1957457721728874e+01 1.8373149451764331e+01 3.0327559844856222e+00 0 0 -1
702 2 1.0102465309360081e+01 1.1984680369889489e+01 3.9331771249734202e+00 0 0 -1
910 1 9.2236219648744573e+00 7.9661225745190887e+00 6.9065358324659600e+00 0 0 0
536 2 1.5396460603364590e+01 1.5985107231508717e+01 8.6732176390418001e+00 0 0 0
289 1 6.3581744362310957e+00 3.4617533210021314e+00 4.9022045482071777e+00 0 0 -1
223 1 2.7318869285641076e+00 2.6692110551237824e-01 2.8698478941606833e+00 0 1 0
51 2 8.7523126838816552e+00 1.4511757932041602e+01 7.0667460743415047e+00 0 -1 0
98 2 7.0097708484840702e+00 1.5590658379677369e+00 9.0555359696524622e+00 0 0 -1
483 2 1.7777838946715359e+01 1.3465585552685596e+01 9.3606313216861903e+00 0 0 0
492 2 1.2449636379786723e+01 1.4082192149241317e+00 6.0131456766344393e-01 0 1 0
952 1 1.4546234267895324e+01 1.6786175975083893e+01 9.0110588882835274e-01 0 0 1
1127 2 1.4148493185643316e+01 3.1637623641018187e-01 2.0540594715787543e+00 0 1 1
257 2 6.3754911140417150e+00 8.1996056365175871e+00 4.4015531411355360e+00 0 0 1
1553 2 1.0306247650870418e+01 1.6230152997360566e+01 1.2298429896824226e+00 0 -1 1
72 2 6.9205502024627714e+00 9.0011519923489658e+00 2.4623209692003529e+00 0 -1 0
687 2 2.3769011374873710e+00 3.3208961705981057e+00 3.5486061102778059e+00 0 1 0
1389 2 1.0234784383761149e+01 7.9997300057138174e+00 9.5427421328354232e+00 0 0 0
710 2 1.7572894307749856e+01 5.4138262234185088e+00 7.5219419402200733e+00 0 0 0
1153 1 1.8226996285044663e+01 1.2460703136316367e+01 8.0328705147383967e+00 0 1 0
1100 2 1.0564025850354032e+01 9.0535705185963238e+00 6.1720252584600130e+00 0 0 0
1612 1 1.4109445702727910e+00 7.0614750900867818e-01 5.0769490035556875e-01 0 1 1
1369 1 1.8160001493755832e+01 5.6393282786895647e+00 1.5407000765448424e+00 0 0 1
266 2 1.2322931849854305e+01 3.5334394801089615e+00 8.1028268379853294e+00 0 0 0
321 2 5.8573844335999370e+00 1.2883284946729310e+01 8.9121015155636236e+00 0 -1 1
871 1 3.4940605164950731e+00 1.0452468430185766e+01 3.9090146556761853e+00 0 0 0
1136 2 2.4797440921622182e-01 1.0705102971738393e+01 4.2566899127404199e+00 0 1 0
967 1 1.2240574870324794e+01 1.5746700684293419e+01 9.8626417742886723e+00 0 0 0
660 2 4.2492793515795242e+00 1.6870517215386830e+01 8.5154931578390602e-01 0 -1 1
491 2 1.1887456203822522e+01 2.8010192161983358e+00 2.2628515623789244e-01 0 1 0
1122 2 1.3221157334453220e+01 1.4960613890255262e+01 4.6219443904165756e+00 0 0 0
1352 2 5.2352055307018546e+00 1.1371084483299324e+01 2.5491490853077798e-02 0 0 1
450 2 1.4011545750491122e+01 4.2530904573387156e+00 1.1486228699324967e+00 0 1 0
1544 2 1.9365366715186645e+00 1.2363168023820679e+01 5.4999858717368193e+00 0 0 0
972 2 1.7527585020090385e+01 1.5127675804964522e+01 3.3708053140792877e+00 0 0 0
259 1 6.0333657812631065e+00 7.3270444926523401e+00 8.3905915756598262e+00 0 0 -1
889 1 5.6789988001207661e+00 1.4900193039986245e+01 3.7235676369297694e+00 0 0 0
1305 2 2.0958198340096477e+00 1.4129930576951660e+01 8.8200259396474423e-01 0 -1 1
716 2 1.8160952445476855e+01 1.9044547935715241e+00 3.1427071021314581e+00 0 0 1
1125 2 1.5231651446415851e+01 3.1369495469597042e+00 5.7699640249791795e+00 0 1 0
97 1 7.2265659440662606e+00 1.2003263192266920e+00 8.1711949966149415e+00 0 0 -1
101 2 9.1776486211959796e+00 1.9683249983201321e+01 5.6116518249248406e+00 0 -1 0
1161 2 1.1334010549017925e+01 1.6145602507993182e+00 3.7638004299849759e+00 0 1 0
77 2 1.3138244366686216e+01 1.9152220956923184e+01 5.8415436258142597e+00 0 -1 0
505 1 4.3599742631752871e+00 1.9197156821174129e+01 8.9322479309054046e+00 0 -1 0
959 2 1.5693137193034037e+01 5.2474439637226498e+00 5.4599943809385119e+00 0 1 0
789 2 1.9833486763442945e+01 1.7574675804973641e+00 8.3742965972157428e+00 0 0 0
700 1 9.7944754301228674e+00 1.1109797354963165e+01 4.1979972626212367e+00 0 0 -1
92 2 8.3547032978718381e+00 1.7841330976437263e+01 8.7777454739020335e+00 0 0 -1
70 1 6.7837362595051856e+00 9.3307084046852182e+00 1.5031599156835489e+00 0 -1 0
231 2 1.8180640848589897e+00 1.2815284876592024e+01 3.1212172532450997e+00 0 0 0
282 2 9.3062014214731530e+00 2.0878962657584519e+00 4.7332694329322162e+00 0 0 0
1152 2 4.8903171901100633e+00 1.6185597726832391e+01 9.8604811872833764e+00 0 0 0
709 1 1.8161571192744667e+01 5.4444746534052610e+00 8.3264278213682203e+00 0 0 0
74 2 1.1540833395107288e+01 1.7366376549713458e+00 7.5816607969146776e+00 0 0 0
890 2 5.5404622265703889e+00 1.5551113860626096e+01 3.0588630175702911e+00 0 0 0
1816 1 1.5456867272127669e+01 7.6806175364361129e-01 3.3131613276670930e+00 0 2 1
1304 2 3.5924372416471018e+00 1.4646655580807248e+01 4.9882393460414498e-01 0 -1 1
1394 2 8.2432320759564721e+00 2.8001205504307887e+00 7.6514562771802153e+00 0 0 0
675 2 3.7679398995196967e+00 9.1417537511857851e+00 9.3769818586309679e+00 0 -1 0
1535 2 1.1698245523655549e+01 9.1756281423491508e+00 1.8798756694936969e+00 0 -1 0
1552 1 1.1195126441387940e+01 1.5892210000605969e+01 1.5799355152085983e+00 0 -1 1
255 2 3.8347813376965512e+00 1.1213087197760100e+01 2.0554482424143026e+00 0 0 1
1099 1 1.1105714668140118e+01 9.8183674439861122e+00 5.9532932522151665e+00 0 1 0
1569 2 5.6082515339891064e+00 1.8905507977078717e+01 5.7007002799615272e+00 0 -1 1
1321 1 2.5434678830404231e+00 1.5660395225574000e+01 7.4772532748634557e+00 0 0 1
1111 1 1.6577625838204167e+01 1.3465927787531053e+01 6.0635915409991430e+00 0 0 0
11 2 2.2994893108732417e-01 1.3710382277117872e-01 4.6589991132284503e+00 0 0 0
1310 2 1.7643259105618121e+01 1.5285672048451151e+01 7.1146473952812652e+00 0 0 0
970 1 1.7442067469667233e+01 1.4160800991830353e+01 3.4324004044738876e+00 0 0 0
1140 2 1.1626139400454081e+01 2.7564924480154729e+00 5.6083571013703555e+00 0 0 1
260 2 5.5416257353252796e+00 6.9751167800834049e+00 9.2101372631232064e+00 0 0 -1
1536 2 1.0471140210229679e+01 9.8174229570947187e+00 2.6901223810293429e+00 0 -1 0
711 2 1.8013490969404337e+01 6.3750079742356878e+00 8.6601358699701372e+00 0 0 0
958 1 1.6467222522952710e+01 5.4830197625099997e+00 6.0002546838974222e+00 0 1 0
1105 1 1.8094951726388355e+00 5.5121655014249367e+00 6.9192302089647573e-01 0 1 1
744 2 1.4070872397775446e+01 1.0129985113508958e+01 7.0474496310723138e+00 0 -1 0
719 2 4.0639545649576867e+00 6.7857679755487714e+00 7.9935696380472914e+00 0 0 -1
1558 1 1.4757704908762108e+01 1.7372970238863354e+00 9.4585478572484085e+00 0 1 1
1314 2 3.1546295982929995e-01 3.1516268289212777e+00 3.1028742157033768e+00 0 0 1
1126 1 1.3431942638678423e+01 1.9522434492178439e-01 1.3523529999126693e+00 0 1 1
1805 2 7.8538962254010425e+00 1.7553079635706833e+01 4.9408181360384935e+00 0 0 1
894 2 3.2653876234977486e+00 5.9763141808336702e+00 6.0087530563030329e+00 0 0 0
241 1 3.9761676574098779e+00 2.8504713436930271e+00 7.7668393819386294e-01 0 1 0
267 2 1.3344152384551316e+01 4.3101239061828078e+00 8.9505877101828961e+00 0 0 0
872 2 4.1883573143393011e+00 1.1034703523622088e+01 4.3102498068772022e+00 0 0 0
1119 2 2.8591283546738366e-01 1.9062426546783996e+01 4.0010293961279575e-01 0 0 0
726 2 1.8793238953634749e+01 2.8980247525885683e+00 6.7677270386753632e+00 0 0 0
1801 1 1.3572919494844434e+01 9.2778292300017107e+00 5.4683722808275848e+00 0 1 1
1567 1 5.9666956366277457e+00 1.8105319242791250e+01 5.2230709931799195e+00 0 -1 1
252 2 7.8912955375667089e+00 1.0944558752817258e+01 6.3105949662404575e+00 0 -1 0
884 2 1.1660161138394509e+01 4.8268765069799615e+00 4.0338110928294855e+00 0 0 0
281 2 8.2958330243691147e+00 3.2460382127492826e+00 4.7257008437856074e+00 0 0 0
78 2 1.3082948853358502e+01 6.9215312023618936e-01 4.9732409332410761e+00 0 0 0
1777 1 6.3647145379162255e+00 5.8179032058765543e+00 3.7853897554113005e+00 0 1 0
66 2 1.7291347648852039e+01 8.5633590640396573e+00 6.8702503626644607e+00 0 0 -1
912 2 9.1021702592672504e+00 8.2197142082367129e+00 7.8722271052740824e+00 0 0 0
237 2 9.2698504287472723e+00 1.2174172491541716e+01 1.2728114514357707e+00 0 0 0
314 2 1.2672170736886669e+01 1.7109239479048874e+01 4.2214481315875503e+00 0 0 0
1309 1 1.8576087887509534e+01 1.5373476656263911e+01 6.8253969968073704e+00 0 0 0
941 2 1.5833664862803513e+01 6.9144745698542431e+00 2.9772527395442396e+00 0 1 1
1560 2 1.5076548102900638e+01 2.3542817646366947e+00 1.0118478098643118e+01 0 1 1
1514 2 1.2171425143066006e+01 1.3803637111319023e+01 5.2989211950142356e-01 0 0 0
1545 2 9.4384535746234288e-01 1.2291142035689278e+01 6.7908459423742329e+00 1 0 0
1555 1 8.6916057643550015e+00 6.6211049987944923e+00 2.8996698350107799e+00 0 0 1
925 1 1.6776958688901864e+01 1.0202339598909765e+01 8.8872118584270652e+00 0 0 0
48 2 2.9619134357568280e+00 1.5473426101354832e+01 5.9185858598817953e+00 0 -1 0
938 2 8.8813937549546784e-01 9.0971147052193171e+00 2.4744973655656638e-01 0 0 0
950 2 1.0652478777297077e+01 1.4333070278171638e+01 2.5001758935696734e+00 0 0 0
1775 2 3.9528298342293846e+00 1.7309212817685417e+01 2.7926457666742066e+00 0 0 1
704 2 1.1175894470617914e+01 1.2370123917786989e+01 7.5973885668344652e+00 0 0 -1
1559 2 1.3849634949628825e+01 1.9839821313263133e+00 9.2894460282194800e+00 0 1 1
46 1 3.2447063442797712e+00 1.5193934212298821e+01 5.0001202580562207e+00 0 -1 0
89 2 1.7990807401165053e+01 7.4613488561849151e+00 3.8420720798443879e+00 0 0 0
1123 1 1.5245172317760336e+01 3.2355275719037317e+00 4.7883484359138642e+00 0 1 0
673 1 3.1704794867833912e+00 9.0039907415632090e+00 1.0074226817613885e+01 0 -1 0
50 2 8.2489955724342270e+00 1.3130778849151877e+01 7.1653983654840232e+00 0 -1 0
1774 1 3.6209889629125573e+00 1.7426642832127627e+01 3.7035883632821665e+00 0 0 1
1534 1 1.0796227261055764e+01 9.4763412424799007e+00 1.8027764694129038e+00 0 -1 0
873 2 3.8532027452854321e+00 9.5381474436002112e+00 4.1864628910235355e+00 0 0 0
487 1 1.3220547931046415e+01 9.1637590380355096e+00 9.7851611136948655e+00 0 1 -1
1381 1 1.3223942913829777e+01 5.5346465758053220e+00 4.7461728841679296e+00 0 0 0
460 1 5.5854327861144704e+00 4.2451289709308409e+00 7.3279491668334797e+00 0 1 0
30 2 4.6822815339702775e+00 1.3953959051244576e-02 7.3290259488187965e+00 0 0 0
943 1 1.5270102170014988e+01 1.7785667079034479e+01 3.4134924618573388e+00 0 0 1
490 1 1.1686521775607199e+01 1.8806319805011069e+00 2.1566756073859358e-01 0 1 0
1301 2 7.9398988844191187e+00 1.4050417757533037e+01 9.6837064007131310e+00 0 0 0
670 1 8.2645231972916804e+00 1.3625482474403798e+01 3.9886933957012700e+00 0 -1 0
942 2 1.5009738427510369e+01 5.7509266977568707e+00 2.3653141248834038e+00 0 1 1
939 2 2.4614868023590302e+00 9.4418561102201402e+00 1.3977460039286507e-01 0 0 0
1370 2 1.7811212839664528e+01 6.5134098623046253e+00 1.9107769766133771e+00 0 0 1
931 1 1.9652418371959460e+01 1.7444856471370802e+01 5.4071533574027919e+00 0 0 0
60 2 3.0274694024303112e-01 6.2086017521341743e+00 6.2815972427102906e+00 0 0 -1
1350 2 6.2290527383057759e+00 2.3633228064005367e+00 3.3047893605357554e+00 0 0 0
1557 2 9.5339639126093356e+00 6.5620992115355241e+00 3.3482629234243366e+00 0 0 1
65 2 1.5985277613741069e+01 8.8867024517307325e+00 6.0504378630914886e+00 0 0 -1
1329 2 9.9105330810610259e-01 5.2925737717076569e+00 9.2378402503695547e+00 0 0 0
527 2 1.4635365732850579e+01 1.3914565562651205e+01 7.8292526496536139e+00 0 0 0
265 1 1.2765932067881387e+01 3.4953870907877320e+00 8.9442235684208704e+00 0 0 0
1556 2 8.6763945279339847e+00 5.9563348930774405e+00 2.2024036105433589e+00 0 0 1
1591 1 1.4526904162068504e+01 1.0916674388392769e+01 1.9703008401334263e+00 0 0 1
1739 2 4.5918750428158717e-01 9.4862275692919020e+00 9.5517491356228899e+00 0 0 0
1563 2 1.3086527824158651e+00 2.9979834185538388e+00 8.2078472974036956e+00 0 1 0
315 2 1.2992574701235727e+01 1.6861534379819485e+01 5.7646269482666570e+00 0 0 0
1568 2 5.1737837921947820e+00 1.7692943823313993e+01 4.9147998959358752e+00 0 -1 1
319 1 6.1889055438994749e+00 1.3399163420162555e+01 9.6572193961251234e+00 0 -1 1
28 1 5.0331368759977648e+00 4.4944219735734181e-01 6.5085465297321381e+00 0 0 0
1823 2 1.5558398477604742e+01 1.1959238854546255e+01 4.7901162232529035e+00 0 0 1