LAMMPS data file via write_data, version 15 Apr 2020, timestep = 200000

972 atoms
2 atom types

2.1396236996772799e-01 1.9777090630033193e+01 xlo xhi
8.8769824621925508e-02 1.9902283175378482e+01 ylo yhi
1.8429728650840360e-01 2.0616474713491634e+01 zlo zhi
-9.4844512631588898e-02 1.4669160018466781e-01 -2.7359360291586782e-01 xy xz yz

Masses

1 16
2 2

Atoms # atomic

4 1 3.9818920384689891e+00 1.6318479922075242e+00 3.3849990769059022e+00 0 0 0
5 2 4.0803247816597477e+00 2.5871778809464452e+00 3.5138339861181516e+00 0 0 0
6 2 3.1806112591696536e+00 1.2739050778815915e+00 3.7926016246441430e+00 0 0 0
7 1 6.3737208818822815e+00 4.9748978250354581e+00 5.9811775392736770e+00 0 0 0
8 2 7.0078217921880492e+00 4.6870196118966705e+00 5.2775088217661406e+00 0 0 0
9 2 5.5700686483628470e+00 4.6924447583745303e+00 5.4407941909931257e+00 0 0 0
10 1 1.7842190654004544e+00 4.0853072553467946e+00 3.8596416366611392e+00 0 0 0
297 2 3.1632318899086553e-01 1.7579893404596838e+01 5.4599436745577981e+00 1 0 0
12 2 1.3038258641424474e+00 4.8212353763405309e+00 3.4440357467448006e+00 0 0 0
13 1 4.6144581558089071e+00 5.9837086168231970e+00 1.6898165094413935e+00 0 0 0
14 2 4.4212700897068560e+00 6.8667436197089913e+00 2.1129049787477117e+00 0 0 0
15 2 3.8518741108674988e+00 5.8121976129939270e+00 1.0298826882989340e+00 0 0 0
16 1 4.4139741020175940e+00 4.2232479290299878e+00 3.9730730323455581e+00 0 0 0
17 2 4.5121450290657963e+00 4.6609038264203848e+00 3.1197204080735550e+00 0 0 0
18 2 3.4670519330881202e+00 4.4712502224902089e+00 4.0751963836845064e+00 0 0 0
891 2 3.5808332551094866e+00 1.9240888731566400e+01 4.0920594847950398e-01 0 0 0
335 2 1.0617061924877536e+00 3.1366269057519371e+00 1.0358993385910013e+01 0 0 0
22 1 2.1606609369254350e+00 4.6125784304683309e-01 5.0089322067794368e+00 0 0 0
23 2 1.1712080575639021e+00 5.9140834896545358e-01 5.0715334162451464e+00 0 0 0
24 2 2.4490868043332261e+00 1.0083417264498236e+00 5.7645165509495380e+00 0 0 0
25 1 2.7152813345881679e+00 5.1761303900005657e+00 6.6190250905570700e+00 0 0 0
26 2 2.5319688931129196e+00 6.0461098948820444e+00 6.0945410956970854e+00 0 0 0
27 2 3.5730739340590825e+00 5.3759434715582515e+00 7.1127558744462256e+00 0 0 0
28 1 5.9993813119144734e+00 7.0418016400373662e-01 5.3310633064371160e+00 0 0 0
29 2 5.0984284731240530e+00 8.8699068465216757e-01 4.9599328331605506e+00 0 0 0
30 2 6.0311021221644978e+00 1.9527623179084109e+01 5.4495287735261373e+00 0 0 0
448 1 4.1922923367033391e+00 1.0258358206677824e+01 1.0340691700208277e+01 0 0 0
372 2 8.1278710197122557e+00 4.9736835768786101e+00 1.0161388348369526e+01 0 0 0
33 2 1.2837764261272853e+00 2.8782756029638779e+00 2.8048197889063200e+00 0 0 0
143 2 4.2231036750965254e+00 9.1854535107029545e+00 6.3058415431738701e-01 0 0 0
35 2 5.9411946512460121e+00 2.4722911623270640e+00 1.6554031380180336e+00 0 0 0
46 1 8.2765882097413783e+00 4.1703839532930127e+00 4.0885641992005120e+00 0 0 0
47 2 9.2637909413731769e+00 4.0793479052064541e+00 4.1446913026662493e+00 0 0 0
48 2 8.1514902197205537e+00 4.8862253901501482e+00 3.3757460599497207e+00 0 0 0
55 1 7.6018771102113547e+00 5.9183094230704114e+00 2.0787575974837367e+00 0 0 0
56 2 7.5417137439240323e+00 6.9016405744313571e+00 2.3390138380210170e+00 0 0 0
57 2 6.6210022465761371e+00 5.7379100371114946e+00 1.8478242411838224e+00 0 0 0
58 1 8.9066032692818133e+00 7.4219669432713031e-01 5.0544266067819805e+00 0 0 0
119 2 1.0585063174291507e+00 1.1095492928272121e+01 4.5157825934648308e+00 0 0 0
60 2 8.1158061896546805e+00 6.8212035562162376e-01 4.5491089541189007e+00 0 0 0
19 1 5.8986400602169908e-01 6.1689244734010211e+00 2.0194749423564442e+00 0 0 0
479 2 7.7358936679338806e+00 1.1714685326798961e+01 1.0336081233243251e+01 0 0 0
63 2 8.5180083997641187e+00 5.5746617278086257e+00 7.7584942767961564e+00 0 0 0
67 1 7.4935560082002279e+00 2.1567639841332333e+00 2.3737289916325413e+00 0 0 0
68 2 7.7297286846972115e+00 2.8601110367891320e+00 3.0110073172332141e+00 0 0 0
69 2 8.2609872968249700e+00 2.2334622529068122e+00 1.7398315630249355e+00 0 0 0
20 2 5.3375239239941585e-01 7.1508721220853744e+00 2.4619038893962282e+00 0 0 0
609 2 7.4489603666971700e+00 1.6163198639923429e+01 9.7201484085062972e+00 0 0 0
61 1 9.0840608694208829e+00 5.3542882322748078e+00 7.0169267813307670e+00 0 0 0
112 1 4.3507553055610773e+00 8.0153499843195704e+00 3.3474441272341835e+00 0 0 0
113 2 5.0833833521991547e+00 7.8044656158436121e+00 3.9549289044307860e+00 0 0 0
114 2 4.2932062967981333e+00 8.9971981824106262e+00 3.5716372414982582e+00 0 0 0
115 1 6.3752605758362186e+00 1.1355661486539773e+01 5.4271574551014723e+00 0 0 0
116 2 6.1704282560055006e+00 1.2325143791436862e+01 5.3699877979545496e+00 0 0 0
117 2 6.1470820231358783e+00 1.0981206927768699e+01 6.3162982541194985e+00 0 0 0
118 1 1.6514835909078704e+00 1.0830354493860288e+01 3.8285011947570249e+00 0 0 0
544 1 4.3725649464162215e+00 1.4114507660036679e+01 1.0367013689973415e+01 0 0 0
120 2 2.6536353674631097e+00 1.0799795558803169e+01 4.0248770487802465e+00 0 0 0
121 1 4.8448025286398018e+00 1.2557552583239669e+01 1.8271444181048571e+00 0 0 0
122 2 5.7897315277774553e+00 1.2519860817549159e+01 1.4469334176444433e+00 0 0 0
123 2 4.2185838573802723e+00 1.2202645217388595e+01 1.1285605462932973e+00 0 0 0
124 1 4.2593744287263915e+00 1.0651458259349896e+01 3.8744328052468453e+00 0 0 0
125 2 4.3245148702151575e+00 1.1354989039942705e+01 3.1851914173051386e+00 0 0 0
126 2 5.0321418956458936e+00 1.0885028825085328e+01 4.4289862253113386e+00 0 0 0
127 1 7.9828704312232379e-01 1.2402091938557284e+01 1.7778472795553633e+00 0 0 0
128 2 1.4490886403668828e+00 1.2270767834752148e+01 1.0612551794984366e+00 0 0 0
129 2 1.1652766416600859e+00 1.1830703202198880e+01 2.5141111373438196e+00 0 0 0
130 1 2.4011061289572004e+00 7.3450007793820191e+00 5.3606882277589554e+00 0 0 0
131 2 3.0062447162172807e+00 7.5040994883311649e+00 4.5748255058889074e+00 0 0 0
132 2 2.5675987198057495e+00 8.0756548628158846e+00 6.0033398223175238e+00 0 0 0
133 1 2.7084879617358477e+00 1.1839483447644945e+01 6.9488377776145489e+00 0 0 0
134 2 2.0380705565319230e+00 1.1959485049078095e+01 7.6452567035539758e+00 0 0 0
135 2 2.4463075064228779e+00 1.2559959069091299e+01 6.3473589185623256e+00 0 0 0
136 1 6.1633943631481038e+00 7.6617628130796538e+00 5.3455159297618930e+00 0 0 0
137 2 6.1298143601457138e+00 6.7362111241787463e+00 5.6853639124293283e+00 0 0 0
138 2 7.0620591327820321e+00 7.8810210687919842e+00 5.0219133540460286e+00 0 0 0
59 2 9.6767790267385774e+00 8.7257726299093219e-01 4.4261849428162918e+00 0 0 0
140 2 9.4730881032707570e-01 9.5606605229231718e+00 3.0306948674823100e+00 0 0 0
62 2 9.0265111718023388e+00 4.4333538786722020e+00 6.8604967750509758e+00 0 0 0
147 2 8.6211109066704985e+00 9.1217669002778337e+00 1.2943262362278185e+00 0 0 0
328 1 4.4881123106903749e+00 9.5487841065824886e-01 1.0348024042274240e+01 0 0 0
154 1 8.1807520713490849e+00 1.0965874524152975e+01 3.5177860283842137e+00 0 0 0
155 2 7.7885451883082251e+00 1.1144301893122252e+01 4.3593269581378582e+00 0 0 0
156 2 9.1162821867334429e+00 1.0844858967781066e+01 3.5817287979669032e+00 0 0 0
163 1 7.4650078057317968e+00 1.2593113844181248e+01 1.5310449835107802e+00 0 0 0
164 2 7.7706490093988849e+00 1.1930447769077343e+01 2.1927672077820439e+00 0 0 0
165 2 8.1659417587746024e+00 1.2614443449189718e+01 8.7884202729635974e-01 0 0 0
166 1 8.8475679738937885e+00 7.5162223321078656e+00 5.2979422971446883e+00 0 0 0
167 2 9.2006538816422090e+00 8.2209000670166485e+00 5.9077038709052205e+00 0 0 0
168 2 8.8805039617797306e+00 6.6328436423423325e+00 5.7844776430785600e+00 0 0 0
169 1 9.3111033781549235e+00 1.2188605855814270e+01 6.8047157530894795e+00 0 0 0
171 2 9.2006912059638495e+00 1.2816003455135379e+01 6.0484273521146257e+00 0 0 0
175 1 7.2870484733945915e+00 8.6713164375466931e+00 2.4215533424402507e+00 0 0 0
176 2 7.4524098351494681e+00 9.5539202877757496e+00 2.8992932219825018e+00 0 0 0
177 2 6.3977160133604860e+00 8.6336466732301229e+00 2.0173696501845155e+00 0 0 0
450 2 4.4567969496791298e+00 1.0958341257569089e+01 9.6683699899773341e+00 0 0 0
3 2 2.1060530633350956e+00 2.6209995908898049e+00 7.7430754369070731e-01 0 0 0
437 2 4.3073337495348563e+00 8.5947140325827540e+00 1.0319166534382708e+01 0 0 0
34 1 5.3103343158961227e+00 2.6956583228231152e+00 9.1815980619776960e-01 0 0 0
927 2 8.4182351636029331e+00 1.8777568109611359e+01 8.0146646281499723e-01 0 0 0
220 1 4.3757672268009484e+00 1.4536968519704120e+01 3.3205997473065221e+00 0 0 0
221 2 4.4281047378621441e+00 1.5411934936042092e+01 2.9266160705822069e+00 0 0 0
222 2 4.4983854225394664e+00 1.3858680199103810e+01 2.6235370762467380e+00 0 0 0
223 1 5.9458276340999099e+00 1.7642803331245396e+01 5.5529190446365257e+00 0 0 0
224 2 6.7619736749150992e+00 1.7338720580353389e+01 5.1448942688401482e+00 0 0 0
225 2 5.7388917846706615e+00 1.6929039074892444e+01 6.2410568952729086e+00 0 0 0
226 1 1.6617445157345123e+00 1.7341076491462942e+01 3.7999693048968259e+00 0 0 0
227 2 1.2522395371186912e+00 1.8153788828898968e+01 3.3787222041783256e+00 0 0 0
228 2 1.2749110986531271e+00 1.6572470683014558e+01 3.3819214197686627e+00 0 0 0
229 1 4.6926791639295127e+00 1.9538593071429972e+01 1.6393753925700616e+00 0 0 0
230 2 4.5347389568085958e+00 1.8747680744908628e+01 2.1468140763359616e+00 0 0 0
231 2 4.6409981557916202e+00 4.8788181526143987e-01 2.2983338331240395e+00 0 0 0
232 1 4.4875480934745156e+00 1.7352230018177899e+01 3.3278122340963376e+00 0 0 0
233 2 3.5832664638244562e+00 1.7490834943266528e+01 3.6598241924384878e+00 0 0 0
234 2 5.0327126710204606e+00 1.7394080384188797e+01 4.1999540087680840e+00 0 0 0
235 1 7.2031599930899348e-01 1.9462484468533596e+01 2.0185832692568662e+00 0 0 0
236 2 1.0695586911165476e+00 6.3242027957003510e-01 2.1376411550346051e+00 0 0 0
237 2 1.5154675846236771e+00 1.9230613545129977e+01 1.5500621673671060e+00 0 0 0
238 1 2.0784691516640290e+00 1.4100957481256815e+01 4.9099707979260172e+00 0 0 0
239 2 2.5615756760232262e+00 1.4334939122274264e+01 4.1022223023477160e+00 0 0 0
240 2 1.1351211944651802e+00 1.4024203667443130e+01 4.6323304202241218e+00 0 0 0
241 1 2.7796740404876670e+00 1.8114230983626463e+01 6.7328371494453272e+00 0 0 0
242 2 2.6069241442851130e+00 1.8149253735776313e+01 5.7916486515181678e+00 0 0 0
243 2 2.7236082953085803e+00 1.7179048458738421e+01 6.9746192648611487e+00 0 0 0
244 1 5.9978754885544285e+00 1.3997631759311950e+01 5.1372108217356027e+00 0 0 0
245 2 5.7832759706310233e+00 1.4592360134937399e+01 5.9184241151966122e+00 0 0 0
246 2 5.4125044323428400e+00 1.4224219920878953e+01 4.3484732451986403e+00 0 0 0
247 1 1.4457357924328578e+00 1.5047597349871085e+01 2.3617937023085522e+00 0 0 0
248 2 1.2014483236293039e+00 1.4123403422350032e+01 2.2302245768100977e+00 0 0 0
249 2 1.9828344251866270e+00 1.5337519000516831e+01 1.6322292916855363e+00 0 0 0
251 2 5.9827470970784349e+00 1.5718956530217213e+01 1.2513653223156074e+00 0 0 0
343 1 1.0455500545425194e+00 5.9504783334368998e+00 8.8830346369238260e+00 0 0 0
262 1 8.0259995299479563e+00 1.7204287566966158e+01 3.7577659177488001e+00 0 0 0
263 2 8.9854734666894132e+00 1.7137542762949657e+01 3.8295447832080929e+00 0 0 0
264 2 7.8658054249600760e+00 1.7976861234299093e+01 3.1687231609104249e+00 0 0 0
271 1 7.3580646576225384e+00 1.9390143441604238e+01 2.0333144654162858e+00 0 0 0
272 2 7.4777796973149657e+00 5.2063055155506799e-01 2.3116906419464573e+00 0 0 0
273 2 6.4431010876246191e+00 1.9321485518586705e+01 1.8749550005122508e+00 0 0 0
274 1 8.6494645806772059e+00 1.4117099157813660e+01 4.9846782704688435e+00 0 0 0
275 2 8.8858136235841858e+00 1.4837177037448770e+01 5.7113752001575540e+00 0 0 0
276 2 7.6578453169161254e+00 1.4016867418781006e+01 4.9506229463336311e+00 0 0 0
277 1 9.5823623361450174e+00 1.8518828886396321e+01 6.9714184998666919e+00 0 0 0
278 2 9.2927731282810395e+00 1.8894490961764021e+01 6.1128932524365451e+00 0 0 0
279 2 8.8092631648212425e+00 1.8830372427324953e+01 7.5695233477539654e+00 0 0 0
283 1 7.2943647272319101e+00 1.5340251521397443e+01 1.9338327207240951e+00 0 0 0
284 2 7.4260411612192039e+00 1.5557309142123676e+01 2.8635168227502943e+00 0 0 0
285 2 7.2509732408273475e+00 1.4290538385096541e+01 1.9584324176531263e+00 0 0 0
558 2 4.4551093485546378e+00 1.7551437584111248e+01 9.9282813938910763e+00 0 0 0
325 1 2.9788022225226007e+00 2.3754948031364131e+00 6.7198247999164469e+00 0 0 0
326 2 2.9974289697432499e+00 3.1891232177780329e+00 6.1677088101892368e+00 0 0 0
327 2 3.8459477602280310e+00 2.4251969035597960e+00 7.1321711387794213e+00 0 0 0
329 2 4.5611424978702271e+00 3.1237095518198155e-01 9.5718017003943601e+00 0 0 0
337 1 4.7975169002402493e+00 5.5619816269387483e+00 8.7078093862468560e+00 0 0 0
338 2 4.6829542275941121e+00 4.7177944933233151e+00 9.1403749246947310e+00 0 0 0
339 2 4.4752364148188137e+00 6.2840753671783398e+00 9.3373711711661151e+00 0 0 0
711 2 8.5426607862967270e+00 5.4347669918914479e+00 5.7636320297502319e-01 0 0 0
344 2 1.1898833424208659e+00 5.2276006806177939e+00 9.5731927147946276e+00 0 0 0
345 2 1.7245569517194226e+00 5.7113829642518832e+00 8.2227838516232783e+00 0 0 0
355 1 1.1208276639962476e+00 1.8721612174817732e+00 8.8263572800455297e+00 0 0 0
356 2 9.8911306696591594e-01 9.0228410087789213e-01 8.7721139793888341e+00 0 0 0
357 2 1.7249416148429857e+00 2.0956678031141593e+00 8.0845546587510420e+00 0 0 0
358 1 5.6005751088845006e+00 2.8457941064815997e+00 7.4862201227011029e+00 0 0 0
359 2 5.9804092201429944e+00 3.6050450695690617e+00 7.0560623470732828e+00 0 0 0
360 2 5.6761979251524490e+00 2.2266909893431621e+00 6.7707570104691763e+00 0 0 0
361 1 9.2164594275946286e+00 2.4871317341331483e+00 7.1186306524124241e+00 0 0 0
362 2 9.0034785295513213e+00 1.7533194018215459e+00 6.4968055556258379e+00 0 0 0
363 2 8.6314817692611197e+00 2.2744990309637099e+00 7.9037741273447715e+00 0 0 0
254 2 8.5915876037922363e+00 1.5714087080849838e+01 8.0105618625536079e-01 0 0 0
379 1 7.5044262519323528e+00 6.1440368549879869e+00 9.1874906281988586e+00 0 0 0
380 2 7.6281266153191662e+00 7.1461440783002699e+00 9.2575922403918369e+00 0 0 0
381 2 6.5623777900828353e+00 5.9513674500768774e+00 8.9669201633383988e+00 0 0 0
391 1 7.3868693191737780e+00 2.1396050897824868e+00 9.2972114613762891e+00 0 0 0
392 2 7.8180089161004540e+00 2.8284563258559050e+00 9.8621909311230311e+00 0 0 0
393 2 6.5806528180865378e+00 2.4597346220882197e+00 8.8676395731845741e+00 0 0 0
31 1 1.0460827442277960e+00 2.2792217352855642e+00 1.9983338694364050e+00 0 0 0
433 1 3.0344949670701951e+00 9.1494339133451952e+00 7.1980337006566613e+00 0 0 0
434 2 3.0481510577382331e+00 1.0102548355086183e+01 7.0307526292020404e+00 0 0 0
435 2 2.2962593457201761e+00 8.9263073545487863e+00 7.8036060234967657e+00 0 0 0
675 2 1.6036088319166946e+00 5.7562036495976914e+00 7.2374601466989708e-01 0 0 0
445 1 4.8527226042542635e+00 1.2273076409853878e+01 8.4199605748961392e+00 0 0 0
446 2 4.5531460208082644e+00 1.3126434743724877e+01 8.7498763753267816e+00 0 0 0
447 2 4.1806853669427451e+00 1.2115382449940578e+01 7.7129446094558549e+00 0 0 0
111 2 1.9621672536412049e+00 8.8880940855588211e+00 1.0677874075759499e+00 0 0 0
451 1 7.9440180523969073e-01 1.2485353355339038e+01 8.7742726869872172e+00 0 0 0
452 2 9.8267243313506403e-01 1.3432282171272032e+01 9.0419661194556706e+00 0 0 0
463 1 7.2044593849576621e-01 8.6864347960614179e+00 8.8629317774477308e+00 0 0 0
465 2 8.0938078810934644e-01 7.7073191976426418e+00 8.8524781225900266e+00 0 0 0
466 1 5.8420850063941030e+00 9.1858583180714675e+00 7.4863468067653640e+00 0 0 0
467 2 6.0428927256365021e+00 8.6109544444270387e+00 6.6785251429698018e+00 0 0 0
468 2 4.8387574985220878e+00 9.2496803019167526e+00 7.5305841229436377e+00 0 0 0
469 1 9.2668836833024617e+00 9.6752957688943191e+00 7.2050562061605312e+00 0 0 0
470 2 9.2641244785303130e+00 1.0638358038170677e+01 7.0477979763589911e+00 0 0 0
471 2 8.7414731627345930e+00 9.3952755505606262e+00 7.9643366172324619e+00 0 0 0
573 2 1.0402629154575833e+00 1.6067315230950708e+01 9.6296243315873582e+00 0 0 0
487 1 7.7162585052771551e+00 1.2962240266949088e+01 9.1696581211907962e+00 0 0 0
488 2 8.4273902217332761e+00 1.2827390256352679e+01 8.5177187449403231e+00 0 0 0
489 2 6.9388201509490584e+00 1.2486146881641996e+01 8.7810788185617881e+00 0 0 0
499 1 7.5333398654519108e+00 8.7097335902244915e+00 9.3198016520984304e+00 0 0 0
500 2 7.5376276939240769e+00 9.4771514520278028e+00 9.9719770929242415e+00 0 0 0
501 2 6.7188386192024838e+00 8.8459159101280012e+00 8.7384187701775691e+00 0 0 0
571 1 7.9987449716314374e-01 1.5262816446094510e+01 9.1792644673863197e+00 0 0 0
443 2 1.0820698771382973e+00 9.6069443895232034e+00 1.0142651175021948e+01 0 0 0
541 1 2.8154458483901501e+00 1.5267264925672841e+01 7.2759709734958902e+00 0 0 0
542 2 2.1296961404374586e+00 1.5259727529963337e+01 7.9548459456291702e+00 0 0 0
543 2 2.5341300266049216e+00 1.4876778393303823e+01 6.4027027721402208e+00 0 0 0
553 1 4.7484629449218030e+00 1.8875585949658486e+01 8.5284996906706709e+00 0 0 0
554 2 5.6884695182875324e+00 1.8899515881022872e+01 8.2906619514835587e+00 0 0 0
555 2 4.1575145461530987e+00 1.8739165964304895e+01 7.7395686958451115e+00 0 0 0
258 2 9.8362458115461227e+00 1.3960507648544878e+01 3.7714223120572425e+00 0 0 0
559 1 7.0122545964866756e-01 1.9315872882088691e+01 8.1722594787398890e+00 0 0 0
560 2 1.2303333967869639e+00 1.8941833396329933e+01 7.4480476038949730e+00 0 0 0
561 2 9.1585997385094697e-01 1.8832620107781196e+01 8.9853608035213348e+00 0 0 0
139 1 4.3139691301537630e-01 8.7868359573123342e+00 2.6708769744948988e+00 0 0 0
574 1 5.4100361973287141e+00 1.5610254044806108e+01 7.1071258469684500e+00 0 0 0
575 2 5.9540968379302095e+00 1.5601301476137246e+01 7.9473216088748622e+00 0 0 0
576 2 4.5086301506744970e+00 1.5603712791741271e+01 7.4014707708103860e+00 0 0 0
577 1 9.0363133547673726e+00 1.5859360976206450e+01 7.1189556131889482e+00 0 0 0
578 2 9.2602777522309427e+00 1.6854772946095231e+01 7.0016413618163167e+00 0 0 0
579 2 8.2765038924138565e+00 1.5731170798672135e+01 7.7881812671537718e+00 0 0 0
210 2 5.5870283414362776e-01 7.5502594935443357e+00 4.9720665589663149e+00 0 0 0
595 1 7.5432141300213011e+00 1.9439014028568899e+01 8.5538512617477380e+00 0 0 0
596 2 7.6114802158430388e+00 5.8022058643663099e-01 8.8640945512156595e+00 0 0 0
597 2 7.6494840059320870e+00 1.8939106396075879e+01 9.3574842670582807e+00 0 0 0
607 1 7.0349561103663225e+00 1.5523515749438610e+01 9.0871890263458397e+00 0 0 0
608 2 7.4030693089493260e+00 1.4650419024521618e+01 9.3157857057150153e+00 0 0 0
11 2 1.3407166879423622e+00 4.0976195378621831e+00 4.7456479806741347e+00 0 0 0
444 2 1.1062271377297090e+00 1.1151536793381808e+01 1.0094885846493016e+01 0 0 0
109 1 2.3890241362515403e+00 9.3843126442784186e+00 3.4958519630406254e-01 0 0 0
142 1 5.1734195474472200e+00 9.1877994803343306e+00 6.2524849686803119e-01 0 0 0
2 2 3.6288183922809494e+00 2.7029436893799885e+00 4.0862680004692453e-01 0 0 0
586 1 8.2492481199514813e+00 1.7487497056726887e+01 1.0377289453261438e+01 0 0 0
218 2 3.5331715134866051e+00 1.5871002876121061e+01 4.1271762976473381e-01 0 0 0
550 1 1.5639298422639178e+00 1.7887481209126342e+01 1.0368483391279261e+01 0 0 0
250 1 5.2663763313524576e+00 1.5862242676454755e+01 5.1041930066861463e-01 0 0 0
36 2 5.5951776632570960e+00 3.5302652993349883e+00 5.0045739512049403e-01 0 0 1
37 1 9.1551761365776247e+00 2.5942255927835278e+00 2.4089666888747183e-01 0 0 0
145 1 9.1450922868518774e+00 9.1006730478112718e+00 4.4984435919615096e-01 0 0 0
925 1 9.0335443554106103e+00 1.8332171252015399e+01 2.0382374882629534e+01 0 0 0
889 1 3.0391993400854118e+00 1.8507015003230194e+01 2.0369498856832031e+01 0 0 0
667 1 1.0562992801970297e+00 6.1160359142121488e+00 1.5582880170135262e+01 0 0 0
836 2 3.7026945497240404e-01 1.0828969488548491e+01 1.8949269983300745e+01 0 0 0
876 2 1.1178306789056502e+00 1.7316518357966800e+01 1.8070144683596538e+01 0 0 0
817 1 9.2888654423000450e+00 1.1798056910440110e+01 2.0184088469480290e+01 0 0 0
331 1 6.2047334975401620e+00 4.1867589383642274e+00 1.2277271156042909e+01 0 0 0
332 2 7.0226535189539909e+00 4.1126474759167815e+00 1.1722663394075100e+01 0 0 0
333 2 5.4083485239356799e+00 3.9705381834690359e+00 1.1806447331081420e+01 0 0 0
491 2 9.2217795817874979e+00 6.8287521629715524e+00 1.2304938319611002e+01 0 0 0
371 2 9.3431365520317691e+00 3.9623607359607504e+00 1.0688081677306096e+01 0 0 0
686 2 1.0059366066515228e+01 2.6466033862658720e+00 1.3870768328157970e+01 0 0 0
346 1 2.1202600734366386e+00 8.0185643853252309e-01 1.1667842228301456e+01 0 0 0
347 2 2.6285594392050307e+00 8.3083290848294677e-01 1.0844022034367256e+01 0 0 0
348 2 2.4230697816580711e+00 1.6159421252851247e+00 1.2103562155192300e+01 0 0 0
349 1 3.0860335381323942e+00 5.5789381043451352e+00 1.3766224968879452e+01 0 0 0
350 2 2.7965867256690964e+00 6.2003559714732246e+00 1.3001855324066980e+01 0 0 0
351 2 2.9088417107927089e+00 4.6570422801369311e+00 1.3485727153908327e+01 0 0 0
352 1 6.0370895085690757e+00 4.0095524544776717e-02 1.2527558123578759e+01 0 0 0
353 2 6.9417671789367148e+00 3.0580275355336617e-01 1.2198648656211345e+01 0 0 0
354 2 6.0670200351857630e+00 1.8889010611221899e+01 1.2680713665716356e+01 0 0 0
674 2 2.5130682474319386e+00 4.4376616660162291e+00 2.0323825802883352e+01 0 0 0
382 1 8.7050064145575039e+00 8.4737680945715588e-01 1.1737853850746228e+01 0 0 0
383 2 9.2250067056780107e+00 3.4475913374243861e-01 1.2424258249801944e+01 0 0 0
599 2 9.2176270209854980e+00 1.4529633094491109e+01 1.1175773416599672e+01 0 0 0
385 1 9.3451844884496236e+00 5.5798315163768351e+00 1.3487189265470420e+01 0 0 0
386 2 9.0910339502147455e+00 4.6597295418552580e+00 1.3348638647409659e+01 0 0 0
387 2 8.7334364029272855e+00 5.8723858157758286e+00 1.4175132631659469e+01 0 0 0
334 1 1.3658955255131080e+00 3.9547934967980529e+00 1.0737454388355031e+01 0 0 0
449 2 3.2154681755893453e+00 1.0492958641275095e+01 1.0474512040713211e+01 0 0 0
439 1 5.7433973684585808e+00 1.1035454479413128e+01 1.2391883842133245e+01 0 0 0
440 2 5.4504967736629339e+00 1.2022571797329119e+01 1.2481653033065957e+01 0 0 0
441 2 5.1862199965780800e+00 1.0708895769743986e+01 1.1654819740022178e+01 0 0 0
587 2 9.1686837189607537e+00 1.7213332748610142e+01 1.0534191560480854e+01 0 0 0
454 1 2.2142543765242939e+00 7.3044839022095926e+00 1.2033460923068999e+01 0 0 0
455 2 2.8818153420812851e+00 7.4301941853113984e+00 1.1322429194042483e+01 0 0 0
456 2 2.2900115806960311e+00 8.0915469941607228e+00 1.2663604368903080e+01 0 0 0
457 1 3.0497704293647372e+00 1.1779258860247159e+01 1.3758482096119605e+01 0 0 0
458 2 3.8567755324996846e+00 1.2093363928178068e+01 1.4190909007147152e+01 0 0 0
459 2 2.2704288701965574e+00 1.2097401022132935e+01 1.4363443642921137e+01 0 0 0
460 1 6.3278118920746342e+00 6.9780604392391936e+00 1.2174622727594752e+01 0 0 0
461 2 6.0895869637680837e+00 5.9980179542561984e+00 1.2305134012886358e+01 0 0 0
462 2 7.2441222737644235e+00 6.9489436520941785e+00 1.1779899404918460e+01 0 0 0
552 2 2.4504910284668675e+00 1.7752520538417095e+01 1.0660761671384449e+01 0 0 0
480 2 7.3283380619721292e+00 1.0947255785251780e+01 1.1630733953769729e+01 0 0 0
551 2 9.3754589720687997e-01 1.7984059722724652e+01 1.1100826869152211e+01 0 0 0
490 1 8.8643901464210924e+00 7.5920471240143854e+00 1.1788111488069951e+01 0 0 0
545 2 3.5870835159463805e+00 1.4137190678085075e+01 1.0958859372105413e+01 0 0 0
492 2 8.8033273434176458e+00 8.2358524709854404e+00 1.2489499906993412e+01 0 0 0
493 1 9.1731998633863334e+00 1.2333338720364685e+01 1.3483084662938809e+01 0 0 0
494 2 8.7119845431338128e+00 1.2594590112334856e+01 1.4329828324833812e+01 0 0 0
932 2 7.7467314994595231e+00 1.5827051211425319e+01 1.6372627653439871e+01 0 0 0
895 1 9.1279594656684349e-01 1.5239239997337041e+01 1.5435183004720736e+01 0 0 0
905 2 9.7697988227993946e+00 1.3964079254071910e+01 1.7140199409484641e+01 0 0 0
336 2 7.1796614651612789e-01 4.2690415650309399e+00 1.1468474959884935e+01 0 0 0
810 2 9.9096853789924335e+00 1.0513374586213837e+01 1.7220924704029606e+01 0 0 0
495 2 8.8392809289596403e+00 1.3031870709542918e+01 1.2823479093212704e+01 0 0 0
926 2 9.0767434305446191e+00 1.7343939290511422e+01 2.0250905139550362e+01 0 0 0
547 1 6.3422953895494034e+00 1.7246137532441566e+01 1.2501381043125567e+01 0 0 0
548 2 5.6005777071183793e+00 1.7127055548330155e+01 1.1885155139140492e+01 0 0 0
549 2 5.9491885624053378e+00 1.6800930052682560e+01 1.3279438600472220e+01 0 0 0
668 2 1.1216726034858573e+00 7.0469852640720649e+00 1.5775526584068492e+01 0 0 0
562 1 2.2748780463983120e+00 1.4066296756136794e+01 1.2106175896883784e+01 0 0 0
563 2 1.2882569344969295e+00 1.4143664566048903e+01 1.1997254703884998e+01 0 0 0
564 2 2.4212433491112271e+00 1.3188457310451495e+01 1.2606502653217994e+01 0 0 0
565 1 2.8592983917229398e+00 1.8590093067065538e+01 1.3249417318965719e+01 0 0 0
566 2 2.6261458993229505e+00 1.9299780566604021e+01 1.2699515257965786e+01 0 0 0
567 2 3.7052465810963606e+00 1.8802856619179529e+01 1.3685621923595967e+01 0 0 0
568 1 6.0788152592087883e+00 1.3813148169156854e+01 1.2335030960192348e+01 0 0 0
569 2 7.0047970936639006e+00 1.4149474995307463e+01 1.2136647760913378e+01 0 0 0
570 2 5.6518929566275098e+00 1.4386636486452351e+01 1.2988050339431533e+01 0 0 0
426 2 4.5336752350305881e-01 6.8262901612620397e-01 1.2096501924547944e+01 0 0 0
681 2 1.0212873139341001e+00 7.7342539663456666e-01 1.5958781602857812e+01 0 0 0
588 2 7.7495045142358601e+00 1.7380280889130177e+01 1.1246366155794092e+01 0 0 0
598 1 8.4750544710658122e+00 1.4509745366810254e+01 1.1818588513882295e+01 0 0 0
931 1 7.6747209119899225e+00 1.5237549889387692e+01 1.5594668617151447e+01 0 0 0
600 2 8.8241074123381846e+00 1.5097579971617058e+01 1.2499204313320851e+01 0 0 0
601 1 9.4289870805030969e+00 1.8870723301703947e+01 1.3631004470691472e+01 0 0 0
603 2 8.6100332252507918e+00 1.8988632995101028e+01 1.4199457946502623e+01 0 0 0
478 1 7.9305538387954666e+00 1.0868016574547946e+01 1.0879616118702582e+01 0 0 0
144 2 5.6040775970383852e+00 9.6155867861261139e+00 2.0403645043603053e+01 0 0 0
649 1 2.8026752638155492e+00 2.7429857104500712e+00 1.3732313823912170e+01 0 0 0
650 2 3.6642452456460486e+00 2.3158782739934498e+00 1.4002489134564104e+01 0 0 0
651 2 2.1932953385069807e+00 2.5943651223507969e+00 1.4464153477435355e+01 0 0 0
652 1 4.2912421645480103e+00 1.1677531061808051e+00 1.7270314873795595e+01 0 0 0
653 2 4.3632984984650447e+00 2.1532068882993456e+00 1.7336211793683155e+01 0 0 0
654 2 5.0581335018979878e+00 8.2018480828338103e-01 1.7751262117306407e+01 0 0 0
655 1 6.2159636272594545e+00 4.2360034323887445e+00 1.9445346107481278e+01 0 0 0
656 2 5.7863076424789055e+00 5.1202744093302277e+00 1.9612682106333754e+01 0 0 0
657 2 7.0460150235897734e+00 4.5962923845172172e+00 1.9040158712364462e+01 0 0 0
658 1 1.4445844671050465e+00 4.2596598270441790e+00 1.7620984025282134e+01 0 0 0
659 2 1.3371928351745441e+00 3.4050487734549564e+00 1.7091180592815963e+01 0 0 0
660 2 1.3652090384673632e+00 5.1034072079731834e+00 1.7036702233468471e+01 0 0 0
661 1 5.1713771204143510e+00 5.5278752790934886e+00 1.5562186677059991e+01 0 0 0
662 2 4.8018114015737012e+00 4.8313795581993322e+00 1.6134498916877369e+01 0 0 0
663 2 4.5514627334125182e+00 5.6204664394311070e+00 1.4788115926502261e+01 0 0 0
664 1 4.2210268553922470e+00 3.8187966174606762e+00 1.7487033014835703e+01 0 0 0
665 2 3.2988831529107019e+00 4.1664801612652838e+00 1.7671066641683357e+01 0 0 0
666 2 4.8800751603971522e+00 4.0633250561646816e+00 1.8172563466045350e+01 0 0 0
252 2 5.7257579743377551e+00 1.6359338747160514e+01 2.0357109559438534e+01 0 0 0
442 1 1.2911956560147704e+00 1.0401040274058442e+01 1.0690033657809527e+01 0 0 0
669 2 1.6601510232084589e+00 5.9594322136609836e+00 1.4835395755923827e+01 0 0 0
670 1 2.1120816613833862e+00 6.9577775811920151e-01 1.8938324601691054e+01 0 0 0
671 2 2.3299763410488930e+00 1.4149046503898872e+00 1.9553859367131139e+01 0 0 0
672 2 2.6253970430044866e+00 9.7380617446024320e-01 1.8135703690350422e+01 0 0 0
676 1 6.0330580350988097e+00 4.3725779386954722e-01 1.9338002014595819e+01 0 0 0
677 2 5.8696580243550116e+00 1.0547335688760420e+00 2.0139530252558622e+01 0 0 0
678 2 6.9894861490854456e+00 5.7884059056058201e-01 1.9201139395933065e+01 0 0 0
924 2 7.7626041154945353e+00 1.3848815521358267e+01 1.8575723174104702e+01 0 0 0
679 1 1.0068629626777268e+00 1.7107926965017042e+00 1.6117419322294928e+01 0 0 0
217 1 2.7296975241565802e+00 1.5764395146858542e+01 2.0591949511563477e+01 0 0 -1
682 1 5.3607321819665081e+00 2.1031150271884060e+00 1.4014895967416821e+01 0 0 0
683 2 5.7122019969772699e+00 2.9077369278793808e+00 1.3574906536424177e+01 0 0 0
684 2 5.6964043348137876e+00 1.3122894722465142e+00 1.3560885211765250e+01 0 0 0
685 1 9.1448626919479779e+00 3.0058735720702621e+00 1.3837768008151620e+01 0 0 0
687 2 8.7173379294599762e+00 2.4732914968773736e+00 1.3133321753487929e+01 0 0 0
694 1 8.4105179008257043e+00 4.3503430238633731e+00 1.7576839367519170e+01 0 0 0
695 2 9.3840085545002658e+00 4.0851468367514254e+00 1.7550739650037961e+01 0 0 0
696 2 7.9667395825271532e+00 3.5707615560114223e+00 1.7176284085493485e+01 0 0 0
703 1 7.7837459562166211e+00 6.0361015200365422e+00 1.5615466096985150e+01 0 0 0
704 2 8.1440927812243800e+00 5.5079026846549546e+00 1.6338635069828243e+01 0 0 0
705 2 6.9619180535094642e+00 5.6578074015166289e+00 1.5240156406840848e+01 0 0 0
706 1 8.7793346065659730e+00 3.0732346241167369e-01 1.8737355727245411e+01 0 0 0
707 2 9.5171831670075751e+00 5.8504224722374487e-01 1.8195019838245901e+01 0 0 0
708 2 8.8683805792053363e+00 1.9308323446510940e+01 1.9220448519427535e+01 0 -1 0
715 1 7.5813481873818702e+00 2.1038913232255219e+00 1.5893046873257344e+01 0 0 0
716 2 6.7651271549842829e+00 2.1533553437353552e+00 1.5413994845283188e+01 0 0 0
717 2 8.2414941756778877e+00 2.2452289615113652e+00 1.5157993680390826e+01 0 0 0
787 1 6.7756536287223756e-01 8.7598752126936716e+00 1.6067949812038236e+01 0 0 0