LAMMPS data file via write_data, version 15 Apr 2020, timestep = 0

1944 atoms
2 atom types

-2.1534558656600922e-01 4.0197450586564827e+01 xlo xhi
0.0000000000000000e+00 1.9738957902673476e+01 ylo yhi
0.0000000000000000e+00 2.0396106037643062e+01 zlo zhi
-2.0764429435651266e-02 -1.7711667994589675e-02 2.5609114380024778e-02 xy xz yz

Masses

1 16
2 2

Atoms # atomic

491 2 2.2302775099009309e+00 3.0923982141471190e-01 3.0988849611645120e+00 0 1 0
915 2 1.1096016414376797e+01 6.7620141329104451e+00 8.2526881052263317e+00 0 1 0
90 2 1.5808061743646174e+01 1.2768199074671411e+01 6.3941974642083306e+00 0 0 0
73 1 1.9401543557985846e+01 3.9481877787693014e+00 5.0536079706137951e+00 0 0 0
1752 2 2.4356205578971664e+00 1.4567477244007724e+01 4.8347830823143417e-01 0 1 1
1300 1 3.6374269269299826e+00 4.1825488556536037e+00 4.2239021544721087e+00 0 0 0
262 1 8.3188789206236251e+00 2.9382046972395526e+00 3.2375213014866531e+00 0 1 0
77 2 1.8221023253877739e+01 1.7099122479083587e+01 9.3624561043325549e+00 0 -1 0
1089 2 8.2133036696776229e-01 3.6723825829453034e+00 6.1383141433919386e+00 0 1 0
858 2 1.6666245372066490e-01 2.6342558053045466e+00 7.9839704436390644e+00 1 0 0
260 2 5.3879002217057232e+00 1.7832900336418554e+01 4.4448114316271594e+00 0 -1 -1
445 1 1.0327855741205036e+01 1.6744438043419514e+01 1.6972757671140102e+00 0 0 -1
1380 2 1.5223388541627829e+01 1.7755293443349299e+01 5.7693287853898614e+00 0 0 1
1097 2 3.3763146712676209e+00 1.6225267372103151e+01 8.6140541323987811e+00 0 1 0
481 1 1.7503012713446154e+01 8.8770951771588074e+00 2.9660868141964776e+00 0 0 0
703 1 7.0161933804039442e+00 1.8561410941064253e+01 7.5644746591439862e+00 0 0 -1
58 1 1.0489901522786593e+00 6.5067617442220973e+00 4.5056121208836828e+00 0 0 -1
662 2 3.4549098015863111e-01 2.3491451392437974e+00 1.9735338007647951e+00 0 0 1
1162 1 1.2651274834074025e+01 1.1465159596491281e+01 8.8918368151925069e+00 0 1 1
1812 2 1.7504918448064664e+01 5.8621205955418043e+00 6.8133682914697342e+00 0 0 1
1559 2 6.9703863366627985e+00 1.3607204423497143e+01 8.4328381690790906e+00 0 0 1
777 2 1.9714195410107784e+01 5.5851241695075480e+00 7.5460189384531384e+00 0 0 0
1762 1 -7.5799609369256449e-04 5.6664380365156584e+00 8.6036681170281903e-01 0 1 0
661 1 -4.2077194830549974e-02 1.8758291432555583e+00 1.2411271393667613e+00 0 0 1
950 2 3.4648938160220468e+00 9.3497450940529898e+00 6.1975022052443052e-01 0 0 0
530 2 1.2533291891708455e+01 8.5348380189290438e+00 6.5845816160314543e+00 0 1 0
1323 2 1.2247564192328133e+01 1.4614919865743158e+01 4.5286549411871624e+00 0 0 0
1347 2 1.1910955622096749e+01 6.2519269932378503e+00 2.1147477651753297e+00 0 0 1
1600 1 1.4944365445518855e+01 9.7440912268332749e+00 2.3990436224357365e+00 0 1 1
48 2 1.2510150971237926e+00 1.1693186137802082e+01 6.7984480625281103e+00 0 -1 0
11 2 5.3980930405661298e-01 1.8425891270892620e+01 7.8207325721687027e-01 0 -1 0
261 2 5.9084387532692153e+00 1.6388026225631041e+01 4.4160101502220153e+00 0 -1 -1
1750 1 2.7303903685371860e+00 1.4427143785466603e+01 1.4323089076619828e+00 0 1 1
711 2 1.9347760501818996e+01 2.9412654728426757e+00 6.7047971888958191e+00 0 0 0
314 2 1.8929173841829606e+01 9.3476485214308447e+00 6.3592717632563023e+00 0 0 0
935 2 1.4958645619372856e+01 8.5029309986765700e+00 5.2622317238883376e+00 0 1 1
954 2 1.6767856922296399e+01 1.9000283462718762e+01 6.7371509683998196e+00 0 0 1
750 2 8.0391681028781541e+00 5.6846485787971242e+00 1.0087417522321665e+01 0 0 1
1372 1 1.3291387422292161e+01 5.1950260143354177e+00 4.7933722782377961e+00 0 0 1
106 1 1.0881300601311237e+01 1.9238290062672668e+01 9.4420906498581374e+00 0 0 0
105 2 1.0475713942070231e+01 3.3892716269949434e+00 2.3880245041177544e+00 0 0 0
677 2 1.3574638110963722e-01 8.7782513411696161e+00 2.1292805813170306e+00 0 0 0
103 1 1.1191988741364728e+01 3.6979347153797684e+00 2.9853543110165601e+00 0 0 0
906 2 1.7677146506562007e+01 7.5299615560052588e+00 1.8172372567662573e-01 0 0 1
856 1 1.4223612990197310e-01 1.7021149046930004e+00 8.3302758847596543e+00 1 0 0
1763 2 8.5599218898100848e-03 6.6619552418370223e+00 1.0575499506492962e+00 0 1 0
936 2 1.5396466687498950e+01 7.1129844280093684e+00 5.6169060453144359e+00 0 1 1
1169 2 1.8212867094033186e+01 8.7648771297112127e+00 1.7219332971476986e+00 0 0 0
1125 2 1.8240726034606549e+01 1.3337877800577369e-01 5.2545417371573073e+00 0 1 0
268 1 1.9721652026342884e+01 1.3159006353329243e+01 4.0051866543692167e+00 0 0 0
1803 2 2.2457650322117635e+00 9.9171558668412256e+00 3.3972991795869523e+00 0 1 1
519 2 1.9158504074155598e+01 1.5714682941850276e+01 5.2301128148213092e+00 0 0 0
292 1 6.1617952695701783e+00 3.8134852420761551e+00 4.4599410727384372e+00 0 -1 -1
1819 1 4.5227581713366272e+00 1.3785699521950022e+01 6.9384239704828907e+00 0 0 0
1170 2 1.9630922958519712e+01 8.4116215998668586e+00 8.4543198814477205e-01 0 0 0
871 1 7.2746225024904962e+00 1.5215720935437929e+01 4.0300205044571609e+00 0 0 0
264 2 8.2589588678702857e+00 2.1792869401771164e+00 2.5894471613938514e+00 0 1 0
1561 1 1.7415671506806454e+00 1.8133467070305631e+01 5.8409904895338665e+00 0 0 0
874 1 1.1561537483685983e+01 7.0483584036508473e+00 3.6626205637096922e+00 0 0 0
1560 2 7.3677807780739961e+00 1.5109274748111552e+01 8.7544081652258026e+00 0 0 1
1554 2 1.4200325068989599e+01 8.6596409380779065e+00 7.8325386043584180e+00 0 0 1
962 2 1.7965106309766736e+00 4.8194181407185939e+00 9.3197510514737800e+00 0 0 0
1161 2 5.0171482120662807e+00 1.1434713860676222e+01 5.7027168123255541e+00 0 1 0
1168 1 1.8622622502655609e+01 8.6305957314363919e+00 7.9665253288214943e-01 0 0 0
712 1 9.0117684658850532e+00 7.9969778024229745e+00 6.4027537844332469e+00 0 0 1
1740 2 2.7797647129716968e-01 8.3575805006615056e+00 7.5939474022171760e+00 0 0 0
1547 2 9.6292890491480669e+00 2.1732077835214003e+00 9.9404211028277771e+00 0 1 0
944 2 1.9563739260604706e+01 1.8201610390963491e+01 3.8887071300948466e+00 0 0 1
937 1 5.9645118573508489e+00 7.9274605850141615e+00 3.0272221734811289e-01 0 0 0
663 2 7.2136743036566076e-01 1.8527368657158687e+00 5.8662557734014253e-01 0 0 1
1297 1 1.1801187756719091e+01 1.5370136571667445e+01 8.8436549350442988e+00 0 -1 0
913 1 1.0331261772867405e+01 7.1792928495047388e+00 8.6614653580871348e+00 0 1 0
1148 2 1.2545407017482891e+01 1.2370145612150834e+00 1.4543041968705306e-01 0 1 0
1818 2 1.8835489531481016e+01 1.1691481910357309e+00 1.6715322680087211e-01 0 2 1
60 2 8.9941770419612044e-02 6.3112967147648682e+00 4.6246195141613775e+00 0 0 -1
1108 1 1.3319935551760338e+01 2.0227126563251772e+00 6.7149079702498593e+00 0 1 1
483 2 1.6552940178213113e+01 9.1374984539876571e+00 2.8247942908117354e+00 0 0 0
744 2 1.4458375429494176e+01 5.1939221595882792e+00 9.6002972157822928e+00 0 -1 0
1615 1 2.2507081885350795e+00 2.3925948049015422e+00 5.5037156529605316e+00 0 1 0
857 2 9.8724106814994084e-01 1.7101674915401743e+00 8.9256014020027976e+00 1 0 0
286 1 1.8450512969837703e+01 5.0092477711919816e+00 1.4204708679633435e+00 0 0 0
1163 2 1.2918689786073756e+01 1.0602932241861641e+01 8.6515796653148431e+00 0 1 1
88 1 1.6310707720832454e+01 1.1950956794352836e+01 6.1397238976615762e+00 0 0 0
465 2 1.5180500197692847e+01 4.5441897664680715e+00 2.6636872306698676e+00 0 0 -1
484 1 5.4898756482046567e+00 8.1465286763799973e+00 6.3411700308022745e+00 0 0 0
1322 2 1.2789696250555307e+01 1.5487945265671589e+01 5.6868473946144134e+00 0 0 1
1358 2 1.5546370643268434e+01 1.5142161960488581e+01 7.3087373195072534e+00 0 0 -1
1527 2 9.3246864764843753e+00 1.6535646455388211e+01 6.0998513432247909e+00 0 0 1
710 2 1.9775691265377670e+01 1.9738481570137041e+00 7.8253331013358167e+00 0 0 0
1612 1 3.5418808852788159e+00 3.0457641593542339e-01 6.5703118619699445e+00 0 1 0
1316 2 2.4341259296668869e+00 1.4510771885140313e+01 5.2511769549472485e+00 0 -1 0
102 2 1.7966508280302005e+01 1.5030062042585126e+01 1.8801852276588271e+00 0 0 0
459 2 1.8079420446116035e+01 6.9752539166238963e+00 8.9520967669175384e+00 0 1 0
1743 2 -4.5675604332359537e-02 9.7640040837365327e-02 7.8943696955589484e+00 0 1 0
344 2 1.7808715151200570e+01 1.2630267223177183e+01 1.1405339339118929e+00 0 0 0
1538 2 2.3937580114864482e-01 1.5291873306877948e+01 2.1412168045471494e+00 0 0 0
28 1 1.0453180608313554e+01 1.4848628401761973e+01 3.5338228614314393e+00 0 -1 0
1747 1 5.1585488520665477e+00 1.3139244313880559e+01 2.1329782322324324e+00 0 0 1
451 1 1.0316874212859219e+01 1.4159224489190821e+01 6.9083212887773566e+00 0 0 -1
288 2 1.7610591704633254e+01 5.2948811773001259e+00 9.7407038396366208e-01 0 0 0
287 2 1.8245000979005329e+01 4.1678981411057805e+00 1.9310204653881609e+00 0 0 1
307 1 1.3138032147573508e+01 1.9357477668361717e+01 8.3777475209015666e+00 0 0 0
941 2 1.2701154154741003e+01 5.0506179693861615e+00 8.2182484927128669e+00 0 1 1
1810 1 1.8316732776114403e+01 6.2764642707843725e+00 6.9906282744750348e+00 0 0 1
457 1 1.7830237543519743e+01 7.3269707635955008e+00 9.8164952815869242e+00 0 1 0
506 2 6.6726912441779955e+00 5.3150539962002599e+00 4.8674577566088679e+00 0 0 0
1749 2 5.4863678907451163e+00 1.2450673701372775e+01 1.5151843607380782e+00 0 0 1
714 2 8.5924306890781459e+00 7.2636982547271316e+00 5.8975910939562084e+00 0 1 1
251 2 9.8790028496262909e+00 1.1929975092928521e+01 3.3995127418299664e+00 0 -1 0
1792 1 8.9388619849222728e+00 1.6851142982798795e+00 5.2930120223144348e+00 0 0 1
1354 1 6.1210532317685100e+00 1.7716063390210966e+01 1.5916362006690405e+00 0 -1 2
1183 1 8.2581477247707564e+00 4.3364485412166758e+00 7.2221132235437873e+00 0 0 0
1577 2 1.8952561467465504e+01 7.4060746686952159e+00 3.8227217325809950e+00 0 0 1
1526 2 8.3885259559917138e+00 1.6207411847641655e+01 4.8401167573901223e+00 0 0 1
220 1 1.3748754469206128e+01 8.4760697607449451e+00 2.1873440912328690e-01 0 2 0
1378 1 1.4583209917400030e+01 1.7597856513947956e+01 5.0258865808213642e+00 0 0 1
343 1 1.7832215613683211e+01 1.3217048534716293e+01 1.9343972505761946e+00 0 0 0
84 2 1.6551421144874389e+01 4.5873607401783270e+00 9.3684516038296515e+00 0 0 -1
276 2 1.2680399206843534e+01 9.8291395300608126e+00 5.0240534238790380e+00 0 0 0
961 1 1.6723661847385316e+00 5.4832217369431984e+00 8.6056353417050744e+00 0 0 0
1532 2 2.9984698414066906e+00 8.7392656771726109e+00 8.8500685541414157e+00 0 0 0
83 2 1.7760947878912585e+01 3.9230256384244000e+00 8.7520194524773025e+00 0 0 -1
872 2 6.9524711967566084e+00 1.4413797320313542e+01 4.4441815190050837e+00 0 0 0
1562 2 2.0436808178004875e+00 1.7210052103475071e+01 5.9848504770470070e+00 0 0 0
1758 2 6.1164841015697613e+00 1.4357530989097057e+01 1.8401087875318842e+00 0 0 1
19 1 3.2234611880408459e+00 7.7265681649519973e+00 1.6926008582166976e-01 0 0 0
463 1 1.5189994925083617e+01 3.6400515759904590e+00 2.9592766681210327e+00 0 0 -1
10 1 -2.0880242143506880e-01 1.8861942156725181e+01 1.3220599931927430e+00 0 -1 0
485 2 6.0644016592066867e+00 8.0574973601953364e+00 5.5563155704397387e+00 0 0 0
966 2 4.3037358913455019e+00 1.1249825243143555e+01 8.4684129182934864e+00 0 0 0
1185 2 8.7867802703006017e+00 4.6527356726786371e+00 6.4599437685588601e+00 0 0 0
68 2 1.6012144382248523e+00 1.7048630136226681e+01 9.7752545949027727e+00 0 -1 0
86 2 2.1185205837584311e+00 9.2441815942025336e+00 6.4603733664633110e+00 0 0 -1
1579 1 6.9388186672025476e-01 2.4734992338872233e-01 4.0707074913477319e+00 0 0 0
676 1 2.4991665662385365e-02 8.5860184583666079e+00 1.1902493609929654e+00 0 0 0
1815 2 1.7887148522660766e+01 1.7046990380286214e+01 7.1896244537975151e-01 0 0 1
1536 2 7.6436113857038483e+00 1.8327374437646540e+01 7.8505768934504472e-01 0 -2 1
1137 2 6.4627958168413944e+00 1.0985136821315461e+01 3.7257339040255792e+00 0 1 0
1156 1 8.7061140543254982e+00 1.0661435014647040e+01 5.6369574313473736e+00 0 0 0
1088 2 9.0385536612902961e-01 4.5762191843614559e+00 7.4298623283497216e+00 0 1 0
682 1 5.7728356022660412e+00 1.3000693506633610e+01 4.7574303353303389e+00 0 -1 0
75 2 1.9324687135487782e+01 4.8895098346788197e+00 4.9979013433125346e+00 0 0 0
1208 2 1.9642289052197157e+01 1.7388241821208972e+01 7.7246029588520519e+00 0 0 0
1128 2 9.8265965294199002e+00 1.7896324558753474e+01 8.7195060802498752e+00 0 0 1
524 2 1.3410605638729578e+01 1.3686949882486232e+01 6.3910320515761914e+00 0 1 1
245 2 1.0933122462501993e+01 1.8910145784261058e+01 4.0177624772330880e+00 0 0 1
1832 2 3.3472075181041379e+00 1.7985443424692171e+01 1.6871587118711930e+00 0 -1 1
684 2 5.2849744079805872e+00 1.3507362227842661e+01 5.4706119076467967e+00 0 -1 0
1826 2 1.2837613099268657e+01 1.5912363444584896e+01 3.3696476824352679e+00 0 0 1
1542 2 4.7132703789510417e+00 3.3088083064122533e+00 8.6759959086472378e+00 0 0 0
1 1 6.8050358053905191e-01 1.4788271369737039e+01 7.8418352460751306e+00 0 -1 -1
903 2 1.5768130951354500e+01 1.3658637294983848e+01 3.6813090577503624e+00 0 1 0
720 2 8.9491974906923986e+00 7.1259332066234204e+00 2.2436712197772608e+00 0 0 -1
1124 2 1.8323869456136876e+01 1.1592497494491489e+00 6.4481515082096541e+00 0 1 0
1794 2 9.6490420496886458e+00 2.1517343396312452e+00 5.7080665782823052e+00 0 0 1
1821 2 5.2114134160504726e+00 1.4190257594817478e+01 7.4932870238335134e+00 0 0 0
30 2 9.8646885759427878e+00 1.5272900003622988e+01 4.1704870540547709e+00 0 -1 0
1548 2 1.0123814059006826e+01 9.1030025358921529e-01 9.1386282165162562e+00 0 1 0
442 1 5.7098570608047226e+00 3.1771704723376537e+00 3.1298233416943422e-01 0 1 0
283 1 1.5882289756462789e+01 5.4519405246419597e+00 6.6058278676090838e+00 0 0 0
893 2 1.1994076742868618e+00 4.2386953295415859e+00 3.8062974117878730e+00 0 0 0
1346 2 1.3271135535127913e+01 5.7072157882678329e+00 1.4356912545469220e+00 0 0 1
1109 2 1.3069047429162188e+01 1.6810990957795988e+00 5.8145602567342198e+00 0 1 1
517 1 1.9351114093308180e+01 1.6181188402445073e+01 4.3791214050490792e+00 0 0 0
3 2 1.1985874293090519e+00 1.5211037265137231e+01 8.5382087122184540e+00 0 -1 0
865 1 1.0743235897420783e+01 2.7072759869370859e+00 7.1912212557873954e+00 0 0 0
1770 2 6.4600563744254247e+00 3.8067306908708320e+00 7.2870991655117709e+00 0 1 0
705 2 7.7633379093746688e+00 1.7923045176072716e+01 7.6407471678707708e+00 0 0 -1
1315 1 2.3774225373265003e+00 1.5242175356736132e+01 5.8582619570850021e+00 0 -1 0
672 2 1.5474018976433953e+01 6.9395080380261609e+00 1.3664125016994322e+00 0 -1 0
1788 2 2.6370109539100159e+00 3.2496663386005018e+00 1.1383223170531522e+00 0 0 1
940 1 1.2364464900234871e+01 5.6413970119152737e+00 7.5148346006497020e+00 0 1 1
932 2 1.9528284609266230e+01 1.4432136088449472e+01 7.1037090067887680e+00 0 0 0
455 2 5.2322382753248764e+00 1.0667039703817787e+01 3.5255670717539117e-01 0 0 0
82 1 1.7385711928274105e+01 4.1025717220055142e+00 9.6677319685907861e+00 0 0 -1
687 2 1.6405044543135883e+01 1.3629383884287709e+00 8.0310804782035383e+00 0 1 0
654 2 8.6268265666093775e+00 1.2077854635337664e+01 8.3963535150907980e+00 0 0 0
249 2 1.1533084905819051e+00 6.6617514893217837e+00 9.6693319289611832e+00 0 0 -1
1357 1 1.6086625733546317e+01 1.4652261654530680e+01 6.6416316130233222e+00 0 0 0
920 2 1.8984008086667483e+00 1.6745100367545184e+01 2.9629226932853485e+00 0 0 0
724 1 1.6682028359742777e+01 9.7292593067512190e+00 1.0039994745275767e+01 0 0 0
525 2 1.3190206725285138e+01 1.2291388428598358e+01 5.8673539402808847e+00 0 1 1
94 1 5.9464547082182584e+00 7.8509073606408588e+00 3.3448656460276482e+00 0 0 0
919 1 2.8918713546710415e+00 1.6672381565507347e+01 2.7284249955002760e+00 0 0 0
526 1 1.6022509124210860e+01 9.6797538906484508e+00 7.5001827348027748e+00 0 0 0
933 2 1.8017624273792904e+01 1.4405834068154078e+01 6.7371519696486191e+00 0 0 0
959 2 9.1048949147484084e+00 9.0767224214704640e+00 1.5052519403883584e+00 0 1 1
320 2 6.0231825966273140e+00 1.9505102525427653e-01 4.3882316556974219e+00 0 0 1
1531 1 3.3046257645726538e+00 8.5764499279622868e+00 9.7919532779853302e+00 0 0 0
680 2 4.1942502050237946e+00 6.7736912635697974e+00 6.4839719566322227e+00 0 0 0
653 2 8.1586054705864708e+00 1.1649812885030487e+01 6.9655526166315234e+00 0 0 0
1317 2 1.6008274943585001e+00 1.4958701666125354e+01 6.4474881840310720e+00 0 -1 0
866 2 1.0104901284580237e+01 2.6276277964627002e+00 7.9105014194044587e+00 0 0 0
100 1 1.7945304985374300e+01 1.5947257534172108e+01 2.2051186071088060e+00 0 -1 0
669 2 1.1508623374875143e-01 1.7824737587178191e+01 2.5277312823216214e+00 0 0 0
876 2 1.0999295437568271e+01 7.7208810811695860e+00 3.3046108068077880e+00 0 0 0
671 2 1.4935472591277154e+01 7.1022035229336158e+00 2.8502252852746395e+00 0 -1 0
29 2 1.0064962066529091e+01 1.3981856934391580e+01 3.2258470634560634e+00 0 0 0
269 2 1.9239926084682512e+01 1.3788956181541755e+01 4.5871232475883232e+00 0 0 0
444 2 6.2132554265521733e+00 2.3170738535378836e+00 5.0758325604044718e-01 0 1 0
894 2 7.2533025742746182e-01 4.3886073291776135e+00 2.3646738288665592e+00 0 0 0
1134 2 1.7770313406066393e+01 2.0175941969930129e+00 2.7545748342144627e+00 0 1 0
667 1 3.0635479228814111e-01 1.6936856302660775e+01 2.9405801974994539e+00 0 0 0
1564 1 9.9212543377011038e+00 1.1614955648049710e+01 9.6041618288648998e+00 0 0 0
938 2 6.2605675383389743e+00 6.9869757810890691e+00 2.7309310740393672e-01 0 0 0
248 2 8.4769820877157742e-01 8.2189921333389702e+00 1.0171981586624099e+01 0 0 -1
1087 1 3.1901877448491112e-01 4.2471381877825802e+00 6.7141023141630800e+00 0 1 0
1550 2 1.7072523700306164e+01 2.6926664249474452e-01 2.9222483345204635e+00 0 1 1
80 2 6.7319469862124528e+00 1.1247174737117124e+01 8.6018853656272558e+00 0 1 -1
951 2 3.6277451324189878e+00 1.0218408777679347e+01 1.9407556425325414e+00 0 0 0
1110 2 1.2538648404233980e+01 2.4349594345378591e+00 7.1328371001623321e+00 0 1 1
958 1 9.2752213003507613e+00 8.9084216213772383e+00 2.4376859496517587e+00 0 1 1
1567 1 1.4399033711015518e+01 1.4309652035947726e+01 8.5780287148258683e-01 0 -1 1
743 2 1.5274995083195071e+01 6.5505739797785196e+00 9.6328580414716285e+00 0 -1 0
1343 2 1.5603461755116676e+01 1.7587063823395770e+01 6.2104932194215867e-01 0 -1 1
59 2 1.4790359048000601e+00 6.1335217400330997e+00 5.3000789629892715e+00 0 0 -1
1751 2 2.9235076089652061e+00 1.5334335828200137e+01 1.7900043545606932e+00 0 1 1
964 1 3.4059288742206433e+00 1.1588049823157037e+01 8.2965410230970189e+00 0 0 0
1373 2 1.2733493347069407e+01 5.4356042777138347e+00 4.0489369410629648e+00 0 0 1
267 2 7.3899072777447516e+00 1.3796081007088246e+00 5.9602237166600291e+00 0 0 0
914 2 9.8924533555964089e+00 6.4100886393391949e+00 9.1350330846491019e+00 0 1 0
1374 2 1.4014474402665449e+01 5.8461471217590502e+00 4.7501462338469009e+00 0 0 1
901 1 1.5617370027209907e+01 1.2759556540572001e+01 3.3411026971847755e+00 0 1 0
957 2 1.4702828441831295e+01 2.5599246761051138e+00 6.1606344385177128e+00 0 1 1
1607 2 1.2339466448877591e+01 1.9439478232233171e+01 1.9391978590553973e+00 0 -2 0
523 1 1.3535378231245900e+01 1.2757576609007476e+01 6.6497775451617107e+00 0 1 1
1355 2 5.2085053562332462e+00 1.7689803070073864e+01 1.2552952712414454e+00 0 -1 2
1370 2 7.7415210965310592e+00 5.6364358720525143e+00 1.2499769566519190e+00 0 0 1
242 2 3.1762503440093908e+00 1.1403669940122929e+00 9.4786269117205944e+00 0 1 -1
1768 1 5.6515152510689219e+00 3.2706185843409092e+00 7.1815139861724351e+00 0 1 0
1384 1 1.3719943716502234e+01 2.2499051824190226e+00 9.3228136107012760e-01 0 0 1
1609 1 7.3182587787885032e+00 1.9083006017773801e-01 9.8711037145233824e+00 0 1 1
1403 2 5.3694728849040283e+00 3.6556319862831743e-01 9.4393983285931728e+00 0 0 0
1553 2 1.3196705238915884e+01 8.3797707934802688e+00 9.0109439264522138e+00 0 0 1
531 2 1.1029362504069107e+01 8.5777113235950004e+00 6.3224385991620515e+00 0 1 0
1338 2 1.2402342853640000e+01 9.5402905394189574e-01 3.6609544058413457e+00 0 0 0
436 1 9.5758567993999151e+00 1.1318671004851241e+01 2.0387770497662053e-01 0 0 0
1779 2 1.4538065526548847e+01 1.5083493176793361e+01 9.1806046126934575e+00 0 0 0
492 2 3.3332969342896428e+00 1.3311553435805124e+00 2.4796969557395951e+00 0 1 0
1793 2 9.1908958161674885e+00 7.6091330299670734e-01 5.1211172435541332e+00 0 0 1
8 2 1.1836914373224866e-01 1.1598083565275966e+01 8.6961365756796365e+00 0 -1 0
1402 1 4.4903071670896866e+00 5.8779783446115924e-02 9.2292543314175575e+00 0 0 0
1321 1 1.3026240788747634e+01 1.4748996314831910e+01 5.0548779417369607e+00 0 0 1
934 1 1.4744374833634758e+01 7.5890376972514364e+00 5.0413038814084894e+00 0 1 1
507 2 7.0301279027724810e+00 6.4027449427312089e+00 3.9131474378238735e+00 0 0 1
1820 2 3.9263961265091520e+00 1.4500785228663046e+01 6.6548862563867184e+00 0 0 0
955 1 1.5507876551701186e+01 2.8771677142799850e+00 5.7582386219848560e+00 0 1 1
1149 2 1.1064638295749459e+01 1.4590462581394028e+00 3.6209871754494326e-02 0 1 0
79 1 5.9093121449014712e+00 1.0917132008525444e+01 9.0498592496360608e+00 0 1 -1
931 1 1.8916108868851019e+01 1.4504020875125681e+01 6.3461217159411021e+00 0 0 0
685 1 1.6078587757385375e+01 1.1482618827461628e+00 8.9535360175669183e+00 0 1 0
475 1 1.5989415837324074e+01 1.5427749001728376e+01 3.9718423675826231e+00 0 0 1
1342 1 1.4979408309839208e+01 1.8267869184311387e+01 8.9456948141453652e-01 0 -1 1
462 2 4.7269163958080576e+00 1.6761442115106320e+01 6.2693510814471018e+00 0 0 0
725 2 1.6391261230609924e+01 9.9245046626885394e+00 9.0875552995895870e+00 0 0 0
219 2 -5.7833501606026072e-02 9.3052509789691626e+00 4.2662462484340562e+00 0 0 0
1566 2 9.5770332272885348e+00 1.0712542229196000e+01 9.8392554992672530e+00 0 0 0
1616 2 2.7863658416658676e+00 1.8070665363209173e+00 6.1025352646056268e+00 0 1 0
1309 1 1.3276588654903863e+01 1.1905257845664790e+01 5.2166875302315108e-01 0 0 0
1136 2 7.7819038032481238e+00 1.1424666377474322e+01 3.1004491791301252e+00 0 1 0
741 2 1.1720822117277759e+01 1.1620892692647631e+01 4.4050597296353988e+00 0 0 1
458 2 1.7466275530628110e+01 8.2472038853477621e+00 9.7633543822794291e+00 0 1 0
20 2 3.2890536478599155e+00 7.1390411752991101e+00 9.7885150931244436e-01 1 0 0
1369 1 7.1138474653126496e+00 5.5501894271291619e+00 4.9986615060253192e-01 0 0 1
925 1 1.2133190260911125e+01 1.7321587620268261e+01 6.2517779941500891e+00 0 0 0
1606 1 1.2345273125788625e+01 1.9099893664236312e+01 2.8721990988741504e+00 0 -2 0
265 1 6.5465532916838747e+00 9.2502516987500927e-01 6.0820063602687657e+00 0 0 0
476 2 1.5459079209198713e+01 1.6182351722342677e+01 4.2554460612564204e+00 0 0 1
1827 2 1.3922601896378296e+01 1.6270829831895153e+01 2.2969508375831120e+00 0 0 0
243 2 2.8653540275320748e+00 2.5835494702283492e+00 9.6983011315811911e+00 0 1 -1
461 2 5.2466864232962349e+00 1.7375764456055894e+01 7.5396003324535767e+00 0 0 0
1778 2 1.4691574219243178e+01 1.6593532946857533e+01 9.0746299950317493e+00 0 -1 0
1558 1 6.5989498146600170e+00 1.4517359900440116e+01 8.6043403719898457e+00 0 0 1
1822 1 1.5760931603719568e+01 1.0665242134199753e+00 8.4496911166363126e-02 0 0 1
229 1 3.5653050104143247e-01 9.9751011247326034e+00 9.8888638177937196e+00 0 0 0
921 2 3.4126960514949283e+00 1.6765115425051402e+01 3.5561068020718087e+00 0 0 0
460 1 4.4308265119849670e+00 1.6958880719271058e+01 7.1778295301802091e+00 0 0 0
704 2 7.0133103051666250e+00 1.8995872177705369e+01 8.4669662473714951e+00 0 0 -1
1578 2 1.9111914598893389e+01 6.3674758673109748e+00 2.7798288954414083e+00 0 0 1
452 2 9.4574658383389281e+00 1.3736669460676586e+01 7.0797467697746255e+00 0 0 -1
1786 1 3.4162466392219737e+00 3.0094963992160788e+00 1.6774983333129185e+00 0 0 1
960 2 8.4378401153530476e+00 9.1806666877317920e+00 2.8971922214695618e+00 0 1 1
1753 1 6.6846625380266174e+00 8.3446635364629351e+00 8.8241293115697221e+00 0 1 0
486 2 5.1619226430189684e+00 9.0958478395847280e+00 6.1618223954472100e+00 0 0 0
965 2 3.5310072023895978e+00 1.2454471418499045e+01 7.8305604804759668e+00 0 0 0
1396 1 1.5152830680042499e+01 1.8198941478011257e+01 9.7555868963454540e+00 0 -1 1
96 2 4.9762522450990598e+00 7.6024133934460609e+00 3.2439210338589621e+00 0 0 0
45 2 1.4593941448615629e+01 1.0600108788942455e+00 3.7617901115422154e+00 0 0 1
477 2 1.6566298517348436e+01 1.5734305662691536e+01 3.2384455519360800e+00 0 0 1
1302 2 4.6029589859761595e+00 4.0829029899462359e+00 4.1805248448111776e+00 0 0 0
490 1 3.1729415305984214e+00 4.7001214841765554e-01 2.9528572747714645e+00 0 1 0
1833 2 3.6965907280162926e+00 1.9207530454311723e+01 7.1853540163517882e-01 0 -1 1
1160 2 3.7681784473012567e+00 1.0895109975966523e+01 6.4470407797907994e+00 0 1 0
718 1 9.0810631350658344e+00 6.1940792239326967e+00 1.9893472920779747e+00 0 0 -1
1813 1 1.7593326294480018e+01 1.7822063151385290e+01 2.2164276874570168e-01 0 0 1
1301 2 3.2779656679544429e+00 3.4336042622674490e+00 4.7526050417797761e+00 0 0 0
1805 2 6.7691058892378768e+00 4.9494650065004114e-01 1.8745372947978272e+00 0 1 1
87 2 2.5495570990814818e+00 7.7261024348421419e+00 6.8216006552129089e+00 0 0 -1
1580 2 9.3891714586485064e-01 1.9226231903198176e+01 4.6676922627365105e+00 0 -1 0
1568 2 1.3639512361893338e+01 1.4888002291445549e+01 6.2852186746037286e-01 0 -1 1
309 2 1.3934327731602112e+01 1.9009553766620957e+01 8.8095252989806792e+00 0 0 0
1742 2 4.0272968831039457e-01 1.8420035695845570e+01 8.4244460244734860e+00 0 -1 0
1617 2 1.7194412577143090e+00 1.7696796771767085e+00 4.9590823066047705e+00 0 1 0
1801 1 3.0599848529107092e+00 1.0402619126819264e+01 3.4212727964286547e+00 0 1 1
1583 2 1.4859336053001677e+01 1.7085333297507312e+00 9.8636085720590554e+00 0 1 0
1546 1 9.4612172854847998e+00 1.6393774613235310e+00 9.1443940256170677e+00 0 1 0
709 1 1.8993169762900397e+01 2.3494950264980727e+00 7.4129693492731725e+00 0 0 0
1806 2 7.7364969491318814e+00 6.3348863543850165e-01 7.6057112799675020e-01 0 1 1
1397 2 1.5926808731130212e+01 1.8533633782841310e+01 9.3128342101436843e+00 0 0 1
1777 1 1.4445986092771026e+01 1.5821695490196740e+01 8.5565279659373132e+00 0 0 0
464 2 1.4995335105692607e+01 3.6814597214067208e+00 3.9320077651597249e+00 0 0 -1
952 1 1.6175722735375693e+01 1.8313999692442550e+01 7.0740427145609708e+00 0 0 1
972 2 1.8930340451471704e+01 1.1572228386697430e+01 8.0924426592238046e+00 0 0 0
297 2 1.8998829597316128e+01 4.6078629319030662e-01 9.6983938331123483e+00 0 1 0
2 2 3.7343626974410449e-01 1.3948714963498990e+01 8.1970342402418197e+00 0 -1 0
1613 2 4.2492613159145209e+00 1.9559578179751881e+01 6.0795728385744265e+00 0 0 0
885 2 8.4380593741309173e+00 8.9045617039896694e+00 9.7645139437874082e+00 1 0 0
308 2 1.3450782536782313e+01 3.8763082170743873e-01 7.8074428570006962e+00 0 1 0
949 1 3.7356221831647058e+00 1.0245987096416473e+01 8.9491838419362613e-01 0 0 0
713 2 8.8237979930060817e+00 7.8143578244691954e+00 7.3617212318750278e+00 0 0 1
1336 1 1.2860042012046575e+01 1.7622689606337549e+00 3.9601358020424700e+00 0 0 0
1310 2 1.2557036967702119e+01 1.2421682484059659e+01 2.0298624163073459e-02 0 0 0
101 2 1.8666568131221133e+01 1.5990321584630093e+01 2.8550503897426585e+00 0 -1 0
1159 1 4.4663620127315333e+00 1.0638989762203757e+01 5.8323678804391195e+00 0 1 0
1756 1 6.7886530948793231e+00 1.4999137025981213e+01 1.4509493817871808e+00 0 0 1
942 2 1.2836493988452927e+01 5.4498158245657802e+00 6.7037750988220903e+00 0 1 1
1164 2 1.2966041240623738e+01 1.2119983974300284e+01 8.2406650280413984e+00 0 1 1
46 1 1.4976079253385961e+00 1.1200603778655374e+01 6.0240537280132340e+00 0 -1 0
89 2 1.6164126223325823e+01 1.1818876712829045e+01 5.2333103932268958e+00 0 0 0
1123 1 1.7648482627475865e+01 5.8330451302254760e-01 5.9308663109431734e+00 0 1 0
450 2 1.0554047444596394e+01 4.5917312315473042e+00 4.7534737270370480e+00 0 1 0
739 1 1.0919899248618410e+01 1.2100351548504003e+01 4.8020417123911523e+00 0 0 1
1804 1 7.1443194177441596e+00 1.1814472689121975e+00 1.3236615832824725e+00 0 1 1
1127 2 1.0238501148552787e+01 1.6503651295855644e+01 8.3064540080541622e+00 0 0 1
1551 2 1.8558120024200839e+01 1.9740478727551789e+01 2.8016731995941364e+00 0 0 1
1113 2 1.0105216208804691e+01 6.3081630959975659e+00 4.1857315618437674e-01 0 0 1
275 2 1.3768723321499909e+01 1.0110569499754778e+01 3.9395474086171798e+00 0 0 0
107 2 1.1778296198446899e+01 1.9346245543989280e+01 9.0635039088473022e+00 0 0 1
293 2 7.0037053054278138e+00 3.3422052720165936e+00 4.0987080197949846e+00 0 -1 -1
1576 1 1.9456147117377270e+01 6.6641304318938763e+00 3.6340828702525485e+00 0 0 1
85 1 1.9726184570686054e+00 8.5073480959310022e+00 7.0995708317391095e+00 0 0 -1
1757 2 6.3385743171071462e+00 1.5826268867141222e+01 1.3516545260116746e+00 0 0 1
78 2 1.7868763662440145e+01 1.5928402748649123e+01 8.4510474055601410e+00 0 -1 0
285 2 1.5518641528419620e+01 5.6437436205926890e+00 7.4906428984164499e+00 0 0 0
345 2 1.6989509738967008e+01 1.3024018729165567e+01 2.3789804695762764e+00 0 0 0
97 1 3.3862368479914449e+00 6.3566750828948386e+00 2.5485330625523384e+00 0 0 -1
529 1 1.1897661203504553e+01 8.5700424846518253e+00 5.8339790699109013e+00 0 1 0
453 2 1.0763261674282740e+01 1.3586003110387887e+01 6.2996509245884642e+00 0 -1 -1
1157 2 8.8598652899451285e+00 9.7180454859014720e+00 5.7847896381922901e+00 0 0 0
74 2 1.8813445794665480e+01 3.6243780139844071e+00 4.3387099657515069e+00 0 0 0
1831 1 3.4095010962713710e+00 1.8307353258769034e+01 7.4452170299062104e-01 0 -1 1
719 2 9.3620020084373916e+00 5.6800538350711243e+00 2.7654698026499407e+00 0 0 -1
527 2 1.6897225846926979e+01 9.2628673188369373e+00 7.4093933256695745e+00 0 0 0
1379 2 1.3709410341599032e+01 1.7510020780553145e+01 5.3373531698662537e+00 0 0 1
970 1 1.8063966095550590e+01 1.2010144628876985e+01 8.2439316070650346e+00 0 0 0
1337 2 1.2249052580580202e+01 2.5221038730970315e+00 4.0208748046642269e+00 0 0 0
67 1 8.4136428539723429e-01 1.7724029038020515e+01 9.9314879039092876e+00 0 -1 0
1563 2 9.4092587278377859e-01 1.8236862575944503e+01 6.4293717611170331e+00 0 0 0
1601 2 1.4744628036415582e+01 1.0684671416401468e+01 2.1171546013238429e+00 0 1 1
1386 2 1.3742860684535330e+01 2.7549933739616703e+00 1.7775469927231524e+00 0 0 1
319 1 5.7429460017569891e+00 1.9358359884997618e+01 3.6312027346432094e+00 0 -1 1
652 1 7.9096713985395812e+00 1.2254764059975811e+01 7.7338267804166110e+00 0 0 0
482 2 1.8096590962461139e+01 9.5848539869711615e+00 3.3183079168654670e+00 0 0 0