LAMMPS data file via write_data, version 8 Apr 2021, timestep = 21640000

576 atoms
2 atom types

0.3867939754989556 17.53320702449454 xlo xhi
0.18179297549857437 17.32820602449469 ylo yhi
0.5317939755000708 17.67820702449464 zlo zhi

Masses

1 16
2 2

Atoms # atomic

261 2 2.9125066912565956 2.151867594586302 1.846122872739396 3 1 5
415 1 1.7405837626428204 1.7822999404582422 2.9821399547984844 0 1 -1
416 2 1.242737721672827 2.526566213037478 3.451045796860985 0 1 -1
103 1 0.7036129980225754 3.775638904609199 4.238805992202607 1 0 0
259 1 3.7414430339175637 2.253835949164286 1.2949514813660248 3 1 5
320 2 2.0334160100242853 0.4182304560878771 4.177908164483204 -1 0 1
417 2 1.1175213485835513 1.5107141241127597 2.277780307314703 0 1 -1
105 2 1.3651486107859276 4.408094903712617 3.9425045868284414 1 0 0
260 2 3.6954083902564907 2.9224240039873113 0.5781874825715395 3 1 5
515 2 3.780366433512866 0.6802186386154835 0.7318938010135966 1 0 1
506 2 4.79917219874481 2.128388037100501 2.6426472086616726 -2 0 0
505 1 5.510676592922433 2.270841381016842 3.301118509490048 -2 0 0
507 2 5.057077568772369 2.3857084342967347 4.180895196877763 -2 0 0
144 2 6.7877191850477345 3.001373784516646 2.35653627161157 2 1 3
142 1 7.087779459900824 3.261365294464274 1.468717994316591 2 1 3
143 2 7.872320795964344 3.8392442685040744 1.6932449806708088 2 1 3
270 2 5.019642106075579 4.331620438816738 2.0588057051849913 0 2 1
296 2 8.765039954380926 3.816479200667504 4.112846252577222 -1 2 -3
56 2 6.4920056795999725 0.5028013766223421 3.123317338627006 1 -1 0
297 2 8.908822537995523 2.269033950293687 3.9249268822107655 -1 2 -3
148 1 2.5043941114307793 5.66663491586451 3.285314157219954 3 -1 1
150 2 2.752812984678067 6.240916997551588 4.063791937235769 3 -1 1
149 2 3.3061158595856877 5.556501280391559 2.7251171873300963 3 -1 1
71 2 1.2716000917256811 6.600550527868184 2.2297840244717815 0 1 1
70 1 0.6857009916706522 7.123720654087098 1.6776252573089154 0 1 1
137 2 6.64595613610382 7.939272457350248 1.733002155052327 3 1 -2
136 1 6.184542333086541 7.330158064553373 2.345365843576521 3 1 -2
138 2 6.060666669783253 7.894679612261199 3.1179851545541837 3 1 -2
269 2 5.290367426993629 5.844519589699476 2.0762979904564918 0 2 1
268 1 4.681532817937491 5.1783762390659165 1.730925798334514 0 2 1
265 1 7.835509568982977 5.301854401943471 4.215733431839687 0 0 0
266 2 7.654992660223 5.830932321590394 3.4111111016715885 0 0 0
576 2 1.3220561585215176 8.84342903999224 1.9579382439804787 1 1 2
365 2 2.8331095421588555 9.798808988900534 3.3917508670101792 -1 0 0
364 1 3.5940056025077705 9.679583248414684 3.9647168356129825 -1 0 0
574 1 1.7961605425003624 9.693434568706058 2.0477556111172666 1 1 2
575 2 1.0744700837472376 10.342383544377782 2.0154035945245994 1 1 2
475 1 0.815104433909724 12.189450078320663 4.640586497517931 1 -2 -1
116 2 4.558997035073225 9.903061429755 1.0716325753481417 2 -3 3
39 2 2.7038711390242867 12.43313519809061 4.149156528458946 2 0 1
37 1 3.5710910690543227 12.84314629819152 4.107528183957462 2 0 1
366 2 3.3865982970356643 10.161066809778529 4.813687620575569 -1 0 0
117 2 3.0421357240223528 9.607170495223055 0.995521397188067 2 -3 3
476 2 0.5531734405742366 12.059410877471759 3.7310247242604366 1 -2 -1
120 2 8.758719210123763 10.524426370265802 3.469469536801691 -2 2 -1
258 2 7.106207602319636 9.26269102813154 4.369848032532933 2 -2 1
425 2 4.817895014643021 10.242538337258098 3.033767957763193 0 0 1
426 2 6.327633210493359 10.165355163620571 2.401625997506014 0 0 1
424 1 5.411921202121281 10.487063083130046 2.3180495521710776 0 0 1
118 1 8.062337667709759 9.99108027890799 2.9675121976574785 -2 2 -1
497 2 5.49845725725347 12.199566708593697 1.8133486692205942 0 -4 -1
242 2 8.281219406104844 11.688817374567524 0.9282857175314035 0 0 -1
119 2 8.409572087985023 9.1566665615983 2.592028225471403 -2 2 -1
38 2 3.5656580845251447 13.34574398825153 3.3400728327333615 2 0 1
477 2 0.5386877104337922 13.12049796656117 4.7611670307121035 1 -2 -1
518 2 1.2642987116801434 14.61106406260967 2.4222863646545685 1 -2 -1
377 2 3.128086706710911 15.510957870194881 1.6771619311458263 -1 0 2
378 2 2.809723885691175 15.506182490335346 3.1843373595204683 -1 0 2
376 1 2.720505658136196 15.016755239530069 2.4040276556519538 -1 0 2
319 1 2.089899875255512 16.778269072725152 4.728277730807853 -1 -1 1
514 1 3.670874322658362 16.81080463537919 0.6019905907418783 1 -1 1
498 2 4.777888106557856 13.369016830538387 1.176475245834306 0 -4 -1
496 1 5.598251140018075 13.153828487768259 1.6684973362367441 0 -4 -1
102 2 6.329728601817142 13.628514108034658 3.194074973520819 0 -1 1
57 2 6.586806329317423 16.624534082994092 2.018059321774784 1 -2 0
101 2 6.8963320989966785 15.048308566235402 3.3818666544521805 0 -1 1
100 1 7.090725949779286 14.16822702532365 3.6604402215123604 0 -1 1
55 1 6.894037245349191 16.803057015775096 2.9495717323160715 1 -2 0
18 2 8.487130774218139 16.91285855500705 3.3034101811825134 -2 0 -3
347 2 8.631017401351329 13.306085330442738 2.579993163009545 0 -1 0
204 2 1.4623433529197905 3.9995163247754695 6.124882073778582 1 2 1
203 2 2.7352494423319538 3.09791719754877 6.430443977302907 1 2 1
202 1 1.8911741934009798 3.421046653035714 6.774631796465201 1 2 1
482 2 2.542553361079753 1.2496012949795599 7.497948476222797 2 -1 -2
339 2 2.0119819474348235 4.206527648586969 8.3767427260955 0 1 0
481 1 2.520557922901985 0.32748762505412143 7.397140012761447 2 -1 -2
61 1 4.398652706115778 2.7951481203504427 5.896939825871303 -1 0 0
63 2 4.669332432125399 3.7588689272153317 5.9404985220029705 -1 0 0
278 2 6.831271956736644 3.843571820781311 8.93723302189151 1 1 1
504 2 5.524875380340446 0.5676142110934861 7.638852732647845 -1 0 1
62 2 4.905509250200183 2.198925619876942 6.444908524996654 -1 0 0
502 1 6.032812247860974 1.298934969734442 7.172369095082424 -1 0 1
279 2 7.077788209528033 2.3672737461528253 8.507101034137898 1 1 1
503 2 6.849242059005982 0.9426048841189933 6.76776025468953 -1 0 1
277 1 7.521477100199661 3.1647376966784444 8.841749567911206 1 1 1
535 1 8.51789878628258 0.2622978010238778 6.392721319924921 0 1 0
173 2 8.892536723863047 3.2171880171481497 7.748780301068198 0 3 -1
183 2 3.5674986802498774 7.848354273463949 4.900142085434255 -2 1 1
181 1 3.2845423043446056 7.049404692290976 5.338273254168925 -2 1 1
338 2 1.0374110153838485 5.199370011924116 8.895087677448844 0 1 0
79 1 0.7672530105844206 7.250028110547348 6.001475905349574 0 1 1
182 2 2.364933896721072 7.153702981242782 5.686781631816149 -2 1 1
333 2 4.6542647157488055 6.190884746915813 5.798363177182907 2 -2 1
189 2 3.1798518657935917 7.419805344162224 8.992575136936262 2 0 1
81 2 0.46966106109051736 6.594880208698344 6.663197160036226 0 1 1
256 1 6.723479697416629 8.55570054174514 4.928493452075171 2 -2 1
21 2 8.303332255549336 7.681891154715623 8.680313024968584 0 2 -1
332 2 5.990743527181736 5.820374473833116 5.28546794872428 2 -2 1
331 1 5.266416156377092 5.40608857165559 5.748727875850753 2 -2 1
350 2 6.006521950600552 5.376219993777384 7.590410228268142 2 1 0
349 1 6.143720974485727 5.427376206524074 8.527023673434051 2 1 0
19 1 8.498471855370202 6.793000846886728 8.793970429985114 0 2 -1
153 2 7.9357208761842175 7.658257730218189 5.715040107542692 0 1 -2
20 2 7.609099234337904 6.462817834469789 8.674958774235487 0 2 -1
267 2 8.078250272810806 5.897799704630752 4.998066266136757 0 0 0
151 1 8.587097094915327 7.036341691071436 5.995565395173682 0 1 -2
152 2 8.568734913641672 7.041169611674734 6.9677278928991955 0 1 -2
351 2 5.297650213788661 5.568232175293067 8.964955756517934 2 1 0
562 1 2.5977042169300693 8.861848032881094 7.945209591086367 -1 -1 0
563 2 3.4539028066111013 8.9267414571159 7.507253870020599 -1 -1 0
429 2 2.2548507863122955 10.083295448186853 6.62490596656361 1 0 -1
564 2 2.5688104746368507 9.578448558164945 8.581377350203235 -1 -1 0
440 2 3.576645771568549 12.193377588216322 7.70233209969662 0 -2 1
427 1 2.5447887910347435 10.859782912259213 6.14264790250585 1 0 -1
439 1 3.0422051048882275 12.404793603986933 8.535038243918592 0 -2 1
428 2 1.7513247507505896 11.340495895525617 5.823378732645012 1 0 -1
27 2 4.288035406375314 12.291392133451316 5.749571368300675 0 -1 2
164 2 4.660131924070503 10.312906043457208 6.61989732467018 2 -2 3
388 1 7.297558062140847 9.209164417289182 8.236288806522397 0 -1 0
257 2 5.957394822689657 8.824805251320724 5.478508709618257 2 -2 1
163 1 4.839425554556724 9.357474535633385 6.693391931055284 2 -2 3
165 2 5.576389413733048 9.404455975169691 7.385337422548671 2 -2 3
180 2 8.311681552240248 12.410261683324425 5.768509877730877 -1 -1 2
26 2 5.813813472456199 12.226444288726313 6.331534924726883 0 -1 2
25 1 4.820392020165612 12.051447642606814 6.544949309991067 0 -1 2
390 2 8.091079677796312 9.730262472763956 7.97526559019608 0 -1 0
567 2 0.7422530995861056 14.491661204020197 8.702299260495616 0 0 0
64 1 4.648686553572025 16.727869078548117 8.79438561831587 2 -1 3
281 2 1.073677363152805 15.508228374865446 5.102737858727043 4 0 0
566 2 0.7463475167098239 14.50654839680089 7.133715898981071 0 0 0
483 2 3.390416135113132 17.192553275130503 7.8239439807051765 2 -2 -2
441 2 2.3721998978428145 13.067784661710695 8.258970307495469 0 -2 1
565 1 1.040321180439407 14.01111985493128 7.918014425983495 0 0 0
321 2 2.2733237582070975 17.065271569291653 5.659407945149513 -1 -1 1
539 2 0.6888818458615653 16.988016138104534 7.749287857710622 1 1 1
178 1 7.654490609261955 13.062435107022887 6.187536500950893 -1 -1 2
66 2 4.8614560199801975 15.788397836719541 8.927573341755627 2 -1 3
167 2 8.272746929033385 16.57113041721663 8.549097118759978 -1 -1 1
352 1 7.236973385126366 13.426797494829536 8.704500183737872 1 -1 -2
354 2 7.325259032636072 13.262654722750263 7.751210834914623 1 -1 -2
536 2 8.441245998020369 17.157783749892353 5.466211729386583 0 0 0
168 2 7.963421665627204 15.086100153851906 9.082048374700358 -1 -1 1
179 2 7.344486234117002 13.556426669411987 5.372725923364856 -1 -1 2
524 2 1.6307311942125908 4.000769671416158 11.909031637855387 1 1 -2
396 2 2.503126588861413 1.232685073466814 11.257667572125532 -1 3 2
394 1 2.30394006346513 2.2010887949486238 11.370241730566654 -1 3 2
395 2 3.0133430661515264 2.65547156494862 10.947453678956299 -1 3 2
58 1 4.457330756722396 3.716710202735106 10.37555534296136 1 3 -1
252 2 0.8466573927501264 1.9443808278287427 10.24379745617359 1 0 1
59 2 3.6930841569758224 4.260933954098877 10.02699449964572 1 3 -1
60 2 4.8841493082379195 4.192099919009434 11.127055615252397 1 3 -1
169 1 5.694576934177903 1.0913940416679564 10.78649053401389 2 -1 0
170 2 5.343819255800641 2.012072081313374 10.755108118063607 2 -1 0
342 2 8.538901055375549 2.5166255944924267 10.277618145580005 0 0 -2
171 2 6.57891197001109 1.2102195637955204 11.142908898013015 2 -1 0
312 2 8.76046837482617 3.9058241242730536 11.941226808721634 1 1 -2
401 2 6.090076719259938 3.1085937574803912 13.004932018069892 -1 0 -1
523 1 1.5728159055238773 4.896626018033372 12.264719515295338 1 1 -2
525 2 0.9769542407920508 4.7622326929979 13.058796230305573 1 1 -2
187 1 3.4056584389789473 6.753814474220749 9.687347594937977 2 0 1
227 2 3.0711489312530125 6.172924561986484 13.180974572575678 0 1 2
188 2 2.7506466716632367 6.032972539329508 9.531595547773456 2 0 1
374 2 4.617679537390794 7.777148653003321 12.492266155889032 -1 2 -1
375 2 4.043819660025478 7.8399383363281006 11.070943842250704 -1 2 -1
373 1 4.464747026707123 8.430439237992033 11.697798532121023 -1 2 -1
2 2 1.0171874622527657 8.093290951881745 10.428210834475369 2 0 1
240 2 0.5998081062307967 7.402093232193508 13.30698423014199 0 -1 0
337 1 1.8065708477258724 4.723979320726983 9.162111603403448 0 1 0
238 1 0.8606942408990708 8.267984509697524 13.041765482176494 0 -1 0
147 2 5.425799141835816 5.298258815334743 12.988068959842938 2 1 -1
145 1 5.930261287713942 4.786934938228817 12.33023170610356 2 1 -1
146 2 6.851662526091671 4.929091972114796 12.375823811976025 2 1 -1
310 1 8.676509784092941 4.780875967811327 12.448695602945769 1 1 -2
311 2 8.717275714080717 4.576131058704422 13.37032462242412 1 1 -2
384 2 3.4609869267253424 9.541165445964937 12.443834601540823 3 0 0
304 1 2.1916775041415306 13.029569363260409 13.006387039834507 0 -1 -2
305 2 2.348716309808617 12.086422557465005 13.202618653717423 0 -1 -2
306 2 2.066953697687045 13.004288184220236 12.025965756813736 0 -1 -2
382 1 2.7572307876328974 10.11408210508662 12.866911316010498 3 0 0
245 2 2.1303322617135962 10.763192078608265 11.159205900738442 -1 0 0
383 2 2.0071161929083035 9.464093710575199 12.997852392991131 3 0 0
246 2 2.359363659118048 11.296177145242545 9.636775476243308 -1 0 0
244 1 1.9092296158493411 10.636632458636594 10.253294882480073 -1 0 0
293 2 6.600148162179809 9.298922368808558 11.332134398450673 0 -2 -2
294 2 8.06381238537643 9.146388281924619 11.292279843929624 0 -2 -2
292 1 7.339449096896645 9.690349646542096 10.903257978942918 0 -2 -2
93 2 8.241233752335564 11.558796142834215 10.913839107438053 1 2 0
389 2 7.105943438046864 9.538733894725452 9.168346504255666 0 -1 0
353 2 7.8827979044641525 12.777113993432991 9.11840385778242 1 -1 -2
91 1 8.824408567661926 12.300107883131822 10.669904922559544 1 2 0
559 1 0.5468388045904236 14.658247703882854 10.50358276210542 1 0 3
458 2 4.208600271637046 13.488689734338331 9.255161557800744 0 -1 -1
488 2 4.0173356067731385 14.353017068041094 12.93241069691311 -2 -2 -2
489 2 4.620022295494757 14.3939559879252 11.480624279151288 -2 -2 -2
6 2 2.906940862798112 16.441611813081522 12.190987048976922 -2 0 1
4 1 2.665634859112774 16.76708215797378 11.281896473800623 -2 0 1
5 2 3.5313623843802437 16.564413941946473 10.854372125721465 -2 0 1
487 1 4.3170226030868175 14.962494006122695 12.23470070022243 -2 -2 -2
561 2 1.1867402714779458 15.292257250438196 10.865824211280994 1 0 3
166 1 8.21431284233812 15.99826978770971 9.332388133957597 -1 -1 1
457 1 4.715320656889833 14.15409047698847 9.717607716923856 0 -1 -1
329 2 5.471466711145663 15.9264145119261 13.145336408804935 1 -1 1
65 2 5.03905086112852 17.320679454631698 9.523596057273032 2 -1 3
414 2 7.566824493361786 16.73038843953174 12.274220894831961 1 0 1
412 1 8.39021640250775 17.099825474520976 11.89317159304964 1 0 1
413 2 8.603811041569124 16.617697637139116 11.056250579829557 1 0 1
459 2 5.582753064404411 13.829388814425672 9.409648604417061 0 -1 -1
127 1 0.9158855949469136 1.9634492936015497 14.56043000776669 -1 1 1
326 2 4.165638768023408 2.9903384498549883 13.696298447402459 1 -2 1
300 2 3.1085264606831857 3.7113145837311805 15.593672891852528 0 0 -1
129 2 1.835493874505276 2.2364865778936958 14.36124153949011 -1 1 1
325 1 3.207755318993347 3.1411005099813125 13.99006336733791 1 -2 1
161 2 0.9985792863169058 0.23400505232202137 13.895650896248402 0 -2 0
327 2 2.996619245142572 3.973848449275875 13.51380037014813 1 -2 1
298 1 3.08288131097464 4.039146881556992 16.49421087896323 0 0 -1
330 2 5.955016899879157 0.19253608184717308 13.563600085740948 1 0 1
400 1 5.853847089322149 2.2511503739558636 13.418467214543876 -1 0 -1
402 2 6.035011515211092 2.3343198434228407 14.340190752691315 -1 0 -1
336 2 7.682019793762152 1.5804229041182187 16.02701889126749 0 -1 0
334 1 7.063246706158104 2.316730795599668 15.83707095995656 0 -1 0
335 2 6.776945152066618 2.6002674207376337 16.750846132570892 0 -1 0
232 1 8.40480202809317 0.275309923455182 16.43927315330763 0 2 1
35 2 7.934924184195425 3.8096000937760013 15.646541642959233 1 2 0
34 1 8.727733134383854 4.3688013233095475 15.40368149674391 1 2 0
226 1 3.9714507436000894 6.259189800293562 13.502638050809878 0 1 2
299 2 3.9577844632823953 4.470220570171875 16.6345013996356 0 0 -1
228 2 3.782557332364685 6.583088697805323 14.444043539445433 0 1 2
470 2 2.454203513413664 7.838510053759153 15.914492674823107 -1 0 -2
469 1 3.0871551963140087 7.0971910978885875 15.784506068240518 -1 0 -2
471 2 3.8025729045904786 7.287652829776069 16.442788747191642 -1 0 -2
407 2 1.6469060592411209 5.107255623709335 16.410425321378014 -2 0 -1
406 1 0.6526440890295694 5.302425311007007 16.594028118281127 -2 0 -1
408 2 0.6739456440927765 6.05836760002936 17.264390564979834 -2 0 -1
214 1 7.543034037040764 8.551885596582519 17.40614100687673 0 0 -3
10 1 8.516150998084845 8.550942293546901 13.702699897501402 0 -2 -1
569 2 6.208632226793633 5.665186174463595 16.72264762031382 2 -2 1
568 1 5.879147685389507 5.460658627696063 15.86988420471339 2 -2 1
570 2 5.803278239701995 6.387661407968473 15.535247182525351 2 -2 1
379 1 6.071091233668766 8.219735957462678 15.033323529755783 1 1 1
380 2 6.591638796630237 8.064258773041423 14.199265616349463 1 1 1
215 2 8.266254367079378 7.978945122602958 17.1088862572183 0 0 -3
216 2 6.922483458406469 8.526771876741496 16.627432181874436 0 0 -3
186 2 8.957642829702538 7.549218372552018 15.200433660109281 2 0 -1
548 2 0.7569487079248546 8.803565529639355 15.044405957162626 0 -2 -2
547 1 0.9731391610461264 9.111871605407849 15.93767616254897 0 -2 -2
432 2 0.6122823895805427 11.73391100080878 17.214729457845294 -1 0 0
485 2 3.8422498661266573 9.920504424744344 15.8473896522935 -1 0 -1
486 2 3.6660958640418424 10.188651560761564 14.306303846777181 -1 0 -1
546 2 3.2290512828990483 12.515718573833885 16.356603556113647 0 0 1
431 2 1.2431821163258736 10.896132092295003 16.14133614301407 -1 0 0
430 1 1.2631196065520005 11.81138235438661 16.474867376189763 -1 0 0
115 1 3.8784271432417774 9.614928762227356 17.561467292184513 2 -3 2
484 1 4.2961923574329175 10.251413316190744 15.04897380533905 -1 0 -1
156 2 0.6962783389665022 12.672788239946817 15.25734282046977 0 2 0
243 2 7.999620321828426 10.289484205194466 17.45258056236806 0 0 -2
545 2 4.766320633213143 12.902572315880532 16.15730365218715 0 0 1
381 2 5.393733529484052 8.886893169330097 14.895524504202687 1 1 1
192 2 5.627448702431468 11.432195525572643 15.26584544609825 0 0 -1
190 1 6.235283039771797 12.123855658274582 15.525821204915736 0 0 -1
191 2 6.835884164323317 11.781893380149432 16.256595654915493 0 0 -1
241 1 8.08238972848601 11.230900260559315 17.22552881458718 0 0 -2
155 2 0.9371769723083487 13.466812790441672 13.923767912071591 0 2 0
516 2 4.612242298067166 16.510154695869794 17.65193714520069 1 -1 0
110 2 0.5788318987704879 15.45115902064033 16.583265402015947 -1 -3 -2
162 2 1.5921135164070228 16.072530696106757 14.246737272401427 0 -3 0
437 2 2.8487423497349904 14.63756931016092 15.887111557529483 1 1 0
438 2 2.6327289987181244 16.083535828919942 16.408514165791356 1 1 0
436 1 2.327692909663521 15.455421316779713 15.705347266112119 1 1 0
544 1 3.8476338303952917 13.252913475778788 16.52574197328688 0 0 1
160 1 1.0396408134824129 16.454280539260772 13.587500414946343 0 -3 0
221 2 8.810704241335502 13.794481610732308 13.724050798830964 2 1 0
124 1 7.680937149766885 14.425692469592576 14.791866806920691 -1 0 0
125 2 7.0862962807183045 13.655253035424757 14.95041917411311 -1 0 0
328 1 6.307157091515585 16.41005302312058 13.410416716401395 1 -1 1
543 2 7.013775610319468 16.307532094017503 16.89928046575238 3 1 1
542 2 6.391125759454335 14.92557954505973 16.993900250996884 3 1 1
541 1 6.334283295591534 15.804236990388725 17.363987728595134 3 1 1
126 2 7.172641562999804 15.095979805171561 14.318848475351077 -1 0 0
49 1 12.900095373192592 1.5325672131818393 2.2690483146906235 -1 1 -1
41 2 12.245347332795058 2.0322455672485535 3.4238073944188883 1 -1 0
448 1 10.223622112014766 1.2478184353454491 1.0756252271241933 0 3 0
17 2 9.825607386913084 0.2667254904827012 2.8776849424561366 -2 1 -3
449 2 10.958449283365587 0.6101204891272834 1.2182409454783751 0 3 0
450 2 10.586531786777451 2.099942705473042 0.8183124779793876 0 3 0
295 1 9.3805061934858 3.0535422588451566 4.236598565401203 -1 2 -3
40 1 11.902088458297396 2.272041284205504 4.36730173665248 1 -1 0
42 2 11.002171073775065 2.593041026553273 4.169019797728935 1 -1 0
50 2 13.542942359514987 2.1966708459494084 2.008359765621183 -1 1 -1
51 2 13.354425897068081 0.7500461234640254 2.5488777679789503 -1 1 -1
495 2 15.578580430344319 0.5793327382217424 4.187953445622505 -2 4 2
494 2 15.64538246929362 0.3439044570244879 2.6414335346354134 -2 4 2
493 1 15.081874271918979 0.20979538052244437 3.4200611438612305 -2 4 2
208 1 16.911017527468328 0.84318553722656 1.560578796525247 1 2 1
94 1 13.926295158409804 4.150345318142982 2.146217811381624 -1 0 2
104 2 16.953755735013342 4.165985901478263 4.208061761052066 0 0 0
96 2 14.240965645803122 4.3322044789987695 1.2507035570977376 -1 0 2
95 2 14.614729954976603 4.456341924946035 2.733663349582108 -1 0 2
210 2 16.768193269158562 1.6829438382184205 1.0154970599788413 1 2 1
527 2 10.048458078089407 4.712609044145326 1.642515848171044 0 0 -1
236 2 12.365188964459064 4.713693392830562 2.227811345834409 -1 -2 4
237 2 11.527284846139914 5.278996075780815 3.3697230232962143 -1 -2 4
235 1 11.459402734485442 5.038856802026186 2.445397426514231 -1 -2 4
30 2 9.945487674254652 7.434731876742524 3.14783767295871 -2 1 -1
28 1 9.524441518365679 7.686095152682326 2.2977410914575143 -2 1 -1
418 1 10.947715346122624 7.154168981894661 4.750612031843489 0 0 0
54 2 10.656933221412576 8.602603989650781 1.0637814507230001 0 2 2
131 2 13.039658350397394 8.37551584505366 1.0331859428275518 -1 -1 -1
420 2 11.240423934999033 8.136352084498311 4.793226223845424 0 0 0
526 1 9.20929991411648 4.933125442248371 1.1743860106682316 0 0 -1
29 2 9.18272052363282 6.846958803937746 1.8237186184101448 -2 1 -1
72 2 17.20123525684889 7.3335376477501635 2.4229260737981693 -1 1 1
133 1 15.51041136200018 5.080399674417045 4.286326781343311 1 0 1
134 2 15.526894278973751 6.067599596450325 4.13225002625667 1 0 1
571 1 16.36248087350788 7.65364914326527 3.7389822962257995 -1 0 3
572 2 15.827711194658308 8.45176917547514 3.825586186749207 -1 0 3
130 1 13.96960759089507 8.13421258438449 1.361327525230819 -1 -1 -1
135 2 14.616089154041365 5.053179101488105 4.756210835377106 1 0 1
132 2 13.942208184729001 7.9777100166522015 2.3052512703625005 -1 -1 -1
573 2 16.90834075799005 7.462023601865373 4.500010922072583 -1 0 3
510 2 11.472649694416743 10.6921369953172 1.8633012336408088 1 0 0
508 1 11.21105810122898 11.33416331232636 2.5439589336302095 1 0 0
509 2 10.434889674051792 11.741737298684564 2.2263070338486526 1 0 0
443 2 11.446205711555377 10.312313259249233 4.010947614788822 -2 -2 2
442 1 11.880991630875965 9.690088399789353 4.636759740527762 -2 -2 2
52 1 11.471459942710153 9.046796235844 0.7278445874247889 0 2 2
200 2 12.324873600381244 12.623235687592976 2.219180288095324 -1 0 -1
199 1 13.106834078913659 12.966255749190873 1.6989574194663002 -1 0 -1
346 1 9.092713946849042 12.822163270740239 1.8940632214254927 0 -1 0
264 2 13.46171822535285 9.452056007935383 4.073542572214968 -1 1 0
262 1 14.36866645330296 9.503574402308246 3.755663060854877 -1 1 0
263 2 14.706644243798554 10.361424633963285 4.126762955984425 -1 1 0
398 2 16.357326761785338 11.555162732484575 1.8225868497991982 0 -1 -1
175 1 14.608510559181893 12.082987142726346 4.561307726839282 -1 0 2
461 2 14.338430125995725 11.648877819667597 1.510205697016781 1 -3 1
462 2 14.61340925321767 10.192346830813129 1.8595805561756702 1 -3 1
460 1 14.931722076710402 10.951592675725946 1.3876788746883453 1 -3 1
177 2 14.727597623537921 13.001863950446458 4.175168449945981 -1 0 2
399 2 17.379667884840686 12.820330766949283 1.9389811981820846 0 -1 -1
397 1 17.322332485411664 11.826478474204121 1.9459430538683442 0 -1 -1
89 2 10.816785980495506 15.6573898640356 0.8979519848258611 -1 -1 2
16 1 9.370498747436834 17.108707853003352 3.632407459606725 -2 0 -3
90 2 11.648096480667247 15.869654710438699 2.3145991017871674 -1 -1 2
88 1 11.45402239641193 16.127343717064395 1.3842134542743194 -1 -1 2
194 2 10.524158769322494 15.635933702656608 3.8982244448671355 2 -1 0
193 1 11.481033951544694 15.385481095794098 3.95367806049053 2 -1 0
195 2 11.945355169917805 16.085221771412936 4.48589668356718 2 -1 0
348 2 9.07682542862359 13.493246392900899 1.1604664066784829 0 -1 0
554 2 11.962943707511814 13.776630646637344 4.748391386159924 -1 -1 -2
517 1 17.44460736325325 14.348144227261166 2.231767984920492 0 -2 -1
201 2 13.276182896800139 13.770708642994311 2.1956297688627004 -1 0 -1
247 1 14.873294845084137 14.617787340092779 3.328506528979471 0 0 2
249 2 15.765316547310265 14.412292144297025 2.952056599272927 0 0 2
248 2 14.942327664532776 15.60377816756767 3.4619877975715 0 0 2
209 2 16.956631790374757 17.180745196142574 1.0379119458593165 1 1 1
519 2 17.275172232355356 14.648788523817206 1.3025705530519078 0 -2 -1
99 2 10.801395263761698 2.340399690991991 8.851486387828462 2 0 1
172 1 9.703156119660187 3.238883378479672 7.216928476083927 0 3 -1
174 2 9.495119010349576 3.142377122569161 6.304647402826502 0 3 -1
318 2 12.437781775321504 0.8719322674995165 5.1381791277431486 1 0 0
447 2 12.819767939606585 3.5954390833859744 5.073173599905037 0 4 1
77 2 11.059703470013101 0.34816894851187596 8.53598212582448 0 0 -2
158 2 15.57585874911912 2.555950795701907 6.585532968748854 -2 1 0
46 1 16.62922244048292 1.5908276689205292 5.613223950535701 -2 1 -1
47 2 16.867665709349637 0.9316682095845401 6.271668315274904 -2 1 -1
157 1 15.301882431714812 3.308898656122068 7.165337381265315 -2 1 0
159 2 14.560862066249967 3.753298104699626 6.723170485502181 -2 1 0
445 1 13.307652563745915 4.295848387960791 5.4686690092392904 0 4 1
356 2 14.82913803085416 3.4843631400255424 8.935117959118939 -1 3 0
540 2 16.812359276913885 0.7756828336509864 8.463793573044018 0 2 1
48 2 17.4359149019391 2.108304767958451 5.6578515759379515 -2 1 -1
251 2 17.214471423340047 2.6612261028338304 9.083533948543987 0 0 1
464 2 10.23804515363413 4.584627801718175 8.02074757988429 0 3 -1
324 2 10.910773656102 8.284313623932475 8.914345738991122 1 0 1
465 2 9.764489174430922 5.956427664671225 8.657296618434561 0 3 -1
463 1 10.586912843405145 5.367554695727706 8.517211212922543 0 3 -1
419 2 10.154590827836971 7.112236051951568 5.294561797636263 0 0 0
314 2 11.67499657251554 6.047317753025104 7.516321501518773 0 1 0
315 2 12.125968175359947 6.648177141123437 6.135481771738751 0 1 0
313 1 12.470022960409251 6.1091806199557634 6.856945188879828 0 1 0
322 1 10.975884718012587 8.201944531139834 7.959048523995919 1 0 1
446 2 12.733347749975572 4.772669670993542 6.098187140467324 0 4 1
323 2 11.830885263586147 8.628287973794208 7.747077598424053 1 0 1
80 2 17.494742435679004 8.072556601866845 6.3726663109865225 -1 1 1
391 1 16.69133298750869 5.551347626686981 7.553562380614887 -1 1 0
392 2 16.250953116541538 4.6939699138479885 7.406864012050721 -1 1 0
121 1 14.567038799678707 7.100621349715192 8.424963856297532 -1 1 0
122 2 13.92043610923723 6.601080537991991 7.8581880507771515 -1 1 0
393 2 16.045995371427033 6.19086422837166 7.874617815410503 -1 1 0
3 2 17.47007653017407 8.221206470186305 9.029053896835464 1 0 1
24 2 10.915882964090839 12.71377740478631 8.625099879151577 0 0 -2
22 1 10.977901927677118 11.832442401264894 9.067841006377447 0 0 -2
84 2 10.151221439795004 11.902298455763619 5.004254905266516 -2 -2 -1
83 2 9.384592486250398 10.887567186998423 5.939479987861478 -2 -2 -1
371 2 10.016044320628561 10.716469554162646 8.011982523357297 1 1 0
372 2 9.97270227816734 9.27787553004735 7.5107902328244736 1 1 0
444 2 12.28919180762103 10.144357379620924 5.383075857168367 -2 -2 2
370 1 9.519137808896476 10.176154078318936 7.374766428969259 1 1 0
82 1 9.320178381392067 11.425769800395447 5.10328821749266 -2 -2 -1
367 1 12.89015993165947 10.22488345653916 6.9749554353513314 0 -3 -2
368 2 12.405136265531715 11.070387492178236 7.084419905314013 0 -3 -2
553 1 11.85205908989533 13.028068701635322 5.418143619116618 -1 -1 -2
87 2 15.57352677972893 8.832478247630158 7.6976881680738165 -2 1 1
176 2 13.829735637253009 12.140740468632016 5.083252529282056 -1 0 2
455 2 16.966151167452928 12.263625642011576 7.04827429664179 2 1 1
369 2 13.540641707347216 10.275788137260724 7.673704007751855 0 -3 -2
86 2 16.366277833989976 10.073746963051608 7.444248750872031 -2 1 1
85 1 16.480118644796985 9.13405035086072 7.511352722488651 -2 1 1
456 2 15.83201972685906 11.912098405802418 5.941557781056619 2 1 1
454 1 16.064808032012948 11.975775989207122 6.949057484285098 2 1 1
211 1 14.532545800749634 10.649961367330446 9.103024407113569 -1 -1 -1
537 2 9.495906184358525 17.2404849889418 6.50645988565196 0 0 0
534 2 9.673419949459968 13.944446578354757 7.207022318321895 0 0 -1
76 1 10.89892638966092 16.894589736380123 7.742222664462088 0 -1 -2
316 1 12.575359299327594 17.097395701275236 5.544434066064296 1 -1 0
532 1 10.51585491500427 14.068458586280217 7.66936336197718 0 0 -1
78 2 11.624861992800799 17.195677617253057 7.16000331770664 0 -1 -2
533 2 10.617387503593635 15.005364069684095 7.823270704095792 0 0 -1
555 2 12.215970342261066 13.547045661886346 6.170616907815172 -1 -1 -2
557 2 13.789734412439403 13.924364824204194 8.439002982006746 -3 0 -1
317 2 13.523449636427708 16.93830420301389 5.643216302182367 1 -1 0
538 1 16.88973348370447 17.126635730330108 7.919641226924536 0 1 1
14 2 14.49129416652556 15.14349358674829 6.715325017391924 -1 -1 -1
15 2 15.452893686794665 16.258694351248135 7.174752908890219 -1 -1 -1
282 2 16.761504268498626 15.459580175965431 5.3585608101202435 3 0 0
13 1 15.091635914504804 15.917882293676156 6.351523035207986 -1 -1 -1
556 1 13.91886868679086 13.687415962346403 7.474653591389544 -3 0 -1
558 2 14.74570225945271 13.138745424826489 7.404754932231955 -3 0 -1
280 1 17.51026610126368 14.869673051749025 5.430781942660324 3 0 0
229 1 11.99443247297578 2.90969212272572 12.439468171140627 -2 -2 -2
98 2 10.805388937865038 2.1374608904202486 10.280605922069237 2 0 1
97 1 11.097962336437638 1.6929338438487385 9.526603676678834 2 0 1
231 2 12.931472537976642 2.733751537355435 12.640490052813838 -2 -2 -2
230 2 11.990319844954513 3.742996807601533 11.866116396712382 -2 -2 -2
340 1 9.102160535927933 2.5208573164215102 11.108760628535022 0 0 -2
32 2 13.091502083461949 1.3739269125629785 10.795737331857362 1 2 3
341 2 9.007784506315126 1.5809287319970224 11.420143042945263 0 0 -2
409 1 16.241071315321072 2.7506653622670174 12.394696352054078 -2 2 -1