LAMMPS data file via write_data, version 3 Mar 2020, timestep = 0

2016 atoms
2 atom types

0.0000000000000000e+00 1.7938480711446825e+01 xlo xhi
-1.9962902096329849e+00 4.6992450186549000e+01 ylo yhi
0.0000000000000000e+00 1.9074521652842030e+01 zlo zhi
4.7780169856973961e-02 -6.6820853202579649e+00 -2.1832629936319847e-02 xy xz yz

Masses

1 16
2 2

Atoms # atomic

579 2 6.0689728951985362e+00 4.4546755768525319e+00 1.5056577621073206e+01 0 0 0
223 1 -2.2087755519346928e+00 7.5505250311376848e+00 1.7976223018657080e+01 -2 0 -2
995 2 5.5397953702823468e+00 8.0270150963722688e+00 1.4423873930672787e+01 3 0 1
654 2 -1.1241276876603492e+00 6.3056250987557583e+00 4.5190649208056834e+00 -1 0 0
394 1 9.3892449654928232e+00 4.3904998540467579e+00 5.4534302171341498e+00 -3 0 -3
578 2 6.1222762605029288e+00 2.9881694330141269e+00 1.5035607960081160e+01 0 0 0
929 2 1.3227229789917942e+01 2.5080923196426070e+00 5.9283473561499864e+00 0 0 0
252 2 -1.7774766711610823e-02 9.5851939200496137e+00 1.3515085348328105e+01 -3 0 1
705 2 -2.6570429289778676e+00 6.0919012193850133e+00 1.4022680804882841e+01 -2 0 -1
302 2 5.1127773479409191e+00 5.8014814828600061e+00 1.6644578625017854e+01 0 0 -1
299 2 -5.8283902207780427e+00 5.2417966948137362e-01 1.6685694281806740e+01 -2 0 -2
896 2 1.4063916297640743e+01 6.1505277295664555e+00 5.3340475672212468e+00 -1 0 0
321 2 1.0885335481271557e+01 -4.6224139863542724e-01 1.4475880445102636e+01 -4 0 -3
406 1 2.0698709604319605e+00 1.4054358665671662e-01 1.0602266547785465e+01 -2 0 -2
978 2 6.1576590650637462e+00 -1.6911569059250546e+00 1.6251626298219843e+01 -3 0 -1
596 2 1.4865862580173987e+00 5.2499135273452904e+00 5.4173787417520796e+00 3 0 -2
721 1 1.1802008955225984e+00 9.3875966455894879e+00 1.8008610561641646e+01 -5 0 -3
268 1 -2.9294085836652823e+00 7.9659787246196334e+00 1.3630121507676026e+01 2 0 -2
881 2 1.1903382585174565e+01 3.1807042090447259e+00 7.6313663374400429e+00 -3 0 2
962 2 1.2491794858558638e+00 -1.5805575131301524e+00 1.3898370599848484e+01 -3 0 -1
53 2 9.6407519791280354e+00 2.5635616676673809e+00 2.5462783479726201e+00 2 0 0
234 2 7.4792592270445821e+00 9.9282062642745110e+00 9.5493890808773187e+00 -2 0 0
609 2 5.5433325929254229e+00 -1.0741917675493107e+00 1.0117498066577653e+00 -3 0 0
1583 2 -4.5157680543192216e+00 9.9153917822163340e-01 1.4804219522298441e+01 0 1 1
122 2 8.6200944786870402e+00 8.1594859458976234e+00 1.7925009254823447e+01 -2 0 -1
295 1 -4.7708277887667072e-01 8.8542699314409639e+00 2.8410366253095898e+00 2 0 3
407 2 1.2548877456882632e+00 3.1318257386266346e-01 1.1161155325253340e+01 -2 0 -2
707 2 2.1020084853510408e+00 7.1173202756531140e+00 1.4669633907480030e+01 -1 0 -1
972 2 3.4932799939750527e+00 6.4140126520195935e+00 1.7574534572497458e+00 0 0 1
448 1 4.2746099492619880e+00 5.7239300381222602e+00 1.1806024004196551e+01 -1 0 1
244 1 1.0293107159511752e+01 5.3351755964394245e+00 1.4678876186312428e+01 -4 0 -4
841 1 -8.3450443760876869e-01 -1.7814258216168632e+00 1.5625306303140350e+01 -5 0 -5
687 2 2.0932837109140392e+00 -1.3151227347742014e+00 9.5261536694971092e+00 -3 0 0
925 1 -4.0131061905806416e+00 -1.7178262754736218e+00 1.3144027389609885e+01 2 0 2
746 2 -3.0463411826867288e+00 8.5901615335591384e+00 1.6977403622385626e+01 -2 0 0
301 1 4.7211476450376324e+00 5.1419696213462167e+00 1.6009927041799557e+01 0 0 -1
529 1 7.9774261321282296e+00 -1.9367601688940428e+00 2.9828963236849857e+00 -1 0 0
84 2 1.2386015602290124e+01 9.6268592989561430e+00 7.8447240468168529e+00 -1 0 -3
463 1 1.7826575743093946e+00 5.7782850630737084e+00 6.8712934391190092e+00 2 0 0
449 2 4.5270997035506015e+00 6.5565746778375527e+00 1.1314267997742963e+01 -1 0 1
524 2 1.3091707329134827e+00 4.3209080062696170e+00 1.2364062404579677e+01 -2 0 -4
585 2 -4.2831253077419040e+00 7.8759746821852339e+00 1.2796569061026949e+01 -4 0 -4
523 1 1.9352260325649135e+00 4.5280583124532097e+00 1.1671047700624374e+01 -2 0 -4
658 1 5.1524228024280205e+00 3.7804207124164302e-01 1.2969273367776921e+01 -1 0 -2
206 2 5.3152022855591881e+00 2.8204032130931322e+00 1.1222519589425808e+01 3 0 0
96 2 -1.2479593039906802e+00 3.3669541335025484e+00 7.2622861879653904e+00 -1 0 -1
441 2 5.1989124182897850e-01 5.3537822313656225e+00 1.4389617870645136e+01 -2 0 -1
151 1 7.2069470874848083e+00 7.6399419674202251e-01 3.0813039633686188e+00 3 0 0
781 1 1.5600780458123646e+00 3.2104015474766632e+00 8.3457270656633720e-01 -2 0 -2
880 1 1.1774031592277154e+01 2.4997471470820631e+00 8.2856096176338845e+00 -3 0 2
626 2 2.6532575871390689e+00 8.4693782416618024e-01 1.8293087739745530e+01 0 0 -1
459 2 -2.0579587684551548e-01 -1.6422864477181220e+00 2.4433282739732816e+00 -2 0 -2
703 1 -2.4343177963945575e+00 5.2225063808017227e+00 1.4419349410026967e+01 -2 0 -1
382 1 1.5952451458406546e+01 4.7862182314251625e+00 1.6990518424644203e+00 -2 0 1
21 2 9.5249180578167252e+00 6.0630839705178055e+00 5.7114335691462950e+00 -3 0 -3
319 1 1.0553017783386991e+01 -1.2832955274859712e+00 1.4962532204143537e+01 -4 0 -3
54 2 8.4819066013456421e+00 1.2935544570040731e+00 2.3032393333279999e+00 2 0 0
168 2 1.0016858452613674e+01 1.0104503271746085e+01 6.1990505171464543e+00 -4 0 -3
689 2 5.7494232490807251e-01 1.6893545859612469e+00 5.9749538502303841e+00 -2 0 0
591 2 2.4602635973532117e-01 7.6266534434585402e+00 1.3741516439066313e+01 -4 0 -1
392 2 1.9178992074494845e+00 6.7728335664867636e+00 1.1621723134748811e+01 -1 0 -1
652 1 -6.6578986449678623e-01 6.2868221052733215e+00 3.6484293953684022e+00 -1 0 0
52 1 9.4647076290153613e+00 1.6376377111933231e+00 2.2515392964171390e+00 2 0 0
356 2 -2.7651603016461492e+00 5.9693236821431679e+00 1.7318092611178489e+01 -4 0 -3
477 2 6.8949535878430712e+00 3.9857198442479822e+00 1.2697722218376111e+01 -1 0 2
500 2 -9.6827975976003344e-01 1.5693606801885878e+00 1.1776049206365041e+01 1 0 0
919 1 1.1466689667848794e+01 -1.4472831394962711e+00 1.0352416017473946e+01 0 0 -2
806 2 5.5678107597218185e+00 8.5545369880064737e+00 4.4239019201759486e+00 -4 0 1
789 2 8.3485516947832217e+00 5.7378648967453278e+00 4.3567406948924625e-01 -2 0 0
810 2 6.6631612113305039e+00 7.2026178119662152e+00 7.4292171007871790e+00 -4 0 -1
930 2 1.4104932203968556e+01 1.6326523594382722e+00 5.1078072056790074e+00 0 0 0
702 2 5.3920568578107098e+00 4.9860741135395470e-01 1.5993809309812846e+01 -3 0 -3
501 2 -7.6017070663674380e-01 1.5694587681158145e-01 1.1998449239153992e+01 1 0 0
625 1 3.4090247114226955e+00 1.1001126930688740e+00 1.8853109128739490e+01 0 0 -1
233 2 7.1180790814326542e+00 8.8100178608604995e+00 8.4955239682951493e+00 -2 0 0
101 2 3.9610003731274164e+00 6.7246708482983397e+00 1.3482805796894317e+01 -1 0 -1
384 2 1.6284329858409947e+01 5.3191643607422829e+00 2.4892941968179314e+00 -2 0 1
245 2 1.0903737957859949e+01 5.2366376122232792e+00 1.5394107028738437e+01 -4 0 -4
622 1 -3.7681589943954541e+00 2.7355044374457984e+00 1.7647508967137245e+01 -2 0 -2
624 2 -2.8968169057669964e+00 2.2567751178675444e+00 1.7675421465293564e+01 -2 0 -2
179 2 1.0880000609173633e+01 4.2572866615188723e+00 2.9943181643332268e+00 -3 0 0
161 2 -1.2406767139864670e+00 9.3873055985711602e+00 1.0080906789073774e+01 1 0 -5
352 1 1.1569670724099080e+01 6.7121267981938164e+00 8.2228843498046018e+00 -1 0 0
167 2 9.4809186847028766e+00 8.8680023458587609e+00 5.5115228132611618e+00 -4 0 -4
634 1 4.8314468359361555e+00 7.8097993980493587e+00 1.0475753526809152e+01 1 0 -2
600 2 -2.5145068971312856e-01 -1.9652948811599846e-01 9.4509569160426423e+00 -3 0 1
49 1 9.5167085433718590e+00 2.4569478181257773e+00 9.8355473577990118e+00 -1 0 0
183 2 5.5407665706202316e+00 6.7705106796193508e+00 9.3156432324674512e+00 -1 0 0
464 2 2.1960441167790985e+00 6.6567201695938838e+00 6.6141327642422238e+00 2 0 0
393 2 1.3139845875849927e+00 7.4095562993768525e+00 1.0384458095970050e+01 -1 0 -1
745 1 -3.6732809299335680e+00 9.0897124281666901e+00 1.6374546964823530e+01 -2 0 0
671 2 -1.8721044816749588e-01 -1.0300905946504526e+00 6.5590272178190103e+00 -3 0 -1
135 2 -7.8104850677558035e-01 2.2220173480706000e+00 9.3060338083787197e+00 1 0 -1
778 1 6.0645316829387550e+00 7.7192710287813942e+00 2.9670926135578664e+00 1 0 0
502 1 4.9753362742977352e+00 -1.7643216821437910e+00 9.6374736127729435e+00 0 0 -1
598 1 -8.7575245966181381e-01 -8.4143208638836020e-01 9.1621904954759632e+00 -3 0 1
120 2 5.6423086192370713e+00 3.3612859134001623e+00 1.9510215332729006e+00 -2 0 -2
858 2 1.4836493367878695e+01 8.2966313219021366e+00 7.9129171813429053e+00 -2 0 -3
640 1 -1.1998553109720436e+00 5.3398068741447471e+00 1.1060691096139211e+01 4 0 -1
753 2 -4.9314208826012402e+00 5.2817989159456360e+00 1.6826855263760464e+01 0 0 2
712 1 -1.4690868895212699e+00 -1.6835933297657464e+00 1.1829143585504141e+01 0 0 3
119 2 4.3664285879290832e+00 3.9692120788147971e+00 2.6955294052408916e+00 -2 0 -2
525 2 2.8125408304398682e+00 4.8376168924395575e+00 1.2071522530084490e+01 -2 0 -4
495 2 -1.0298111561623404e+00 7.1818235229497489e+00 8.2818236425282095e+00 -3 0 -2
971 2 2.9102633515886547e+00 7.7923509609747885e+00 1.3801837205293241e+00 0 0 1
85 1 1.7398312051939556e+01 -1.6354818285365025e+00 2.3982371033961572e-02 1 0 -2
212 2 8.5279281596149303e+00 5.2961751985543133e+00 9.8703505741630124e+00 -5 0 -2
701 2 4.4744187982662522e+00 1.4740937818894468e+00 1.5299188437290104e+01 -3 0 -3
5 2 3.7663373602068377e+00 8.3071835064520503e+00 5.6615850330705237e+00 1 0 0
470 2 1.6422085452442023e+01 2.5624804637882219e+00 2.6102635084631158e+00 -7 0 -2
471 2 1.5970443671470349e+01 1.3678386612023128e+00 1.7860691441262044e+00 -6 0 -2
708 2 9.9950090219135923e-01 7.0981322871090384e+00 1.5836542347307187e+01 -1 0 -1
762 2 4.4477149380390424e+00 -1.8065533889408392e-01 1.9061686473513952e+01 -3 0 1
46 1 1.2107587199871215e+01 3.9686124007892616e+00 6.0542515062724425e+00 -3 0 0
992 2 1.4119359142086598e+01 -1.1411973387197860e+00 8.2124708352818345e+00 1 0 1
856 1 -2.1927613394774230e+00 8.2043507953063575e+00 7.6260386714784847e+00 -1 0 -3
627 2 9.6222298157490691e+00 1.3726578943760916e+00 5.8556106172682598e-01 0 0 0
111 2 9.2985399431219129e-01 -5.2818181415125975e-01 1.8126633345423514e+01 1 0 -4
869 2 1.3234330668200432e+01 5.7514729902444701e+00 7.8178151025301563e+00 1 0 0
16 1 9.9854580135501259e-01 2.4607918145624961e+00 1.5543740516066574e+01 0 0 1
178 1 9.8937049282741967e+00 4.0892289386916651e+00 2.9518850441779469e+00 -3 0 0
974 2 1.0356826747364778e+01 -3.5063213884523070e-01 1.6427427727120783e+01 -4 0 -2
118 1 5.1133746251953793e+00 3.3428334388735896e+00 2.7894732820313095e+00 -2 0 -2
503 2 4.0615703472000693e+00 -1.9974424796831876e+00 9.4870126208616483e+00 0 0 0
623 2 -4.2744207392330971e+00 1.9271596761179137e+00 1.7231560192061441e+01 -2 0 -2
1668 2 5.2893109068229451e+00 8.2358095014791566e-01 1.2130887756698423e+01 -1 1 -2
644 2 1.0808326797652628e+01 1.7404554810171660e+00 1.0815083630968259e+01 -4 0 -3
539 2 2.0863323857077671e+00 -5.6110053851526032e-01 1.5819305700378798e+00 -4 0 -3
83 2 1.2870694678555312e+01 8.6689650932374676e+00 6.7981841400466978e+00 -1 0 -3
239 2 8.1433967765449733e+00 3.4602351398246087e+00 1.4585961391612280e+01 0 0 0
716 2 5.9848791007183237e+00 2.5980278182243177e+00 1.6232412128176558e-02 1 0 2
717 2 7.0339774336142344e+00 3.8576284986299143e+00 1.7550858547085688e-01 1 0 2
240 2 9.6900612219942968e+00 3.9450594867697175e+00 1.4483995786390169e+01 0 0 0
904 1 9.2070156075371532e+00 6.5720118949839854e+00 1.7898947625960460e+00 -3 0 2
17 2 6.4786601613181727e-01 3.2389737015828457e+00 1.5093387200756906e+01 0 0 1
779 2 5.2084447498207442e+00 7.6297164638821435e+00 2.4659420004099935e+00 1 0 0
698 2 1.0825540598537835e+01 9.0320164594356509e+00 2.1074560093811134e-01 2 0 4
645 2 1.1074601115084441e+01 2.5314928950020255e-01 1.1062754998351158e+01 -4 0 -3
613 1 -1.4950855175027922e+00 1.2831348582631139e+00 1.8051429090028062e+01 -2 0 -1
246 2 1.0832617837766566e+01 5.4114814326861866e+00 1.3839909264834535e+01 -4 0 -4
238 1 9.0796993304366218e+00 3.1389051053495836e+00 1.4616936166599425e+01 0 0 0
522 2 8.1440764943337136e+00 -5.5915567526997734e-01 1.0267899219397984e+01 -5 0 -2
715 1 6.4972064137348591e+00 3.1520287748121882e+00 6.1790767898595733e-01 1 0 2
115 1 -4.4300263904626140e+00 3.6574275614091469e+00 1.2939917527922988e+01 -4 0 -5
426 2 1.3711070433555825e+01 1.6278388878614667e+00 2.3103961441823482e+00 -2 0 1
494 2 -4.8712781352783097e-01 6.1769284394687940e+00 9.2632549791081011e+00 -3 0 -2
998 2 6.8863836741853026e+00 9.6454174876823604e+00 1.3250775318013281e+01 -3 0 2
148 1 1.4981324088333734e+01 9.3464618300409867e+00 1.9729054646273150e+00 -4 0 0
933 2 -2.2489179306500264e+00 9.7152004342352738e-01 1.4785174558703718e+01 -2 0 -1
857 2 -1.7790884852590128e+00 9.0627597077952249e+00 7.4001734203274321e+00 -1 0 -3
868 1 1.4089706399085500e+01 5.5133361539341257e+00 8.2057184548736384e+00 1 0 0
320 2 1.0162369126798838e+01 -1.8763646463284815e+00 1.4196475019080772e+01 -4 0 -3
18 2 4.1153759759567343e-01 1.7370599337730313e+00 1.5337286848518637e+01 0 0 1
163 1 1.1425709417586075e+01 1.0100599174507387e+01 1.2014951161032617e+01 2 0 0
504 2 5.1415646029365938e+00 -8.8441365560951324e-01 9.2346531691616534e+00 0 0 -1
785 2 4.5247880927496564e-01 9.3585646908442000e-01 2.2212512755812983e+00 -3 0 -2
870 2 1.4321477001897362e+01 4.6358983973778294e+00 7.8824735038898215e+00 1 0 0
211 1 7.7931283628405028e+00 4.6338658622039040e+00 9.7681999383485447e+00 -5 0 -2
387 2 1.6014484325744818e+00 3.1749980986133979e+00 4.6611137309662380e+00 0 0 -2
270 2 -3.0892004726028848e+00 8.5544753931554798e+00 1.4326504328968598e+01 2 0 -1
643 1 1.1353742940536574e+01 1.1086413846259697e+00 1.1339893598708324e+01 -4 0 -3
761 2 1.1219124778339543e+01 -1.5393958005290653e+00 5.7071838502079797e-01 -3 0 2
747 2 -4.5240870362509780e+00 8.7622468639851032e+00 1.6696216588817055e+01 -2 0 0
949 1 -3.4135710156862240e+00 -1.8177184599645988e+00 1.6894709801089984e+01 -1 0 1
116 2 -4.4398033568952817e+00 2.7222315946912135e+00 1.3067638586603199e+01 -4 0 -5
224 2 -1.1956385157182847e+00 7.4041161707473382e+00 1.7894019995478249e+01 -2 0 -2
845 2 7.6770449922123118e+00 -7.5746162973050990e-01 1.2724955193628098e+01 1 0 1
48 2 1.1169243638624096e+01 4.1585659126903272e+00 5.9856124102635020e+00 -3 0 0
117 2 -3.6787420368628991e+00 4.0012824854836433e+00 1.3506832734095655e+01 -4 0 -5
931 1 -1.2649317326236678e+00 8.6513170003486017e-01 1.4848586349821854e+01 -2 0 -1
429 2 1.1775243040409130e+01 7.1325706745964332e+00 1.7223714513524790e+01 -1 0 -1
385 1 1.7975346113428212e+00 2.2058617898515429e+00 4.7025882707361477e+00 0 0 -2
618 2 2.0514461695611095e+00 9.4254520217329283e+00 9.0737443065692407e+00 -2 0 -1
961 1 1.6808852031016386e+00 -9.9071772217213394e-01 1.4541220991303902e+01 -3 0 -1
42 2 3.2902954000496565e+00 4.8416654075096099e+00 7.4531345057258056e+00 -2 0 3
726 2 1.4455095025335874e+01 9.1112598437215109e-01 8.9589895994759416e+00 1 0 1
876 2 8.5399277887740048e+00 8.8105423298162346e+00 1.1684648311014767e+01 -3 0 1
769 1 -3.2768242987731342e+00 6.8066645823844443e+00 1.0325276701118831e+01 1 0 -3
1002 2 1.0451492067745962e+01 7.6086533934836353e-01 3.0816339850050425e+00 -1 0 1
4 1 2.8437606260008850e+00 8.2320237199074366e+00 5.9757007609628614e+00 1 0 0
905 2 9.4791806372367997e+00 7.2916209031576962e+00 1.1910341976344654e+00 -3 0 2
41 2 4.4311923429881048e+00 3.6451439235821610e+00 7.5099163464368983e+00 -2 0 3
875 2 1.0122280418852768e+01 9.0586596344352728e+00 1.1831244749682780e+01 -3 0 1
812 2 1.2033954605805370e+01 6.2629381691657855e+00 1.2489614926397467e+01 -2 0 -1
932 2 -1.0744399336151802e+00 9.7598142763869689e-01 1.3865138497406166e+01 -2 0 -1
977 2 5.3084837161535772e+00 -1.2075216731803717e+00 1.7495378912553292e+01 -3 0 -1
213 2 7.0209000244475082e+00 5.0847464551023425e+00 9.3390032114783921e+00 -5 0 -2
289 1 7.2116039480120859e+00 9.8240134781983706e+00 1.4612066214504453e+00 0 0 3
700 1 5.2430079427505296e+00 1.4367060837575916e+00 1.5867972239080609e+01 -3 0 -3
338 2 2.4669996732247430e+00 5.0963063638962272e+00 3.1332794161484054e+00 -1 0 -1
938 2 1.1382152672185660e+01 8.9759296304175109e+00 5.0566208441580134e+00 1 0 1
969 2 2.2047793841298775e+00 3.5379711002202514e+00 1.0479768896553720e+01 -1 0 1
545 2 2.5680308301854593e+00 3.5449290506159725e-01 1.4469261601003190e+01 2 0 1
386 2 1.4530090050863644e+00 1.8364236137607586e+00 3.8537732301259320e+00 0 0 -2
937 1 1.2183579707773559e+01 8.6243768715886020e+00 4.6239393318009210e+00 1 0 2
40 1 3.9604581393174354e+00 4.4107829606216766e+00 8.0171945924877228e+00 -2 0 3
786 2 1.4957080454539606e+00 1.8459937807063067e+00 1.5757139190662575e+00 -3 0 -2
166 1 9.8614728444967525e+00 9.7093835107382400e+00 5.3288390913821972e+00 -4 0 -3
724 1 1.4949993560603311e+01 4.2789053848811198e-01 8.1824984662598652e+00 1 0 1
784 1 1.4033155649009916e+00 9.9296756791574481e-01 2.0301215450396612e+00 -3 0 -2
967 1 2.3686036087476272e+00 3.0219490298045670e+00 9.6332508500955676e+00 -1 0 1
553 1 9.1507177290961117e+00 2.5054743668744139e+00 1.7238149460272105e+01 -5 0 -2
681 2 6.3803034440146522e+00 3.1592346862480900e+00 1.8321619631409607e+01 -3 0 -3
649 1 7.7675107690466039e+00 2.0743923348227824e+00 5.4828845639201527e+00 -4 0 0
650 2 6.9577275294159255e+00 2.2488244738349179e+00 6.0350291882782283e+00 -4 0 0
51 2 8.9437090875910581e+00 1.6662289959724488e+00 9.7270369177795537e+00 -1 0 0
36 2 -1.3998389949240089e+00 5.0830171849547723e-01 5.3067965655443414e+00 -1 0 0
945 2 3.5296970938203853e+00 1.6293026968091473e+00 4.6372558555337227e+00 0 0 3
673 1 1.4520109134785515e+00 8.7695438871518032e+00 1.1055500547006949e+00 0 0 -3
540 2 1.4304797806655349e+00 -1.6780471484395951e+00 9.8422748970592433e-01 -4 0 -3
397 1 1.5651473887505279e+01 6.2752749617725208e+00 5.8238634600256693e+00 2 0 0
127 1 1.2516081853667304e+01 4.6042277182916163e+00 2.6271929078806542e+00 -2 0 -1
128 2 1.3014138285757605e+01 3.7868163718206498e+00 2.7057842134358587e+00 -2 0 -1
1407 2 -2.2492544326010120e+00 7.0598617587980392e+00 6.4647157438041312e+00 3 0 0
34 1 1.6015129294613697e+01 1.6290939012943229e-01 4.5077191265489400e+00 -2 0 0
928 1 1.3962699408290696e+01 1.8759238284672946e+00 6.0398556179226004e+00 0 0 0
777 2 1.0923342552437251e+01 -1.2312122654641366e+00 3.2966048901369898e+00 -2 0 2
152 2 6.3413139485477892e+00 6.5044399176377166e-01 2.5949953245483206e+00 3 0 0
439 1 1.8362165956386267e-01 4.5281172152076712e+00 1.3981023533180636e+01 -2 0 -2
350 2 1.4124405239152605e+01 -1.7425221114805356e-01 1.0848926276660908e+00 2 0 4
976 1 5.2373862377697318e+00 -1.4828582492608693e+00 1.6508503084780621e+01 -3 0 -1
176 2 4.9543785525707724e+00 -1.4513977104958689e+00 1.2863220549092560e+01 -5 0 1
783 2 -4.5836315464502402e+00 3.0040653919856366e+00 1.9021727959102193e+01 -2 0 -3
699 2 2.8097584712630637e+00 8.8111439179899520e+00 1.8573940621483722e+01 2 0 3
994 1 6.3403379679518075e+00 8.5494529873937086e+00 1.4536536486631972e+01 3 0 1
725 2 1.4677458119067255e+01 8.6140464954737572e-01 7.3289299445657745e+00 1 0 1
160 1 -1.9399418521772929e+00 9.3084268482776338e+00 1.0738905912445267e+01 1 0 -5
129 2 1.2893687581368104e+01 5.1883339591861990e+00 3.2539708384158952e+00 -2 0 -1
389 2 1.3310351079433309e+01 -1.5921652694201822e+00 5.2523036691309004e+00 -1 0 0
173 2 1.1191564349573436e+01 1.1277309107191433e+00 1.3044118063728739e+01 -1 0 -2
1664 2 4.7913082360643910e+00 7.4959935077662401e+00 1.8122518295595373e+01 -3 1 -1
428 2 1.0975111922537671e+01 8.4826811366177743e+00 1.7199591591800814e+01 -1 0 -1
895 1 1.3207939918458054e+01 6.0425405070679723e+00 4.8367289129877342e+00 -2 0 0
462 2 1.0595090799652477e+01 5.5286491504972979e+00 1.0891756577462800e+01 -4 0 -2
651 2 7.4196948476678157e+00 1.6404258907949356e+00 4.6625989106412833e+00 -5 0 0
996 2 7.1790022278003960e+00 8.0154475628734243e+00 1.4555434372525884e+01 3 0 1
611 2 1.2892435111014061e+01 1.5541053992272515e+00 1.0491777506343803e+01 -1 0 2
232 1 6.9380659060768819e+00 9.1266501543417657e+00 9.4058976078907968e+00 -2 0 0
750 2 2.2411978866039552e+00 9.3830355486891541e+00 1.1625924076435155e+01 -3 0 1
926 2 -3.3578258114758746e+00 -1.7805686931021834e+00 1.2410215575155240e+01 2 0 2
102 2 4.1828582938496064e+00 6.5428882855801529e+00 1.4979666918005494e+01 -1 0 -1
497 2 5.6420478656074753e+00 1.7004243810721213e+00 7.6676929490752546e+00 0 0 1
498 2 5.0582290793754972e+00 1.9050089646512318e+00 6.0776688797343441e+00 0 0 1
395 2 9.5690412184686355e+00 4.3989193689802129e+00 4.4659968468440780e+00 -3 0 -3
457 1 -7.0651086100316463e-01 -1.9086837132571637e+00 3.2280100748725915e+00 -2 0 -2
349 1 1.4446471857140416e+01 7.6031586302748844e-01 9.6141936949904450e-01 2 0 4
679 1 6.5318213126848006e+00 2.2331711681133148e+00 1.8077646267312698e+01 -3 0 -3
398 2 -1.9036904622832618e+00 5.4552443478687440e+00 6.2666808676855492e+00 3 0 0
897 2 1.2885114804226669e+01 6.9195537599347379e+00 4.5971251691555945e+00 -2 0 0
66 2 5.1838157188294254e+00 1.2284023792049004e+00 9.6016852230671859e+00 -2 0 -3
722 2 1.0058855738043739e+00 9.6672155288239381e+00 1.8959107723543283e+01 -5 0 -3
943 1 4.4986527320816014e+00 1.4932774101785351e+00 4.5544012285781390e+00 0 0 3
149 2 1.4213392075404146e+01 9.6952467096598074e+00 2.4977078881150652e+00 -4 0 0
391 1 1.6805770425212234e+00 7.6238506142780373e+00 1.1248091866622323e+01 -1 0 -1
220 1 3.2566672967441512e-01 7.1812506355533632e+00 1.7082412442581010e+01 -2 0 -3
172 1 1.1102838635074848e+01 1.1796949038778668e+00 1.4027079299190650e+01 -1 0 -2
298 1 -4.8611033978018607e+00 5.5374123766404715e-01 1.6378728895914328e+01 -2 0 -2
680 2 5.9908521519886806e+00 2.0473501941060981e+00 1.7330503362482002e+01 -3 0 -3
831 2 1.4475444346128299e+00 9.0741292452904467e+00 5.1589757061500912e+00 -3 0 0
538 1 2.3036071126824709e+00 -1.3953691545796856e+00 1.1404012200396332e+00 -4 0 -3
944 2 4.8333860195603986e+00 2.0519892907941095e+00 3.8637555315843946e+00 0 0 3
100 1 3.9854991820232035e+00 7.2789051286429753e+00 1.4367797470779566e+01 -1 0 -1
1667 2 4.3104773053096457e+00 7.5120640312423026e-01 1.3427107673443397e+01 -1 1 -2
788 2 1.9136659124760778e+00 4.6314464415781051e+00 1.8376446554871233e+01 -2 0 -1
174 2 1.0417066491170344e+01 1.8514940600670120e+00 1.4170209602567065e+01 -1 0 -2
388 1 1.4039683589460543e+01 -1.6843502966591322e+00 4.6704371193282181e+00 -1 0 0
465 2 1.1105058871477538e+00 5.8309484961863927e+00 7.6047040454523946e+00 2 0 0
844 1 7.6888092830160391e+00 -1.3850218139315418e+00 1.1907375605931527e+01 1 0 1
460 1 1.0068207303732578e+01 6.0393206036664537e+00 1.0230019611216008e+01 -4 0 -2
607 1 5.1222482371617879e+00 -2.0142560244494279e-01 1.3580326219426255e+00 -3 0 0
290 2 6.8982892028615250e+00 8.9980066886550691e+00 1.9772337555714792e+00 0 0 3
269 2 -1.9708069672800046e+00 8.0659001777842043e+00 1.3429460219691540e+01 2 0 -1
590 2 3.1938751617653693e-02 7.9808168906063859e+00 1.2285582388659815e+01 -4 0 -1
595 1 1.3448589789854903e+00 4.7693802587476810e+00 4.5484271765234672e+00 3 0 -2
528 2 4.7410928205032983e+00 -3.3035396550976315e-01 4.6272924113503455e+00 -2 0 -1
109 1 1.2135644351592427e+00 1.5022532406520828e-01 1.7523677925483945e+01 1 0 -4
615 2 -9.0106209228371714e-01 1.1193211448704607e+00 1.7313562122320445e+01 -2 0 -1
714 2 -1.5952038361550742e+00 -1.7115563634779642e+00 1.0842606704882565e+01 0 0 3
461 2 9.8007787242644131e+00 6.9172132589528683e+00 1.0626477650600430e+01 -4 0 -2
599 2 -1.6238719648242990e+00 -3.0713635605209411e-01 8.7228633488926732e+00 -3 0 1
408 2 2.3285376253343517e+00 1.0422845894511141e+00 1.0274320018065383e+01 -2 0 -2
20 2 1.0256202229317852e+01 6.8693894359247007e+00 6.8377826944968900e+00 -3 0 -3
182 2 5.2144062825794180e+00 5.4900892411180191e+00 8.4700222713063056e+00 -1 0 0
35 2 1.6036241197573446e+01 8.7053055163015269e-01 3.8356946108987997e+00 -2 0 0
575 2 9.5608641645944807e+00 8.5254409514317597e+00 1.5796387227923287e+01 0 0 0
672 2 -5.9838716843776218e-01 -1.8822468992977082e+00 7.7008751170012344e+00 -3 0 -1
475 1 6.4748021236840483e+00 3.8679248381944920e+00 1.1836978227982236e+01 -1 0 2
68 2 6.1205788891147792e+00 5.5719448199911543e+00 1.8606301821606774e+01 -4 0 -3
526 1 4.8551648028246124e+00 -1.2500536765812975e+00 4.9569185696712648e+00 -2 0 0
133 1 -7.0098383504872963e-02 2.1608075911707072e+00 8.6452905986627435e+00 1 0 -1
610 1 1.3692413489383547e+01 1.7617018677298617e+00 9.9044292457343914e+00 -1 0 2
675 2 1.1300653211175631e+00 8.4544724098528992e+00 2.3466929790518259e-01 0 0 -3
82 1 1.3001349937184624e+01 8.9116858061526099e+00 7.6835953605106040e+00 -1 0 -2
300 2 -4.4851633825898851e+00 -3.3973636091348647e-01 1.6469150637909124e+01 -2 0 -2
635 2 5.5689459726580166e+00 8.4800471119458152e+00 1.0522052759648242e+01 1 0 -2
782 2 7.7103574911126005e-01 3.7076454922038149e+00 5.2266128212081375e-01 -2 0 -2
690 2 -3.6173943803597153e-01 1.4156011137965803e+00 7.2840966522045791e+00 -2 0 0
561 2 9.2051337129974637e+00 -7.3532703518361897e-01 6.7600333703035806e+00 -2 0 1
728 2 9.1027034005161109e+00 7.7551218432459734e+00 1.3386824496755324e+01 0 0 1
113 2 8.3565741771092927e+00 1.0002253311610918e+00 1.4290534396727669e+01 -2 0 -1
697 1 3.5123929276987438e+00 8.2871796880962894e+00 1.8987941041665277e+01 2 0 3
616 1 2.9565103024380148e+00 9.0299424737950069e+00 8.8983809311505251e+00 -2 0 -1
222 2 6.7143368719923568e-01 7.9320338280471319e+00 1.7617125834909011e+01 -2 0 -3
617 2 3.5106230316801796e+00 9.8123899195433530e+00 8.6266895642493662e+00 -2 0 -1
67 1 6.4204654352137522e+00 4.7485421864343618e+00 1.8995008216244564e+01 -4 0 -3
727 1 8.9525755570788643e+00 7.6370533236301146e+00 1.4319162403154182e+01 0 0 1
114 2 6.9221589651552993e+00 6.5832834998953738e-01 1.4078697670987644e+01 -2 0 -1
425 2 1.2636492824438060e+01 1.4947365806116655e+00 3.4279316642147299e+00 -2 0 1
544 1 3.1169549216532877e+00 1.1879885681212903e+00 1.4397310507915922e+01 2 0 1
297 2 1.6527043546031766e+01 8.9493757237972513e+00 2.6739111554088306e+00 1 0 3
1001 2 1.0855486404030277e+01 4.6128061148595734e-01 4.5725820028702371e+00 -1 0 1
496 1 5.4491451746272270e+00 2.3488587305278701e+00 6.8813596133513117e+00 0 0 1
655 1 5.5429113958813181e+00 7.1161656398103119e+00 1.7596631855566663e+01 -3 0 -1
337 1 3.0706646848617050e+00 5.0944603208074328e+00 2.3819324263889992e+00 -1 0 -1
520 1 8.2125486987644756e+00 1.0747705490436354e-01 9.5439426400215055e+00 -5 0 -2
221 2 8.3189188301876271e-01 6.4156131408494215e+00 1.7516809213659176e+01 -2 0 -3
846 2 6.7818357695575111e+00 -1.7809541350144109e+00 1.1893676443789465e+01 1 0 1
583 1 1.2838187411489820e+01 7.6413891885279526e+00 1.2313951267789825e+01 -5 0 -4
584 2 1.2401353488374514e+01 8.4510179298708934e+00 1.1989968027642169e+01 -5 0 -4
641 2 -1.8984833992790549e+00 6.0577113896015611e+00 1.1184589754025167e+01 4 0 -1
110 2 1.2018173573502482e+00 -1.5068634664542357e-01 1.6561459539138244e+01 1 0 -4
65 2 6.6487907139522910e+00 5.9856778585449044e-01 9.0941684353616825e+00 -2 0 -3
47 2 1.2529565429651136e+01 4.8009189331220323e+00 5.7618341179729953e+00 -3 0 0
207 2 3.9405310051512243e+00 2.6063109911113003e+00 1.0446506282007284e+01 3 0 0
808 1 7.2083221192861711e+00 7.9064077841174054e+00 7.0736992209669500e+00 -4 0 -1
723 2 1.1801183396394528e+00 1.0128459489472856e+01 1.7374937175565311e+01 -5 0 -3
577 1 6.5146854565541892e+00 3.7535267500603702e+00 1.4620303588454401e+01 0 0 0
19 1 9.6041579343901997e+00 6.9695978993568080e+00 6.0997177539579548e+00 -3 0 -3
1000 1 1.1163042564419472e+01 3.8532134070110935e-01 3.6827479225120645e+00 -1 0 1
294 2 -1.5753095848200296e+00 3.4863502004265507e+00 1.0873824585879134e+01 1 0 -3
390 2 1.4624806415872118e+01 -8.2857316904810863e-01 4.6861773356962981e+00 -1 0 0
589 1 -3.9453191601828408e-01 8.0729535398690011e+00 1.3151919405698159e+01 -4 0 -1
521 2 8.5344821613214172e+00 -4.4986356447924192e-01 8.7905887603049955e+00 -5 0 -2
813 2 1.2351466957981080e+01 4.7340098533602504e+00 1.2534957683381007e+01 -2 0 -1
912 2 9.1723434799944314e+00 1.2169309374764374e+00 6.0635500644988829e+00 -2 0 1
153 2 7.4089697287793452e+00 -1.9147332829099328e-01 3.3450849219433847e+00 3 0 0
513 2 8.0982220958536573e+00 -1.3837666001057820e+00 1.5428293299954229e+01 1 0 0
771 2 1.3865628203625830e+01 7.0695045714002074e+00 1.0829460940627149e+01 0 0 -3
184 1 7.2445129308379199e+00 -1.6669854300596219e+00 3.8984359877901886e-01 -4 0 -6
809 2 8.0539183959950993e+00 7.5320935007171830e+00 6.7077285120050902e+00 -4 0 -1
866 2 3.0687127637498470e+00 2.7470995908762372e+00 1.7993749581713043e+01 -3 0 -1
94 1 -2.0093898122270795e+00 3.8015046453463874e+00 6.9271332495707219e+00 -1 0 -1
225 2 -2.4265906083703053e+00 7.3206172689436197e+00 1.8917388587539740e+01 -2 0 -2
770 2 1.4349231655696109e+01 6.2015908157638133e+00 9.6144908601797390e+00 0 0 -3
123 2 1.4564894086435693e+01 8.4495446441004738e+00 1.5381656763474985e-01 -2 0 0
440 2 -8.1529755622801581e-01 4.6740290817977446e+00 1.4084377379335203e+01 -2 0 -2
383 2 1.5267565628080941e+01 5.3580599220452942e+00 1.3200312109145980e+00 -2 0 1
6 2 2.8385081620126438e+00 8.7352633015347987e+00 6.8061789253404994e+00 1 0 0
499 1 -2.9843760336173419e-01 9.9519966134406213e-01 1.2163438281257392e+01 1 0 1
910 1 1.0024606442239536e+01 6.7676189872502990e-01 6.1181200130418700e+00 -2 0 1
546 2 2.4659430936770725e+00 1.8489117627451970e+00 1.4655712624012827e+01 2 0 1
527 2 4.0666635857902591e+00 -1.4442272934769340e+00 5.5636749200036641e+00 -2 0 0
729 2 9.3467043622032104e+00 6.7517720156869956e+00 1.4611838912304011e+01 0 0 1
612 2 1.3227500056660954e+01 2.2936379306679546e+00 9.1808459889963974e+00 -1 0 1
674 2 6.3397896931424169e-01 8.7592556693469614e+00 1.6970864312594098e+00 0 0 -3
121 1 7.8994470807059711e+00 7.8006130502712381e+00 1.8506737250660304e+01 -2 0 -1
911 2 1.0635571377486237e+01 1.1324490236138223e+00 6.6817495837949483e+00 -2 0 1
424 1 1.3519557243463067e+01 1.9510567847721472e+00 3.2506657109766222e+00 -2 0 1
811 1 1.1602879424931725e+01 5.3617425496140143e+00 1.2427353820651817e+01 -2 0 -1