LAMMPS data file via write_data, version 3 Mar 2020, timestep = 1000000

1008 atoms
2 atom types

2.3752127385846933e-01 1.8162033726139690e+01 xlo xhi
3.0193865889797777e-02 2.2540195134105250e+01 ylo yhi
1.8092077594555178e-01 1.9324795224048824e+01 zlo zhi
7.0144044238421119e-02 -6.6806935847514968e+00 1.6460807854973090e-02 xy xz yz

Masses

1 16
2 2

Atoms # atomic

1 1 6.4868900670222418e+00 9.7421110392184884e-01 5.0517584967066771e+00 0 0 0
190 1 5.8090015672497497e-01 1.0466700995234984e+01 9.2643256096178028e+00 0 0 0
3 2 6.6134267322918925e+00 1.4010307996114477e+00 4.1763991026279559e+00 0 0 0
4 1 3.6896509661976795e+00 1.0850108621237742e+00 5.2918336627679805e+00 0 0 0
5 2 4.6561384984165564e+00 8.8130984243998056e-01 5.1997491541921805e+00 0 0 0
6 2 3.8030947114878058e+00 1.6587628911117369e+00 6.1153261309896116e+00 0 0 0
7 1 -4.7621402091217913e-01 6.4931092463813291e+00 4.8743981915543362e+00 0 0 0
8 2 -4.1120606465521048e-01 6.1659928495930112e+00 5.7757409248537641e+00 0 0 0
9 2 -1.0769259292767446e+00 7.2617897319410867e+00 4.8255627503106950e+00 0 0 0
10 1 2.2522310323662236e+00 6.3613449238217932e+00 4.5192444938503158e+00 0 0 0
11 2 1.3017711021711553e+00 6.5694348165568774e+00 4.7194107752911290e+00 0 0 0
12 2 2.7581127467710109e+00 7.1989029811404075e+00 4.4706106643094827e+00 0 0 0
753 2 3.8084728963151719e+00 9.5375380368654739e+00 8.9449308709493849e+00 0 0 0
14 2 5.2210306354955343e+00 5.3515719820331187e+00 8.9561633953236228e+00 0 0 0
146 2 1.7539578846312981e+01 6.3600694990851050e+00 1.3500761093746068e+00 0 0 0
18 2 5.4124549303344454e+00 5.0748281354873068e+00 1.1979715017662500e+00 0 0 0
273 2 1.0715527432960139e+01 1.0627886913720502e+01 3.1633958543040608e-01 0 0 1
482 2 -1.3929455456836459e-01 8.7254541475675712e-02 2.0729525624530849e+00 0 0 0
21 2 7.8552265767191853e-01 2.5579166499354629e+00 1.3448570456928000e+00 0 0 0
304 1 1.2575883274449918e+01 1.0641277835995885e+01 3.5804952055910886e+00 0 0 0
135 2 1.5692534338528773e+01 2.7086658149948852e+00 6.0110330530504781e+00 0 0 0
104 2 9.7055536141454137e+00 3.6088626391443106e+00 3.7098952237076155e-01 0 0 1
25 1 4.7247476556749088e+00 6.2975293077457586e+00 7.3387293168015892e+00 0 0 0
26 2 5.3255591775698941e+00 7.0787538829143291e+00 7.4590436687320745e+00 0 0 0
27 2 3.8272774547137285e+00 6.7448711812540152e+00 7.5945943296020229e+00 0 0 0
28 1 5.7314980441734589e+00 6.0969482264139918e+00 2.6844577915907357e+00 0 0 0
29 2 5.5876953312112674e+00 5.8673916763315530e+00 3.6345273051215035e+00 0 0 0
30 2 5.1337584224622903e+00 6.7813575384257625e+00 2.4474848769954116e+00 0 0 0
31 1 1.2114811241007031e+00 1.3639878654354338e+00 2.5519022133951808e+00 0 0 0
32 2 2.1041410618386136e+00 1.0244129314046733e+00 2.3909328919145465e+00 0 0 0
33 2 1.2532512152351225e+00 1.5704656822377998e+00 3.5721313212360131e+00 0 0 0
34 1 1.6431904230869776e-01 1.0466660916898920e+00 7.1796078550571316e+00 0 0 0
220 1 4.0388950893059192e+00 1.0732789578303210e+01 3.6050406510503459e+00 0 0 0
36 2 3.2302804064309054e-01 1.7141297342880559e+00 7.9158427973130356e+00 0 0 0
37 1 6.1624380060541633e+00 2.3195782684807593e+00 2.5794121263028815e+00 0 0 0
38 2 5.2935262612293759e+00 2.7834370448624006e+00 2.7403288172416174e+00 0 0 0
39 2 6.9122303819902413e+00 2.9732507458339397e+00 2.8211208494767517e+00 0 0 0
40 1 4.0658085241175534e+00 2.5568425988665058e+00 7.5750858598419484e+00 0 0 0
41 2 5.0268374202837780e+00 2.6135533193335627e+00 7.3155890337911194e+00 0 0 0
42 2 3.5212908729579100e+00 3.3193309904249015e+00 7.1933235035330956e+00 0 0 0
43 1 -2.1799577300628936e-01 4.8599029128465352e+00 7.2848567434626288e+00 0 0 0
44 2 -1.0232967209039594e+00 4.4188380447575701e+00 6.9993579986117087e+00 0 0 0
45 2 -4.8292189074017688e-01 5.2242765133146865e+00 8.1395164962471256e+00 0 0 0
46 1 1.7181774104452725e+00 4.8516168661725541e+00 2.2560854027952204e+00 0 0 0
47 2 8.1622393919133152e-01 4.4965476428618301e+00 2.4373343183280891e+00 0 0 0
48 2 1.8780666810148232e+00 5.4963840347385986e+00 3.0047644223484409e+00 0 0 0
49 1 6.6353941847249596e+00 3.3302309422392207e+00 6.5593845091236815e+00 0 0 0
50 2 6.3388110431723899e+00 3.9903542801342784e+00 5.8757029361842781e+00 0 0 0
51 2 6.9244523281591199e+00 2.5419563067340776e+00 5.9641952909275888e+00 0 0 0
52 1 3.8259724086310545e+00 3.1811985031819257e+00 3.4565540771524614e+00 0 0 0
53 2 3.0201770548253775e+00 3.4929511418137702e+00 3.0586360188500006e+00 0 0 0
54 2 3.5016410915728446e+00 2.4837818893766426e+00 4.1060805642849747e+00 0 0 0
55 1 -7.4309742498845144e-01 4.3661594377670774e+00 3.0617637820247152e+00 0 0 0
56 2 -7.9170520155159818e-01 5.1811251844933839e+00 3.6058638903911611e+00 0 0 0
57 2 -4.4644265138841277e-01 3.7269631179389449e+00 3.7340017317079859e+00 0 0 0
58 1 2.1171633670717100e+00 4.2065445626573323e+00 6.3631197890536404e+00 0 0 0
59 2 2.4246674779706048e+00 5.0240841775536920e+00 5.8841431004792382e+00 0 0 0
60 2 1.2858872301682469e+00 4.3904022471799751e+00 6.8675856716879649e+00 0 0 0
61 1 8.1110224463815950e+00 7.1580932492482052e+00 1.8468303936418704e+00 0 0 0
62 2 7.2585753376711324e+00 6.7007075392705975e+00 2.1595338147960725e+00 0 0 0
63 2 8.4613903197178360e+00 6.5724694778748658e+00 1.1552999735303859e+00 0 0 0
64 1 2.2577200916258384e+00 7.0220040848292760e+00 8.1886320300435465e+00 0 0 0
65 2 1.5123272812836834e+00 7.4224417521937482e+00 7.7377916331227050e+00 0 0 0
66 2 2.5398517727760628e+00 7.8010314373148857e+00 8.7093611728356475e+00 0 0 0
151 1 6.2863870142644807e+00 6.9856199496938542e-01 8.2273143038470593e+00 0 0 0
68 2 -2.5164640205857642e+00 1.2395768534473897e+00 8.8797588371485698e+00 0 0 0
247 1 6.6146843899736059e+00 9.0533712835375777e+00 3.8896115018614869e-01 0 0 0
72 2 3.7259705173427546e+00 1.2953312107944910e+00 1.0878808480843338e+00 0 0 0
73 1 5.2058012024617977e+00 5.0241329807046675e+00 5.1554056296538873e+00 0 0 0
74 2 4.8243153171171178e+00 5.5512329346236227e+00 5.8775128901516398e+00 0 0 0
75 2 4.4953206827150183e+00 4.4736205875396138e+00 4.7657752689635062e+00 0 0 0
76 1 6.5661404313592109e-01 2.6085732744087320e+00 4.8147942967098434e+00 0 0 0
77 2 1.0534913490732811e-01 2.1175563746658277e+00 5.5065049186272965e+00 0 0 0
78 2 1.2837714283595436e+00 3.2369312275064428e+00 5.3408963975370201e+00 0 0 0
399 2 8.2057162093641214e+00 3.1354750650017293e-01 9.1831910619196222e-01 0 0 0
836 2 1.2761236751621142e+01 9.2276224520950922e+00 9.1840645035270807e+00 0 0 0
167 2 1.1308486669294220e+01 5.8041522700382053e+00 7.0975829221691855e-01 0 0 0
85 1 1.5671686553760102e+01 1.2844620019507953e+00 4.7342625717710343e+00 0 0 0
87 2 1.5590621336077128e+01 1.5951027433093958e+00 3.7990775078677896e+00 0 0 0
88 1 1.2962587022721520e+01 9.3549419924750599e-01 5.0999965420482862e+00 0 0 0
89 2 1.2695414222589642e+01 1.5533445438324462e+00 4.3936640033162648e+00 0 0 0
90 2 1.3885248236263896e+01 1.1356730501047279e+00 5.2028730113440576e+00 0 0 0
91 1 8.4189156861798260e+00 6.5237373727430867e+00 4.8806197619530529e+00 0 0 0
92 2 8.1015299776314720e+00 5.8606890228703969e+00 4.2465463582871754e+00 0 0 0
93 2 9.3925699086262409e+00 6.5054000772063683e+00 4.8534641048503833e+00 0 0 0
94 1 1.1014569330295798e+01 6.4378747120970115e+00 4.9228840144633121e+00 0 0 0
95 2 1.1493505842987949e+01 7.2935017451974247e+00 5.0561811313283105e+00 0 0 0
96 2 1.1075187502554474e+01 5.8109660337457578e+00 5.6419388713209893e+00 0 0 0
486 2 1.1526252921269309e+01 4.5013916799582931e-01 8.9773797734523288e+00 0 0 0
69 2 1.4884670885555664e+01 5.2431967236039406e-02 8.0349464420449372e+00 0 0 0
187 1 1.1825795783123789e+00 1.0067288784970540e+01 5.1554959443580450e-01 0 0 0
101 2 1.4747396350115489e+01 5.2439385625746890e+00 1.0808242003132404e+00 0 0 0
133 1 1.5459815964547166e+01 3.5373500811454610e+00 6.5314416617712299e+00 0 0 0
84 2 3.0758552863195949e+00 6.6557476479736248e+00 5.2160653491572972e-01 0 0 0
86 2 1.6141193336125582e+01 4.4539788565064048e-01 4.6596274985119219e+00 0 0 0
154 1 1.2705031918628313e+01 3.3368590842801521e-01 1.5370606368286208e+00 0 0 0
109 1 1.3714514089452768e+01 6.3503030841088739e+00 7.2440441166051830e+00 0 0 0
110 2 1.3744920586665561e+01 5.6226908063704482e+00 7.8754622511672761e+00 0 0 0
111 2 1.2774682392460159e+01 6.6330734464352528e+00 7.2996327470674132e+00 0 0 0
112 1 1.4761882694223255e+01 6.6242974622504720e+00 2.5113717015099177e+00 0 0 0
113 2 1.4053906293524273e+01 7.2644412743453701e+00 2.4794956320808050e+00 0 0 0
114 2 1.5647576225121044e+01 7.0265318114071977e+00 2.2610867395331247e+00 0 0 0
115 1 1.0297858514410594e+01 1.2286832779851982e+00 2.7900966368230851e+00 0 0 0
116 2 1.0297466500927960e+01 2.0449488803209208e+00 2.2512572124072947e+00 0 0 0
293 2 1.2618278705098067e+01 1.0777108278909788e+01 7.7019976411242936e+00 0 0 0
118 1 8.9657872923479651e+00 1.3255870591061294e+00 7.2928098022490557e+00 0 0 0
119 2 9.2387165346074109e+00 1.9531569128156994e+00 7.9404727653218554e+00 0 0 0
120 2 9.2396513503367714e+00 1.7753767436263475e+00 6.4660101654636746e+00 0 0 0
121 1 1.4827030892968459e+01 2.6666839618566893e+00 2.3822233651123867e+00 0 0 0
122 2 1.5564119132764446e+01 3.2301133979155590e+00 2.5363063444541409e+00 0 0 0
123 2 1.5071548807313334e+01 2.3062572330568938e+00 1.5170705467275503e+00 0 0 0
124 1 1.2888242667966482e+01 2.6665056748222367e+00 7.6284623397084621e+00 0 0 0
125 2 1.3653270656094413e+01 3.0501965666235678e+00 7.2297160773431175e+00 0 0 0
126 2 1.2748668318130612e+01 1.9502313555122988e+00 6.9688473748851205e+00 0 0 0
127 1 8.7581103936944267e+00 4.8651463652104079e+00 7.3252914636579680e+00 0 0 0
128 2 8.1081499769912586e+00 4.1714657354190958e+00 7.0330679080737211e+00 0 0 0
129 2 8.6913634741673302e+00 5.5278851529368946e+00 6.5696487851215970e+00 0 0 0
130 1 1.0769489570269336e+01 5.2039500511463324e+00 2.3288482677981865e+00 0 0 0
131 2 1.1388751190087545e+01 4.4329117083207601e+00 2.4465520605587137e+00 0 0 0
132 2 1.0926078394740104e+01 5.7284653963183176e+00 3.1419599729722734e+00 0 0 0
134 2 1.5165412600070233e+01 4.2040765003692817e+00 5.8310276177815883e+00 0 0 0
136 1 1.2417245474626007e+01 3.4210811483580428e+00 3.3750964702546415e+00 0 0 0
137 2 1.2721074095073824e+01 4.1144895772271823e+00 3.9961151133713479e+00 0 0 0
138 2 1.3235733191292759e+01 3.1463208176191202e+00 2.9790651016182133e+00 0 0 0
139 1 8.1869408322450141e+00 4.0545696797063284e+00 3.0096536728954617e+00 0 0 0
140 2 8.8482793123016634e+00 4.5350664816335620e+00 2.4252665007376444e+00 0 0 0
141 2 8.7355292234037112e+00 3.7313507454091757e+00 3.7537678189794876e+00 0 0 0
142 1 1.1083383404462330e+01 4.3962526064865495e+00 6.4855349081982991e+00 0 0 0
143 2 1.1614613366398801e+01 3.9557132953617526e+00 7.1349686198440985e+00 0 0 0
144 2 1.0268526534451999e+01 4.5786020321112417e+00 6.9453503830960681e+00 0 0 0
147 2 1.7137480217781874e+01 7.7664858873903162e+00 8.0775477860538358e-01 0 0 0
148 1 1.1102172183100102e+01 6.8509856073026247e+00 8.2299410784260090e+00 0 0 0
149 2 1.0916480680295791e+01 5.9971146501088111e+00 8.6181709442849996e+00 0 0 0
150 2 1.1602795365502924e+01 7.3199691501045807e+00 8.9279074342136138e+00 0 0 0
22 1 5.7843305235968456e-01 2.7421976088822917e+00 9.2307687971626660e+00 0 0 0
17 2 4.7764438413520578e+00 3.9805375533910152e+00 3.4339853968836542e-01 0 0 0
153 2 6.4892783265171854e+00 1.5017236863198367e+00 8.8942245519074667e+00 0 0 0
209 2 3.6784383262962463e+00 1.0848634393248851e+01 7.2401624457538780e+00 0 0 0
155 2 1.3083266659202920e+01 1.0796789802302851e+00 1.0839841152430947e+00 0 0 0
99 2 1.2819737070601894e+01 4.5869073709114963e+00 9.5531547533500518e+00 0 0 0
157 1 1.4135976127033326e+01 5.1768308180393996e+00 4.6844183729718800e+00 0 0 0
158 2 1.4455619957308297e+01 5.8252014375784507e+00 3.9860910805722636e+00 0 0 0
159 2 1.3668034848655106e+01 5.8151422653576290e+00 5.2722358831978928e+00 0 0 0
160 1 9.5963378682584128e+00 2.7243769090858247e+00 4.9100051251198114e+00 0 0 0
161 2 1.0382033390898005e+01 3.2500207969002926e+00 5.2354010063598286e+00 0 0 0
162 2 9.8793443135070600e+00 2.0321368411692622e+00 4.1740486035572975e+00 0 0 0
80 2 6.6425303586174156e+00 2.0567557977076421e+00 7.7751182288294718e-01 0 0 0
35 2 -6.4491021619177524e-01 6.1842053469366587e-01 7.4164876320193356e+00 0 0 0
485 2 1.0344355339408303e+01 3.2730096394896541e-01 7.9665376443920888e+00 0 0 0
169 1 6.8764644115629387e+00 8.6500640759125815e+00 4.3372111444241819e+00 0 0 0
170 2 7.4285747479299191e+00 7.9439629517738304e+00 4.6658466029894798e+00 0 0 0
171 2 6.8165669616107536e+00 9.2910836358018187e+00 5.0547125382954201e+00 0 0 0
172 1 3.9238613913023994e+00 8.4677807627977497e+00 5.1277818804785316e+00 0 0 0
173 2 3.9964682674584688e+00 9.1767020713316985e+00 4.4192020039686488e+00 0 0 0
174 2 4.8103682639209602e+00 8.1144934895234151e+00 5.0746718845564551e+00 0 0 0
671 2 8.2475541768430887e+00 5.6952502011441108e+00 8.9685669344408812e+00 0 0 0
248 2 7.2732381087246676e+00 8.4124220732272512e+00 6.6914388146552306e-01 0 0 0
192 2 4.3188566276033802e-01 9.9225200026625213e+00 8.4483229720720860e+00 0 0 0
199 1 1.4887596455730290e+00 8.6229130969293983e+00 2.7464051902951625e+00 0 0 0
200 2 1.3168967207550588e+00 9.2734448939694989e+00 2.0772907134315348e+00 0 0 0
201 2 9.6615811916257999e-01 7.8315722645840173e+00 2.4931626677126895e+00 0 0 0
202 1 1.7588281964459895e-01 8.6636025714775950e+00 7.2390854582758806e+00 0 0 0
203 2 -8.0196323072404985e-01 8.5423670311167470e+00 7.4506785764671468e+00 0 0 0
204 2 1.9122081792240486e-01 9.1117110551794767e+00 6.3589711465461498e+00 0 0 0
205 1 6.6505363794634471e+00 1.0709709529236136e+01 2.6219630099362101e+00 0 0 0
206 2 6.9069521670579750e+00 9.8204510693669462e+00 3.0233492700732159e+00 0 0 0
207 2 6.5418599400721664e+00 1.0487104352848544e+01 1.7140765446691524e+00 0 0 0
208 1 4.3664347470866502e+00 1.0175246684047917e+01 7.4669692725576926e+00 0 0 0
670 1 7.8459344824691604e+00 6.2028802152417075e+00 9.7041336273395213e+00 0 0 0
210 2 4.1156388726556914e+00 9.3949242054031270e+00 6.9353620114290182e+00 0 0 0
224 2 -2.5592460674720685e-01 1.0718178684550034e+01 3.9079166727425907e+00 0 0 0
587 2 -1.3560029619687308e+00 6.8604465176219911e+00 9.2108037652158803e+00 0 0 0
156 2 1.2077940507603532e+01 7.2637007129255149e-01 2.1908098161011731e+00 0 0 0
16 1 5.5096614519664300e+00 4.6359517258069882e+00 3.4711286116684514e-01 0 0 0
165 2 1.6365026446650806e+01 6.3579674627179084e-01 5.2164233769335633e-01 0 0 0
235 1 -2.2587361372204344e+00 8.0632155927204963e+00 8.2831967647545266e+00 0 0 0
236 2 -2.7001503392979678e+00 8.7349206101178254e+00 8.8878565827357132e+00 0 0 0
238 1 3.9162482735395656e+00 7.8382993301399813e+00 1.6193253607672589e+00 0 0 0
239 2 3.1156014189647134e+00 8.1708933559066654e+00 2.0821869752157864e+00 0 0 0
240 2 4.0286543864442157e+00 8.5812505457286505e+00 9.6115352117879349e-01 0 0 0
244 1 7.3414193847832099e-01 9.7530998229564627e+00 5.0098884108683199e+00 0 0 0
245 2 1.0324939980727363e+00 9.2385453588985307e+00 4.2734193540110352e+00 0 0 0
246 2 1.4058829585790960e+00 1.0380726679875879e+01 5.3067816768931211e+00 0 0 0
145 1 1.7324046079868634e+01 7.2485550045612435e+00 1.6271828866415234e+00 0 0 0
117 2 9.6601170420273306e+00 4.9219038277691440e-01 2.5350670328921581e+00 0 0 0
253 1 1.5728738057421719e+01 8.4494620695165050e+00 4.7061394940284336e+00 0 0 0
255 2 1.5661234163536749e+01 8.8143380965025866e+00 3.7981268119417293e+00 0 0 0
256 1 1.2699959444762994e+01 8.5890196603560938e+00 5.3575538448473230e+00 0 0 0
257 2 1.3732956666171665e+01 8.5321229387045125e+00 5.2448837173866467e+00 0 0 0
258 2 1.2520305293634866e+01 9.3335376201990083e+00 4.6968106138258818e+00 0 0 0
222 2 3.5882549824928986e+00 1.1277844998579061e+01 2.9337348644955656e+00 0 0 0
272 2 9.7082595890544052e+00 9.8847786193036278e+00 1.4104115680537530e+00 0 0 0
2 2 7.2353098328754797e+00 2.8575480894152216e-01 4.9810491737977509e+00 0 0 0
276 2 9.5811711046924959e+00 9.8480449754815460e+00 8.6001252997165469e+00 0 0 0
283 1 1.0053225031019245e+01 8.7024263731360083e+00 2.7971689977134617e+00 0 0 0
284 2 9.9070474021488835e+00 8.9881148276734848e+00 3.7566323236016581e+00 0 0 0
285 2 9.2981434008813437e+00 8.1360061246349904e+00 2.5767137169164553e+00 0 0 0
286 1 8.9095451822040808e+00 8.5058633122948546e+00 7.2075010574491456e+00 0 0 0
287 2 9.7083333982899802e+00 8.0344996350628861e+00 7.5995446119161389e+00 0 0 0
288 2 8.0866625772087808e+00 8.1989684768647031e+00 7.6491982721422547e+00 0 0 0
289 1 1.5063551554369855e+01 9.7439696866420480e+00 2.3447794370348451e+00 0 0 0
311 2 1.0829851300106858e+01 1.0960452007260999e+01 5.9537332096202471e+00 0 0 0
291 2 1.5328649770609646e+01 9.6101760314914184e+00 1.3927527828103379e+00 0 0 0
292 1 1.3214399204395216e+01 9.9725116754702849e+00 7.7701498128540560e+00 0 0 0
83 2 2.3204045561851050e+00 5.3708784876417814e+00 6.8716530639159978e-01 0 0 0
294 2 1.2908947860028313e+01 9.3701524066261470e+00 7.0579442102479133e+00 0 0 0
24 2 -2.4516337732260229e-01 2.9951507339440990e+00 9.6391250504456707e+00 0 0 0
67 1 -2.2723548439187113e+00 3.5196917252723431e-01 8.5632824522439694e+00 0 0 0
221 2 4.9527011871983433e+00 1.0774279229129608e+01 3.3457034094311520e+00 0 0 0
97 1 1.3810371898247551e+01 4.6712371027281758e+00 9.5753023669729824e+00 0 0 0
319 1 6.4297933727336680e+00 8.1648079944328842e+00 8.3301102393442150e+00 0 0 0
320 2 6.3218781125626720e+00 8.8233584282371709e+00 9.0054700660639568e+00 0 0 0
321 2 6.7292774652165690e+00 7.3447477938540358e+00 8.8294600687878475e+00 0 0 0
322 1 1.2522328678215068e+01 8.2806380584084369e+00 1.7711843315049904e+00 0 0 0
323 2 1.1737984441422043e+01 8.4946127636156135e+00 2.2778817501945277e+00 0 0 0
324 2 1.2115225696655537e+01 7.5728878189691384e+00 1.2765411743460964e+00 0 0 0
328 1 9.9743251188803370e+00 9.8204951007672445e+00 5.1818684280458660e+00 0 0 0
329 2 9.5138583800032510e+00 9.3861350177200862e+00 5.8893031392535491e+00 0 0 0
330 2 9.3499713896528132e+00 1.0500142581957340e+01 4.7603305385653201e+00 0 0 0
189 2 2.1407533863526282e+00 1.0167045571148684e+01 3.3342991172775338e-01 0 0 0
152 2 6.9132685025416363e+00 9.4305314340491297e-01 7.5021719794545021e+00 0 0 0
584 2 2.9596171126113671e+00 6.8788937521631222e-01 9.5835579595614053e+00 0 0 0
301 1 1.5674366300105049e+01 1.0723812137277712e+01 6.2661291050452874e+00 0 0 0
254 2 1.5973516859789418e+01 9.2549685246304900e+00 5.2097562002792985e+00 0 0 0
778 1 1.2528245000373380e+01 1.0514752018104849e+01 2.4207291050383556e-01 0 0 1
237 2 1.4980242833909411e+01 7.5954205506035697e+00 7.6990666020563072e+00 0 0 0
306 2 1.3180097131836723e+01 1.0432214448541519e+01 2.8736178451123147e+00 0 0 0
668 2 1.3061333035421548e+01 1.9976468099247047e+00 9.1698561519891886e+00 0 0 0
219 2 5.9286655807017414e+00 1.0441254255762450e+01 6.8714658523015864e+00 0 0 0
585 2 3.7391556050758421e+00 1.9680583907283278e+00 9.1506612459700527e+00 0 0 0
217 1 6.5703049498438730e+00 1.0775453026811936e+01 6.2249888442248196e+00 0 0 0
302 2 1.4975907974064576e+01 1.0372440906544139e+01 6.8685956664944277e+00 0 0 0
290 2 1.5690577706563744e+01 1.0408200244802829e+01 2.5660497321561526e+00 0 0 0
103 1 1.0377088940298679e+01 2.9053343704143404e+00 4.9385064555968394e-01 0 0 0
23 2 1.1807779245407999e+00 3.4941475583547912e+00 9.4412464202166753e+00 0 0 0
271 1 9.7640842557520191e+00 1.0290152413618260e+01 5.1711700867304966e-01 0 0 0
521 2 1.7290805476834379e+00 5.7120512245432629e+00 9.3891904985738286e+00 0 0 0
751 1 3.4192372934879658e+00 8.8564262313787712e+00 9.6368157147305364e+00 0 0 0
19 1 9.5194626599377485e-01 2.8299951333997790e+00 3.9941728651041286e-01 0 0 0
70 1 3.6002236222350676e+00 5.7464068330393259e-01 1.7465711035847040e+00 0 0 0
586 1 -7.1713645654874547e-01 6.2898556628541709e+00 9.6280469259168093e+00 0 0 0
163 1 1.5667422397905804e+01 1.2990934094088993e+00 2.8942384977948965e-01 0 0 0
274 1 9.9688219666768809e+00 1.0068736438193925e+01 9.5030412705839016e+00 0 0 0
780 2 1.2553194543589850e+01 9.6432236264809390e+00 7.1146928744784255e-01 0 0 0
528 2 2.6671919533728898e+00 2.7932987756776013e+00 5.0346250768288758e-01 0 0 0
218 2 7.3685614766004814e+00 1.0921268302893980e+01 6.7043663921978673e+00 0 0 0
305 2 1.1951040719589152e+01 1.1275808938414954e+01 3.2479004062961447e+00 0 0 0
20 2 3.7466894667531281e-01 3.5928527346992736e+00 2.5556917138252822e-01 0 0 0
604 1 1.0982577158982812e+01 4.5434628129255730e+00 9.7347272179155748e+00 0 0 0
728 2 -3.5098109476819834e+00 1.1282083976923261e+01 1.3361503635473616e+01 0 0 0
834 2 6.0063412899467750e+00 1.0668916871825800e+01 1.4015993560312721e+01 0 0 0
168 2 4.3844861945564935e+00 6.8810737237342385e+00 1.8657975364846529e+01 0 0 0
620 2 6.1706590332594029e+00 3.4127960456472251e-01 1.2244192652968314e+01 0 0 0
105 2 3.4595032452829901e+00 2.3057535402273106e+00 1.8908155559709172e+01 0 0 0
808 1 9.5865594608454607e+00 1.0578523747062746e+01 1.3000311921993495e+01 0 0 0
824 2 2.6520873385754795e+00 7.8932683516944699e+00 1.7333902534414680e+01 0 0 0
835 1 1.2622137674420792e+01 8.6699369101771140e+00 1.0002278335534013e+01 0 0 0
164 2 8.5247935941960300e+00 7.0620636867533215e-01 1.8787095642301558e+01 0 0 0
805 1 1.2715712796290742e+01 1.1027427140880368e+01 1.5870613006122500e+01 0 0 0
796 1 1.0057225813466440e+01 1.0451690263304252e+01 1.6724788749392406e+01 0 0 0
794 2 1.2799659940183474e+01 1.0811133002667379e+01 1.2249514005028871e+01 0 0 0
825 2 3.2057462185788470e+00 8.9747588290919005e+00 1.8396629956067255e+01 0 0 0
608 2 6.0326539633210770e+00 3.3956926404730283e+00 9.7862316179973323e+00 0 0 0
606 2 1.0426700159386984e+01 3.7327514957821641e+00 9.8590332668483764e+00 0 0 0
610 1 6.5201503436530830e+00 2.6608006807636335e+00 1.9022908126174968e+01 0 0 0
588 2 -1.0334632931847207e+00 5.9062209844024256e+00 1.0458567685466212e+01 0 0 0
694 1 -2.8579615616922420e+00 9.9105410738846373e+00 1.9005728239075751e+01 0 0 0
505 1 3.1852609612977973e+00 1.1209159853338728e+00 1.4733251459518144e+01 0 0 0
506 2 3.6442403746740100e+00 1.7130866841141181e+00 1.5322016252884060e+01 0 0 0
711 2 2.3875780955141446e+00 1.0665722905336734e+01 1.2238600637566035e+01 0 0 0
508 1 6.2284333128778169e-01 1.3626437936904374e+00 1.4904532163677464e+01 0 0 0
797 2 1.1004369596236259e+01 1.0723067145141945e+01 1.6543977742991700e+01 0 0 0
510 2 1.5133263373965473e+00 1.0542397288596193e+00 1.4910016928259846e+01 0 0 0
511 1 -3.8575660649234553e+00 6.5853436411818578e+00 1.4335644417423065e+01 0 0 0
512 2 -3.6432157972145984e+00 5.8669544235290445e+00 1.3703882211162759e+01 0 0 0
513 2 -3.7503506349891111e+00 6.1653921361227049e+00 1.5183565964768599e+01 0 0 0
514 1 -1.0469918329811549e+00 6.6392683805318775e+00 1.4029633981919138e+01 0 0 0
515 2 -8.0710279766488835e-01 6.0325317535607494e+00 1.4713307034264123e+01 0 0 0
516 2 -1.9285246000532648e+00 6.8853116421967773e+00 1.4451318243915102e+01 0 0 0
828 2 9.0888088308616304e+00 7.9361843402272756e+00 1.1830139415695706e+01 0 0 0
519 2 1.8003207048135028e+00 5.3688606667757792e+00 1.8288430505631450e+01 0 0 0
100 1 8.1511994180268985e+00 4.9526923531957001e+00 1.9280584801766373e+01 0 0 -1
522 2 2.1511151414546457e+00 5.3955093039763531e+00 1.0874691354494328e+01 0 0 0
102 2 7.7474556449308283e+00 4.0568915712924989e+00 1.9205324453952880e+01 0 0 -1
658 1 9.2229947203598250e+00 4.4389345015145387e-01 1.1414627804084041e+01 0 0 0
525 2 -2.3188996739279846e+00 2.3121923111430185e+00 1.0780533686949200e+01 0 0 0
837 2 1.2429972353328404e+01 9.2730024800578583e+00 1.0723111595173471e+01 0 0 0
527 2 -3.3753647072647275e+00 2.3716699610519636e+00 1.8314138304129031e+01 0 0 0
529 1 1.4412322054821933e+00 6.4333871709533783e+00 1.6947555795989501e+01 0 0 0
530 2 1.4521183631107837e+00 5.9838233792450817e+00 1.6066980977713804e+01 0 0 0
531 2 5.2094420208692682e-01 6.7585483434475115e+00 1.7145641844221171e+01 0 0 0
532 1 2.2956653002861760e+00 6.6628615433228147e+00 1.2529465477228202e+01 0 0 0
533 2 3.2257395781276221e+00 6.6320050153197405e+00 1.2233973469181953e+01 0 0 0
534 2 2.3046334634795373e+00 6.2116043556287233e+00 1.3362196667958029e+01 0 0 0
535 1 -1.9964269140242945e+00 1.3049401029858119e+00 1.2364971738632711e+01 0 0 0
571 1 -5.7324781171947627e+00 6.0504547256260055e-01 1.7963760959286294e+01 0 0 0
537 2 -1.1941706510286783e+00 8.0743789920172604e-01 1.2043592327414199e+01 0 0 0
538 1 -3.1513330888035225e+00 1.1462099597998427e+00 1.6908158008230807e+01 0 0 0
539 2 -4.0673322655848745e+00 8.8664513394385136e-01 1.6878618168228915e+01 0 0 0
540 2 -2.9773678291275947e+00 1.7973986246014761e+00 1.6136121436675680e+01 0 0 0
541 1 3.0980250075530931e+00 2.6285262950252291e+00 1.2364987336196142e+01 0 0 0
542 2 3.2708581964220418e+00 2.0671821495633917e+00 1.3137403143647436e+01 0 0 0
543 2 3.3819620378919266e+00 2.1715822054424123e+00 1.1518049624434383e+01 0 0 0
544 1 5.8555948291151161e-01 2.8015831329601180e+00 1.7072781466876172e+01 0 0 0
545 2 4.0706605560010001e-01 2.2125160152346255e+00 1.7837743512086639e+01 0 0 0
546 2 6.2372817902258060e-01 2.2626648429966054e+00 1.6269414975485432e+01 0 0 0
547 1 -3.4200303540528263e+00 5.2421185966694352e+00 1.6622505457563928e+01 0 0 0
548 2 -4.0166219028377377e+00 4.4654907428039703e+00 1.6550845467653620e+01 0 0 0
549 2 -3.5955654736446414e+00 5.6158677393233205e+00 1.7475114613341173e+01 0 0 0
550 1 -1.2779549994113015e+00 4.9579144313262891e+00 1.1937346203380955e+01 0 0 0
551 2 -6.5127777293111766e-01 4.2569611079881291e+00 1.2155622163306367e+01 0 0 0
552 2 -1.1546701765287732e+00 5.4320036478228655e+00 1.2765119955891052e+01 0 0 0
553 1 3.1850027536062457e+00 3.2743239910681918e+00 1.6372107577703627e+01 0 0 0
554 2 2.3456928401280104e+00 3.2033809898388159e+00 1.6918560034762546e+01 0 0 0
555 2 3.7841543857709414e+00 3.7709920495476834e+00 1.6943554506602887e+01 0 0 0
556 1 6.2306868422415729e-01 3.4568803960699532e+00 1.3008579537293778e+01 0 0 0
557 2 1.3525343948619533e+00 3.1031671694346024e+00 1.2493115312995215e+01 0 0 0
558 2 4.0971598331349934e-01 2.6389006438925264e+00 1.3537246182137766e+01 0 0 0
559 1 -3.8347720808431571e+00 4.1349231865813838e+00 1.2823629899595849e+01 0 0 0
560 2 -2.9580630852385941e+00 4.3348155232666707e+00 1.2337498660349249e+01 0 0 0
561 2 -3.3884510570920288e+00 3.6982224096596745e+00 1.3570370482760319e+01 0 0 0
562 1 -1.0237215765449674e+00 4.6296111717159070e+00 1.5915839829107780e+01 0 0 0
563 2 -4.4567218237779027e-01 4.0670885071807676e+00 1.6464854981915284e+01 0 0 0
564 2 -1.7980815713705494e+00 4.8562465943905035e+00 1.6520214316858823e+01 0 0 0
565 1 4.8264748557611385e+00 6.8813366035066208e+00 1.1523931106121486e+01 0 0 0
566 2 4.6445717028475295e+00 7.5029733501916436e+00 1.0790964815591286e+01 0 0 0
567 2 5.0772695707407545e+00 6.0673393119911294e+00 1.1003569888792319e+01 0 0 0
568 1 -1.1667812492149192e+00 7.0959601908426508e+00 1.7979906990485080e+01 0 0 0
569 2 -1.3463048481181978e+00 6.2082443654310380e+00 1.8446308483054853e+01 0 0 0
570 2 -7.7912937777171010e-01 7.7488813917392232e+00 1.8575529332637117e+01 0 0 0
331 1 9.5615316109785553e+00 9.0760609651022719e+00 1.9048132334155525e+01 0 0 -1
572 2 -6.1377405340596027e+00 1.3021616264606597e+00 1.8494563210824204e+01 0 0 0
107 2 9.2954692072952483e+00 1.7813374270766131e+00 1.0515470668470112e+01 0 0 0
333 2 8.9034485480078907e+00 8.4467425574027999e+00 1.8631756321134496e+01 0 0 0
576 2 8.1362589246702877e-01 1.1029712086019143e+00 1.0990086898752454e+01 0 0 0
577 1 2.0323157722505343e+00 5.0772739821759680e+00 1.4641966631802021e+01 0 0 0
578 2 1.4722589205337862e+00 4.3764457508615324e+00 1.4146126862643031e+01 0 0 0
579 2 2.5047166142437982e+00 4.4259827203474620e+00 1.5244458491755800e+01 0 0 0
580 1 -2.4255119330411357e+00 2.7408623507985523e+00 1.4804878874887407e+01 0 0 0
581 2 -2.0112949438789802e+00 2.1545067550633203e+00 1.4176883422887094e+01 0 0 0
582 2 -1.8180372959589728e+00 3.4582752779303276e+00 1.5175809766009932e+01 0 0 0
724 1 5.3706960528852132e-01 1.1195533478129505e+01 1.2734973100879087e+01 0 0 0
601 1 1.0769531605267073e+01 4.9795369333474948e+00 1.9179502172784410e+01 0 0 0
589 1 1.2367370304247345e+01 9.4349009541626661e-01 1.4555663184675906e+01 0 0 0
590 2 1.1425985384405472e+01 6.2843794953191623e-01 1.4688923809892634e+01 0 0 0
591 2 1.2428160441302548e+01 1.6667851919161609e+00 1.5213109100725738e+01 0 0 0
592 1 9.8747457365547682e+00 7.9510565562402435e-01 1.4967513000567214e+01 0 0 0
509 2 1.0545593245186957e-01 5.6125841903403695e-01 1.4727369015192066e+01 0 0 0
594 2 9.6235501699207742e+00 1.5131317956253088e+00 1.4364412511835724e+01 0 0 0
595 1 5.5490054021856752e+00 6.6030911842558790e+00 1.4705467621568141e+01 0 0 0
596 2 5.4995227449449375e+00 6.0337535287351871e+00 1.5478066084379259e+01 0 0 0
597 2 5.2223007629193070e+00 6.0090890857913841e+00 1.4013844137454162e+01 0 0 0
598 1 8.2216435395215708e+00 6.4837210757490391e+00 1.4182684213181348e+01 0 0 0
599 2 7.2461217169104577e+00 6.5895312946727955e+00 1.4259098013209215e+01 0 0 0
600 2 8.2606251170894005e+00 6.0191573825981619e+00 1.3326923317350696e+01 0 0 0
823 1 3.4912327860518904e+00 8.2217607553295249e+00 1.7780258762176775e+01 0 0 0
603 2 1.0831734019638295e+01 5.3941813788830419e+00 1.8273097809160760e+01 0 0 0
721 1 3.3031801968410130e+00 1.0925482878500672e+01 1.6268966435672638e+01 0 0 0
605 2 1.0948606672610607e+01 4.9398244906790501e+00 1.0626609215294661e+01 0 0 0
249 2 3.2289890561473555e-01 9.7116895265972563e+00 1.8859154955095438e+01 0 0 0
81 2 -2.5303526227254469e-01 6.8824114622691590e-01 1.9086255736547002e+01 0 0 0
832 1 6.5514544102466994e+00 1.0084408321593935e+01 1.4618624621905301e+01 0 0 0
609 2 6.4417678527776090e+00 2.4889988755037256e+00 1.0958843486684792e+01 0 0 0
827 2 1.0312027437288350e+01 7.1148362904052282e+00 1.1352346250875890e+01 0 0 0
611 2 6.3611938527714997e+00 2.2939107325592731e+00 1.8109879256775386e+01 0 0 0
613 1 1.0397263912260582e+01 6.1039633575304633e+00 1.6732726169208032e+01 0 0 0