LAMMPS data file via write_data, version 3 Mar 2020, timestep = 75900000

2016 atoms
2 atom types

0.0000000000000000e+00 1.7958007545415619e+01 xlo xhi
-6.7065765452233386e+00 5.1702736522054991e+01 ylo yhi
0.0000000000000000e+00 1.9095157052573935e+01 zlo zhi
5.5922945350847506e-02 -6.6928087602928237e+00 -2.3056768937401273e-02 xy xz yz

Masses

1 16
2 2

Atoms # atomic

282 2 9.8605583557577425e+00 4.5856315540438857e+00 1.6600732705673998e+01 -3 0 0
5 2 1.9587566633039035e+00 2.4801145045862398e+00 1.8434453589999009e+01 1 0 -1
1664 2 7.5200419650237418e+00 -3.7006522090962246e+00 8.8085400332033643e+00 -3 1 -1
543 2 6.8467520287267130e+00 4.7272186402100864e+00 1.2381126196454849e+01 -2 0 0
309 2 1.5252002746209259e+00 3.0389623177747236e+00 1.4421887370387918e+01 1 0 0
506 2 -7.1806697137461306e-01 5.7149391637231517e+00 1.7672390932562031e+01 -3 0 -2
1503 2 6.9466643278425835e+00 -1.0020970016373827e+00 1.2225699694968407e+01 1 1 0
891 2 5.0682241579468670e+00 7.4263700346696915e+00 5.6491196332451050e+00 -1 0 1
644 2 -1.0835410315869556e+00 1.5489120509780694e+00 1.5839716383408147e+01 -3 0 -3
1547 2 -1.4324635766995986e-01 3.8404814545537533e+00 7.0678367963313606e+00 0 0 1
85 1 7.9223640963876987e+00 -3.0339827953848908e+00 1.4728304461698643e+01 2 0 -3
419 2 -1.8052113002047379e+00 -5.4114127792226148e+00 1.0409555800273161e+01 -1 0 1
970 1 1.3321128616637651e+01 -1.8379148763754740e+00 2.6158138105679889e+00 0 0 2
790 1 5.9085217025904289e+00 7.5861010032286398e+00 1.1818886908965538e+01 0 0 1
117 2 1.4792988044439811e+01 -6.0944115022803453e+00 7.0664125399202113e+00 -5 0 -4
1521 2 1.0507723589913912e+01 2.2131253412566565e+00 4.8837409748104390e+00 1 0 0
716 2 9.8665892009636007e+00 7.4394887668881253e+00 1.9859308096236257e+00 1 0 2
464 2 4.2255776837623253e+00 -4.9472958729181338e+00 7.6615238344836478e-01 3 0 1
851 2 3.0623628377458978e+00 -2.1479101293000635e+00 1.4786905845425990e+01 0 0 0
650 2 2.2605278718675414e-01 6.4476299592793040e+00 1.2185536343557052e+01 -3 0 -1
2016 2 3.0985806374912883e-02 -4.7794515711768915e+00 5.6568118050588403e+00 1 1 0
359 2 1.6742469274811956e+01 -3.1433699357967892e-01 1.4935150003777853e-01 1 0 -1
1878 2 1.2805379063111330e+01 -3.8620483113278929e+00 4.9082057223546416e+00 -1 1 0
675 2 1.5349569255183980e+01 2.3959841304983023e+00 3.7887244696010001e+00 0 0 -3
31 1 2.1093707246092182e+00 5.9379600180443362e+00 1.9777015478140860e+00 -3 0 -3
502 1 -7.9364296669659495e-05 -2.4332486798838904e+00 7.6753861466004878e+00 0 0 -1
913 1 8.6491667531616123e+00 -6.2896342974854731e+00 1.0526734671056905e+01 0 0 2
991 1 1.1349200108170862e+01 -5.5909578779167965e+00 7.3694261058920327e+00 0 0 1
308 2 1.0940514006247968e+00 2.8618706921675869e+00 1.2900110288898528e+01 1 0 0
21 2 9.4509207315766108e-01 -3.4489355768805852e+00 1.5021420599168293e+01 -3 0 -3
7 1 1.0023832952143337e+01 5.7363845693258444e+00 1.3535135226273061e+01 -2 0 -2
894 2 -2.1970601041080968e+00 5.7526518595832314e+00 1.5849034666114624e+01 -2 0 -3
1997 2 -1.0449039943347707e+00 -1.8427783817819048e+00 1.0559908980684979e+01 0 1 1
661 1 1.1179895726158021e+01 4.7620175988044906e+00 2.9788138677503619e+00 -2 0 1
569 2 -2.7636176670749832e+00 2.5955731971004461e+00 1.4839636788298851e+01 -1 0 0
412 1 3.7529703874337583e+00 -7.0766859590108044e-01 1.8062020924163505e+01 -1 0 -2
840 2 -2.1405619281975330e-01 1.8349755124623659e+00 1.7804996193641735e+01 1 0 -3
691 1 7.7415656663252785e-01 4.4762289004012619e+00 3.9121219776960823e+00 1 0 2
977 2 2.3725722313524669e+00 -5.3692391458503828e+00 1.7749852835270993e+01 -3 0 -1
1374 2 1.0210592292467151e+01 -5.2251589129924199e+00 1.7568025074072516e+01 -1 1 -1
169 1 3.5878333802903484e+00 -6.1765956374430706e+00 5.8240860819903384e+00 -2 0 2
114 2 4.7656641349597688e+00 -2.7111914694022943e-01 5.4652146873013194e+00 -1 0 0
579 2 6.7805950808361199e+00 -3.5459678020476373e+00 2.7925382337864999e+00 1 0 2
871 1 -2.7945965686324055e+00 -4.3735876646534493e+00 9.9351882665778550e+00 -1 0 -1
223 1 4.6233790827688583e+00 4.3535742958196906e+00 6.8883666715261365e+00 -3 0 -2
976 1 2.5177652688179801e+00 -4.7807460339704946e+00 1.8535273286905415e+01 -3 0 -1
399 2 1.5445142879074409e+01 -5.4908180460119640e+00 2.1630903685700158e+00 0 0 0
577 1 5.8343305868753275e+00 -3.3641046742414034e+00 3.0156212329742562e+00 1 0 2
869 2 1.0786790856832216e+01 -2.7739914060928972e+00 1.3188611183146856e+01 3 0 0
810 2 1.0454505202763229e+01 -2.9469993479932302e+00 1.8296703941676178e+01 -5 0 -2
573 2 5.0994437746669465e+00 -4.2063582076299237e+00 1.1680309301491215e+01 4 0 4
91 1 2.2147851135376824e+00 5.6937114986945918e+00 7.3005030502227797e+00 1 0 0
592 1 -1.2967885693999581e+00 6.0667018658523588e+00 9.4225082929197903e+00 -2 0 -1
113 2 4.8353359843513335e+00 8.2724969917992386e-01 6.5417713417508878e+00 -1 0 0
112 1 5.2481288354999460e+00 5.2312647262585887e-01 5.7114629715787331e+00 -1 0 0
296 2 2.4157628210670783e+00 2.6491748306315035e+00 1.6173369418575216e+01 2 0 1
385 1 1.8712908622349587e+00 1.5381450628170956e+00 6.0732059763834805e+00 -1 0 -2
1672 1 6.6270263703208130e+00 4.9357586210144682e+00 1.7309494921046971e+00 0 0 0
1124 2 1.3472500107021956e+01 4.5452793160435121e+00 5.3482978066173530e+00 -1 0 0
651 2 5.5503578886988869e-02 6.3040882077412004e+00 1.0591310091413961e+01 -4 0 -1
1856 2 1.2162030977065063e+01 -4.8542601063578461e+00 4.4564695210368854e-01 0 1 2
978 2 3.5027702419807891e+00 -4.7085138898093959e+00 1.8636480648327140e+01 -3 0 -1
465 2 3.4196593981306092e+00 -4.8487987863549025e+00 2.1318693013993895e+00 3 0 1
285 2 9.1272620636672013e+00 -9.2213828483513449e-01 7.4120502116693716e+00 -4 0 1
56 2 1.3099041507521024e+01 -1.5946929548745130e+00 8.1632495575158455e+00 -3 0 2
505 1 -1.6451425301974014e+00 6.0202708549083930e+00 1.7430724106604419e+01 -3 0 -2
40 1 -2.6277574694085892e-01 -1.3305039619027754e+00 1.2360062464008196e+01 -1 0 3
1352 2 7.8225298778198695e+00 -3.8735467147899190e+00 6.6647587835002753e+00 -1 1 0
518 2 8.7417238282196568e+00 -4.2578463718350559e+00 1.2355899878628942e+00 -3 0 -4
1586 2 -3.5122477802686412e+00 6.8771486095975263e+00 1.3952084550423088e+01 1 0 1
450 2 4.9955897485002536e+00 -6.1036109829685641e+00 1.5971047879951742e+01 0 0 1
814 1 4.3273216277678870e+00 2.9854725670823434e-01 1.5673046117610241e+01 3 0 1
367 1 1.0254881212172895e+01 -1.3875728786541455e+00 1.7782558227809979e+01 0 0 -1
1502 2 6.9935386890622242e+00 -2.0815707853517589e+00 1.3362095295028462e+01 1 1 0
886 1 2.1083384615472438e+00 -7.2103201121867500e-01 1.1562917014551314e+01 -2 0 0
632 2 2.7069706759179502e-01 -1.0903647297022250e+00 6.3977428659376141e+00 -2 0 -2
578 2 5.2698977560668556e+00 -3.9241720926399757e+00 2.3935339205268202e+00 1 0 2
663 2 1.0510484831424936e+01 5.3826845624160740e+00 2.6262054786941782e+00 -2 0 1
868 1 9.8771502275061369e+00 -2.3230034625959881e+00 1.3241397727195174e+01 3 0 0
870 2 9.5543344373893984e+00 -2.2628919704821699e+00 1.2326206917319585e+01 3 0 0
239 2 6.1527143534421977e+00 7.5963268052512483e+00 3.3868473630487892e+00 -1 0 -1
86 2 8.7356298873101679e+00 -2.9384185718037510e+00 1.4059609300552872e+01 2 0 -3
274 1 3.7600738690522535e+00 -1.1034839584573399e+00 1.3616961367423784e+01 2 0 -2
1083 2 -3.0349443312945588e+00 -1.7007520297645318e-01 1.1638369596082132e+01 1 0 0
815 2 3.8623826252249787e+00 1.1290377813851080e+00 1.5560811525104933e+01 3 0 1
1081 1 -3.5747621582029518e+00 -1.9210508380933078e-01 1.0827095234924530e+01 1 0 0
1585 1 -4.0392491904966832e+00 7.6028344836689605e+00 1.3606281674078678e+01 1 0 1
1996 1 -1.7240088625384973e+00 -2.0863159281177870e+00 9.9541038516256322e+00 0 1 1
766 1 5.6681869177788724e-01 -4.3874742887044125e+00 4.0387039234501669e+00 -1 0 0
491 2 1.3525214163887249e+01 2.5332426013476628e-01 7.1198150666814186e+00 3 0 2
490 1 1.4150619365666390e+01 -3.8236034059014035e-01 7.5835269824110814e+00 3 0 2
492 2 1.4837591234582389e+01 -5.5894288547653748e-01 6.9113501912281166e+00 3 0 2
816 2 5.3672253272292050e+00 5.1764827014627546e-01 1.5717289440563198e+01 3 0 1
1392 2 3.1338002709847594e+00 -5.7065955164046862e+00 4.1000582236725620e+00 0 1 0
413 2 4.5814931140814945e+00 -1.0331053201200691e+00 1.8432382644054229e+01 -1 0 -2
743 2 1.4081156366222945e+01 -4.2621067561021508e+00 6.9079915246253130e+00 2 0 0
872 2 -2.3014811230250642e+00 -3.4839925003436414e+00 9.9660389698014349e+00 -1 0 -1
258 2 2.8673342530282993e+00 -5.8270961648977959e+00 1.5186148797214422e+01 -1 0 0
1587 2 1.3287131459982094e+01 7.0754276904017264e+00 1.3017571787336356e+01 0 0 1
328 1 1.2486561147786343e+01 7.8801843910746374e+00 5.6949009923931548e+00 -1 0 1
795 2 3.8361414436609036e+00 -3.8059272582408412e+00 9.8804299115802792e+00 -1 0 0
431 2 5.3243074255826164e+00 5.7131126030102219e+00 6.9960694224726181e+00 0 0 4
948 2 5.8314598507713029e+00 -2.9317328148973658e+00 1.8983339741223254e+01 -1 0 3
845 2 1.2686305269608255e+01 4.9767191378013944e+00 1.2309980662016025e+01 2 0 1
793 1 3.1373146911742356e+00 -3.9844031643134858e+00 9.1954817194841798e+00 -1 0 0
921 2 -2.8126572774855032e+00 -3.8157111033114957e+00 1.5772815607641807e+01 0 0 -2
981 2 -1.9330789923879130e+00 7.7158829565381239e+00 9.5552593776174675e+00 -1 0 0
32 2 2.3684836038171362e+00 6.6935011296013247e+00 2.5398471331118828e+00 -3 0 -3
57 2 1.2529620358331814e+01 -2.6169765261011069e+00 9.2805929206722766e+00 -3 0 2
82 1 1.1676346180424705e+01 2.4256135885002550e+00 1.2987992618138260e+00 0 0 -3
55 1 1.2383171222590583e+01 -2.1824872589087025e+00 8.4267046301227229e+00 -3 0 2
84 2 1.2339205924849949e+01 2.8486370200208722e+00 6.4895599500518486e-01 0 0 -4
92 2 1.7067062235814916e+00 4.8566782737115286e+00 7.2693421664348925e+00 1 0 0
946 1 6.1433907346498779e+00 -2.0074147166604632e+00 1.9026280798236868e+01 -1 0 3
1405 1 1.5047025642476820e+01 -6.3920309780433220e+00 2.2387996230861038e+00 0 1 0
947 2 6.7611963991729276e+00 -1.7766967366474153e+00 1.8312446179375971e+01 -1 0 3
794 2 2.6122031230362524e+00 -3.1962071688373381e+00 9.1419533155626276e+00 -1 0 0
927 2 2.9083444055165000e+00 6.4576757374678984e-01 1.8901065556900427e+01 2 0 2
992 2 1.2096976929632238e+01 -5.0228271617205777e+00 7.0056974907581049e+00 0 0 1
33 2 2.9405553437563219e+00 5.6537765011135033e+00 1.5225387411423499e+00 -3 0 -3
1001 2 1.2481444651901251e+01 -4.1687753812688051e+00 1.3837446531080625e+01 -1 0 1
925 1 9.3595080683692498e+00 1.3282680448381914e+00 4.6148569661811228e-01 2 0 3
250 1 1.3591211340129128e-01 1.3927588430452822e+00 9.6396942048463679e+00 -2 0 2
633 2 9.0220791468952877e-01 -1.0971388792283063e+00 4.9376331018457273e+00 -2 0 -2
926 2 1.0210549643602063e+01 1.7398695003025502e+00 9.0108871990884387e-01 2 0 3
186 2 -3.3721706584599240e+00 -1.7584718064785774e+00 1.6223337024468997e+01 -4 0 -8
184 1 -2.9664043521249366e+00 -2.2190309460852644e+00 1.6999668528423182e+01 -4 0 -9
511 1 1.1388779219786960e+01 -6.1492861234898220e+00 1.0174634381554402e+01 1 0 1
414 2 3.9636912803786508e+00 -3.0565282415041839e-01 1.7141224411978296e+01 -1 0 -2
87 2 7.8919269908534755e+00 -3.9567895109950908e+00 1.4936505013244542e+01 2 0 -3
808 1 1.0711614268325405e+01 -3.8448086095199607e+00 1.8626423091209986e+01 -5 0 -2
568 1 -3.5651421362335993e+00 3.1737918555391005e+00 1.4724281038663847e+01 -1 0 0
607 1 7.9791577570412944e+00 -5.5860053934907583e+00 1.5255054432079666e+01 -3 0 -1
121 1 4.2083719997811562e+00 4.9343460965113728e+00 6.7796286395841943e-01 -2 0 -1
1079 2 1.0280956444492027e+01 1.7414885398504865e-01 9.0045662375390840e+00 -2 1 0
256 1 3.7234195558076078e+00 -5.4159188847822506e+00 1.4873923108533537e+01 -1 0 0
178 1 6.9834207892944100e+00 3.1865087247060710e+00 1.6545275243682092e+01 -3 0 0
1665 2 6.6779340251481818e+00 -3.8794045033399893e+00 1.0188210696769316e+01 -3 1 -1
276 2 4.6538840332408498e+00 -1.4773047502349161e+00 1.3584842140546336e+01 2 0 -2
1857 2 5.5446311148551644e+00 -5.0624542861852095e+00 1.8016669287563086e+01 0 1 1
1957 1 9.8524182515435097e+00 -2.9963639435287854e+00 4.0024467834186339e+00 1 1 1
732 2 2.6304882607844791e+00 5.6588084285192881e+00 9.1751472714269671e+00 1 0 0
971 2 1.3099132077931531e+01 -8.8773788618888450e-01 2.7352072833800918e+00 0 0 2
538 1 2.6592783146541592e+00 7.2027115688329815e+00 1.7426819725019413e+01 -4 0 -4
238 1 6.7867978119966432e+00 7.4286230459550726e+00 2.6439898663621855e+00 -1 0 -1
856 1 7.5838399884057477e+00 3.1956291840188911e+00 3.3861892654356867e+00 -2 0 -4
1998 2 -2.4389768015348094e+00 -1.4632312642842527e+00 1.0203306657943754e+01 0 1 1
536 2 -6.4577684863604077e+00 5.8931811218734165e+00 1.8771982333553705e+01 -2 0 1
1855 1 5.2152316416563211e+00 -4.4286208487006515e+00 1.8669677436788461e+01 0 1 1
887 2 2.2252295648417348e+00 2.8976069307248586e-01 1.1452382931793945e+01 -2 0 0
280 1 9.1787900686116970e+00 4.6651074416831353e+00 1.5925850913480790e+01 -3 0 0
41 2 5.2740638978545995e-01 -8.9885513348249990e-01 1.1978549426620072e+01 -1 0 3
570 2 -3.1916841737144952e+00 4.0739683213250490e+00 1.4900213500739046e+01 -1 0 0
1674 2 6.6542451351979928e+00 5.8254256168173217e+00 2.0953600189753359e+00 0 0 0
175 1 -4.6963458395789202e+00 -2.9745471831818464e+00 1.9038391618304463e+01 -5 0 1
542 2 5.9032555847311334e+00 5.8811119995063841e+00 1.2258030882828487e+01 -2 0 0
858 2 6.7323050934842925e+00 3.1163247074138880e+00 3.8671198121395798e+00 -2 0 -4
177 2 -4.0798018657714046e+00 -2.6999801769737619e+00 1.8292134151829323e+01 -5 0 1
541 1 5.9242338053367378e+00 4.9853745367895463e+00 1.2630158196941155e+01 -2 0 0
517 1 8.3428520112806162e+00 -4.1738259733709224e+00 2.1324227496340944e+00 -3 0 -3
655 1 7.5411225041066485e+00 -4.0952291242810741e+00 9.7313455770554338e+00 -3 0 -1
519 2 9.0517139323690898e+00 -3.7829868388906096e+00 2.6777868670469083e+00 -3 0 -3
354 2 1.1349877329840936e+00 1.9077177580142504e+00 1.0767701882042374e+01 -1 0 0
463 1 3.7601571771582543e+00 -4.3266774102232937e+00 1.3876093873989270e+00 3 0 1
347 2 4.8241154932805586e+00 3.1023736651971721e+00 9.8115109562937715e+00 -2 0 -3
717 2 9.6388457168953732e+00 7.1895770854276631e+00 3.5111770835346428e+00 1 0 2
316 1 -1.4319435157778773e+00 4.8885091600992219e+00 6.6430768159551796e+00 1 0 -1
1082 2 -3.2802665251409220e+00 6.3396730251954825e-01 1.0353085698779237e+01 1 0 0
598 1 4.1315950292130843e+00 -2.0263809574723135e+00 4.8463815188949004e+00 -3 0 1
284 2 7.7791620511639543e+00 -1.6566705019024583e+00 6.9456039751057679e+00 -4 0 1
919 1 -2.3227652083299963e+00 -4.3618223742189297e+00 1.5146025744148254e+01 0 0 -2
920 2 -2.9971664013044648e+00 -4.8049027320585003e+00 1.4558233302976339e+01 0 0 -2
283 1 8.4227585957446891e+00 -9.3411879108927032e-01 6.7371231959598825e+00 -4 0 1
649 1 6.4288901024403788e-01 6.6477712366835942e+00 1.1293615512618123e+01 -3 0 -1
281 2 9.5815037128822969e+00 4.9080124120761077e+00 1.5067775589834415e+01 -3 0 0
83 2 1.2148788410362288e+01 1.6964511087763245e+00 1.8177235854010885e+00 0 0 -4
512 2 1.1330876346056373e+01 -6.1993453706538570e+00 9.2232948233114129e+00 1 0 1
599 2 4.8670673185404256e+00 -2.4547553877611863e+00 4.3869131398230961e+00 -3 0 1
1548 2 1.1170661155166104e+00 2.8778390834681318e+00 7.0022394978874294e+00 0 0 1
300 2 7.3994502506802702e+00 5.1950840896334221e+00 1.1388558200093657e-02 -2 0 -2
1622 2 -1.0598858508553759e+00 -2.3202129389304282e-01 5.4009495719890239e+00 2 0 1
507 2 -1.6606203137872031e+00 7.0157345984402113e+00 1.7651410214612007e+01 -3 0 -2
953 2 1.7355648480056892e+01 7.2605446814493781e+00 1.4307725273717429e+00 -1 0 1
1667 2 1.2896479298932107e+01 5.0872550547259525e+00 4.2203727277459291e-01 -1 1 -2
1104 2 3.0313056015480195e+00 -8.7802571170459309e-02 8.3799667752180387e+00 0 0 0
914 2 8.3441939357417780e+00 -5.3889567018284401e+00 1.0271079452100864e+01 0 0 2
1103 2 3.8563447037679399e+00 1.2604133120218721e+00 8.5737486968042447e+00 0 0 0
782 2 1.9285195418100076e+00 -9.1483682183392734e-01 9.8152192953148152e+00 -2 0 -3
185 2 -2.1750568068299487e+00 -1.7841402336327628e+00 1.7413262162634755e+01 -4 0 -9
781 1 2.2082276698881689e+00 -1.3231634801061904e+00 8.9253505707452625e+00 -2 0 -3
783 2 1.3518486279913295e+00 -1.7674957731729988e+00 8.5561205475597060e+00 -2 0 -3
358 1 1.6720228846710288e+01 1.0778534742557433e-01 9.8113511690715727e-01 1 0 -1
662 2 1.1067314224694467e+01 3.9882638277853744e+00 2.4545318280173198e+00 -2 0 1
968 2 -3.3481310447027428e+00 -8.7510097115565610e-01 1.4467250771775104e+01 0 0 1
297 2 3.7015030240751736e+00 3.2615987885659550e+00 1.5308001809311319e+01 2 0 1
180 2 7.8619642240821115e+00 3.5199171879467261e+00 1.6270485836571872e+01 -3 0 0
494 2 5.9506873025713656e+00 -1.2203021515846313e+00 3.3139979125626662e-01 -2 0 -1
495 2 1.7434224806600085e-01 -1.7770685992871753e+00 1.8297220138164388e+01 -2 0 -2
176 2 2.5158905337822643e+00 -3.5115435074853218e+00 4.9562987033460087e-01 -5 0 2
1959 2 1.0794624446135620e+01 -3.2262641556612390e+00 3.9213404942813836e+00 1 1 1
589 1 1.2747090719341674e+01 6.7632932482284769e-01 3.0272809048056706e+00 -5 0 -1
760 1 4.5481913825960802e+00 -3.9170876653998725e+00 6.9651033564156828e+00 -3 0 2
299 2 1.5180458467243856e+00 5.9212464192658878e+00 1.7908984082604906e+01 -2 0 -3
4 1 1.3627910526980624e+00 2.7473119330173574e+00 1.7677004158886412e+01 1 0 -1
307 1 7.6733631257549195e-01 3.2160354817672019e+00 1.3810680169968073e+01 1 0 0
493 1 -6.8011185113460737e-01 -1.3190820458962795e+00 1.8486632915737221e+01 -2 0 -2
535 1 -6.1413074551056201e+00 6.7871367012080359e+00 1.8991512042099295e+01 -2 0 1
2015 2 1.5168661312397669e-01 -5.9091470655328573e+00 6.7005172941723989e+00 1 1 0
1876 1 1.2429866994473201e+01 -3.8559064116138444e+00 3.9642952722548612e+00 -1 1 0
591 2 1.3545077217981095e+01 1.0590751822586428e+00 3.4249231717702289e+00 -5 0 -1
1623 2 1.5895325815039410e+01 -1.0487981391645773e+00 4.5091687689114988e+00 1 0 1
368 2 1.0824558656430664e+01 -1.0501430643019436e+00 1.7062080973910980e+01 0 0 -1
590 2 1.2064980492697078e+01 8.5073377702966368e-01 3.7403969545450191e+00 -5 0 -1
545 2 1.3398355483141788e+01 -5.9254268232496079e+00 2.0295630472397419e+00 3 0 1
594 2 -1.9931093320910702e+00 5.5185146547538029e+00 9.8628305461729298e+00 -2 0 -1
295 1 2.9651858643124251e+00 2.6489653628650629e+00 1.5360237192305874e+01 2 0 1
522 2 8.9805383342345557e+00 -5.4428628018184355e+00 5.8905078317500674e+00 -4 0 -1
37 1 1.4633403999717496e+00 7.7058173631326969e+00 1.5118278701521239e+01 -3 0 -2
222 2 8.8046073302902901e+00 7.3779822507937354e+00 6.3643027697682246e+00 -2 0 -2
1519 1 1.1063070083090713e+01 1.3748247569042640e+00 4.9543788818782959e+00 1 0 0
1047 2 6.3404363320581600e+00 -2.7077573484147432e-01 2.3564764989249225e+00 0 0 0
785 2 4.9268347914837518e+00 5.2240495944509355e+00 1.5578750667982177e+01 -4 0 -2
318 2 -1.6430584845332064e+00 5.5903751267970048e+00 6.0324034540521767e+00 1 0 -1
969 2 -4.7756361846762001e+00 -8.3643096089628344e-01 1.5159264914075806e+01 0 0 1
893 2 -1.6568059487918525e+00 5.5710199562547409e+00 1.4455238353154273e+01 -2 0 -3
115 1 1.5169377039619162e+01 -5.2352443154610517e+00 7.4759884679280200e+00 -5 0 -4
1123 1 1.3082304742147075e+01 5.2913695983114692e+00 4.7831583552836348e+00 -1 0 0
504 2 -3.6047452979805072e-01 -3.3432871821561183e+00 7.3760648817812040e+00 0 0 -1
360 2 -3.3856858684334618e-01 -4.9556869955255323e-02 1.3249524679171318e+00 2 0 -1
275 2 3.8689680545750909e+00 -3.7887785228800031e-01 1.4231357715456637e+01 2 0 -2
440 2 -4.8056473452343491e+00 -6.1904566893934669e+00 1.4991618504500856e+01 -2 0 -2
20 2 -6.4889493039795276e-01 -3.5164317761004376e+00 1.4764507022554655e+01 -3 0 -3
972 2 1.3125871045603617e+01 -2.0272219675843175e+00 1.6981621451738047e+00 0 0 2
1000 1 1.2389609109318135e+01 -3.2699185285935477e+00 1.3453238941803855e+01 -1 0 1
768 2 1.2212080918974961e+00 -4.9717359636384195e+00 3.5150057022725303e+00 -1 0 0
386 2 1.2578578753483325e+00 8.2017909614167017e-01 5.9334229248368819e+00 -1 0 -2
799 1 1.4006322810851129e+01 3.4963227025358794e+00 6.5488766901772948e+00 0 0 -3
857 2 7.5989032757303532e+00 2.3079108997331463e+00 2.9897622609154837e+00 -2 0 -4
547 1 1.2346808639330389e+01 1.5873905505592560e+00 7.2772701134963862e+00 -2 0 -3
123 2 5.1559029773521008e+00 4.8867010506868898e+00 1.0997657239528651e+00 -2 0 -1
1877 2 1.2980544642433021e+01 -3.1075470538066785e+00 3.5718588960520354e+00 -1 1 0
873 2 -2.7822662705494312e+00 -4.6300673170300755e+00 9.0000323807714189e+00 -1 0 -1
233 2 9.1148249715593135e+00 4.6894744673504611e+00 1.2499462800047370e+01 -2 0 -1
207 2 -1.2740336166756432e+00 -5.7608062009346312e+00 1.5672149634351092e+01 3 0 0
674 2 1.5471209811326940e+01 1.0237159515751886e+00 4.6296714605543441e+00 0 0 -3
844 1 1.2420435511541612e+01 5.8878059530044773e+00 1.2148644222359986e+01 2 0 1
336 2 9.9753612875577282e+00 -5.7275376718274451e-01 1.3636853176176768e+01 -2 0 -2
967 1 -4.0748193343525374e+00 -1.4191487448820430e+00 1.4861648235686006e+01 0 0 1
415 1 1.0217385138801598e+01 5.0613687758784334e+00 7.4285593697838799e+00 1 0 -2
35 2 1.6485642968191215e+01 1.9028516571132101e+00 9.9802383822301299e-01 -1 0 0
500 2 7.1599191170267673e-01 -5.1192788283652364e+00 1.3446909386122057e+01 1 0 0
867 2 1.4077587236598836e+01 5.9161015255174032e+00 1.8365205596077274e+00 -4 0 -1
398 2 1.6226745634917663e+01 -3.3897576461208354e+00 2.4191181299907067e+00 2 0 0
397 1 1.6588820546894858e+01 -4.2779788859376300e+00 2.1885748739169872e+00 2 0 0
645 2 -4.4945661448468144e-01 2.2274531522604608e+00 1.4555664274363558e+01 -3 0 -3
401 2 7.5486114612035582e-01 -6.3906784137139327e+00 1.6387986294932819e+01 0 0 0
1046 2 5.6327809254331829e+00 -1.6653865286341434e+00 2.4893673715178100e+00 0 0 0
513 2 1.1879871779511028e+01 -5.3001711028379139e+00 1.0412553497417329e+01 1 0 1
1407 2 1.6804927080780395e+01 -4.1568193443707901e+00 1.2118519010346276e+00 2 0 0
1045 1 5.6661096264431041e+00 -8.6816888017413252e-01 1.9451073987241512e+00 0 0 0
34 1 1.6200202107848174e+01 2.8687440486831548e+00 8.4477307869806784e-01 -1 0 0
36 2 1.6421186946206813e+01 3.3546528472760180e+00 1.7399850250017312e+00 -1 0 0
127 1 1.3354023619807275e+01 3.4287404213075092e+00 1.2384441283387840e+01 -2 0 -2
129 2 -4.0593792379649924e+00 3.2702869148498834e+00 1.3227932506421709e+01 -1 0 -2
19 1 2.3091503783727507e-01 -3.4335634318971420e+00 1.4383839370420947e+01 -3 0 -3
128 2 1.2836676229898716e+01 2.5470363328590757e+00 1.2286928457544859e+01 -2 0 -2
1546 1 6.5003956207113411e-01 3.4918848297174829e+00 7.5594351211231485e+00 0 0 1
181 1 7.6806836580510529e+00 7.2487339546882268e-01 2.5921613690359235e+00 -1 0 0
635 2 -4.4725154857500211e+00 2.6263302574142902e+00 1.7541120072663617e+01 1 0 -3
102 2 -9.5700171205421691e-01 7.4140706902243245e+00 4.0243143832439792e+00 1 0 0
448 1 5.8150352654677429e+00 -6.1260844587682168e+00 1.6489056641715585e+01 0 0 1
593 2 -1.1310967851001548e+00 5.6303220532401212e+00 8.5379906581064784e+00 -2 0 -1
670 1 8.8961178600556252e+00 3.7864832678793086e+00 9.3427624780897727e+00 -4 0 -1
671 2 9.2939473426114905e+00 4.2360314310583309e+00 8.5653854571132548e+00 -4 0 -1
672 2 8.3059343212330088e+00 3.1443667064895369e+00 8.9651964132560025e+00 -4 0 -1
731 2 2.1623074357286005e+00 6.1619256211110223e+00 1.0529566974887832e+01 1 0 0
730 1 2.9637148145181005e+00 5.9105875353622856e+00 1.0041834808127675e+01 1 0 0
823 1 1.2036173677240399e+01 1.0315260525537822e+00 1.1794451813533994e+01 0 0 1
824 2 1.1476820607142525e+01 6.6211608618744933e-01 1.2546230141459429e+01 0 0 1
722 2 7.0500334097555744e+00 3.1299910895527923e+00 1.8181293675205229e+01 -6 0 -3
825 2 1.2743383602583823e+01 3.9901796175492610e-01 1.1574181433140822e+01 0 0 1
600 2 3.3570489637383893e+00 -2.3117545078814841e+00 4.3282407787707164e+00 -3 0 1
439 1 -4.5251750331174820e+00 -5.7706168932693362e+00 1.4122051380792406e+01 -2 0 -2
408 2 -2.3572636223720798e+00 2.0837793067813131e+00 1.8504277080960549e+01 -2 0 -3
723 2 1.4489232095898430e+01 3.0993146657421207e+00 4.6262090851167947e-01 -6 0 -2
499 1 6.4659520304311258e-01 -5.8482918008155274e+00 1.2792744187645214e+01 1 0 1
27 2 8.9047428930231760e+00 3.5928137463321956e+00 4.3491679448899516e+00 -3 0 -4
952 1 1.6906791436038759e+01 7.5588255644310571e+00 2.2579165819436096e+00 -1 0 1
1102 1 3.5255734784439587e+00 6.2183272498404563e-01 7.8875275216312248e+00 0 0 0
508 1 1.1522816004893972e+00 -1.0334306556960726e+00 1.4797276824868810e+00 0 0 0
1476 2 4.4501103693893524e+00 -6.0498114307269519e+00 1.2055344184246325e+01 0 1 0
801 2 1.4524048218454155e+01 2.8746630255472976e+00 5.9711373729903192e+00 0 0 -3
1668 2 6.8999594721309458e+00 6.1219316667520634e+00 1.8836125667435493e+01 -1 1 -3
721 1 1.3669096219070910e+01 3.3400928618953820e+00 3.0156834892084133e-02 -6 0 -2
510 2 1.3578442196998990e+00 -1.6939646147748091e+00 7.3810975554542435e-01 0 0 0
200 2 1.0362972778117104e+01 3.8465502772464042e+00 1.8689263754060693e+01 -1 0 -6
126 2 1.6214036990540151e+01 -1.1205752725660920e+00 2.4857497286433032e+00 -3 0 0
509 2 1.8733807650737144e+00 -3.4888058727812243e-01 1.4957888523199006e+00 0 0 0
1390 1 2.7023998953912454e+00 -5.7632920297294277e+00 3.2451649226380153e+00 0 1 0
432 2 5.2887970398950337e+00 7.1152065960634143e+00 7.7723657931688912e+00 0 0 4
353 2 2.4287512958629209e+00 2.5883510591905630e+00 1.1198192991346996e+01 -1 0 1
501 2 -9.8717950048845537e-02 -5.8173838465444598e+00 1.2152974421909027e+01 1 0 0
771 2 2.3924952998717179e+00 2.0330122416734611e+00 4.4578000090800716e+00 1 0 -4
865 1 1.4743444709640759e+01 6.0368249348305749e+00 2.5668908573669360e+00 -4 0 -1
9 2 9.6144326662359418e+00 6.5259951461480394e+00 1.3941420285296747e+01 -2 0 -2
800 2 1.3280688192473786e+01 2.9223978564520454e+00 6.9511691473168886e+00 0 0 -3
1371 2 -1.9521580014337543e+00 7.2094720049285144e-01 1.3920338906095214e+01 0 1 0
822 2 -1.7896636484330832e+00 -6.3263050457376524e+00 1.7879130852142396e+01 -3 0 2
1372 1 9.8952657068929923e+00 -6.0503196640136672e+00 1.7190788312125974e+01 -1 1 -1
1369 1 -2.4374602353369768e+00 5.6124949462565965e-02 1.3410816946833172e+01 0 1 0
29 2 7.9099212004338657e+00 1.3110592933119225e+00 1.2471437694064004e+01 -3 0 -4
770 2 2.6861270337510361e+00 1.7634958692530542e+00 2.9378841892676122e+00 1 0 -4
1370 2 -1.6868479107324190e+00 -4.7764727714677324e-01 1.3074944379806992e+01 0 1 0
666 2 1.2609030620581585e+01 6.6359944189065825e+00 9.0395658767506646e+00 1 0 3
122 2 -2.3024395265174169e+00 5.2891716915693667e+00 1.8906450460512765e+01 -2 0 -2
943 1 3.9733203659045078e+00 3.5927928731676531e+00 1.1376427552398480e+01 -1 0 2
70 1 1.0182575071606220e+01 -8.1182548522711251e-01 8.7525901928117769e+00 -2 0 0
798 2 8.4301616887729409e+00 -2.7974720335752830e+00 1.0582901214354477e+01 -3 0 1
72 2 1.1021131435661630e+01 -1.2719801684262420e+00 8.5286455172361233e+00 -2 0 0
298 1 9.3174476450310006e-01 5.1921458338589748e+00 1.8179077667296781e+01 -2 0 -3
769 1 2.5879827924206191e+00 2.4840097646695067e+00 3.5942189380968252e+00 1 0 -4
1002 2 1.3051204851894997e+01 -2.6868855205908462e+00 1.3958087229073387e+01 -1 0 1
436 1 7.6838686774383875e+00 6.6064857553809908e+00 1.7471128158369492e+01 -2 0 -1
273 2 5.1080798461194110e-01 6.4175651957454907e+00 1.4518415711859001e+01 0 0 -1
797 2 9.5103469136522065e+00 -1.8108326854924428e+00 1.0026253695875692e+01 -3 0 1
796 1 8.8772368055180451e+00 -1.9384360854173908e+00 1.0802537042712402e+01 -3 0 1
375 2 6.9597302807871371e+00 1.6761175630751275e+00 1.6039636546468852e+01 2 0 1
199 1 1.0906550568294861e+01 4.3772964786266879e+00 1.8083666723043386e+01 -1 0 -6
28 1 8.1732085398111245e+00 1.7280638804058039e+00 1.3359017094804251e+01 -3 0 -4
30 2 8.2626866622528965e+00 2.6372800390629347e+00 1.3022774361812480e+01 -3 0 -4
706 1 1.1845578692384402e+01 -4.7167559267569104e-03 1.5835230529725841e+01 -2 0 -2
901 1 1.6293071221525025e+01 3.8554833529373624e+00 3.2174197538187443e+00 -2 0 1
915 2 9.6574957659078571e+00 -6.2187716045918480e+00 1.0607991580159920e+01 0 0 2
999 2 1.0378706754092534e+01 2.3677022400956211e+00 9.5083919049822221e+00 -3 0 2
1353 2 6.4107796458150510e+00 -3.5673068821079164e+00 7.2884489873371097e+00 -1 1 0
124 1 1.5908425029376705e+01 -1.8859405320395499e+00 2.9418736750264496e+00 -3 0 0
8 2 1.0894379183886780e+01 5.9822301681783205e+00 1.3073031919627681e+01 -2 0 -2
636 2 -4.8044126550401947e+00 3.0771674283153736e+00 1.6176040069511828e+01 1 0 -3
744 2 1.2893988416447595e+01 -3.1886466642500939e+00 7.1782086313683378e+00 2 0 0
201 2 1.1684669907546354e+01 3.8819957636943538e+00 1.7731201645025266e+01 -1 0 -6
42 2 1.5735049515777089e-01 -1.8698016374029116e+00 1.3050173331398748e+01 -1 0 3
387 2 2.5441118054049512e+00 1.1926266306146776e+00 6.7056439875215981e+00 -1 0 -2
658 1 1.3024001576525265e+01 6.0120860603348429e+00 5.3988559113080759e-01 -1 0 -2
406 1 -3.2145379875804463e+00 2.4446615508111442e+00 1.8839256135045307e+01 -2 0 -3
752 2 4.0933120829275387e+00 3.0321797520422216e+00 4.2544923859116190e+00 -1 0 2
707 2 1.1232357965694824e+01 2.9256609002464806e-01 1.5139205467454328e+01 -2 0 -2
708 2 1.2218458521464276e+01 7.3981908841786925e-01 1.6305599278505422e+01 -2 0 -2
407 2 3.7065369085258220e+00 3.3080766508898289e+00 2.2277181624487230e-01 -2 0 -2
374 2 7.2200170239679400e+00 1.0412886710114284e+00 1.4637457803346557e+01 2 0 1
373 1 6.8490438953988173e+00 8.3830388454636484e-01 1.5505542653097917e+01 2 0 1
997 1 1.0865324302097562e+01 1.5514154755210949e+00 9.3734376385103797e+00 -3 0 2
944 2 3.6734321012951399e+00 4.4490812393769765e+00 1.0921073346934563e+01 -1 0 2
753 2 5.1222835365125672e+00 2.1637858784026989e+00 5.0206441453033372e+00 -1 0 2
751 1 5.0153322500095623e+00 3.0732690480566909e+00 4.7175799350299918e+00 -1 0 2
125 2 1.4993049007424565e+01 -1.7548822879576527e+00 2.7064808134268410e+00 -3 0 0
945 2 4.6710437340282480e+00 3.9291127785603770e+00 1.1961776688448378e+01 -1 0 2
546 2 1.2346862956913377e+01 -4.8760696646696804e+00 2.5660401907966790e+00 3 0 1
441 2 -4.1460121601432007e+00 -6.4843538938863858e+00 1.3608040416931425e+01 -2 0 -1