LAMMPS data file via write_data, version 8 Apr 2021, timestep = 4669000

972 atoms
2 atom types

0.1252339797033445 19.86581902027886 xlo xhi
0.08250981811288688 19.90854318189884 ylo yhi
0.0493565708114199 20.751415429213367 zlo zhi
-0.32293009892343855 0.19290209967109193 0.002916948172014154 xy xz yz

Masses

1 16
2 2

Atoms # atomic

4 1 4.270895757320749 0.9300334783507818 3.400421437022796 0 0 0
5 2 4.311026853094021 1.9149685856639986 3.2758758023605217 0 0 0
435 2 2.1684556202855862 9.411601259575214 7.9482558698318595 0 0 0
7 1 5.9451997678754935 4.426532786669172 5.335649214843996 0 0 0
8 2 6.68898953582302 4.207717969547137 4.82156556326444 0 0 0
9 2 5.198493253765814 4.139527493997709 4.802335133082722 0 0 0
10 1 1.432269205941087 4.178558987140311 3.6614028393911573 0 0 0
12 2 1.044731265422267 4.7802261268031145 2.979774297476685 0 0 0
13 1 4.596255313496668 5.853365548525182 1.939403552775169 0 0 0
14 2 4.257962925310249 6.5975667950846795 2.46544117718076 0 0 0
16 1 4.055916844967235 3.710163180119417 3.6902018892738266 0 0 0
17 2 4.169123628061713 4.340732986822002 2.9446969408740262 0 0 0
18 2 3.111425300208137 3.8818655435209015 3.8223530629011315 0 0 0
24 2 2.3741954050129777 1.866119178587077 5.6021896306570795 0 0 0
25 1 2.919325490128075 5.547788320156593 6.861085908067148 0 0 0
26 2 2.695695496989703 6.243777222377342 6.182552624279109 0 0 0
27 2 3.6950586372698853 5.902640972063451 7.215248739995915 0 0 0
571 1 0.6796954055233555 15.61094250713499 9.135868270661664 0 0 0
35 2 6.080754343733902 2.3268289958991963 1.1725529003807944 0 0 0
46 1 7.831143116546099 4.008697420984323 3.4893079842757384 0 0 0
48 2 7.67177849690178 4.732693587809045 2.836848464906076 0 0 0
55 1 7.232218969445928 5.967546130990829 1.732738804114488 0 0 0
56 2 7.462027897243588 6.935990672970597 1.879067224981498 0 0 0
57 2 6.220020663921437 6.021249050389468 1.6337021830741671 0 0 0
63 2 8.56891858811952 5.81662253540672 7.311657646681989 0 0 0
67 1 7.687029496398477 1.9931197888302896 1.8750619781115634 0 0 0
68 2 7.818303073527178 2.651425637454066 2.540707878009928 0 0 0
69 2 8.353359192627813 2.103167510604368 1.1440386003626544 0 0 0
112 1 4.22927521497326 8.091395971914052 3.460908305634759 0 0 0
113 2 4.8996218887246314 7.731689438016882 4.076926252419489 0 0 0
114 2 4.271773981282747 9.081820989798452 3.486802439341123 0 0 0
130 1 2.1777491143064944 7.729533081693523 5.27741994371184 0 0 0
131 2 2.877638711071205 7.86553984466398 4.59974339344146 0 0 0
132 2 2.224567176642389 8.508120604301489 5.887472351587766 0 0 0
136 1 6.211850042580418 7.429735437951333 5.259325078867799 0 0 0
137 2 6.054618421376089 6.430022813838921 5.319535926815633 0 0 0
138 2 7.108759569580474 7.643190351288649 5.036943930985742 0 0 0
166 1 8.73684557365602 7.6829294699800705 5.168452286345055 0 0 0
167 2 9.000439395240653 8.342581691771484 5.858867370369312 0 0 0
175 1 7.440340993089112 8.56929827065258 2.10013352625661 0 0 0
468 2 4.657316249246224 9.23943160542121 6.955613097742529 0 0 0
6 2 3.4406965088239145 0.8128948442831903 3.921770332045196 0 0 0
325 1 2.9665277615270287 2.9754666326874273 6.905085735469944 0 0 0
326 2 3.0011521933587044 3.99451458983645 6.726790611909873 0 0 0
327 2 3.8746526240103982 2.7457829420408006 7.116930349660421 0 0 0
337 1 4.8012612131680825 6.236675830477919 8.737906597756169 0 0 0
338 2 4.489791090567822 5.42266813008248 9.208083998192667 0 0 0
339 2 4.459219285327917 6.99186783866523 9.271130617459896 0 0 0
58 1 8.469034279099143 1.5250203184457938 5.299171917033758 0 0 0
30 2 5.340012082946079 0.6040123200192002 4.608167931175227 0 1 0
345 2 1.3633070727159073 6.417540651073742 7.915826127700332 0 0 0
357 2 2.023210407094514 2.3112943744619545 8.193538821135911 0 0 0
358 1 5.6038245244973535 2.526180319795919 7.119763103317934 0 0 0
359 2 5.908618563571346 3.3311980567928394 6.553829058536809 0 0 0
360 2 5.480651135147631 1.7277818000710623 6.555466577807659 0 0 0
363 2 8.864517127253803 2.9446151070243882 8.116608609241371 0 0 0
379 1 7.504610035663865 6.250321077011662 9.063532674487226 0 0 0
380 2 7.369539848303111 7.2363728835250125 9.085025658850366 0 0 0
381 2 6.5808200544940805 6.017924963143627 8.87601411642929 0 0 0
391 1 7.424111430885084 2.266262491671276 9.313742904332598 0 0 0
393 2 6.743229719857979 2.380181786204541 8.651318915056928 0 0 0
467 2 5.832245675809304 8.331666388114492 6.47328721293231 0 0 0
499 1 7.462148854837054 8.772066892597326 8.964459712208749 0 0 0
710 2 8.275554860730901 5.427709057509216 0.5962199709704892 0 0 1
139 1 0.5703143866976501 8.542696549985942 2.378280600967474 0 0 0
675 2 1.9553259713562858 5.773234237989459 0.8191783264826111 0 0 0
15 2 3.9712848744782154 5.740239727346613 1.206272516408463 0 0 0
578 2 9.179014487776461 16.887206270867413 6.692169357806135 0 0 0
469 1 9.427001375656674 9.457246782498267 7.213757704098269 0 0 0
466 1 5.594397535085528 9.094209520152194 7.067626726730702 0 0 0
544 1 3.8781247860429167 14.767973626847553 10.236172094705823 0 0 0
471 2 8.935202530556078 9.238123454441649 8.025354522716734 0 0 0
47 2 8.767195471437637 4.084556568802654 3.7362655718862894 0 0 0
927 2 8.081353730140892 18.794421254599527 0.48412153482539855 0 0 0
127 1 0.894584045929739 12.830168804416688 1.8240870744016677 0 0 0
470 2 9.282848945385226 10.351773368374651 7.085903802978195 0 0 0
22 1 2.102961173278799 1.049214949187935 5.121640952430754 0 0 0
392 2 7.51234262307504 3.0133787234706984 9.9709644239581 0 0 0
60 2 7.5225956668322445 1.144868992467639 5.17096479147261 0 0 0
62 2 9.388512389558663 4.708689573118032 6.5359449427677445 0 0 0
344 2 0.9118147199931813 5.580253475407669 9.086354642586812 0 0 0
609 2 7.883084995037682 15.8846374490363 9.726328901368664 0 0 0
501 2 6.819042798697145 8.97072824277334 8.28133963985533 0 0 0
61 1 9.260214964327613 5.693148046857531 6.678271078809163 0 0 0
240 2 1.1456190839142484 13.99413087121164 5.274445401867693 0 0 0
559 1 0.6650797615938724 19.24821034150446 8.71303652710641 0 0 0
818 2 9.78432441196418 12.248818562338613 0.3562471647059556 0 0 0
111 2 2.125269243154126 9.527086527187077 1.0216140788237407 0 0 0
254 2 8.33014431668238 15.608828464753381 0.7251433881734948 0 0 0
577 1 9.060084496140194 15.91979811253348 6.725751315444596 0 0 0
28 1 5.862413679416151 0.32970404171679624 5.368282749401192 0 0 0
168 2 8.801856652892512 6.831121006669594 5.637552046682225 0 0 0
272 2 7.376316408964668 0.24770560334495978 1.8733511323287146 0 0 0
248 2 0.6463544146185086 14.613637659027669 2.1338000992888517 0 0 0
19 1 0.569145788535729 6.027278447729492 2.008308917103246 0 0 0
119 2 0.6566042752343121 11.273448385044956 4.354447005770163 0 0 0
451 1 0.7071278647913882 12.861744321725025 9.105850398553585 0 0 0
176 2 7.568789177499503 9.292385632704459 2.734477205318949 0 0 0
20 2 0.5717470126339511 7.02187501183039 2.21987323138603 0 0 0
169 1 9.180513836079792 12.063249826718062 6.99602658494529 0 0 0
500 2 7.344635399726474 9.273301369505287 9.71894003639092 0 0 0
210 2 0.2674752040064614 7.639488206735205 5.219202869037187 0 0 0
23 2 1.1363491512561823 1.090742252508861 5.0271584721506875 0 0 0
273 2 6.1855173746091285 18.924513582397072 1.4733664429567215 0 0 0
433 1 2.771848002457247 9.562229738917638 7.194726432180867 0 0 0
177 2 6.567278269709132 8.78979863318798 1.7929916571773992 0 0 0
356 2 1.2999503269799089 1.0596784175076042 8.863692840542159 0 0 0
277 1 9.193945726120045 18.80957036403885 6.903991179487784 0 0 0
443 2 1.4923644196096886 10.329293503473412 10.240040605440413 0 0 0
3 2 2.075352960041779 2.5949671708843063 0.851991144936373 0 0 0
123 2 4.1874659006842405 12.176919345365375 0.6275499125811378 0 0 0
355 1 1.2400131215013244 2.0283596688272345 8.734584314356793 0 0 0
143 2 4.5713784107956315 9.405147101587149 0.6627107373696733 0 0 0
147 2 8.605631339205855 9.12752592473732 0.9819316320929357 0 0 0
251 2 5.467320513058279 15.636765209732136 1.0232522897332337 0 0 0
140 2 0.8457479061484625 9.242613422075818 3.0064856167022276 0 0 0
463 1 0.899454688137353 9.131508342511962 9.085667385185712 0 0 0
231 2 4.223723660190251 19.740606588976096 2.171719733594793 0 -1 0
596 2 7.570995195414215 0.512580554219566 9.007358592073897 0 0 0
444 2 1.609420986654988 11.80359457249026 10.35746350946113 0 0 0
561 2 0.7802208163168486 18.78835964039109 9.556128978806896 0 0 0
154 1 8.122576164406622 10.611026500381616 3.6091610958449807 0 0 0
573 2 0.6340045749462487 16.181117561036086 9.95892359126552 0 0 0
118 1 1.3139733459713119 11.030290622432652 3.6629033997126657 0 0 0
171 2 9.155729055990403 12.756995402719939 6.242979089354748 0 0 0
343 1 0.7997195003132003 6.457732671034094 8.674663742048148 0 0 0
31 1 0.9407287839576353 2.1879107875798325 2.0349934854413543 0 0 0
554 2 5.578108128513886 19.020904958226826 8.347480589590694 0 0 0
128 2 1.5522903297208286 12.754065569987882 1.0833511854430438 0 0 0
673 1 2.533962680909838 5.5317830833839885 0.06036884643759636 0 0 1
452 2 0.7700365814994982 13.835095048244773 9.005793223799557 0 0 0
236 2 0.8571966883799552 0.5290686785280685 1.9606826863462705 0 0 0
247 1 0.4433865160000931 15.548181177460792 1.986583425944863 0 0 0
362 2 9.020030444484213 2.5790224018843437 6.59322242723803 0 0 0
124 1 4.152255052416197 10.697062887857179 3.830371144923512 0 0 0
242 2 2.4464749102322245 18.93493775313892 6.041371163998646 0 0 0
434 2 2.900559940103967 10.509942050098779 7.058440007466606 0 0 0
560 2 1.2613819862966853 18.953643840365462 8.000724675867664 0 0 0
297 2 0.004631964357883808 17.716739815638768 4.719498415129858 1 0 0
450 2 4.7610410339355544 11.761359748998826 9.735333134059317 0 0 0
129 2 1.1711774339921992 12.030306674228068 2.3780280036657544 0 0 0
34 1 5.32740280848508 2.5503074893163467 0.6270540799238805 0 0 0
361 1 9.391428010692154 3.1021527733605647 7.3599003016953555 0 0 0
120 2 2.1829280696283884 10.903924591415851 4.052146530881325 0 0 0
11 2 0.8615354870561382 4.16181174410212 4.432780090956502 0 0 0
235 1 0.4064654547013187 19.392556272338076 1.7364707001014796 0 0 0
237 2 1.008617133562124 19.368160044719666 1.0012435220073765 0 0 0
597 2 7.411059065016461 18.87046618180803 9.627069482116873 0 0 0
279 2 8.406135480488858 18.945800472965015 7.517825528197583 0 0 0
607 1 7.710748006077413 15.324396282697055 8.925005975145167 0 0 0
558 2 4.269101035494047 17.896227071678588 9.76389442751068 0 0 0
608 2 7.732079071061714 14.4402550310859 9.23120529251647 0 0 0
115 1 6.2979640203463285 11.122972646890139 5.472299201913791 0 0 0
116 2 6.2084756923108975 12.047118496049723 5.747214253058782 0 0 0
121 1 4.529112464517371 12.268423222095201 1.54643036247507 0 0 0
122 2 5.474704864824591 12.45719685977445 1.3356384341272378 0 0 0
229 1 4.265657461068318 19.028038324836217 1.4188479214466798 0 0 0
133 1 2.698325949399451 12.282997630288207 7.137597061654344 0 0 0
134 2 1.8490313256358273 12.471455237807012 7.652622858588712 0 0 0
135 2 2.5537604331983212 12.866167461349733 6.351584208563986 0 0 0
579 2 8.513656172229181 15.841888753449512 7.568537191656876 0 0 0
465 2 0.9433991448347603 8.181920649997878 9.254336686076934 0 0 0
163 1 7.322038544729855 12.578366468555918 2.160779104262958 0 0 0
164 2 7.618873684090862 11.916588049442469 2.8010383950390896 0 0 0
165 2 7.907433716043755 12.411288508621505 1.382351943023448 0 0 0
220 1 3.9055323797449732 14.253771297362743 3.4567932464043594 0 0 0
221 2 3.8594773955455044 15.13479179855204 3.0024240978035746 0 0 0
222 2 4.130903479853456 13.617242248448733 2.827119621313504 0 0 0
223 1 5.67320501106645 17.562720160684357 5.179801495635921 0 0 0
224 2 6.532152634922391 17.356232631828984 4.698537268293685 0 0 0
225 2 5.679637986179681 16.99102752810297 6.0077346202674935 0 0 0
226 1 1.2395942649078888 17.560018581789326 3.571665822046289 0 0 0
227 2 1.0552426534908137 18.26004735132124 2.8989203906309684 0 0 0
228 2 1.0186494483610469 16.787756491916102 3.047280820290716 0 0 0
230 2 4.080109671062322 18.23485088984458 1.8988840873244481 0 0 0
232 1 3.8691515973648714 16.82287948516136 3.146065513049548 0 0 0
233 2 3.0257296905106634 17.04239912199792 3.4957150335816913 0 0 0
234 2 4.528996670506518 16.817093957404076 3.8790175663460085 0 0 0
238 1 2.129609388240105 14.00569227930704 5.341138961668809 0 0 0
239 2 2.680305053432677 13.996269883906526 4.506050125841146 0 0 0
241 1 2.611159755392286 18.444153065821737 6.8740344043371495 0 0 0
243 2 2.590647581108575 17.442027457121533 6.86504987460792 0 0 0
244 1 5.711956141880561 13.810830660830717 5.481158835684218 0 0 0
245 2 5.551252829902785 14.41520470991349 6.26966528724154 0 0 0
246 2 4.983571351719762 13.944609445212578 4.811781787285765 0 0 0
249 2 0.9220739195833731 15.757595286934189 1.1412546224847278 0 0 0
262 1 7.753462797505112 17.29158958624043 3.6995331931671545 0 0 0
263 2 8.750650237730474 17.055925725981094 3.7201555013100576 0 0 0
264 2 7.600546210998497 18.028543284505666 3.07258543956386 0 0 0
555 2 4.158089899306708 19.055105971194614 7.8836187042057135 0 0 0
274 1 8.434617599631947 14.08594245682624 5.176818570542189 0 0 0
275 2 8.675082069113452 14.819023193693207 5.790314813586821 0 0 0
276 2 7.4868961121771 14.10125646738348 5.1922304084863775 0 0 0
283 1 7.071127486086786 15.151059477659748 1.8854593726644662 0 0 0
284 2 7.291203647563292 15.754602886420534 2.6133986187260603 0 0 0
285 2 7.37746596279011 14.232698440028742 2.1539713690787896 0 0 0
445 1 4.806193517849618 12.994871516450322 8.393237971088253 0 0 0
446 2 4.461994003354275 13.6994913662862 8.993440004136747 0 0 0
447 2 4.062395146015458 12.872814468094575 7.738324867075403 0 0 0
487 1 7.407323408114591 12.607165112874574 9.078219751302333 0 0 0
488 2 7.944577426616444 12.472153550077168 8.294756086417346 0 0 0
489 2 6.42769955041762 12.627819908436537 8.851588351940395 0 0 0
541 1 2.591361956845185 15.831025052343747 7.375616745196407 0 0 0
542 2 2.0737318211955245 15.58438856791884 8.17417867203139 0 0 0
543 2 2.2980480893092503 15.269599046244668 6.64644415236911 0 0 0
574 1 5.551569033598861 15.858656024981089 7.344045887252358 0 0 0
575 2 5.950846855265349 15.522498162932612 8.217782105849995 0 0 0
576 2 4.5931456737377 15.79587010532941 7.501778810949709 0 0 0
271 1 7.087227788383211 19.116930866967365 1.7354203902914596 0 0 0
553 1 4.700101655252388 19.113110646281477 8.669528725652167 0 0 0
595 1 7.344377829841667 19.402269375027622 8.782915822722847 0 0 0
329 2 4.489797820751085 0.5553840831721704 9.854488280564757 0 0 0
33 2 1.1934043900014957 2.7195842877616307 2.7779135808833235 0 0 0
253 1 9.08525279907899 15.841410300416134 0.11848223182643418 0 0 0
155 2 7.742294003803451 10.905081888085114 4.490737025957877 0 0 0
2 2 3.5734618588794462 2.67699628240575 0.27849047133063337 0 0 0
250 1 4.861699055858441 15.674564090430287 0.2502414976297863 0 0 0
258 2 9.664391749764244 13.87539830079592 3.7929991223566724 0 0 0
125 2 4.903640000066114 10.92768926360262 4.432095868695083 0 0 0
29 2 5.689390138134483 19.207279667522794 5.317322213097991 0 -1 0
117 2 6.0831345460905 10.473776619818981 6.219353585468507 0 0 0
156 2 9.017423028837916 10.619772079464642 3.6296507469069925 0 0 0
126 2 4.293973395118417 11.169117609464493 2.978174437235759 0 0 0
278 2 8.993818006611393 19.363123332276484 6.161902446212294 0 0 0
146 2 9.018035798346174 10.421029299838658 0.1583117808119432 0 0 1
109 1 2.699265808772172 9.591637283519747 0.2541459572413052 0 0 0
59 2 9.090754858744212 1.2871729615933423 4.605786025380593 0 0 0
142 1 5.52604790299615 9.312386786650563 0.4909443600367741 0 0 0
335 2 1.1539818532089545 3.3015841119563896 9.908996700642758 0 0 0
150 2 9.765056712606796 7.659213236781519 3.6404603678556002 0 0 0
145 1 9.285179766307754 9.489272194537651 0.31741781858841045 0 0 0
372 2 8.040768749875312 5.178294402025291 10.346824060649988 0 0 0
436 1 4.413936670943248 8.193576825356574 10.386842341346016 0 0 0
36 2 5.64288430076813 3.386664089228869 0.20391881803538822 0 0 1
479 2 7.918732530617947 11.324730515068545 10.290125354806996 0 0 0
334 1 1.3501577215891762 4.209223307800159 10.321966055095464 0 0 0
464 2 0.0960399578002698 9.327285900054235 8.560020023047205 0 0 0
342 2 4.073604414642673 3.1300728973147716 10.16733685647988 0 0 0
891 2 3.0228290982741037 19.10760049414162 0.1670507453661745 0 0 0
331 1 5.934677749251219 4.600813223122099 12.415926490737794 0 0 0
332 2 6.796115920018247 4.382830429810565 11.899710062095727 0 0 0
333 2 5.14152264811155 4.330066788329431 11.880940664046669 0 0 0
348 2 2.4815619185896183 1.9058519762539627 12.597942074783726 0 0 0
349 1 3.1532456822828374 5.7767303149082 13.648961156868102 0 0 0
350 2 2.9116500036466526 6.134988049101026 12.816240768735696 0 0 0
351 2 3.0100838632712823 4.817380030580118 13.502470955086944 0 0 0
656 2 5.808994242648206 5.576705404235703 19.586090336338415 0 0 0
387 2 8.335191875900133 5.587257736305609 15.000203493918923 0 0 0
454 1 2.0493038410058797 7.917071130135696 11.730073382583555 0 0 0
456 2 2.1882245731057055 8.697777064506539 12.353153889565133 0 0 0
460 1 6.137608741392812 7.189778596312292 12.27921546560864 0 0 0
461 2 6.017213113439431 6.19377074422864 12.474068488917096 0 0 0
462 2 7.081382302424337 7.37075354564729 12.200088825639254 0 0 0
490 1 8.830344553565437 7.107979998591439 12.297801699683902 0 0 0
491 2 8.686233330270468 6.357493603147846 12.906444454256931 0 0 0
649 1 2.8695145831765103 3.1440256465173864 13.753494351916679 0 0 0
650 2 3.830187618075165 3.03274036070116 14.041754735953889 0 0 0
651 2 2.3574614252473487 2.7540009766451026 14.472925737078349 0 0 0
652 1 4.3708760236348105 1.481991862821233 17.03980789742288 0 0 0
653 2 4.460162056192073 2.48008182427185 16.981295863404394 0 0 0
654 2 4.931918331657366 1.0915421850553273 17.75372275407962 0 0 0
655 1 5.917536496531659 4.563497549462694 19.504466810417085 0 0 0
657 2 6.657280037507342 4.399067472229818 18.885263723998733 0 0 0
658 1 1.4282916142618634 4.3823963146634775 17.2382525391312 0 0 0
659 2 1.1866687958426616 3.435293280092435 16.900060197610372 0 0 0
660 2 1.2624667321502736 4.940745495778434 16.448729767284213 0 0 0
661 1 4.978308179184429 5.831874614902702 15.521523570513585 0 0 0
662 2 4.642968928444307 5.1288434377421845 16.1686957979723 0 0 0
663 2 4.450651433397034 5.803023504492786 14.665313733559382 0 0 0
664 1 4.253898310749664 4.227843283007381 17.297688788113213 0 0 0
665 2 3.2354517521726938 4.420579431805368 17.321635940205354 0 0 0
666 2 4.571416338052263 4.457503821161778 18.176111768679874 0 0 0
669 2 1.5988345990455657 6.144653831861387 14.712831811960767 0 0 0
671 2 2.1992153927640765 1.7689922425245361 19.39066996180072 0 0 0
682 1 5.651477100643044 2.5758687919324412 14.37259361580972 0 0 0
683 2 5.78292758110391 3.3496339243613735 13.736290144424009 0 0 0
684 2 5.794792687108142 1.7824940847492499 13.778560642950575 0 0 0
694 1 8.166187711539886 4.092028519510102 17.821458681144147 0 0 0
695 2 9.051058644972006 4.156309891538082 18.14928839577484 0 0 0
696 2 8.188085684341047 3.264987028388611 17.328171703040823 0 0 0
703 1 7.480219493726208 6.328397062115138 16.255147277453737 0 0 0
704 2 7.680224868830183 5.709749372911187 16.98775813466611 0 0 0
705 2 6.635412398060122 6.0056368417486174 15.879310308091654 0 0 0
715 1 7.7045964259330715 2.0833737169561197 16.133018093865033 0 0 0
716 2 6.837352391193079 2.240289821513313 15.709691074353515 0 0 0
717 2 8.330907810678951 2.3080993876012688 15.41118888366095 0 0 0
760 1 4.389473673760315 7.799543560462277 17.3480437092198 0 0 0
761 2 4.602358274553955 7.144571111268163 16.704132086722055 0 0 0
762 2 5.050491863991806 7.670386647625481 18.111556585329353 0 0 0
778 1 2.152219041219229 7.652174063810681 19.05548487303318 0 0 0
779 2 2.8879955303303717 7.622287887445153 18.381544933480424 0 0 0
780 2 2.278133239734272 6.819879825270636 19.560319577858554 0 0 0
784 1 6.065783358063806 7.511996105710317 19.250580579496848 0 0 0
786 2 7.02871756190501 7.75128809091706 19.081346578744967 0 0 0
791 2 5.6418771883501 8.273112652951008 13.571235416477172 0 0 0
825 2 6.607531981489451 8.95766783637944 15.373063253282552 0 0 0
814 1 8.79711472944785 7.492921068539738 19.10926796262758 0 0 0
815 2 9.046717991801245 8.15636647580846 19.686511730024627 0 0 0
816 2 8.86082632631321 6.626007157590682 19.587005374342745 0 0 0
823 1 7.433546640575302 9.00550924163314 15.87722639701586 0 0 0
824 2 7.390297628970346 8.082735576415306 16.288651191428038 0 0 0
353 2 6.984071996662237 0.5817893318894324 12.216993549189763 0 0 0
920 2 7.877633170546947 0.27014262035709125 15.660199580935362 0 0 0
795 2 8.709061643786292 9.05682483522174 14.664320127358666 0 0 0
678 2 6.964340680825998 0.9771551309920439 18.84892317008953 0 0 0
773 2 4.337693741596157 9.480542221345079 17.074058937367358 0 0 0
382 1 8.731580752412963 0.6060986424149486 11.887307076326877 0 0 0
492 2 9.26416033327824 7.887581593406598 12.792182209266231 0 0 0
792 2 5.677083363900179 9.801255418384576 13.512724848976779 0 0 0
802 1 8.117448756512058 11.042325332316613 17.767241432497226 0 0 0
789 2 1.7447085741228308 9.004354845575682 14.892215586424852 0 0 0
674 2 2.740777137658909 4.587048577998173 20.720420197438084 0 0 0
676 1 6.034877416432181 0.8945141194032196 19.184982283629473 0 0 0
858 2 0.48949978081374457 7.765658918144782 19.341353306330216 0 0 0
670 1 2.0885513296648717 1.140190431466726 18.699212468314986 0 0 0
879 2 4.75312853756 0.39134138131919805 15.953965535186253 0 0 0
252 2 5.3958948886834515 16.50248681577854 20.570327521636496 0 0 0
39 2 9.061236590476263 1.9579984399198882 19.768319464809146 0 0 0
426 2 0.4773721001537551 0.9357906655002066 11.869584494189986 0 0 0
557 2 4.054178775736084 16.52891293201898 10.43932603487776 0 0 0
550 1 1.006771041713828 17.73188464075249 10.890751713899878 0 0 0
546 2 4.669879392751183 14.634554532729718 10.792486176478311 0 0 0
336 2 0.7290233502168851 4.281050976641193 11.11295175087995 0 0 0
685 1 9.20617934372855 2.4146639792234117 14.033372296548956 0 0 0
681 2 0.8694217663287606 1.2324537767852304 15.337950713872797 0 0 0
533 2 0.2538744628500025 7.637794918817366 11.791404312623325 0 0 0
758 2 3.573445976322262 9.497432977980928 13.727845029472299 0 0 0
384 2 9.568678180231052 0.8288643731345027 11.328821059862577 0 0 0
587 2 8.766628170405475 17.31269139909744 10.87232199225133 0 0 0
679 1 0.9505906137796366 2.2211546732036567 15.477132925455674 0 0 0
474 2 9.892902335577931 7.382937220244689 11.071348899608273 0 0 0
687 2 9.188246236142684 1.9017007834196857 13.22087833435807 0 0 0
766 1 1.4471286812838802 10.789455757014917 17.51430772770622 0 0 0
790 1 5.254132417472258 9.068284719917486 13.95537869466505 0 0 0
218 2 3.3499543035927695 15.68438123965414 20.68172180131815 0 0 -1
352 1 6.097154584686657 0.6316258696258108 12.59543374737972 0 0 0
706 1 8.71194563146465 0.7542989861550549 18.65225657605315 0 0 0
757 1 2.6620003790548243 9.7616590750488 13.54282310612946 0 0 0
455 2 2.8205968402576347 7.933026012996635 11.069171592706237 0 0 0
385 1 8.923011391478168 5.23398891451246 14.326972847067504 0 0 0
782 2 2.669755251805082 11.616952925938953 19.827124898391695 0 0 0
330 2 4.927472440278156 0.9748580598241772 11.335588716895447 0 0 0
897 2 0.8402699356756879 16.221101427287575 16.411293818057874 0 0 0
346 1 2.2206234273340355 1.0995630942873724 12.144223578974055 0 0 0
370 1 8.18525565012543 4.359193928198255 10.931681111867467 0 0 0
672 2 2.716259029430249 1.285464989337698 17.964550330287054 0 0 0
478 1 8.030881867095259 10.669371295996626 11.087233854943893 0 0 0
901 1 9.045106269330036 15.442729664038524 14.315365734336478 0 0 0
794 2 9.40390613382663 9.929350309516726 13.645703089142227 0 0 0
347 2 2.8082568885166386 1.0446396441379941 11.359044083287566 0 0 0
889 1 2.503979835078704 18.851746180653308 20.280206585988054 0 0 0
602 2 9.616066163443884 18.547520725574095 14.005810610583488 0 0 0
219 2 2.4345046593351687 16.84512610066926 20.388240108387073 0 0 -1
708 2 8.685234927090846 19.731021217901773 19.078945733581996 0 -1 0
677 2 5.900333530768542 1.5735427769913322 19.88571524144289 0 0 0
386 2 8.665113940401612 4.3535085568580785 13.982519306324232 0 0 0
383 2 8.579852683102786 19.575950090483467 12.37663349864445 0 -1 0
876 2 0.4596106844498193 17.676097677669762 18.116143937684694 0 0 0
217 1 2.4349899701852493 15.899872628297826 20.571041117848782 0 0 -1
793 1 9.37861276990943 8.998428770296563 13.930574921593822 0 0 0
341 2 3.06158384512316 4.115356705524278 10.77995915025653 0 0 0
804 2 7.58012515605598 10.25138023526138 17.54737232088224 0 0 0
902 2 9.053670421624268 16.291110415084425 13.843575477232811 0 0 0
781 1 2.4766492699230844 12.436884699789193 20.28237681527653 0 0 0
600 2 8.910095947397572 14.426927189153801 12.803706230452233 0 0 0
711 2 9.148667937544756 4.3289060797920795 20.38305993349035 0 0 -1
905 2 9.850962553528847 14.050707124289238 17.609694007854262 0 0 0
1 1 2.837982932608157 2.8979794668992227 20.73031072370188 0 0 -1
599 2 9.307657425469102 14.257297572497814 11.281041889206685 0 0 0
144 2 5.872803546837657 10.024916700594133 20.475369458085897 0 0 0
775 1 0.7276286733807447 12.773876167010798 15.776421116645158 0 0 0
919 1 7.300258246333749 19.121695417518392 15.45555318327645 0 0 0
551 2 0.31418548017754777 17.792026562610086 11.572116029470065 0 0 0
785 2 5.937810355139039 8.005399396685664 20.09115924348338 0 0 0
759 2 2.5873459480685717 10.666803292164715 13.292095516683737 0 0 0
668 2 0.918298494905785 7.298969141246788 15.59955457067882 0 0 0
586 1 7.9062330241293965 17.42654280247077 10.562116577545574 0 0 0
493 1 9.287267030865017 11.807114078445982 13.824478549083294 0 0 0
885 2 0.8055408213634325 18.8222653336994 16.078762573158844 0 0 0
932 2 7.1518984025476975 15.756418633753915 16.784532885405266 0 0 0
933 2 7.822938579193967 15.450282881448372 15.42139654075084 0 0 0
371 2 9.147718621035851 4.076833011558079 10.659804777346197 0 0 0
439 1 6.014682116064117 11.468253385917901 12.647897902759034 0 0 0
440 2 5.89484007351664 12.423234188665718 12.851139828348407 0 0 0
441 2 5.373879928848042 11.32091671292481 11.886114959871977 0 0 0
457 1 2.595169989074579 12.550055885860846 13.63562686233199 0 0 0
458 2 3.440180565796447 12.738355141416546 14.043218144470778 0 0 0
459 2 1.9306556918751894 12.648960414435653 14.380778336531542 0 0 0
494 2 8.521499706756256 12.173539644315614 14.305730455809124 0 0 0
931 1 7.039652363449486 15.219622897506449 16.001222407240327 0 0 0
547 1 6.076341584989441 17.75476667036805 12.394439109711483 0 0 0
548 2 5.414894909030251 17.766264668836513 11.629349972903576 0 0 0
549 2 5.722140121906847 17.09038744133208 13.10846369052471 0 0 0
562 1 1.7209089909667017 14.599212210226742 12.051778973475571 0 0 0
564 2 2.00212457532347 13.883386835121462 12.705452418154525 0 0 0
565 1 2.647625424122786 18.92984654451841 13.729643860303545 0 0 0
567 2 3.4526234085094374 19.08311257845165 14.330532624645134 0 0 0
568 1 5.942301617305341 14.245052488803513 11.887723741162949 0 0 0
569 2 6.900561437797273 14.018865303732666 11.834424972620798 0 0 0
570 2 5.798524100005594 14.739377715156369 12.686628480889206 0 0 0
588 2 7.374523710803376 17.529322237312 11.41032679345749 0 0 0
598 1 8.894245007147443 13.813067173136329 12.0572889498945 0 0 0
763 1 5.814873566113258 11.176631869493725 19.173221864803068 0 0 0
764 2 5.262998205605641 10.940519055120102 18.389647444205874 0 0 0
890 2 2.3199896565078157 19.54271214418001 19.65406488928979 0 0 0
768 2 1.1075662997993934 11.601602813837964 16.96252539537819 0 0 0
769 1 4.751649003704974 12.63878701782229 15.381590124823123 0 0 0
770 2 4.455328440945532 13.48898851452019 15.84051305057488 0 0 0
771 2 4.585519964261947 11.860098459875092 15.953080581780942 0 0 0
924 2 7.790579890265443 14.293109724842461 18.486099451384412 0 0 0
783 2 2.279879592739674 13.098903021587343 19.58279049535775 0 0 0
803 2 7.841482010205556 11.656547374690092 17.02964099697958 0 0 0
811 1 7.480618240106682 12.551663084880193 15.703680161741978 0 0 0
812 2 6.512004254539339 12.322839354767249 15.529229322440628 0 0 0
813 2 7.586341602646029 13.489778310151388 15.800313287742 0 0 0
911 2 8.80605814070768 17.25170612893141 17.68105911074502 0 0 0
765 2 6.744949985632939 11.265207810335516 18.76586244558836 0 0 0
865 1 2.6307971091772258 16.25487752008802 13.804802665094034 0 0 0
866 2 2.4961413566872914 17.241126156100993 13.678426757810604 0 0 0
867 2 2.2704665227183525 15.818531292846025 12.970666784172385 0 0 0
868 1 3.787079578198597 14.692858416080028 16.906469634737885 0 0 0
869 2 4.34917223230413 14.549709344327729 17.65063374533769 0 0 0
870 2 2.858677428612877 14.571736758841773 17.25645027450436 0 0 0
871 1 5.843549410264664 17.854129906470558 19.419219816710804 0 0 0
787 1 1.0805565476048544 8.785272949153045 15.626554753969819 0 0 0
873 2 6.6965899431470115 17.79309650270251 18.985409908665776 0 0 0
874 1 0.9963326850880249 17.77157871228961 17.302501378842344 0 0 0
875 2 1.939444136057039 17.548136953811113 17.50754344175725 0 0 0
878 2 4.255367536797711 18.60521685215367 16.22958390637914 0 0 0
880 1 3.836725928784217 17.37696880687478 17.296287892359036 0 0 0
881 2 3.9276568721722915 16.397442658139937 17.033281756109922 0 0 0
882 2 4.50952940934733 17.4020423526804 18.026094874969285 0 0 0
886 1 1.500980533993527 14.337700244973469 18.435355547758626 0 0 0
887 2 1.7118909473398385 15.079687239862729 19.01134557837524 0 0 0
888 2 0.49181673544323634 14.303281882677286 18.47200752208202 0 0 0
892 1 5.722175793875714 14.031384357503539 18.564385290621058 0 0 0
893 2 5.715133995471721 14.724720139494782 19.215610010089634 0 0 0
894 2 5.552414307350694 13.230073862683941 19.135421124288968 0 0 0
896 2 1.5366088068738954 15.74470061287567 15.054553346285015 0 0 0
898 1 5.185828986422023 15.57996229043713 14.18769089652093 0 0 0
899 2 5.585903685122317 15.50937332203829 15.072346068486045 0 0 0
900 2 4.199628707553336 15.83935125349978 14.248438185854095 0 0 0