LAMMPS data file via write_data, version 15 Apr 2020, timestep = 0

2016 atoms
2 atom types

0.0000000000000000e+00 1.8285310134400000e+01 xlo xhi
-2.0697882364250439e+00 4.6540722242409721e+01 ylo yhi
0.0000000000000000e+00 1.8979055948900001e+01 zlo zhi
-2.2435782160812323e-04 -6.8019904549699994e+00 -3.5620835569432074e-03 xy xz yz

Masses

1 16
2 2

Atoms # atomic

498 2 1.4467282148419894e+01 9.3452919846813431e-01 6.4864058444938193e+00 -3 0 2
716 2 4.6527808115350471e+00 1.5069338965470913e+00 1.6028602375365626e+01 1 0 4
400 1 4.3709124201206837e+00 6.0215286112194431e+00 7.1199602750559632e-01 3 0 3
326 2 1.5636054912471511e+01 5.1947532125900784e+00 5.3434822233850872e+00 1 0 3
520 1 1.1977019303082850e+01 4.5549818462064069e+00 1.4184999051980096e+01 0 0 -1
305 2 8.8191058047221809e+00 -1.0168652107207343e+00 3.4974706414447403e+00 1 0 1
101 2 1.6128378900666822e+00 6.1286388320415561e+00 5.1196286104621480e+00 2 0 2
647 2 -1.3143916860142850e+00 -9.0473290928644268e-01 1.0195973184559666e+01 -2 0 2
600 2 3.9125809781387995e+00 2.8987319825604425e+00 1.3497271671930946e+00 -1 0 4
828 2 9.5897320805537252e+00 6.8272250651082000e+00 2.2201502117552465e+00 0 0 4
257 2 -5.1494686012060082e+00 9.5276959827686714e+00 1.4635487564713706e+01 3 0 2
403 1 -6.2711109969207579e-01 -9.2551453901642233e-01 2.7741996379368699e+00 1 0 0
89 2 9.6543542976951517e+00 -7.4433844379216185e-01 1.3636294798245331e+01 -4 0 -1
228 2 7.7569591615159110e+00 2.4305730802877967e+00 1.1230826354543856e+01 1 0 0
879 2 8.5950885804278343e+00 2.9695116163193713e+00 1.6337971431526320e+01 0 0 2
226 1 7.2765296962034496e+00 1.5858411140489106e+00 1.1367026341847360e+01 1 0 0
52 1 6.3083058861064947e+00 4.3013341477646572e-01 1.7825274477970403e+00 1 0 4
16 1 7.3658132406253234e+00 -1.4930934672930753e+00 6.9204597699970778e+00 0 0 3
31 1 9.5822271301644886e+00 -3.8063291031773394e-01 1.8361608868566839e-01 1 0 0
68 2 1.2087597795497789e+01 -6.9761197257439922e-01 1.6542885192498609e+01 0 0 3
324 2 1.1213576542245171e+01 9.8613478715526188e+00 7.7427742391901777e+00 2 0 3
355 1 -4.7984151074417571e+00 -1.5702983905189998e+00 1.6042854566433952e+01 -1 0 1
191 2 1.0733262875688528e+01 7.7728558640153960e+00 7.5368050956966428e+00 1 0 -1
759 2 7.3471905852729158e+00 4.8430544264621709e+00 4.5162476430672633e+00 -5 0 -1
318 2 1.0696444398341555e+01 6.5412491132995871e+00 1.2069030998106943e+01 1 0 -2
638 2 4.3648567325418846e+00 1.2425250886158956e-01 1.8710379802660370e+01 2 0 3
545 2 7.1716400524223101e-01 -1.2574674998813640e+00 6.0788749774990238e+00 0 0 2
568 1 6.2120137789622998e+00 9.3560993960308236e-01 1.4975913717774597e+01 -1 0 -2
683 2 4.2930190920877944e+00 -1.0303525727526055e+00 1.4044231362613315e+01 3 0 -1
941 2 1.3778311735296445e+01 6.6439354974848044e+00 1.1201656803958427e+01 2 0 5
105 2 1.1323370267202062e+01 -1.8287303674244522e+00 2.2863120379085342e+00 0 0 2
327 2 1.4842877729232136e+01 4.2023806719236960e+00 4.5011384966333079e+00 1 0 3
827 2 8.0167233682553753e+00 6.7679601435021688e+00 2.0020837610768805e+00 0 0 4
637 1 5.1433018739949166e+00 9.5689766255664388e-02 1.8107201224637663e+01 2 0 3
467 2 5.7522132914756838e+00 7.1542373763586351e+00 1.4503255514467082e+00 4 0 2
570 2 6.5968641197323157e+00 2.4629230054637530e-01 1.5533608704533695e+01 -1 0 -2
422 2 -2.8020456716326705e+00 8.0565312509609814e+00 1.4542625209896503e+01 -5 0 -3
715 1 3.8225395437094045e+00 1.9764432291411165e+00 1.5924428443416037e+01 1 0 4
321 2 1.1048853020428590e+01 -6.4549210463175766e-01 4.1782971625830649e+00 -1 0 1
217 1 1.1450836478722415e+01 -1.6161233692864261e+00 7.6762770835668306e+00 -1 0 3
693 2 3.8119030090121249e+00 3.2336303349557971e+00 1.1028245862528788e+01 -1 0 1
227 2 7.7204216004611661e+00 1.1138539272617569e+00 1.2082725116728415e+01 1 0 0
639 2 5.4883441966519415e+00 9.7140933067747737e-01 1.8034113046507944e+01 1 0 3
267 2 8.7225777961321693e-01 4.9660329315557066e+00 1.0871687571887295e+01 1 0 0
500 2 -2.4175268817732221e-01 4.6533124309604723e+00 7.4303945420631923e+00 -1 0 2
954 2 3.0397480970231783e+00 7.5976822187726096e+00 1.5929871361800773e+01 -1 0 3
1535 2 -1.0312349764276685e+00 8.8467907194512474e+00 6.6389766218853774e+00 -2 1 3
80 2 -4.1843008267875614e+00 8.9394491833817451e+00 1.2739451354911406e+01 -1 0 0
220 1 -2.1613149413974968e+00 2.8285230500659830e-01 1.2487350996595369e+01 2 0 0
964 1 1.2279382493088127e+01 6.1628473907975003e+00 4.8600194970234467e+00 0 0 4
65 2 6.0857229129597687e+00 7.5431091030648645e-01 1.0507000612565326e+01 -2 0 2
810 2 -4.6653943241460762e+00 4.0623864549844901e+00 1.4229099127804824e+01 1 0 1
436 1 8.7139069068416375e-01 4.3319551351599808e+00 4.6354999427885186e+00 0 0 4
151 1 6.7363949207506710e+00 7.9495394464409763e+00 9.9442853267149136e+00 2 0 1
651 2 -1.5057915196211829e+00 -9.3344310571031475e-01 6.3250854503269531e+00 0 0 -3
707 2 4.3166056951264036e+00 5.2697453091435280e+00 1.8320232162075225e+01 2 0 3
556 1 1.1446429904594012e+01 8.5632163536548358e+00 4.7034061298080028e+00 1 0 7
769 1 -9.3645004792423947e-01 2.4433571588063359e+00 1.7767767775891400e+01 2 0 4
989 2 1.2134822935460225e+01 4.6733387509359190e+00 1.0960722319814149e+01 3 0 2
1533 2 4.3210237330658181e+00 8.9175132122818752e+00 1.4509517787091049e+01 0 0 0
524 2 4.3737090008795558e+00 6.8852499923189399e+00 7.2360999016027066e+00 0 0 1
646 1 -1.3467061945982230e+00 -8.2537389573783093e-02 9.6415228102415309e+00 -2 0 2
183 2 7.0183496598076776e+00 2.4649539439952104e+00 1.8124501540634778e+01 1 0 4
282 2 8.5631354374048207e+00 8.2769563884014925e+00 1.7313675163343827e+01 -1 0 1
88 1 9.1644405953269299e+00 -1.8866495268081707e-02 1.3204898565062368e+01 -4 0 -1
749 2 1.9546046549927967e+00 2.6947158880063338e+00 1.8886127445415685e+01 0 0 1
700 1 4.1168307031453377e+00 3.8393690856268528e+00 1.3999141616983284e+01 3 0 2
1531 1 4.5687103696634228e+00 8.5349585723919290e+00 1.5410585861130222e+01 0 0 0
192 2 1.0879412957401163e+01 8.5087238825560298e+00 6.1925470931276800e+00 1 0 -1
853 1 -2.1399269536082763e+00 -1.9559053532438193e+00 1.5526948888962856e+01 1 0 0
478 1 -4.1389797032512003e+00 9.1300661407623096e+00 1.7470302175036078e+01 4 0 2
69 2 1.0836948798332077e+01 -7.8845692858067307e-01 1.7556607984597012e+01 0 0 3
723 2 -1.6527784715191327e+00 3.7442288662278651e+00 8.3003454170362794e+00 4 0 4
705 2 1.5065060325320506e+01 -1.9979637507724461e+00 7.6319664291612801e+00 -2 0 1
33 2 9.1807709629901435e+00 3.7862848733448873e-01 6.6997835781887627e-01 1 0 0
421 1 -2.3140680485897605e+00 7.4961300215583400e+00 1.5170168684074509e+01 -5 0 -3
168 2 -2.2697043627939242e+00 6.4995677768625759e-01 8.2609661183047738e+00 2 0 2
110 2 -3.7573423224535141e+00 2.6427872268015600e+00 1.0940572547647147e+01 -3 0 3
703 1 -2.3499914804519486e+00 -2.0433847193283827e+00 7.3261191446522282e+00 -1 0 1
273 2 -5.6148964139292437e+00 2.2893546022906319e-01 1.8904354944008450e+01 -2 0 0
523 1 4.5136435151179732e+00 6.4177382530580012e+00 6.3737778658682354e+00 0 0 1
440 2 5.7350649085882202e+00 7.3811517112719010e+00 1.5671008579114636e+01 3 0 2
269 2 7.1914702506797301e-01 9.1056797362918616e+00 8.5489043524765833e+00 2 0 1
423 2 -2.1564037066692743e+00 6.7110315132865228e+00 1.4621128511353183e+01 -5 0 -3
152 2 7.0492333300458974e+00 8.2820030678724912e+00 9.0493354833261339e+00 2 0 1
351 2 7.0103060571162086e+00 2.6140390999711727e+00 4.2865273348519874e+00 0 0 3
360 2 8.3772141105381461e+00 3.0318758073866734e+00 1.3855318902389490e+01 -1 0 0
591 2 4.3527854399483523e-01 -3.5242599482050441e-02 1.5740509024413285e+01 -3 0 -1
153 2 5.7521674771462390e+00 7.9464088932518546e+00 9.6913145585041498e+00 1 0 1
471 2 1.2339981724414784e+01 -1.0924624244190948e+00 1.3493834466184262e+01 -3 0 1
743 2 1.5314253485526814e+00 9.6957903204583973e-01 1.2780078858312740e+01 1 0 -1
253 1 2.1849700522938438e+00 5.6958283979954167e+00 1.3709419245390364e+01 1 0 1
615 2 1.1019219496877906e+01 8.2317181138077959e+00 3.0450443318560256e+00 -1 0 3
205 1 6.8332624312068084e+00 7.5647388607981245e+00 5.6437861456645413e+00 -2 0 1
163 1 6.4157284606940470e+00 5.2362731921534813e+00 1.3579470645975722e+01 -3 0 0
660 2 2.0092628903000267e+00 9.1157647322630453e+00 1.0383435018888628e+01 1 0 0
231 2 1.4335514701737084e+01 8.8207114455921776e+00 7.0845755746208878e+00 1 0 2
181 1 6.1435263811689111e+00 2.5436417693903310e+00 1.8539334629094174e+01 1 0 3
996 2 1.3997341996347044e+01 -8.0807034544945489e-01 9.4834859552958406e+00 2 0 2
942 2 1.3988211310176878e+01 5.7569752903259745e+00 9.8791172446650286e+00 2 0 5
490 1 -2.2595854139002300e+00 5.5869900901324501e+00 1.3066850746982933e+01 1 0 3
252 2 8.8349627540636675e+00 9.4673236098657965e-01 1.6617423182639293e+01 2 0 4
469 1 1.3158085218067360e+01 -7.7100456530500727e-01 1.3101817665355366e+01 -2 0 1
55 1 6.7818193320950968e+00 5.5610305961275133e+00 1.1000427492103046e+01 1 0 1
614 2 1.0365099843687400e+01 8.8944574473950588e+00 1.7200244086608483e+00 -1 0 3
464 2 6.6378516327066439e-01 8.0201327072968471e+00 1.6372343967800187e+01 2 0 0
407 2 1.2037283224273299e+01 1.2561461589901612e+00 6.0457704302511175e+00 -2 0 2
526 1 -1.6491816791638290e+00 8.3734387165843245e+00 6.0262941813073132e+00 -2 0 3
680 2 -9.2453354237664964e-01 4.6182878954054551e+00 1.5529894320378661e+01 2 0 3
818 2 1.2023030104885400e+01 1.5885468566698386e+00 1.7200195513365323e+01 -1 0 -2
845 2 -1.1182935918071957e-01 2.7110967905909860e+00 1.0736992618560281e+01 0 0 1
109 1 -3.0916954949375395e+00 3.3717955791188752e+00 1.0778068606880661e+01 -3 0 3
12 2 9.0982888931753507e+00 5.8901805272696546e+00 3.1606372641071484e-01 -1 0 -3
219 2 1.2221425831317267e+01 -1.3196930120150849e+00 8.1946961668073204e+00 -1 0 3
766 1 1.1452359915561166e+01 9.3776642269525601e-01 1.1296002047450811e+01 -2 0 1
521 2 1.1650302908622088e+01 5.4537652014963314e+00 1.3817403462503592e+01 0 0 -1
479 2 -4.7863849637102955e+00 9.3935222250435952e+00 1.6768370446300697e+01 4 0 2
63 2 1.0512630425988283e+01 2.6716056680369089e+00 1.2240814084228701e+01 1 0 3
1 1 6.9159999102307523e-01 6.5211062149313221e+00 1.1509674804003183e+01 1 0 0
487 1 9.0983580099393357e+00 3.2969763044814293e-01 8.4180449895495535e+00 -5 0 -5
650 2 -1.2452949249846816e+00 4.9451275834057862e-01 5.6270985929162789e+00 0 0 -3
325 1 1.4781379970700220e+01 5.1142771117617771e+00 4.8456963742135217e+00 1 0 3
480 2 -4.0373972184545011e+00 8.1954081941048482e+00 1.7431684552558572e+01 4 0 2
580 1 1.5174488914469467e+01 6.7421191923793664e+00 2.6319840685294089e+00 -2 0 3
501 2 5.4147048934750863e-01 4.1563000936000245e+00 8.7342092494463905e+00 -1 0 2
111 2 -3.5553057312696481e+00 4.1800561828838605e+00 1.1006551737299706e+01 -3 0 3
15 2 2.6182746383337445e+00 -5.9861383852327776e-01 6.1103773571040589e+00 2 0 1
311 2 1.1797606256864194e+01 5.7174866327010454e+00 8.1270291570278381e+00 0 0 3
734 2 2.5334924582475908e+00 -1.5528177672690497e+00 1.6241561322318503e+00 1 0 4
736 1 1.4691965873222559e+01 2.6433962077901576e+00 3.6010353705328382e+00 -2 0 1
780 2 2.7400942527894694e+00 -8.3579764161024439e-01 1.5650294545470896e+01 -1 0 2
958 1 -1.3937877014317053e+00 8.7077580768138354e+00 1.2227698256409861e+01 4 0 4
1585 1 1.5694508595533494e+01 7.5530169580888851e-01 2.0192040076027427e+00 -1 0 1
439 1 6.4056522485046639e+00 6.6919330925423708e+00 1.5785041065083819e+01 3 0 2
682 1 4.4946951928402274e+00 -5.0970582632352013e-01 1.3229487750503164e+01 3 0 -1
259 1 -7.7165705449023569e-02 4.4193961437973117e+00 1.4093364825794943e+01 -4 0 1
373 1 9.3879023921960822e+00 2.0914560275078609e+00 1.5365890807483693e+00 1 0 1
581 2 1.4875704281886616e+01 6.3486365831224560e+00 3.4394859703494713e+00 -2 0 3
92 2 2.0078943573608758e+00 8.7097980271946316e+00 4.8438283423579920e+00 5 0 1
3 2 1.2604768149166663e+00 6.4578707035284619e+00 1.2273754030839383e+01 1 0 0
290 2 1.1687810660753792e+01 5.9203568927258168e+00 1.7529575545685688e+01 0 0 0
84 2 1.4639369617730566e+01 -3.2115038552713715e-01 9.0897843289859992e-01 0 0 -1
79 1 -3.7206803278789238e+00 9.2909989563644366e+00 1.3506550349271851e+01 -1 0 0
767 2 1.2209971207516048e+01 3.1675936816198824e-01 1.1491927687913931e+01 -2 0 1
1998 2 1.1819715218120546e+01 3.3568718853230344e+00 1.0284381822702562e+01 3 0 2
182 2 5.9217620677203104e+00 3.5279350077750138e+00 1.8322370677818949e+01 1 0 3
164 2 6.9577002956458562e+00 4.4669028632202856e+00 1.3827227482415775e+01 -3 0 0
320 2 1.0182365924279646e+01 -1.5944854383366396e+00 4.8978348054396497e+00 0 0 1
757 1 8.1711288691399844e+00 5.3441628346836456e+00 4.6297153674776235e+00 -5 0 -1
484 1 2.4065405206964714e+00 6.8405576944109523e+00 2.1574964868175805e+00 1 0 3
807 2 -5.3829713493561488e+00 8.9001709427863638e+00 1.8765586096991417e+01 7 0 5
310 1 1.0883548414440373e+01 6.0934860550267658e+00 8.0225756536209953e+00 0 0 3
240 2 1.2485025805552455e+01 7.6706304371897200e+00 1.2278693612291191e+01 -1 0 1
674 2 5.8222470615663973e+00 2.7114031542483525e+00 9.8913710721557280e+00 0 0 2
895 1 -3.6423721508650764e+00 6.4639134554579485e+00 1.7361908225068756e+01 1 0 3
86 2 1.0143390401175877e+01 6.0865487935693299e+00 9.8095139885993223e+00 3 0 4
411 2 8.8561949204522534e+00 9.0714378325694849e+00 7.3287051128800673e+00 -3 0 3
93 2 1.2827953954446811e+00 9.6957519659392766e+00 3.8407802217061033e+00 5 0 1
304 1 8.0398381092325479e+00 -1.3139075482280269e+00 2.9976559663686975e+00 1 0 1
312 2 1.0420375875950262e+01 5.3926361033490799e+00 7.4660664510872587e+00 0 0 3
263 2 9.2139631431420526e+00 3.3621059820033166e+00 7.3476982453821726e+00 0 0 1
349 1 7.2124550163627275e+00 2.6661288343458285e+00 3.3141005341552936e+00 0 0 2
474 2 -3.6091095131726454e+00 6.1063360973779313e-01 1.6512295040737790e+01 2 0 4
50 2 1.1547677422379801e+01 1.9297884567543004e+00 8.0300588299225932e+00 1 0 3
341 2 6.3160173805254054e+00 9.9223083685370170e+00 1.7569548916644468e+01 0 0 -1
165 2 6.3866892983707881e+00 5.4229881183112809e+00 1.2559868616023740e+01 -3 0 0
222 2 -2.0817517971498520e+00 -6.6525738291056502e-01 1.2510804334846162e+01 2 0 0
406 1 1.1046056469919900e+01 1.5029848478056453e+00 6.1082706818244752e+00 -2 0 2
493 1 7.1584071533714067e-01 -2.0119751359509626e+00 1.8012726815957482e+01 0 0 1
359 2 7.2738505025487568e+00 2.4515585941759399e+00 1.4689976579181987e+01 -1 0 0
256 1 1.2677238961079988e+01 9.9501954470954495e+00 1.5457219903396778e+01 2 0 2
206 2 6.0836787262978742e+00 7.0797988119768398e+00 5.9648406478871125e+00 -2 0 1
742 1 2.0664259550281390e+00 4.4759865205767335e-01 1.2077750946307123e+01 1 0 -1
673 1 5.6328651383048847e+00 3.6301631965367278e+00 9.8781176488907505e+00 0 0 2
238 1 1.3107818413070365e+01 8.1537717446389415e+00 1.1704788139773699e+01 -1 0 1
507 2 -3.8203920665922162e+00 1.7944161174638631e+00 1.4498651670187822e+01 0 0 0
276 2 1.5437398916089782e+00 2.5226647559945174e+00 7.0427198457732203e+00 -2 0 0
268 1 -5.6549518889449590e-02 9.5565104347477767e+00 8.0799474454771882e+00 2 0 1
585 2 1.1281659192490048e+01 9.0890930635541540e+00 1.5307607310157849e+01 0 0 2
64 1 5.3384079312158441e+00 7.7536850699628124e-01 9.8411118553482098e+00 -2 0 2
952 1 2.1797873503091978e+00 7.1858162281318947e+00 1.6009518405870043e+01 -1 0 3
562 1 7.2145304380118276e+00 9.1196126055299676e+00 1.8612446941853186e+01 -2 0 0
138 2 4.4977898511789416e+00 8.8497035493155956e+00 8.4849079903649169e+00 -2 0 2
658 1 1.9341079223492499e+00 8.3868144283356862e+00 9.7524510266534925e+00 1 0 0
2 2 -1.1620446169114551e-01 7.1267601177543174e+00 1.1694777851678163e+01 1 0 0
744 2 2.7989276204653146e+00 3.0410365690091812e-02 1.2626969488929275e+01 1 0 -1
875 2 1.3073711782056556e+01 2.4549572890978579e+00 2.6663717018614088e+00 -2 0 4
281 2 7.9164527509878688e+00 7.1310332109963230e+00 1.6440092285623233e+01 -1 0 1
438 2 1.3195537246209741e+00 3.6634394838572808e+00 5.3012605936064450e+00 0 0 4
1003 1 1.3655449551714625e+01 5.5004281862701045e+00 8.1442994421228825e+00 3 0 0
738 2 1.5199970864331252e+01 1.9897055148062037e+00 3.1085980559706252e+00 -2 0 1
57 2 6.2416069155228548e+00 4.9167916325452055e+00 1.0492602152270239e+01 1 0 1
492 2 -2.1793241423115668e+00 6.1230145135359457e+00 1.2245364293065409e+01 1 0 3
877 1 8.5699151046860251e+00 2.5357273817867467e+00 1.7217710210378254e+01 0 0 2
953 2 2.2087596814760877e+00 6.7288298727432920e+00 1.6850496021178508e+01 -1 0 3
876 2 1.2537782380954241e+01 2.3642758710284095e+00 1.2362386386727584e+00 -2 0 5
758 2 8.3656412471419941e+00 5.5488909403751441e+00 3.7324301322990108e+00 -5 0 -1
242 2 1.2280066306517462e+01 5.0065985235517507e-01 2.4433219786200007e+00 1 0 0
54 2 6.9820449397637070e+00 -2.1098993556491941e-01 2.1888626550018873e+00 1 0 4
203 2 1.2756878224384650e+01 6.2732790952409463e+00 3.9185785919036392e-01 -1 0 5
463 1 -1.4763529668406150e-01 8.5623567028325684e+00 1.6401286636718794e+01 2 0 0
648 2 -1.1633371715460039e+00 6.7413652198517982e-01 1.0274189977188232e+01 -2 0 2
468 2 6.2356444879831532e+00 8.1733056166426206e+00 2.6129868489422874e+00 4 0 2
381 2 1.8781045450627274e+00 -6.5694715969584139e-01 1.0697567592006923e+01 2 0 3
201 2 7.1971692760573909e+00 2.8347136760382918e+00 6.7288775411463115e+00 -2 0 0
589 1 -5.0191485251604462e-01 2.3538146688582184e-01 1.5527920849661326e+01 -3 0 -1
1086 2 1.6170672148529277e+01 8.9588332278226979e+00 4.2332919434560576e+00 -1 0 1
1084 1 1.6038900853686616e+01 9.2039799918726466e+00 3.3200706928735966e+00 -1 0 0
1408 1 -5.4929985916591271e+00 4.7855313513472897e+00 1.6739343281675453e+01 0 1 -1
319 1 1.0141496507799740e+01 -6.7289152000841446e-01 4.5880976602080148e+00 0 0 1
102 2 2.1504340633248593e+00 6.9508527354147986e+00 3.8455810540408955e+00 2 0 2
1004 2 1.4390528559440746e+01 4.8941448566293735e+00 7.9749253441591152e+00 3 0 0
221 2 -2.4831158482458409e+00 4.3770219828777757e-01 1.3418409558254307e+01 2 0 0
404 2 1.5678011866002572e-01 -5.1946262641603069e-01 2.3544971649485160e+00 1 0 0
1085 2 1.5754002842646152e+01 8.3633182385321394e+00 2.8829684668997597e+00 -1 0 0
491 2 -1.3817146921253971e+00 5.1730494410158796e+00 1.3179999973958234e+01 1 0 3
842 2 1.6309157919229705e+01 5.6857620100498778e+00 1.5896939055660473e+00 0 0 1
913 1 1.0250971064322192e+01 4.4342167014738720e+00 5.9169384532915386e+00 -2 0 1
317 2 1.0632394416969152e+01 7.2685535348197696e+00 1.3444999942517670e+01 1 0 -2
272 2 1.9990696454183303e+00 7.6144739096173897e-01 1.0905558683374459e+00 -2 0 1
659 2 1.5246105766430285e+00 7.5760383968718976e+00 1.0152908641812745e+01 1 0 0
878 2 9.3855532879540284e+00 2.5802885214978364e+00 1.7750060820658874e+01 0 0 2
428 2 3.5806691402994208e+00 1.0281875659329009e+00 2.6532954718160964e+00 1 0 4
83 2 6.5830537208929538e+00 -5.3680929788240839e-01 1.8866204495473621e+01 0 0 -2
563 2 1.3642266182204274e+01 8.3466487750971172e+00 1.5331532869571926e-01 -2 0 1
525 2 3.6968353202719975e+00 6.4959297576180202e+00 5.8403037430639690e+00 0 0 1
141 2 4.7309760803766405e+00 -1.3299976635229371e+00 4.0886330244530296e+00 -4 0 3
172 1 5.4243198072705212e+00 5.4761866165396222e-01 7.1118852020753858e+00 0 0 3
104 2 1.0111003709388406e+01 -1.8410737950616944e+00 1.4568281037949529e+00 0 0 2
174 2 5.9238819060994778e+00 1.3576627017864191e+00 6.7091126812651609e+00 0 0 3
358 1 7.8393130472897647e+00 3.2168057109590045e+00 1.4647890599758529e+01 -1 0 0
909 2 9.5920161824574350e+00 -5.4363663330147594e-01 9.6282779190337120e+00 3 0 5
1619 2 6.3440222154749266e+00 8.7187473114265241e+00 4.7147376186086678e+00 1 1 2
761 2 7.9409298243994142e+00 -1.3298414698784442e+00 1.6102223089820185e+01 2 0 4
760 1 7.0601672679811101e+00 -1.8086084910077957e+00 1.6097794563233730e+01 2 0 4
515 2 9.7109226109163451e+00 3.9219637597061592e+00 1.0852947053233191e+01 1 0 2
557 2 1.1957389167688920e+01 9.4006101381139722e+00 4.6653636444447244e+00 1 0 7
489 2 8.5511018330377411e+00 -1.3720250681851742e-01 7.7413555820215825e+00 -6 0 -5
528 2 1.5834402028260165e+01 8.1828547479263740e+00 6.5792522622269907e+00 -3 0 3
551 2 4.2472704096871972e-01 9.2880583927766303e+00 1.7606112453892200e+00 -4 0 0
771 2 -1.4057747814980175e+00 3.1276689571301057e+00 1.7177212576499841e+01 2 0 4
960 2 -2.1220286858554740e+00 8.6651255500028146e+00 1.2836207443851421e+01 4 0 4
708 2 5.5894031761274583e+00 5.7482996624639622e+00 1.7332695265977240e+01 2 0 4
969 2 8.0565939343319357e+00 -1.1485869546340726e+00 1.1289477121202799e+01 0 0 4
846 2 -1.5417322684550623e+00 2.6763524689146356e+00 1.1356503724083140e+01 0 0 1
722 2 -2.8965285861823604e+00 3.5647841465857777e+00 9.2706729290021226e+00 4 0 4
610 1 6.0122435718553939e+00 9.2261301605994248e+00 3.9063038253055811e+00 1 0 2
255 2 2.9947678625336858e+00 5.1519401058086594e+00 1.3730728786563411e+01 1 0 1
274 1 2.1358165525147550e+00 2.5735648209419075e+00 6.3071434261000077e+00 -2 0 0
72 2 9.3229737526028806e+00 9.6793535797777643e+00 1.4040445962005089e+01 3 0 3
516 2 8.3303095894354673e+00 4.5648071181018768e+00 1.0747584840885242e+01 1 0 2
679 1 -1.5318532662017832e+00 4.6031065470186832e+00 1.6249543196894624e+01 1 0 3
584 2 9.9425072373710925e+00 8.4183553139180827e+00 1.5698713968452115e+01 0 0 2
691 1 3.1029080380951086e+00 2.9492482099789825e+00 1.1658231288758564e+01 -1 0 1
204 2 1.2329475444433816e+01 7.3831378772663712e+00 1.5191475851538210e+00 -1 0 5
289 1 1.1079257178733624e+01 6.5565455456475696e+00 1.7952405338638457e+01 0 0 0
87 2 9.3114898484201696e+00 7.3253491054211484e+00 1.0248549706351241e+01 3 0 4
11 2 2.0147353625547568e+00 4.7659657462819141e+00 1.8227305985448190e+01 -1 0 -4
961 1 1.7032998965364911e+01 2.6267930405831619e+00 5.6243494679863315e-01 1 0 1
552 2 -6.1680245361500552e-01 9.5282882075304105e+00 2.8493350331348761e+00 -4 0 0
505 1 -3.6223461654059470e+00 8.7270584181113575e-01 1.4777366101960350e+01 0 0 0
569 2 5.8080027741291298e+00 4.5766106599444312e-01 1.4191983776582392e+01 -1 0 -2
855 2 -1.4593051486150097e+00 -1.2895286111709765e+00 1.5399875784861132e+01 1 0 0
291 2 1.0333068424531767e+01 6.8003710457597908e+00 1.7361613027669812e+01 0 0 0
841 1 1.7063016429016738e+01 5.2963373983871422e+00 1.1230235586292268e+00 0 0 1
721 1 -2.6384159942457490e+00 3.7176265668052437e+00 8.3145029745363654e+00 4 0 4
669 2 -3.3207536838563683e+00 5.3710921750525564e-01 1.1292344152112253e+01 0 0 2
229 1 1.4527139310819436e+01 8.0565683134903487e+00 7.6445834177432479e+00 1 0 2
768 2 1.1858691578805619e+01 1.2316004182615239e+00 1.0424237415389811e+01 -2 0 1
260 2 8.6335937242813721e-01 4.8199955708277971e+00 1.3986827687231534e+01 -4 0 1
200 2 5.7674097122216796e+00 3.1970832459379261e+00 6.2344971200218984e+00 -2 0 0
350 2 6.8855182955156877e+00 1.8348352782040540e+00 2.8644586112162953e+00 0 0 2
335 2 1.0638904887290916e+00 -1.4226999914479581e+00 1.3001188381771488e+01 -2 0 2
778 1 2.1170968240951096e+00 -7.7025693539316098e-02 1.5466799621872175e+01 -1 0 2
51 2 1.3116319834936689e+01 1.9264954581012534e+00 8.2765938445610434e+00 1 0 3
604 1 5.7861751052195078e+00 3.7690431799756494e+00 1.1563935763944013e+00 -2 0 3
590 2 -7.8906067864645824e-01 8.2233495694929637e-01 1.6245980550801310e+01 -3 0 -1
316 1 1.1195274324980630e+01 6.6973799026947880e+00 1.2899996392159656e+01 1 0 -2
802 1 1.4003377246072503e+01 -1.6896052143176208e+00 4.5129705568484138e+00 -1 0 1
706 1 5.2932859886775212e+00 5.2025019579682832e+00 1.8119495828247810e+01 2 0 4
1532 2 4.9885071571322825e+00 9.3001125938308835e+00 1.5889475195392734e+01 0 0 0
806 2 -6.5103308561794009e+00 7.9131794920780330e+00 1.8719432028849400e+01 8 0 5
914 2 9.4888650939603671e+00 4.6160391677660622e+00 5.3884282948627842e+00 -2 0 1
1005 2 1.3935027410601913e+01 6.3942451156291575e+00 7.9134313164509038e+00 3 0 0
675 2 5.3924954899382520e+00 3.7890200777386465e+00 8.9543904757327422e+00 0 0 2
494 2 -1.5845636114465300e-01 -1.6546620115962944e+00 1.8313711654307834e+01 0 0 1
737 2 1.4226509298476920e+01 2.1350316271498970e+00 4.3252281222146758e+00 -2 0 1
681 2 -2.4330440704173033e+00 4.4886653625058681e+00 1.5940503553389732e+01 1 0 3
218 2 1.0733316525815226e+01 -9.2720639564444252e-01 7.6880170163299715e+00 -1 0 3
374 2 1.0304913197945128e+01 2.3466142218057087e+00 1.8162600386832286e+00 1 0 1
470 2 1.3240660774626212e+01 -1.3806678194131830e+00 1.2407388867657858e+01 -2 0 1
874 1 1.2271491295603228e+01 2.1296111223941701e+00 2.1566361099363780e+00 -2 0 5
844 1 -7.3797603580971405e-01 2.1029241674537014e+00 1.1144945496468909e+01 0 0 1
14 2 3.9460809724073580e+00 2.7324241736195498e-01 6.1732490929815382e+00 2 0 0
717 2 3.9649301485542585e+00 2.6359611492365813e+00 1.5238770083894511e+01 1 0 4
137 2 3.4159507170688310e+00 7.9320571500231516e+00 9.2198909781028480e+00 -2 0 2
770 2 4.5380240920128934e-02 2.5523513576018235e+00 1.7667148138562080e+01 2 0 4
130 1 1.0738006158937608e+01 -1.9221538451287405e+00 1.4053789505030222e+01 -3 0 -2
522 2 1.1368658151437092e+01 3.7871429241458587e+00 1.3901265730419095e+01 0 0 -1
1410 2 -2.8483505767590955e+00 6.0959053692755241e+00 1.8851628251869656e+01 3 0 2
605 2 6.4098664138504970e+00 3.6744243041073723e+00 1.9073326197531677e+00 -2 0 3
599 2 2.3805461094840061e+00 3.1092159590024817e+00 1.3847448236730118e+00 -1 0 4
544 1 1.5359668225953267e+00 -1.7192775359824042e+00 6.2224338693659158e+00 0 0 2
67 1 1.1349696526692469e+01 -1.6105661597745002e-01 1.6928118163860322e+01 0 0 3
748 1 1.7052635205568976e+00 2.9730459106421634e+00 1.7937930446381138e+01 0 0 1
897 2 -3.2386484165061225e+00 6.7451310682554073e+00 1.6541854058708811e+01 1 0 3
667 1 1.4201704172011148e+01 6.9284477555805868e-01 1.0621499275288208e+01 -1 0 2
514 1 8.7967724036518646e+00 3.7236779721452420e+00 1.0591680044697551e+01 1 0 2
1025 2 -1.0974171523323364e+00 6.5957760416241307e+00 6.0451517956675360e+00 0 0 0
965 2 1.1579395781442093e+01 5.6557149839407783e+00 5.2987610276142432e+00 0 0 4
750 2 2.4326001133997055e+00 2.8604155597922620e+00 1.7286982475959604e+01 0 0 1
82 1 1.4219985726763795e+01 -9.6061102127912168e-01 2.3298624190669986e-01 0 0 -1
199 1 6.6002427438682627e+00 2.6839686639944365e+00 5.9550479111207819e+00 -2 0 0
473 2 -2.6500194753912174e+00 1.4023718099407216e+00 1.7463024206118547e+01 2 0 4
405 2 -5.7989642396477536e-01 -7.7898709760002416e-01 3.7556976847144399e+00 1 0 0
805 1 8.5140926512681792e-01 8.3938755204654694e+00 4.0357833333511123e-01 8 0 6
963 2 1.6918108235076492e+01 3.6130118530105264e+00 8.7224951002318085e-01 1 0 1
988 1 1.1411777696567054e+01 4.0519052083138609e+00 1.0788876010094247e+01 3 0 2
488 2 9.0476242971550747e+00 1.2617775672518770e+00 8.2267123784709497e+00 -5 0 -5
250 1 8.8706955550927553e+00 7.8342274250855048e-02 1.6178067196300081e+01 2 0 4
53 2 5.5639335159143872e+00 3.6306625846162044e-01 2.3450241545759485e+00 1 0 4
598 1 3.0355576775504600e+00 2.3964730608303260e+00 1.4069751583629384e+00 -1 0 4
385 1 1.0768320510714156e+00 4.3451671007837618e+00 2.0178787587450842e+00 0 0 2
962 2 1.8020416946417743e+01 2.5464944275276951e+00 4.8773766570399862e-01 1 0 1
684 2 5.1354895198101387e+00 -9.9196933426921219e-01 1.2647973642582123e+01 3 0 -1
408 2 1.0599449841968882e+01 7.6313129992510076e-01 5.6707673018041467e+00 -2 0 2
416 2 8.6973404215449808e+00 9.8031268547713211e+00 5.8013390688216571e-01 0 0 2
266 2 1.7997257355783081e+00 3.7417801250803366e+00 1.0904651825227290e+01 1 0 -1
46 1 -1.5795736307109571e+00 2.2993186430511390e+00 5.6398263739190782e+00 0 0 4
809 2 -3.3254365194458115e+00 3.8596922233537532e+00 1.3512913938020008e+01 1 0 1
275 2 2.4665043683211141e+00 1.6380299104378380e+00 6.0152438632916345e+00 -2 0 0
18 2 6.5711634261446186e+00 -8.6273722065471792e-01 7.0406150638866380e+00 0 0 3
251 2 9.8509470562349630e+00 -4.9649884671887801e-02 1.6145287299778612e+01 2 0 4
997 1 2.1454102890448556e-01 1.7699411683918176e+00 1.3544427721555650e+01 1 0 2
497 2 1.3977860108942844e+01 1.9886498568353339e-03 5.3785658927838993e+00 -3 0 1
202 1 1.3002776596411605e+01 7.0242941963633605e+00 9.2854433844564277e-01 -1 0 5
1494 2 1.7729156594226896e+00 7.2826683336213289e+00 1.5177970862154533e+00 1 0 3
966 2 1.3141503158367923e+01 5.7048391737412771e+00 4.9657676284124816e+00 0 0 4
375 2 8.8379429409441723e+00 2.3292472564597206e+00 2.2965807478481302e+00 1 0 1
136 1 4.2889936829917383e+00 7.8878804697787253e+00 8.7797453936197662e+00 -2 0 2
597 2 6.6730197560163491e+00 9.2674113818037469e+00 1.1346433933206649e+01 0 0 4
410 2 7.4150827151698619e+00 8.6063178439743950e+00 6.9485439961301232e+00 -3 0 3
90 2 8.6964049967110526e+00 3.3599693910205097e-01 1.3945056507865726e+01 -4 0 -1
1586 2 1.6147716636043246e+01 1.4449512415433743e+00 1.5190137771290244e+00 -1 0 1
582 2 1.4367464025336847e+01 6.8308900787786744e+00 2.1045256494791400e+00 -2 0 3
606 2 5.9810553749910396e+00 3.1408478266074917e+00 4.4174999449656105e-01 -2 0 3
838 1 4.3216267657911418e+00 -1.8239421462147469e+00 9.0954283120572210e+00 1 0 -3
817 1 -5.7623255714730623e+00 2.3175517577546527e+00 1.7605772272493830e+01 0 0 -2
265 1 1.0908261435751796e+00 4.1713127198814446e+00 1.0404685247338609e+01 1 0 -1
689 2 4.3552577422154695e+00 4.6936979985580223e+00 6.8858930209037243e+00 -3 0 0
280 1 8.7922164484271796e+00 7.4982834394468494e+00 1.6757654215797338e+01 -1 0 1
485 2 3.2354860184291239e+00 6.5432884218926990e+00 1.7490871450154657e+00 1 0 3
166 1 1.5213323927812695e+01 1.1871531105666144e+00 8.0526550528896923e+00 1 0 2
61 1 1.0147453795211256e+01 2.5223139464804332e+00 1.3126448046381967e+01 1 0 3
907 1 9.6673105059159603e+00 -1.0739705080599746e+00 1.0515220454483577e+01 3 0 5
47 2 1.6112494059215791e+01 2.3941895922109024e+00 4.8812121003681810e+00 -1 0 4
173 2 5.3564372713434985e+00 7.6046618865297821e-01 8.0853869430960650e+00 0 0 3
241 1 1.2282093129262234e+01 -4.2206409603216599e-01 2.8292269743083391e+00 1 0 0
915 2 1.0653286298931786e+01 3.6446332442053739e+00 5.5761877843500427e+00 -2 0 1
690 2 3.6727654533153586e+00 3.3287778408148965e+00 6.7577988014871968e+00 -3 0 0
506 2 -4.1916106399579212e+00 2.6898862758112774e-01 1.4197584332675987e+01 0 0 0
271 1 1.4472604931157684e+00 1.4144114349144310e-02 8.2994374358861367e-01 -2 0 1