LAMMPS data file via write_data, version 8 Apr 2021, timestep = 200000

6144 atoms
2 atom types

0.12689460467462396 59.78153977595774 xlo xhi
0.08478777631633566 28.255678223683372 ylo yhi
0.1130218783346078 27.298423121664573 zlo zhi
10.162728498876806 10.321002006627133 7.11551758643024 xy xz yz

Masses

1 16
2 2

Atoms # atomic

1 1 7.565545155729689 5.150279181250483 4.26605307259749 0 0 0
2 2 6.8252296271764745 4.600423876789233 3.922032987788887 0 0 0
3 2 7.173156296854211 6.014529448761275 4.495872947615459 0 0 0
4 1 10.277842012582209 6.964848701540764 10.886524590821665 0 0 0
5 2 10.807396250716405 6.747409378754754 11.731025802033333 0 0 0
6 2 10.048249764147323 7.8791346789136885 11.075017090696603 0 0 0
7 1 10.090816986778163 12.246981711605535 4.06917092216091 0 0 0
8 2 10.690440272155186 11.824010784107386 4.706940837660228 0 0 0
9 2 9.910266533698358 13.132467744401893 4.37175411779994 0 0 0
10 1 12.594633478849763 14.177289159830178 10.900358595996366 0 0 0
11 2 13.48207574544629 14.171630163585554 10.424527498901776 0 0 0
12 2 12.110186698122284 13.65455172805904 10.250369723887545 0 0 0
13 1 14.848222831820863 5.370305218985028 4.400615713348672 0 0 0
14 2 15.35299586186902 5.073135036612139 5.1984116817239645 0 0 0
15 2 14.654247174509678 6.3144685762483315 4.604014523471943 0 0 0
16 1 17.532528652448466 7.065500094548805 10.919709130866197 0 0 0
17 2 17.942618961391382 6.662395283779398 11.71944992840053 0 0 0
18 2 18.321548733028354 7.2845777204924635 10.406493232088383 0 0 0
19 1 17.640535425269853 12.435386067204826 4.05701759958336 0 0 0
20 2 18.399677133369227 12.618402150537946 3.507666765060619 0 0 0
21 2 17.967687973786738 11.931893991569837 4.816747007951623 0 0 0
22 1 20.391217770729686 13.838067759525124 10.810665425373854 0 0 0
23 2 21.096181269297087 14.219767859468757 10.299544329295143 0 0 0
24 2 20.011947023773516 14.556233822227584 11.369230260959618 0 0 0
25 1 11.688954764099508 8.093925348542218 6.457211036194857 0 0 0
26 2 11.03425432339954 8.76861796029484 6.159228318617089 0 0 0
27 2 11.153003362663465 7.599601637065909 7.153559980268279 0 0 0
28 1 14.191010519228623 9.925049447822246 13.117200906606506 0 0 0
29 2 14.315026463130478 9.29599828436579 12.385317572247926 0 0 0
30 2 13.569056898177061 10.588724685126996 12.693092257875978 0 0 0
297 2 7.809090789424013 14.029857709818526 1.312732646275088 0 0 0
32 2 14.520969342212432 14.656110768240557 5.693769889451829 0 0 0
34 1 16.8940920564333 16.847880643605436 13.238406807185209 0 0 0
113 2 15.696509561555597 6.69570149423944 13.58549923792961 0 0 0
37 1 18.959338924861232 8.253288766371877 6.355647122670784 0 0 0
38 2 18.18322260602887 8.735392705919045 6.040375199987909 0 0 0
39 2 18.471010497608116 7.59579639781512 6.93276688070075 0 0 0
40 1 21.516773070850967 9.992041893651741 13.042048131263293 0 0 0
5280 2 13.168010473685976 17.98169847310431 22.19706326466207 1 0 0
42 2 20.778028138850026 10.502514290760669 12.775122008009854 0 0 0
43 1 21.623612029886655 15.180579068487864 6.345120179545149 0 0 0
542 2 30.120136998706155 1.8570246138156252 5.577250920107922 0 0 0
46 1 24.297259497435306 17.042680716962803 13.346118221488283 0 0 0
2139 2 26.16956511088857 4.280240309598383 15.70051487686247 0 0 0
45 2 21.7614772497419 14.554859626116714 5.626062830187576 0 0 0
49 1 5.498527140773285 4.063191572169434 2.9300379706806865 0 0 0
50 2 5.686787156379199 3.1682610900808426 2.685305854580649 0 0 0
51 2 4.816246386317859 3.9481490588094585 3.5551170207395004 0 0 0
52 1 7.647761490965807 5.636051509737087 9.635445194163681 0 0 0
53 2 7.347738464386963 5.959168963808237 8.798225848275758 0 0 0
54 2 8.380446207651543 6.164686126575672 9.937788526581103 0 0 0
55 1 7.8983653799994995 10.972772057180903 2.875152952268921 0 0 0
56 2 8.049817216885625 10.012894666225607 2.6928965319639726 0 0 0
57 2 8.717166146158503 11.370582893159648 3.3120079317845286 0 0 0
58 1 10.313265861902625 12.789171828143731 9.699397782459187 0 0 0
59 2 9.944203579716325 13.22094692205368 8.911396317080598 0 0 0
60 2 10.613168961260586 11.990228954244426 9.188874902820768 0 0 0
61 1 12.755945964372387 3.5428243063822906 2.8273324541761307 0 0 0
62 2 13.191696859488893 4.2665819148267365 3.235900815938669 0 0 0
63 2 12.462544211989632 3.886267950496453 1.9291226344254497 0 0 0
64 1 15.231275541313009 5.2798989902095315 9.481230452853469 0 0 0
65 2 15.864181756218528 5.726893100241107 10.054262783699361 0 0 0
66 2 15.605432137759292 4.365260269524818 9.250674813549047 0 0 0
67 1 15.521269215217174 10.827698640476445 2.8417108878423165 0 0 0
68 2 16.331345322455938 11.395972059978831 3.023838932962787 0 0 0
69 2 15.810511774589502 9.920063611601911 2.528630744992785 0 0 0
70 1 18.005981411891888 12.513194813517108 9.705336567320753 0 0 0
71 2 17.442797958351353 12.874711325457968 9.041830740907102 0 0 0
72 2 18.782322731617015 13.099500910070631 9.722811105517087 0 0 0
73 1 1.2495726775684786 1.1013921789706071 0.7362527955974657 0 0 0
76 1 3.812318331120992 2.585170374131018 7.591723799846388 0 0 0
79 1 4.1216690872254444 7.991873887211282 0.7157766525196123 0 0 0
5031 2 9.672652788069726 11.201124415296587 19.327223243008966 1 0 0
81 2 4.770851732057847 7.314815161898751 1.1761940794464953 0 0 0
82 1 6.347744197184137 9.604150550418586 7.464716696919884 0 0 0
84 2 7.1723846384144485 9.048906394877886 7.465347219143534 0 0 0
85 1 8.555894327873924 0.745223578465078 0.670511988865623 0 0 0
87 2 8.34301866764795 1.170396374163963 1.5284838882486496 0 0 0
88 1 10.94675239301555 2.5269093409528627 7.7019765236020294 0 0 0
90 2 11.098268962075464 3.26043945240999 7.038964302061978 0 0 0
91 1 11.253102225807828 7.787901828627951 0.7960316057556147 0 0 0
93 2 12.06866605047819 7.240105400403837 1.0783194160544856 0 0 0
94 1 13.98567256769934 9.804209569410796 7.484182306724752 0 0 0
95 2 14.668418065819509 9.125190905794344 7.697445705960191 0 0 0
96 2 13.258190832061635 9.259513057198927 7.072205407360362 0 0 0
97 1 5.2942367199842115 4.598856384976206 6.059103222909887 0 0 0
98 2 5.696046317261382 5.269694863277707 6.71451497662108 0 0 0
99 2 4.711909235848829 4.02299981120357 6.589504781503783 0 0 0
100 1 7.985351087931681 6.620143873047362 13.028956550577691 0 0 0
101 2 7.824726569440956 6.996788523578649 12.165304727316421 0 0 0
102 2 8.507944323111769 5.825982560633583 12.916602282650786 0 0 0
103 1 7.829212424825832 11.56284617877942 6.1803185093784565 0 0 0
104 2 7.425063974284147 12.16235550077501 5.481148931903598 0 0 0
105 2 7.0410650140021165 11.05115911831202 6.488291418352204 0 0 0
106 1 10.13877799874612 13.246197825157536 12.936685926538766 0 0 0
107 2 10.49211183387918 13.846490656498482 13.656784406647539 0 0 0
108 2 10.907126766231977 13.01412135558653 12.37642446221931 0 0 0
109 1 12.594203783509444 4.392368554648418 6.315631056338223 0 0 0
110 2 13.245381739407964 3.7096102548975094 5.975002688496662 0 0 0
111 2 12.367778554879294 4.834806920185893 5.513799813334485 0 0 0
112 1 15.401064091356819 6.092912118991255 12.889171494198662 0 0 0
114 2 14.503874801871747 5.730420014147574 13.152848144150733 0 0 0
115 1 15.251845758111665 11.556852918166182 6.135668318581872 0 0 0
116 2 14.678362126691221 10.828582054494182 6.522571268734249 0 0 0
117 2 15.564974169479827 12.125929519832665 6.858906507017634 0 0 0
118 1 18.044889232191746 13.367097907918156 12.683669320316234 0 0 0
119 2 17.33573129073884 12.883229297799526 13.155992400041947 0 0 0
120 2 17.60913595297975 13.911764068252781 11.95698561661083 0 0 0
121 1 3.2989025930113156 3.279394066328689 4.488098247793634 0 0 0
123 2 3.6641148880832652 2.389932723006753 4.698063658307543 0 0 0
124 1 5.54840600133597 4.616865529648165 11.155383289373077 0 0 0
125 2 6.367528783564329 5.097199478979343 10.859979478573342 0 0 0
1993 1 21.31042098708912 4.388385758750843 14.405348574518282 0 0 0
127 1 6.015032087531771 9.99656277750495 4.429682057180493 0 0 0
146 2 7.593489326642322 1.980488231391946 5.75605616296579 0 0 0
129 2 6.675155281156644 10.594733459724482 3.98166644481837 0 0 0
130 1 8.273603773309745 11.861294986732782 11.098835418530824 0 0 0
2066 2 25.948980066961976 5.1730687078104 18.536657577248068 0 0 0
132 2 9.01538814772676 12.397227161577044 10.707051156922809 0 0 0
133 1 10.81248445510757 2.5597061888811203 4.379997263383837 0 0 0
134 2 11.090506472940005 1.8294494900161304 4.9665779565627 0 0 0
135 2 11.592516200945946 2.8910707277687475 3.919425165634735 0 0 0
136 1 13.008110980013758 4.514402019424171 10.937524131301467 0 0 0
137 2 13.747254765622328 4.9187922834633975 10.419757028094095 0 0 0
138 2 12.874075554688904 5.176571609331951 11.623103003257897 0 0 0
139 1 13.171544532345404 9.83369632338492 4.232399464769606 0 0 0
140 2 13.93359118113758 10.320494198142123 3.807519142700298 0 0 0
141 2 13.601874704573381 9.072668239950307 4.612024408389906 0 0 0
142 1 15.693223259434392 11.913111355172996 11.252875175272637 0 0 0
143 2 16.483716889709104 12.37534366881503 10.924434473807626 0 0 0
144 2 16.12676318078269 11.030957899383498 11.505980362603198 0 0 0
145 1 6.974133833783554 2.5001157491879376 5.1762449233788494 0 0 0
1667 2 13.392942853503788 15.850437047233523 25.56393710522355 0 0 0
147 2 6.817944551778628 3.3304763725479507 5.650294099656243 0 0 0
148 1 9.297707659372715 4.3146063924283835 12.21802195532034 0 0 0
149 2 9.608314794390079 4.408727243787724 11.284902432885492 0 0 0
531 2 20.86429895284771 1.5906020003918742 4.985731154023809 0 0 0
151 1 9.640327395213966 9.490622701672534 5.217899413641377 0 0 0
152 2 9.218502382196013 10.36078661155131 5.390734339045579 0 0 0
153 2 9.95632330136972 9.556416698097127 4.308913993416661 0 0 0
154 1 12.209058019321358 11.244968036923296 11.891331824948606 0 0 0
155 2 11.314860440775774 10.746430953849561 11.839480340183231 0 0 0
156 2 12.627345863798023 11.348848859107235 11.013219906091663 0 0 0
157 1 14.158885458726582 2.2676730226443396 5.216255516431557 0 0 0
457 1 16.047558009949476 0.6203162286534312 0.8084609360248498 0 0 0
159 2 14.57415966151752 2.6962473759655574 4.415474659092988 0 0 0
160 1 16.91722665490686 3.762792248549821 11.982744369027634 0 0 0
161 2 16.496664251243445 4.561293869399082 12.417623825575495 0 0 0
1614 2 8.4684248428579 5.523402206387744 20.70053541180949 0 0 0
163 1 16.822562905072964 9.392636039506865 5.140734816790787 0 0 0
164 2 16.400729273004423 10.258927906853376 5.40298032160781 0 0 0
165 2 17.17094770468504 9.500922945891235 4.2003545325096185 0 0 0
166 1 19.511554248699213 11.246593408261221 11.646933753269082 0 0 0
167 2 18.994546548808056 12.129014831516159 11.85389670242346 0 0 0
168 2 19.94576754662913 11.434058582141107 10.77091933395217 0 0 0
169 1 9.578624750612928 4.670152656237837 5.790411677180428 0 0 0
170 2 10.087027328846768 4.045580061447579 5.2632144064088235 0 0 0
171 2 8.69111947879838 4.683115062164948 5.41935992479555 0 0 0
172 1 11.6762523893802 6.216125380853667 13.061306952400882 0 0 0
173 2 12.003687728786765 6.9806921174314835 13.643513361593987 0 0 0
206 2 16.58272713522437 2.704642816388551 3.257198211953555 0 0 0
175 1 11.846292976585922 11.436066735789847 5.9021333216506395 0 0 0
176 2 12.494589327997373 10.96556400553288 5.3364177439020555 0 0 0
177 2 12.305812881423538 12.172326113228381 6.437533502118325 0 0 0
178 1 14.080542665550745 13.268117482287924 13.042946751824944 0 0 0
179 2 13.431770061898277 13.536452471216961 12.405753616773147 0 0 0
180 2 14.764704888445923 12.684443309022651 12.613376934360474 0 0 0
181 1 16.55614408941413 4.1741132499190865 6.3815869597050625 0 0 0
182 2 17.331402303927877 3.7851158924488733 5.909793902041354 0 0 0
183 2 16.905663108817755 4.8826368381334895 6.955162098942882 0 0 0
184 1 18.980195668951 5.9792666184866885 13.01112293579911 0 0 0
187 1 18.725947151317534 11.434885915642624 6.3484031947087525 0 0 0
188 2 18.66414584344443 10.885017160535934 7.1334294903652085 0 0 0
189 2 19.304123531589585 12.199125888039653 6.639040576539386 0 0 0
190 1 22.109909595518058 13.046833980943008 12.897952430581746 0 0 0
192 2 21.35132546228878 13.12246309677865 12.274260989472813 0 0 0
193 1 8.494832578890184 2.4263824210490434 2.7468671455079536 0 0 0
194 2 7.888408035081523 2.6184930110054525 3.4859174026861273 0 0 0
195 2 9.377099540841082 2.3317334211839627 3.08746056732609 0 0 0
196 1 10.652744869909048 4.432801201428421 9.828269231731106 0 0 0
197 2 10.555255429206834 3.5707348641796357 9.345154672011503 0 0 0
198 2 11.581877697984483 4.45991770823874 10.139017175270578 0 0 0
199 1 10.946473992552903 9.776847017970004 2.606640290703234 0 0 0
200 2 11.055188451554974 8.907117239956039 2.1041740965262523 0 0 0
201 2 11.734617957254208 9.772397576615429 3.182653240531933 0 0 0
202 1 13.66735726789894 11.715039718401531 9.471403100411134 0 0 0
203 2 14.436014194472307 11.701772613593537 10.047279918237306 0 0 0
204 2 13.865408636318973 10.916292590575123 8.911542279031869 0 0 0
205 1 15.684429788504556 2.7751233129049195 2.789004821985661 0 0 0
207 2 15.62914325806164 1.980096596410077 2.206305767196205 0 0 0
208 1 18.475427678613027 4.255385374813934 9.448706459200098 0 0 0
209 2 17.93317842125146 4.111317063091622 10.245322128206261 0 0 0
211 1 18.393764849978634 9.811626181186034 2.861357961632099 0 0 0
212 2 18.408804927843974 8.999597587761109 2.3124583406905783 0 0 0
213 2 18.29698566550216 10.493971622788555 2.1909875978615903 0 0 0
214 1 21.24831718333608 11.67285042451813 9.344445349118843 0 0 0
215 2 22.117174645069653 11.594989157657757 9.716234664876547 0 0 0
216 2 21.213874690440605 10.880832412367065 8.749411784240653 0 0 0
217 1 5.68592217877874 1.600592805853673 1.8734153747055555 0 0 0
1877 2 12.23215599640896 12.622029966083844 25.19722819461934 0 0 0
219 2 5.855466236629622 2.020011018727908 0.9968000524222731 0 0 0
220 1 8.126977050869565 3.4185312729933854 8.4074988090756 0 0 0
221 2 8.08951000572929 4.193004580242965 9.072539519520879 0 0 0
222 2 8.672656277881966 3.5771765717349084 7.638433787200378 0 0 0
223 1 8.172865391978108 8.469322785634562 1.9461024122501926 0 0 0
224 2 8.77079403917902 7.722918757926383 2.1379296569000767 0 0 0
225 2 8.489915540997723 8.845686339248497 1.0638545934138777 0 0 0
226 1 10.678656733209863 10.200576870847224 8.500328919212922 0 0 0
227 2 11.363108946778421 9.594652719359297 8.752197771705916 0 0 0
228 2 10.919297489581929 10.384215344139143 7.546039605370649 0 0 0
229 1 13.117640465766154 1.0161085962341556 1.6820044932135718 0 0 0
751 1 24.569332844257655 14.840304641026256 5.238831194847379 0 0 0
231 2 13.16665737450827 1.7968283740914908 2.2832137987146646 0 0 0
232 1 15.724658540736515 2.851406259422482 8.787063051743907 0 0 0
2010 2 31.554030727537015 5.799127437869385 21.085722839018818 0 0 0
234 2 16.110294212864577 3.0079413655522815 7.917823551173378 0 0 0
235 1 15.486690155314983 8.386308908865521 1.7105519174067039 0 0 0
236 2 15.76185590332424 8.854687861216021 0.8674871027752216 0 0 0
237 2 16.16602902320423 7.673009011629968 1.78101931844102 0 0 0
238 1 18.01406424367323 10.095118474739287 8.663421832333036 0 0 0
239 2 18.708274234105613 9.50500449324029 8.960294902761158 0 0 0
240 2 18.140117939409773 11.032201678673108 9.082184183378844 0 0 0
241 1 7.749126879339404 4.570052597916101 0.9443822310326795 0 0 0
242 2 8.192169490802364 3.9974212932667603 1.6216181648978678 0 0 0
243 2 7.033042748166257 5.034667223874189 1.4268511113051832 0 0 0
244 1 10.01532335259747 6.29051849130437 7.709332628909888 0 0 0
245 2 10.190170358779124 5.779637083096276 8.535158484159586 0 0 0
246 2 10.12453211505876 5.604668333513447 7.030186790374363 0 0 0
247 1 10.444646322837524 11.824964466749067 1.0165920899468426 0 0 0
248 2 9.858703768342744 12.510448091270737 1.324737382055255 0 0 0
249 2 10.680945940307394 11.219471399286913 1.75790458022467 0 0 0
250 1 12.493404722990002 13.443365731372987 7.848593686454377 0 0 0
251 2 12.992843879341855 12.852545732861184 8.490490367078069 0 0 0
252 2 13.26000434722001 13.998987535576138 7.466214935431729 0 0 0
253 1 14.83291872467529 4.792886177769361 1.1034547824131096 0 0 0
254 2 15.098672294321807 4.1727144020589035 1.8032551621830728 0 0 0
255 2 14.259043243013345 5.430325528753038 1.5790896181983884 0 0 0
256 1 17.549595423733667 6.260116879008005 7.803107973637257 0 0 0
257 2 17.844608104874997 5.672420673412996 8.54126169465682 0 0 0
258 2 16.87839940998841 6.896997126980437 8.148536508572573 0 0 0
259 1 17.706871119172124 11.686615457516636 1.0121750104409206 0 0 0
260 2 16.99903695582752 12.39565634086439 1.2431988128985263 0 0 0
516 2 22.931553325189412 11.82219282415638 11.690181865030887 0 0 0
262 1 20.23768198521249 13.38190910086467 7.645212773945837 0 0 0
263 2 20.76683611704746 12.794790925587053 8.259751515061255 0 0 0
264 2 20.923854055074827 14.054627357320118 7.342304857296258 0 0 0
265 1 9.70099226851097 6.18448947041485 2.8987388576406863 0 0 0
266 2 8.947797443869904 5.6638631771093175 3.2731487121248346 0 0 0
267 2 10.075497252136854 5.623168830215087 2.13768527780829 0 0 0
268 1 12.2415079349887 8.149661765831222 9.36100052046566 0 0 0
269 2 12.58125197615521 7.565156735348025 8.637784881090948 0 0 0
270 2 11.493769178981623 7.667327842401829 9.747906354823067 0 0 0
271 1 12.218291324206774 13.482107329184412 2.7951732773588773 0 0 0
272 2 12.9724088831563 13.570493965821719 3.42559136007935 0 0 0
273 2 11.50630815727559 12.9228312184058 3.206772871340668 0 0 0
274 1 14.947178917820882 14.766505986219594 9.456664845919132 0 0 0
275 2 14.479584439072436 15.558128827940385 9.159216510302443 0 0 0
276 2 15.461256062407342 14.983526869330214 10.279232248976982 0 0 0
277 1 17.37892571944142 5.787659987939064 3.0878141051721824 0 0 0
278 2 16.520909078055727 5.4504785467432555 3.420845083810886 0 0 0
280 1 19.659253606693092 7.843707151552467 9.494323230619795 0 0 0
282 2 20.476389266171335 7.860116938743519 10.004977371031677 0 0 0
283 1 19.775144077818794 13.296866830055633 2.7735981348125325 0 0 0
285 2 20.46723423541388 13.450699514105644 3.464911933824084 0 0 0
286 1 22.42623100140022 15.001393654217528 9.556174617377392 0 0 0
287 2 23.085023999696684 15.187952536097463 10.258994640642566 0 0 0
288 2 21.8407749347935 15.761146366433632 9.367799109530921 0 0 0
289 1 6.0197713332624065 6.674430132031774 2.110930446846652 0 0 0
290 2 5.550176669283913 6.78452698293055 2.9902440531317223 0 0 0
291 2 6.653397539734111 7.431805176324529 1.991690523208532 0 0 0
292 1 8.611377885084806 8.485547851215689 8.75888995845772 0 0 0
293 2 9.122127177343806 7.675095421708037 8.553452816399147 0 0 0
294 2 9.26800687206282 9.193841909867656 8.62706124649786 0 0 0
295 1 8.640606621207597 13.842972277507638 1.8088615785460953 0 0 0
296 2 8.223781087606024 13.733753046001578 2.709720180845833 0 0 0
1694 2 20.111106220504666 5.36016250239829 19.133539171903397 0 0 0
298 1 10.873908859417941 15.794474518571027 8.76418994642903 0 0 0
299 2 11.252795424258696 14.963561996269044 8.36743941119607 0 0 0
666 2 35.31404036750666 7.9783380906047086 9.806050881265667 0 0 0
301 1 13.444050986454751 6.665897414792176 2.2411468259877947 0 0 0
302 2 12.923996668525623 6.771621331797285 3.0774580375832477 0 0 0
303 2 14.036381008766897 7.441303436938373 2.095864705188331 0 0 0
304 1 15.913025605708341 8.477796888864185 8.718378885146269 0 0 0
305 2 15.48401494386152 8.362123275481423 9.575425225194028 0 0 0
306 2 16.533723947520418 9.265118216581042 8.858335685124203 0 0 0
307 1 16.13141778940846 13.702836462262248 1.8367571989001579 0 0 0
150 2 10.130471507952766 3.8397648930463935 12.559269703675255 0 0 0
2228 2 36.545910730788556 18.16530954339097 15.381461349650698 0 0 0
310 1 18.51379440125925 15.42561807564076 8.758718316778797 0 0 0
311 2 18.92790360128991 14.691661781572096 8.354575497011323 0 0 0
383 2 20.63641541047195 16.385431396469308 12.16924486439176 0 0 0
313 1 3.9208669350255176 4.739516219225391 0.5736400074824327 0 0 0
314 2 13.954493784182226 11.040605786439828 27.256655806250784 0 0 -1
315 2 4.4826523684770505 4.472862819271157 1.3681358546740912 0 0 0
316 1 6.488573581465096 6.500580628902073 7.45542575620415 0 0 0
317 2 6.903632182794701 6.871431834744216 6.647652669528317 0 0 0
318 2 5.853109815052134 7.1018802722194305 7.87834935422361 0 0 0
319 1 6.2611263653499005 12.035087378071657 1.1413490261939907 0 0 0
320 2 5.862013603259103 11.25739849134007 0.6295667338496083 0 0 0
321 2 6.919687027327947 11.611919215503878 1.74989732631068 0 0 0
322 1 8.718403114770027 13.527628737503928 7.829627955763735 0 0 0
323 2 8.032501634090682 13.978281908786107 8.344673250080525 0 0 0
324 2 8.221357922437933 12.81111918404819 7.416022576502969 0 0 0
325 1 11.261607111204272 4.517346526729814 0.827211236846282 0 0 0
2136 2 41.91909124721993 14.759546599929982 23.667381449748806 0 0 0
328 1 13.875564209896075 6.4185146019179 7.567396727485996 0 0 0
329 2 13.332947610382698 5.680340058927752 7.167672534720179 0 0 0
330 2 14.421039531506084 6.124170565941097 8.303514800100539 0 0 0
331 1 13.722663323402573 11.883028678528063 1.0111194108564832 0 0 0
332 2 13.194610363081189 12.385806637364052 1.6476881500326153 0 0 0
333 2 14.426902326742523 11.464748543941583 1.5746547849113153 0 0 0
334 1 16.30991628679997 13.507072855303347 7.610305791067859 0 0 0
335 2 16.66266879630993 13.862119094514327 6.744711636034915 0 0 0
336 2 15.887567604765199 14.13632992409193 8.202696295501239 0 0 0
337 1 4.5345456958119685 6.41029248165267 4.4165192080633595 0 0 0
338 2 4.61620650172704 5.617902929217915 5.007283200647804 0 0 0
279 2 17.627033547663437 5.127560856563676 2.4723946800647596 0 0 0
340 1 7.289456413201581 8.363889871744378 11.133854549713314 0 0 0
1665 2 10.203656879131938 13.339092447401233 17.48885043241246 0 0 0
342 2 7.838157309050657 8.597046536270206 10.345202023685962 0 0 0
343 1 7.2002584093590105 13.552270546794386 4.024898277796867 0 0 0
308 2 15.375838412058467 14.07950962848319 1.3209594760694259 0 0 0
185 2 19.294794449330784 6.8547701113341635 13.415509371140912 0 0 0
346 1 9.496777851214674 15.298658699872364 11.060461890283179 0 0 0
347 2 9.87024343417073 15.354751900951616 10.14816409035715 0 0 0
348 2 9.560820614748021 14.397078397607654 11.37976469822287 0 0 0
349 1 11.928725741043891 6.29036274677885 4.460130641775958 0 0 0
350 2 11.944508773090963 6.9809518762466665 5.138286313169701 0 0 0
351 2 10.988975312934427 6.275019514995495 4.153828193907762 0 0 0
352 1 14.303567133441081 7.9967876267218445 11.083983086708574 0 0 0
353 2 14.534672417383813 7.252280501738246 11.691192540750384 0 0 0
354 2 13.454082323924483 7.824164412079899 10.677013652690372 0 0 0
355 1 14.581352362779858 13.441612072374763 4.098084450659543 0 0 0
356 2 14.872056576071662 12.815362243785748 4.709183785861866 0 0 0
357 2 15.309297959311483 13.643922870194341 3.5023865218120194 0 0 0
358 1 17.031688902482966 15.022997361790441 11.034319713717304 0 0 0
359 2 16.98313151300359 15.630351100401384 11.762731942940682 0 0 0
360 2 17.683977456919344 15.374417166325165 10.344561733646024 0 0 0
361 1 7.565880162416989 7.637684758493644 5.121863100953467 0 0 0
362 2 6.9308540249774 8.355123574262311 4.914992481166543 0 0 0
363 2 8.42733206841983 8.077543788565912 4.930792183974641 0 0 0
364 1 10.061570918997791 9.808880948733853 11.962159356911382 0 0 0
365 2 9.285092144344901 10.29135145430527 11.644460342720487 0 0 0
366 2 9.873279059355493 9.494305091148505 12.873710906339157 0 0 0
367 1 9.85668779360537 14.547729829501925 5.44134770448057 0 0 0
126 2 5.946377162051066 3.854392462793135 11.638454326069816 0 0 0
369 2 9.42626079922881 14.29609780831206 6.272524867549758 0 0 0
370 1 12.334646169543495 16.579483919449267 12.014405372936228 0 0 0
1619 2 11.006681117498058 12.893659257130007 20.515660979354568 0 0 0
372 2 12.50034718891218 15.779651957442582 11.566637433909595 0 0 0
373 1 14.500313613045293 7.8849635350825205 5.36013453703787 0 0 0
374 2 15.406049479722942 8.218497106845728 5.4581029937376355 0 0 0
375 2 14.284110826300816 7.481931550244004 6.246162659991623 0 0 0
376 1 17.182889339886213 9.827581049846916 11.871763903728324 0 0 0
377 2 18.09098059298791 10.143210868912863 11.837003999312747 0 0 0
378 2 17.15275975066367 9.05245899937961 11.27101289589326 0 0 0
379 1 17.164598531056658 14.86515365158883 5.343766486745974 0 0 0
381 2 17.36166375448151 14.093775534987985 4.750817908063794 0 0 0
382 1 19.731632494582115 16.046406694727157 12.245465053056375 0 0 0
1836 2 15.546133625597195 19.607989777922786 21.71433773937363 0 0 0
384 2 19.626739906191926 15.95362227082991 13.224469126673633 0 0 0
594 2 34.00763675377786 4.1386015878625955 9.89637668154522 0 0 0
602 2 19.7342353226316 0.7159417999044446 1.690123496334604 0 0 0
210 2 19.343985358012244 4.431074672835733 10.00771335266224 0 0 0
284 2 20.252423302933558 12.792828089537508 2.108760415435801 0 0 0
1611 2 6.928358443635979 5.254373731347351 13.681131088983824 0 0 0
1722 2 13.412526074794503 2.047918524722302 0.28408483948746227 0 0 1
74 2 12.176942645671684 8.654475071230419 27.254327289687843 0 0 -1
344 2 7.06161744319402 14.380522345747968 4.580050167683571 0 0 0
468 2 20.361473837514723 9.205418998692137 6.970457910592085 0 0 0
512 2 19.930561969193548 10.53649852595186 5.192454821294744 0 0 0
131 2 7.685587201713696 11.55377921397643 10.361044442140662 0 0 0
174 2 11.230731852410887 5.677896816983058 13.72639566022396 0 0 0
261 2 17.33996398046129 10.961842254289557 0.434167398712019 0 0 0
186 2 18.66503356359652 5.449947320185622 13.76201116849626 0 0 0
92 2 10.593506424530105 7.285457057568349 0.36010763134287804 0 0 0
722 2 18.64172551342087 6.1427221885553775 3.966404893161595 0 0 0
1617 2 9.213682176124518 11.925524414475637 13.575054478086003 0 0 0
86 2 8.887970481199183 1.5521267517859718 0.203233385654623 0 0 0
1857 2 11.716710005671978 15.787616829802287 13.618800986720844 0 0 0
1537 1 12.927556639878409 8.956433268223003 17.799907356964614 0 0 0
1538 2 13.189210791773299 8.38075015770047 18.496688353965705 0 0 0
1539 2 12.148916009422157 8.534270919863696 17.37702874872687 0 0 0
1540 1 15.355424093217962 10.671095959263658 24.412266468724784 0 0 0
1541 2 14.99983122656159 11.556275054849886 24.72912553405623 0 0 0
1542 2 14.562732866570784 10.20192686189564 24.146138227577456 0 0 0
1543 1 15.172393886466786 15.75760576743563 17.676123030692196 0 0 0
1544 2 15.763328136570761 15.307487755496206 18.3855102921898 0 0 0
1545 2 14.927348499074972 16.5662436158109 18.14880751188194 0 0 0
1546 1 17.744190094389868 17.512143979340355 24.509689641738817 0 0 0
1547 2 17.528550082690106 18.37704443408196 24.90801299142894 0 0 0
1548 2 17.960021083170737 17.015448576561184 25.304121640766645 0 0 0
1549 1 19.98019010204892 8.858847490519377 17.71856228540623 0 0 0
1550 2 20.92973399978298 8.952620535889455 17.34167139647686 0 0 0
1551 2 19.689649517469533 9.723784348240311 17.98011411770684 0 0 0
1552 1 22.732571248095415 10.624871927113597 24.529520516005437 0 0 0
1553 2 22.014662688459584 10.161558149572784 24.071141357580515 0 0 0
1554 2 23.023845569208735 10.197037680791123 25.34468679856614 0 0 0
1555 1 22.849515078286235 15.806577557185255 17.90761743657974 0 0 0
1556 2 22.456962518724662 16.67161909871142 18.16034600271482 0 0 0
1557 2 23.584713785434975 15.896495764526604 17.33164451010296 0 0 0
1558 1 25.49370924726938 17.465822084097063 24.5283580733244 0 0 0
1559 2 26.25966608669652 17.863107528717077 24.017450769153974 0 0 0
1560 2 24.870271395361343 18.238186020891586 24.68507504476009 0 0 0
1561 1 16.787162634938543 12.035823596968148 19.8697918544423 0 0 0
1562 2 16.998911996106198 11.494792726530191 19.092463082741443 0 0 0
1563 2 15.838827946903503 12.380179968080407 19.78868304849748 0 0 0
1564 1 19.214484968842815 13.729999464656146 26.72956267660321 0 0 0
1565 2 19.571116230329867 13.247699806216051 25.915074049621342 0 0 0
1884 2 13.957163986336848 18.66228318518094 24.359866737779285 0 0 0
1567 1 19.351787320770416 18.959528850007565 19.78211366851078 0 0 0
1570 1 22.127277930568216 20.717042308852694 26.851450662244137 0 0 0
1573 1 24.34597829530077 11.771170222271438 19.858617607067277 0 0 0
1574 2 23.51779986816595 12.216309825781199 19.598368060226303 0 0 0
1575 2 23.989069017026225 11.097582718076785 20.440381884708053 0 0 0
1576 1 26.936344324570047 13.346785264280307 26.945266782132034 0 0 0
1578 2 26.202953712634883 13.824518876901774 26.503939510409392 0 0 0
1579 1 26.81277636086974 18.670105415839203 20.338195459270466 0 0 0
1582 1 29.48073347186458 20.478012307257238 26.905625660074453 0 0 0
1814 2 22.45768298306883 9.016887703175135 15.772879476234985 0 0 0
1585 1 10.43004113752453 7.345690426207494 16.504931305504936 0 0 0
1586 2 10.523668121941622 6.447367674069922 16.104357815252573 0 0 0
1587 2 9.876688634923653 7.824486103405447 15.807675361891866 0 0 0
1588 1 13.213716689005865 9.137567692228421 23.480402353990268 0 0 0
1589 2 12.92468499096719 9.626552966805736 22.704040505724283 0 0 0
1590 2 13.248097449864563 8.221566930488523 23.073139551300518 0 0 0
1591 1 12.92334979225114 14.60787485407474 16.641095474792913 0 0 0
1592 2 12.389514958844567 14.41907624576715 17.443482038580886 0 0 0
1593 2 13.759013786502816 15.002715090089161 16.88866483826675 0 0 0
1594 1 15.679417474166002 16.044760104106757 23.271971046968766 0 0 0
1595 2 15.075784630837463 16.02450040007517 24.025081610544525 0 0 0
1596 2 16.48206366496228 16.55704185290372 23.58668568808816 0 0 0
1597 1 17.703091433078963 7.313836288360324 16.464255667962234 0 0 0
1598 2 18.399150982446464 7.869645213797961 16.831443843540992 0 0 0
1599 2 17.263587343477603 7.795129054647522 15.655102150008817 0 0 0
1600 1 20.389265750422297 9.16561929561326 23.412015360319543 0 0 0
1601 2 20.654986402794833 8.306362444769213 23.03244012063656 0 0 0
1602 2 19.52605056893257 9.028182173809046 23.866885169647404 0 0 0
1603 1 20.8026614409673 14.354213145946355 16.60978489541455 0 0 0
1604 2 21.445718793482797 15.013506605068942 16.97919922120574 0 0 0